/*--------------------------------*- C++ -*----------------------------------*\
  =========                 |
  \\      /  F ield         | OpenFOAM: The Open Source CFD Toolbox
   \\    /   O peration     | Website:  https://openfoam.org
    \\  /    A nd           | Version:  7
     \\/     M anipulation  |
\*---------------------------------------------------------------------------*/
FoamFile
{
    version     2.0;
    format      ascii;
    class       volScalarField;
    location    "105";
    object      p;
}
// * * * * * * * * * * * * * * * * * * * * * * * * * * * * * * * * * * * * * //

dimensions      [0 2 -2 0 0 0 0];

internalField   nonuniform List<scalar> 
3700
(
-0.239782
-0.212811
-0.190456
-0.17125
-0.154527
-0.13987
-0.126968
-0.115549
-0.105392
-0.0963233
-0.0882033
-0.0809179
-0.0743727
-0.0684884
-0.0631982
-0.0584448
-0.0541793
-0.0503595
-0.046949
-0.0439164
-0.0412346
-0.0388802
-0.0368332
-0.0350765
-0.0335959
-0.0323793
-0.0314173
-0.0307021
-0.0302284
-0.0299923
-0.239145
-0.210509
-0.187503
-0.167909
-0.150972
-0.136261
-0.123414
-0.112117
-0.102125
-0.0932481
-0.085334
-0.0782587
-0.071921
-0.066237
-0.0611367
-0.0565612
-0.0524603
-0.0487914
-0.045518
-0.042609
-0.0400374
-0.0377805
-0.0358186
-0.0341352
-0.0327165
-0.0315509
-0.0306292
-0.029944
-0.0294902
-0.029264
-0.233881
-0.204581
-0.181676
-0.162196
-0.145441
-0.130993
-0.118446
-0.107462
-0.0977887
-0.089228
-0.0816212
-0.0748401
-0.0687806
-0.0633572
-0.0584988
-0.0541461
-0.050249
-0.0467652
-0.043659
-0.0408997
-0.0384613
-0.0363218
-0.0344622
-0.0328668
-0.0315222
-0.0304175
-0.029544
-0.0288947
-0.0284646
-0.0282503
-0.223926
-0.195097
-0.173043
-0.154188
-0.138019
-0.124148
-0.11214
-0.101657
-0.0924527
-0.084329
-0.0771276
-0.0707213
-0.0650073
-0.059901
-0.0553325
-0.0512438
-0.0475861
-0.0443184
-0.0414062
-0.03882
-0.0365352
-0.0345306
-0.0327884
-0.0312937
-0.030034
-0.0289991
-0.0281806
-0.0275722
-0.0271692
-0.0269684
-0.209706
-0.182427
-0.16187
-0.144099
-0.128894
-0.115883
-0.104628
-0.0948159
-0.0862154
-0.0786373
-0.0719298
-0.0659713
-0.0606633
-0.0559249
-0.0516895
-0.0479016
-0.0445149
-0.0414905
-0.0387959
-0.0364035
-0.0342899
-0.0324356
-0.030824
-0.0294412
-0.0282756
-0.027318
-0.0265605
-0.0259975
-0.0256245
-0.0254387
-0.192023
-0.167141
-0.148549
-0.132229
-0.118307
-0.106387
-0.0960622
-0.087064
-0.0791826
-0.0722432
-0.0661058
-0.0606583
-0.0558092
-0.0514835
-0.0476191
-0.0441644
-0.0410766
-0.0383197
-0.0358636
-0.0336829
-0.0317562
-0.0300657
-0.0285962
-0.0273351
-0.0262719
-0.0253982
-0.024707
-0.0241932
-0.0238527
-0.0236831
-0.171889
-0.149928
-0.133563
-0.118958
-0.106543
-0.0958776
-0.0866166
-0.0785431
-0.0714708
-0.0652441
-0.0597388
-0.0548545
-0.0505085
-0.046633
-0.0431717
-0.0400781
-0.0373132
-0.0348445
-0.032645
-0.0306918
-0.0289657
-0.0274506
-0.0261333
-0.0250024
-0.0240487
-0.0232647
-0.0226444
-0.0221831
-0.0218774
-0.0217252
-0.15036
-0.131524
-0.117457
-0.104712
-0.0939221
-0.0846002
-0.0764885
-0.0694131
-0.0632117
-0.0577506
-0.0529228
-0.0486408
-0.0448318
-0.0414358
-0.0384032
-0.0356928
-0.0332702
-0.0311068
-0.0291787
-0.0274658
-0.0259515
-0.0246217
-0.0234649
-0.0224713
-0.0216331
-0.0209437
-0.020398
-0.0199921
-0.0197231
-0.019589
-0.128404
-0.112629
-0.100783
-0.0899293
-0.0807761
-0.0728212
-0.0658933
-0.0598494
-0.0545503
-0.0498845
-0.0457618
-0.0421069
-0.038857
-0.0359606
-0.0333746
-0.0310633
-0.0289972
-0.0271515
-0.0255058
-0.0240431
-0.022749
-0.0216119
-0.020622
-0.0197712
-0.0190529
-0.0184619
-0.0179938
-0.0176454
-0.0174145
-0.0172994
-0.106802
-0.0938437
-0.0840423
-0.0750084
-0.0674239
-0.0608034
-0.0550469
-0.0500301
-0.045636
-0.0417727
-0.0383643
-0.0353466
-0.0326663
-0.0302796
-0.0281499
-0.0262469
-0.0245457
-0.0230255
-0.0216693
-0.0204629
-0.0193947
-0.0184552
-0.0176365
-0.0169321
-0.0163369
-0.0158467
-0.0154582
-0.0151689
-0.0149771
-0.0148814
-0.0861151
-0.0756352
-0.0676424
-0.0602824
-0.0541443
-0.0487836
-0.0441479
-0.0401234
-0.0366124
-0.0335385
-0.0308369
-0.0284528
-0.0263414
-0.0244652
-0.0227937
-0.0213016
-0.019968
-0.0187762
-0.0177123
-0.0167651
-0.0159254
-0.0151858
-0.0145404
-0.0139843
-0.0135137
-0.0131257
-0.0128178
-0.0125884
-0.0124361
-0.0123602
-0.0666882
-0.0583281
-0.0518794
-0.0460057
-0.0411622
-0.0369592
-0.0333669
-0.0302778
-0.0276094
-0.0252955
-0.0232794
-0.0215139
-0.0199604
-0.0185873
-0.0173686
-0.0162836
-0.0153153
-0.0144503
-0.0136777
-0.0129889
-0.0123773
-0.0118375
-0.0113653
-0.0109576
-0.0106117
-0.010326
-0.0100989
-0.00992933
-0.00981669
-0.00976049
-0.0487253
-0.0421141
-0.036948
-0.0323581
-0.0286472
-0.0254846
-0.022843
-0.020619
-0.0187396
-0.0171444
-0.0157821
-0.0146107
-0.0135963
-0.0127114
-0.0119341
-0.0112471
-0.0106368
-0.0100926
-0.00960661
-0.00917257
-0.00878593
-0.00844332
-0.00814231
-0.00788117
-0.00765871
-0.00747412
-0.00732689
-0.00721667
-0.00714327
-0.00710661
-0.0323204
-0.0270946
-0.0229699
-0.0194607
-0.0167222
-0.014477
-0.0126866
-0.0112499
-0.0100981
-0.00917267
-0.00842498
-0.00781632
-0.00731565
-0.00689842
-0.00654565
-0.00624281
-0.005979
-0.00574622
-0.00553875
-0.00535264
-0.00518527
-0.00503508
-0.00490121
-0.00478333
-0.00468147
-0.00459583
-0.00452675
-0.00447457
-0.00443959
-0.00442205
-0.0174694
-0.0133142
-0.010013
-0.00739106
-0.00547291
-0.00402283
-0.00298348
-0.00225399
-0.00176425
-0.00145483
-0.00127791
-0.00119576
-0.00117873
-0.00120406
-0.00125473
-0.00131824
-0.00138582
-0.00145152
-0.00151159
-0.00156399
-0.00160785
-0.00164319
-0.00167062
-0.0016911
-0.00170576
-0.00171578
-0.00172228
-0.00172623
-0.00172841
-0.00172937
-0.00411613
-0.000773629
0.00189792
0.00380749
0.00504437
0.00581569
0.00620051
0.00630246
0.0061968
0.00594584
0.00559867
0.00519378
0.00476068
0.00432135
0.00389173
0.00348288
0.00310207
0.00275363
0.00243962
0.00216051
0.00191563
0.00170354
0.00152231
0.00136982
0.00124392
0.00114254
0.00106384
0.00100624
0.000968544
0.000949898
0.0077966
0.0105521
0.0127621
0.0141156
0.0147957
0.0149954
0.014816
0.0143672
0.0137316
0.0129759
0.0121527
0.0113022
0.0104547
0.00963249
0.00885102
0.00812051
0.00744722
0.00683418
0.0062821
0.00579018
0.00535641
0.00497804
0.00465201
0.00437518
0.00414443
0.00395692
0.00381011
0.00370191
0.00363069
0.00359536
0.018311
0.0206977
0.0225894
0.023527
0.0237609
0.0234864
0.022826
0.0218985
0.0207956
0.0195901
0.018339
0.0170852
0.0158608
0.0146887
0.0135845
0.0125582
0.0116152
0.0107578
0.00998554
0.00929656
0.00868768
0.00815503
0.00769458
0.00730226
0.00697407
0.00670647
0.00649634
0.00634106
0.00623868
0.00618781
0.0274769
0.0297064
0.0313976
0.0320416
0.0319268
0.0312649
0.0301998
0.0288611
0.027351
0.0257494
0.0241181
0.0225036
0.0209408
0.0194533
0.0180572
0.0167627
0.0155747
0.0144948
0.0135221
0.0126534
0.0118846
0.0112111
0.0106279
0.0101299
0.00971263
0.00937174
0.00910363
0.0089053
0.00877437
0.00870927
0.0353496
0.0376072
0.0392084
0.0396582
0.03928
0.0383089
0.0369084
0.0352225
0.0333632
0.0314184
0.0294542
0.0275227
0.0256606
0.0238932
0.0222375
0.0207038
0.0192971
0.0180184
0.0168663
0.0158367
0.0149245
0.0141247
0.0134313
0.0128386
0.0123414
0.0119347
0.0116145
0.0113775
0.0112209
0.011143
0.0419155
0.0443432
0.0460147
0.0463639
0.0457988
0.0445951
0.0429242
0.0409491
0.0387975
0.0365619
0.0343145
0.0321101
0.0299885
0.0279777
0.026096
0.0243539
0.0227563
0.0213041
0.0199948
0.0188242
0.0177867
0.0168763
0.0160863
0.0154105
0.0148432
0.0143789
0.014013
0.013742
0.0135629
0.0134738
0.0470413
0.0497115
0.0517766
0.0521227
0.0514422
0.0500799
0.0482144
0.0459973
0.0436121
0.041142
0.0386626
0.0362319
0.0338933
0.031678
0.0296056
0.0276874
0.0259283
0.024329
0.0228865
0.0215964
0.0204527
0.0194483
0.0185762
0.01783
0.0172028
0.0166894
0.0162848
0.0159847
0.0157865
0.0156879
0.0504899
0.0531577
0.0567172
0.0567886
0.056096
0.0546587
0.0526841
0.0503401
0.0477854
0.0451338
0.0424709
0.0398598
0.0373479
0.0349683
0.0327422
0.0306815
0.0287916
0.0270731
0.0255228
0.0241359
0.0229058
0.021825
0.0208862
0.0200824
0.0194066
0.0188531
0.0184167
0.0180931
0.0178791
0.0177727
0.0526361
0.0553273
0.059182
0.060096
0.0596516
0.0582931
0.0563102
0.0539103
0.0512623
0.048495
0.0457054
0.0429653
0.0403265
0.0378251
0.035484
0.0333163
0.0313279
0.0295193
0.0278876
0.0264273
0.0251316
0.0239928
0.0230032
0.0221555
0.0214426
0.0208584
0.0203975
0.0200558
0.0198298
0.0197173
0.0520227
0.0565058
0.0605921
0.0621626
0.0620994
0.060945
0.0590537
0.0566788
0.0540108
0.0511944
0.048338
0.0455225
0.0428056
0.0402269
0.0378117
0.0355743
0.0335212
0.0316533
0.0299675
0.0284582
0.0271185
0.0259406
0.0249167
0.024039
0.0233007
0.0226955
0.0222179
0.0218636
0.0216292
0.0215126
0.0496109
0.0556567
0.0604806
0.0628979
0.063399
0.0625775
0.0608781
0.0586112
0.0559981
0.0532009
0.0503403
0.0475062
0.0447631
0.0421547
0.0397086
0.0374408
0.0353586
0.0334632
0.0317518
0.0302189
0.0288576
0.0276601
0.0266185
0.0257254
0.0249737
0.0243571
0.0238705
0.0235093
0.0232704
0.0231515
0.045947
0.0531407
0.0588576
0.0622773
0.0635193
0.0631564
0.0617438
0.059668
0.0571873
0.0544819
0.0516838
0.0488924
0.046179
0.0435917
0.041161
0.0389045
0.0368305
0.034941
0.0332336
0.0317031
0.030343
0.0291457
0.0281036
0.0272095
0.0264565
0.0258385
0.0253505
0.0249882
0.0247485
0.0246291
0.0410834
0.0492371
0.0558526
0.060339
0.0624504
0.0626507
0.0616085
0.0598037
0.0575369
0.0550022
0.0523402
0.0496587
0.0470361
0.0445251
0.0421591
0.039958
0.0379314
0.0360825
0.0344096
0.0329083
0.0315725
0.0303955
0.02937
0.0284893
0.0277469
0.0271373
0.0266556
0.0262978
0.0260609
0.025943
0.0350913
0.044114
0.0515794
0.0571208
0.0601659
0.0610083
0.0604098
0.0589582
0.0569959
0.0547223
0.0522803
0.0497847
0.0473209
0.0449463
0.0426982
0.0405993
0.0386612
0.0368886
0.0352813
0.0338361
0.032548
0.031411
0.030419
0.0295659
0.0288461
0.0282543
0.0277862
0.0274384
0.027208
0.0270932
0.0280287
0.0378849
0.0461257
0.0526299
0.0565973
0.0581312
0.0580503
0.0570489
0.055502
0.0535985
0.0514759
0.0492542
0.0470254
0.0448534
0.0427804
0.0408329
0.0390257
0.0373659
0.0358555
0.0344931
0.0332754
0.032198
0.0312559
0.0304441
0.0297579
0.029193
0.0287457
0.0284129
0.0281924
0.0280825
0.0199351
0.0305965
0.0395139
0.046823
0.0516266
0.053872
0.054397
0.0539758
0.0529881
0.0515901
0.0499061
0.04806
0.0461518
0.0442541
0.0424167
0.0406716
0.0390383
0.0375277
0.0361449
0.0348913
0.0337661
0.0327666
0.0318898
0.0311321
0.03049
0.0299604
0.0295403
0.0292274
0.0290198
0.0289163
0.0107632
0.0221734
0.0316442
0.0395714
0.0450865
0.0480542
0.0493085
0.0496464
0.0494023
0.0486749
0.0475688
0.0462122
0.0447175
0.0431699
0.0416301
0.0401386
0.0387214
0.037395
0.036169
0.0350486
0.034036
0.0331314
0.0323338
0.0316418
0.0310533
0.0305664
0.0301793
0.0298904
0.0296985
0.0296028
0.000259398
0.012326
0.0222352
0.0306347
0.036773
0.0405141
0.0426815
0.0440157
0.0447387
0.0448707
0.0444951
0.0437487
0.0427623
0.0416404
0.0404587
0.0392693
0.0381076
0.0369973
0.0359543
0.0349886
0.0341064
0.0333113
0.0326051
0.0319885
0.0314616
0.0310238
0.0306746
0.0304133
0.0302395
0.0301527
-0.0121132
0.000513088
0.0108297
0.0196918
0.0264884
0.0311569
0.0345083
0.0371318
0.0390703
0.0402588
0.040765
0.0407438
0.0403546
0.0397273
0.0389573
0.0381124
0.0372399
0.0363727
0.0355342
0.0347408
0.0340033
0.0333295
0.0327242
0.032191
0.0317318
0.0313481
0.0310406
0.0308098
0.0306558
0.0305788
-0.0270731
-0.0139128
-0.00305254
0.00646811
0.0141352
0.0200358
0.0249413
0.0291778
0.0325776
0.0350008
0.0365168
0.0373151
0.0375943
0.0375157
0.0371991
0.0367307
0.0361718
0.035567
0.0349487
0.0343398
0.033757
0.0332125
0.0327148
0.0322702
0.0318832
0.0315569
0.0312937
0.0310951
0.0309622
0.0308956
-0.0451464
-0.0313631
-0.0196237
-0.00905587
-0.000131264
0.00746337
0.014355
0.0205081
0.025565
0.0293444
0.0319491
0.0336233
0.0346119
0.0351128
0.0352729
0.0351981
0.0349658
0.0346331
0.0342422
0.0338238
0.0334006
0.0329895
0.0326027
0.0322493
0.0319365
0.0316692
0.0314515
0.031286
0.0311747
0.0311188
-0.0662174
-0.0516517
-0.038526
-0.026428
-0.0157233
-0.00587584
0.00339008
0.0116606
0.0184565
0.0236134
0.0273114
0.0298629
0.0315622
0.0326431
0.0332791
0.0335976
0.0336909
0.0336276
0.033462
0.0332332
0.0329692
0.032691
0.0324146
0.0321521
0.0319131
0.0317046
0.0315322
0.0313996
0.0313098
0.0312645
-0.0893485
-0.0737299
-0.0586426
-0.0445486
-0.0314613
-0.018887
-0.00707103
0.003309
0.0117461
0.0181753
0.0228838
0.0262499
0.0286128
0.0302378
0.0313245
0.0320169
0.032419
0.0326064
0.0326546
0.0326082
0.0324978
0.0323475
0.0321773
0.0320025
0.0318343
0.0316825
0.0315538
0.031453
0.0313839
0.0313489
-0.112747
-0.0954916
-0.078046
-0.0615516
-0.0456191
-0.0302202
-0.0160489
-0.00385893
0.00592504
0.0133931
0.0189384
0.0229933
0.0259253
0.0280251
0.029512
0.030542
0.0312264
0.0316182
0.0318634
0.0319869
0.0320191
0.0319879
0.0319164
0.0318227
0.0317207
0.0316214
0.0315332
0.031462
0.0314123
0.0313867
-0.133586
-0.113993
-0.094134
-0.07508
-0.0563579
-0.0386123
-0.0226811
-0.00925335
0.00139362
0.00954818
0.0156997
0.0202547
0.0236301
0.0261136
0.0279201
0.0292427
0.0302167
0.0306748
0.0311212
0.0314033
0.0315635
0.0316384
0.0316544
0.0316328
0.0315898
0.0315375
0.0314854
0.0314407
0.0314084
0.0313914
-0.148196
-0.126279
-0.104361
-0.0830816
-0.0623606
-0.04321
-0.0264569
-0.0125785
-0.00160077
0.00686066
0.0132985
0.0181546
0.0218114
0.0245552
0.0265984
0.0281151
0.0292219
0.0299744
0.0305268
0.0309122
0.0311676
0.0313258
0.0314131
0.0314514
0.0314577
0.031445
0.0314238
0.0314016
0.031384
0.0313743
-0.154622
-0.129895
-0.107125
-0.0847127
-0.063312
-0.0439835
-0.0274063
-0.0138177
-0.00304747
0.00533357
0.0117924
0.0167431
0.020529
0.0234147
0.0256029
0.0272527
0.0284823
0.02938
0.0300363
0.0305082
0.0308384
0.0310614
0.0312045
0.03129
0.0313353
0.0313544
0.0313579
0.0313539
0.0313482
0.0313445
-0.149396
-0.125578
-0.102842
-0.0806238
-0.0598976
-0.0415602
-0.0259951
-0.0132625
-0.00309962
0.00490383
0.0111573
0.0160233
0.0197969
0.0227136
0.0249578
0.0266735
0.0279741
0.0289491
0.0296735
0.0302046
0.0305869
0.0308553
0.0310379
0.0311572
0.0312308
0.031273
0.0312947
0.0313042
0.0313073
0.031308
-0.137178
-0.114443
-0.0931404
-0.0724137
-0.0534593
-0.036878
-0.0228373
-0.0113035
-0.00199854
0.00542594
0.0113079
0.015947
0.0195911
0.0224417
0.0246606
0.0263768
0.0276939
0.0286955
0.0294492
0.0300094
0.0304191
0.0307128
0.0309182
0.0310574
0.0311483
0.0312048
0.0312378
0.0312558
0.0312646
0.031268
-0.120199
-0.099413
-0.0803733
-0.0619311
-0.0453259
-0.0308286
-0.0185219
-0.00833004
-6.64314e-06
0.00672125
0.0121209
0.0164314
0.0198553
0.0225607
0.0246863
0.026345
0.0276292
0.0286141
0.0293615
0.0299215
0.0303346
0.0306337
0.0308453
0.030991
0.031088
0.03115
0.0311877
0.0312092
0.0312204
0.031225
-0.10117
-0.0829683
-0.0665317
-0.0506599
-0.0365157
-0.024115
-0.0135362
-0.00468659
0.00262667
0.00860819
0.0134637
0.0173798
0.0205189
0.0230192
0.0249974
0.0265506
0.0277595
0.028691
0.0294005
0.0299336
0.0303277
0.0306133
0.0308156
0.0309548
0.0310473
0.0311062
0.0311419
0.0311621
0.0311726
0.0311769
-0.0822976
-0.0668291
-0.0529253
-0.0395539
-0.0276915
-0.0172227
-0.00824086
-0.000651135
0.00568496
0.0109187
0.0152064
0.0186922
0.0215051
0.0237582
0.0255483
0.0269582
0.0280576
0.0289051
0.0295499
0.0300328
0.0303878
0.030643
0.0308214
0.030942
0.0310201
0.0310681
0.0310956
0.0311101
0.0311168
0.0311194
-0.0648563
-0.0519277
-0.0402624
-0.0291178
-0.0192303
-0.0104541
-0.00288419
0.0035663
0.00899261
0.013508
0.0172309
0.0202732
0.0227378
0.0247167
0.0262906
0.0275292
0.0284925
0.0292314
0.0297893
0.0302023
0.030501
0.0307108
0.0308526
0.0309439
0.0309986
0.0310284
0.0310421
0.0310466
0.0310469
0.0310462
-0.0493722
-0.038612
-0.0288235
-0.0195583
-0.0113185
-0.00398258
0.00236974
0.00781249
0.012412
0.0162555
0.0194341
0.0220362
0.0241448
0.0258352
0.0271748
0.0282228
0.0290305
0.0296422
0.0300955
0.0304227
0.0306508
0.0308025
0.0308967
0.0309492
0.0309728
0.0309779
0.0309727
0.0309635
0.0309549
0.0309499
-0.0359102
-0.0269035
-0.0186447
-0.0109161
-0.00402809
0.0021013
0.00741671
0.0119791
0.0158384
0.0190643
0.0217294
0.0239054
0.0256606
0.0270578
0.0281538
0.0289991
0.0296379
0.0301086
0.0304443
0.0306731
0.0308191
0.0309024
0.03094
0.0309459
0.0309316
0.0309066
0.0308782
0.0308521
0.0308324
0.030822
-0.0243095
-0.0166769
-0.00964708
-0.00315372
0.00263199
0.00775782
0.0121944
0.0159926
0.0191945
0.0218589
0.0240462
0.0258167
0.0272282
0.0283343
0.0291838
0.0298202
0.0302819
0.0306026
0.0308111
0.0309323
0.0309874
0.0309943
0.0309679
0.0309208
0.0308633
0.0308036
0.0307484
0.0307027
0.0306703
0.0306534
-0.0143323
-0.00775953
-0.00171206
0.00379444
0.00868061
0.0129729
0.0166648
0.0198009
0.0224213
0.0245783
0.0263249
0.027714
0.0287961
0.0296183
0.0302233
0.0306494
0.0309303
0.0310957
0.0311712
0.0311786
0.0311366
0.0310612
0.0309655
0.0308606
0.0307555
0.0306576
0.0305728
0.0305054
0.0304587
0.0304348
-0.00573257
2.68862e-05
0.00528958
0.0100061
0.0141545
0.0177523
0.0208112
0.0233733
0.0254796
0.0271794
0.0285216
0.0295546
0.0303241
0.0308726
0.0312384
0.031456
0.0315556
0.0315635
0.0315026
0.0313924
0.0312494
0.0310877
0.0309189
0.0307527
0.0305971
0.0304584
0.0303417
0.030251
0.030189
0.0301576
0.00169951
0.0068336
0.0114692
0.0155488
0.019087
0.0221018
0.0246189
0.0266814
0.0283325
0.0296204
0.0305925
0.0312947
0.0317697
0.0320571
0.0321921
0.0322063
0.0321272
0.0319786
0.031781
0.0315521
0.0313064
0.0310565
0.0308125
0.0305831
0.0303751
0.0301941
0.0300444
0.0299293
0.0298514
0.029812
0.00813903
0.01279
0.0169263
0.0204898
0.0235204
0.026042
0.0280921
0.029717
0.0309634
0.03188
0.0325138
0.0329096
0.0331086
0.0331483
0.0330621
0.0328793
0.0326256
0.0323229
0.03199
0.0316426
0.0312941
0.0309554
0.0306356
0.0303421
0.0300809
0.0298567
0.0296733
0.0295334
0.0294391
0.0293916
0.0137102
0.0179854
0.0217219
0.0248639
0.0274699
0.0295714
0.0312163
0.0324557
0.0333405
0.0339212
0.0342455
0.0343581
0.0342996
0.0341063
0.0338104
0.0334399
0.0330187
0.0325675
0.0321033
0.0316406
0.0311915
0.0307656
0.0303711
0.0300143
0.0297005
0.0294335
0.0292166
0.029052
0.0289414
0.0288859
0.0185294
0.0225132
0.0259242
0.0287176
0.0309654
0.0327072
0.0339994
0.0348984
0.0354597
0.0357367
0.0357786
0.0356306
0.0353331
0.0349219
0.0344283
0.0338795
0.0332983
0.0327042
0.0321133
0.0315389
0.030992
0.0304813
0.0300139
0.0295953
0.0292299
0.0289211
0.0286713
0.0284825
0.028356
0.0282925
0.0226579
0.0264224
0.0295628
0.0320615
0.034001
0.0354308
0.036414
0.0370117
0.0372833
0.037285
0.0370686
0.0366804
0.0361615
0.0355477
0.03487
0.0341547
0.033424
0.0326964
0.0319868
0.0313078
0.030669
0.0300785
0.0295425
0.0290656
0.0286517
0.0283033
0.0280225
0.0278109
0.0276692
0.0275984
0.0261417
0.0297555
0.0326785
0.0349291
0.0366
0.0377545
0.0384638
0.0387936
0.0388068
0.0385621
0.0381132
0.0375077
0.0367875
0.0359887
0.0351419
0.0342728
0.0334033
0.0325509
0.0317303
0.0309528
0.0302277
0.0295621
0.0289615
0.0284298
0.0279701
0.0275845
0.0272746
0.0270414
0.0268856
0.0268075
0.028941
0.0324707
0.0352393
0.0372944
0.0387387
0.0396528
0.0401185
0.0402084
0.0399892
0.0395218
0.0388617
0.0380581
0.0371536
0.0361851
0.0351835
0.0341746
0.0331794
0.0322149
0.0312947
0.0304297
0.0296281
0.0288961
0.0282384
0.0276584
0.0271585
0.0267402
0.0264048
0.0261527
0.0259845
0.0259005
0.0310344
0.0345309
0.0372105
0.0391284
0.0403947
0.0411073
0.0413616
0.0412401
0.0408163
0.0401541
0.0393102
0.0383346
0.0372705
0.0361545
0.0350183
0.0338871
0.0327813
0.0317174
0.0307086
0.0297653
0.0288951
0.0281037
0.0273949
0.0267717
0.0262359
0.0257885
0.0254303
0.0251615
0.0249823
0.0248925
0.032403
0.0358887
0.0385294
0.0403687
0.0415138
0.0420744
0.042156
0.0418525
0.0412467
0.0404093
0.0394001
0.0382704
0.0370639
0.0358173
0.0345628
0.0333252
0.0321247
0.0309773
0.0298952
0.0288884
0.0279636
0.0271253
0.0263769
0.0257204
0.0251572
0.0246878
0.0243124
0.0240312
0.0238437
0.0237504
0.0331023
0.0365507
0.0391588
0.0409495
0.0420181
0.0424783
0.0424385
0.0419995
0.0412529
0.0402774
0.0391369
0.0378851
0.0365657
0.0352146
0.0338671
0.0325462
0.0312716
0.0300587
0.0289175
0.0278596
0.0268908
0.0260148
0.0252344
0.0245514
0.0239663
0.0234795
0.0230908
0.0227996
0.0226058
0.0225086
0.0332472
0.0366073
0.0391553
0.0408917
0.0418986
0.0422883
0.0421618
0.0416201
0.0407603
0.0396686
0.0384185
0.0370665
0.0356577
0.0342175
0.0328004
0.0314181
0.0300902
0.0288315
0.0276534
0.0265642
0.0255696
0.0246731
0.0238765
0.0231807
0.0225858
0.0220915
0.0216972
0.0214022
0.021206
0.0211086
0.0328489
0.0360517
0.038492
0.0401358
0.0410778
0.0414238
0.0412607
0.0406803
0.0397717
0.0386146
0.0373019
0.0358876
0.0344202
0.0329372
0.0314745
0.0300552
0.0286975
0.0274152
0.0262184
0.0251145
0.0241083
0.0232029
0.0223997
0.0216992
0.0211011
0.0206048
0.0202093
0.0199136
0.019717
0.0196181
0.0320981
0.0349811
0.0372985
0.0387994
0.039627
0.0398948
0.0396806
0.0390622
0.0381187
0.03693
0.0355789
0.0341312
0.0326391
0.0311421
0.0296707
0.0282476
0.0268903
0.0256121
0.0244228
0.0233291
0.0223352
0.0214432
0.0206537
0.0199666
0.0193809
0.0188956
0.0185093
0.0182209
0.0180293
0.0179347
0.0305258
0.033328
0.0353939
0.0367487
0.0374885
0.0377002
0.0374633
0.0368496
0.035926
0.0347622
0.033431
0.0319989
0.0305214
0.0290411
0.0275902
0.0261921
0.0248638
0.0236172
0.0224604
0.0213986
0.0204349
0.0195709
0.0188072
0.0181431
0.0175777
0.0171096
0.0167373
0.0164594
0.0162747
0.0161812
0.0284917
0.0310535
0.0328712
0.0340353
0.0346213
0.0347166
0.0344082
0.0337696
0.0328624
0.0317435
0.0304707
0.0291026
0.0276926
0.0262831
0.0249044
0.0235779
0.022319
0.0211391
0.0200466
0.0190466
0.0181417
0.0173329
0.0166198
0.0160011
0.0154753
0.0150407
0.0146956
0.0144383
0.0142679
0.0141847
0.0255912
0.0278951
0.0295087
0.0305409
0.0310488
0.0311069
0.030796
0.0301874
0.0293399
0.0283023
0.0271211
0.0258465
0.0245294
0.023214
0.0219333
0.0207091
0.0195548
0.0184783
0.0174843
0.0165754
0.015753
0.0150179
0.0143698
0.0138079
0.0133306
0.0129363
0.0126233
0.0123901
0.012235
0.0121554
0.0219404
0.0238616
0.0251827
0.0260016
0.0263653
0.0263355
0.0259854
0.0253869
0.0246024
0.0236797
0.0226544
0.0215595
0.0204302
0.0193002
0.0181967
0.0171391
0.0161404
0.0152091
0.0143507
0.0135681
0.0128623
0.0122335
0.0116808
0.0112026
0.0107974
0.0104633
0.0101984
0.0100014
0.00987144
0.00980997
0.0174133
0.0189774
0.0200585
0.020741
0.0210562
0.0210438
0.0207575
0.0202553
0.0195911
0.0188063
0.017931
0.0169947
0.0160332
0.0150839
0.0141755
0.0133226
0.012529
0.0117941
0.0111167
0.010497
0.00993599
0.00943466
0.00899325
0.00861119
0.00828736
0.00802033
0.00780865
0.00765105
0.00754584
0.00748945
0.0116076
0.0126129
0.0133002
0.0137367
0.0139309
0.0138971
0.0136651
0.0132768
0.0127815
0.0122239
0.011633
0.0110213
0.0103975
0.00977575
0.00917334
0.00860325
0.00807141
0.00757906
0.00712611
0.00671278
0.00633963
0.00600704
0.00571488
0.0054625
0.00524893
0.00507307
0.0049338
0.00483022
0.0047627
0.00473402
0.00523528
0.00564129
0.00595859
0.00618555
0.00631221
0.00633703
0.00626403
0.00609978
0.00585277
0.00553541
0.0051688
0.00478499
0.00442071
0.00410365
0.00384145
0.00362296
0.00342997
0.00324873
0.0030741
0.00290728
0.00275169
0.00261021
0.00248446
0.00237504
0.002282
0.00220513
0.00214409
0.00209819
0.00206551
0.00204252
-0.256912
-0.257318
-0.252614
-0.242632
-0.227793
-0.208985
-0.187363
-0.164139
-0.14042
-0.117105
-0.0948562
-0.0741076
-0.0550986
-0.0379144
-0.0225338
-0.00887798
0.00315229
0.0136467
0.0226571
0.0301746
0.0361161
0.0402589
0.0424645
0.0429146
0.0417867
0.0392448
0.0354263
0.0304755
0.0243382
0.0170064
0.00851471
-0.00113874
-0.0121197
-0.0248504
-0.039969
-0.0580438
-0.0790479
-0.101969
-0.124891
-0.144981
-0.158974
-0.163967
-0.160994
-0.149525
-0.132522
-0.112885
-0.0929782
-0.0743116
-0.0576124
-0.0430631
-0.0305493
-0.0198338
-0.0106527
-0.00277407
0.00400093
0.00982122
0.0148268
0.0190816
0.0226261
0.0254044
0.0274144
0.0286726
0.0292973
0.0294424
0.0291445
0.028489
0.0272668
0.0255708
0.0229912
0.0198084
0.0157026
0.0104926
0.00480509
-0.269256
-0.27472
-0.27483
-0.268821
-0.256699
-0.239207
-0.217616
-0.193406
-0.167991
-0.142558
-0.117997
-0.0949156
-0.0736775
-0.0544472
-0.0372441
-0.0219976
-0.00858876
0.00311721
0.0132188
0.0217182
0.0285188
0.0335116
0.0366547
0.0380292
0.0376571
0.0363086
0.0335221
0.0296218
0.0245373
0.0181836
0.010555
0.00170979
-0.00834389
-0.0197963
-0.0331229
-0.0489994
-0.0679584
-0.0898602
-0.11354
-0.136899
-0.157067
-0.170855
-0.175862
-0.171489
-0.158618
-0.140266
-0.119459
-0.0985737
-0.079106
-0.0617626
-0.0467053
-0.0337991
-0.022787
-0.0133891
-0.00535955
0.00151529
0.00739903
0.0124367
0.0166853
0.0201752
0.0228531
0.0247458
0.0259098
0.0265045
0.0266898
0.0264936
0.0259793
0.0249087
0.0234241
0.0210679
0.0182058
0.0144118
0.00965878
0.00444941
-0.286745
-0.29248
-0.291872
-0.284144
-0.269475
-0.248959
-0.224285
-0.19729
-0.169608
-0.142496
-0.11682
-0.0931053
-0.0716148
-0.0524187
-0.0354587
-0.020603
-0.00768475
0.00345435
0.0128972
0.0206028
0.0264493
0.0303669
0.0324526
0.0329804
0.0324564
0.0302237
0.027272
0.0232602
0.0180353
0.0114935
0.00363002
-0.00549452
-0.0158834
-0.0277535
-0.0416044
-0.0581063
-0.0777442
-0.100299
-0.124503
-0.148153
-0.168382
-0.181957
-0.186314
-0.18083
-0.166623
-0.146852
-0.124783
-0.10291
-0.082725
-0.0648825
-0.049486
-0.0363543
-0.0251986
-0.0157183
-0.00765187
-0.000773688
0.00508904
0.0100782
0.0142445
0.0176111
0.0201392
0.0218859
0.0229459
0.023504
0.0237123
0.0235927
0.023201
0.0222955
0.0210329
0.0189352
0.0164202
0.0129934
0.00874576
0.00405166
-0.305361
-0.311577
-0.310413
-0.301001
-0.283726
-0.260088
-0.23225
-0.202434
-0.172486
-0.14372
-0.116953
-0.0926169
-0.0708754
-0.0517081
-0.0349838
-0.0205115
-0.00808264
0.00247017
0.0112002
0.0180279
0.0228362
0.0256475
0.0267295
0.0265259
0.0254596
0.0232653
0.0203164
0.0163411
0.0111162
0.00451505
-0.0034661
-0.0127661
-0.0234005
-0.0356142
-0.0499377
-0.0670461
-0.0873729
-0.110594
-0.135307
-0.159158
-0.179191
-0.192241
-0.195793
-0.189231
-0.173879
-0.152957
-0.129856
-0.107149
-0.08634
-0.0680523
-0.0523504
-0.0390183
-0.0277404
-0.0181973
-0.0101126
-0.00325028
0.00256916
0.00748425
0.0115414
0.0147605
0.01712
0.0187056
0.0196473
0.0201514
0.0203705
0.0203306
0.0200827
0.0193738
0.0183673
0.0165766
0.0144501
0.0114474
0.00775361
0.00362279
-0.325158
-0.331996
-0.330345
-0.319184
-0.299109
-0.272091
-0.240843
-0.208026
-0.175724
-0.145295
-0.117487
-0.0926128
-0.0707146
-0.0516705
-0.0352694
-0.0212605
-0.00940212
0.000464721
0.00835209
0.0141504
0.0177895
0.0194529
0.0196126
0.018864
0.0176097
0.0155662
0.0127904
0.00897751
0.00386073
-0.00269613
-0.0106941
-0.0200746
-0.0308698
-0.0433535
-0.0580823
-0.0757267
-0.096662
-0.120458
-0.145582
-0.169547
-0.189307
-0.20174
-0.204437
-0.196816
-0.180422
-0.158527
-0.134585
-0.111204
-0.0898866
-0.0712328
-0.0552795
-0.0417855
-0.0304151
-0.020834
-0.0127537
-0.0059296
-0.000177466
0.00463725
0.00855675
0.0115992
0.013763
0.0151643
0.0159711
0.0164127
0.0166496
0.0167078
0.0166256
0.0161441
0.0154297
0.0139921
0.0122971
0.0097733
0.00668175
0.00316727
-0.32955
-0.345429
-0.353032
-0.351018
-0.338137
-0.315162
-0.284583
-0.24973
-0.213764
-0.179032
-0.14694
-0.118148
-0.0928309
-0.0708921
-0.0520958
-0.0361428
-0.0227211
-0.0115666
-0.00254418
0.00431503
0.00889926
0.0112542
0.0117893
0.0111686
0.0100588
0.00889706
0.00717683
0.00472185
0.00119061
-0.00370027
-0.010092
-0.0179881
-0.0273379
-0.0381919
-0.0508513
-0.0658965
-0.0839908
-0.105449
-0.12973
-0.155167
-0.179144
-0.198537
-0.210251
-0.212028
-0.203412
-0.186083
-0.163363
-0.138741
-0.114835
-0.0931363
-0.0742201
-0.0580989
-0.0445107
-0.0331037
-0.0235319
-0.0154977
-0.00875035
-0.00310326
0.00157218
0.00531331
0.00813892
0.0100711
0.0112607
0.0119166
0.0122901
0.0125503
0.0127168
0.0128207
0.0125982
0.0122133
0.011176
0.00995892
0.00796999
0.00553001
0.00268823
-0.346906
-0.365328
-0.374013
-0.371876
-0.357436
-0.331604
-0.297416
-0.258879
-0.219703
-0.182528
-0.148812
-0.119114
-0.0934569
-0.0715931
-0.0531644
-0.0377789
-0.0250676
-0.014759
-0.0067528
-0.00111499
0.00209132
0.00311079
0.00261272
0.0014174
0.000368166
-0.000627352
-0.00187278
-0.00385827
-0.00697219
-0.0115021
-0.017596
-0.0252642
-0.0344666
-0.045271
-0.058003
-0.0732614
-0.0916975
-0.113563
-0.138206
-0.163834
-0.187709
-0.206648
-0.217586
-0.218416
-0.208876
-0.190742
-0.167364
-0.142233
-0.117961
-0.0960146
-0.0769477
-0.0607504
-0.0471437
-0.0357635
-0.0262554
-0.0183153
-0.0116892
-0.00619104
-0.00169994
0.00181649
0.00438049
0.00604243
0.00699106
0.00747712
0.00777269
0.00805665
0.00834088
0.00865383
0.00872392
0.00870995
0.00812295
0.00743395
0.00603756
0.00429931
0.00218807
-0.363534
-0.384231
-0.394337
-0.392307
-0.37654
-0.348019
-0.310309
-0.268122
-0.225767
-0.186205
-0.150949
-0.120454
-0.094579
-0.0729184
-0.054984
-0.0402906
-0.0284226
-0.0191175
-0.0123163
-0.00809672
-0.00639673
-0.0066929
-0.00807581
-0.00966157
-0.0103654
-0.0108856
-0.011522
-0.012888
-0.0154343
-0.0194585
-0.0251169
-0.0324284
-0.0413633
-0.0520036
-0.0646941
-0.0800467
-0.0986967
-0.120833
-0.145697
-0.171375
-0.195025
-0.213421
-0.223561
-0.22348
-0.213105
-0.194314
-0.170465
-0.145019
-0.120551
-0.0985017
-0.0794009
-0.063222
-0.0496739
-0.0383848
-0.0289956
-0.021199
-0.0147406
-0.00943763
-0.00517849
-0.0019356
0.000319736
0.00167016
0.00234511
0.00263881
0.00284388
0.00315105
0.0035641
0.00411189
0.00451093
0.00491307
0.00482922
0.00472175
0.00397693
0.00299131
0.00166873
-0.381637
-0.401922
-0.413482
-0.411704
-0.39484
-0.363894
-0.32288
-0.27721
-0.23181
-0.189987
-0.153324
-0.122173
-0.0962232
-0.0749064
-0.0576024
-0.0437366
-0.0328626
-0.0247412
-0.0193545
-0.0167452
-0.0166313
-0.0181515
-0.0202174
-0.0221011
-0.0220531
-0.0218317
-0.0216899
-0.0222755
-0.0240967
-0.0274672
-0.0325521
-0.0393789
-0.0479258
-0.0582846
-0.0708123
-0.0861272
-0.104845
-0.127093
-0.152016
-0.177591
-0.200894
-0.218668
-0.22801
-0.227086
-0.215996
-0.196724
-0.172609
-0.14705
-0.122568
-0.100567
-0.0815547
-0.0654923
-0.0520827
-0.0409508
-0.0317377
-0.024136
-0.0178942
-0.0128351
-0.00885845
-0.0059411
-0.00404495
-0.00305102
-0.00268599
-0.00261009