/*--------------------------------*- C++ -*----------------------------------*\
  =========                 |
  \\      /  F ield         | OpenFOAM: The Open Source CFD Toolbox
   \\    /   O peration     | Website:  https://openfoam.org
    \\  /    A nd           | Version:  7
     \\/     M anipulation  |
\*---------------------------------------------------------------------------*/
FoamFile
{
    version     2.0;
    format      ascii;
    class       surfaceScalarField;
    location    "105";
    object      phi;
}
// * * * * * * * * * * * * * * * * * * * * * * * * * * * * * * * * * * * * * //

dimensions      [0 3 -1 0 0 0 0];

internalField   nonuniform List<scalar> 
7273
(
-0.00122613
0.0134715
0.00125775
-0.0011683
0.0132539
-0.0011014
0.0130213
-0.0010307
0.012803
-0.000958875
0.012604
-0.000887958
0.0124253
-0.000819191
0.0122659
-0.000753251
0.0121243
-0.000690528
0.0119983
-0.000631234
0.0118861
-0.000575459
0.0117857
-0.00052321
0.0116956
-0.000474424
0.0116145
-0.000428991
0.0115415
-0.000386757
0.0114758
-0.000347546
0.0114165
-0.000311161
0.0113633
-0.000277396
0.0113156
-0.000246036
0.0112729
-0.000216867
0.0112348
-0.000189675
0.0112012
-0.000164247
0.0111716
-0.000140374
0.0111458
-0.00011785
0.0111237
-9.64741e-05
0.011105
-7.60483e-05
0.0110896
-5.63783e-05
0.0110775
-3.72737e-05
0.0110684
-1.85457e-05
0.0110624
0.0110594
-0.00162561
0.0133707
0.00172645
-0.00151127
0.0131396
-0.00139812
0.0129082
-0.00128872
0.0126936
-0.00118433
0.0124996
-0.00108584
0.0123268
-0.000993499
0.0121736
-0.000907257
0.012038
-0.000826929
0.011918
-0.000752271
0.0118114
-0.000683009
0.0117164
-0.000618855
0.0116314
-0.000559512
0.0115552
-0.000504675
0.0114867
-0.000454033
0.0114251
-0.000407273
0.0113698
-0.000364085
0.0113201
-0.000324163
0.0112756
-0.000287211
0.0112359
-0.000252937
0.0112006
-0.000221061
0.0111693
-0.000191312
0.0111418
-0.000163427
0.0111179
-0.000137152
0.0110974
-0.000112243
0.0110801
-8.84589e-05
0.0110658
-6.55686e-05
0.0110546
-4.33452e-05
0.0110462
-2.15647e-05
0.0110406
0.0110379
-0.0020216
0.013197
0.00219528
-0.00184887
0.0129669
-0.00168823
0.0127475
-0.00153937
0.0125447
-0.00140209
0.0123623
-0.00127594
0.0122006
-0.00116009
0.0120577
-0.0010537
0.0119316
-0.000956004
0.0118203
-0.000866274
0.0117217
-0.000783859
0.011634
-0.000708168
0.0115558
-0.000638657
0.0114857
-0.000574818
0.0114228
-0.000516173
0.0113665
-0.00046227
0.0113159
-0.000412679
0.0112705
-0.000366994
0.01123
-0.00032483
0.0111937
-0.000285821
0.0111616
-0.00024962
0.0111331
-0.000215897
0.0111081
-0.000184337
0.0110863
-0.000154638
0.0110677
-0.000126511
0.0110519
-9.96786e-05
0.011039
-7.38713e-05
0.0110288
-4.88273e-05
0.0110211
-2.42896e-05
0.0110161
0.0110136
-0.00239381
0.0129555
0.00263527
-0.00216587
0.0127389
-0.00196005
0.0125417
-0.00177352
0.0123582
-0.00160494
0.0121937
-0.00145247
0.0120482
-0.00131425
0.0119195
-0.00118873
0.0118061
-0.00107457
0.0117062
-0.000970596
0.0116177
-0.000875792
0.0115392
-0.000789278
0.0114692
-0.000710269
0.0114067
-0.000638063
0.0113506
-0.000572015
0.0113004
-0.000511535
0.0112554
-0.00045608
0.0112151
-0.000405142
0.011179
-0.000358251
0.0111469
-0.000314968
0.0111183
-0.000274881
0.011093
-0.000237602
0.0110708
-0.000202766
0.0110515
-0.000170026
0.0110349
-0.000139053
0.011021
-0.000109531
0.0110095
-8.11565e-05
0.0110004
-5.36348e-05
0.0109936
-2.66782e-05
0.0109891
0.0109869
-0.00272397
0.0126578
0.00302174
-0.00244821
0.0124632
-0.00220263
0.0122961
-0.00198269
0.0121382
-0.00178618
0.0119972
-0.00161002
0.011872
-0.00145157
0.0117611
-0.00130872
0.0116633
-0.00117963
0.0115771
-0.00106274
0.0115008
-0.000956713
0.0114332
-0.000860417
0.0113729
-0.000772852
0.0113191
-0.000693133
0.0112709
-0.000620467
0.0112278
-0.000554135
0.0111891
-0.000493485
0.0111544
-0.000437918
0.0111235
-0.000386884
0.0110958
-0.000339872
0.0110713
-0.000296411
0.0110495
-0.000256061
0.0110305
-0.000218408
0.0110139
-0.000183066
0.0109996
-0.000149666
0.0109876
-0.000117858
0.0109777
-8.73078e-05
0.0109698
-5.76914e-05
0.010964
-2.8693e-05
0.0109601
0.0109582
-0.00299841
0.0123178
0.00333832
-0.00268478
0.0121495
-0.00240706
0.0120184
-0.00215984
0.011891
-0.0019401
0.0117775
-0.0017439
0.0116758
-0.0015682
0.0115854
-0.00141047
0.0115055
-0.0012685
0.0114351
-0.00114045
0.0113728
-0.00102472
0.0113175
-0.000919979
0.0112682
-0.000825038
0.0112242
-0.000738864
0.0111847
-0.000660533
0.0111494
-0.000589217
0.0111178
-0.000524166
0.0110894
-0.000464698
0.011064
-0.000410192
0.0110413
-0.000360076
0.0110211
-0.000313823
0.0110033
-0.000270946
0.0109876
-0.000230991
0.0109739
-0.000193531
0.0109621
-0.000158167
0.0109522
-0.000124518
0.010944
-9.2222e-05
0.0109375
-6.09294e-05
0.0109327
-3.03003e-05
0.0109295
0.0109279
-0.00320892
0.0119496
0.00357721
-0.00286837
0.011809
-0.00256731
0.0117174
-0.00229986
0.0116236
-0.00206231
0.0115399
-0.00185043
0.0114639
-0.00166102
0.011396
-0.00149134
0.0113358
-0.00133895
0.0112827
-0.00120181
0.0112357
-0.00107818
0.0111938
-0.000966559
0.0111566
-0.000865625
0.0111232
-0.000774225
0.0110933
-0.000691331
0.0110665
-0.000616024
0.0110424
-0.000547472
0.0110208
-0.000484926
0.0110014
-0.000427702
0.0109841
-0.000375177
0.0109686
-0.000326776
0.0109549
-0.000281972
0.0109428
-0.000240274
0.0109322
-0.000201227
0.0109231
-0.0001644
0.0109154
-0.00012939
0.010909
-9.58097e-05
0.010904
-6.32901e-05
0.0109002
-3.14713e-05
0.0108977
0.0108964
-0.00335231
0.0115647
0.00373717
-0.00299571
0.0114524
-0.00268021
0.0114019
-0.00239964
0.011343
-0.00214993
0.0112902
-0.001927
0.011241
-0.00172774
0.0111967
-0.00154929
0.0111574
-0.00138919
0.0111226
-0.00124528
0.0110918
-0.00111576
0.0110643
-0.000998999
0.0110398
-0.000893611
0.0110178
-0.000798353
0.0109981
-0.000712118
0.0109803
-0.000633917
0.0109642
-0.000562858
0.0109498
-0.000498135
0.0109367
-0.000439016
0.010925
-0.000384836
0.0109144
-0.000334983
0.010905
-0.000288897
0.0108967
-0.00024606
0.0108894
-0.00020599
0.010883
-0.000168235
0.0108776
-0.000132372
0.0108732
-9.79976e-05
0.0108696
-6.47257e-05
0.0108669
-3.21821e-05
0.0108651
0.0108642
-0.00342945
0.0111729
0.00382129
-0.00306681
0.0110898
-0.00274506
0.0110801
-0.00245797
0.0110559
-0.00220151
0.0110338
-0.00197214
0.0110116
-0.00176688
0.0109915
-0.00158298
0.0109735
-0.00141797
0.0109576
-0.00126974
0.0109435
-0.00113644
0.010931
-0.00101642
0.0109198
-0.000908226
0.0109097
-0.000810576
0.0109004
-0.000722311
0.010892
-0.000642395
0.0108843
-0.000569892
0.0108773
-0.000503957
0.0108708
-0.000443822
0.0108648
-0.000388791
0.0108594
-0.000338225
0.0108545
-0.00029154
0.01085
-0.000248197
0.010846
-0.000207697
0.0108425
-0.000169574
0.0108395
-0.00013339
0.010837
-9.87313e-05
0.0108349
-6.52008e-05
0.0108334
-3.24153e-05
0.0108324
0.0108318
-0.00344425
0.0107816
0.00383546
-0.0030842
0.0107297
-0.00276301
0.0107589
-0.00247511
0.010768
-0.00221687
0.0107755
-0.00198535
0.0107801
-0.00177781
0.0107839
-0.00159166
0.0107873
-0.00142456
0.0107905
-0.00127448
0.0107934
-0.00113958
0.0107961
-0.00101822
0.0107984
-0.000908939
0.0108004
-0.000810428
0.0108019
-0.000721506
0.0108031
-0.00064111
0.0108039
-0.000568278
0.0108044
-0.00050214
0.0108046
-0.000441907
0.0108046
-0.000386863
0.0108044
-0.000336353
0.010804
-0.000289779
0.0108034
-0.000246588
0.0108028
-0.000206272
0.0108022
-0.000168356
0.0108016
-0.000132398
0.010801
-9.79776e-05
0.0108005
-6.46939e-05
0.0108001
-3.21604e-05
0.0107998
0.0107997
-0.00340263
0.0103972
0.00378703
-0.00305189
0.010379
-0.00273649
0.0104435
-0.0024525
0.010484
-0.00219676
0.0105198
-0.00196694
0.0105503
-0.00176053
0.0105775
-0.00157518
0.010602
-0.00140872
0.010624
-0.0012592
0.0106439
-0.00112487
0.0106618
-0.0010041
0.0106777
-0.00089547
0.0106917
-0.000797658
0.0107041
-0.000709482
0.0107149
-0.000629872
0.0107243
-0.000557855
0.0107324
-0.000492552
0.0107393
-0.000433166
0.0107452
-0.000378969
0.0107502
-0.000329302
0.0107543
-0.000283561
0.0107577
-0.000241192
0.0107605
-0.000201683
0.0107627
-0.00016456
0.0107645
-0.000129381
0.0107658
-9.57262e-05
0.0107669
-6.31986e-05
0.0107676
-3.14145e-05
0.010768
0.0107682
-0.00331124
0.0100246
0.00368389
-0.00297424
0.010042
-0.0026685
0.0101378
-0.00239217
0.0102077
-0.00214255
0.0102702
-0.00191777
0.0103255
-0.00171557
0.0103753
-0.00153383
0.0104202
-0.00137057
0.0104608
-0.00122395
0.0104973
-0.00109229
0.0105301
-0.000974031
0.0105594
-0.000867772
0.0105855
-0.00077222
0.0106086
-0.000686202
0.0106289
-0.000608654
0.0106468
-0.000538609
0.0106624
-0.000475189
0.0106759
-0.000417599
0.0106876
-0.000365118
0.0106977
-0.000317087
0.0107063
-0.000272908
0.0107135
-0.000232031
0.0107196
-0.000193953
0.0107246
-0.000158206
0.0107287
-0.000124355
0.010732
-9.19909e-05
0.0107345
-6.07248e-05
0.0107363
-3.01824e-05
0.0107375
0.0107381
-0.0031759
0.00966709
0.00353341
-0.00285531
0.00972137
-0.00256205
0.00984451
-0.00229636
0.009942
-0.00205589
0.0100297
-0.00183903
0.0101086
-0.00164378
0.0101801
-0.00146823
0.0102447
-0.00131057
0.0103031
-0.00116906
0.0103558
-0.0010421
0.0104032
-0.000928214
0.0104455
-0.000826021
0.0104833
-0.000734267
0.0105168
-0.000651805
0.0105465
-0.000577586
0.0105726
-0.000510662
0.0105954
-0.000450167
0.0106154
-0.000395322
0.0106328
-0.000345417
0.0106478
-0.000299808
0.0106606
-0.00025791
0.0106716
-0.000219189
0.0106809
-0.000183155
0.0106886
-0.000149356
0.0106949
-0.000117372
0.0107
-8.68109e-05
0.0107039
-5.72985e-05
0.0107068
-2.84773e-05
0.0107087
0.0107096
-0.00300138
0.00932684
0.00334163
-0.00269878
0.00941877
-0.00242002
0.00956576
-0.0021673
0.00968928
-0.00193848
0.00980086
-0.00173206
0.00990222
-0.00154623
0.00999423
-0.00137924
0.0100777
-0.00122941
0.0101533
-0.00109511
0.0102215
-0.000974803
0.0102829
-0.000867072
0.0103378
-0.000770591
0.0103868
-0.000684138
0.0104304
-0.000606598
0.0104689
-0.000536953
0.0105029
-0.000474278
0.0105328
-0.000417733
0.0105589
-0.00036656
0.0105816
-0.000320073
0.0106013
-0.000277653
0.0106182
-0.000238737
0.0106327
-0.000202814
0.0106449
-0.000169417
0.0106552
-0.000138117
0.0106636
-0.000108519
0.0106704
-8.02506e-05
0.0106757
-5.29631e-05
0.0106795
-2.63209e-05
0.010682
0.0106833
-0.00279095
0.00900454
0.00311324
-0.00250726
0.00913508
-0.00224487
0.00930337
-0.00200706
0.00945147
-0.00179201
0.00958582
-0.00159825
0.00970845
-0.00142407
0.00982005
-0.00126785
0.00992147
-0.00112795
0.0100134
-0.00100285
0.0100964
-0.00089106
0.0101711
-0.000791216
0.0102379
-0.000702036
0.0102976
-0.000622343
0.0103507
-0.000551057
0.0103976
-0.000487192
0.010439
-0.000429859
0.0104754
-0.000378252
0.0105073
-0.000331647
0.010535
-0.000289391
0.010559
-0.000250896
0.0105797
-0.00021563
0.0105974
-0.000183117
0.0106124
-0.00015292
0.010625
-0.000124641
0.0106353
-9.79146e-05
0.0106437
-7.24005e-05
0.0106501
-4.77785e-05
0.0106549
-2.37433e-05
0.010658
0.0106595
-0.00254733
0.00870022
0.00285165
-0.00228253
0.00887029
-0.0020383
0.00905914
-0.00181727
0.00923043
-0.00161801
0.00938656
-0.00143896
0.00952941
-0.00127854
0.00965963
-0.00113514
0.00977808
-0.0010072
0.00988545
-0.000893201
0.0099824
-0.000791724
0.0100696
-0.000701432
0.0101477
-0.000621091
0.0102173
-0.000549561
0.0102791
-0.000485804
0.0103339
-0.000428881
0.0103821
-0.000377937
0.0104245
-0.000332215
0.0104616
-0.00029103
0.0104938
-0.000253772
0.0105218
-0.000219894
0.0105459
-0.000188908
0.0105664
-0.000160374
0.0105839
-0.000133899
0.0105985
-0.000109122
0.0106106
-8.57153e-05
0.0106203
-6.33766e-05
0.0106278
-4.18222e-05
0.0106333
-2.07829e-05
0.010637
0.0106387
-0.00227306
0.00841554
0.00255775
-0.00202671
0.00862393
-0.00180181
0.00883424
-0.00159929
0.00902791
-0.00141776
0.00920503
-0.00125549
0.00936714
-0.00111087
0.00951501
-0.000982324
0.00964953
-0.000868279
0.0097714
-0.000767236
0.00988136
-0.000677801
0.00998015
-0.000598671
0.0100685
-0.000528645
0.0101473
-0.000466627
0.0102171
-0.000411625
0.0102789
-0.000362737
0.0103332
-0.00031918
0.0103809
-0.000280234
0.0104226
-0.000245264
0.0104588
-0.000213716
0.0104902
-0.000185094
0.0105172
-0.000158961
0.0105403
-0.000134927
0.0105599
-0.000112642
0.0105762
-9.17972e-05
0.0105897
-7.21095e-05
0.0106006
-5.33195e-05
0.010609
-3.51879e-05
0.0106152
-1.74864e-05
0.0106193
0.0106213
-0.00196832
0.00815248
0.00223137
-0.00174166
0.00839728
-0.00153717
0.00862975
-0.00135458
0.00884532
-0.00119256
0.009043
-0.00104906
0.00922364
-0.00092235
0.0093883
-0.000810656
0.00953784
-0.000712426
0.00967317
-0.000626155
0.00979509
-0.000550455
0.00990445
-0.000484048
0.0100021
-0.000425761
0.010089
-0.00037454
0.0101659
-0.000329444
0.0102338
-0.000289645
0.0102934
-0.000254389
0.0103457
-0.00022303
0.0103912
-0.000195008
0.0104308
-0.000169817
0.010465
-0.000147024
0.0104944
-0.000126254
0.0105195
-0.000107174
0.0105408
-8.94914e-05
0.0105586
-7.29507e-05
0.0105732
-5.73218e-05
0.010585
-4.23972e-05
0.0105941
-2.79846e-05
0.0106008
-1.39088e-05
0.0106052
0.0106073
-0.00163201
0.00790428
0.00188021
-0.00142692
0.00819219
-0.00124499
0.00844782
-0.00108441
0.00868474
-0.000943682
0.00890227
-0.000821018
0.00910097
-0.000714226
0.00928151
-0.000621463
0.00944508
-0.000540996
0.00959271
-0.000471316
0.00972541
-0.000411024
0.00984416
-0.000358852
0.00994995
-0.000313666
0.0100438
-0.000274466
0.0101267
-0.00024037
0.0101997
-0.000210606
0.0102637
-0.000184494
0.0103196
-0.000161472
0.0103682
-0.000141037
0.0104104
-0.00012276
0.0104468
-0.000106294
0.010478
-9.13219e-05
0.0105046
-7.75753e-05
0.010527
-6.48345e-05
0.0105458
-5.29005e-05
0.0105612
-4.16037e-05
0.0105737
-3.07954e-05
0.0105833
-2.0339e-05
0.0105903
-1.0112e-05
0.010595
0.0105972
-0.00127113
0.00764889
0.00152652
-0.00108201
0.00800307
-0.000924193
0.00829001
-0.000788864
0.00854941
-0.000672174
0.00878558
-0.000572555
0.00900135
-0.000487911
0.00919686
-0.000416173
0.00937334
-0.000355516
0.00953205
-0.000304241
0.00967414
-0.000261023
0.00980094
-0.000224552
0.00991348
-0.000193775
0.010013
-0.000167744
0.0101007
-0.000145636
0.0101776
-0.000126761
0.0102448
-0.000110557
0.0103034
-9.65118e-05
0.0103542
-8.42057e-05
0.0103981
-7.33318e-05
0.0104359
-6.35952e-05
0.0104682
-5.47536e-05
0.0104957
-4.66461e-05
0.0105189
-3.91082e-05
0.0105383
-3.20043e-05
0.0105541
-2.5239e-05
0.0105669
-1.87254e-05
0.0105768
-1.23892e-05
0.010584
-6.16655e-06
0.0105887
0.0105911
-0.000907482
0.00736191
0.00119447
-0.00071526
0.00781085
-0.000575873
0.00815062
-0.00046743
0.00844097
-0.000378319
0.00869647
-0.000304819
0.00892785
-0.000245012
0.00913706
-0.000196632
0.00932496
-0.000157748
0.00949317
-0.000126795
0.00964318
-0.000102193
0.00977634
-8.28523e-05
0.00989414
-6.77081e-05
0.00999786
-5.58902e-05
0.0100888
-4.66796e-05
0.0101684
-3.94757e-05
0.0102376
-3.37828e-05
0.0102977
-2.92241e-05
0.0103496
-2.55201e-05
0.0103944
-2.23997e-05
0.0104328
-1.96755e-05
0.0104655
-1.72438e-05
0.0104933
-1.49684e-05
0.0105167
-1.27816e-05
0.0105361
-1.06543e-05
0.010552
-8.53845e-06
0.0105648
-6.41567e-06
0.0105746
-4.28737e-06
0.0105819
-2.14627e-06
0.0105866
0.0105889
-0.00056596
0.00704509
0.00088278
-0.00034696
0.00759185
-0.000211085
0.00801475
-0.000123273
0.00835316
-6.31198e-05
0.00863632
-1.90964e-05
0.00888383
1.32655e-05
0.0091047
3.58588e-05
0.00930236
5.06756e-05
0.00947835
5.94768e-05
0.00963438
6.36571e-05
0.00977216
6.44368e-05
0.00989336
6.27565e-05
0.00999954
5.93785e-05
0.0100922
5.49087e-05
0.0101728
4.98157e-05
0.0102427
4.44534e-05
0.010303
3.90867e-05
0.010355
3.39104e-05
0.0103996
2.90379e-05
0.0104376
2.45404e-05
0.01047
2.04675e-05
0.0104974
1.68135e-05
0.0105203
1.35633e-05
0.0105393
1.06904e-05
0.0105549
8.14187e-06
0.0105673
5.86196e-06
0.0105769
3.79152e-06
0.0105839
1.86123e-06
0.0105885
0.0105908
-0.000250224
0.00674143
0.000553884
1.85198e-06
0.00733977
0.000155099
0.0078615
0.000234499
0.00827376
0.00027027
0.00860055
0.000283673
0.00887043
0.000284954
0.00910342
0.00027866
0.00930866
0.000267021
0.00948999
0.000251678
0.00964973
0.000233964
0.00978987
0.000214946
0.00991238
0.000195449
0.010019
0.000176093
0.0101116
0.000157331
0.0101916
0.000139479
0.0102605
0.00012274
0.0103198
0.000107229
0.0103705
9.29932e-05
0.0104138
8.00239e-05
0.0104506
6.82727e-05
0.0104818
5.76635e-05
0.010508
4.80974e-05
0.0105299
3.94619e-05
0.010548
3.1635e-05
0.0105627
2.44874e-05
0.0105745
1.7886e-05
0.0105835
1.16957e-05
0.0105901
5.77998e-06
0.0105944
0.0105966
7.13298e-05
0.00651754
0.000152552
0.000320954
0.00709015
0.000498961
0.00768349
0.000587075
0.00818564
0.000609545
0.00857808
0.000595986
0.00888399
0.000565891
0.00913351
0.000528695
0.00934586
0.000488445
0.00953024
0.000447151
0.00969102
0.000406082
0.00983094
0.00036615
0.00995231
0.000327999
0.0100572
0.000292059
0.0101475
0.000258588
0.0102251
0.000227708
0.0102914
0.000199438
0.010348
0.00017372
0.0103962
0.000150438
0.0104371
0.000129434
0.0104716
0.000110524
0.0105007
9.35079e-05
0.010525
7.8175e-05
0.0105452
6.43101e-05
0.0105618
5.1698e-05
0.0105753
4.01237e-05
0.010586
2.93751e-05
0.0105943
1.92431e-05
0.0106003
9.52022e-06
0.0106042
0.0106061
0.000448107
0.00640793
-0.000338496
0.000639475
0.00689878
0.000818952
0.00750401
0.000921328
0.00808327
0.00094276
0.00855665
0.000910067
0.00891668
0.000850815
0.00919276
0.000781944
0.00941473
0.000711416
0.00960076
0.000642571
0.00975986
0.000576889
0.00989662
0.000515139
0.0100141
0.000457731
0.0101146
0.000404844
0.0102004
0.000356487
0.0102734
0.000312546
0.0103354
0.000272819
0.0103878
0.000237043
0.010432
0.000204916
0.0104692
0.000176116
0.0105004
0.000150308
0.0105265
0.000127158
0.0105481
0.000106337
0.010566
8.75236e-05
0.0105807
7.04056e-05
0.0105924
5.46813e-05
0.0106018
4.00589e-05
0.0106089
2.62553e-05
0.0106141
1.29935e-05
0.0106174
0.0106191
0.000888813
0.0064398
-0.000920673
0.000981686
0.00680591
0.00112714
0.00735856
0.00123342
0.00797699
0.00125966
0.0085304
0.00121621
0.00896013
0.00113248
0.0092765
0.00103298
0.00951423
0.000931455
0.00970229
0.000833958
0.00985736
0.000742753
0.00998783
0.000658598
0.0100982
0.000581645
0.0101916
0.000511761
0.0102703
0.000448645
0.0103365
0.000391896
0.0103921
0.000341047
0.0104386
0.000295602
0.0104774
0.000255051
0.0105098
0.000218888
0.0105366
0.000186617
0.0105588
0.000157763
0.010577
0.000131874
0.0105919
0.000108518
0.010604
8.7288e-05
0.0106137
6.77953e-05
0.0106213
4.96701e-05
0.010627
3.25574e-05
0.0106312
1.61132e-05
0.0106339
0.0106352
0.00139438
0.00659519
-0.00154978
0.00137074
0.00682955
0.0014463
0.007283
0.00153213
0.00789117
0.00155742
0.00850511
0.00150701
0.00901054
0.00140334
0.00938017
0.0012754
0.00964217
0.0011432
0.0098345
0.00101663
0.00998392
0.0008995
0.010105
0.000792792
0.0102049
0.000696425
0.0102879
0.00060989
0.0103568
0.000532512
0.0104139
0.000463543
0.0104611
0.000402215
0.0104999
0.000347763
0.0105319
0.000299447
0.0105581
0.000256564
0.0105795
0.00021845
0.0105969
0.000184484
0.010611
0.000154089
0.0106223
0.000126725
0.0106314
0.000101891
0.0106385
7.91145e-05
0.010644
5.79522e-05
0.0106482
3.79816e-05
0.0106511
1.87964e-05
0.0106531
0.010654
0.00193955
0.00683504
-0.00217939
0.00181042
0.00695868
0.00179605
0.00729737
0.00183339
0.00785383
0.0018411
0.00849739
0.00177951
0.00907213
0.00165719
0.00950249
0.0015026
0.00979675
0.00134057
0.00999652
0.00118523
0.0101393
0.0010424
0.0102478
0.00091357
0.0103337
0.000798451
0.010403
0.000696103
0.0104592
0.000605404
0.0105046
0.000525203
0.0105413
0.000454381
0.0105708
0.000391881
0.0105944
0.000336719
0.0106132
0.000287984
0.0106282
0.000244838
0.01064
0.000206518
0.0106493
0.000172322
0.0106565
0.000141609
0.0106621
0.000113788
0.0106663
8.83114e-05
0.0106695
6.46671e-05
0.0106718
4.23727e-05
0.0106734
2.09665e-05
0.0106745
0.010675
0.00249522
0.00711719
-0.00277738
0.00228875
0.00716515
0.00218402
0.0074021
0.00215128
0.00788656
0.00211929
0.00852938
0.00203426
0.00915716
0.00188936
0.00964738
0.00170795
0.00997817
0.00151687
0.0101876
0.00133364
0.0103225
0.00116611
0.0104153
0.00101635
0.0104835
0.000883832
0.0105356
0.000767119
0.0105759
0.00066457
0.0106072
0.000574573
0.0106313
0.000495629
0.0106497
0.000426369
0.0106636
0.00036555
0.010674
0.000312056
0.0106817
0.000264883
0.0106872
0.000223126
0.010691
0.000185973
0.0106937
0.000152687
0.0106954
0.000122599
0.0106964
9.50943e-05
0.010697
6.96039e-05
0.0106973
4.55937e-05
0.0106975
2.25562e-05
0.0106975
0.0106975
0.0030413
0.00740933
-0.00333343
0.00278719
0.00741926
0.00260395
0.00758534
0.00248993
0.00800058
0.00239689
0.00862242
0.00227119
0.00928287
0.00209495
0.00982362
0.00188413
0.010189
0.00166442
0.0104073
0.00145487
0.0105321
0.00126466
0.0106055
0.00109615
0.010652
0.000948465
0.0106832
0.000819583
0.0107048
0.00070727
0.0107195
0.000609425
0.0107291
0.000524148
0.010735
0.000449748
0.010738
0.000384737
0.0107391
0.000327804
0.0107386
0.00027779
0.0107372
0.000233668
0.0107352
0.000194525
0.0107328
0.000159548
0.0107303
0.000128003
0.010728
9.92202e-05
0.0107258
7.25872e-05
0.010724
4.7531e-05
0.0107225
2.35095e-05
0.0107215
0.010721
0.00356809
0.00769528
-0.00385404
0.00328591
0.00770144
0.00303731
0.00783394
0.00283874
0.00819915
0.00266828
0.00879288
0.00248445
0.00946669
0.00226598
0.0100421
0.0020219
0.0104331
0.00177419
0.010655
0.00154102
0.0107652
0.00133151
0.0108151
0.00114774
0.0108358
0.000988212
0.0108428
0.000850222
0.0108428
0.000730931
0.0108388
0.000627727
0.0108323
0.000538325
0.0108244
0.000460742
0.0108156
0.000393271
0.0108065
0.000334426
0.0107975
0.00028292
0.0107887
0.000237634
0.0107805
0.000197577
0.0107729
0.000161877
0.010766
0.000129754
0.0107601
0.000100505
0.0107551
7.34862e-05
0.010751
4.81007e-05
0.0107479
2.37854e-05
0.0107458
0.0107448
0.00406719
0.00797639
-0.00434831
0.00376104
0.00800759
0.00345366
0.00814131
0.00317107
0.00848175
0.00291394
0.00905001
0.00265912
0.00972151
0.00238947
0.0103117
0.0021095
0.010713
0.0018359
0.0109286
0.0015836
0.0110175
0.00135999
0.0110387
0.00116599
0.0110298
0.000999176
0.0110096
0.000856106
0.0109858
0.000733326
0.0109615
0.00062779
0.0109379
0.000536877
0.0109153
0.000458373
0.0108941
0.000390393
0.0108745
0.000331337
0.0108565
0.000279828
0.0108402
0.00023468
0.0108256
0.000194863
0.0108127
0.000159471
0.0108014
0.000127702
0.0107919
9.88376e-05
0.0107839
7.22223e-05
0.0107776
4.7252e-05
0.0107729
2.33594e-05
0.0107697
0.0107682
0.00451682
0.00826868
-0.00480911
0.00417751
0.00834691
0.00381108
0.00850774
0.00344742
0.00884541
0.00310258
0.00939484
0.00277211
0.010052
0.00244807
0.0106358
0.00213332
0.0110278
0.00183883
0.0112231
0.00157441
0.0112819
0.00134398
0.0112691
0.00114645
0.0112273
0.000978178
0.0111778
0.000834947
0.0111291
0.000712839
0.0110836
0.000608461
0.0110422
0.000518983
0.0110048
0.00044205
0.0109711
0.000375687
0.0109409
0.00031824
0.010914
0.0002683
0.0108902
0.000224662
0.0108692
0.000186283
0.0108511
0.000152261
0.0108355
0.0001218
0.0108223
9.41862e-05
0.0108115
6.87752e-05
0.010803
4.49744e-05
0.0107967
2.22264e-05
0.0107925
0.0107904
0.00487136
0.00859503
-0.00519771
0.00448605
0.00873221
0.00406051
0.00893329
0.00362305
0.00928287
0.00319761
0.00982029
0.00279612
0.0104535
0.00242222
0.0110097
0.00207951
0.0113705
0.00177327
0.0115294
0.0015067
0.0115485
0.00127895
0.0114968
0.00108613
0.0114201
0.00092327
0.0113407
0.000785538
0.0112668
0.000668718
0.0112005
0.000569299
0.0111417
0.000484411
0.0110897
0.000411671
0.0110438
0.000349145
0.0110034
0.000295181
0.0109679
0.000248404
0.0109369
0.000207646
0.01091
0.000171909
0.0108868
0.00014032
0.010867
0.000112112
0.0108505
8.66051e-05
0.010837
6.31873e-05
0.0108264
4.12951e-05
0.0108186
2.04009e-05
0.0108134
0.0108108
0.00506764
0.00897077
-0.00544338
0.00463334
0.00916652
0.00415537
0.00941126
0.0036559
0.00978233
0.00316314
0.0103131
0.00270379
0.0109128
0.00229313
0.0114203
0.00193622
0.0117274
0.0016323
0.0118333
0.00137678
0.011804
0.00116303
0.0117106
0.000984258
0.0115989
0.000834304
0.0114907
0.000708056
0.011393
0.000601318
0.0113072
0.000510755
0.0112322
0.000433618
0.0111668
0.000367715
0.0111097
0.000311195
0.0110599
0.000262547
0.0110166
0.000220492
0.010979
0.00018396
0.0109465
0.000152022
0.0109187
0.000123873
0.0108952
9.88209e-05
0.0108756
7.62404e-05
0.0108596
5.55689e-05
0.0108471
3.62885e-05
0.0108378
1.79181e-05
0.0108317
0.0108287
0.00504857
0.00939031
-0.00546811
0.00457536
0.00963973
0.00405629
0.00993032
0.00350829
0.0103303
0.00296639
0.010855
0.00247087
0.0114083
0.00204609
0.0118451
0.00169675
0.0120768
0.0014143
0.0121157
0.00118545
0.0120329
0.000998092
0.0118979
0.000842902
0.0117541
0.000713297
0.0116203
0.000604314
0.011502
0.00051228
0.0113992
0.00043423
0.0113103
0.000367856
0.0112332
0.000311219
0.0111663
0.00026273
0.0111084
0.000221094
0.0110582
0.000185213
0.0110149
0.000154135
0.0109776
0.000127059
0.0109458
0.000103298
0.010919
8.22348e-05
0.0108966
6.33279e-05
0.0108785
4.60868e-05
0.0108643
3.00619e-05
0.0108539
1.48339e-05
0.010847
0.0108435
0.00477621
0.0098356
-0.0052215
0.00427586
0.0101401
0.00372602
0.0104802
0.00314559
0.0109108
0.00258136
0.0114192
0.00208272
0.011907
0.00167729
0.0122506
0.00136441
0.0123896
0.00112566
0.0123545
0.000939692
0.0122188
0.000790299
0.0120473
0.00066731
0.0118771
0.000564475
0.0117231
0.000477807
0.0115887
0.000404421
0.0114726
0.000342103
0.0113726
0.00028905
0.0112862
0.000243788
0.0112116
0.000205112
0.0111471
0.000171975
0.0110914
0.000143503
0.0110433
0.000118953
0.0110022
9.76768e-05
0.0109671
7.91114e-05
0.0109375
6.27588e-05
0.010913
4.81795e-05
0.0108931
3.49709e-05
0.0108775
2.27693e-05
0.0108661
1.1222e-05
0.0108585
0.0108548
0.00421543
0.0103006
-0.00468046
0.00369705
0.0106585
0.003131
0.0110462
0.00254715
0.0114946
0.00200198
0.0119644
0.00154614
0.0123628
0.00120152
0.0125952
0.000956409
0.0126347
0.000782093
0.0125288
0.000652397
0.0123485
0.000549944
0.0121498
0.000465454
0.0119616
0.000394158
0.0117944
0.000333482
0.0116494
0.000281718
0.0115244
0.000237529
0.0114168
0.000199782
0.011324
0.000167571
0.0112438
0.000140062
0.0111746
0.00011659
0.0111148
9.65379e-05
0.0110634
7.93733e-05
0.0110193
6.46408e-05
0.0109818
5.19406e-05
0.0109502
4.0891e-05
0.010924
3.11805e-05
0.0109028
2.25091e-05
0.0108862
1.45936e-05
0.010874
7.17268e-06
0.0108659
0.0108619
0.00333439
0.0107831
-0.00381691
0.00281923
0.0111736
0.00226978
0.0115957
0.00173202
0.0120324
0.00126082
0.0124356
0.000899969
0.0127237
0.000655663
0.0128395
0.0005029
0.0127875
0.000407253
0.0126244
0.000341378
0.0124144
0.000290144
0.012201
0.000247236
0.0120045
0.000209937
0.0118317
0.000177283
0.011682
0.000148897
0.0115528
0.000124278
0.0114414
0.000103085
0.0113452
8.49574e-05
0.0112619
6.95932e-05
0.01119
5.65884e-05
0.0111278
4.56457e-05
0.0110743
3.64946e-05
0.0110285
2.88645e-05
0.0109894
2.25006e-05
0.0109566
1.7219e-05
0.0109293
1.27854e-05
0.0109072
9.01691e-06
0.01089
5.73838e-06
0.0108773
2.78952e-06
0.0108689
0.0108647
0.00215583
0.0112453
-0.00261795
0.00168405
0.0116454
0.00120605
0.0120737
0.000774298
0.0124641
0.000434658
0.0127752
0.000210214
0.0129481
9.06965e-05
0.012959
4.11358e-05
0.0128371
2.6504e-05
0.0126391
2.43292e-05
0.0124166
2.44474e-05
0.0122009
2.28353e-05
0.0120061
1.96768e-05
0.0118349
1.55607e-05
0.0116861
1.08585e-05
0.0115575
6.33055e-06
0.0114459
2.29071e-06
0.0113492
-1.16235e-06
0.0112654
-3.98636e-06
0.0111928
-6.11519e-06
0.01113
-7.5603e-06
0.0110758
-8.37029e-06
0.0110293
-8.60075e-06
0.0109897
-8.31403e-06
0.0109563
-7.5963e-06
0.0109286
-6.51097e-06
0.0109062
-5.13472e-06
0.0108886
-3.54161e-06
0.0108757
-1.80763e-06
0.0108671
0.0108629
0.000797364
0.0116131
-0.00116519
0.000410666
0.0120321
6.68761e-05
0.0124174
-0.000209539
0.0127405
-0.000382773
0.0129484
-0.000451717
0.0130171
-0.000443345
0.0129506
-0.000394492
0.0127882
-0.00033427
0.0125788
-0.000278317
0.0123606
-0.000232121
0.0121547
-0.000195487
0.0119695
-0.000166901
0.0118063
-0.000144415
0.0116637
-0.000126302
0.0115394
-0.000111442
0.0114311
-9.89432e-05
0.0113367
-8.81267e-05
0.0112546
-7.8518e-05
0.0111832
-6.9793e-05
0.0111212
-6.17123e-05
0.0110677
-5.41004e-05
0.0110217
-4.68287e-05
0.0109824
-3.9804e-05
0.0109493
-3.29582e-05
0.0109218
-2.624e-05
0.0108994
-1.96114e-05
0.010882
-1.30436e-05
0.0108691
-6.51346e-06
0.0108606
0.0108564
-0.000595345
0.0118663
0.000342144
-0.000829553
0.0122663
-0.00100911
0.012597
-0.00110177
0.0128332
-0.00110356
0.0129502
-0.00103002
0.0129435
-0.000912789
0.0128334
-0.00078352
0.0126589
-0.00066264
0.012458
-0.000558752
0.0122567
-0.000472953
0.0120689
-0.000402989
0.0118995
-0.000345875
0.0117492
-0.000298851
0.0116166
-0.000259647
0.0115002
-0.000226542
0.011398
-0.000198206
0.0113084
-0.000173614
0.01123
-0.000151986
0.0111615
-0.000132714
0.011102
-0.000115329
0.0110503
-9.94582e-05
0.0110058
-8.4802e-05
0.0109677
-7.11172e-05
0.0109356
-5.82042e-05
0.0109089
-4.58935e-05
0.0108871
-3.40403e-05
0.0108701
-2.25165e-05
0.0108576
-1.12064e-05
0.0108493
0.0108452
-0.00182405
0.011982
0.00170832
-0.00189651
0.0123388
-0.00189861
0.0125991
-0.00182317
0.0127578
-0.00168156
0.0128086
-0.00149746
0.0127594
-0.0013003
0.0126362
-0.00111297
0.0124716
-0.00094748
0.0122925
-0.000806974
0.0121162
-0.000689747
0.0119517
-0.000592303
0.0118021
-0.000511014
0.0116679
-0.000442715
0.0115483
-0.000384822
0.0114423
-0.000335294
0.0113484
-0.00029252
0.0112656
-0.000255222
0.0111927
-0.000222388
0.0111287
-0.000193203
0.0110728
-0.000167012
0.0110241
-0.000143277
0.0109821
-0.000121554
0.010946
-0.000101468
0.0109155
-8.27036e-05
0.0108901
-6.49835e-05
0.0108694
-4.8065e-05
0.0108532
-3.17285e-05
0.0108412
-1.57712e-05
0.0108334
0.0108294
-0.00278433
0.0119596
0.00280679
-0.00270259
0.012257
-0.00255489
0.0124514
-0.0023503
0.0125532
-0.00210797
0.0125663
-0.00185173
0.0125032
-0.00160444
0.012389
-0.00138039
0.0122476
-0.00118528
0.0120974
-0.00101894
0.0119499
-0.000878278
0.011811
-0.000759403
0.0116832
-0.000658589
0.0115671
-0.000572621
0.0114624
-0.000498838
0.0113685
-0.000435081
0.0112847
-0.000379598
0.0112101
-0.000330964
0.0111441
-0.000288016
0.0110858
-0.000249798
0.0110346
-0.000215515
0.0109898
-0.000184504
0.0109511
-0.000156203
0.0109177
-0.000130131
0.0108894
-0.000105871
0.0108658
-8.30548e-05
0.0108466
-6.13516e-05
0.0108315
-4.04603e-05
0.0108203