/*--------------------------------*- C++ -*----------------------------------*\
  =========                 |
  \\      /  F ield         | OpenFOAM: The Open Source CFD Toolbox
   \\    /   O peration     | Website:  https://openfoam.org
    \\  /    A nd           | Version:  7
     \\/     M anipulation  |
\*---------------------------------------------------------------------------*/
FoamFile
{
    version     2.0;
    format      ascii;
    class       volVectorField;
    location    "105";
    object      U;
}
// * * * * * * * * * * * * * * * * * * * * * * * * * * * * * * * * * * * * * //

dimensions      [0 1 -1 0 0 0 0];

internalField   nonuniform List<vector> 
3700
(
(1.37806 0.106312 0)
(1.35701 0.108701 0)
(1.33349 0.102127 0)
(1.31122 0.0957513 0)
(1.29083 0.0892605 0)
(1.27243 0.0828135 0)
(1.25597 0.076506 0)
(1.2413 0.070431 0)
(1.22823 0.0646411 0)
(1.21655 0.0591583 0)
(1.20608 0.0539924 0)
(1.19667 0.0491468 0)
(1.18819 0.0446178 0)
(1.18054 0.0403967 0)
(1.17364 0.036471 0)
(1.16742 0.0328253 0)
(1.16183 0.0294425 0)
(1.1568 0.0263043 0)
(1.15231 0.0233915 0)
(1.1483 0.0206849 0)
(1.14476 0.0181651 0)
(1.14163 0.0158129 0)
(1.13892 0.0136095 0)
(1.13658 0.011536 0)
(1.13461 0.00957447 0)
(1.13299 0.00770684 0)
(1.13171 0.00591548 0)
(1.13075 0.00418321 0)
(1.13012 0.00249377 0)
(1.1298 0.000827568 0)
(1.37188 0.143403 0)
(1.34864 0.142225 0)
(1.32464 0.130569 0)
(1.30231 0.120405 0)
(1.28207 0.110798 0)
(1.26397 0.10168 0)
(1.2479 0.0930892 0)
(1.23365 0.0850624 0)
(1.22102 0.0775869 0)
(1.20979 0.0706363 0)
(1.19976 0.0641853 0)
(1.19078 0.0582083 0)
(1.18271 0.0526782 0)
(1.17545 0.0475673 0)
(1.16893 0.0428474 0)
(1.16305 0.0384901 0)
(1.15778 0.0344672 0)
(1.15305 0.030751 0)
(1.14883 0.0273143 0)
(1.14507 0.0241306 0)
(1.14174 0.0211742 0)
(1.13882 0.0184204 0)
(1.13628 0.0158452 0)
(1.13409 0.0134255 0)
(1.13225 0.011139 0)
(1.13073 0.00896394 0)
(1.12953 0.00687914 0)
(1.12864 0.00486412 0)
(1.12805 0.00289919 0)
(1.12775 0.000962525 0)
(1.35811 0.180422 0)
(1.33412 0.17545 0)
(1.31076 0.158311 0)
(1.2892 0.144405 0)
(1.26979 0.131652 0)
(1.25255 0.119837 0)
(1.2373 0.108966 0)
(1.22384 0.0990018 0)
(1.21195 0.0898598 0)
(1.2014 0.0814662 0)
(1.19202 0.0737594 0)
(1.18364 0.0666835 0)
(1.17613 0.060187 0)
(1.16939 0.0542223 0)
(1.16334 0.0487448 0)
(1.15791 0.0437127 0)
(1.15304 0.0390861 0)
(1.14868 0.0348276 0)
(1.14478 0.0309016 0)
(1.14132 0.0272745 0)
(1.13826 0.0239142 0)
(1.13557 0.0207904 0)
(1.13323 0.0178741 0)
(1.13123 0.0151379 0)
(1.12953 0.0125552 0)
(1.12814 0.0101007 0)
(1.12704 0.00774984 0)
(1.12622 0.00547895 0)
(1.12568 0.00326515 0)
(1.12541 0.00108424 0)
(1.33686 0.215467 0)
(1.31358 0.206751 0)
(1.29198 0.184169 0)
(1.27202 0.166859 0)
(1.25412 0.151101 0)
(1.23828 0.136706 0)
(1.22429 0.123673 0)
(1.21197 0.111871 0)
(1.2011 0.101149 0)
(1.19149 0.0913905 0)
(1.18295 0.0824997 0)
(1.17533 0.0743916 0)
(1.16853 0.066991 0)
(1.16243 0.0602311 0)
(1.15696 0.0540515 0)
(1.15205 0.0483968 0)
(1.14766 0.0432162 0)
(1.14373 0.0384624 0)
(1.14022 0.0340918 0)
(1.13711 0.0300636 0)
(1.13436 0.0263396 0)
(1.13194 0.0228841 0)
(1.12984 0.0196634 0)
(1.12803 0.0166456 0)
(1.12651 0.0138004 0)
(1.12526 0.0110992 0)
(1.12427 0.00851396 0)
(1.12353 0.00601815 0)
(1.12304 0.00358594 0)
(1.1228 0.00119087 0)
(1.30905 0.24685 0)
(1.28767 0.234598 0)
(1.26879 0.207098 0)
(1.25115 0.186947 0)
(1.23538 0.168468 0)
(1.22142 0.151753 0)
(1.20908 0.13678 0)
(1.19821 0.123317 0)
(1.18864 0.111162 0)
(1.18017 0.100166 0)
(1.17266 0.0902032 0)
(1.16597 0.0811616 0)
(1.16 0.0729455 0)
(1.15465 0.0654708 0)
(1.14985 0.0586624 0)
(1.14556 0.0524527 0)
(1.14171 0.0467803 0)
(1.13828 0.0415892 0)
(1.13521 0.0368279 0)
(1.13249 0.032449 0)
(1.13008 0.0284087 0)
(1.12796 0.0246661 0)
(1.12612 0.0211831 0)
(1.12454 0.0179238 0)
(1.12321 0.0148546 0)
(1.12212 0.0119432 0)
(1.12125 0.00915924 0)
(1.1206 0.00647313 0)
(1.12018 0.0038565 0)
(1.11996 0.00128075 0)
(1.27612 0.27332 0)
(1.25732 0.257776 0)
(1.24188 0.226304 0)
(1.22714 0.203984 0)
(1.21401 0.183179 0)
(1.20232 0.164525 0)
(1.19195 0.147914 0)
(1.18281 0.133028 0)
(1.17475 0.119639 0)
(1.16763 0.107576 0)
(1.16131 0.0966866 0)
(1.15568 0.0868384 0)
(1.15065 0.0779188 0)
(1.14615 0.069829 0)
(1.14212 0.0624816 0)
(1.13851 0.0557982 0)
(1.13528 0.0497082 0)
(1.13239 0.0441476 0)
(1.12981 0.0390583 0)
(1.12751 0.0343867 0)
(1.12548 0.0300839 0)
(1.1237 0.0261046 0)
(1.12215 0.0224065 0)
(1.12082 0.0189504 0)
(1.11969 0.0156994 0)
(1.11877 0.0126186 0)
(1.11803 0.00967484 0)
(1.11749 0.00683629 0)
(1.11712 0.0040723 0)
(1.11694 0.0013524 0)
(1.23957 0.294112 0)
(1.22361 0.27551 0)
(1.2121 0.241278 0)
(1.20069 0.217459 0)
(1.19053 0.194808 0)
(1.18138 0.174674 0)
(1.17323 0.156775 0)
(1.16602 0.140748 0)
(1.15967 0.126365 0)
(1.15404 0.113436 0)
(1.14905 0.101792 0)
(1.1446 0.0912871 0)
(1.14062 0.0817954 0)
(1.13706 0.073207 0)
(1.13387 0.0654244 0)
(1.13101 0.0583607 0)
(1.12844 0.0519375 0)
(1.12614 0.0460845 0)
(1.12409 0.0407373 0)
(1.12226 0.0358377 0)
(1.12064 0.0313322 0)
(1.11921 0.0271716 0)
(1.11797 0.0233103 0)
(1.1169 0.019706 0)
(1.116 0.0163193 0)
(1.11525 0.0131128 0)
(1.11466 0.0100513 0)
(1.11422 0.00710106 0)
(1.11392 0.00422947 0)
(1.11378 0.00140455 0)
(1.20073 0.308881 0)
(1.1877 0.287479 0)
(1.18037 0.251789 0)
(1.17252 0.227052 0)
(1.16551 0.203095 0)
(1.15907 0.181965 0)
(1.15329 0.163146 0)
(1.14817 0.146287 0)
(1.14365 0.131171 0)
(1.13964 0.117599 0)
(1.13608 0.105393 0)
(1.1329 0.0943971 0)
(1.13005 0.0844795 0)
(1.1275 0.0755218 0)
(1.12521 0.0674194 0)
(1.12314 0.0600787 0)
(1.12129 0.0534157 0)
(1.11962 0.0473545 0)
(1.11813 0.0418265 0)
(1.11679 0.0367693 0)
(1.11561 0.0321258 0)
(1.11456 0.0278438 0)
(1.11364 0.0238749 0)
(1.11285 0.0201746 0)
(1.11218 0.0167012 0)
(1.11162 0.0134157 0)
(1.11118 0.010281 0)
(1.11085 0.00726205 0)
(1.11063 0.00432482 0)
(1.11052 0.00143615 0)
(1.16073 0.31762 0)
(1.15066 0.293752 0)
(1.14759 0.257826 0)
(1.14334 0.232637 0)
(1.13951 0.207933 0)
(1.13585 0.186269 0)
(1.13254 0.166893 0)
(1.12959 0.149518 0)
(1.12698 0.133941 0)
(1.12467 0.11996 0)
(1.12261 0.107393 0)
(1.12076 0.0960848 0)
(1.11911 0.0858977 0)
(1.11762 0.0767095 0)
(1.11627 0.068411 0)
(1.11504 0.0609042 0)
(1.11393 0.0541012 0)
(1.11293 0.0479224 0)
(1.11202 0.0422958 0)
(1.1112 0.0371559 0)
(1.11046 0.0324433 0)
(1.10981 0.0281032 0)
(1.10923 0.0240856 0)
(1.10872 0.0203441 0)
(1.10829 0.0168355 0)
(1.10793 0.0135195 0)
(1.10764 0.0103582 0)
(1.10743 0.00731528 0)
(1.10728 0.004356 0)
(1.10721 0.00144644 0)
(1.12047 0.320596 0)
(1.1135 0.294688 0)
(1.11456 0.259524 0)
(1.11382 0.234255 0)
(1.11309 0.209341 0)
(1.1122 0.187548 0)
(1.11136 0.167962 0)
(1.11061 0.15038 0)
(1.10995 0.134611 0)
(1.10937 0.120454 0)
(1.10886 0.107733 0)
(1.10839 0.0962947 0)
(1.10796 0.0860001 0)
(1.10756 0.0767258 0)
(1.10719 0.0683604 0)
(1.10683 0.0608038 0)
(1.10649 0.0539655 0)
(1.10616 0.0477637 0)
(1.10585 0.0421245 0)
(1.10556 0.0369804 0)
(1.10528 0.0322703 0)
(1.10503 0.0279382 0)
(1.10479 0.0239327 0)
(1.10458 0.0202066 0)
(1.10439 0.0167159 0)
(1.10423 0.0134196 0)
(1.1041 0.0102793 0)
(1.104 0.00725834 0)
(1.10394 0.00432159 0)
(1.1039 0.00143494 0)
(1.08066 0.318228 0)
(1.07701 0.29079 0)
(1.0819 0.25712 0)
(1.08448 0.23207 0)
(1.08673 0.207417 0)
(1.08853 0.185841 0)
(1.09013 0.166363 0)
(1.09156 0.148866 0)
(1.09285 0.133161 0)
(1.09401 0.119056 0)
(1.09506 0.106386 0)
(1.09598 0.0949991 0)
(1.09679 0.0847605 0)
(1.0975 0.0755469 0)
(1.09811 0.0672467 0)
(1.09863 0.0597592 0)
(1.09906 0.0529931 0)
(1.09943 0.0468657 0)
(1.09972 0.0413021 0)
(1.09996 0.0362342 0)
(1.10015 0.0316001 0)
(1.1003 0.0273433 0)
(1.10041 0.0234122 0)
(1.10049 0.0197591 0)
(1.10055 0.0163402 0)
(1.10059 0.0131144 0)
(1.10061 0.0100433 0)
(1.10063 0.00709051 0)
(1.10064 0.0042212 0)
(1.10064 0.00140153 0)
(1.04185 0.311011 0)
(1.04178 0.282571 0)
(1.05008 0.2509 0)
(1.05577 0.226313 0)
(1.06083 0.202311 0)
(1.06523 0.18124 0)
(1.06919 0.162159 0)
(1.07274 0.14501 0)
(1.07595 0.129608 0)
(1.07883 0.115774 0)
(1.08142 0.103351 0)
(1.08373 0.0921956 0)
(1.08578 0.0821752 0)
(1.08759 0.0731686 0)
(1.08918 0.0650661 0)
(1.09057 0.0577676 0)
(1.09178 0.0511821 0)
(1.09283 0.0452274 0)
(1.09373 0.0398286 0)
(1.09449 0.034918 0)
(1.09514 0.0304339 0)
(1.09569 0.0263203 0)
(1.09614 0.0225259 0)
(1.09651 0.0190037 0)
(1.09681 0.0157103 0)
(1.09705 0.0126054 0)
(1.09723 0.00965151 0)
(1.09736 0.00681288 0)
(1.09745 0.00405549 0)
(1.09749 0.00134645 0)
(1.00448 0.29949 -5.39e-12)
(1.00814 0.270541 -4.599e-12)
(1.01942 0.241131 0)
(1.02802 0.217229 -3.44342e-12)
(1.03572 0.194186 -3.01485e-12)
(1.04261 0.173865 -7.65421e-29)
(1.04883 0.155439 2.36098e-12)
(1.05444 0.138877 2.11773e-12)
(1.0595 0.123998 0)
(1.06407 0.11064 0)
(1.06817 0.0986551 0)
(1.07183 0.0879047 0)
(1.0751 0.0782607 0)
(1.07799 0.0696055 0)
(1.08055 0.0618317 0)
(1.08279 0.054841 0)
(1.08476 0.048544 0)
(1.08648 0.0428596 0)
(1.08796 0.0377144 0)
(1.08925 0.0330418 0)
(1.09034 0.0287812 9.28403e-13)
(1.09128 0.0248779 1.79131e-12)
(1.09206 0.0212818 8.66758e-13)
(1.09272 0.0179473 0)
(1.09325 0.0148324 -8.2002e-13)
(1.09368 0.011898 -8.02063e-13)
(1.09401 0.0091081 0)
(1.09425 0.00642837 -7.76896e-13)
(1.0944 0.00382624 -7.69695e-13)
(1.09448 0.00127028 -2.21026e-29)
(0.968811 0.284146 5.38945e-12)
(0.976285 0.255144 4.599e-12)
(0.990168 0.228066 0)
(1.00149 0.205059 3.44342e-12)
(1.0117 0.183209 3.01485e-12)
(1.02094 0.163851 7.65421e-29)
(1.02931 0.146307 -2.36098e-12)
(1.03689 0.130548 -2.11773e-12)
(1.04375 0.116399 0)
(1.04993 0.103712 0)
(1.05549 0.092345 0)
(1.06047 0.0821664 0)
(1.06491 0.0730524 0)
(1.06885 0.0648892 0)
(1.07234 0.0575723 0)
(1.07542 0.0510059 0)
(1.07812 0.0451032 0)
(1.08048 0.0397852 0)
(1.08253 0.0349806 0)
(1.0843 0.0306248 0)
(1.08583 0.0266595 -9.28403e-13)
(1.08713 0.023032 -1.79131e-12)
(1.08824 0.0196941 -8.66758e-13)
(1.08916 0.0166024 0)
(1.08991 0.0137169 8.2002e-13)
(1.09052 0.0110008 8.02063e-13)
(1.09099 0.00841978 0)
(1.09134 0.00594183 7.76896e-13)
(1.09156 0.00353636 7.69695e-13)
(1.09167 0.00117399 2.21026e-29)
(0.935006 0.265339 0)
(0.94634 0.236666 0)
(0.962492 0.211915 0)
(0.976403 0.190015 0)
(0.988988 0.169535 0)
(1.00045 0.151334 0)
(1.01087 0.134878 0)
(1.02033 0.120119 0)
(1.0289 0.106893 0)
(1.03664 0.0950598 0)
(1.0436 0.0844841 0)
(1.04983 0.0750378 0)
(1.05539 0.0666023 0)
(1.06033 0.0590673 0)
(1.06471 0.0523316 0)
(1.06857 0.0463028 0)
(1.07196 0.0408971 0)
(1.07493 0.0360385 0)
(1.07751 0.0316586 0)
(1.07975 0.0276959 0)
(1.08168 0.0240948 0)
(1.08333 0.0208056 0)
(1.08473 0.0177831 0)
(1.0859 0.0149866 0)
(1.08686 0.0123788 0)
(1.08763 0.0099258 0)
(1.08823 0.007596 0)
(1.08867 0.00535998 0)
(1.08896 0.00318987 0)
(1.08911 0.00105894 0)
(0.903032 0.243397 0)
(0.918368 0.215289 0)
(0.936594 0.192821 0)
(0.952934 0.172255 0)
(0.96779 0.153304 0)
(0.981369 0.136443 0)
(0.993737 0.121264 0)
(1.00498 0.107692 0)
(1.01518 0.095573 0)
(1.02438 0.08477 0)
(1.03266 0.0751508 0)
(1.04008 0.0665918 0)
(1.0467 0.0589778 0)
(1.05258 0.0522024 0)
(1.05778 0.0461679 0)
(1.06238 0.0407857 0)
(1.06641 0.0359755 0)
(1.06994 0.0316652 0)
(1.07301 0.0277902 0)
(1.07567 0.0242927 0)
(1.07797 0.0211211 0)
(1.07993 0.0182292 0)
(1.0816 0.0155754 0)
(1.08299 0.0131227 0)
(1.08414 0.0108374 0)
(1.08506 0.00868881 0)
(1.08578 0.00664888 0)
(1.08631 0.00469149 0)
(1.08665 0.00279198 0)
(1.08682 0.000926839 0)
(0.8729 0.21852 0)
(0.892298 0.191243 0)
(0.912638 0.170929 0)
(0.931282 0.151903 0)
(0.948308 0.134629 0)
(0.963897 0.119295 0)
(0.978116 0.105577 0)
(0.991052 0.0933753 0)
(1.00278 0.082542 0)
(1.01336 0.0729396 0)
(1.02287 0.0644377 0)
(1.03139 0.0569158 0)
(1.03899 0.0502615 0)
(1.04573 0.044372 0)
(1.05169 0.0391536 0)
(1.05695 0.0345217 0)
(1.06156 0.0304005 0)
(1.06559 0.0267225 0)
(1.0691 0.0234275 0)
(1.07214 0.0204626 0)
(1.07476 0.0177807 0)
(1.077 0.01534 0)
(1.0789 0.0131037 0)
(1.08049 0.0110388 0)
(1.0818 0.00911609 0)
(1.08285 0.00730892 0)
(1.08367 0.00559325 0)
(1.08427 0.00394685 0)
(1.08467 0.00234895 0)
(1.08486 0.000779792 0)
(0.844947 0.190558 0)
(0.868113 0.164692 0)
(0.890701 0.146409 0)
(0.911602 0.129099 0)
(0.930739 0.113627 0)
(0.948245 0.100002 0)
(0.964217 0.0879283 0)
(0.978739 0.0772816 0)
(0.991892 0.0679111 0)
(1.00375 0.0596772 0)
(1.0144 0.0524508 0)
(1.02392 0.0461116 0)
(1.0324 0.0405505 0)
(1.03991 0.0356681 0)
(1.04655 0.031375 0)
(1.05239 0.0275915 0)
(1.05751 0.0242469 0)
(1.06198 0.0212787 0)
(1.06587 0.0186329 0)
(1.06923 0.0162618 0)
(1.07212 0.0141237 0)
(1.07459 0.0121825 0)
(1.07669 0.0104066 0)
(1.07844 0.00876813 0)
(1.07988 0.00724272 0)
(1.08104 0.00580865 0)
(1.08194 0.00444645 0)
(1.0826 0.00313841 0)
(1.08304 0.00186814 0)
(1.08325 0.000620231 0)
(0.819267 0.159483 0)
(0.846097 0.135499 0)
(0.870928 0.11929 0)
(0.894034 0.103946 0)
(0.915247 0.090416 0)
(0.934614 0.0786765 0)
(0.952249 0.0684303 0)
(0.968253 0.0595263 0)
(0.982723 0.0518001 0)
(0.995747 0.0451052 0)
(1.00742 0.0393102 0)
(1.01783 0.0342966 0)
(1.02708 0.0299576 0)
(1.03527 0.026198 0)
(1.04248 0.0229333 0)
(1.04882 0.0200891 0)
(1.05436 0.0176011 0)
(1.05919 0.0154139 0)
(1.06338 0.0134788 0)
(1.067 0.0117553 0)
(1.07011 0.0102084 0)
(1.07276 0.00880789 0)
(1.075 0.00752858 0)
(1.07688 0.00634866 0)
(1.07842 0.00524906 0)
(1.07966 0.00421368 0)
(1.08062 0.00322826 0)
(1.08133 0.0022802 0)
(1.08179 0.00135798 0)
(1.08202 0.000450951 0)
(0.794375 0.126584 0)
(0.826322 0.103674 0)
(0.853626 0.0894341 0)
(0.878854 0.0763811 0)
(0.902032 0.0650565 0)
(0.92321 0.055423 0)
(0.942425 0.047206 0)
(0.959804 0.0402401 0)
(0.975469 0.0343429 0)
(0.989526 0.0293591 0)
(1.00209 0.0251518 0)
(1.01327 0.0216043 0)
(1.02317 0.0186126 0)
(1.03191 0.0160847 0)
(1.03959 0.0139438 0)
(1.04631 0.0121227 0)
(1.05218 0.0105633 0)
(1.05728 0.00921819 0)
(1.06169 0.00804778 0)
(1.0655 0.00701743 0)
(1.06876 0.00610002 0)
(1.07153 0.00527404 0)
(1.07388 0.00452013 0)
(1.07583 0.0038229 0)
(1.07744 0.00317049 0)
(1.07873 0.0025526 0)
(1.07973 0.00196084 0)
(1.08047 0.00138791 0)
(1.08095 0.000827671 0)
(1.08119 0.000275037 0)
(0.767195 0.0946573 0)
(0.807527 0.0703579 0)
(0.838756 0.0571375 0)
(0.866442 0.0463199 0)
(0.891446 0.0375354 0)
(0.914293 0.0303066 0)
(0.934982 0.0243817 0)
(0.953613 0.0195672 0)
(0.970333 0.0156949 0)
(0.985279 0.0125952 0)
(0.998587 0.0101314 0)
(1.01038 0.00818992 0)
(1.02079 0.00666276 0)
(1.02995 0.00546933 0)
(1.03796 0.00453916 0)
(1.04496 0.00381413 0)
(1.05104 0.00324553 0)
(1.05631 0.00279541 0)
(1.06086 0.00243219 0)
(1.06477 0.0021296 0)
(1.06811 0.00187235 0)
(1.07095 0.00164501 0)
(1.07334 0.00143529 0)
(1.07533 0.0012381 0)
(1.07697 0.00104654 0)
(1.07828 0.000856705 0)
(1.07929 0.000668184 0)
(1.08003 0.000478529 0)
(1.08052 0.000287364 0)
(1.08076 9.58817e-05 0)
(0.735749 0.0658433 0)
(0.787021 0.037807 0)
(0.825249 0.0238123 0)
(0.856691 0.0141932 0)
(0.883846 0.0079884 0)
(0.908215 0.00341286 0)
(0.930192 7.5598e-05 0)
(0.949917 -0.00232432 0)
(0.967532 -0.00396696 0)
(0.983199 -0.00500122 0)
(0.997074 -0.00556585 0)
(1.00932 -0.00577374 0)
(1.02007 -0.00572374 0)
(1.02949 -0.0054894 0)
(1.0377 -0.00513165 0)
(1.04483 -0.00469806 0)
(1.05101 -0.00422576 0)
(1.05634 -0.00374209 0)
(1.06093 -0.00326725 0)
(1.06486 -0.00281587 0)
(1.0682 -0.0023952 0)
(1.07103 -0.00201061 0)
(1.07341 -0.00166463 0)
(1.07539 -0.00135552 0)
(1.077 -0.00108165 0)
(1.0783 -0.000839637 0)
(1.0793 -0.000623966 0)
(1.08003 -0.000429961 0)
(1.08051 -0.000251813 0)
(1.08074 -8.28773e-05 0)
(0.702402 0.0389789 0)
(0.762587 0.00762079 0)
(0.810889 -0.00837462 0)
(0.84858 -0.018525 0)
(0.879152 -0.0230427 0)
(0.905296 -0.0249747 0)
(0.928413 -0.0255241 0)
(0.949013 -0.0252659 0)
(0.967307 -0.0244437 0)
(0.983482 -0.0232217 0)
(0.997722 -0.0217318 0)
(1.01021 -0.0200799 0)
(1.02113 -0.0183511 0)
(1.03063 -0.0166087 0)
(1.03887 -0.0149004 0)
(1.04599 -0.0132603 0)
(1.05213 -0.0117116 0)
(1.0574 -0.0102683 0)
(1.06192 -0.00893756 0)
(1.06576 -0.00772122 0)
(1.06903 -0.00661634 0)
(1.07178 -0.0056173 0)
(1.07408 -0.00471639 0)
(1.07599 -0.00390385 0)
(1.07755 -0.00316925 0)
(1.07879 -0.00250139 0)
(1.07975 -0.0018883 0)
(1.08045 -0.00131811 0)
(1.08091 -0.000778663 0)
(1.08114 -0.000257516 0)
(0.673758 0.00959539 0)
(0.735639 -0.0205743 0)
(0.793754 -0.0382955 0)
(0.840352 -0.0500703 0)
(0.876515 -0.0543646 0)
(0.905459 -0.05427 0)
(0.929895 -0.0520686 0)
(0.951186 -0.0489666 0)
(0.969899 -0.0454698 0)
(0.986323 -0.0418088 0)
(1.00068 -0.0381179 0)
(1.01319 -0.0344911 0)
(1.02405 -0.0309972 0)
(1.03343 -0.0276831 0)
(1.04152 -0.0245795 0)
(1.04847 -0.0217029 0)
(1.05442 -0.0190595 0)
(1.05951 -0.0166475 0)
(1.06383 -0.0144589 0)
(1.0675 -0.0124814 0)
(1.07059 -0.0106996 0)
(1.07319 -0.00909629 0)
(1.07536 -0.00765301 0)
(1.07714 -0.00635065 0)
(1.0786 -0.00516994 0)
(1.07975 -0.00409168 0)
(1.08064 -0.00309668 0)
(1.08129 -0.00216616 0)
(1.08171 -0.00128148 0)
(1.08192 -0.000424136 0)
(0.655874 -0.0280407 0)
(0.711664 -0.0490583 0)
(0.774653 -0.0663443 0)
(0.830578 -0.0794818 0)
(0.874548 -0.0846388 0)
(0.908055 -0.0835192 0)
(0.934552 -0.0789711 0)
(0.9566 -0.0730287 0)
(0.975516 -0.0667136 0)
(0.991903 -0.0604556 0)
(1.0061 -0.0544341 0)
(1.01836 -0.0487367 0)
(1.02891 -0.0434115 0)
(1.03796 -0.0384839 0)
(1.04569 -0.0339619 0)
(1.05229 -0.0298403 0)
(1.05789 -0.0261049 0)
(1.06265 -0.0227347 0)
(1.06666 -0.0197043 0)
(1.07004 -0.0169858 0)
(1.07288 -0.0145498 0)
(1.07525 -0.0123662 0)
(1.07721 -0.0104055 0)
(1.07882 -0.0086384 0)
(1.08012 -0.00703672 0)
(1.08115 -0.005573 0)
(1.08194 -0.00422072 0)
(1.08252 -0.0029542 0)
(1.08289 -0.00174842 0)
(1.08308 -0.000578806 0)
(0.652027 -0.0737605 0)
(0.696317 -0.0819178 0)
(0.757017 -0.0943742 0)
(0.819428 -0.10689 0)
(0.87213 -0.11301 0)
(0.912127 -0.11174 0)
(0.941985 -0.105477 0)
(0.965239 -0.0969093 0)
(0.984288 -0.087747 0)
(1.00037 -0.0787891 0)
(1.01408 -0.0703411 0)
(1.02579 -0.0625056 0)
(1.03576 -0.0553115 0)
(1.04422 -0.0487567 0)
(1.05138 -0.042821 0)
(1.05743 -0.0374726 0)
(1.06252 -0.0326723 0)
(1.0668 -0.0283769 0)
(1.07038 -0.0245415 0)
(1.07337 -0.0211206 0)
(1.07586 -0.0180693 0)
(1.07791 -0.0153443 0)
(1.0796 -0.0129042 0)
(1.08098 -0.0107095 0)
(1.08209 -0.00872266 0)
(1.08296 -0.00690821 0)
(1.08362 -0.00523229 0)
(1.0841 -0.00366256 0)
(1.08442 -0.00216782 0)
(1.08457 -0.000717675 0)
(0.662452 -0.125401 0)
(0.692787 -0.120726 0)
(0.744968 -0.124956 0)
(0.808878 -0.133779 0)
(0.869193 -0.139586 0)
(0.916925 -0.138332 0)
(0.951641 -0.130864 0)
(0.976903 -0.119984 0)
(0.996229 -0.108054 0)
(1.01179 -0.0963662 0)
(1.0247 -0.0854446 0)
(1.03552 -0.0754445 0)
(1.0446 -0.0663819 0)
(1.05221 -0.0582229 0)
(1.05857 -0.0509128 0)
(1.06386 -0.0443871 0)
(1.06827 -0.0385778 0)
(1.07192 -0.0334163 0)
(1.07493 -0.0288353 0)
(1.07742 -0.0247705 0)
(1.07946 -0.0211608 0)
(1.08113 -0.0179488 0)
(1.08249 -0.015081 0)
(1.08358 -0.0125077 0)
(1.08445 -0.0101823 0)
(1.08513 -0.00806145 0)
(1.08564 -0.00610437 0)
(1.08601 -0.00427238 0)
(1.08624 -0.00252853 0)
(1.08636 -0.000837056 0)
(0.683792 -0.179325 0)
(0.701227 -0.164519 0)
(0.741624 -0.159614 0)
(0.801915 -0.162056 0)
(0.866972 -0.165317 0)
(0.922418 -0.163272 0)
(0.96314 -0.154634 0)
(0.99134 -0.141645 0)
(1.01126 -0.127061 0)
(1.02618 -0.112676 0)
(1.03797 -0.0992943 0)
(1.04755 -0.0871567 0)
(1.05541 -0.0762754 0)
(1.06187 -0.0665814 0)
(1.06717 -0.0579781 0)
(1.0715 -0.0503626 0)
(1.07503 -0.0436334 0)
(1.07791 -0.0376934 0)
(1.08024 -0.0324513 0)
(1.08212 -0.0278227 0)
(1.08363 -0.0237296 0)
(1.08484 -0.0201008 0)
(1.0858 -0.0168708 0)
(1.08656 -0.0139798 0)
(1.08715 -0.0113728 0)
(1.0876 -0.00899926 0)
(1.08794 -0.00681181 0)
(1.08818 -0.00476618 0)
(1.08833 -0.00282026 0)
(1.0884 -0.000933545 0)
(0.711473 -0.232363 0)
(0.719227 -0.211157 0)
(0.747945 -0.198312 0)
(0.801263 -0.193031 0)
(0.867607 -0.191385 0)
(0.929481 -0.18694 0)
(0.976585 -0.176522 0)
(1.00843 -0.161331 0)
(1.02927 -0.144147 0)
(1.04348 -0.127139 0)
(1.05383 -0.111378 0)
(1.0618 -0.0971996 0)
(1.06808 -0.0846145 0)
(1.07309 -0.0735126 0)
(1.07707 -0.0637484 0)
(1.08022 -0.0551745 0)
(1.08271 -0.0476518 0)
(1.08466 -0.0410525 0)
(1.08619 -0.0352603 0)
(1.08736 -0.0301701 0)
(1.08826 -0.0256876 0)
(1.08895 -0.0217277 0)
(1.08946 -0.0182141 0)
(1.08985 -0.0150777 0)
(1.09012 -0.012256 0)
(1.09032 -0.00969179 0)
(1.09046 -0.00733234 0)
(1.09055 -0.00512851 0)
(1.09061 -0.00303393 0)
(1.09064 -0.00100415 0)
(0.741467 -0.28293 0)
(0.743455 -0.258564 0)
(0.763053 -0.239826 0)
(0.808592 -0.226785 0)
(0.873458 -0.21841 0)
(0.939721 -0.209612 0)
(0.992659 -0.196264 0)
(1.02832 -0.178439 0)
(1.05021 -0.158606 0)
(1.06355 -0.139086 0)
(1.07214 -0.121112 0)
(1.07809 -0.105084 0)
(1.08244 -0.0909957 0)
(1.08568 -0.078686 0)
(1.08809 -0.0679537 0)
(1.08986 -0.0586027 0)
(1.09114 -0.050454 0)
(1.09204 -0.0433481 0)
(1.09264 -0.0371437 0)
(1.09303 -0.0317164 0)
(1.09325 -0.0269562 0)
(1.09336 -0.0227661 0)
(1.09338 -0.0190598 0)
(1.09335 -0.0157605 0)
(1.09329 -0.0127994 0)
(1.09322 -0.010114 0)
(1.09314 -0.00764735 0)
(1.09308 -0.00534657 0)
(1.09303 -0.00316204 0)
(1.093 -0.0010464 0)
(0.771201 -0.330839 0)
(0.77116 -0.30518 0)
(0.785374 -0.282197 0)
(0.824505 -0.261967 0)
(0.886517 -0.245798 0)
(0.955039 -0.230877 0)
(1.01246 -0.213245 0)
(1.05138 -0.192159 0)
(1.07405 -0.169592 0)
(1.0862 -0.147747 0)
(1.09262 -0.127851 0)
(1.09616 -0.110288 0)
(1.0982 -0.0950043 0)
(1.09938 -0.0817741 0)
(1.09998 -0.0703363 0)
(1.10018 -0.0604441 0)
(1.10011 -0.0518793 0)
(1.09984 -0.0444528 0)
(1.09945 -0.0380006 0)
(1.09898 -0.0323812 0)
(1.09847 -0.0274717 0)
(1.09795 -0.023165 0)
(1.09745 -0.0193674 0)
(1.09698 -0.0159963 0)
(1.09656 -0.0129782 0)
(1.0962 -0.0102471 0)
(1.0959 -0.00774299 0)
(1.09567 -0.00541086 0)
(1.09551 -0.00319904 0)
(1.09543 -0.00105847 0)
(0.799901 -0.376165 0)
(0.801045 -0.349441 0)
(0.81375 -0.322761 0)
(0.849031 -0.295839 0)
(0.908122 -0.271495 0)
(0.977099 -0.249283 0)
(1.03712 -0.226258 0)
(1.07803 -0.20138 0)
(1.10069 -0.176103 0)
(1.11108 -0.152277 0)
(1.11486 -0.130919 0)
(1.11557 -0.11229 0)
(1.11498 -0.0962432 0)
(1.11382 -0.0824774 0)
(1.11242 -0.0706696 0)
(1.11091 -0.0605268 0)
(1.10938 -0.0517974 0)
(1.10787 -0.0442672 0)
(1.10641 -0.037755 0)
(1.10504 -0.0321063 0)
(1.10376 -0.027189 0)
(1.1026 -0.0228899 0)
(1.10156 -0.0191105 0)
(1.10064 -0.0157648 0)
(1.09985 -0.0127769 0)
(1.09918 -0.0100793 0)
(1.09865 -0.00761087 0)
(1.09826 -0.00531572 0)
(1.09799 -0.00314166 0)
(1.09786 -0.0010393 0)
(0.828518 -0.417668 0)
(0.833475 -0.388727 0)
(0.847931 -0.3579 0)
(0.882004 -0.324562 0)
(0.938812 -0.292272 0)
(1.00687 -0.262449 0)
(1.06735 -0.23354 0)
(1.10841 -0.204732 0)
(1.12981 -0.177059 0)
(1.13763 -0.151836 0)
(1.13822 -0.129684 0)
(1.13573 -0.110628 0)
(1.13223 -0.0943815 0)
(1.12856 -0.0805593 0)
(1.12503 -0.0687847 0)
(1.12172 -0.058731 0)
(1.11866 -0.0501225 0)
(1.11586 -0.0427304 0)
(1.11332 -0.0363631 0)
(1.11103 -0.0308603 0)
(1.10898 -0.0260863 0)
(1.10717 -0.0219255 0)
(1.10558 -0.0182781 0)
(1.10421 -0.0150584 0)
(1.10304 -0.0121905 0)
(1.10209 -0.00960736 0)
(1.10133 -0.00724878 0)
(1.10076 -0.00505978 0)
(1.10039 -0.0029892 0)
(1.1002 -0.000988664 0)
(0.859275 -0.451529 0)
(0.869919 -0.418741 0)
(0.888185 -0.38317 0)
(0.922964 -0.343844 0)
(0.978258 -0.304425 0)
(1.04435 -0.267526 0)
(1.10311 -0.233031 0)
(1.14216 -0.200756 0)
(1.16073 -0.171432 0)
(1.165 -0.14571 0)
(1.16186 -0.123661 0)
(1.15587 -0.104978 0)
(1.14931 -0.0892083 0)
(1.14305 -0.0758848 0)
(1.13734 -0.0645987 0)
(1.13221 -0.0550068 0)
(1.12764 -0.0468273 0)
(1.12357 -0.0398289 0)
(1.11996 -0.033821 0)
(1.11676 -0.0286453 0)
(1.11396 -0.0241685 0)
(1.11151 -0.0202779 0)
(1.10939 -0.0168775 0)
(1.10758 -0.0138842 0)
(1.10606 -0.0112253 0)
(1.10482 -0.00883672 0)
(1.10384 -0.00666121 0)
(1.10311 -0.00464635 0)
(1.10263 -0.00274362 0)
(1.10239 -0.000907209 0)
(0.89462 -0.471616 0)
(0.911558 -0.434338 0)
(0.934316 -0.394199 0)
(0.970921 -0.349717 0)
(1.02537 -0.304415 0)
(1.08862 -0.261636 0)
(1.14354 -0.222661 0)
(1.17829 -0.188116 0)
(1.19228 -0.158426 0)
(1.19201 -0.133456 0)
(1.18469 -0.112623 0)
(1.17508 -0.0952406 0)
(1.16547 -0.0806908 0)
(1.15667 -0.0684619 0)
(1.14887 -0.0581396 0)
(1.14201 -0.0493924 0)
(1.13599 -0.041954 0)
(1.13071 -0.0356059 0)
(1.12609 -0.0301698 0)
(1.12205 -0.0254986 0)
(1.11853 -0.0214694 0)
(1.11549 -0.0179777 0)
(1.11287 -0.0149347 0)
(1.11065 -0.0122643 0)
(1.1088 -0.00989974 0)
(1.10729 -0.00778232 0)
(1.10611 -0.00585953 0)
(1.10523 -0.00408342 0)
(1.10465 -0.00240969 0)
(1.10437 -0.000796526 0)
(0.935364 -0.471945 0)
(0.957966 -0.431261 0)
(0.985277 -0.387362 0)
(1.02456 -0.338719 0)
(1.07859 -0.28901 0)
(1.13798 -0.242132 0)
(1.18688 -0.200682 0)
(1.215 -0.165916 0)
(1.22277 -0.137735 0)
(1.21717 -0.115092 0)
(1.20549 -0.0967218 0)
(1.19237 -0.0816026 0)
(1.17993 -0.0690181 0)
(1.16883 -0.0584629 0)
(1.15913 -0.0495611 0)
(1.15071 -0.0420243 0)
(1.14339 -0.0356209 0)
(1.13703 -0.0301621 0)
(1.1315 -0.0254957 0)
(1.1267 -0.0214951 0)
(1.12254 -0.0180524 0)
(1.11897 -0.0150779 0)
(1.11591 -0.0124945 0)
(1.11333 -0.0102358 0)
(1.11118 -0.00824408 0)
(1.10943 -0.006468 0)
(1.10806 -0.00486165 0)
(1.10705 -0.00338354 0)
(1.10638 -0.00199489 0)
(1.10605 -0.000659085 0)
(0.979719 -0.448945 0)
(1.00768 -0.406325 0)
(1.03996 -0.359229 0)
(1.08257 -0.307566 0)
(1.13588 -0.2554 0)
(1.18979 -0.207114 0)
(1.23031 -0.166308 0)
(1.24968 -0.134234 0)
(1.25 -0.109877 0)
(1.23877 -0.0912594 0)
(1.22298 -0.0765605 0)
(1.20678 -0.0645798 0)
(1.19195 -0.0546148 0)
(1.17894 -0.0462335 0)
(1.16767 -0.0391468 0)
(1.15795 -0.0331344 0)
(1.14955 -0.028019 0)
(1.14228 -0.0236569 0)
(1.13599 -0.019932 0)
(1.13055 -0.0167445 0)
(1.12586 -0.0140092 0)
(1.12183 -0.0116544 0)
(1.1184 -0.00961934 0)
(1.11551 -0.00784997 0)
(1.11311 -0.00629931 0)
(1.11116 -0.00492585 0)
(1.10963 -0.00369207 0)
(1.1085 -0.00256388 0)
(1.10776 -0.00150916 0)
(1.1074 -0.000498167 0)
(1.02591 -0.400065 0)
(1.06 -0.355929 0)
(1.09753 -0.306328 0)
(1.14311 -0.253836 0)
(1.19399 -0.202322 0)
(1.24001 -0.156664 0)
(1.26986 -0.120662 0)
(1.27903 -0.0946203 0)
(1.27163 -0.0763988 0)
(1.25522 -0.0632754 0)
(1.23605 -0.0531814 0)
(1.21753 -0.0449796 0)
(1.20095 -0.0381075 0)
(1.18655 -0.0322702 0)
(1.17413 -0.0272904 0)
(1.16345 -0.0230375 0)
(1.15423 -0.0194024 0)
(1.14627 -0.0162984 0)
(1.1394 -0.0136486 0)
(1.13347 -0.0113862 0)
(1.12836 -0.00945443 0)
(1.12398 -0.0078023 0)
(1.12026 -0.00638707 0)
(1.11712 -0.00516972 0)
(1.11452 -0.00411601 0)
(1.11241 -0.00319565 0)
(1.11076 -0.00238039 0)
(1.10954 -0.00164475 0)
(1.10874 -0.000964709 0)
(1.10835 -0.000317835 0)
(1.07469 -0.322361 0)
(1.11402 -0.277216 0)
(1.156 -0.227742 0)
(1.20228 -0.178337 0)
(1.24776 -0.132098 0)
(1.28329 -0.0942135 0)
(1.301 -0.0672872 0)
(1.29995 -0.0501645 0)
(1.28572 -0.0397127 0)
(1.26536 -0.032921 0)
(1.24398 -0.0279148 0)
(1.22409 -0.0238098 0)
(1.20654 -0.0202709 0)
(1.19135 -0.0171714 0)
(1.17826 -0.0144612 0)
(1.16699 -0.012109 0)
(1.15727 -0.0100748 0)
(1.14887 -0.00833133 0)
(1.14161 -0.00684396 0)
(1.13535 -0.00558265 0)
(1.12996 -0.00452211 0)
(1.12534 -0.0036316 0)
(1.12141 -0.00288697 0)
(1.11811 -0.00226823 0)
(1.11536 -0.00175295 0)
(1.11314 -0.00132221 0)
(1.1114 -0.000960246 0)
(1.11012 -0.000649964 0)
(1.10928 -0.000375611 0)
(1.10886 -0.000122624 0)
(1.12519 -0.216811 0)
(1.16628 -0.172619 0)
(1.21065 -0.128652 0)
(1.25386 -0.0872693 0)
(1.29083 -0.0517775 0)
(1.31425 -0.0263285 0)
(1.32011 -0.0114943 0)
(1.31046 -0.00470715 0)
(1.29137 -0.00249404 0)
(1.2688 -0.00212737 0)
(1.24656 -0.00216933 0)
(1.22634 -0.00212658 0)
(1.2086 -0.00192806 0)
(1.19323 -0.0015726 0)
(1.17995 -0.00116258 0)
(1.16848 -0.000755573 0)
(1.15856 -0.000361848 0)
(1.14998 -1.5731e-05 0)
(1.14255 0.000268209 0)
(1.13613 0.000487539 0)
(1.1306 0.000642955 0)
(1.12586 0.000739921 0)
(1.12182 0.000782806 0)
(1.11842 0.00077634 0)
(1.1156 0.00072789 0)
(1.11332 0.00064411 0)
(1.11153 0.000530814 0)
(1.11022 0.000395023 0)
(1.10935 0.000243422 0)
(1.10892 8.23121e-05 0)
(1.17022 -0.0927782 0)
(1.21203 -0.0524931 0)
(1.25456 -0.0205382 0)
(1.29146 0.00830453 0)
(1.31783 0.0286661 0)
(1.32943 0.0393334 0)
(1.32562 0.04143 0)
(1.31023 0.038209 0)
(1.28879 0.032855 0)
(1.26587 0.0274321 0)
(1.24407 0.0227892 0)
(1.22447 0.019078 0)
(1.20725 0.016174 0)
(1.19225 0.0139058 0)
(1.17925 0.0121022 0)
(1.16794 0.0106346 0)
(1.15812 0.00941628 0)
(1.1496 0.00837582 0)
(1.1422 0.00746347 0)
(1.13579 0.00664392 0)
(1.13026 0.00589163 0)
(1.12551 0.00518908 0)
(1.12147 0.00452249 0)
(1.11805 0.00388193 0)
(1.11522 0.00326043 0)
(1.11292 0.00265268 0)
(1.11113 0.00205458 0)
(1.1098 0.00146324 0)
(1.10893 0.000876367 0)
(1.1085 0.000291918 0)
(1.20298 0.035068 0)
(1.24525 0.0666057 0)
(1.28217 0.0832537 0)
(1.31058 0.0960586 0)
(1.32644 0.100449 0)
(1.32857 0.09678 0)
(1.31855 0.0876317 0)
(1.30059 0.0760909 0)
(1.27916 0.0645984 0)
(1.25745 0.0544387 0)
(1.23715 0.0459491 0)
(1.21891 0.0390133 0)
(1.20279 0.0333666 0)
(1.18865 0.028741 0)
(1.17628 0.0249091 0)
(1.16546 0.021693 0)
(1.15602 0.0189585 0)
(1.14778 0.016601 0)
(1.1406 0.0145409 0)
(1.13436 0.012717 0)
(1.12896 0.0110813 0)
(1.12431 0.00959691 0)
(1.12034 0.00823379 0)
(1.11699 0.00696792 0)
(1.11421 0.00577966 0)
(1.11195 0.0046526 0)
(1.11018 0.00357273 0)
(1.10888 0.00252793 0)
(1.10802 0.00150739 0)
(1.10759 0.000500952 0)
(1.22189 0.150954 0)
(1.26112 0.170041 0)
(1.29108 0.170606 0)
(1.3106 0.167881 0)
(1.3182 0.157996 0)
(1.31436 0.14284 0)
(1.30166 0.125307 0)
(1.28383 0.107766 0)
(1.26413 0.0918306 0)
(1.24469 0.078126 0)
(1.22658 0.0666372 0)
(1.21021 0.05709 0)
(1.19561 0.0491474 0)
(1.18268 0.0424993 0)
(1.17126 0.0368885 0)
(1.1612 0.0321097 0)
(1.15235 0.0280014 0)
(1.14459 0.0244355 0)
(1.13779 0.0213108 0)
(1.13187 0.0185466 0)
(1.12672 0.0160775 0)
(1.12228 0.0138507 0)
(1.11848 0.0118226 0)
(1.11526 0.00995696 0)
(1.11259 0.00822298 0)
(1.11041 0.00659431 0)
(1.10871 0.00504787 0)
(1.10745 0.00356305 0)
(1.10662 0.0021211 0)
(1.10621 0.0007043 0)
(1.22623 0.243665 0)
(1.25969 0.2496 0)
(1.28238 0.235457 0)
(1.29487 0.220505 0)
(1.29728 0.200013 0)
(1.29082 0.177205 0)