/*--------------------------------*- C++ -*----------------------------------*\
  =========                 |
  \\      /  F ield         | OpenFOAM: The Open Source CFD Toolbox
   \\    /   O peration     | Website:  https://openfoam.org
    \\  /    A nd           | Version:  7
     \\/     M anipulation  |
\*---------------------------------------------------------------------------*/
FoamFile
{
    version     2.0;
    format      ascii;
    class       surfaceScalarField;
    location    "5.001";
    object      phi;
}
// * * * * * * * * * * * * * * * * * * * * * * * * * * * * * * * * * * * * * //

dimensions      [0 3 -1 0 0 0 0];

internalField   nonuniform List<scalar> 
90700
(
-3.33503e-05
3.33503e-05
8.85254e-12
-0.000107175
7.38243e-05
-2.72814e-11
-0.000208908
0.000101733
-7.98388e-11
-0.000330959
0.000122051
-1.36895e-10
-0.000469106
0.000138148
-1.94852e-10
-0.000621275
0.000152169
-2.51124e-10
-0.000786474
0.000165199
-3.01737e-10
-0.000964031
0.000177558
-3.44426e-10
-0.00115311
0.000189077
-3.8613e-10
-0.00135243
0.000199327
-4.32425e-10
-0.00156019
0.000207754
-4.79484e-10
-0.00177393
0.000213743
-5.24215e-10
-0.00199057
0.000216642
-5.63034e-10
-0.00220636
0.000215786
-5.93003e-10
-0.00241688
0.00021052
-6.1197e-10
-0.00261716
0.000200284
-6.16656e-10
-0.00280179
0.000184629
-6.04259e-10
-0.00296474
0.000162952
-5.72406e-10
-0.00309973
0.000134996
-5.18439e-10
0.000103073
-4.40091e-10
-0.00320281
-3.18296e-05
6.51799e-05
-0.000102784
0.000144778
-0.000200923
0.000199873
-0.000318848
0.000239976
-0.000452285
0.000271585
-0.000598985
0.000298868
-0.000757742
0.000323957
-0.000927667
0.000347482
-0.0011077
0.000369114
-0.00129637
0.000387996
-0.00149163
0.000403012
-0.00169081
0.000412917
-0.00189055
0.000416391
-0.00208685
0.000412081
-0.00227498
0.000398647
-0.00244959
0.000374898
-0.00260491
0.00033995
-0.00273484
0.000292885
-0.00283272
0.00023287
0.00016387
-0.00289351
-2.89024e-05
9.40823e-05
-9.42876e-05
0.000210164
-0.000185419
0.000291004
-0.000295282
0.000349839
-0.00041952
0.000395823
-0.000555565
0.000434913
-0.000701809
0.000470201
-0.000856952
0.000502625
-0.00101955
0.000531711
-0.00118774
0.000556185
-0.0013591
0.000574375
-0.00153059
0.000584403
-0.00169848
0.000584285
-0.00185838
0.000571981
-0.00200519
0.000545459
-0.00213312
0.000502825
-0.00223582
0.000442653
-0.00230705
0.000364108
-0.00233997
0.000265794
0.000149762
-0.00232586
-2.47862e-05
0.000118868
-8.22374e-05
0.000267615
-0.0001633
0.000372066
-0.000261538
0.000448077
-0.000372518
0.000506803
-0.000493258
0.000555654
-0.000621615
0.000598557
-0.000755739
0.00063675
-0.000893672
0.000669645
-0.00103308
0.000695593
-0.00117111
0.000712402
-0.00130431
0.000717609
-0.00142865
0.000708618
-0.00153945
0.000682779
-0.00163145
0.000637458
-0.00169873
0.000570112
-0.00173465
0.000478566
-0.00173252
0.000361982
-0.00168662
0.000219895
4.43149e-05
-0.00158117
-1.97827e-05
0.000138651
-6.74092e-05
0.000315241
-0.000135855
0.000440512
-0.00021944
0.000531662
-0.000313713
0.000601076
-0.000415253
0.000657193
-0.000521308
0.000704612
-0.00062941
0.000744852
-0.000737036
0.00077727
-0.000841361
0.000799918
-0.000939125
0.000810166
-0.00102658
0.000805063
-0.00109949
0.000781529
-0.00115317
0.000736462
-0.00118252
0.00066681
-0.00118204
0.000569633
-0.00114552
0.000442046
-0.00106538
0.000281835
-0.000938964
9.34824e-05
-0.000149946
-0.000744703
-1.425e-05
0.000152901
-5.07482e-05
0.000351739
-0.000104676
0.000494439
-0.000171265
0.000598251
-0.000246142
0.000675954
-0.000325493
0.000736544
-0.000405971
0.00078509
-0.000484488
0.000823369
-0.000557972
0.000850754
-0.00062316
0.000865107
-0.000676489
0.000863494
-0.000714052
0.000842626
-0.000731639
0.000799116
-0.000724791
0.000729614
-0.000688852
0.000630871
-0.000619009
0.000499791
-0.000510806
0.000333843
-0.00035526
0.000126289
-0.000148393
-0.000113384
-0.000408334
0.000109995
-8.57087e-06
0.000161472
-3.32979e-05
0.000376466
-7.15617e-05
0.000532703
-0.00011961
0.000646299
-0.000173278
0.000729622
-0.000228469
0.000791735
-0.000281328
0.00083795
-0.000328222
0.000870262
-0.000365609
0.000888142
-0.000389905
0.000889402
-0.000397386
0.000870975
-0.000384178
0.000829419
-0.000346311
0.000761248
-0.000279783
0.000663086
-0.000180626
0.000531714
-4.4814e-05
0.000363979
0.000131189
0.00015784
0.000353477
-9.59987e-05
0.000622328
-0.000382236
-0.000747358
0.000961353
-3.12046e-06
0.000164593
-1.61236e-05
0.00038947
-3.83962e-05
0.000554976
-6.72468e-05
0.000675149
-9.8847e-05
0.000761222
-0.000128981
0.00082187
-0.000153441
0.000862409
-0.000168181
0.000885002
-0.000169338
0.000889298
-0.000153148
0.000873212
-0.000115909
0.000833736
-5.39866e-05
0.000767497
3.62044e-05
0.000671057
0.000158141
0.000541149
0.000314958
0.000374897
0.000510233
0.000168703
0.000745831
-7.77577e-05
0.00102949
-0.000379659
0.00135483
-0.000707578
-0.00114977
0.00175724
1.79023e-06
0.000162802
-1.39886e-07
0.0003914
-7.01724e-06
0.000561853
-1.69527e-05
0.000685085
-2.6627e-05
0.000770897
-3.19002e-05
0.000827143
-2.84097e-05
0.000858919
-1.19012e-05
0.000868494
2.16778e-05
0.000855719
7.60924e-05
0.000818797
0.000154857
0.000754972
0.000261264
0.000661089
0.000398352
0.000533969
0.000568979
0.000370523
0.000775805
0.00016807
0.00102212
-7.76074e-05
0.00131009
-0.000365731
0.00164772
-0.000717286
0.00202689
-0.00108675
-0.00161128
0.0024884
5.83796e-06
0.000156964
1.35375e-05
0.0003837
2.0878e-05
0.000554513
2.86826e-05
0.00067728
3.97964e-05
0.000759783
5.81294e-05
0.00080881
8.79891e-05
0.000829059
0.000133648
0.000822835
0.000199098
0.00079027
0.000287971
0.000729924
0.000403523
0.00063942
0.00054866
0.000515952
0.000726018
0.000356611
0.000938174
0.000158367
0.00118785
-8.16074e-05
0.00147859
-0.000368344
0.00181407
-0.000701211
0.00220251
-0.00110573
0.0026365
-0.00152074
-0.00213037
0.00315559
8.88353e-06
0.000148081
2.45147e-05
0.000368069
4.39659e-05
0.000535062
6.74583e-05
0.000653788
9.72908e-05
0.00072995
0.000136995
0.000769106
0.000190628
0.000775426
0.000262279
0.000751184
0.000355763
0.000696785
0.000474497
0.00061119
0.000621493
0.000492424
0.000799467
0.000337978
0.00101104
0.000145036
0.00125914
-8.97335e-05
0.00154757
-0.000370039
0.00188036
-0.000701127
0.00226399
-0.00108484
0.00270463
-0.00154636
0.00319866
-0.00201478
-0.00270306
0.00377135
1.08187e-05
0.000137262
3.22728e-05
0.000346615
6.13053e-05
0.000506029
9.77646e-05
0.000617329
0.000143478
0.000684237
0.000201528
0.000711055
0.000275599
0.000701355
0.000369478
0.000657304
0.000486754
0.000579509
0.000630698
0.000467246
0.000804331
0.000318791
0.00101064
0.000131672
0.00125297
-9.72996e-05
0.00153542
-0.00037218
0.00186335
-0.000697974
0.00224186
-0.00107963
0.00267911
-0.0015221
0.00317548
-0.00204273
0.00373208
-0.00257138
-0.00331576
0.00434478
1.16377e-05
0.000125624
3.66891e-05
0.000321564
7.24773e-05
0.000470241
0.000118764
0.000571042
0.000177034
0.000625968
0.000249945
0.000638143
0.000340794
0.000610507
0.00045309
0.000545008
0.000590319
0.00044228
0.000755909
0.000301657
0.000953386
0.000121314
0.00118675
-0.000101688
0.00146081
-0.000371366
0.00178123
-0.0006926
0.00215485
-0.00107159
0.00258666
-0.00151144
0.00308272
-0.00201815
0.00363392
-0.00259393
0.00424273
-0.00318019
-0.0039408
0.00486777
1.14234e-05
0.000114201
3.79234e-05
0.000295064
7.76386e-05
0.000430526
0.000130538
0.000518142
0.000197958
0.000558549
0.000282273
0.000553829
0.000386534
0.000506246
0.000514195
0.000417347
0.000668999
0.000287476
0.000855052
0.000115604
0.00107709
-0.000100724
0.00134071
-0.000365306
0.00165238
-0.000683041
0.00201894
-0.00105916
0.00244641
-0.00149906
0.00293689
-0.00200192
0.00348848
-0.00256974
0.00408156
-0.00318701
0.00471356
-0.00381219
-0.00454063
0.00531339
1.03374e-05
0.000103864
3.64128e-05
0.000268988
7.75314e-05
0.000389407
0.000134158
0.000461515
0.000207746
0.000484961
0.000300661
0.000460914
0.000416041
0.000390866
0.000557719
0.000275669
0.000730247
0.000114947
0.000939048
-9.31968e-05
0.0011905
-0.00035218
0.00149177
-0.000666571
0.00185003
-0.00104131
0.00227097
-0.0014801
0.00275593
-0.00198401
0.00330023
-0.00254622
0.00388952
-0.00315903
0.00449656
-0.00379406
0.00510921
-0.00442483
-0.00507997
0.00564855
8.60861e-06
9.5255e-05
3.28426e-05
0.000244754
7.34418e-05
0.000348808
0.000131655
0.000403301
0.000209393
0.000407223
0.00030942
0.000360887
0.000435464
0.000264821
0.000592312
0.000118821
0.000785899
-7.86394e-05
0.00102327
-0.000330568
0.00131218
-0.000641088
0.00166008
-0.00101447
0.00207222
-0.00145345
0.00254937
-0.00195725
0.00308428
-0.00251893
0.00366272
-0.00312466
0.00425824
-0.00375455
0.00484225
-0.00437807
0.00539413
-0.00497671
-0.00553813
0.00585229
6.51857e-06
8.87365e-05
2.80921e-05
0.000223181
6.70954e-05
0.000309805
0.000125855
0.000344541
0.000207144
0.000325935
0.000314634
0.000253397
0.000453214
0.000126242
0.00062914
-5.71044e-05
0.000849942
-0.000299441
0.00112385
-0.000604477
0.00145853
-0.000975768
0.00185901
-0.00141495
0.00232496
-0.0019194
0.0028486
-0.0024809
0.00341241
-0.00308274
0.0039932
-0.00370544
0.0045585
-0.00431985
0.00508544
-0.00490502
0.00555096
-0.00544223
-0.00591367
0.0059265
4.37841e-06
8.4358e-05
2.31523e-05
0.000204407
6.04799e-05
0.000272477
0.000120062
0.000284959
0.000205968
0.000240029
0.000323292
0.000136073
0.000478532
-2.89982e-05
0.000679564
-0.000258137
0.000935006
-0.000554883
0.00125277
-0.000922244
0.00163778
-0.00136077
0.0020892
-0.00186637
0.00259805
-0.00242825
0.00314656
-0.0030294
0.00370892
-0.0036451
0.00425743
-0.00425396
0.00476238
-0.0048248
0.00521159
-0.00535423
0.00558643
-0.00581706
-0.00622001
0.00589276
2.49941e-06
8.18586e-05
1.9018e-05
0.000187888
5.56051e-05
0.00023589
0.000117613
0.000222952
0.000210801
0.000146841
0.000342051
4.82246e-06
0.00051958
-0.000206527
0.000752389
-0.000490946
0.00104876
-0.000851259
0.00141382
-0.0012873
0.0018466
-0.00179355
0.00233766
-0.00235744
0.00286848
-0.00295907
0.00341327
-0.00357419
0.00394329
-0.00417512
0.00443266
-0.00474332
0.00486143
-0.00525356
0.00522785
-0.00572065
0.00552303
-0.00611225
-0.00647713
0.00578015
1.15918e-06
8.06995e-05
1.65687e-05
0.000172479
5.42367e-05
0.000198222
0.000121387
0.000155801
0.000225722
4.25058e-05
0.000375981
-0.000145437
0.000581673
-0.000412219
0.000851678
-0.000760951
0.00119173
-0.00119131
0.00160131
-0.00169688
0.00207108
-0.00226332
0.00258231
-0.00286866
0.00310899
-0.00348575
0.00362233
-0.00408753
0.0040969
-0.00464969
0.00451418
-0.0051606
0.0048667
-0.00560608
0.00515707
-0.00601102
0.00538329
-0.00633847
-0.00670928
0.00561544
5.57061e-07
8.01424e-05
1.64512e-05
0.000156584
5.76644e-05
0.000157009
0.000133397
8.00689e-05
0.000253317
-7.74145e-05
0.000427685
-0.000319805
0.000666278
-0.000650811
0.000975952
-0.00107062
0.00135733
-0.00157269
0.00180194
-0.00214148
0.00229133
-0.00275271
0.00279936
-0.00337669
0.00329713
-0.00398352
0.0037587
-0.0045491
0.00416652
-0.0050575
0.00451201
-0.00550609
0.00479877
-0.00589284
0.00503204
-0.00624429
0.00521949
-0.00652592
-0.00685199
0.00536219
7.61342e-07
7.93811e-05
1.90144e-05
0.000138331
6.65696e-05
0.000109454
0.000154574
-7.93564e-06
0.000294405
-0.000217245
0.000497061
-0.000522461
0.000771032
-0.000924783
0.00111889
-0.00141848
0.00153392
-0.00198772
0.0019987
-0.00260627
0.00248725
-0.00324126
0.00297008
-0.00385953
0.00342068
-0.00443412
0.00382041
-0.00494883
0.00416122
-0.00539831
0.00444375
-0.00578862
0.00467747
-0.00612656
0.00486821
-0.00643503
0.00503882
-0.00669653
-0.00699379
0.00518063
1.78787e-06
7.75932e-05
2.43161e-05
0.000115803
8.1026e-05
5.27437e-05
0.000184801
-0.000111711
0.000348168
-0.000380611
0.000581667
-0.00075596
0.000890582
-0.0012337
0.00127102
-0.00179892
0.00170764
-0.00242434
0.00217509
-0.00307372
0.00264328
-0.00370944
0.00308428
-0.00430053
0.00347811
-0.00482796
0.00381522
-0.00528594
0.00409609
-0.00567918
0.00432772
-0.00602025
0.00452139
-0.00632023
0.00468662
-0.00660026
0.00483628
-0.00684619
-0.00712655
0.00496903
3.58817e-06
7.4005e-05
3.21746e-05
8.72168e-05
0.000100619
-1.57007e-05
0.000223143
-0.000234235
0.000412564
-0.000570033
0.000677433
-0.00102083
0.00101778
-0.00157404
0.00142164
-0.00220279
0.0018653
-0.002868
0.00231823
-0.00352665
0.00275068
-0.00414189
0.00314036
-0.00469021
0.00347575
-0.00516335
0.00375574
-0.00556593
0.00398691
-0.00591035
0.0041793
-0.00621264
0.00434459
-0.00648553
0.00449036
-0.00674603
0.00462853
-0.00698435
-0.0072563
0.00475828
6.04435e-06
6.79607e-05
4.22562e-05
5.10049e-05
0.00012463
-9.80744e-05
0.000268156
-0.000377761
0.000484817
-0.000786694
0.00077939
-0.0013154
0.00114481
-0.00193946
0.00156051
-0.00261849
0.00199631
-0.0033038
0.00242043
-0.00395077
0.00280749
-0.00452895
0.00314306
-0.00502577
0.00342392
-0.00544421
0.00365533
-0.00579734
0.0038472
-0.00610223
0.00401032
-0.00637576
0.00415482
-0.00663002
0.00428712
-0.00687834
0.00441594
-0.00711317
-0.00737828
0.00453792
9.02822e-06
5.89325e-05
5.41739e-05
5.85916e-06
0.000152218
-0.000196118
0.000318171
-0.000543715
0.000561795
-0.00103032
0.000882241
-0.00163585
0.00126412
-0.00232134
0.00167913
-0.00303351
0.00209386
-0.00371853
0.00247924
-0.00433615
0.0028169
-0.00486662
0.00310061
-0.00530948
0.00333385
-0.00567745
0.00352579
-0.00598928
0.00368741
-0.00626384
0.00382863
-0.00651698
0.0039577
-0.00675909
0.00407925
-0.00699989
0.00419968
-0.0072336
-0.00749434
0.00431574
1.24318e-05
4.65007e-05
6.75658e-05
-4.92749e-05
0.000182542
-0.000311095
0.000371452
-0.000732625
0.000640241
-0.00129911
0.000980764
-0.00197637
0.00136908
-0.00270966
0.00177147
-0.00343589
0.002155
-0.00410206
0.00249638
-0.00467752
0.00278518
-0.00515542
0.00302229
-0.00554659
0.00321576
-0.00587092
0.00337645
-0.00614997
0.00351488
-0.00640227
0.00363939
-0.00664149
0.00375621
-0.00687591
0.0038686
-0.00711229
0.00398118
-0.00734618
-0.0076035
0.00409035
1.61786e-05
3.03221e-05
8.21257e-05
-0.000115222
0.000214807
-0.000443777
0.000426247
-0.000944065
0.000716879
-0.00158974
0.00107013
-0.00232962
0.00145458
-0.00309411
0.00183427
-0.00381557
0.00218015
-0.00444795
0.00247631
-0.00497368
0.00271981
-0.00539893
0.00291687
-0.00574365
0.003078
-0.00603205
0.00321418
-0.00628614
0.00333455
-0.00652264
0.00344569
-0.00675264
0.00355212
-0.00698234
0.00365602
-0.00721618
0.00376065
-0.00745081
-0.0077056
0.00386274
2.02214e-05
1.01007e-05
9.75953e-05
-0.000192596
0.000248239
-0.00059442
0.000480767
-0.00117659
0.000788513
-0.00189748
0.00114624
-0.00268735
0.00151728
-0.00346515
0.00186686
-0.00416515
0.00217215
-0.00475324
0.00242486
-0.00522638
0.0026282
-0.00560227
0.00279179
-0.00590724
0.00292696
-0.00616722
0.00304371
-0.0064029
0.00314954
-0.00662847
0.00324937
-0.00685247
0.00334635
-0.00707932
0.00344193
-0.00731176
0.00353843
-0.00754731
-0.0078001
0.00363294
2.453e-05
-1.44293e-05
0.000113734
-0.000281799
0.000282036
-0.000762723
0.000533169
-0.00142773
0.000852168
-0.00221648
0.00120599
-0.00304118
0.00155571
-0.00381487
0.00187065
-0.00448009
0.00213525
-0.00501784
0.00234811
-0.00543924
0.00251692
-0.00577108
0.00265298
-0.0060433
0.00276722
-0.00628146
0.00286821
-0.00650388
0.00296176
-0.00672202
0.00305145
-0.00694215
0.00313939
-0.00716727
0.00322657
-0.00739893
0.00331464
-0.00763538
-0.00788658
0.00340112
2.9076e-05
-4.35053e-05
0.000130279
-0.000383003
0.000315325
-0.000947768
0.00058159
-0.00169399
0.000905297
-0.00254019
0.00124749
-0.00338337
0.00157007
-0.00413745
0.00184841
-0.00475842
0.00207424
-0.00524367
0.00225175
-0.00561675
0.00239141
-0.00591074
0.00250488
-0.00615678
0.002602
-0.00637857
0.00268971
-0.0065916
0.00277237
-0.00680469
0.00285249
-0.00702227
0.00293151
-0.00724629
0.00301007
-0.0074775
0.0030894
-0.0077147
-0.00796461
0.00316743
3.382e-05
-7.73253e-05
0.000146923
-0.000496106
0.000347152
-0.001148
0.000624248
-0.00197109
0.000945975
-0.00286192
0.00127004
-0.00370743
0.00156183
-0.00442924
0.00180368
-0.00500028
0.0019939
-0.00543389
0.0021407
-0.00576355
0.00225594
-0.00602598
0.00235073
-0.00625156
0.00243344
-0.00646128
0.00250949
-0.00666765
0.00258205
-0.00687724
0.00265284
-0.00709306
0.00272285
-0.0073163
0.00279255
-0.0075472
0.00286281
-0.00778496
-0.0080338
0.00293199
3.87027e-05
-0.000116028
0.000163298
-0.000620701
0.000376514
-0.00136121
0.000659575
-0.00225415
0.000973026
-0.00317537
0.00127402
-0.00400843
0.00153331
-0.00468853
0.00174026
-0.00520723
0.00189854
-0.00559216
0.00201901
-0.00588402
0.00211377
-0.00612074
0.0021928
-0.0063306
0.00226296
-0.00653144
0.00232834
-0.00673304
0.00239119
-0.00694009
0.00245271
-0.00715458
0.00251356
-0.00737715
0.00257412
-0.00760777
0.00263501
-0.00784584
-0.00809376
0.00269497
4.36434e-05
-0.000159671
0.000178987
-0.000756045
0.000402421
-0.00158465
0.000686353
-0.00253808
0.000986045
-0.00347506
0.00126063
-0.00428301
0.00148728
-0.00491518
0.00166178
-0.00538173
0.0017919
-0.00572228
0.00188987
-0.00598199
0.00196726
-0.00619813
0.00203267
-0.00639601
0.0020915
-0.00659027
0.00214678
-0.00678832
0.00220009
-0.00699339
0.00225225
-0.00720674
0.00230376
-0.00742866
0.00235491
-0.00765892
0.00240615
-0.00789708
-0.00814415
0.00245654
4.85421e-05
-0.000208213
0.000193542
-0.000901045
0.000423978
-0.00181508
0.000703801
-0.0028179
0.000985309
-0.00375657
0.00123162
-0.00452932
0.0014266
-0.00511017
0.00157156
-0.00552669
0.00167707
-0.00582779
0.00175575
-0.00606067
0.00181814
-0.00626053
0.00187139
-0.00644926
0.00191967
-0.00663854
0.00196514
-0.00683379
0.00200893
-0.00703718
0.00205162
-0.00724943
0.00209359
-0.00747063
0.00213507
-0.00770041
0.0021764
-0.00793841
-0.00818464
0.00221689
5.32849e-05
-0.000261498
0.000206514
-0.00105427
0.000440451
-0.00204902
0.000711593
-0.00308905
0.000971638
-0.00401661
0.00118903
-0.00474671
0.00135407
-0.0052752
0.00147247
-0.0056451
0.00155652
-0.00591183
0.00161849
-0.00612264
0.00166763
-0.00630967
0.00170972
-0.00649135
0.00174789
-0.00667671
0.00178369
-0.00686959
0.0018179
-0.00707139
0.00185098
-0.00728251
0.0018832
-0.00750285
0.00191479
-0.007732
0.00194596
-0.00796958
-0.00821494
0.00197626
5.77496e-05
-0.000319248
0.000217486
-0.00121401
0.000451326
-0.00228286
0.000709832
-0.00334755
0.000946225
-0.004253
0.00113498
-0.00493546
0.00127219
-0.00541242
0.00136692
-0.00573983
0.00143219
-0.0059771
0.00147946
-0.0061699
0.0015166
-0.00634681
0.00154817
-0.00652292
0.00157647
-0.00670501
0.00160262
-0.00689574
0.00162718
-0.00709595
0.00165048
-0.00730581
0.00167278
-0.00752515
0.00169426
-0.00775348
0.00171506
-0.00799038
-0.00823477
0.0017349
6.18133e-05
-0.000381061
0.000226095
-0.00137829
0.000456326
-0.00251309
0.000698971
-0.0035902
0.000910479
-0.00446451
0.00107153
-0.00509651
0.00118321
-0.0055241
0.00125686
-0.00581348
0.00130557
-0.0060258
0.00133966
-0.00620399
0.00136566
-0.00637282
0.00138711
-0.00654436
0.00140567
-0.00672357
0.00142214
-0.00691221
0.00143693
-0.00711074
0.00145033
-0.00731922
0.00146254
-0.00753736
0.00147372
-0.00776466
0.00148395
-0.00800061
-0.00824391
0.00149309
6.53587e-05
-0.00044642
0.000232063
-0.001545
0.000455412
-0.00273644
0.000679723
-0.00381451
0.000865896
-0.00465069
0.00100061
-0.00523123
0.00108902
-0.00561251
0.00114388
-0.00586834
0.00117779
-0.00605971
0.00119982
-0.00622602
0.00121528
-0.00638828
0.00122683
-0.00655591
0.00123568
-0.00673243
0.00124242
-0.00691895
0.00124736
-0.00711568
0.00125073
-0.00732258
0.0012527
-0.00753933
0.00125342
-0.00776538
0.00125292
-0.00800011
-0.00824215
0.00125116
6.82794e-05
-0.000514699
0.000235201
-0.00171192
0.000448753
-0.00294999
0.000652969
-0.00401872
0.000813959
-0.00481168
0.000923929
-0.0053412
0.000991204
-0.00567979
0.00102922
-0.00590635
0.00104972
-0.00608022
0.0010605
-0.0062368
0.00106578
-0.00639356
0.00106757
-0.00655769
0.00106673
-0.00673159
0.00106367
-0.00691589
0.00105865
-0.00711066
0.00105188
-0.00731581
0.0010435
-0.00753096
0.00103364
-0.00775552
0.00102231
-0.00798877
-0.00822935
0.00100951
7.04855e-05
-0.000585185
0.000235423
-0.00187686
0.000436686
-0.00315126
0.000619679
-0.00420172
0.000756077
-0.00494807
0.000842982
-0.0054281
0.000891061
-0.00572787
0.000913834
-0.00592913
0.000921999
-0.00608838
0.000922102
-0.0062369
0.000917458
-0.00638892
0.000909546
-0.00654978
0.000898982
-0.00672103
0.000886075
-0.00690298
0.000871027
-0.00709562
0.00085401
-0.00729879
0.000835171
-0.00751212
0.000814631
-0.00773498
0.000792417
-0.00796655
-0.00820549
0.000768562
7.19058e-05
-0.000657091
0.000232732
-0.00203768
0.000419671
-0.00333819
0.000580843
-0.00436289
0.000693536
-0.00506077
0.000759047
-0.00549361
0.00078964
-0.00575846
0.000798485
-0.00593797
0.000795116
-0.00608501
0.000784945
-0.00622673
0.00077053
-0.0063745
0.000752953
-0.0065322
0.000732646
-0.00670072
0.000709845
-0.00688018
0.000684711
-0.00707048
0.00065738
-0.00727146
0.000627973
-0.00748271
0.000596622
-0.00770363
0.000563415
-0.00793335
-0.00817056
0.000528478
7.2491e-05
-0.000729582
0.00022722
-0.00219241
0.000398243
-0.00350922
0.000537431
-0.00450208
0.000627486
-0.00515082
0.000673193
-0.00553932
0.000687782
-0.00577305
0.000683753
-0.00593394
0.000669451
-0.00607071
0.000649286
-0.00620657
0.000625198
-0.00635041
0.000597973
-0.00650498
0.000567913
-0.00667066
0.000535193
-0.00684746
0.000499939
-0.00703523
0.00046226
-0.00723378
0.00042225
-0.0074427
0.000379986
-0.00766137
0.000335449
-0.00788881
-0.00812432
0.000289212
7.2214e-05
-0.000801795
0.000219045
-0.00233924
0.00037298
-0.00366315
0.000490351
-0.00461945
0.000558932
-0.0052194
0.000586308
-0.0055667
0.000586151
-0.00577289
0.000570084
-0.00591788
0.000545298
-0.00604593
0.000515337
-0.00617661
0.000481646
-0.00631672
0.00044479
-0.00646812
0.00040498
-0.00663085
0.000362334
-0.00680482
0.000316945
-0.00698984
0.000268907
-0.00718574
0.000218364
-0.00739216
0.000165253
-0.00760826
0.000109461
-0.00783302
-0.00806449
4.96297e-05
7.10687e-05
-0.000872864
0.000208416
-0.00247659
0.000344463
-0.0037992
0.000440437
-0.00471542
0.000488734
-0.0052677
0.000499115
-0.00557708
0.000485273
-0.00575905
0.000457827
-0.00589043
0.000422895
-0.00601099
0.000383276
-0.00613699
0.000340046
-0.00627349
0.000293585
-0.00642166
0.000244034
-0.0065813
0.000191485
-0.00675227
0.000135961
-0.00693432
7.75398e-05
-0.00712732
1.62558e-05
-0.00733087
-4.73999e-05
-0.0075446
-0.000114051
-0.00776637
-0.00799407
-0.000184468
6.90692e-05
-0.000941933
0.000195577
-0.0026031
0.000313262
-0.00391688
0.000388435
-0.00479059
0.000417627
-0.00529689
0.000412204
-0.00557166
0.000385558
-0.00573241
0.000347255
-0.00585213
0.000302437
-0.00596618
0.000253277
-0.00608783
0.000200545
-0.00622076
0.00014455
-0.00636567
8.52155e-05
-0.00652196
2.27294e-05
-0.00668978
-4.27887e-05
-0.0068688
-0.000111406
-0.0070587
-0.000182978
-0.0072593
-0.000257647
-0.00746993
-0.000335555
-0.00768846
-0.00791338
-0.000416244
6.62485e-05
-0.00100818
0.000180792
-0.00271764
0.000279915
-0.00401601
0.000335006
-0.00484569
0.000346222
-0.00530811
0.000326049
-0.00555148
0.000287332
-0.00569369
0.000238588
-0.00580338
0.000184069
-0.00591166
0.000125533
-0.00602929
6.32101e-05
-0.00615843
-2.54945e-06
-0.00629991
-7.12291e-05
-0.00645328
-0.000143359
-0.00661765
-0.000218915
-0.00679324
-0.000297767
-0.00697985
-0.00037983
-0.00717724
-0.00046517
-0.00738459
-0.000553811
-0.00759982
-0.00782165
-0.00064554
6.26593e-05
-0.00107084
0.000164372
-0.00281935
0.000244926
-0.00409656
0.000280724
-0.00488148
0.000275028
-0.00530241
0.000241029
-0.00551748
0.000190865
-0.00564352
0.000132015
-0.00574453
6.78581e-05
-0.0058475
-4.69764e-07
-0.00596096
-7.1648e-05
-0.00608726
-0.000146459
-0.0062251
-0.000224967
-0.00637478
-0.000306895
-0.00653572
-0.00039236
-0.00670778
-0.000481343
-0.00689087
-0.000573788
-0.00708479
-0.000669667
-0.00728871
-0.000768977
-0.00750051
-0.00771895
-0.000871684
5.83672e-05
-0.00112921
0.000146598
-0.00290758
0.000208755
-0.00415872
0.000226084
-0.00489881
0.000204462
-0.00528079
0.000157434
-0.00547046
9.63778e-05
-0.00558247
2.75481e-05
-0.0056757
-4.58458e-05
-0.00577411
-0.000122878
-0.00588393
-0.000203775
-0.00600636
-0.000288081
-0.00614079
-0.000376025
-0.00628683
-0.000467604
-0.00644414
-0.000562873
-0.00661251
-0.000661867
-0.00679187
-0.00076455
-0.00698211
-0.000870859
-0.0071824
-0.000980754
-0.00739061
-0.00760541
-0.00109429
5.34483e-05
-0.00118266
0.00012774
-0.00298188
0.000171817
-0.00420279
0.000171511
-0.00489851
0.000134868
-0.00524415
7.55012e-05
-0.00541109
3.58276e-06
-0.00551055
-7.43876e-05
-0.00559773
-0.00015695
-0.00569154
-0.000243272
-0.00579761
-0.000333286
-0.00591635
-0.000426902
-0.00604717
-0.000524202
-0.00618953
-0.000625283
-0.00634306
-0.000730229
-0.00650756
-0.000839101
-0.006683
-0.000951887
-0.00686933
-0.00106851
-0.00706578
-0.00118887
-0.00727025
-0.00748127
-0.00131301
4.79871e-05
-0.00123064
0.00010806
-0.00304195
0.000134485
-0.00422922
0.00011736
-0.00488138
6.6514e-05
-0.0051933
-4.6836e-06
-0.00533989
-8.61589e-05
-0.00542907
-0.000173807
-0.00551008
-0.000265528
-0.00559982
-0.000360938
-0.0057022
-0.000460003
-0.00581728
-0.000562767
-0.00594441
-0.000669312
-0.00608299
-0.000779759
-0.00623262
-0.000894228
-0.00639309
-0.00101282
-0.00656441
-0.00113555
-0.00674659
-0.00126235
-0.00693898
-0.00139303
-0.00713957
-0.00734671
-0.00152759
4.2072e-05
-0.00127272
8.78088e-05
-0.00308769
9.70881e-05
-0.0042385
6.39413e-05
-0.00484823
-2.46497e-07
-0.00512911
-8.24084e-05
-0.00525773
-0.000173917
-0.00533757
-0.00027072
-0.00541328
-0.000371427
-0.00549912
-0.000475768
-0.00559786
-0.000583778
-0.00570927
-0.000695552
-0.00583264
-0.000811198
-0.00596734
-0.000930857
-0.00611296
-0.00105468
-0.00626927
-0.00118281
-0.00643629
-0.00131531
-0.00661409
-0.00145213
-0.00680216
-0.00159299
-0.00699872
-0.00720196
-0.00173774
3.57899e-05
-0.00130851
6.72278e-05
-0.00311912
5.99176e-05
-0.00423119
1.18534e-05
-0.00480017
-6.53543e-05
-0.00505191
-0.000158244
-0.00516484
-0.000259249
-0.00523656
-0.000365019
-0.00530751
-0.000474539
-0.0053896
-0.000587665
-0.00548473
-0.000704483
-0.00559245
-0.000825119
-0.005712
-0.000949711
-0.00584275
-0.00107842
-0.00598425
-0.00121141
-0.00613627
-0.00134887
-0.00629883
-0.00149095
-0.00647201
-0.00163761
-0.00665549
-0.00178847
-0.00684786
-0.00704721
-0.00194322
2.92414e-05
-0.00133775
4.65281e-05
-0.00313641
2.34414e-05
-0.0042081
-3.97465e-05
-0.00473698
-0.000128767
-0.00496289
-0.000231859
-0.00506175
-0.000342064
-0.00512635
-0.000456611
-0.00519297
-0.000574778
-0.00527143
-0.000696532
-0.00536298
-0.000822001
-0.00546698
-0.000951341
-0.00558266
-0.00108471
-0.00570938
-0.00122228
-0.00584668
-0.00136426
-0.0059943
-0.00151085
-0.00615224
-0.00166227
-0.00632059
-0.00181857
-0.00649918
-0.00197926
-0.00668717
-0.00688272
-0.00214375
2.25539e-05
-0.0013603
2.59192e-05
-0.00313977
-1.25431e-05
-0.00416964
-8.97605e-05
-0.00465976
-0.000190303
-0.00486234
-0.000303171
-0.00494888
-0.000422296
-0.00500723
-0.000545421
-0.00506984
-0.00067206
-0.00514479
-0.000802271
-0.00523277
-0.000936221
-0.00533303
-0.00107409
-0.00544479
-0.00121606
-0.00556741
-0.00136232
-0.00570042
-0.00151307
-0.00584355
-0.00166856
-0.00599675
-0.00182909
-0.00616006
-0.00199482
-0.00633345
-0.00216511
-0.00651688
-0.00670897
-0.00233886
1.57119e-05
-0.00137601
6.28499e-06
-0.00313035
-4.88848e-05
-0.00411447
-0.000138525
-0.00457012
-0.000249859
-0.00475101
-0.000372108
-0.00482663
-0.000499884
-0.00487945
-0.000631381
-0.00493834
-0.000766304
-0.00500987
-0.000904788
-0.00509428
-0.00104704
-0.00519078
-0.00119325
-0.00529858
-0.00134363
-0.00541703
-0.00149838
-0.00554567
-0.0016577
-0.00568422
-0.00182186
-0.00583259
-0.00199124
-0.00599068
-0.00216613
-0.00615857
-0.0023457
-0.00633731
-0.00652642
-0.00252824
8.51224e-06
-0.00138453
-1.50326e-05
-0.0031068
-8.37549e-05
-0.00404575
-0.000185753
-0.00446813
-0.000307358
-0.0046294
-0.000438607
-0.00469538
-0.000574771
-0.00474329
-0.000714424
-0.00479869
-0.000857432
-0.00486686
-0.00100399
-0.00494772
-0.00115434
-0.00504043
-0.00130871
-0.00514421
-0.00146731
-0.00525843
-0.00163035
-0.00538263
-0.00179803
-0.00551654
-0.00197061
-0.00566001
-0.00214853
-0.00581276
-0.00233221
-0.00597488
-0.00252088
-0.00614864
-0.00633499
-0.00271232
5.74778e-07
-0.0013851
-3.61334e-05
-0.0030701
-0.00011766
-0.00396422
-0.000231302
-0.00435448
-0.000362719
-0.00449799
-0.000502617
-0.00455548
-0.000646906
-0.004599
-0.000794489
-0.00465111
-0.000945369
-0.00471598
-0.00109979
-0.0047933
-0.00125804
-0.00488219
-0.00142035
-0.00498189
-0.00158697
-0.0050918
-0.00175812
-0.00521148
-0.00193398
-0.00534068
-0.0021148
-0.0054792
-0.00230098
-0.00562658
-0.00249301
-0.00578286
-0.00269057
-0.00595108
-0.0061346
-0.00289096
-6.19298e-06
-0.00137891
-5.62182e-05
-0.00302007
-0.000150461
-0.00386998
-0.00027512
-0.00422983
-0.000415882
-0.00435722
-0.000564092
-0.00440727
-0.000716239
-0.00444685
-0.000871517
-0.00449583
-0.00103004
-0.00455746
-0.0011921
-0.00463124
-0.00135801
-0.00471628
-0.00152806
-0.00481185
-0.00170249
-0.00491737
-0.00188156
-0.00503242
-0.00206548
-0.00515676
-0.00225452
-0.00529016
-0.00244901
-0.00543209
-0.00264918
-0.00558269
-0.00285398
-0.00574628
-0.00592697
-0.00306161
-1.32388e-05
-0.00136567
-7.55865e-05
-0.00295772
-0.000182054
-0.00376351
-0.000317159
-0.00409472
-0.000466805
-0.00420758
-0.000622993
-0.00425109
-0.000782726
-0.00428712
-0.000945449
-0.0043331
-0.00111137
-0.00439153
-0.00128083
-0.00446177
-0.00145417
-0.00454294
-0.0016317
-0.00463432
-0.00181371
-0.00473536
-0.00200048
-0.00484565
-0.00219231
-0.00496493
-0.0023896
-0.00509286
-0.0025927
-0.00522899
-0.00280182
-0.00537357
-0.00301674
-0.00553135
-0.00572121
-0.0032225
-2.02349e-05
-0.00134543
-9.42947e-05
-0.00288366
-0.00021237
-0.00364544
-0.000357369
-0.00394972
-0.000515457
-0.00404949
-0.000679286
-0.00408726
-0.000846324
-0.00412008
-0.00101623
-0.0041632
-0.0011893
-0.00421847
-0.0013659
-0.00428517
-0.00154641
-0.00436244
-0.00173116
-0.00444957
-0.00192048
-0.00454604
-0.00211467
-0.00465145
-0.00231412
-0.00476548
-0.00251933
-0.00488766
-0.00273063
-0.00501768
-0.00294735
-0.00515686
-0.00316958
-0.00530912
-0.00546882
-0.00342196
-2.70775e-05
-0.00131836
-0.000112319
-0.00279842
-0.000241364