/*--------------------------------*- C++ -*----------------------------------*\
  =========                 |
  \\      /  F ield         | OpenFOAM: The Open Source CFD Toolbox
   \\    /   O peration     | Website:  https://openfoam.org
    \\  /    A nd           | Version:  7
     \\/     M anipulation  |
\*---------------------------------------------------------------------------*/
FoamFile
{
    version     2.0;
    format      ascii;
    class       volVectorField;
    location    "5.001";
    object      U;
}
// * * * * * * * * * * * * * * * * * * * * * * * * * * * * * * * * * * * * * //

dimensions      [0 1 -1 0 0 0 0];

internalField   nonuniform List<vector> 
45600
(
(-0.0058767 0.00475326 5.63183e-21)
(-0.0288809 0.00981319 -2.05527e-20)
(-0.0672244 0.0124574 -1.70626e-21)
(-0.109503 0.0137759 -3.21286e-21)
(-0.153188 0.0143683 -1.8998e-20)
(-0.196892 0.0145898 -1.85661e-20)
(-0.239876 0.0146152 -3.5589e-21)
(-0.281783 0.0145044 7.75377e-21)
(-0.322325 0.014257 3.3404e-21)
(-0.361168 0.0138482 5.04054e-21)
(-0.397912 0.0132479 1.33409e-20)
(-0.432091 0.0124282 1.90832e-20)
(-0.463186 0.011366 -1.65517e-21)
(-0.490643 0.0100449 -9.51464e-21)
(-0.513896 0.00845644 3.61651e-20)
(-0.532399 0.00660492 3.31939e-21)
(-0.545609 0.00450543 -1.52267e-20)
(-0.552953 0.00216566 -1.56365e-20)
(-0.554119 -0.00037486 1.56187e-21)
(-0.549451 -0.00292942 4.1486e-21)
(-0.00631886 0.0140326 -4.36472e-20)
(-0.0291824 0.0290628 -3.89783e-20)
(-0.0666034 0.0369804 1.53728e-20)
(-0.107736 0.0409596 -1.65198e-20)
(-0.150141 0.042762 -1.34147e-20)
(-0.192444 0.04344 -3.90072e-20)
(-0.233878 0.043518 2.2893e-20)
(-0.274056 0.0431795 -1.96398e-20)
(-0.312657 0.0424281 6.43597e-21)
(-0.349325 0.0411927 -3.55103e-20)
(-0.383638 0.0393848 -2.83928e-20)
(-0.415114 0.0369213 -1.33762e-20)
(-0.443221 0.0337336 -5.26311e-20)
(-0.467392 0.0297719 4.27086e-20)
(-0.487045 0.0250103 -4.05687e-20)
(-0.501621 0.0194597 -4.21251e-20)
(-0.510585 0.0131714 -5.17496e-21)
(-0.513345 0.00619276 4.0304e-20)
(-0.509432 -0.00137001 -8.88893e-21)
(-0.499415 -0.00898566 -4.77642e-20)
(-0.00716116 0.0226477 5.72044e-20)
(-0.0297574 0.047203 -1.51235e-20)
(-0.0653925 0.0603432 -6.90275e-20)
(-0.104291 0.0670485 3.21737e-20)
(-0.144198 0.0701339 3.21038e-20)
(-0.183759 0.0713094 1.50763e-20)
(-0.222171 0.0714463 -2.15552e-20)
(-0.258983 0.0708644 7.7235e-21)
(-0.293821 0.0695843 7.27661e-20)
(-0.326287 0.067499 7.2195e-20)
(-0.355929 0.0644676 5.82226e-21)
(-0.382244 0.0603558 -4.13243e-21)
(-0.40469 0.0550516 1.12528e-20)
(-0.422696 0.0484726 -2.68549e-20)
(-0.435682 0.0405731 -1.23231e-20)
(-0.44309 0.0313625 -5.06531e-20)
(-0.444419 0.0209293 7.63697e-20)
(-0.439103 0.00941528 -4.79629e-20)
(-0.426358 -0.00300935 2.28031e-20)
(-0.406697 -0.0156546 8.39183e-20)
(-0.00832425 0.0302126 2.94569e-20)
(-0.0305523 0.0635637 1.75627e-20)
(-0.063652 0.0818218 1.21307e-19)
(-0.0993469 0.0913442 2.93839e-20)
(-0.135648 0.0958255 7.05789e-20)
(-0.171251 0.0975663 2.55832e-20)
(-0.20531 0.0977771 -7.22105e-20)
(-0.237296 0.0969314 -4.62817e-20)
(-0.266769 0.0950892 -1.52448e-21)
(-0.293281 0.0921247 -6.52041e-20)
(-0.316356 0.087857 1.4327e-20)
(-0.335482 0.08211 -3.11479e-21)
(-0.350129 0.0747352 5.60533e-20)
(-0.359761 0.0656225 -1.68431e-20)
(-0.363848 0.0547066 1.65912e-19)
(-0.361893 0.0419819 1.4774e-19)
(-0.353472 0.0275455 7.49498e-20)
(-0.33818 0.0116575 -2.19176e-20)
(-0.315025 -0.00534512 -5.67185e-20)
(-0.282918 -0.0231793 -4.65027e-20)
(-0.00970042 0.0364205 -7.28485e-20)
(-0.0314929 0.0775747 7.02295e-20)
(-0.0614673 0.100766 6.16376e-20)
(-0.0931534 0.113196 1.22473e-20)
(-0.124906 0.119212 -1.3517e-19)
(-0.155508 0.12161 -4.07131e-20)
(-0.184082 0.121922 -1.00068e-20)
(-0.210023 0.120796 3.79517e-20)
(-0.232823 0.118358 3.7082e-20)
(-0.251995 0.114488 -4.92022e-20)
(-0.26705 0.108984 -1.32955e-19)
(-0.277495 0.101645 2.16939e-19)
(-0.282848 0.0922986 -9.37418e-20)
(-0.282655 0.0808195 -2.45038e-20)
(-0.276502 0.0671319 -1.22178e-19)
(-0.264022 0.0512151 -8.13743e-20)
(-0.244915 0.0331367 -2.27599e-19)
(-0.219001 0.0131609 4.61817e-20)
(-0.186112 -0.00799101 -2.13759e-20)
(-0.140164 -0.0313535 -1.33208e-19)
(-0.0111656 0.0410654 8.38046e-20)
(-0.0324913 0.0887988 -2.88108e-20)
(-0.0589438 0.116628 -1.90206e-19)
(-0.086023 0.13202 -1.0437e-19)
(-0.11249 0.139713 9.95694e-20)
(-0.13726 0.142878 6.82011e-20)
(-0.159456 0.143336 -6.41678e-20)
(-0.178416 0.141923 -6.27866e-20)
(-0.193578 0.138862 -3.88154e-20)
(-0.204434 0.134071 1.58057e-19)
(-0.210509 0.127351 -1.4035e-20)
(-0.211361 0.118493 -1.12428e-19)
(-0.206595 0.107321 9.40651e-20)
(-0.195882 0.0937122 1.56137e-19)
(-0.178969 0.077594 -4.56747e-20)
(-0.155675 0.0589493 1.95067e-19)
(-0.125888 0.0378258 7.67881e-20)
(-0.0892363 0.0141802 -3.70585e-20)
(-0.0487147 -0.0110115 1.04736e-19)
(0.0107925 -0.038081 7.06826e-20)
(-0.0125933 0.0440541 -1.548e-19)
(-0.0334554 0.0969569 1.06728e-19)
(-0.0562002 0.128987 1.83845e-20)
(-0.0783098 0.147323 4.54562e-20)
(-0.0989906 0.156809 4.28976e-20)
(-0.117341 0.160854 -7.28067e-20)
(-0.132531 0.161518 1.24435e-19)
(-0.143877 0.159827 3.34945e-21)
(-0.150796 0.156135 -3.69531e-20)
(-0.152787 0.150423 -2.36863e-20)
(-0.149418 0.142524 4.23281e-20)
(-0.140333 0.132246 1.02374e-19)
(-0.125264 0.119428 4.42715e-20)
(-0.104042 0.103962 -1.09974e-19)
(-0.0765949 0.0857949 4.9912e-20)
(-0.0429104 0.0649265 -1.38169e-19)
(-0.00332848 0.0414153 -1.19551e-19)
(0.0435491 0.0149222 4.02479e-20)
(0.0907222 -0.0138788 7.86749e-20)
(0.162036 -0.0432513 -1.18691e-19)
(-0.0138687 0.0454069 -4.03079e-20)
(-0.0342981 0.101941 3.76989e-21)
(-0.0533628 0.137578 -3.13409e-20)
(-0.0703883 0.158719 -7.4916e-21)
(-0.0850391 0.170056 9.87594e-20)
(-0.096643 0.175075 1.34027e-19)
(-0.104477 0.176012 1.00419e-19)
(-0.107886 0.174074 1.87885e-19)
(-0.10631 0.169759 4.96171e-20)
(-0.0992887 0.163147 -8.21003e-20)
(-0.086472 0.154129 7.28532e-20)
(-0.0676219 0.142552 -1.45619e-19)
(-0.0426205 0.128283 -2.31364e-19)
(-0.0114759 0.111238 2.3747e-19)
(0.025687 0.0913993 -1.24663e-19)
(0.0688364 0.0687668 1.99158e-19)
(0.116893 0.0434224 1.60416e-19)
(0.173492 0.0150981 1.81263e-19)
(0.225249 -0.0162151 -3.64408e-19)
(0.309842 -0.0483789 -4.89538e-21)
(-0.0149012 0.0452461 1.75282e-19)
(-0.0349456 0.103816 -4.94712e-20)
(-0.0505585 0.142312 -2.04999e-19)
(-0.062631 0.165964 2.15523e-20)
(-0.0712701 0.179104 -1.59768e-21)
(-0.076071 0.185146 6.47026e-20)
(-0.0764768 0.186414 -8.96378e-20)
(-0.0719236 0.18427 -9.77468e-20)
(-0.0619224 0.179364 -2.51024e-20)
(-0.0461019 0.171892 9.46612e-20)
(-0.0242225 0.161835 -2.33138e-19)
(0.00381236 0.149094 1.18114e-19)
(0.0379608 0.133575 1.46537e-19)
(0.0780686 0.115226 2.67134e-19)
(0.123817 0.094052 7.15603e-20)
(0.175411 0.0700762 9.54783e-20)
(0.230525 0.0432386 2.20169e-21)
(0.296811 0.0138138 -7.35861e-20)
(0.351653 -0.0193659 3.75007e-19)
(0.450773 -0.0538381 -1.04878e-19)
(-0.0156365 0.0437867 1.0121e-19)
(-0.0353509 0.102829 6.96723e-20)
(-0.0478995 0.143269 5.79399e-20)
(-0.0553833 0.168966 7.13813e-20)
(-0.0582782 0.183728 -1.03905e-19)
(-0.0564803 0.190758 4.5027e-20)
(-0.0496524 0.192381 2.32335e-19)
(-0.0373844 0.190072 -3.17178e-19)
(-0.0193124 0.184618 -1.01539e-19)
(0.00481017 0.17635 -2.31438e-19)
(0.0350873 0.165348 3.29371e-19)
(0.071475 0.151586 -3.18479e-19)
(0.113798 0.13502 3.98149e-20)
(0.161835 0.11563 -4.01536e-20)
(0.21512 0.0934067 -5.0052e-19)
(0.27448 0.0685282 -1.54654e-19)
(0.335953 0.0403332 -2.40281e-19)
(0.412343 0.0104608 1.3132e-20)
(0.470422 -0.0244055 -1.90201e-19)
(0.585258 -0.0601911 2.77855e-19)
(-0.0160578 0.0413082 -1.60903e-19)
(-0.0355104 0.0993651 9.5479e-20)
(-0.0454944 0.140705 -1.81038e-19)
(-0.0489258 0.167812 1.32005e-19)
(-0.0465653 0.183856 -1.05001e-19)
(-0.0386086 0.191726 -6.91529e-20)
(-0.0249778 0.193665 -4.18498e-19)
(-0.00546887 0.191205 2.87915e-19)
(0.0201109 0.185253 2.32653e-19)
(0.0518585 0.176266 -2.91361e-20)
(0.0897462 0.164431 4.16225e-20)
(0.133629 0.149804 1.55338e-19)
(0.183275 0.132393 -2.51758e-19)
(0.238546 0.112225 -1.03931e-19)
(0.298946 0.089218 1.62419e-19)
(0.366176 0.0638674 3.41544e-19)
(0.434717 0.0344538 2.58002e-20)
(0.522101 0.00479526 -2.23436e-19)
(0.585282 -0.0316004 2.07585e-19)
(0.716252 -0.0671005 -2.036e-19)
(-0.0161907 0.0381199 1.55277e-19)
(-0.0354492 0.0939071 6.54383e-20)
(-0.0434325 0.135055 1.4275e-19)
(-0.0434595 0.162782 -1.60785e-19)
(-0.0364887 0.179603 -2.478e-19)
(-0.0229905 0.188031 -1.89555e-19)
(-0.00316127 0.190159 7.36687e-20)
(0.0229677 0.187522 1.55802e-19)
(0.0553977 0.18111 -3.01356e-19)
(0.0940826 0.171492 1.40587e-19)
(0.138908 0.158958 1.0593e-20)
(0.189723 0.143648 -1.63126e-19)
(0.246379 0.125629 -3.697e-19)
(0.308997 0.104992 3.00846e-19)
(0.377216 0.0814978 2.09925e-19)
(0.45349 0.0561061 -3.73352e-19)
(0.531317 0.0258947 3.27342e-19)
(0.630443 -0.0027748 -1.61778e-21)
(0.70151 -0.0402407 -3.90721e-19)
(0.8458 -0.0731617 -1.13667e-19)
(-0.0160997 0.0345389 -1.22303e-19)
(-0.035228 0.0870077 1.53636e-19)
(-0.0417692 0.126879 5.11708e-20)
(-0.0390716 0.154336 5.08436e-21)
(-0.0282014 0.171291 4.09265e-19)
(-0.00985979 0.17987 2.76455e-19)
(0.0154989 0.181968 -1.41109e-19)
(0.0476168 0.179076 -1.21045e-19)
(0.086327 0.17223 1.9939e-19)
(0.131497 0.162088 2.69397e-19)
(0.183028 0.149036 -1.71259e-19)
(0.240907 0.133302 5.65392e-19)
(0.305233 0.115005 2.10671e-19)
(0.376474 0.0942978 -4.13814e-19)
(0.454489 0.0707899 4.35915e-20)
(0.541815 0.0459063 9.15648e-20)
(0.63162 0.015803 -2.12239e-20)
(0.741773 -0.0110078 2.6866e-19)
(0.822479 -0.0484629 2.08976e-19)
(0.971918 -0.0764435 2.03172e-19)
(-0.015878 0.0308627 9.92445e-20)
(-0.0349315 0.0792367 -3.51731e-19)
(-0.0405133 0.116826 -4.60154e-19)
(-0.0357037 0.143091 1.04014e-19)
(-0.0215925 0.159458 -2.52001e-19)
(0.000952198 0.167688 -4.29267e-20)
(0.0312726 0.169469 2.10967e-19)
(0.0689426 0.166212 -3.4553e-20)
(0.113708 0.15897 2.76618e-19)
(0.165465 0.148468 -1.62023e-19)
(0.224272 0.135179 1.30307e-19)
(0.290388 0.119413 -5.25542e-19)
(0.364227 0.10133 -1.56899e-19)
(0.446455 0.081139 -1.66314e-19)
(0.536882 0.0584146 2.76193e-19)
(0.636992 0.0347691 -1.50487e-20)
(0.739834 0.00615653 -2.41165e-19)
(0.857543 -0.0180248 -2.03643e-19)
(0.946151 -0.0538116 -1.80906e-19)
(1.08812 -0.0754622 -8.48132e-20)
(-0.0156345 0.0273461 3.07306e-19)
(-0.034647 0.0711307 5.27036e-20)
(-0.0396075 0.105578 1.03835e-19)
(-0.0331238 0.129784 -3.85148e-20)
(-0.0162355 0.144835 3.41591e-20)
(0.0101054 0.152197 -1.59935e-19)
(0.0451351 0.153359 1.86357e-19)
(0.0883724 0.149646 -2.68134e-19)
(0.13961 0.142109 3.22338e-19)
(0.198911 0.131523 -5.9823e-21)
(0.266604 0.118439 -4.00042e-19)
(0.343213 0.103225 1.14e-19)
(0.429259 0.0860868 2.67486e-19)
(0.525059 0.0672489 1.959e-19)
(0.62964 0.0463734 -3.5318e-19)
(0.742231 0.0248213 -2.01131e-19)
(0.855465 -0.000804246 2.25052e-20)
(0.974245 -0.0219649 2.08374e-19)
(1.06448 -0.0544248 2.21101e-19)
(1.18618 -0.0699937 -2.71952e-19)
(-0.0154756 0.0241834 -4.08773e-19)
(-0.0344375 0.0631513 2.7309e-19)
(-0.0389031 0.0937983 -1.531e-19)
(-0.0309013 0.115212 3.88523e-20)
(-0.0113574 0.128307 2.70424e-19)
(0.0187973 0.134342 1.62984e-19)
(0.0588278 0.134652 -2.49835e-19)
(0.108348 0.130484 1.83652e-19)
(0.167341 0.122881 -5.11727e-19)
(0.236122 0.112661 2.66353e-20)
(0.315223 0.100421 2.88919e-19)
(0.405135 0.0865659 -4.74571e-20)
(0.505872 0.0713226 -2.85555e-19)
(0.616494 0.0548159 -1.27892e-19)
(0.734303 0.0368723 -8.04856e-21)
(0.855609 0.0181465 2.4663e-19)
(0.972452 -0.00344756 7.60059e-20)
(1.08399 -0.0218079 3.14339e-19)
(1.16699 -0.0499485 8.79326e-20)
(1.26027 -0.0611311 -1.13298e-19)
(-0.0154876 0.0214978 -1.57015e-19)
(-0.0343125 0.0556532 -4.35416e-19)
(-0.0381387 0.0820773 2.90096e-19)
(-0.0283994 0.100168 3.39362e-20)
(-0.00584573 0.110837 -2.27378e-20)
(0.0287298 0.115238 -4.40338e-20)
(0.0747715 0.114611 -6.69146e-20)
(0.132127 0.11015 1.21341e-19)
(0.201031 0.102896 -2.88732e-19)
(0.281948 0.0936831 -6.53768e-20)
(0.37525 0.0831186 -3.31727e-19)
(0.480706 0.071571 3.58211e-19)
(0.596904 0.0592044 2.02191e-19)
(0.720735 0.0458975 -1.71242e-19)
(0.847194 0.0316032 -2.45939e-20)
(0.970036 0.0159992 -1.89958e-20)
(1.08137 -0.00136068 -5.2377e-20)
(1.17778 -0.017788 -8.76657e-20)
(1.24594 -0.0414373 2.66169e-19)
(1.30949 -0.0506306 5.38101e-19)
(-0.0157186 0.0193365 7.30954e-20)
(-0.0342039 0.0488639 3.50135e-19)
(-0.0369308 0.070889 2.10331e-19)
(-0.0247943 0.0853739 9.74675e-20)
(0.00168439 0.0933766 -1.28378e-19)
(0.041965 0.0960538 -6.36689e-20)
(0.0957885 0.0946141 3.52271e-21)
(0.16328 0.0902294 -1.3209e-19)
(0.244796 0.0839284 -3.63354e-20)
(0.340549 0.0765194 2.58821e-19)
(0.450039 0.0685368 3.12621e-19)
(0.571395 0.0601882 -1.08157e-19)
(0.700905 0.0514299 -1.83032e-19)
(0.832902 0.0417811 3.70285e-19)
(0.960388 0.0311781 3.61835e-19)
(1.07601 0.0184241 2.08781e-19)
(1.17335 0.00466291 -1.91582e-19)
(1.24947 -0.0110477 4.24372e-20)
(1.29937 -0.0303896 -3.5876e-20)
(1.33736 -0.040149 -4.47851e-19)
(-0.0161657 0.0176737 4.92903e-19)
(-0.0339538 0.0428777 -1.41753e-19)
(-0.0347848 0.0605603 -1.99742e-19)
(-0.0191311 0.0714143 -2.00633e-19)
(0.0127591 0.0767713 -1.68725e-19)
(0.0606702 0.0778828 2.73661e-19)
(0.124658 0.0759838 1.24121e-19)
(0.204984 0.0722399 -3.07153e-19)
(0.301719 0.0676364 2.08761e-19)
(0.414115 0.0628697 -1.19649e-19)
(0.539892 0.0582619 -1.72626e-19)
(0.674722 0.0537007 7.36278e-20)
(0.812266 0.0487773 7.96411e-20)
(0.944822 0.0426384 -1.90142e-19)
(1.06469 0.0350655 -1.89027e-19)
(1.16542 0.0244867 -1.25612e-19)
(1.2434 0.0131487 -1.32209e-19)
(1.29795 -0.00278074 2.75341e-20)
(1.33023 -0.0178304 1.01766e-19)
(1.3492 -0.0309651 1.5928e-19)
(-0.0167693 0.0164207 -1.14662e-19)
(-0.033317 0.0376652 -2.56585e-19)
(-0.0311286 0.0512581 3.03756e-19)
(-0.010411 0.058697 -2.64412e-19)
(0.0288687 0.0616791 1.78398e-19)
(0.0868058 0.0616215 -2.41211e-19)
(0.163625 0.0598218 -2.64294e-19)
(0.259333 0.0574272 6.42848e-19)
(0.373033 0.0553054 3.25153e-20)
(0.50213 0.0539026 -1.56203e-19)
(0.641764 0.0531529 -2.98773e-19)
(0.784864 0.0524751 -8.05003e-20)
(0.923012 0.0510117 -3.90622e-19)
(1.04788 0.0476503 1.17143e-19)
(1.15287 0.0420297 5.2697e-20)
(1.23416 0.0328356 -4.75978e-20)
(1.29137 0.0226185 3.60504e-19)
(1.32652 0.00647881 -1.00057e-19)
(1.34389 -0.00443917 8.32847e-20)
(1.34966 -0.0243654 -2.19272e-19)
(-0.0174163 0.0154458 1.49071e-19)
(-0.0319778 0.0330956 7.23159e-21)
(-0.0253593 0.0429964 5.04121e-20)
(0.00231019 0.0474359 9.61423e-20)
(0.0512907 0.0485285 1.15077e-19)
(0.121845 0.0478986 1.77489e-19)
(0.214011 0.0469098 8.43102e-20)
(0.326905 0.0466363 -1.95488e-19)
(0.4578 0.047701 4.38503e-20)
(0.601442 0.0501191 -9.10989e-21)
(0.750066 0.0532665 1.93318e-19)
(0.894383 0.0560217 -8.08659e-20)
(1.02529 0.0571468 9.78373e-20)
(1.13563 0.0554843 -8.32309e-21)
(1.22147 0.0507285 -3.25374e-19)
(1.28234 0.0421952 2.44405e-20)
(1.32066 0.0321283 -2.32386e-19)
(1.34057 0.0167708 -3.00256e-20)
(1.34647 0.00809268 -5.9782e-20)
(1.34197 -0.0221085 9.97871e-20)
(-0.0179569 0.0146009 -1.11252e-19)
(-0.0295736 0.0289692 1.75539e-20)
(-0.0168908 0.0356671 4.1589e-19)
(0.0198404 0.0376731 -2.10587e-19)
(0.0809641 0.0375293 1.0747e-19)
(0.166607 0.0370745 -1.79199e-19)
(0.276052 0.0377005 -1.62993e-19)
(0.406699 0.0402981 -1.50522e-19)
(0.553144 0.0450638 -2.99208e-19)
(0.707037 0.0513903 3.34888e-19)
(0.858125 0.057997 2.8124e-19)
(0.996229 0.0632925 6.61183e-20)
(1.11335 0.0658814 2.45228e-19)
(1.20504 0.0648213 -1.72203e-19)
(1.27073 0.0601033 3.58276e-20)
(1.31291 0.0516578 2.92682e-19)
(1.33595 0.0414376 -5.38698e-20)
(1.34483 0.0275625 -1.06091e-19)
(1.34295 0.0171003 7.03041e-20)
(1.33629 -0.00274411 -4.19581e-19)
(-0.018224 0.0137398 -4.14792e-19)
(-0.0257258 0.0250578 -2.10243e-19)
(-0.00518783 0.0290917 -5.15463e-19)
(0.0428075 0.0293352 -4.01719e-20)
(0.118441 0.0287338 -1.6121e-19)
(0.221228 0.0293089 -5.08383e-20)
(0.348939 0.0323873 1.08023e-19)
(0.496372 0.0385001 5.25748e-19)
(0.654847 0.0471982 -5.36652e-19)
(0.813137 0.0571087 1.73278e-19)
(0.959702 0.0663374 -2.11358e-19)
(1.08524 0.07305 -1.6594e-19)
(1.18443 0.0759966 -2.33088e-19)
(1.25628 0.0746734 -5.83099e-20)
(1.3033 0.0694801 1.52526e-19)
(1.33002 0.0608168 -5.83692e-20)
(1.3417 0.0506527 -2.38869e-20)
(1.34289 0.0372773 -9.19747e-20)
(1.33702 0.0281898 2.18682e-19)
(1.32826 0.00887897 3.10757e-19)
(-0.0180428 0.0127351 3.10317e-20)
(-0.020065 0.0211528 4.00486e-19)
(0.0102159 0.0230844 4.13821e-19)
(0.071654 0.022312 1.58534e-19)
(0.163905 0.0221295 1.89354e-19)
(0.285228 0.0246605 -1.78089e-20)
(0.430995 0.0310007 7.00595e-20)
(0.592631 0.0410775 -1.87605e-19)
(0.758105 0.0535888 3.79536e-19)
(0.914293 0.0663794 4.39188e-20)
(1.0501 0.077155 1.58864e-19)
(1.15876 0.0841655 -6.81362e-20)
(1.23848 0.0865813 1.76301e-19)
(1.29156 0.084447 2.12816e-20)
(1.32277 0.0785388 -1.14399e-19)
(1.33765 0.0696376 1.4459e-19)
(1.34131 0.059404 5.27379e-21)
(1.33774 0.046982 -1.38142e-19)
(1.32949 0.0377289 -2.31855e-19)
(1.31987 0.0207123 -6.90524e-20)
(-0.0172415 0.0114963 -7.94467e-20)
(-0.0122427 0.0171053 -2.34621e-19)
(0.0297162 0.0175117 -9.15318e-20)
(0.106656 0.0165361 2.83647e-19)
(0.217219 0.017731 -1.86354e-19)
(0.357604 0.0231744 2.52593e-19)
(0.519881 0.0334758 1.31493e-19)
(0.691676 0.0476776 -1.26223e-19)
(0.85825 0.0635114 3.50028e-19)
(1.0062 0.0782051 -3.62335e-19)
(1.12663 0.0894102 -2.13516e-19)
(1.21639 0.0957826 1.67348e-19)
(1.27723 0.0970783 -2.69837e-20)
(1.31401 0.0938702 3.69306e-19)
(1.33273 0.0872238 -2.51658e-19)
(1.33899 0.0780906 6.26982e-20)
(1.33734 0.0679489 -7.92978e-20)
(1.33086 0.0561204 -2.41678e-20)
(1.32143 0.0472006 3.18744e-19)
(1.31156 0.0315219 8.58557e-20)
(-0.0156612 0.00998003 2.45661e-19)
(-0.00193556 0.0128513 2.95494e-19)
(0.0536442 0.0123392 -1.79299e-19)
(0.147944 0.0120444 -2.28005e-19)
(0.277958 0.0156404 -1.33563e-19)
(0.436904 0.0249199 -1.93989e-19)
(0.612799 0.0396665 -2.4993e-19)
(0.789641 0.0577955 9.72616e-20)
(0.951351 0.076138 -4.28581e-19)
(1.0861 0.0916423 2.31314e-19)
(1.18855 0.102285 -1.20078e-19)
(1.25937 0.107353 -1.43082e-19)
(1.30332 0.107222 2.11078e-20)
(1.32681 0.102891 1.45773e-19)
(1.33614 0.0955799 1.15913e-19)
(1.33644 0.0863044 1.82508e-19)
(1.33137 0.0762501 -1.14287e-19)
(1.32323 0.0650488 6.12853e-20)
(1.3133 0.0562049 -9.35999e-20)
(1.30332 0.0417045 4.01853e-21)
(-0.0131587 0.00818905 -2.05041e-19)
(0.0111511 0.00842311 2.25098e-19)
(0.0822669 0.00765735 1.31812e-19)
(0.195498 0.00900669 -9.62645e-20)
(0.345406 0.016058 1.81215e-19)
(0.52128 0.0299689 -1.38802e-19)
(0.70672 0.0493229 2.76959e-19)
(0.883017 0.0708109 2.0234e-19)
(1.0346 0.0906411 -1.9106e-19)
(1.15284 0.105908 3.29462e-19)
(1.23653 0.115221 -1.41377e-19)
(1.28983 0.118594 9.83123e-20)
(1.31953 0.11695 2.07169e-19)
(1.33269 0.11157 -1.35771e-19)
(1.33527 0.103717 -1.03377e-20)
(1.33158 0.0943574 -2.94995e-19)
(1.32441 0.0844378 2.4358e-19)
(1.31536 0.073729 2.97704e-20)
(1.30524 0.064974 1.78651e-19)
(1.29531 0.0515042 -1.3189e-19)
(-0.00960462 0.00616607 1.33075e-19)
(0.0272785 0.00394732 -2.36111e-19)
(0.115774 0.00368312 -1.52649e-20)
(0.249122 0.00771705 -4.80904e-20)
(0.418532 0.0192439 -2.40964e-19)
(0.608559 0.0383369 3.17312e-19)
(0.798651 0.0620722 -7.3551e-20)
(0.968992 0.0860475 -2.3781e-19)
(1.10641 0.106285 -4.84631e-20)
(1.20652 0.120428 5.682e-20)
(1.27216 0.127899 3.51854e-19)
(1.31016 0.129414 1.17815e-19)
(1.3284 0.126312 -1.06936e-19)
(1.33384 0.120017 -1.18859e-19)
(1.33171 0.111739 6.18214e-20)
(1.32543 0.102343 2.56069e-19)
(1.317 0.0925463 -1.33986e-19)
(1.30749 0.0822565 -1.51084e-19)
(1.29736 0.0735298 -8.39782e-20)
(1.2875 0.0609099 2.67556e-21)
(-0.00488109 0.00398576 9.9174e-21)
(0.0466667 -0.000366775 2.0142e-20)
(0.15425 0.000741088 -1.86946e-19)
(0.308397 0.00855337 9.8958e-20)
(0.495981 0.025448 2.29646e-19)
(0.696381 0.0499257 -2.82318e-19)
(0.885916 0.077436 5.18476e-20)
(1.04565 0.102848 1.97821e-19)
(1.16634 0.122485 -2.84542e-20)
(1.24817 0.134834 7.3634e-20)
(1.29741 0.140183 -3.41812e-19)
(1.32263 0.13984 -1.43801e-19)
(1.33199 0.135412 -3.93962e-20)
(1.33185 0.128346 -3.2217e-20)
(1.32653 0.119735 -6.751e-20)
(1.3186 0.110316 -1.96601e-19)
(1.30943 0.100623 1.55453e-19)
(1.29969 0.0906526 -6.66609e-20)
(1.28963 0.0819108 1.6748e-19)
(1.27984 0.0700234 4.55429e-20)
(0.00111964 0.001747 9.219e-20)
(0.0694811 -0.00424496 -1.22082e-19)
(0.197643 -0.000769608 1.69442e-19)
(0.372642 0.0119175 -7.59761e-20)
(0.576106 0.0348374 5.9927e-20)
(0.782394 0.0645017 1.40617e-19)
(0.96639 0.0948812 -3.65584e-20)
(1.112 0.120636 -1.88098e-19)
(1.21481 0.138824 1.14352e-19)
(1.27929 0.148934 1.09252e-19)
(1.31429 0.152061 1.68941e-19)
(1.32922 0.14996 3.83802e-20)
(1.3319 0.144365 2.90412e-19)
(1.32782 0.136651 7.99817e-20)
(1.32037 0.127766 2.1125e-20)
(1.3114 0.118313 7.7737e-20)
(1.30181 0.108682 1.30265e-19)
(1.29198 0.09894 -3.51076e-20)
(1.28201 0.0901386 -1.26097e-19)
(1.27231 0.0788568 2.39076e-20)
(0.00849321 -0.000432799 -1.24564e-19)
(0.0958159 -0.00736689 -1.94074e-19)
(0.245729 -0.000414655 -9.5432e-20)
(0.440902 0.0181712 -2.35957e-21)
(0.657071 0.047447 8.82633e-21)
(0.864466 0.0817168 -2.83365e-19)
(1.03862 0.113883 1.64581e-19)
(1.16785 0.138955 -7.95334e-20)
(1.25279 0.15504 -1.28677e-19)
(1.30155 0.16266 1.66996e-21)
(1.32461 0.163593 -1.51657e-19)
(1.3315 0.159885 -1.61059e-19)
(1.32928 0.153273 -2.48811e-19)
(1.32247 0.145003 3.06449e-20)
(1.31363 0.135869 7.55382e-20)
(1.30401 0.126349 -1.10909e-19)
(1.29417 0.116732 1.17056e-20)
(1.28432 0.107125 1.58574e-19)
(1.27446 0.0982208 -9.47553e-20)
(1.26485 0.0874395 8.73071e-20)
(0.0173182 -0.0024216 6.22926e-20)
(0.125677 -0.0093844 6.14094e-20)
(0.298088 0.00223542 -2.79582e-19)
(0.511971 0.0275832 1.09891e-19)
(0.736999 0.0631684 -2.4866e-19)
(0.940861 0.101156 1.93126e-19)
(1.10183 0.133973 -2.23407e-20)
(1.21359 0.157477 1.50222e-19)
(1.28155 0.170996 2.38091e-19)
(1.31656 0.176028 -1.95742e-20)
(1.32992 0.174874 1.63391e-19)
(1.33067 0.169717 1.86351e-19)
(1.32492 0.162213 -6.52726e-20)
(1.31625 0.153445 -1.26705e-19)
(1.3065 0.144058 -1.08283e-19)
(1.29648 0.134426 1.31405e-19)
(1.28651 0.124765 -1.08815e-19)
(1.27668 0.115206 -4.8771e-20)
(1.26693 0.106161 2.21738e-20)
(1.25741 0.0957795 -1.9063e-20)
(0.0276498 -0.0040758 1.47052e-19)
(0.158963 -0.00993838 1.62913e-19)
(0.354099 0.00756862 -5.56893e-20)
(0.584463 0.0402961 3.19106e-19)
(0.814134 0.0817709 7.5295e-20)
(1.01032 0.122392 -2.89351e-19)
(1.15582 0.154765 2.3024e-19)
(1.25001 0.175983 -4.20672e-20)
(1.30244 0.186647 -2.83779e-20)
(1.32579 0.189101 -9.13629e-20)
(1.33144 0.186001 2.03851e-20)
(1.3276 0.179544 3.17565e-20)
(1.31936 0.171238 -1.21309e-19)
(1.30943 0.161996 6.05384e-22)
(1.29908 0.152332 -4.36415e-20)
(1.28882 0.142534 -6.34627e-20)
(1.27879 0.132771 6.02262e-20)
(1.26901 0.123176 -7.2903e-20)
(1.25937 0.113955 -8.59795e-20)
(1.24995 0.103882 5.87865e-20)
(0.0395126 -0.00524271 -3.07204e-19)
(0.195459 -0.00867471 9.71268e-20)
(0.412953 0.015901 9.80142e-22)
(0.656909 0.0563183 -1.93357e-19)
(0.886966 0.102941 2.65265e-20)
(1.07209 0.145019 -5.54848e-20)
(1.20083 0.175963 -6.74075e-20)
(1.27811 0.194346 -1.10909e-19)
(1.31676 0.202004 -5.38291e-21)
(1.33045 0.20196 -4.89177e-20)
(1.3301 0.197065 -1.23624e-19)
(1.3229 0.189427 -5.83209e-20)
(1.31292 0.180374 1.43236e-19)
(1.30214 0.170657 8.50045e-20)
(1.29141 0.160677 3.81803e-20)
(1.281 0.150656 9.16723e-20)
(1.27097 0.14073 -1.43758e-19)
(1.26125 0.131023 5.31469e-20)
(1.25174 0.121595 3.75587e-20)
(1.24243 0.111743 -8.06026e-21)
(0.052894 -0.00576364 2.21704e-19)
(0.234826 -0.00526025 -1.96353e-19)
(0.473688 0.0274546 -8.42962e-20)
(0.727866 0.0755361 2.085e-19)
(0.954308 0.126325 1.98583e-20)
(1.12583 0.16868 5.32447e-21)
(1.23738 0.197348 9.66694e-20)
(1.29893 0.212506 -1.46682e-19)
(1.32566 0.217111 2.48612e-20)
(1.33153 0.214686 1.05946e-19)
(1.3266 0.208133 -3.75784e-20)
(1.31697 0.199402 -1.05557e-19)
(1.30578 0.189628 -5.48429e-21)
(1.29444 0.179414 -5.16602e-20)
(1.28347 0.169071 -4.45195e-20)
(1.273 0.158768 -1.29679e-19)
(1.263 0.148622 8.28632e-20)
(1.25337 0.138733 -2.65587e-21)
(1.24399 0.129073 2.59587e-21)
(1.23481 0.119359 -4.02121e-20)
(0.0677384 -0.00547801 -2.03163e-19)
(0.276607 0.000600897 1.86967e-19)
(0.535239 0.042345 -2.94348e-20)
(0.796009 0.0977381 -1.89526e-20)
(1.01532 0.151558 2.6984e-20)
(1.17153 0.193072 -3.91152e-20)
(1.26618 0.218767 -9.63063e-22)
(1.31348 0.230444 1.44164e-19)
(1.33013 0.232023 -9.72383e-21)
(1.32978 0.227346 1.14739e-20)
(1.32142 0.21925 3.52443e-21)
(1.31005 0.209483 1.57402e-20)
(1.29805 0.198989 -4.58901e-20)
(1.28635 0.188244 1.0271e-19)
(1.27525 0.177485 1.65355e-20)
(1.26476 0.166845 6.45716e-20)
(1.25483 0.156423 -2.40171e-20)
(1.24532 0.146289 1.17743e-20)
(1.23609 0.136373 -3.62943e-20)
(1.22705 0.126717 3.53851e-20)
(0.0839442 -0.00422865 8.84755e-20)
(0.320234 0.00915166 -7.94964e-20)
(0.5965 0.0605788 -2.97484e-20)
(0.860199 0.122643 -3.06564e-20)
(1.06948 0.178284 4.40208e-20)
(1.20946 0.217942 1.18086e-20)
(1.288 0.240114 6.76854e-20)
(1.32268 0.248166 -1.48614e-19)
(1.33097 0.24679 8.01131e-20)
(1.32576 0.239987 5.90282e-20)
(1.31488 0.230437 -4.0462e-20)
(1.30231 0.219662 8.39391e-20)
(1.28977 0.208432 8.30661e-22)
(1.27786 0.197113 2.16818e-20)
(1.2667 0.185887 3.16284e-20)
(1.25626 0.174856 -3.87569e-20)
(1.24643 0.164106 2.9557e-20)
(1.23706 0.153673 1.24937e-20)
(1.22801 0.143482 1.26409e-21)
(1.21912 0.133807 -1.42714e-20)
(0.101363 -0.00186799 -4.94502e-20)
(0.365054 0.0205681 1.30209e-20)
(0.65638 0.0820603 8.99679e-20)
(0.919513 0.149923 -1.92671e-20)
(1.11653 0.206172 2.30432e-20)
(1.24003 0.24308 -1.49756e-20)
(1.3036 0.261317 1.7739e-20)
(1.32734 0.265683 -1.3928e-20)
(1.32882 0.261453 -8.64003e-20)
(1.3199 0.252635 2.33992e-21)
(1.30719 0.241691 2.64392e-21)
(1.29381 0.229917 -5.62686e-20)
(1.28095 0.217922 1.92074e-20)
(1.26894 0.205984 -5.30013e-21)
(1.2578 0.19424 -3.62181e-20)
(1.24745 0.182771 3.15377e-20)
(1.23776 0.171644 -4.35542e-20)
(1.22857 0.160865 -1.4621e-20)
(1.21971 0.150384 1.00916e-20)
(1.211 0.140615 -2.57242e-21)
(0.1198 0.00173534 5.51353e-20)
(0.410346 0.0349492 1.74218e-20)
(0.713856 0.106604 -2.57947e-20)
(0.973254 0.179227 -1.07572e-20)
(1.15644 0.234913 -4.46698e-20)
(1.26374 0.268314 -3.68475e-21)
(1.3137 0.282322 -1.05544e-20)
(1.32814 0.283008 1.5686e-21)
(1.32418 0.276032 -7.5122e-21)
(1.31247 0.265293 -1.63329e-20)
(1.29849 0.252994 -7.47561e-21)
(1.2846 0.24021 1.76316e-20)
(1.27157 0.227415 2.12088e-21)
(1.25956 0.214814 -1.57122e-20)
(1.24851 0.202506 6.08202e-21)
(1.23831 0.190553 4.36012e-21)
(1.2288 0.179009 1.96674e-20)
(1.21981 0.167847 -6.08364e-21)
(1.21117 0.15706 -5.99584e-21)
(1.20266 0.147126 -1.1906e-21)
(0.139021 0.00668984 -1.21089e-20)
(0.455357 0.0523103 2.9211e-20)
(0.768013 0.133948 9.99328e-21)
(1.02094 0.21019 -4.57182e-21)
(1.18935 0.264223 -1.1238e-20)
(1.28111 0.293492 1.42977e-20)
(1.31896 0.303084 1.15364e-20)
(1.32562 0.30014 -1.96814e-20)
(1.3174 0.290526 5.12173e-21)
(1.30366 0.27794 -2.24751e-21)
(1.28885 0.264306 9.03384e-22)
(1.27468 0.250495 -6.86305e-21)
(1.26162 0.236863 -7.99219e-21)
(1.24969 0.223556 1.80032e-21)
(1.23879 0.210642 7.15618e-22)
(1.22879 0.198168 -9.3353e-21)
(1.21951 0.186169 6.17796e-22)
(1.21077 0.174596 5.83111e-21)
(1.20239 0.163488 5.65221e-21)
(1.19412 0.153324 6.06128e-23)
(0.158755 0.0130752 -1.33491e-21)
(0.499326 0.0725824 2.63784e-20)
(0.818069 0.163773 2.77505e-21)
(1.06227 0.242444 4.67795e-21)
(1.21548 0.293838 -1.94971e-20)
(1.2927 0.318481 3.36256e-20)
(1.31994 0.323555 -1.02863e-20)
(1.32022 0.317063 -5.97287e-21)
(1.30875 0.304915 -2.80891e-21)
(1.2936 0.290539 -7.23656e-21)
(1.27831 0.275576 1.16732e-20)
(1.26405 0.260714 -1.31743e-20)
(1.25107 0.24621 -8.29882e-21)
(1.23931 0.232159 3.67039e-22)
(1.22862 0.218606 2.59731e-21)
(1.21887 0.205578 -1.09972e-21)
(1.20987 0.193093 -4.77327e-21)
(1.20142 0.181084 4.75457e-21)
(1.19334 0.169637 6.53776e-21)
(1.18537 0.159194 4.85626e-21)
(0.178703 0.0209372 9.08479e-20)
(0.541517 0.0956153 2.36964e-20)
(0.863384 0.195714 -5.06651e-20)
(1.0971 0.275624 2.31526e-20)
(1.23515 0.323513 -6.96691e-20)
(1.299 0.343156 -2.69027e-21)
(1.31712 0.343683 -2.34119e-20)
(1.31229 0.333744 2.87034e-20)
(1.29842 0.319158 3.44394e-21)
(1.28238 0.303035 -2.21931e-20)
(1.26687 0.286742 -2.17157e-20)
(1.25268 0.270806 7.66508e-21)
(1.2399 0.255399 7.2347e-21)
(1.22838 0.240573 -9.87185e-21)
(1.21798 0.226352 2.38164e-21)
(1.20854 0.212745 3.902e-21)
(1.19986 0.19975 1.94574e-20)
(1.19175 0.187278 -4.18097e-21)
(1.18402 0.175466 -1.10462e-20)
(1.17639 0.164718 6.34501e-21)
(0.198549 0.0302847 -6.61603e-20)
(0.581242 0.121184 -5.96316e-21)
(0.903463 0.229374 1.34594e-19)
(1.12542 0.309371 -6.84789e-20)
(1.24871 0.353013 7.58767e-20)
(1.30049 0.367395 -1.81583e-20)
(1.31093 0.363403 -5.01397e-21)
(1.3021 0.350134 -6.62199e-21)
(1.28656 0.333195 -5.30685e-20)
(1.27003 0.315359 -1.67036e-20)
(1.25454 0.297733 2.04707e-20)
(1.24058 0.280702 -3.86251e-20)
(1.22808 0.264367 -2.18992e-20)
(1.2169 0.248744 1.16121e-20)
(1.20685 0.233834 -1.92751e-20)
(1.19777 0.219631 5.84829e-21)
(1.18946 0.20611 -3.00685e-20)
(1.18174 0.193155 1.25281e-20)
(1.17437 0.180952 -5.67854e-21)
(1.16708 0.169878 1.07249e-20)
(0.217967 0.0410871 5.39147e-20)
(0.61788 0.148998 1.70654e-21)
(0.937946 0.264335 -7.92512e-20)
(1.14731 0.343332 -3.91141e-20)
(1.25653 0.382116 6.44991e-20)
(1.29761 0.391075 -2.68411e-20)
(1.30169 0.382641 1.92548e-20)
(1.28985 0.366162 -2.52814e-21)
(1.27325 0.346952 2.00444e-21)
(1.25658 0.327433 1.4031e-20)
(1.24132 0.30847 -6.02062e-21)
(1.22772 0.290329 5.96521e-20)
(1.21561 0.273051 9.72889e-21)
(1.20484 0.256615 -1.86586e-20)
(1.19521 0.241006 1.59658e-20)
(1.18655 0.226198 1.41902e-20)
(1.17868 0.212141 1.27454e-20)
(1.1714 0.198705 4.91633e-21)
(1.16441 0.186128 1.22608e-20)
(1.15736 0.17469 -9.61479e-21)
(0.236633 0.0532752 -1.53039e-19)
(0.650893 0.178713 1.35946e-19)
(0.9666 0.300167 1.69592e-20)
(1.16293 0.377167 -1.36068e-20)
(1.25897 0.410605 8.36068e-20)
(1.29072 0.414067 -7.9982e-20)
(1.28969 0.401305 -3.86418e-20)
(1.2757 0.381746 1.30243e-19)
(1.25857 0.36034 1.02389e-20)