/*--------------------------------*- C++ -*----------------------------------*\
  =========                 |
  \\      /  F ield         | OpenFOAM: The Open Source CFD Toolbox
   \\    /   O peration     | Website:  https://openfoam.org
    \\  /    A nd           | Version:  7
     \\/     M anipulation  |
\*---------------------------------------------------------------------------*/
FoamFile
{
    version     2.0;
    format      ascii;
    class       surfaceScalarField;
    location    "90";
    object      phi;
}
// * * * * * * * * * * * * * * * * * * * * * * * * * * * * * * * * * * * * * //

dimensions      [0 3 -1 0 0 0 0];

internalField   nonuniform List<scalar> 
11803
(
-4.17576e-05
2.66561e-05
-0.000131083
5.77698e-05
-0.000244625
7.44278e-05
-0.000368426
8.22599e-05
-0.000495663
8.56828e-05
-0.000623755
8.74229e-05
-0.0007521
8.88106e-05
-0.000880798
9.03378e-05
-0.00101011
9.21253e-05
-0.00114033
9.41768e-05
-0.00127171
9.64728e-05
-0.00140449
9.8993e-05
-0.0015389
0.00010172
-0.00167515
0.000104639
-0.00181344
0.000107736
-0.00195395
0.000111001
-0.00209688
0.000114423
-0.0022424
0.000117993
-0.00239067
0.000121704
-0.00254186
0.000125547
-0.00269612
0.000129518
-0.00285363
0.00013361
-0.00301452
0.000137814
-0.00317892
0.000142116
0.000146528
-0.00334697
-4.16621e-05
6.83182e-05
-0.000130828
0.000146936
-0.000244206
0.000187806
-0.000367859
0.000205913
-0.000494963
0.000212787
-0.000622931
0.000215391
-0.000751158
0.000217037
-0.000879738
0.000218919
-0.00100894
0.000221328
-0.00113904
0.00022428
-0.00127031
0.000227737
-0.00140298
0.000231661
-0.00153727
0.000236017
-0.00167341
0.000240777
-0.00181159
0.000245915
-0.001952
0.000251409
-0.00209482
0.000257243
-0.00224022
0.000263398
-0.00238838
0.000269863
-0.00253946
0.000276623
-0.00269361
0.000283672
-0.002851
0.000291001
-0.00301178
0.00029859
-0.00317607
0.000306405
0.000314492
-0.00334403
-4.14793e-05
0.000109798
-0.000130343
0.000235799
-0.000243415
0.000300878
-0.000366793
0.000329291
-0.000493652
0.000339646
-0.000621392
0.000343132
-0.000749399
0.000345044
-0.000877765
0.000347285
-0.00100676
0.000350318
-0.00113665
0.000354172
-0.0012677
0.000358793
-0.00140016
0.000364122
-0.00153425
0.000370108
-0.00167019
0.000376708
-0.00180816
0.000383886
-0.00194836
0.00039161
-0.00209097
0.000399854
-0.00223616
0.000408594
-0.00238411
0.000417811
-0.00253498
0.000427487
-0.00268892
0.000437611
-0.00284609
0.000448175
-0.00300665
0.000459149
-0.00317072
0.000470475
0.000482227
-0.00333845
-4.12095e-05
0.000151007
-0.000129629
0.000324218
-0.000242252
0.000413501
-0.00036523
0.000452269
-0.000491731
0.000466147
-0.000619139
0.00047054
-0.000746826
0.000472731
-0.000874878
0.000475337
-0.00100356
0.000478998
-0.00113314
0.000483758
-0.00126389
0.000489544
-0.00139605
0.000496279
-0.00152984
0.000503895
-0.00166547
0.000512336
-0.00180313
0.000521553
-0.00194303
0.000531506
-0.00208534
0.000542159
-0.00223022
0.000553482
-0.00237786
0.000565449
-0.00252841
0.000578038
-0.00268204
0.000591235
-0.00283889
0.00060503
-0.00299913
0.000619384
-0.00316287
0.000634219
0.00064963
-0.00333028
-4.0853e-05
0.00019186
-0.000128686
0.000412051
-0.000240718
0.000525534
-0.000363168
0.000574719
-0.000489199
0.000592177
-0.00061617
0.000597511
-0.000743437
0.000599998
-0.000871078
0.000602977
-0.000999351
0.000607272
-0.00112853
0.000612941
-0.00125888
0.000619894
-0.00139064
0.000628036
-0.00152403
0.000637283
-0.00165926
0.000647565
-0.00179653
0.000658822
-0.00193602
0.000671002
-0.00207793
0.000684062
-0.00222241
0.000697965
-0.00236964
0.000712679
-0.00251977
0.000728176
-0.00267298
0.000744441
-0.00282941
0.000761462
-0.00298922
0.000779192
-0.00315253
0.000797531
0.000816594
-0.0033195
-4.04102e-05
0.00023227
-0.000127514
0.000499155
-0.000238813
0.000636832
-0.000360608
0.000696514
-0.000486056
0.000717625
-0.000612487
0.000723942
-0.000739234
0.000726746
-0.000866365
0.000730108
-0.000994135
0.000735041
-0.00112282
0.000741623
-0.00125267
0.000749748
-0.00138393
0.000759299
-0.00151683
0.000770178
-0.00165156
0.0007823
-0.00178834
0.000795595
-0.00192734
0.00081
-0.00206874
0.000825464
-0.00221272
0.000841943
-0.00235944
0.0008594
-0.00250906
0.000877801
-0.00266175
0.000897128
-0.00281766
0.00091737
-0.00297693
0.000938469
-0.00313971
0.000960306
0.000983012
-0.00330613
-3.98818e-05
0.000272152
-0.000126116
0.000585389
-0.000236538
0.000747254
-0.000357552
0.000817528
-0.000482304
0.000842377
-0.00060809
0.000849728
-0.000734218
0.000852873
-0.000860742
0.000856632
-0.000987911
0.000862211
-0.001116
0.000869711
-0.00124526
0.000879009
-0.00137593
0.000889972
-0.00150824
0.000902483
-0.00164239
0.000916446
-0.00177857
0.000931777
-0.00191697
0.000948404
-0.00205778
0.000966269
-0.00220115
0.00098532
-0.00234727
0.00100551
-0.00249628
0.00102681
-0.00264835
0.0010492
-0.00280363
0.00107265
-0.00296227
0.00109711
-0.0031244
0.00112244
0.00114878
-0.00329017
-3.92683e-05
0.00031142
-0.000124491
0.000670612
-0.000233893
0.000856657
-0.000353998
0.000937633
-0.000477942
0.000966321
-0.00060298
0.000974767
-0.000728389
0.000978282
-0.000854208
0.00098245
-0.000980681
0.000988685
-0.00110808
0.000997108
-0.00123665
0.00100758
-0.00136664
0.00101996
-0.00149826
0.00103411
-0.00163173
0.00104991
-0.00176722
0.00106727
-0.00190494
0.00108612
-0.00204505
0.00110638
-0.00218773
0.001128
-0.00233314
0.00115092
-0.00248144
0.00117511
-0.00263278
0.00120054
-0.00278733
0.0012272
-0.00294523
0.00125501
-0.00310662
0.00128382
0.00131378
-0.00327162
-3.85706e-05
0.000349991
-0.000122641
0.000754682
-0.00023088
0.000964896
-0.000349949
0.0010567
-0.000472972
0.00108934
-0.000597158
0.00109895
-0.000721748
0.00110287
-0.000846765
0.00110747
-0.000972447
0.00111437
-0.00109906
0.00112372
-0.00122685
0.00113538
-0.00135606
0.00114917
-0.00148691
0.00116495
-0.00161959
0.00118259
-0.0017543
0.00120199
-0.00189124
0.00122305
-0.00203056
0.0012457
-0.00217244
0.00126988
-0.00231705
0.00129553
-0.00246454
0.0013226
-0.00261506
0.00135107
-0.00276878
0.00138091
-0.00292584
0.00141207
-0.00308637
0.00144436
0.00147791
-0.0032505
-3.77896e-05
0.000387781
-0.000120567
0.00083746
-0.0002275
0.00107183
-0.000345403
0.0011746
-0.000467393
0.00121133
-0.000590623
0.00122218
-0.000714297
0.00122655
-0.000838416
0.00123159
-0.00096321
0.00123916
-0.00108894
0.00124945
-0.00121586
0.0012623
-0.0013442
0.00127751
-0.00147417
0.00129492
-0.00160598
0.0013144
-0.00173982
0.00133583
-0.00187587
0.0013591
-0.00201431
0.00138414
-0.0021553
0.00141087
-0.00229901
0.00143924
-0.00244559
0.00146918
-0.00259519
0.00150067
-0.00274798
0.0015337
-0.00290409
0.00156818
-0.00306366
0.00160393
0.00164106
-0.00322682
-3.69264e-05
0.000424707
-0.00011827
0.000918804
-0.000223754
0.00117731
-0.000340364
0.00129121
-0.000461206
0.00133218
-0.000583378
0.00134436
-0.000706037
0.0013492
-0.000829162
0.00135471
-0.000952975
0.00136297
-0.00107773
0.00137421
-0.00120368
0.00138825
-0.00133105
0.00140488
-0.00146006
0.00142393
-0.00159091
0.00144525
-0.00172378
0.0014687
-0.00185886
0.00149418
-0.00199632
0.0015216
-0.00213632
0.00155088
-0.00227903
0.00158195
-0.0024246
0.00161475
-0.00257319
0.00164926
-0.00272494
0.00168545
-0.00288
0.00172325
-0.00303851
0.00176244
0.00180313
-0.00320058
-3.5982e-05
0.000460689
-0.000115753
0.000998575
-0.000219642
0.0012812
-0.00033483
0.0014064
-0.000454412
0.00145176
-0.000575423
0.00146537
-0.000696969
0.00147075
-0.000819005
0.00147675
-0.000941742
0.00148571
-0.00106543
0.0014979
-0.00119032
0.00151314
-0.00131664
0.00153119
-0.00144459
0.00155188
-0.00157437
0.00157503
-0.00170618
0.00160051
-0.0018402
0.00162819
-0.00197658
0.00165799
-0.0021155
0.0016898
-0.00225712
0.00172356
-0.00240159
0.00175922
-0.00254905
0.00179672
-0.00269967
0.00183606
-0.00285358
0.00187716
-0.00301092
0.00191978
0.00196401
-0.0031718
-3.49578e-05
0.000495647
-0.000113017
0.00107663
-0.000215168
0.00138335
-0.000328804
0.00152004
-0.000447012
0.00156997
-0.000566759
0.00158511
-0.000687095
0.00159109
-0.000807948
0.0015976
-0.000929516
0.00160728
-0.00105205
0.00162043
-0.00117578
0.00163687
-0.00130095
0.00165636
-0.00142775
0.00167868
-0.00155639
0.00170367
-0.00168704
0.00173117
-0.0018199
0.00176105
-0.00195511
0.0017932
-0.00209286
0.00182754
-0.00223329
0.00186399
-0.00237655
0.00190248
-0.0025228
0.00194297
-0.00267218
0.00198544
-0.00282484
0.00202982
-0.00298091
0.00207585
0.00212359
-0.00314049
-3.38552e-05
0.000529502
-0.000110064
0.00115284
-0.000210332
0.00148362
-0.000322287
0.00163199
-0.000439008
0.00168669
-0.000557387
0.00170349
-0.000676417
0.00171012
-0.000795993
0.00171718
-0.0009163
0.00172758
-0.00103758
0.00174171
-0.00116007
0.00175936
-0.001284
0.00178028
-0.00140956
0.00180425
-0.00153695
0.00183106
-0.00166636
0.00186058
-0.00179797
0.00189265
-0.00193192
0.00192716
-0.0020684
0.00196402
-0.00220754
0.00200314
-0.00234951
0.00204445
-0.00249445
0.00208791
-0.00264249
0.00213349
-0.0027938
0.00218113
-0.0029485
0.00223056
0.00228177
-0.00310668
-3.26758e-05
0.000562178
-0.000106897
0.00122706
-0.000205137
0.00158186
-0.000315279
0.00174213
-0.000430399
0.00180181
-0.000547309
0.0018204
-0.000664937
0.00182775
-0.000783142
0.00183538
-0.000902096
0.00184654
-0.00102204
0.00186165
-0.00114319
0.00188052
-0.00126579
0.00190288
-0.00139002
0.00192848
-0.00151608
0.00195713
-0.00164416
0.00198865
-0.00177442
0.00202291
-0.00190702
0.00205977
-0.00204213
0.00209913
-0.0021799
0.00214091
-0.00232048
0.00218503
-0.002464
0.00223143
-0.00261062
0.0022801
-0.00276048
0.00233098
-0.0029137
0.00238378
0.00243844
-0.00307038
-3.14214e-05
0.000593599
-0.000103518
0.00129916
-0.000199585
0.00167793
-0.000307783
0.00185033
-0.000421187
0.00191521
-0.000536526
0.00193574
-0.000652657
0.00194388
-0.0007694
0.00195213
-0.00088691
0.00196405
-0.00100542
0.00198016
-0.00112515
0.00200025
-0.00124632
0.00202405
-0.00136914
0.00205129
-0.00149378
0.00208177
-0.00162043
0.0021153
-0.00174925
0.00215173
-0.00188042
0.00219093
-0.00201407
0.00223279
-0.00215037
0.00227721
-0.00228947
0.00232412
-0.00243149
0.00237345
-0.00257658
0.00242519
-0.00272488
0.00247929
-0.00287654
0.00253544
0.00259352
-0.00303161
-3.00937e-05
0.000623693
-9.99299e-05
0.001369
-0.000193678
0.00177168
-0.0002998
0.00195645
-0.000411374
0.00202678
-0.00052504
0.00204941
-0.000639578
0.00205841
-0.000754768
0.00206732
-0.000870745
0.00208003
-0.000987732
0.00209715
-0.00110595
0.00211847
-0.00122562
0.00214371
-0.00134693
0.0021726
-0.00147006
0.0022049
-0.00159519
0.00224044
-0.0017225
0.00227903
-0.00185213
0.00232056
-0.00198424
0.0023649
-0.00211898
0.00241195
-0.00225649
0.00246163
-0.00239691
0.00251388
-0.00254038
0.00256866
-0.00268704
0.00262595
-0.00283703
0.00268542
0.00274688
-0.00299039
-2.86949e-05
0.000652388
-9.61363e-05
0.00143644
-0.00018742
0.00186296
-0.000291333
0.00206037
-0.00040096
0.00213641
-0.000512852
0.0021613
-0.000625704
0.00217127
-0.00073925
0.00218086
-0.000853606
0.00219438
-0.000968985
0.00221252
-0.00108561
0.0022351
-0.00120368
0.00226178
-0.00132339
0.00229231
-0.00144493
0.00232644
-0.00156846
0.00236397
-0.00169415
0.00240473
-0.00182216
0.00244857
-0.00195263
0.00249537
-0.00208572
0.00254504
-0.00222156
0.00259747
-0.0023603
0.00265261
-0.00250205
0.00271042
-0.00264697
0.00277087
-0.00279519
0.00283364
0.00289844
-0.00294675
-2.72273e-05
0.000679615
-9.21406e-05
0.00150135
-0.000180812
0.00195163
-0.000282382
0.00216194
-0.000389948
0.00224398
-0.000499964
0.00227132
-0.000611037
0.00228234
-0.00072285
0.00229267
-0.000835497
0.00230703
-0.000949182
0.00232621
-0.00106412
0.00235003
-0.00118051
0.00237817
-0.00129854
0.00241034
-0.00141839
0.00244629
-0.00154024
0.00248581
-0.00166423
0.00252872
-0.00179053
0.00257486
-0.00191928
0.00262412
-0.00205062
0.00267639
-0.00218471
0.00273156
-0.00232166
0.00278956
-0.00246161
0.00285037
-0.0026047
0.00291396
-0.00275105
0.00297999
0.0030481
-0.00290071
-2.56932e-05
0.000705308
-8.79465e-05
0.0015636
-0.00017386
0.00203755
-0.000272951
0.00226103
-0.000378339
0.00234937
-0.000486377
0.00237935
-0.000595578
0.00239154
-0.000705571
0.00240267
-0.000816423
0.00241788
-0.000928328
0.00243811
-0.00104149
0.0024632
-0.00115612
0.0024928
-0.00127238
0.00252661
-0.00139047
0.00256438
-0.00151054
0.00260588
-0.00163275
0.00265093
-0.00175725
0.00269937
-0.00188419
0.00275106
-0.0020137
0.0028059
-0.00214594
0.00286379
-0.00228102
0.00292464
-0.00241907
0.00298842
-0.00256024
0.00305512
-0.00270464
0.00312439
0.00319577
-0.00285231
-2.40952e-05
0.000729403
-8.35584e-05
0.00162307
-0.000166566
0.00212055
-0.000263043
0.0023575
-0.000366135
0.00245246
-0.000472095
0.00248531
-0.000579332
0.00249878
-0.000687417
0.00251075
-0.000796389
0.00252685
-0.00090643
0.00254816
-0.00101774
0.00257451
-0.00113052
0.00260557
-0.00124493
0.00264103
-0.00136117
0.00268061
-0.00147938
0.00272409
-0.00159972
0.00277127
-0.00172234
0.00282198
-0.00184738
0.0028761
-0.00197498
0.0029335
-0.00210527
0.00299409
-0.00223839
0.00305776
-0.00237446
0.00312449
-0.00251362
0.00319428
-0.00265598
0.00326676
0.00334135
-0.00280157
-2.24362e-05
0.00075184
-7.89809e-05
0.00167961
-0.000158936
0.00220051
-0.00025266
0.00245123
-0.000353339
0.00255314
-0.000457118
0.00258909
-0.000562301
0.00260396
-0.000668392
0.00261684
-0.000775401
0.00263386
-0.000883496
0.00265625
-0.000992871
0.00268388
-0.00110371
0.00271641
-0.0012162
0.00275352
-0.0013305
0.00279491
-0.00144677
0.00284036
-0.00156515
0.00288965
-0.00168581
0.00294264
-0.00180886
0.00299916
-0.00193446
0.0030591
-0.00206273
0.00312236
-0.00219381
0.00318883
-0.00232781
0.00325849
-0.00246487
0.00333134
-0.00260511
0.003407
0.00348477
-0.00274853
-2.07193e-05
0.000772559
-7.42193e-05
0.00173311
-0.000150973
0.00227726
-0.000241806
0.00254206
-0.000339952
0.00265128
-0.000441449
0.00269059
-0.000544488
0.002707
-0.0006485
0.00272085
-0.000753464
0.00273883
-0.000859532
0.00276232
-0.00096689
0.00279124
-0.00107572
0.00282525
-0.0011862
0.00286399
-0.00129848
0.00290719
-0.00141272
0.0029546
-0.00152907
0.00300601
-0.00164767
0.00306124
-0.00176866
0.00312015
-0.00189217
0.00318261
-0.00201834
0.00324852
-0.00214728
0.00331777
-0.00227912
0.00339034
-0.00241401
0.00346623
-0.00255206
0.00354506
0.00362596
-0.00269325
-1.89476e-05
0.000791507
-6.92791e-05
0.00178344
-0.000142684
0.00235067
-0.000230485
0.00262986
-0.000325977
0.00274678
-0.000425091
0.0027897
-0.000525895
0.0028078
-0.000627747
0.00282271
-0.000730584
0.00284167
-0.000834545
0.00286628
-0.000939807
0.0028965
-0.00104655
0.00293199
-0.00115493
0.00297238
-0.00126512
0.00301738
-0.00137726
0.00306674
-0.00149149
0.00312024
-0.00160796
0.00317771
-0.0017268
0.00323899
-0.00184814
0.00330395
-0.0019721
0.00337249
-0.00209883
0.00344449
-0.00222843
0.00351994
-0.00236106
0.00359887
-0.00249687
0.00368086
0.00376486
-0.00263577
-1.71248e-05
0.000808631
-6.41665e-05
0.00183049
-0.000134074
0.00242057
-0.000218701
0.00271449
-0.000311418
0.00283949
-0.000408046
0.00288633
-0.000506527
0.00290628
-0.000606135
0.00292231
-0.000706768
0.0029423
-0.000808544
0.00296805
-0.000911632
0.00299959
-0.0010162
0.00303656
-0.00112242
0.00307859
-0.00123043
0.00312539
-0.00134039
0.00317669
-0.00145243
0.00323228
-0.00156668
0.00329196
-0.00168329
0.00335559
-0.00180237
0.00342303
-0.00192406
0.00349418
-0.00204848
0.00356891
-0.00217574
0.00364721
-0.00230605
0.00372917
-0.00243957
0.00381438
0.00390145
-0.00257615
-1.52546e-05
0.000823886
-5.88884e-05
0.00187412
-0.000125149
0.00248683
-0.000206459
0.0027958
-0.000296278
0.00292931
-0.000390317
0.00298037
-0.000486387
0.00300236
-0.000583671
0.0030196
-0.000682021
0.00304065
-0.000781536
0.00306757
-0.000882375
0.00310043
-0.000984703
0.00313889
-0.00108867
0.00318257
-0.00119444
0.00323116
-0.00130213
0.00328439
-0.00141189
0.00334204
-0.00152386
0.00340392
-0.00163815
0.00346988
-0.00175489
0.00353978
-0.00187422
0.00361351
-0.00199625
0.00369094
-0.0021211
0.00377205
-0.00224898
0.00385706
-0.00238019
0.00394558
0.00403576
-0.0025145
-1.33412e-05
0.000837227
-5.34523e-05
0.00191423
-0.000115919
0.0025493
-0.000193765
0.00287365
-0.00028056
0.00301611
-0.000371907
0.00307172
-0.000465478
0.00309593
-0.000560359
0.00311448
-0.000656351
0.00313664
-0.00075353
0.00316475
-0.000852046
0.00319895
-0.000952055
0.00323889
-0.00105371
0.00328422
-0.00115714
0.00333459
-0.0012625
0.00338975
-0.00136991
0.00344945
-0.00147951
0.00351351
-0.0015914
0.00358177
-0.00170572
0.0036541
-0.00182261
0.0037304
-0.00194218
0.00381051
-0.00206452
0.00389439
-0.00218984
0.00398238
-0.0023187
0.00407445
0.00416796
-0.00245091
-1.13892e-05
0.000848616
-4.78661e-05
0.00195071
-0.00010639
0.00260782
-0.000180626
0.00294788
-0.000264269
0.00309975
-0.00035282
0.00316027
-0.000443805
0.00318691
-0.000536204
0.00320688
-0.000629764
0.0032302
-0.000724536
0.00325952
-0.000820656
0.00329507
-0.000918274
0.00333651
-0.00101753
0.00338348
-0.00111857
0.00343563
-0.00122152
0.0034927
-0.00132651
0.00355444
-0.00143365
0.00362066
-0.00154307
0.00369119
-0.0016549
0.00376593
-0.00176926
0.00384476
-0.00188629
0.00392755
-0.00200606
0.00401415
-0.00212867
0.00410499
-0.00225507
0.00420085
0.00429848
-0.00238559
-9.40385e-06
0.00085802
-4.21387e-05
0.00198344
-9.65712e-05
0.00266226
-0.000167048
0.00301836
-0.000247411
0.00318012
-0.000333061
0.00324592
-0.000421372
0.00327522
-0.000511212
0.00329672
-0.000602267
0.00332126
-0.00069456
0.00335181
-0.000788215
0.00338872
-0.000883372
0.00343167
-0.00098017
0.00348028
-0.00107874
0.0035342
-0.00117921
0.00359316
-0.00128169
0.00365692
-0.00138631
0.00372528
-0.00149319
0.00379807
-0.00160243
0.00387517
-0.00171417
0.0039565
-0.00182857
0.00404195
-0.0019457
0.00413128
-0.00206535
0.00422465
-0.00218851
0.004324
0.00442829
-0.00231832
-7.39209e-06
0.000865412
-3.62793e-05
0.00201233
-8.64738e-05
0.00271245
-0.000153039
0.00308492
-0.000229991
0.00325707
-0.000312632
0.00332856
-0.000398182
0.00336077
-0.000485388
0.00338392
-0.000573869
0.00340974
-0.000663615
0.00344156
-0.000754735
0.00347984
-0.000847364
0.0035243
-0.00094163
0.00357454
-0.00103766
0.00363023
-0.00113558
0.00369108
-0.00123549
0.00375684
-0.00133752
0.00382731
-0.00144177
0.00390232
-0.00154836
0.00398176
-0.00165741
0.00406555
-0.00176911
0.00415366
-0.00188368
0.00424585
-0.00200084
0.00434181
-0.00211969
0.00444285
0.00455967
-0.00225108
-5.36361e-06
0.000870776
-3.02971e-05
0.00203726
-7.61084e-05
0.00275826
-0.00013861
0.00314743
-0.000212015
0.00333047
-0.00029154
0.00340808
-0.000374242
0.00344347
-0.00045874
0.00346842
-0.000544576
0.00349557
-0.000631709
0.00352869
-0.000720229
0.00356836
-0.000810262
0.00361433
-0.000901931
0.00366621
-0.000995356
0.00372366
-0.00109065
0.00378637
-0.00118793
0.00385411
-0.00128729
0.00392667
-0.00138885
0.00400388
-0.00149271
0.00408562
-0.00159898
0.00417182
-0.0017078
0.00426248
-0.00181938
0.00435743
-0.00193391
0.00445634
-0.00205225
0.0045612
0.00467714
-0.00216971
-3.33505e-06
0.000874111
-2.41998e-05
0.00205813
-6.5487e-05
0.00279955
-0.00012377
0.00320571
-0.000193491
0.00340019
-0.00026979
0.00348438
-0.000349557
0.00352324
-0.000431272
0.00355014
-0.000514398
0.0035787
-0.000598852
0.00361315
-0.000684708
0.00365422
-0.000772082
0.0037017
-0.00086109
0.00375522
-0.000951844
0.00381441
-0.00104445
0.00387898
-0.00113902
0.00394868
-0.00123565
0.0040233
-0.00133445
0.00410268
-0.00143551
0.00418667
-0.00153891
0.00427522
-0.00164477
0.00436834
-0.00175327
0.00446593
-0.00186468
0.00456774
-0.00197887
0.00467538
0.00479465
-0.00209638
-1.34934e-06
0.00087546
-1.79913e-05
0.00207477
-5.46233e-05
0.00283618
-0.000108532
0.00325962
-0.000174429
0.00346609
-0.000247389
0.00355734
-0.000324132
0.00359998
-0.000402992
0.003629
-0.000483341
0.00365905
-0.000565054
0.00369486
-0.000648186
0.00373735
-0.000732839
0.00378636
-0.000819122
0.0038415
-0.000907144
0.00390243
-0.000997005
0.00396884
-0.00108881
0.00404048
-0.00118264
0.00411714
-0.00127861
0.00419864
-0.00137679
0.00428486
-0.00147729
0.00437572
-0.00158018
0.00447124
-0.00168569
0.00457144
-0.00179426
0.00467632
-0.00190618
0.0047873
0.00490809
-0.00201962
6.87993e-07
0.000874772
-1.16639e-05
0.00208712
-4.35319e-05
0.00286805
-9.29083e-05
0.00330899
-0.000154838
0.00352802
-0.000224344
0.00362685
-0.000297974
0.00367361
-0.000373906
0.00370493
-0.000451416
0.00373656
-0.000530328
0.00377377
-0.000610675
0.0038177
-0.000692547
0.00386823
-0.000776047
0.003925
-0.000861276
0.00398766
-0.000948328
0.0040559
-0.0010373
0.00412945
-0.00112828
0.00420812
-0.00122135
0.00429172
-0.00131662
0.00438013
-0.00141417
0.00447327
-0.00151411
0.00457118
-0.00161669
0.00467401
-0.00172235
0.00478198
-0.00183121
0.00489616
0.00501843
-0.00194155
2.94573e-06
0.000871827
-5.18685e-06
0.00209525
-3.22285e-05
0.00289509
-7.69137e-05
0.00335368
-0.00013473
0.00358583
-0.000200665
0.00369278
-0.000271091
0.00374404
-0.000344023
0.00377786
-0.000418632
0.00381117
-0.000494684
0.00384982
-0.000572188
0.0038952
-0.000651223
0.00394726
-0.000731883
0.00400566
-0.00081426
0.00407004
-0.000898446
0.00414008
-0.000984528
0.00421553
-0.00107259
0.00429618
-0.00116273
0.00438185
-0.00125503
0.00447242
-0.00134959
0.00456783
-0.00144657
0.00466816
-0.0015462
0.00477365
-0.00164884
0.00488462
-0.00175438
0.0050017
0.00512536
-0.00186131
5.0509e-06
0.000866776
1.38633e-06
0.00209892
-2.07317e-05
0.00291721
-6.05668e-05
0.00339351
-0.000114123
0.00363939
-0.000176361
0.00375502
-0.00024349
0.00381117
-0.000313352
0.00384772
-0.000384997
0.00388281
-0.000458134
0.00392296
-0.000532741
0.00396981
-0.000608884
0.00402341
-0.000686647
0.00408343
-0.000766118
0.00414951
-0.000847381
0.00422134
-0.00093052
0.00429867
-0.00101562
0.00438128
-0.00110276
0.00446899
-0.00119204
0.0045617
-0.00128358
0.00465937
-0.00137754
0.00476212
-0.00147416
0.00487027
-0.00157369
0.00498415
-0.00167588
0.00510389
0.00522886
-0.00177937
7.08167e-06
0.000859694
7.51943e-06
0.00209848
-9.00423e-06
0.00293373
-4.38935e-05
0.0034284
-9.30337e-05
0.00368853
-0.000151447
0.00381343
-0.000215183
0.00387491
-0.0002819
0.00391444
-0.000350522
0.00395144
-0.00042069
0.00399313
-0.000492347
0.00404147
-0.000565545
0.00409661
-0.00064036
0.00415824
-0.000716871
0.00422602
-0.000795158
0.00429963
-0.000875299
0.00437881
-0.000957374
0.00446335
-0.00104147
0.00455309
-0.00112768
0.00464792
-0.00121615
0.00474784
-0.00130704
0.00485301
-0.00140056
0.00496379
-0.00149686
0.00508045
-0.00159561
0.00520263
0.00532898
-0.00169573
9.07357e-06
0.00085062
1.38883e-05
0.00209367
2.96545e-06
0.00294466
-2.69283e-05
0.0034583
-7.14803e-05
0.00373308
-0.000125934
0.00386789
-0.000186178
0.00393515
-0.000249677
0.00397794
-0.000315219
0.00401698
-0.000382364
0.00406027
-0.000451022
0.00411012
-0.000521225
0.00416681
-0.000593041
0.00423006
-0.000666541
0.00429952
-0.0007418
0.00437489
-0.000818892
0.00445591
-0.000897894
0.00454236
-0.000978891
0.00463409
-0.00106199
0.00473102
-0.00114733
0.00483318
-0.00123508
0.00494076
-0.0013254
0.00505412
-0.00141835
0.00517339
-0.00151355
0.00529784
0.00542566
-0.00161024
1.10257e-05
0.000839595
2.0259e-05
0.00208443
1.45566e-05
0.00295036
-9.64262e-06
0.0034825
-4.94851e-05
0.00377292
-9.98427e-05
0.00391824
-0.00015649
0.0039918
-0.000216696
0.00403814
-0.000279097
0.00407938
-0.00034317
0.00412434
-0.00040878
0.00417574
-0.000475941
0.00423397
-0.000544709
0.00429882
-0.000615149
0.00436996
-0.000687331
0.00444707
-0.000761324
0.0045299
-0.000837202
0.00461823
-0.000915052
0.00471194
-0.000994982
0.00481095
-0.00107713
0.00491533
-0.00116166
0.00502529
-0.00124869
0.00514114
-0.00133817
0.00526288
-0.00142977
0.00538943
0.0055188
-0.0015229
1.29285e-05
0.000826666
2.66179e-05
0.00207074
2.64407e-05
0.00295054
7.84555e-06
0.00350109
-2.70898e-05
0.00380786
-7.31887e-05
0.00396434
-0.000126131
0.00404474
-0.000182966
0.00409498
-0.00024217
0.00413858
-0.000303121
0.0041853
-0.000365638
0.00423825
-0.000429711
0.00429804
-0.000495386
0.0043645
-0.00056272
0.00443729
-0.000631776
0.00451613
-0.000702621
0.00460074
-0.000775327
0.00469094
-0.000849979
0.00478659
-0.000926686
0.00488765
-0.00100558
0.00499422
-0.00108681
0.00510651
-0.00117044
0.00522477
-0.00125638
0.00534882
-0.00134431
0.00547736
0.00560833
-0.00143383
1.47784e-05
0.000811888
3.294e-05
0.00205258
3.83908e-05
0.00294509
2.54049e-05
0.00351408
-4.23687e-06
0.0038375
-4.59923e-05
0.0040061
-9.51181e-05
0.00409386
-0.000148502
0.00414836
-0.00020445
0.00419453
-0.000262232
0.00424308
-0.000321611
0.00429763
-0.000382554
0.00435899
-0.000445092
0.00442704
-0.000509275
0.00450148
-0.000575162
0.00458201
-0.000642812
0.00466839
-0.000712297
0.00476042
-0.0007837
0.00485799
-0.000857127
0.00496108
-0.000932706
0.0050698
-0.00101055
0.00518436
-0.0010907
0.00530492
-0.00117302
0.00543114
-0.00125723
0.00556157
0.0056942
-0.00134311
1.6582e-05
0.000795306
3.9191e-05
0.00202997
5.03637e-05
0.00293391
4.32251e-05
0.00352122
1.88366e-05
0.00386189
-1.82977e-05
0.00404323
-6.34693e-05
0.00413904
-0.000113318
0.00419821
-0.000165951
0.00424716
-0.000220517
0.00429764
-0.000276718
0.00435383
-0.00033449
0.00441676
-0.00039385
0.00448639
-0.00045484
0.00456247
-0.000517512
0.00464469
-0.000581924
0.0047328
-0.00064814
0.00482664
-0.000716244
0.0049261
-0.000786336
0.00503117
-0.000858531
0.005142
-0.000932921
0.00525875
-0.0010095
0.0053815
-0.00108814
0.00550978
-0.00116861
0.00564204
0.00577637
-0.00125078
1.83228e-05
0.000776983
4.53393e-05
0.00200296
6.23148e-05
0.00291694
6.11886e-05
0.00352234
4.2287e-05
0.00388079
9.89299e-06
0.00407563
-3.12061e-05
0.00418014
-7.74314e-05
0.00424444
-0.000126688
0.00429642
-0.000177992
0.00434895
-0.000230976
0.00440682
-0.000285539
0.00447132
-0.000341681
0.00454254
-0.000399438
0.00462023
-0.000458855
0.0047041
-0.000519984
0.00479393
-0.000582887
0.00488954
-0.000647643
0.00499085
-0.000714344
0.00509787
-0.000783093
0.00521075
-0.000853956
0.00532961
-0.000926906
0.00545445
-0.00100181
0.00558468
-0.00107849
0.00571872
0.00585479
-0.00115691
1.99866e-05
0.000756997
5.13537e-05
0.00197159
7.41936e-05
0.0028941
7.92399e-05
0.0035173
6.60252e-05
0.00389401
3.85381e-05
0.00410311
1.61766e-06
0.00421706
-4.0862e-05
0.00428692
-8.66787e-05
0.00434224
-0.000134673
0.00439694
-0.000184403
0.00445655
-0.000235721
0.00452264
-0.00028861
0.00459543
-0.000343096
0.00467471
-0.000399218
0.00476023
-0.000457023
0.00485174
-0.000516569
0.00494909
-0.000577928
0.00505221
-0.000641186
0.00516113
-0.000706428
0.00527599
-0.000773701
0.00539689
-0.000842962
0.00552371
-0.000914082
0.0056558
-0.000986944
0.00579158
0.00592941
-0.00106157
2.15609e-05
0.000735436
5.72021e-05
0.00193595
8.59473e-05
0.00286535
9.73206e-05
0.00350592
8.9991e-05
0.00390134
6.76084e-05
0.0041255
3.50636e-05
0.0042496
-3.66949e-06
0.00432565
-4.59437e-05
0.00438451
-9.05776e-05
0.00444158
-0.000137021
0.00450299
-0.000185058
0.00457068
-0.000234659
0.00464503
-0.00028584
0.00472589
-0.00033863
0.00481302
-0.000393072
0.00490618
-0.000449218
0.00500524
-0.000507135
0.00511013
-0.000566898
0.0052209
-0.000628578
0.00533767
-0.000692204
0.00546051
-0.000757724
0.00558923
-0.000825023
0.0057231
-0.000894032
0.00586059
0.00600019
-0.000964811
2.30341e-05
0.000712402
6.28456e-05
0.00189614
9.75206e-05
0.00283068
0.000115367
0.00348808
0.000114128
0.00390258
9.70471e-05
0.00414258
6.90161e-05
0.00427763
3.42465e-05
0.00436042
-4.53938e-06
0.0044233
-4.57252e-05
0.00448276
-8.88514e-05
0.00454612
-0.000133573
0.0046154
-0.000179855
0.00469131
-0.000227696
0.00477373
-0.00027712
0.00486244
-0.000328162
0.00495722
-0.000380868
0.00505794
-0.000435299
0.00516456
-0.000491519
0.00527712
-0.000549586
0.00539574
-0.000609514
0.00552044
-0.000671247
0.00565096
-0.00073469
0.00578655
-0.000799814
0.00592572
0.00606708
-0.000866703
2.4396e-05
0.000688006
6.82498e-05
0.00185228
0.000108856
0.00279007
0.000133309
0.00346362
0.000138369
0.00389752
0.000126803
0.00415414
0.000103458
0.00430098
7.27364e-05
0.00439114
3.76314e-05
0.0044584
-2.75684e-07
0.00452067
-3.9921e-05
0.00458576
-8.129e-05
0.00465677
-0.000124222
0.00473424
-0.000168694
0.00481821
-0.000214719
0.00490846
-0.000262326
0.00500483
-0.000311555
0.00510717
-0.000362458
0.00521546
-0.000415091
0.00532975
-0.000469497
0.00545014
-0.00052568
0.00557662
-0.000583588
0.00570887
-0.000643143
0.0058461
-0.000704348
0.00598692
0.00613004
-0.000767302
2.56369e-05
0.000662369
7.33811e-05
0.00180454
0.000119891
0.00274356
0.000151073
0.00343244
0.000162642
0.00388595
0.000156815
0.00415997
0.000138342
0.00431945
0.000111801
0.00441768
8.04432e-05
0.00448976
4.61541e-05
0.00455496
9.76653e-06
0.00462215
-2.82402e-05
0.00469477
-6.77882e-05
0.00477379
-0.000108863
0.00485928
-0.000151458
0.00495106
-0.000195597
0.00504897
-0.000241314
0.00515289
-0.000288651
0.0052628
-0.000337655
0.00537875
-0.000388357
0.00550084
-0.000440755
0.00562902
-0.000494801
0.00576292
-0.00055044
0.00590174
-0.000607695
0.00604418
0.00618901
-0.000666668
2.67481e-05
0.000635621
7.82048e-05
0.00175308
0.000130563
0.0026912
0.000168576
0.00339443
0.000186865
0.00386766
0.000187012
0.00415982
0.000173617
0.00433284
0.000151404
0.00443989
0.000123876
0.00451729
9.31283e-05
0.00458571
6.02121e-05
0.00465507
2.55739e-05
0.00472941
-1.06007e-05
0.00480996
-4.82355e-05
0.00489692
-8.73715e-05
0.0049902
-0.000128012
0.00508961
-0.000170183
0.00519506
-0.000213919
0.00530653
-0.000259256
0.00542409
-0.000306215
0.0055478
-0.000354791
0.0056776
-0.000404941
0.00581307
-0.000456636
0.00595344
-0.000509913
0.00609745
0.00624395
-0.000564858
2.77215e-05
0.000607899
8.26858e-05
0.00169812
0.000140803
0.00263309
0.000185729
0.0033495
0.000210944
0.00384244
0.000217315
0.00415345
0.000209219
0.00434094
0.000191497
0.00445762
0.000167901
0.00454088
0.000140769
0.00461284
0.000111324
0.00468451
8.01213e-05
0.00476061
4.73776e-05
0.00484271
1.31541e-05
0.00493114
-2.25009e-05
0.00502585
-5.96075e-05
0.00512671
-9.82037e-05
0.00523366
-0.000138305
0.00534663
-0.000179938
0.00546572
-0.00022312
0.00559099
-0.000267839
0.00572232
-0.000314061
0.00585929
-0.000361786
0.00600116
-0.000411066
0.00614674
0.00629482
-0.000461932
2.85499e-05