/*--------------------------------*- C++ -*----------------------------------*\
  =========                 |
  \\      /  F ield         | OpenFOAM: The Open Source CFD Toolbox
   \\    /   O peration     | Website:  https://openfoam.org
    \\  /    A nd           | Version:  7
     \\/     M anipulation  |
\*---------------------------------------------------------------------------*/
FoamFile
{
    version     2.0;
    format      ascii;
    class       volScalarField;
    location    "24.999";
    object      p;
}
// * * * * * * * * * * * * * * * * * * * * * * * * * * * * * * * * * * * * * //

dimensions      [0 2 -2 0 0 0 0];

internalField   nonuniform List<scalar> 
11400
(
-0.106302
-0.105323
-0.104386
-0.103492
-0.10264
-0.101828
-0.101056
-0.100323
-0.0996287
-0.0989715
-0.0983511
-0.0977669
-0.0972183
-0.0967048
-0.0962258
-0.0957808
-0.0953694
-0.0949912
-0.0946458
-0.0943329
-0.0940521
-0.0938031
-0.0935859
-0.0934
-0.0932454
-0.0931218
-0.0930293
-0.0929676
-0.0929368
-0.24918
-0.244701
-0.239961
-0.235232
-0.230551
-0.225925
-0.221373
-0.216908
-0.212536
-0.208261
-0.204086
-0.200013
-0.196042
-0.192174
-0.188409
-0.184747
-0.181188
-0.17773
-0.174373
-0.171114
-0.167953
-0.164887
-0.161915
-0.159035
-0.156245
-0.153543
-0.150927
-0.148396
-0.145947
-0.143579
-0.141289
-0.139076
-0.136938
-0.134872
-0.132877
-0.130951
-0.129092
-0.127298
-0.125568
-0.123901
-0.122293
-0.120744
-0.119253
-0.117818
-0.116436
-0.115108
-0.113831
-0.112605
-0.111428
-0.110299
-0.109216
-0.108179
-0.107187
-0.106239
-0.105333
-0.104469
-0.103646
-0.102864
-0.10212
-0.101415
-0.100748
-0.100119
-0.0995256
-0.0989686
-0.0984471
-0.0979606
-0.0975086
-0.0970907
-0.0967065
-0.0963555
-0.0960375
-0.0957522
-0.0954992
-0.0952784
-0.0950895
-0.0949323
-0.0948067
-0.0947127
-0.09465
-0.0946187
-0.249387
-0.245045
-0.240437
-0.235833
-0.231266
-0.226747
-0.222297
-0.217927
-0.213646
-0.209456
-0.205362
-0.201363
-0.197462
-0.193658
-0.189953
-0.186345
-0.182836
-0.179423
-0.176106
-0.172883
-0.169753
-0.166715
-0.163768
-0.160908
-0.158136
-0.155449
-0.152845
-0.150324
-0.147882
-0.145518
-0.143232
-0.141019
-0.13888
-0.136812
-0.134814
-0.132883
-0.131019
-0.129219
-0.127482
-0.125806
-0.12419
-0.122632
-0.121131
-0.119685
-0.118294
-0.116955
-0.115668
-0.114431
-0.113243
-0.112103
-0.11101
-0.109963
-0.10896
-0.108001
-0.107086
-0.106212
-0.105379
-0.104587
-0.103835
-0.103121
-0.102446
-0.101808
-0.101207
-0.100643
-0.100115
-0.0996215
-0.0991633
-0.0987397
-0.0983501
-0.0979943
-0.0976718
-0.0973824
-0.0971259
-0.0969019
-0.0967103
-0.0965509
-0.0964236
-0.0963281
-0.0962646
-0.0962328
-0.249468
-0.24526
-0.240784
-0.236302
-0.231846
-0.227431
-0.223076
-0.218797
-0.214602
-0.210495
-0.206477
-0.20255
-0.198716
-0.194975
-0.191328
-0.187775
-0.184315
-0.180947
-0.17767
-0.174485
-0.171388
-0.16838
-0.165458
-0.162622
-0.159869
-0.157199
-0.15461
-0.1521
-0.149668
-0.147313
-0.145031
-0.142823
-0.140686
-0.138619
-0.13662
-0.134688
-0.13282
-0.131016
-0.129275
-0.127593
-0.125971
-0.124407
-0.122898
-0.121445
-0.120046
-0.118699
-0.117403
-0.116158
-0.114961
-0.113812
-0.11271
-0.111654
-0.110643
-0.109675
-0.108751
-0.107869
-0.107028
-0.106228
-0.105468
-0.104746
-0.104064
-0.103419
-0.102812
-0.102241
-0.101706
-0.101208
-0.100744
-0.100315
-0.0999211
-0.099561
-0.0992346
-0.0989417
-0.098682
-0.0984552
-0.0982612
-0.0980998
-0.0979709
-0.0978743
-0.0978099
-0.0977778
-0.249434
-0.245356
-0.241008
-0.236646
-0.232299
-0.227983
-0.223722
-0.219531
-0.215418
-0.211388
-0.207444
-0.203587
-0.199818
-0.196138
-0.192548
-0.189047
-0.185636
-0.182313
-0.179077
-0.175929
-0.172867
-0.169889
-0.166995
-0.164183
-0.161452
-0.158801
-0.156228
-0.153732
-0.151312
-0.148966
-0.146693
-0.144491
-0.142359
-0.140295
-0.138298
-0.136366
-0.134499
-0.132693
-0.130949
-0.129265
-0.127639
-0.12607
-0.124557
-0.123098
-0.121693
-0.120339
-0.119037
-0.117785
-0.116581
-0.115425
-0.114316
-0.113253
-0.112234
-0.11126
-0.110329
-0.109439
-0.108592
-0.107785
-0.107018
-0.10629
-0.105602
-0.104951
-0.104338
-0.103761
-0.103222
-0.102718
-0.10225
-0.101817
-0.101418
-0.101055
-0.100725
-0.100429
-0.100166
-0.0999371
-0.099741
-0.0995779
-0.0994476
-0.0993499
-0.0992849
-0.0992524
-0.249292
-0.245335
-0.241111
-0.236863
-0.232621
-0.228402
-0.22423
-0.220124
-0.216091
-0.212137
-0.208264
-0.204474
-0.200769
-0.197149
-0.193614
-0.190165
-0.186802
-0.183523
-0.180329
-0.177219
-0.174191
-0.171245
-0.168379
-0.165593
-0.162886
-0.160255
-0.157701
-0.155222
-0.152815
-0.150482
-0.148219
-0.146025
-0.1439
-0.141842
-0.139849
-0.13792
-0.136054
-0.13425
-0.132505
-0.13082
-0.129192
-0.127621
-0.126105
-0.124643
-0.123234
-0.121876
-0.120569
-0.119312
-0.118103
-0.116942
-0.115828
-0.114759
-0.113735
-0.112755
-0.111817
-0.110923
-0.110069
-0.109257
-0.108485
-0.107752
-0.107058
-0.106402
-0.105784
-0.105204
-0.104659
-0.104152
-0.103679
-0.103243
-0.102841
-0.102474
-0.102141
-0.101843
-0.101578
-0.101346
-0.101149
-0.100984
-0.100853
-0.100754
-0.100688
-0.100656
-0.249048
-0.245205
-0.241097
-0.236958
-0.232815
-0.228689
-0.224604
-0.22058
-0.216624
-0.212743
-0.208939
-0.205215
-0.201571
-0.19801
-0.19453
-0.191132
-0.187817
-0.184583
-0.18143
-0.178358
-0.175365
-0.172452
-0.169616
-0.166857
-0.164174
-0.161566
-0.159032
-0.15657
-0.15418
-0.15186
-0.149609
-0.147426
-0.14531
-0.14326
-0.141273
-0.139349
-0.137487
-0.135686
-0.133944
-0.13226
-0.130632
-0.129061
-0.127544
-0.12608
-0.124669
-0.123309
-0.122
-0.120739
-0.119527
-0.118362
-0.117244
-0.116171
-0.115143
-0.114159
-0.113217
-0.112318
-0.11146
-0.110644
-0.109867
-0.10913
-0.108432
-0.107773
-0.107151
-0.106566
-0.106019
-0.105507
-0.105032
-0.104592
-0.104188
-0.103818
-0.103483
-0.103182
-0.102915
-0.102682
-0.102483
-0.102317
-0.102185
-0.102085
-0.102019
-0.101986
-0.24871
-0.244972
-0.240972
-0.236936
-0.232889
-0.228852
-0.22485
-0.220904
-0.217023
-0.213212
-0.209476
-0.205815
-0.202232
-0.198727
-0.195301
-0.191954
-0.188686
-0.185496
-0.182385
-0.179352
-0.176395
-0.173514
-0.170709
-0.167979
-0.165321
-0.162737
-0.160224
-0.157782
-0.155409
-0.153105
-0.150868
-0.148698
-0.146593
-0.144552
-0.142573
-0.140657
-0.138801
-0.137004
-0.135266
-0.133585
-0.13196
-0.13039
-0.128874
-0.127411
-0.126
-0.124639
-0.123329
-0.122067
-0.120853
-0.119686
-0.118565
-0.11749
-0.116459
-0.115472
-0.114527
-0.113625
-0.112764
-0.111945
-0.111165
-0.110425
-0.109724
-0.109061
-0.108436
-0.107849
-0.107299
-0.106785
-0.106307
-0.105865
-0.105458
-0.105086
-0.104749
-0.104447
-0.104178
-0.103944
-0.103743
-0.103577
-0.103443
-0.103343
-0.103277
-0.103244
-0.248283
-0.24464
-0.240743
-0.236805
-0.232849
-0.228896
-0.224975
-0.221105
-0.217295
-0.213553
-0.209881
-0.206282
-0.202757
-0.199308
-0.195934
-0.192637
-0.189416
-0.18627
-0.1832
-0.180206
-0.177285
-0.174438
-0.171664
-0.168963
-0.166332
-0.163772
-0.161282
-0.158861
-0.156507
-0.15422
-0.151999
-0.149843
-0.14775
-0.14572
-0.143752
-0.141844
-0.139996
-0.138206
-0.136474
-0.134798
-0.133177
-0.131611
-0.130097
-0.128636
-0.127226
-0.125867
-0.124557
-0.123295
-0.122081
-0.120913
-0.119792
-0.118715
-0.117683
-0.116694
-0.115748
-0.114844
-0.113981
-0.113159
-0.112378
-0.111635
-0.110932
-0.110267
-0.109641
-0.109051
-0.108499
-0.107983
-0.107503
-0.107059
-0.106651
-0.106278
-0.105939
-0.105635
-0.105366
-0.10513
-0.104929
-0.104761
-0.104627
-0.104527
-0.10446
-0.104427
-0.24777
-0.244215
-0.240413
-0.236568
-0.232699
-0.228828
-0.224984
-0.221186
-0.217445
-0.213769
-0.210159
-0.20662
-0.203153
-0.199758
-0.196436
-0.193187
-0.190012
-0.18691
-0.183881
-0.180925
-0.178041
-0.175228
-0.172486
-0.169813
-0.167211
-0.164676
-0.16221
-0.15981
-0.157477
-0.155208
-0.153004
-0.150864
-0.148785
-0.146768
-0.144811
-0.142914
-0.141075
-0.139294
-0.137569
-0.1359
-0.134284
-0.132723
-0.131214
-0.129756
-0.12835
-0.126992
-0.125684
-0.124424
-0.123211
-0.122044
-0.120923
-0.119847
-0.118814
-0.117825
-0.116879
-0.115974
-0.115111
-0.114288
-0.113505
-0.112762
-0.112057
-0.111391
-0.110763
-0.110172
-0.109619
-0.109102
-0.108621
-0.108176
-0.107766
-0.107392
-0.107052
-0.106748
-0.106477
-0.106241
-0.106039
-0.105871
-0.105737
-0.105636
-0.105569
-0.105535
-0.247175
-0.243699
-0.239987
-0.23623
-0.232444
-0.22865
-0.22488
-0.221152
-0.217479
-0.213865
-0.210317
-0.206836
-0.203424
-0.200081
-0.19681
-0.193609
-0.190479
-0.18742
-0.184432
-0.181514
-0.178666
-0.175887
-0.173177
-0.170535
-0.16796
-0.165452
-0.163011
-0.160634
-0.158322
-0.156073
-0.153887
-0.151763
-0.1497
-0.147697
-0.145754
-0.143868
-0.14204
-0.140269
-0.138553
-0.136891
-0.135283
-0.133728
-0.132225
-0.130773
-0.12937
-0.128017
-0.126712
-0.125455
-0.124245
-0.12308
-0.121961
-0.120886
-0.119854
-0.118866
-0.11792
-0.117016
-0.116153
-0.11533
-0.114547
-0.113803
-0.113099
-0.112432
-0.111804
-0.111212
-0.110658
-0.110141
-0.109659
-0.109213
-0.108803
-0.108428
-0.108088
-0.107783
-0.107512
-0.107276
-0.107073
-0.106905
-0.10677
-0.106669
-0.106602
-0.106569
-0.246502
-0.243093
-0.239466
-0.235792
-0.232085
-0.228368
-0.224668
-0.221008
-0.217399
-0.213847
-0.210357
-0.206932
-0.203574
-0.200283
-0.19706
-0.193906
-0.190821
-0.187804
-0.184857
-0.181977
-0.179165
-0.17642
-0.173742
-0.171131
-0.168585
-0.166104
-0.163687
-0.161334
-0.159044
-0.156816
-0.15465
-0.152544
-0.150497
-0.14851
-0.146581
-0.144709
-0.142893
-0.141132
-0.139427
-0.137775
-0.136175
-0.134628
-0.133132
-0.131686
-0.130289
-0.128942
-0.127642
-0.126389
-0.125182
-0.124021
-0.122904
-0.121832
-0.120803
-0.119816
-0.118872
-0.117969
-0.117107
-0.116286
-0.115503
-0.114761
-0.114056
-0.11339
-0.112762
-0.112171
-0.111617
-0.111099
-0.110618
-0.110172
-0.109762
-0.109387
-0.109047
-0.108741
-0.108471
-0.108234
-0.108031
-0.107863
-0.107728
-0.107627
-0.10756
-0.107526
-0.245755
-0.2424
-0.238849
-0.235257
-0.231627
-0.227982
-0.224352
-0.220757
-0.21721
-0.213717
-0.210285
-0.206914
-0.203608
-0.200367
-0.197192
-0.194084
-0.191042
-0.188067
-0.185159
-0.182317
-0.179541
-0.176831
-0.174185
-0.171604
-0.169087
-0.166634
-0.164243
-0.161915
-0.159647
-0.157441
-0.155295
-0.153208
-0.151179
-0.149208
-0.147294
-0.145437
-0.143634
-0.141886
-0.140192
-0.138551
-0.136962
-0.135423
-0.133936
-0.132498
-0.131108
-0.129767
-0.128473
-0.127225
-0.126023
-0.124867
-0.123754
-0.122686
-0.12166
-0.120677
-0.119735
-0.118835
-0.117975
-0.117155
-0.116375
-0.115633
-0.114931
-0.114266
-0.113638
-0.113048
-0.112495
-0.111978
-0.111497
-0.111052
-0.110642
-0.110267
-0.109928
-0.109623
-0.109352
-0.109115
-0.108913
-0.108745
-0.10861
-0.108509
-0.108442
-0.108408
-0.244939
-0.241612
-0.238136
-0.234626
-0.231073
-0.227499
-0.223935
-0.220403
-0.216916
-0.213481
-0.210102
-0.206785
-0.203529
-0.200336
-0.197208
-0.194144
-0.191146
-0.188212
-0.185343
-0.182538
-0.179798
-0.177122
-0.174509
-0.171959
-0.169471
-0.167045
-0.164681
-0.162377
-0.160134
-0.15795
-0.155825
-0.153757
-0.151748
-0.149794
-0.147897
-0.146055
-0.144267
-0.142533
-0.140851
-0.139222
-0.137644
-0.136116
-0.134638
-0.133209
-0.131827
-0.130494
-0.129207
-0.127966
-0.12677
-0.125619
-0.124512
-0.123448
-0.122427
-0.121448
-0.12051
-0.119613
-0.118756
-0.117939
-0.117161
-0.116422
-0.115721
-0.115058
-0.114433
-0.113844
-0.113292
-0.112777
-0.112297
-0.111853
-0.111444
-0.11107
-0.110731
-0.110426
-0.110156
-0.10992
-0.109718
-0.10955
-0.109415
-0.109315
-0.109248
-0.109214
-0.244058
-0.240722
-0.237326
-0.233905
-0.230427
-0.226921
-0.223421
-0.219949
-0.21652
-0.21314
-0.209815
-0.206548
-0.203341
-0.200195
-0.197112
-0.194092
-0.191135
-0.188241
-0.185411
-0.182643
-0.179939
-0.177296
-0.174716
-0.172196
-0.169738
-0.167341
-0.165003
-0.162725
-0.160506
-0.158345
-0.156242
-0.154195
-0.152205
-0.15027
-0.148391
-0.146565
-0.144793
-0.143073
-0.141405
-0.139789
-0.138223
-0.136707
-0.135239
-0.13382
-0.132448
-0.131124
-0.129845
-0.128612
-0.127423
-0.126279
-0.125178
-0.12412
-0.123104
-0.122129
-0.121196
-0.120303
-0.11945
-0.118637
-0.117863
-0.117127
-0.116429
-0.115769
-0.115145
-0.114559
-0.114009
-0.113495
-0.113017
-0.112574
-0.112167
-0.111794
-0.111456
-0.111152
-0.110883
-0.110648
-0.110446
-0.110279
-0.110145
-0.110044
-0.109977
-0.109944
-0.243085
-0.239707
-0.236433
-0.233104
-0.229695
-0.226252
-0.222813
-0.219401
-0.216026
-0.212699
-0.209425
-0.206207
-0.203047
-0.199947
-0.196908
-0.19393
-0.191014
-0.188159
-0.185367
-0.182635
-0.179966
-0.177357
-0.174809
-0.172321
-0.169892
-0.167523
-0.165213
-0.162961
-0.160766
-0.158629
-0.156548
-0.154523
-0.152553
-0.150638
-0.148777
-0.146968
-0.145213
-0.143509
-0.141856
-0.140254
-0.138701
-0.137197
-0.135741
-0.134333
-0.132972
-0.131657
-0.130388
-0.129163
-0.127983
-0.126846
-0.125752
-0.124701
-0.123691
-0.122723
-0.121795
-0.120907
-0.120059
-0.11925
-0.11848
-0.117748
-0.117054
-0.116397
-0.115776
-0.115193
-0.114646
-0.114134
-0.113658
-0.113217
-0.112811
-0.11244
-0.112104
-0.111801
-0.111533
-0.111299
-0.111098
-0.110931
-0.110798
-0.110698
-0.110631
-0.110598
-0.241904
-0.23863
-0.235494
-0.232233
-0.22888
-0.225497
-0.222117
-0.21876
-0.215438
-0.212161
-0.208935
-0.205764
-0.202649
-0.199593
-0.196597
-0.19366
-0.190783
-0.187968
-0.185212
-0.182517
-0.179882
-0.177307
-0.174791
-0.172334
-0.169935
-0.167595
-0.165312
-0.163086
-0.160917
-0.158804
-0.156746
-0.154743
-0.152795
-0.150899
-0.149057
-0.147267
-0.145529
-0.143842
-0.142205
-0.140617
-0.139079
-0.137588
-0.136145
-0.134749
-0.1334
-0.132096
-0.130836
-0.129622
-0.12845
-0.127322
-0.126236
-0.125193
-0.12419
-0.123228
-0.122307
-0.121425
-0.120583
-0.119779
-0.119014
-0.118286
-0.117596
-0.116943
-0.116326
-0.115746
-0.115202
-0.114693
-0.11422
-0.113782
-0.113378
-0.113009
-0.112674
-0.112373
-0.112106
-0.111873
-0.111673
-0.111507
-0.111375
-0.111275
-0.111209
-0.111176
-0.24066
-0.237619
-0.234511
-0.231291
-0.22799
-0.224664
-0.221338
-0.218032
-0.214759
-0.211529
-0.208349
-0.205222
-0.202151
-0.199137
-0.196182
-0.193285
-0.190447
-0.187669
-0.18495
-0.18229
-0.17969
-0.177147
-0.174664
-0.172237
-0.169869
-0.167557
-0.165302
-0.163103
-0.16096
-0.158871
-0.156837
-0.154857
-0.15293
-0.151056
-0.149234
-0.147463
-0.145743
-0.144073
-0.142453
-0.140881
-0.139358
-0.137882
-0.136453
-0.13507
-0.133733
-0.13244
-0.131192
-0.129988
-0.128827
-0.127708
-0.126631
-0.125596
-0.124601
-0.123647
-0.122733
-0.121858
-0.121022
-0.120224
-0.119464
-0.118742
-0.118056
-0.117408
-0.116796
-0.116219
-0.115679
-0.115173
-0.114703
-0.114268
-0.113867
-0.1135
-0.113167
-0.112868
-0.112603
-0.112371
-0.112173
-0.112008
-0.111876
-0.111777
-0.111711
-0.111678
-0.23948
-0.236544
-0.233461
-0.23028
-0.227033
-0.223756
-0.220478
-0.217217
-0.21399
-0.210805
-0.207668
-0.204584
-0.201554
-0.198581
-0.195665
-0.192807
-0.190007
-0.187266
-0.184583
-0.181958
-0.179391
-0.176881
-0.174429
-0.172034
-0.169696
-0.167413
-0.165186
-0.163014
-0.160897
-0.158834
-0.156824
-0.154867
-0.152963
-0.15111
-0.149309
-0.147558
-0.145857
-0.144206
-0.142603
-0.141048
-0.13954
-0.13808
-0.136665
-0.135296
-0.133972
-0.132692
-0.131456
-0.130263
-0.129113
-0.128005
-0.126938
-0.125912
-0.124926
-0.12398
-0.123074
-0.122206
-0.121377
-0.120586
-0.119832
-0.119116
-0.118436
-0.117792
-0.117185
-0.116613
-0.116077
-0.115575
-0.115108
-0.114676
-0.114278
-0.113914
-0.113584
-0.113287
-0.113024
-0.112793
-0.112597
-0.112433
-0.112302
-0.112203
-0.112138
-0.112105
-0.238277
-0.235395
-0.23234
-0.229201
-0.226
-0.222769
-0.219535
-0.216318
-0.213133
-0.209989
-0.206894
-0.20385
-0.20086
-0.197925
-0.195048
-0.192227
-0.189464
-0.186759
-0.184111
-0.18152
-0.178987
-0.176511
-0.17409
-0.171726
-0.169418
-0.167164
-0.164966
-0.162821
-0.16073
-0.158693
-0.156708
-0.154775
-0.152894
-0.151063
-0.149283
-0.147553
-0.145872
-0.144239
-0.142655
-0.141117
-0.139627
-0.138182
-0.136783
-0.135429
-0.134119
-0.132853
-0.131629
-0.130449
-0.12931
-0.128213
-0.127157
-0.126141
-0.125165
-0.124228
-0.12333
-0.122471
-0.121649
-0.120865
-0.120118
-0.119408
-0.118735
-0.118097
-0.117495
-0.116928
-0.116396
-0.115899
-0.115436
-0.115007
-0.114613
-0.114252
-0.113924
-0.11363
-0.113368
-0.11314
-0.112945
-0.112782
-0.112652
-0.112555
-0.11249
-0.112458
-0.237006
-0.234172
-0.23115
-0.22805
-0.224891
-0.221701
-0.218508
-0.215331
-0.212187
-0.209083
-0.206026
-0.20302
-0.200068
-0.197172
-0.194331
-0.191547
-0.18882
-0.18615
-0.183537
-0.18098
-0.17848
-0.176036
-0.173648
-0.171315
-0.169036
-0.166812
-0.164642
-0.162525
-0.160462
-0.15845
-0.156491
-0.154582
-0.152725
-0.150917
-0.149159
-0.14745
-0.14579
-0.144177
-0.142611
-0.141092
-0.139619
-0.138191
-0.136808
-0.13547
-0.134175
-0.132923
-0.131713
-0.130546
-0.12942
-0.128334
-0.127289
-0.126284
-0.125318
-0.124391
-0.123503
-0.122652
-0.121839
-0.121063
-0.120324
-0.119621
-0.118954
-0.118322
-0.117726
-0.117164
-0.116638
-0.116145
-0.115687
-0.115262
-0.114871
-0.114513
-0.114189
-0.113897
-0.113638
-0.113412
-0.113219
-0.113058
-0.112929
-0.112832
-0.112768
-0.112736
-0.235666
-0.232877
-0.229887
-0.226824
-0.223704
-0.220552
-0.217397
-0.214258
-0.211151
-0.208084
-0.205065
-0.202096
-0.199181
-0.196321
-0.193516
-0.190768
-0.188076
-0.185441
-0.182862
-0.180339
-0.177872
-0.17546
-0.173103
-0.170801
-0.168553
-0.166359
-0.164217
-0.162129
-0.160092
-0.158107
-0.156173
-0.15429
-0.152457
-0.150673
-0.148938
-0.147251
-0.145611
-0.144019
-0.142473
-0.140973
-0.139519
-0.138109
-0.136743
-0.13542
-0.134141
-0.132904
-0.131709
-0.130555
-0.129442
-0.12837
-0.127337
-0.126343
-0.125388
-0.124472
-0.123593
-0.122752
-0.121948
-0.12118
-0.120449
-0.119754
-0.119094
-0.118469
-0.117879
-0.117323
-0.116802
-0.116315
-0.115861
-0.115441
-0.115054
-0.1147
-0.114379
-0.11409
-0.113834
-0.11361
-0.113418
-0.113259
-0.113131
-0.113036
-0.112972
-0.11294
-0.23426
-0.23151
-0.22855
-0.225521
-0.222436
-0.219319
-0.2162
-0.213097
-0.210025
-0.206994
-0.20401
-0.201077
-0.198197
-0.195372
-0.192603
-0.18989
-0.187232
-0.184631
-0.182086
-0.179596
-0.177162
-0.174783
-0.172458
-0.170187
-0.167969
-0.165805
-0.163693
-0.161632
-0.159624
-0.157666
-0.155758
-0.153901
-0.152092
-0.150332
-0.148621
-0.146956
-0.145339
-0.143768
-0.142242
-0.140762
-0.139327
-0.137935
-0.136587
-0.135282
-0.134019
-0.132798
-0.131618
-0.130479
-0.12938
-0.12832
-0.1273
-0.126319
-0.125376
-0.12447
-0.123602
-0.122771
-0.121977
-0.121218
-0.120495
-0.119808
-0.119156
-0.118538
-0.117955
-0.117406
-0.116891
-0.116409
-0.11596
-0.115545
-0.115162
-0.114812
-0.114495
-0.114209
-0.113956
-0.113734
-0.113545
-0.113387
-0.113261
-0.113167
-0.113104
-0.113072
-0.232786
-0.230069
-0.227137
-0.224138
-0.221085
-0.218002
-0.214915
-0.211846
-0.208808
-0.205812
-0.202862
-0.199963
-0.197118
-0.194327
-0.191592
-0.188913
-0.18629
-0.183723
-0.181211
-0.178755
-0.176353
-0.174006
-0.171713
-0.169473
-0.167286
-0.165152
-0.163069
-0.161038
-0.159058
-0.157127
-0.155247
-0.153415
-0.151632
-0.149897
-0.148209
-0.146568
-0.144974
-0.143424
-0.14192
-0.140461
-0.139045
-0.137673
-0.136343
-0.135055
-0.13381
-0.132605
-0.131441
-0.130317
-0.129233
-0.128187
-0.127181
-0.126212
-0.125281
-0.124388
-0.123531
-0.122711
-0.121926
-0.121177
-0.120464
-0.119785
-0.119141
-0.118531
-0.117955
-0.117413
-0.116904
-0.116428
-0.115985
-0.115575
-0.115197
-0.114851
-0.114537
-0.114255
-0.114005
-0.113786
-0.113599
-0.113443
-0.113318
-0.113225
-0.113163
-0.113132
-0.231242
-0.228552
-0.225645
-0.222673
-0.21965
-0.216597
-0.213542
-0.210505
-0.207499
-0.204535
-0.201618
-0.198753
-0.195941
-0.193184
-0.190483
-0.187838
-0.185249
-0.182715
-0.180237
-0.177814
-0.175445
-0.17313
-0.170869
-0.168661
-0.166505
-0.164401
-0.162349
-0.160347
-0.158395
-0.156493
-0.15464
-0.152835
-0.151078
-0.149368
-0.147705
-0.146088
-0.144517
-0.14299
-0.141508
-0.14007
-0.138675
-0.137322
-0.136012
-0.134743
-0.133515
-0.132327
-0.13118
-0.130072
-0.129003
-0.127972
-0.12698
-0.126025
-0.125107
-0.124226
-0.123381
-0.122571
-0.121798
-0.121059
-0.120355
-0.119686
-0.119051
-0.118449
-0.117881
-0.117345
-0.116843
-0.116374
-0.115936
-0.115531
-0.115158
-0.114817
-0.114507
-0.114229
-0.113982
-0.113766
-0.113581
-0.113427
-0.113304
-0.113212
-0.113151
-0.11312
-0.229621
-0.226956
-0.22407
-0.221123
-0.218126
-0.215102
-0.212077
-0.20907
-0.206096
-0.203163
-0.200279
-0.197446
-0.194667
-0.191944
-0.189276
-0.186665
-0.184109
-0.181609
-0.179164
-0.176774
-0.174439
-0.172157
-0.169928
-0.167752
-0.165627
-0.163554
-0.161532
-0.15956
-0.157638
-0.155764
-0.153939
-0.152162
-0.150431
-0.148748
-0.14711
-0.145518
-0.143971
-0.142467
-0.141008
-0.139591
-0.138217
-0.136885
-0.135595
-0.134345
-0.133136
-0.131966
-0.130836
-0.129745
-0.128692
-0.127676
-0.126699
-0.125758
-0.124853
-0.123985
-0.123152
-0.122355
-0.121593
-0.120865
-0.120171
-0.119511
-0.118885
-0.118292
-0.117732
-0.117204
-0.116709
-0.116246
-0.115815
-0.115416
-0.115048
-0.114712
-0.114406
-0.114132
-0.113888
-0.113675
-0.113493
-0.113341
-0.11322
-0.113129
-0.113069
-0.113038
-0.22792
-0.225275
-0.222408
-0.219483
-0.216512
-0.213515
-0.210518
-0.20754
-0.204596
-0.201695
-0.198842
-0.196041
-0.193295
-0.190605
-0.18797
-0.185392
-0.18287
-0.180404
-0.177993
-0.175637
-0.173334
-0.171086
-0.168889
-0.166746
-0.164653
-0.162612
-0.160621
-0.158679
-0.156786
-0.154942
-0.153146
-0.151396
-0.149694
-0.148037
-0.146425
-0.144858
-0.143336
-0.141857
-0.14042
-0.139027
-0.137675
-0.136364
-0.135094
-0.133864
-0.132674
-0.131523
-0.130411
-0.129337
-0.1283
-0.127301
-0.126339
-0.125412
-0.124522
-0.123667
-0.122848
-0.122063
-0.121312
-0.120596
-0.119913
-0.119263
-0.118646
-0.118062
-0.11751
-0.116991
-0.116503
-0.116047
-0.115623
-0.115229
-0.114867
-0.114536
-0.114235
-0.113964
-0.113724
-0.113515
-0.113335
-0.113186
-0.113066
-0.112977
-0.112917
-0.112887
-0.226133
-0.223505
-0.220655
-0.217751
-0.214803
-0.211831
-0.208861
-0.205912
-0.202998
-0.200127
-0.197305
-0.194537
-0.191823
-0.189166
-0.186565
-0.184021
-0.181533
-0.179101
-0.176724
-0.174401
-0.172133
-0.169918
-0.167755
-0.165644
-0.163584
-0.161575
-0.159615
-0.157705
-0.155843
-0.154029
-0.152261
-0.150541
-0.148866
-0.147237
-0.145652
-0.144111
-0.142614
-0.14116
-0.139748
-0.138377
-0.137048
-0.135759
-0.13451
-0.133301
-0.132131
-0.130999
-0.129906
-0.128849
-0.12783
-0.126848
-0.125901
-0.12499
-0.124115
-0.123274
-0.122468
-0.121696
-0.120957
-0.120253
-0.119581
-0.118941
-0.118335
-0.11776
-0.117217
-0.116706
-0.116227
-0.115778
-0.11536
-0.114973
-0.114616
-0.11429
-0.113994
-0.113728
-0.113492
-0.113286
-0.113109
-0.112962
-0.112844
-0.112756
-0.112697
-0.112668
-0.224254
-0.221639
-0.218805
-0.21592
-0.212994
-0.210047
-0.207104
-0.204183
-0.201298
-0.198458
-0.195668
-0.192931
-0.190251
-0.187627
-0.18506
-0.18255
-0.180097
-0.177699
-0.175357
-0.173069
-0.170835
-0.168654
-0.166525
-0.164448
-0.162421
-0.160444
-0.158517
-0.156639
-0.154808
-0.153024
-0.151287
-0.149596
-0.14795
-0.146349
-0.144792
-0.143278
-0.141807
-0.140378
-0.138991
-0.137645
-0.136339
-0.135073
-0.133846
-0.132658
-0.131508
-0.130397
-0.129322
-0.128284
-0.127283
-0.126318
-0.125388
-0.124493
-0.123633
-0.122806
-0.122014
-0.121256
-0.12053
-0.119837
-0.119177
-0.118549
-0.117952
-0.117388
-0.116854
-0.116352
-0.11588
-0.115439
-0.115028
-0.114648
-0.114297
-0.113977
-0.113686
-0.113424
-0.113192
-0.112989
-0.112815
-0.112671
-0.112555
-0.112468
-0.112411
-0.112382
-0.222275
-0.219673
-0.216853
-0.213986
-0.211082
-0.208159
-0.205242
-0.20235
-0.199494
-0.196685
-0.193927
-0.191223
-0.188576
-0.185987
-0.183454
-0.180979
-0.178561
-0.176199
-0.173892
-0.171639
-0.16944
-0.167294
-0.1652
-0.163157
-0.161165
-0.159222
-0.157327
-0.155481
-0.153683
-0.151931
-0.150225
-0.148564
-0.146948
-0.145376
-0.143847
-0.142361
-0.140916
-0.139514
-0.138152
-0.13683
-0.135549
-0.134306
-0.133102
-0.131936
-0.130808
-0.129716
-0.128662
-0.127643
-0.12666
-0.125713
-0.1248
-0.123921
-0.123077
-0.122266
-0.121488
-0.120743
-0.120031
-0.119351
-0.118703
-0.118086
-0.1175
-0.116946
-0.116422
-0.115929
-0.115466
-0.115032
-0.114629
-0.114255
-0.113911
-0.113596
-0.11331
-0.113053
-0.112825
-0.112626
-0.112456
-0.112313
-0.1122
-0.112115
-0.112058
-0.11203
-0.22019
-0.217599
-0.214793
-0.211943
-0.209061
-0.206163
-0.203273
-0.200409
-0.197584
-0.194806
-0.19208
-0.189411
-0.186798
-0.184243
-0.181747
-0.179307
-0.176925
-0.174599
-0.172328
-0.170112
-0.167949
-0.165839
-0.163781
-0.161773
-0.159816
-0.157907
-0.156047
-0.154235
-0.152469
-0.150749
-0.149075
-0.147445
-0.14586
-0.144317
-0.142818
-0.14136
-0.139943
-0.138568
-0.137232
-0.135936
-0.134679
-0.133461
-0.13228
-0.131137
-0.13003
-0.12896
-0.127926
-0.126927
-0.125963
-0.125034
-0.124139
-0.123278
-0.122449
-0.121654
-0.120892
-0.120161
-0.119462
-0.118795
-0.118159
-0.117554
-0.11698
-0.116436
-0.115922
-0.115438
-0.114984
-0.114559
-0.114164
-0.113797
-0.113459
-0.11315
-0.11287
-0.112618
-0.112394
-0.112198
-0.112031
-0.111892
-0.11178
-0.111697
-0.111641
-0.111613
-0.21799
-0.215411
-0.212618
-0.209787
-0.206927
-0.204054
-0.201191
-0.198357
-0.195564
-0.192818
-0.190127
-0.187492
-0.184915
-0.182396
-0.179936
-0.177534
-0.175189
-0.172901
-0.170667
-0.168488
-0.166363
-0.16429
-0.162268
-0.160297
-0.158375
-0.156503
-0.154678
-0.1529
-0.151168
-0.149481
-0.14784
-0.146242
-0.144688
-0.143176
-0.141706
-0.140278
-0.13889
-0.137542
-0.136233
-0.134964
-0.133732
-0.132538
-0.131382
-0.130262
-0.129178
-0.12813
-0.127117
-0.126138
-0.125194
-0.124284
-0.123407
-0.122563
-0.121752
-0.120973
-0.120226
-0.11951
-0.118825
-0.118172
-0.117549
-0.116956
-0.116393
-0.11586
-0.115357
-0.114882
-0.114437
-0.114021
-0.113633
-0.113274
-0.112943
-0.11264
-0.112365
-0.112118
-0.111899
-0.111707
-0.111543
-0.111406
-0.111297
-0.111215
-0.111161
-0.111133
-0.215668
-0.2131
-0.210322
-0.20751
-0.204673
-0.201827
-0.198994
-0.196191
-0.19343
-0.19072
-0.188063
-0.185465
-0.182925
-0.180444
-0.178022
-0.175659
-0.173353
-0.171103
-0.168909
-0.166768
-0.164681
-0.162647
-0.160663
-0.158729
-0.156845
-0.155009
-0.15322
-0.151477
-0.14978
-0.148128
-0.14652
-0.144956
-0.143434
-0.141953
-0.140514
-0.139116
-0.137757
-0.136438
-0.135157
-0.133915
-0.132709
-0.131541
-0.130409
-0.129313
-0.128253
-0.127227
-0.126236
-0.125278
-0.124354
-0.123464
-0.122605
-0.12178
-0.120986
-0.120223
-0.119492
-0.118791
-0.118122
-0.117482
-0.116872
-0.116292
-0.115741
-0.115219
-0.114726
-0.114262
-0.113826
-0.113419
-0.113039
-0.112687
-0.112363
-0.112067
-0.111798
-0.111556
-0.111341
-0.111154
-0.110993
-0.110859
-0.110752
-0.110672
-0.110618
-0.110592
-0.213216
-0.210661
-0.207898
-0.205108
-0.202296
-0.199479
-0.196677
-0.193907
-0.191182
-0.188507
-0.185889
-0.183328
-0.180828
-0.178387
-0.176005
-0.173681
-0.171416
-0.169206
-0.167052
-0.164952
-0.162905
-0.16091
-0.158966
-0.157071
-0.155225
-0.153427
-0.151675
-0.149969
-0.148308
-0.146692
-0.145118
-0.143588
-0.142099
-0.140651
-0.139244
-0.137876
-0.136548
-0.135258
-0.134006
-0.132791
-0.131613
-0.13047
-0.129364
-0.128293
-0.127256
-0.126253
-0.125284
-0.124348
-0.123445
-0.122575
-0.121736
-0.120929
-0.120152
-0.119407
-0.118692
-0.118007
-0.117353
-0.116727
-0.116131
-0.115564
-0.115025
-0.114515
-0.114033
-0.113579
-0.113153
-0.112755
-0.112383
-0.112039
-0.111722
-0.111433
-0.111169
-0.110933
-0.110723
-0.110539
-0.110382
-0.110251
-0.110147
-0.110068
-0.110016
-0.10999
-0.210626
-0.208085
-0.205341
-0.202574
-0.19979
-0.197004
-0.194236
-0.191503
-0.188815
-0.186179
-0.1836
-0.181081
-0.178621
-0.176222
-0.173883
-0.171601
-0.169378
-0.167211
-0.165099
-0.163041
-0.161036
-0.159082
-0.157178
-0.155323
-0.153517
-0.151758
-0.150045
-0.148377
-0.146753
-0.145173
-0.143635
-0.142139
-0.140685
-0.13927
-0.137896
-0.13656
-0.135263
-0.134003
-0.13278
-0.131594
-0.130443
-0.129328
-0.128248
-0.127202
-0.12619
-0.125211
-0.124265
-0.123351
-0.122469
-0.121619
-0.1208
-0.120012
-0.119254
-0.118526
-0.117828
-0.11716
-0.11652
-0.115909
-0.115327
-0.114773
-0.114247
-0.113749
-0.113279
-0.112835
-0.112419
-0.11203
-0.111667
-0.111331
-0.111022
-0.110738
-0.110481
-0.11025
-0.110045
-0.109866
-0.109712
-0.109585
-0.109482
-0.109406
-0.109355
-0.109329
-0.20789
-0.205367
-0.202644
-0.199904
-0.197152
-0.194399
-0.191668
-0.188974
-0.186327
-0.183733
-0.181197
-0.178721
-0.176306
-0.173951
-0.171655
-0.169419
-0.16724
-0.165117
-0.163049
-0.161035
-0.159073
-0.157162
-0.1553
-0.153488
-0.151722
-0.150004
-0.14833
-0.146702
-0.145116
-0.143574
-0.142073
-0.140613
-0.139194
-0.137814
-0.136473
-0.13517
-0.133904
-0.132675
-0.131483
-0.130326
-0.129204
-0.128116
-0.127063
-0.126043
-0.125056
-0.124101
-0.123179
-0.122288
-0.121428
-0.120599
-0.1198
-0.119031
-0.118292
-0.117583
-0.116902
-0.11625
-0.115626
-0.11503
-0.114463
-0.113922
-0.113409
-0.112923
-0.112464
-0.112032
-0.111626
-0.111246
-0.110892
-0.110564
-0.110262
-0.109986
-0.109735
-0.10951
-0.10931
-0.109135
-0.108985
-0.10886
-0.108761
-0.108686
-0.108636
-0.108611
-0.205002
-0.202499
-0.199802
-0.197093
-0.194375
-0.191661
-0.188971
-0.18632
-0.183716
-0.181168
-0.178678
-0.176248
-0.17388
-0.171572
-0.169324
-0.167134
-0.165002
-0.162926
-0.160904
-0.158935
-0.157018
-0.155152
-0.153335
-0.151565
-0.149843
-0.148166
-0.146534
-0.144945
-0.1434
-0.141896
-0.140433
-0.139011
-0.137627
-0.136283
-0.134976
-0.133707
-0.132474
-0.131277
-0.130116
-0.128989
-0.127896
-0.126837
-0.125811
-0.124818
-0.123856
-0.122927
-0.122028
-0.12116
-0.120323
-0.119516
-0.118738
-0.117989
-0.117269
-0.116578
-0.115915
-0.11528
-0.114672
-0.114092
-0.113539
-0.113012
-0.112513
-0.112039
-0.111592
-0.111171
-0.110775
-0.110405
-0.11006
-0.109741
-0.109447
-0.109177
-0.108933
-0.108713
-0.108518
-0.108348
-0.108202
-0.10808
-0.107983
-0.10791
-0.107862
-0.107837
-0.201954
-0.199477
-0.19681
-0.194136
-0.191458
-0.188787
-0.186142
-0.183537
-0.180982
-0.178482
-0.176042
-0.173662
-0.171344
-0.169086
-0.166887
-0.164748
-0.162665
-0.160637
-0.158664
-0.156743
-0.154873
-0.153053
-0.151282
-0.149558
-0.14788
-0.146246
-0.144657
-0.14311
-0.141605
-0.140142
-0.138718
-0.137334
-0.135988
-0.13468
-0.133409
-0.132174
-0.130975
-0.12981
-0.128681
-0.127585
-0.126522
-0.125492
-0.124494
-0.123528
-0.122593
-0.121689