/*--------------------------------*- C++ -*----------------------------------*\
  =========                 |
  \\      /  F ield         | OpenFOAM: The Open Source CFD Toolbox
   \\    /   O peration     | Website:  https://openfoam.org
    \\  /    A nd           | Version:  7
     \\/     M anipulation  |
\*---------------------------------------------------------------------------*/
FoamFile
{
    version     2.0;
    format      ascii;
    class       volVectorField;
    location    "24.999";
    object      U;
}
// * * * * * * * * * * * * * * * * * * * * * * * * * * * * * * * * * * * * * //

dimensions      [0 1 -1 0 0 0 0];

internalField   nonuniform List<vector> 
11400
(
(1.153 -0.0292075 0)
(1.15167 -0.0280931 0)
(1.1504 -0.026988 0)
(1.14918 -0.0258917 -1.99982e-11)
(1.148 -0.0248041 -1.98333e-11)
(1.14687 -0.0237248 0)
(1.1458 -0.0226537 0)
(1.14477 -0.0215905 -1.00619e-28)
(1.14379 -0.0205348 1.40748e-27)
(1.14286 -0.0194863 -1.61754e-27)
(1.14198 -0.0184447 0)
(1.14114 -0.0174097 0)
(1.14036 -0.016381 0)
(1.13962 -0.0153582 -1.86853e-11)
(1.13892 -0.014341 -1.85927e-11)
(1.13828 -0.0133291 0)
(1.13768 -0.012322 0)
(1.13712 -0.0113195 0)
(1.13662 -0.0103212 0)
(1.13616 -0.00932671 1.82269e-11)
(1.13575 -0.00833568 1.81726e-11)
(1.13538 -0.00734776 0)
(1.13506 -0.00636256 0)
(1.13478 -0.0053797 -1.80466e-11)
(1.13455 -0.00439879 -1.80167e-11)
(1.13437 -0.00341946 0)
(1.13423 -0.00244139 -9.32995e-29)
(1.13414 -0.00146436 9.32376e-29)
(1.1341 -0.000488058 0)
(1.21518 -0.0719171 0)
(1.24368 -0.0753328 0)
(1.26063 -0.0773736 0)
(1.26919 -0.0785092 0)
(1.27236 -0.0789039 0)
(1.27237 -0.0787792 0)
(1.27064 -0.0783353 0)
(1.26799 -0.0776998 0)
(1.26486 -0.0769432 0)
(1.26148 -0.0761039 0)
(1.25796 -0.0752029 0)
(1.25436 -0.0742514 0)
(1.25072 -0.0732557 0)
(1.24706 -0.0722202 0)
(1.24342 -0.0711492 0)
(1.23981 -0.0700474 0)
(1.23627 -0.0689196 0)
(1.23281 -0.0677705 0)
(1.22945 -0.0666043 0)
(1.22617 -0.0654243 0)
(1.22299 -0.0642331 0)
(1.21989 -0.0630327 0)
(1.21687 -0.0618248 0)
(1.21392 -0.0606107 0)
(1.21103 -0.0593918 0)
(1.20821 -0.0581693 0)
(1.20545 -0.0569444 0)
(1.20274 -0.0557184 0)
(1.2001 -0.0544924 0)
(1.19751 -0.0532676 0)
(1.19498 -0.052045 0)
(1.19251 -0.0508256 0)
(1.19009 -0.0496101 0)
(1.18774 -0.0483994 0)
(1.18543 -0.0471942 0)
(1.18319 -0.0459951 0)
(1.181 -0.0448027 0)
(1.17886 -0.0436173 0)
(1.17678 -0.0424394 0)
(1.17476 -0.0412694 0)
(1.17279 -0.0401074 0)
(1.17088 -0.0389538 0)
(1.16902 -0.0378087 0)
(1.16721 -0.0366722 0)
(1.16545 -0.0355445 0)
(1.16375 -0.0344255 0)
(1.16211 -0.0333153 0)
(1.16051 -0.0322139 0)
(1.15897 -0.0311211 0)
(1.15748 -0.030037 0)
(1.15604 -0.0289615 0)
(1.15465 -0.0278943 0)
(1.15331 -0.0268354 0)
(1.15202 -0.0257846 0)
(1.15079 -0.0247417 0)
(1.1496 -0.0237065 0)
(1.14846 -0.0226788 0)
(1.14738 -0.0216583 0)
(1.14634 -0.0206448 0)
(1.14535 -0.0196381 4.18511e-28)
(1.14441 -0.0186378 -4.18511e-28)
(1.14351 -0.0176438 0)
(1.14267 -0.0166557 0)
(1.14187 -0.0156733 0)
(1.14112 -0.0146962 0)
(1.14042 -0.0137242 0)
(1.13977 -0.0127569 0)
(1.13916 -0.011794 0)
(1.13861 -0.0108353 0)
(1.13809 -0.00988033 0)
(1.13763 -0.00892886 0)
(1.13721 -0.00798054 0)
(1.13684 -0.00703504 0)
(1.13651 -0.00609201 0)
(1.13624 -0.00515112 0)
(1.136 -0.004212 0)
(1.13582 -0.00327433 0)
(1.13568 -0.00233782 0)
(1.13559 -0.00140227 0)
(1.13555 -0.000467363 0)
(1.20913 -0.06582 0)
(1.23933 -0.0692455 0)
(1.25793 -0.071401 0)
(1.26786 -0.0727062 0)
(1.27202 -0.0732743 0)
(1.27267 -0.0733052 0)
(1.27134 -0.0729978 0)
(1.26893 -0.0724851 0)
(1.26596 -0.0718431 0)
(1.26269 -0.0711146 0)
(1.25926 -0.0703229 0)
(1.25574 -0.0694806 0)
(1.25216 -0.0685945 0)
(1.24856 -0.0676693 0)
(1.24496 -0.0667089 0)
(1.2414 -0.0657176 0)
(1.2379 -0.0646999 0)
(1.23447 -0.0636601 0)
(1.23113 -0.062602 0)
(1.22788 -0.0615289 2.79067e-27)
(1.22471 -0.0604433 -2.79067e-27)
(1.22162 -0.0593472 0)
(1.21861 -0.0582421 0)
(1.21567 -0.0571294 0)
(1.2128 -0.0560102 0)
(1.20998 -0.0548858 0)
(1.20722 -0.0537573 0)
(1.20452 -0.052626 0)
(1.20188 -0.0514929 0)
(1.19929 -0.0503592 0)
(1.19676 -0.0492258 0)
(1.19428 -0.0480937 0)
(1.19186 -0.0469638 0)
(1.1895 -0.0458368 0)
(1.18719 -0.0447135 0)
(1.18493 -0.0435945 0)
(1.18273 -0.0424804 0)
(1.18059 -0.0413716 0)
(1.1785 -0.0402686 0)
(1.17647 -0.0391719 0)
(1.17449 -0.0380816 0)
(1.17256 -0.036998 0)
(1.17069 -0.0359215 0)
(1.16887 -0.0348521 -2.82161e-28)
(1.1671 -0.0337899 2.82161e-28)
(1.16539 -0.0327352 0)
(1.16373 -0.0316879 0)
(1.16212 -0.0306481 0)
(1.16057 -0.0296157 0)
(1.15907 -0.0285908 0)
(1.15761 -0.0275732 0)
(1.15621 -0.0265629 0)
(1.15487 -0.0255598 0)
(1.15357 -0.0245638 0)
(1.15232 -0.0235747 0)
(1.15112 -0.0225924 0)
(1.14997 -0.0216167 0)
(1.14888 -0.0206473 0)
(1.14783 -0.0196842 0)
(1.14683 -0.018727 -3.03295e-11)
(1.14588 -0.0177757 3.03295e-11)
(1.14498 -0.0168298 0)
(1.14412 -0.0158893 0)
(1.14332 -0.0149538 0)
(1.14256 -0.0140231 0)
(1.14186 -0.0130969 0)
(1.1412 -0.0121749 0)
(1.14058 -0.0112569 0)
(1.14002 -0.0103427 0)
(1.1395 -0.00943181 0)
(1.13903 -0.00852408 0)
(1.13861 -0.00761919 0)
(1.13824 -0.00671684 0)
(1.13791 -0.00581672 0)
(1.13763 -0.00491851 0)
(1.13739 -0.00402192 0)
(1.13721 -0.00312664 0)
(1.13707 -0.00223243 0)
(1.13697 -0.00133909 0)
(1.13693 -0.000446311 0)
(1.20314 -0.0599289 0)
(1.23491 -0.0633394 0)
(1.25505 -0.0655821 0)
(1.2663 -0.0670309 0)
(1.27144 -0.0677557 0)
(1.27276 -0.0679337 0)
(1.27185 -0.0677581 0)
(1.26971 -0.0673643 0)
(1.2669 -0.0668331 0)
(1.26375 -0.0662107 0)
(1.26041 -0.0655232 0)
(1.25696 -0.0647846 0)
(1.25344 -0.0640027 0)
(1.2499 -0.063182 0)
(1.24635 -0.0623266 0)
(1.24284 -0.0614404 0)
(1.23937 -0.0605274 0)
(1.23597 -0.0595917 0)
(1.23266 -0.058637 0)
(1.22943 -0.0576662 0)
(1.22628 -0.0566818 0)
(1.22321 -0.0556857 0)
(1.22021 -0.0546795 0)
(1.21728 -0.0536643 0)
(1.21442 -0.0526414 0)
(1.21161 -0.0516119 0)
(1.20886 -0.0505769 0)
(1.20616 -0.0495374 0)
(1.20352 -0.0484947 0)
(1.20094 -0.0474497 0)
(1.1984 -0.0464034 0)
(1.19593 -0.0453568 0)
(1.1935 -0.0443106 0)
(1.19113 -0.0432658 0)
(1.18882 -0.042223 0)
(1.18656 -0.0411829 0)
(1.18436 -0.040146 0)
(1.1822 -0.0391129 0)
(1.18011 -0.0380841 0)
(1.17806 -0.0370599 0)
(1.17608 -0.0360406 0)
(1.17414 -0.0350267 0)
(1.17226 -0.0340183 0)
(1.17043 -0.0330157 5.29402e-28)
(1.16866 -0.032019 -5.29402e-28)
(1.16693 -0.0310284 0)
(1.16526 -0.030044 0)
(1.16365 -0.0290657 0)
(1.16208 -0.0280938 0)
(1.16057 -0.0271282 0)
(1.1591 -0.0261688 0)
(1.15769 -0.0252156 0)
(1.15634 -0.0242686 0)
(1.15503 -0.0233277 0)
(1.15377 -0.0223928 0)
(1.15256 -0.0214637 0)
(1.15141 -0.0205404 0)
(1.1503 -0.0196227 0)
(1.14924 -0.0187104 0)
(1.14823 -0.0178033 -3.0808e-11)
(1.14728 -0.0169013 3.0808e-11)
(1.14637 -0.0160042 0)
(1.14551 -0.0151117 0)
(1.1447 -0.0142237 0)
(1.14393 -0.0133399 0)
(1.14322 -0.0124602 0)
(1.14255 -0.0115842 0)
(1.14194 -0.0107117 0)
(1.14137 -0.00984254 0)
(1.14085 -0.00897641 0)
(1.14037 -0.00811306 0)
(1.13995 -0.00725224 0)
(1.13957 -0.00639369 0)
(1.13923 -0.00553713 0)
(1.13895 -0.00468228 0)
(1.13871 -0.00382888 0)
(1.13853 -0.00297665 0)
(1.13839 -0.00212539 0)
(1.13829 -0.00127492 0)
(1.13825 -0.000424928 0)
(1.19724 -0.0542426 0)
(1.23045 -0.0576144 0)
(1.25203 -0.0599185 0)
(1.26454 -0.0614857 0)
(1.27066 -0.0623488 0)
(1.27265 -0.0626633 0)
(1.27218 -0.0626133 0)
(1.27032 -0.0623338 0)
(1.2677 -0.061909 0)
(1.26466 -0.0613885 0)
(1.26141 -0.0608006 0)
(1.25803 -0.060161 0)
(1.25458 -0.0594781 0)
(1.25109 -0.058757 0)
(1.24759 -0.0580015 0)
(1.24412 -0.0572154 0)
(1.24069 -0.0564024 0)
(1.23733 -0.0555662 0)
(1.23404 -0.0547102 0)
(1.23083 -0.0538375 -4.44681e-27)
(1.2277 -0.0529503 4.44681e-27)
(1.22465 -0.0520504 0)
(1.22167 -0.0511393 0)
(1.21875 -0.0502183 0)
(1.2159 -0.0492884 0)
(1.2131 -0.0483507 0)
(1.21036 -0.0474062 0)
(1.20767 -0.046456 0)
(1.20503 -0.0455012 0)
(1.20245 -0.0445426 0)
(1.19992 -0.0435814 0)
(1.19745 -0.0426183 0)
(1.19502 -0.0416542 0)
(1.19265 -0.04069 0)
(1.19034 -0.0397263 0)
(1.18807 -0.0387638 3.45327e-27)
(1.18586 -0.0378031 -3.45327e-27)
(1.18371 -0.0368447 0)
(1.18161 -0.035889 0)
(1.17956 -0.0349366 0)
(1.17756 -0.0339878 0)
(1.17562 -0.033043 0)
(1.17373 -0.0321023 0)
(1.17189 -0.0311661 0)
(1.17011 -0.0302346 0)
(1.16838 -0.0293079 0)
(1.1667 -0.0283861 0)
(1.16507 -0.0274695 0)
(1.1635 -0.026558 0)
(1.16198 -0.0256516 0)
(1.16051 -0.0247505 0)
(1.15909 -0.0238546 2.87475e-27)
(1.15772 -0.0229639 -2.87475e-27)
(1.1564 -0.0220784 0)
(1.15514 -0.0211979 0)
(1.15392 -0.0203224 0)
(1.15276 -0.0194518 0)
(1.15164 -0.0185861 0)
(1.15058 -0.0177249 0)
(1.14956 -0.0168684 0)
(1.1486 -0.0160162 0)
(1.14768 -0.0151682 0)
(1.14682 -0.0143243 0)
(1.146 -0.0134843 0)
(1.14523 -0.012648 0)
(1.14451 -0.0118152 0)
(1.14384 -0.0109857 0)
(1.14322 -0.0101592 0)
(1.14265 -0.00933572 0)
(1.14212 -0.00851486 0)
(1.14164 -0.00769646 0)
(1.14121 -0.00688029 0)
(1.14083 -0.00606612 0)
(1.1405 -0.0052537 0)
(1.14021 -0.0044428 0)
(1.13997 -0.00363317 0)
(1.13978 -0.00282459 0)
(1.13964 -0.00201687 0)
(1.13955 -0.00120985 0)
(1.1395 -0.000403247 0)
(1.19146 -0.0487537 0)
(1.22598 -0.052065 0)
(1.2489 -0.0544074 0)
(1.26261 -0.0560699 0)
(1.26967 -0.0570535 0)
(1.27235 -0.0574929 0)
(1.27234 -0.0575613 0)
(1.27077 -0.0573912 0)
(1.26833 -0.0570684 0)
(1.26543 -0.0566454 0)
(1.26227 -0.0561528 0)
(1.25896 -0.0556077 0)
(1.25557 -0.0550193 0)
(1.25213 -0.0543931 0)
(1.24869 -0.053733 0)
(1.24526 -0.0530424 0)
(1.24187 -0.0523249 0)
(1.23853 -0.051584 0)
(1.23527 -0.0508229 0)
(1.23209 -0.0500442 0)
(1.22898 -0.0492504 0)
(1.22595 -0.0484431 0)
(1.22298 -0.0476238 0)
(1.22008 -0.0467937 0)
(1.21724 -0.0459537 0)
(1.21446 -0.0451049 0)
(1.21172 -0.0442483 0)
(1.20904 -0.0433848 0)
(1.20642 -0.0425155 0)
(1.20384 -0.0416412 0)
(1.20132 -0.0407629 0)
(1.19884 -0.0398815 0)
(1.19642 -0.0389978 0)
(1.19405 -0.0381126 0)
(1.19174 -0.0372266 0)
(1.18947 -0.0363404 -1.67797e-27)
(1.18726 -0.0354547 1.67797e-27)
(1.1851 -0.0345699 0)
(1.18299 -0.0336866 0)
(1.18094 -0.0328052 0)
(1.17894 -0.0319262 0)
(1.17699 -0.0310497 0)
(1.1751 -0.0301763 0)
(1.17326 -0.0293061 0)
(1.17147 -0.0284393 0)
(1.16973 -0.0275763 0)
(1.16804 -0.026717 0)
(1.16641 -0.0258618 0)
(1.16483 -0.0250106 0)
(1.1633 -0.0241635 0)
(1.16182 -0.0233207 0)
(1.1604 -0.0224821 -1.39942e-27)
(1.15902 -0.0216478 1.39942e-27)
(1.1577 -0.0208177 0)
(1.15643 -0.0199919 0)
(1.1552 -0.0191702 0)
(1.15403 -0.0183526 0)
(1.15291 -0.0175391 0)
(1.15184 -0.0167295 0)
(1.15082 -0.0159238 1.31561e-27)
(1.14985 -0.0151217 -1.31561e-27)
(1.14893 -0.0143233 0)
(1.14806 -0.0135284 0)
(1.14723 -0.0127368 0)
(1.14646 -0.0119483 0)
(1.14573 -0.0111629 0)
(1.14506 -0.0103803 0)
(1.14443 -0.0096004 0)
(1.14385 -0.008823 0)
(1.14333 -0.00804791 0)
(1.14284 -0.00727495 0)
(1.14241 -0.00650393 0)
(1.14203 -0.00573464 0)
(1.14169 -0.00496688 0)
(1.1414 -0.00420044 0)
(1.14116 -0.0034351 0)
(1.14097 -0.00267069 0)
(1.14083 -0.00190703 0)
(1.14073 -0.00114398 0)
(1.14069 -0.0003813 0)
(1.18583 -0.0434517 0)
(1.22154 -0.0466827 0)
(1.24569 -0.049043 0)
(1.26053 -0.0507803 0)
(1.26852 -0.0518679 0)
(1.27187 -0.0524208 0)
(1.27233 -0.0526001 0)
(1.27106 -0.0525342 0)
(1.26882 -0.0523091 0)
(1.26605 -0.0519796 0)
(1.26298 -0.0515781 0)
(1.25975 -0.0511233 0)
(1.25642 -0.0506252 0)
(1.25304 -0.0500897 0)
(1.24964 -0.0495207 0)
(1.24625 -0.0489215 0)
(1.2429 -0.0482955 0)
(1.2396 -0.047646 0)
(1.23637 -0.0469758 0)
(1.23321 -0.0462876 0)
(1.23013 -0.0455837 0)
(1.22711 -0.0448657 0)
(1.22416 -0.044135 0)
(1.22128 -0.0433926 0)
(1.21845 -0.0426397 0)
(1.21568 -0.0418771 0)
(1.21296 -0.0411057 0)
(1.21029 -0.0403265 0)
(1.20767 -0.0395404 0)
(1.2051 -0.0387483 0)
(1.20258 -0.0379511 0)
(1.20012 -0.0371495 0)
(1.1977 -0.0363445 0)
(1.19533 -0.0355368 0)
(1.19302 -0.034727 0)
(1.19075 -0.0339159 1.6955e-27)
(1.18854 -0.0331039 -1.6955e-27)
(1.18638 -0.0322918 0)
(1.18428 -0.0314798 0)
(1.18222 -0.0306686 0)
(1.18022 -0.0298585 0)
(1.17827 -0.0290498 0)
(1.17637 -0.028243 0)
(1.17452 -0.0274383 -1.70419e-27)
(1.17273 -0.0266359 1.70419e-27)
(1.17098 -0.0258361 0)
(1.16929 -0.0250391 0)
(1.16766 -0.024245 0)
(1.16607 -0.023454 0)
(1.16454 -0.0226661 0)
(1.16305 -0.0218815 0)
(1.16162 -0.0211002 0)
(1.16024 -0.0203223 0)
(1.15891 -0.0195478 0)
(1.15763 -0.0187767 0)
(1.1564 -0.0180089 0)
(1.15523 -0.0172445 0)
(1.1541 -0.0164834 0)
(1.15302 -0.0157256 0)
(1.152 -0.0149709 -1.33247e-27)
(1.15102 -0.0142193 1.33247e-27)
(1.15009 -0.0134708 0)
(1.14922 -0.0127251 0)
(1.14839 -0.0119822 0)
(1.14761 -0.011242 0)
(1.14689 -0.0105043 0)
(1.14621 -0.00976906 0)
(1.14558 -0.00903606 0)
(1.14499 -0.00830519 0)
(1.14446 -0.00757628 0)
(1.14398 -0.00684919 0)
(1.14354 -0.00612374 0)
(1.14316 -0.00539978 0)
(1.14282 -0.00467711 0)
(1.14253 -0.00395557 0)
(1.14229 -0.00323499 0)
(1.14209 -0.00251519 0)
(1.14195 -0.00179604 0)
(1.14185 -0.00107743 0)
(1.14181 -0.000359122 0)
(1.18038 -0.0383264 0)
(1.21715 -0.0414592 0)
(1.24242 -0.0438193 0)
(1.25832 -0.045613 0)
(1.2672 -0.0467891 0)
(1.27123 -0.0474444 0)
(1.27216 -0.0477272 0)
(1.2712 -0.0477601 0)
(1.26917 -0.0476287 0)
(1.26653 -0.0473887 0)
(1.26356 -0.0470747 0)
(1.2604 -0.0467064 0)
(1.25713 -0.0462947 0)
(1.2538 -0.0458459 0)
(1.25045 -0.0453641 0)
(1.24711 -0.0448525 0)
(1.24379 -0.0443143 0)
(1.24053 -0.0437525 0)
(1.23733 -0.0431698 0)
(1.2342 -0.0425688 4.53543e-27)
(1.23113 -0.0419515 -4.53543e-27)
(1.22814 -0.0413197 0)
(1.22521 -0.0406745 0)
(1.22235 -0.0400172 0)
(1.21953 -0.0393485 0)
(1.21678 -0.0386695 0)
(1.21407 -0.0379809 0)
(1.21141 -0.0372837 0)
(1.2088 -0.0365786 0)
(1.20624 -0.0358666 0)
(1.20373 -0.0351485 0)
(1.20127 -0.034425 0)
(1.19886 -0.0336971 0)
(1.1965 -0.0329653 0)
(1.19419 -0.0322304 0)
(1.19193 -0.031493 -3.56282e-27)
(1.18972 -0.0307536 3.56282e-27)
(1.18756 -0.0300129 0)
(1.18545 -0.0292714 0)
(1.18339 -0.0285294 0)
(1.18139 -0.0277875 0)
(1.17944 -0.0270459 0)
(1.17754 -0.0263051 0)
(1.17569 -0.0255653 2.37714e-27)
(1.17389 -0.0248268 -2.37714e-27)
(1.17215 -0.0240899 0)
(1.17045 -0.0233547 0)
(1.16881 -0.0226215 0)
(1.16722 -0.0218904 0)
(1.16568 -0.0211615 0)
(1.16419 -0.020435 0)
(1.16276 -0.0197109 -3.45169e-11)
(1.16137 -0.0189894 3.45169e-11)
(1.16004 -0.0182704 0)
(1.15875 -0.0175541 0)
(1.15752 -0.0168403 0)
(1.15634 -0.0161292 0)
(1.15521 -0.0154206 0)
(1.15413 -0.0147147 0)
(1.1531 -0.0140113 0)
(1.15212 -0.0133103 0)
(1.15119 -0.0126118 0)
(1.15031 -0.0119157 0)
(1.14948 -0.0112218 0)
(1.1487 -0.0105301 0)
(1.14796 -0.00984048 0)
(1.14728 -0.00915284 0)
(1.14665 -0.00846707 0)
(1.14606 -0.00778306 0)
(1.14553 -0.00710068 0)
(1.14504 -0.0064198 0)
(1.1446 -0.0057403 0)
(1.14422 -0.00506202 0)
(1.14388 -0.00438483 0)
(1.14358 -0.00370858 0)
(1.14334 -0.00303312 0)
(1.14315 -0.00235832 0)
(1.143 -0.00168407 0)
(1.14291 -0.00101029 0)
(1.14286 -0.000336748 0)
(1.17514 -0.0333671 0)
(1.21283 -0.0363858 0)
(1.23914 -0.03873 0)
(1.25603 -0.0405641 0)
(1.26575 -0.0418143 0)
(1.27044 -0.0425611 0)
(1.27184 -0.04294 0)
(1.2712 -0.0430666 0)
(1.26938 -0.0430245 0)
(1.26689 -0.0428706 0)
(1.26401 -0.0426405 0)
(1.26093 -0.0423552 0)
(1.25772 -0.0420263 0)
(1.25444 -0.0416607 0)
(1.25114 -0.0412626 0)
(1.24784 -0.0408351 0)
(1.24456 -0.0403812 0)
(1.24133 -0.0399037 0)
(1.23816 -0.0394053 0)
(1.23505 -0.0388883 -2.18947e-27)
(1.23201 -0.0383547 2.18947e-27)
(1.22904 -0.0378061 0)
(1.22613 -0.0372438 0)
(1.22329 -0.0366687 0)
(1.22049 -0.0360818 0)
(1.21775 -0.0354839 0)
(1.21506 -0.0348758 0)
(1.21241 -0.0342584 0)
(1.20982 -0.0336323 0)
(1.20727 -0.0329984 0)
(1.20477 -0.0323576 0)
(1.20231 -0.0317105 0)
(1.19991 -0.0310579 0)
(1.19755 -0.0304006 0)
(1.19525 -0.0297391 0)
(1.19299 -0.0290742 0)
(1.19078 -0.0284063 0)
(1.18863 -0.027736 0)
(1.18652 -0.0270639 0)
(1.18447 -0.0263903 0)
(1.18246 -0.0257156 0)
(1.18051 -0.0250404 0)
(1.17861 -0.0243649 0)
(1.17676 -0.0236894 0)
(1.17496 -0.0230143 0)
(1.17321 -0.0223397 0)
(1.17152 -0.021666 0)
(1.16987 -0.0209933 0)
(1.16828 -0.0203219 0)
(1.16674 -0.0196517 0)
(1.16525 -0.0189831 0)
(1.16381 -0.0183161 -3.48783e-11)
(1.16242 -0.0176509 3.48783e-11)
(1.16108 -0.0169874 0)
(1.1598 -0.0163257 0)
(1.15856 -0.015666 0)
(1.15737 -0.0150081 0)
(1.15624 -0.0143522 0)
(1.15516 -0.0136982 0)
(1.15412 -0.0130462 0)
(1.15314 -0.012396 0)
(1.1522 -0.0117478 0)
(1.15132 -0.0111013 0)
(1.15049 -0.0104566 0)
(1.1497 -0.00981364 0)
(1.14897 -0.00917231 0)
(1.14828 -0.00853254 0)
(1.14765 -0.00789426 0)
(1.14706 -0.00725737 0)
(1.14652 -0.0066218 0)
(1.14604 -0.00598742 0)
(1.1456 -0.00535415 0)
(1.14521 -0.00472187 0)
(1.14487 -0.00409045 0)
(1.14457 -0.0034598 0)
(1.14433 -0.00282979 0)
(1.14414 -0.00220031 0)
(1.14399 -0.00157129 0)
(1.14389 -0.00094265 0)
(1.14385 -0.000314209 0)
(1.17011 -0.0285639 0)
(1.20861 -0.0314545 0)
(1.23585 -0.0337693 0)
(1.25366 -0.0356292 0)
(1.26419 -0.0369404 0)
(1.26952 -0.0377685 0)
(1.27138 -0.038236 0)
(1.27107 -0.0384509 0)
(1.26946 -0.0384943 0)
(1.26711 -0.038423 0)
(1.26434 -0.0382735 0)
(1.26133 -0.0380679 0)
(1.25818 -0.0378187 0)
(1.25496 -0.037533 0)
(1.2517 -0.0372152 0)
(1.24844 -0.0368686 0)
(1.2452 -0.0364958 0)
(1.24201 -0.0360997 0)
(1.23886 -0.0356825 0)
(1.23578 -0.0352467 0)
(1.23277 -0.034794 0)
(1.22982 -0.0343259 0)
(1.22693 -0.0338438 0)
(1.2241 -0.0333485 0)
(1.22133 -0.032841 0)
(1.2186 -0.032322 0)
(1.21592 -0.0317922 0)
(1.21329 -0.0312524 0)
(1.21071 -0.0307033 0)
(1.20817 -0.0301457 0)
(1.20568 -0.0295804 0)
(1.20324 -0.029008 0)
(1.20084 -0.0284293 0)
(1.19849 -0.027845 0)
(1.19619 -0.0272556 0)
(1.19394 -0.0266619 0)
(1.19174 -0.0260642 0)
(1.18959 -0.0254633 0)
(1.18749 -0.0248595 0)
(1.18543 -0.0242533 0)
(1.18343 -0.0236452 0)
(1.18148 -0.0230356 0)
(1.17958 -0.0224247 0)
(1.17773 -0.0218129 0)
(1.17593 -0.0212005 0)
(1.17419 -0.0205879 0)
(1.17249 -0.0199752 0)
(1.17084 -0.0193626 0)
(1.16925 -0.0187504 0)
(1.16771 -0.0181387 0)
(1.16621 -0.0175278 0)
(1.16477 -0.0169176 -3.52122e-11)
(1.16338 -0.0163084 3.52122e-11)
(1.16204 -0.0157003 0)
(1.16075 -0.0150933 0)
(1.15952 -0.0144874 0)
(1.15833 -0.0138829 0)
(1.15719 -0.0132796 0)
(1.1561 -0.0126776 0)
(1.15507 -0.012077 2.86623e-27)
(1.15408 -0.0114777 -2.86623e-27)
(1.15315 -0.0108797 0)
(1.15226 -0.0102831 0)
(1.15142 -0.00968773 0)
(1.15064 -0.00909362 0)
(1.1499 -0.00850073 0)
(1.14921 -0.00790901 0)
(1.14858 -0.00731841 0)
(1.14799 -0.00672885 0)
(1.14745 -0.00614029 0)
(1.14696 -0.00555264 0)
(1.14652 -0.00496583 0)
(1.14613 -0.00437978 0)
(1.14579 -0.00379439 0)
(1.14549 -0.00320959 0)
(1.14525 -0.00262528 0)
(1.14505 -0.00204138 0)
(1.14491 -0.00145784 0)
(1.14481 -0.000874615 0)
(1.14476 -0.000291536 0)
(1.1653 -0.0239062 0)
(1.20451 -0.0266559 0)
(1.23258 -0.0289305 0)
(1.25123 -0.0308038 0)
(1.26252 -0.0321644 0)
(1.26847 -0.0330639 0)
(1.27079 -0.0336128 0)
(1.27081 -0.0339107 0)
(1.26942 -0.0340356 0)
(1.26722 -0.0340436 0)
(1.26455 -0.0339717 0)
(1.26161 -0.0338428 0)
(1.25853 -0.0336702 0)
(1.25535 -0.0334614 0)
(1.25214 -0.0332211 0)
(1.24892 -0.0329523 0)
(1.24572 -0.0326578 0)
(1.24256 -0.0323401 0)
(1.23945 -0.0320015 0)
(1.2364 -0.0316441 0)
(1.23341 -0.0312697 0)
(1.23048 -0.0308798 0)
(1.22761 -0.0304755 0)
(1.2248 -0.0300577 0)
(1.22204 -0.0296273 0)
(1.21934 -0.029185 0)
(1.21667 -0.0287314 0)
(1.21406 -0.0282673 0)
(1.21149 -0.0277934 0)
(1.20897 -0.0273103 0)
(1.20649 -0.0268188 0)
(1.20405 -0.0263196 0)
(1.20167 -0.0258132 0)
(1.19933 -0.0253005 0)
(1.19704 -0.0247819 0)
(1.19479 -0.0242581 0)
(1.1926 -0.0237296 0)
(1.19045 -0.0231969 0)
(1.18835 -0.0226605 0)
(1.1863 -0.0221208 0)
(1.1843 -0.0215784 0)
(1.18236 -0.0210335 0)
(1.18046 -0.0204865 0)
(1.17861 -0.0199377 0)
(1.17681 -0.0193876 0)
(1.17507 -0.0188363 0)
(1.17337 -0.0182841 0)
(1.17172 -0.0177312 0)
(1.17013 -0.0171779 0)
(1.16859 -0.0166243 0)
(1.16709 -0.0160707 0)
(1.16565 -0.0155171 -3.55189e-11)
(1.16426 -0.0149638 3.55189e-11)
(1.16292 -0.0144108 0)
(1.16163 -0.0138583 0)
(1.16039 -0.0133063 0)
(1.1592 -0.0127549 0)
(1.15806 -0.0122041 0)
(1.15698 -0.0116542 0)
(1.15594 -0.0111049 -1.38967e-27)
(1.15495 -0.0105565 1.38967e-27)
(1.15401 -0.0100089 0)
(1.15312 -0.00946209 0)
(1.15229 -0.00891613 0)
(1.1515 -0.00837098 0)
(1.15076 -0.00782664 0)
(1.15007 -0.00728308 0)
(1.14943 -0.00674028 0)
(1.14884 -0.0061982 0)
(1.1483 -0.0056568 0)
(1.14781 -0.00511604 0)
(1.14737 -0.00457587 0)
(1.14698 -0.00403622 0)
(1.14664 -0.00349705 0)
(1.14634 -0.00295828 0)
(1.1461 -0.00241986 1.30866e-27)
(1.1459 -0.00188174 -1.30866e-27)
(1.14576 -0.00134389 0)
(1.14566 -0.000806273 0)
(1.14561 -0.000268761 0)
(1.16074 -0.0193862 0)
(1.20054 -0.0219817 0)
(1.22935 -0.0242072 0)
(1.24878 -0.0260836 0)
(1.26078 -0.0274828 0)
(1.26731 -0.0284449 0)
(1.27009 -0.029068 0)
(1.27042 -0.0294439 0)
(1.26926 -0.0296463 0)
(1.26721 -0.0297302 0)
(1.26464 -0.029733 0)
(1.26178 -0.0296781 0)
(1.25876 -0.0295793 0)
(1.25564 -0.0294447 0)
(1.25247 -0.029279 0)
(1.24929 -0.0290853 0)
(1.24613 -0.0288664 0)
(1.243 -0.0286246 0)
(1.23992 -0.028362 0)
(1.23689 -0.0280807 2.21183e-27)
(1.23393 -0.0277822 -2.21183e-27)
(1.23102 -0.0274681 0)
(1.22818 -0.0271393 0)
(1.22539 -0.0267969 0)
(1.22265 -0.0264416 0)
(1.21996 -0.026074 0)
(1.21731 -0.0256947 0)
(1.21471 -0.0253045 0)
(1.21216 -0.0249039 0)
(1.20965 -0.0244937 0)
(1.20718 -0.0240745 0)
(1.20476 -0.0236468 0)
(1.20238 -0.0232114 0)
(1.20005 -0.0227689 0)
(1.19777 -0.0223198 0)
(1.19553 -0.0218648 1.76143e-27)
(1.19335 -0.0214042 -1.76143e-27)
(1.19121 -0.0209387 0)
(1.18911 -0.0204687 0)
(1.18707 -0.0199947 0)
(1.18508 -0.019517 0)
(1.18313 -0.0190361 0)
(1.18124 -0.0185522 0)
(1.17939 -0.0180659 -1.78048e-27)
(1.1776 -0.0175773 1.78048e-27)
(1.17585 -0.0170867 0)
(1.17416 -0.0165945 0)
(1.17252 -0.0161009 0)
(1.17092 -0.015606 0)
(1.16938 -0.0151102 0)
(1.16789 -0.0146136 0)
(1.16645 -0.0141163 0)
(1.16506 -0.0136186 0)
(1.16371 -0.0131205 0)
(1.16242 -0.0126222 0)
(1.16118 -0.0121238 0)
(1.16 -0.0116255 0)
(1.15886 -0.0111272 0)
(1.15777 -0.0106291 0)
(1.15673 -0.0101312 0)
(1.15574 -0.00963358 0)
(1.1548 -0.00913629 0)
(1.15391 -0.00863935 0)
(1.15308 -0.00814279 0)
(1.15229 -0.00764664 0)
(1.15155 -0.00715089 0)
(1.15086 -0.00665555 0)
(1.15022 -0.00616062 0)
(1.14963 -0.0056661 0)
(1.14909 -0.00517196 0)
(1.1486 -0.00467818 0)
(1.14815 -0.00418475 0)
(1.14776 -0.00369163 0)
(1.14742 -0.00319879 0)
(1.14712 -0.00270619 0)
(1.14688 -0.00221381 -1.3204e-27)
(1.14668 -0.0017216 1.3204e-27)
(1.14653 -0.00122957 0)
(1.14644 -0.000737712 0)
(1.14639 -0.000245912 0)
(1.15643 -0.0149912 0)
(1.1967 -0.0174203 0)
(1.22616 -0.0195928 0)
(1.2463 -0.0214649 0)
(1.25896 -0.0228936 0)
(1.26606 -0.0239095 0)
(1.26927 -0.0245998 0)
(1.26992 -0.0250482 0)
(1.26898 -0.0253241 0)
(1.26708 -0.0254808 0)
(1.26463 -0.0255555 0)
(1.26184 -0.0255719 0)
(1.25888 -0.0255444 0)
(1.25581 -0.0254814 0)
(1.25269 -0.0253877 0)
(1.24955 -0.0252668 0)
(1.24642 -0.0251211 0)
(1.24332 -0.0249527 0)
(1.24027 -0.0247638 0)
(1.23727 -0.0245563 -4.61335e-27)
(1.23433 -0.0243316 4.61335e-27)
(1.23145 -0.0240911 0)
(1.22863 -0.0238359 0)
(1.22586 -0.0235669 0)
(1.22314 -0.0232847 0)
(1.22047 -0.0229899 0)
(1.21784 -0.0226832 0)
(1.21526 -0.0223651 0)
(1.21272 -0.0220363 0)
(1.21022 -0.0216973 0)
(1.20777 -0.0213488 0)
(1.20536 -0.0209914 0)
(1.203 -0.0206255 0)
(1.20068 -0.0202519 0)
(1.1984 -0.0198711 0)
(1.19618 -0.0194837 -3.68538e-27)
(1.194 -0.01909 3.68538e-27)
(1.19186 -0.0186906 0)
(1.18978 -0.0182861 0)
(1.18774 -0.0178767 0)
(1.18575 -0.0174629 0)
(1.18382 -0.0170452 0)
(1.18193 -0.0166238 0)
(1.18008 -0.0161991 0)
(1.17829 -0.0157714 0)
(1.17655 -0.015341 0)
(1.17486 -0.0149083 0)
(1.17322 -0.0144733 0)
(1.17163 -0.0140365 0)
(1.17009 -0.013598 0)
(1.1686 -0.0131579 0)
(1.16716 -0.0127166 0)
(1.16577 -0.0122741 0)
(1.16443 -0.0118307 0)
(1.16314 -0.0113865 0)
(1.1619 -0.0109415 0)
(1.16071 -0.010496 0)
(1.15957 -0.01005 0)
(1.15848 -0.0096036 0)
(1.15744 -0.00915693 0)
(1.15646 -0.00871004 0)
(1.15552 -0.00826299 0)
(1.15463 -0.00781585 0)
(1.15379 -0.00736866 0)
(1.153 -0.00692146 0)
(1.15226 -0.00647429 0)
(1.15157 -0.00602718 0)
(1.15093 -0.00558014 2.82639e-27)
(1.15034 -0.00513319 -2.82639e-27)
(1.1498 -0.00468635 0)
(1.14931 -0.00423961 0)
(1.14886 -0.00379298 0)
(1.14847 -0.00334644 0)
(1.14813 -0.0029 0)
(1.14783 -0.00245365 0)
(1.14759 -0.00200737 0)
(1.14739 -0.00156116 0)
(1.14724 -0.00111504 0)
(1.14715 -0.000669018 0)
(1.1471 -0.000223019 0)
(1.15236 -0.0107253 0)
(1.19301 -0.0129615 0)
(1.22304 -0.0150812 0)
(1.24381 -0.0169447 0)
(1.25709 -0.0183944 0)
(1.26472 -0.0194552 0)
(1.26835 -0.0202057 0)
(1.26932 -0.0207215 0)
(1.2686 -0.021067 0)
(1.26685 -0.0212933 0)
(1.2645 -0.021437 0)
(1.2618 -0.0215223 0)
(1.25889 -0.0215637 0)
(1.25587 -0.0215699 0)
(1.25279 -0.0215462 0)
(1.2497 -0.0214956 0)
(1.2466 -0.0214208 0)
(1.24354 -0.0213238 0)
(1.24052 -0.0212065 0)
(1.23755 -0.0210707 0)
(1.23463 -0.0209178 0)
(1.23177 -0.0207491 0)
(1.22897 -0.0205656 0)
(1.22622 -0.0203681 0)
(1.22352 -0.0201572 0)
(1.22087 -0.0199336 0)
(1.21826 -0.0196978 0)
(1.21569 -0.0194503 0)
(1.21317 -0.0191916 0)
(1.21069 -0.0189224 0)
(1.20825 -0.0186432 0)
(1.20585 -0.0183545 0)
(1.2035 -0.018057 0)
(1.2012 -0.0177511 0)
(1.19893 -0.0174373 0)
(1.19672 -0.0171163 1.77809e-27)
(1.19455 -0.0167885 -1.77809e-27)
(1.19242 -0.0164543 0)
(1.19035 -0.0161142 0)
(1.18832 -0.0157686 0)
(1.18634 -0.0154179 0)
(1.1844 -0.0150625 0)
(1.18252 -0.0147028 0)
(1.18068 -0.0143391 0)
(1.1789 -0.0139716 0)
(1.17716 -0.0136008 0)
(1.17547 -0.0132269 0)
(1.17384 -0.0128502 0)
(1.17225 -0.0124708 0)
(1.17071 -0.0120892 0)
(1.16922 -0.0117053 0)
(1.16778 -0.0113195 0)
(1.1664 -0.010932 0)
(1.16506 -0.0105429 0)
(1.16377 -0.0101524 0)
(1.16253 -0.00976059 0)
(1.16134 -0.00936766 0)
(1.16021 -0.00897372 0)
(1.15912 -0.00857888 0)
(1.15808 -0.00818326 0)
(1.15709 -0.00778694 0)
(1.15616 -0.00739001 0)
(1.15527 -0.00699255 0)
(1.15443 -0.00659463 0)
(1.15364 -0.00619631 0)
(1.1529 -0.00579765 0)
(1.15221 -0.00539871 0)
(1.15157 -0.00499952 0)
(1.15098 -0.00460012 0)
(1.15044 -0.00420055 0)
(1.14995 -0.00380084 0)
(1.1495 -0.003401 0)
(1.14911 -0.00300106 0)
(1.14877 -0.00260104 0)
(1.14847 -0.00220094 0)
(1.14823 -0.00180079 0)
(1.14803 -0.00140061 0)
(1.14788 -0.00100042 0)
(1.14779 -0.000600274 0)
(1.14774 -0.000200109 0)
(1.14854 -0.0065582 0)
(1.18947 -0.00858876 0)
(1.21998 -0.0106749 0)
(1.24133 -0.0125263 0)
(1.25518 -0.013985 0)
(1.2633 -0.0150803 0)
(1.26734 -0.0158837 0)
(1.26861 -0.0164616 0)
(1.26811 -0.0168726 0)
(1.26652 -0.0171653 0)
(1.26428 -0.0173756 0)
(1.26165 -0.0175273 -5.22569e-27)
(1.25881 -0.0176354 5.22569e-27)
(1.25583 -0.0177088 0)
(1.2528 -0.0177528 0)
(1.24974 -0.0177706 0)
(1.24668 -0.0177648 0)
(1.24365 -0.0177371 0)
(1.24065 -0.0176895 0)
(1.23771 -0.0176236 4.62258e-27)
(1.23482 -0.0175407 -4.62258e-27)
(1.23199 -0.017442 0)
(1.2292 -0.0173284 0)
(1.22648 -0.0172008 0)
(1.22379 -0.0170597 0)
(1.22116 -0.0169056 0)
(1.21857 -0.0167391 0)
(1.21602 -0.0165607 0)
(1.21351 -0.0163708 0)
(1.21105 -0.01617 0)
(1.20863 -0.0159587 0)
(1.20625 -0.0157376 0)
(1.20391 -0.0155071 0)
(1.20161 -0.0152677 0)
(1.19936 -0.0150199 0)
(1.19716 -0.0147642 0)
(1.195 -0.0145012 0)
(1.19288 -0.0142311 0)
(1.19082 -0.0139546 0)
(1.1888 -0.0136719 0)
(1.18682 -0.0133834 0)
(1.1849 -0.0130896 0)
(1.18302 -0.0127908 0)
(1.18119 -0.0124873 0)
(1.17941 -0.0121795 0)
(1.17768 -0.0118676 0)
(1.176 -0.011552 0)
(1.17436 -0.0112329 0)
(1.17278 -0.0109106 0)
(1.17125 -0.0105852 0)
(1.16976 -0.0102571 0)
(1.16833 -0.00992651 0)
(1.16694 -0.00959353 0)
(1.16561 -0.00925838 0)
(1.16432 -0.00892125 0)
(1.16309 -0.0085823 0)
(1.1619 -0.00824169 0)
(1.16076 -0.00789955 0)
(1.15968 -0.00755602 0)
(1.15864 -0.00721122 2.97761e-27)
(1.15766 -0.00686528 -2.97761e-27)
(1.15672 -0.00651828 0)
(1.15583 -0.00617034 0)
(1.15499 -0.00582155 0)
(1.15421 -0.00547198 0)
(1.15347 -0.00512172 0)
(1.15278 -0.00477085 0)
(1.15214 -0.00441941 -2.86524e-27)
(1.15155 -0.00406749 2.86524e-27)
(1.15101 -0.00371512 0)
(1.15052 -0.00336237 0)
(1.15007 -0.00300928 0)
(1.14968 -0.00265589 0)
(1.14934 -0.00230224 0)
(1.14904 -0.00194837 0)
(1.1488 -0.00159432 0)
(1.1486 -0.00124013 0)
(1.14845 -0.000885852 0)
(1.14836 -0.000531559 0)
(1.14831 -0.000177208 0)
(1.14491 -0.0025616 0)
(1.18607 -0.00429124 0)
(1.21702 -0.00637699 0)
(1.23888 -0.00820819 0)
(1.25324 -0.00965998 0)
(1.26183 -0.0107809 0)
(1.26625 -0.0116313 0)
(1.26782 -0.0122662 0)
(1.26753 -0.0127386 0)
(1.26609 -0.0130945 0)
(1.26395 -0.0133687 0)
(1.2614 -0.0135848 2.50649e-27)
(1.25862 -0.0137576 -2.50649e-27)
(1.2557 -0.0138963 0)
(1.2527 -0.0140062 0)
(1.24968 -0.0140906 0)
(1.24665 -0.0141519 0)
(1.24365 -0.0141919 0)
(1.24069 -0.0142123 0)
(1.23777 -0.0142145 0)
(1.2349 -0.0142 0)
(1.23209 -0.0141697 0)
(1.22933 -0.0141246 0)
(1.22663 -0.0140653 0)
(1.22397 -0.0139925 0)
(1.22135 -0.0139065 0)
(1.21878 -0.013808 0)
(1.21625 -0.0136972 1.98268e-27)
(1.21376 -0.0135748 -1.98268e-27)
(1.21131 -0.013441 0)
(1.2089 -0.0132965 0)
(1.20654 -0.0131416 0)
(1.20421 -0.012977 0)
(1.20193 -0.012803 0)
(1.19969 -0.0126201 0)
(1.1975 -0.0124288 0)
(1.19535 -0.0122295 0)
(1.19325 -0.0120227 0)
(1.19119 -0.0118087 0)
(1.18918 -0.011588 0)
(1.18722 -0.011361 0)
(1.1853 -0.011128 0)
(1.18343 -0.0108893 0)
(1.18161 -0.0106454 0)
(1.17983 -0.0103965 0)
(1.17811 -0.0101429 0)
(1.17643 -0.00988499 0)
(1.17481 -0.00962294 0)
(1.17323 -0.00935706 0)
(1.1717 -0.00908758 0)
(1.17022 -0.00881476 0)
(1.16879 -0.00853881 -3.66479e-11)
(1.16741 -0.00825994 3.66479e-11)
(1.16607 -0.00797837 0)
(1.16479 -0.00769427 0)
(1.16356 -0.00740782 0)
(1.16238 -0.0071192 0)
(1.16124 -0.00682857 0)
(1.16016 -0.00653606 0)
(1.15913 -0.00624184 -1.43805e-27)
(1.15814 -0.00594603 1.43805e-27)
(1.15721 -0.00564875 0)
(1.15632 -0.00535012 0)
(1.15548 -0.00505026 0)
(1.1547 -0.00474927 0)
(1.15396 -0.00444724 0)
(1.15327 -0.00414428 0)
(1.15263 -0.00384046 0)
(1.15205 -0.00353588 0)
(1.15151 -0.0032306 0)
(1.15101 -0.0029247 0)
(1.15057 -0.00261825 0)
(1.15018 -0.00231131 0)
(1.14984 -0.00200394 0)
(1.14954 -0.00169621 0)
(1.1493 -0.00138818 0)
(1.1491 -0.0010799 0)
(1.14896 -0.000771466 0)
(1.14886 -0.000462951 0)