/*--------------------------------*- C++ -*----------------------------------*\
  =========                 |
  \\      /  F ield         | OpenFOAM: The Open Source CFD Toolbox
   \\    /   O peration     | Website:  https://openfoam.org
    \\  /    A nd           | Version:  7
     \\/     M anipulation  |
\*---------------------------------------------------------------------------*/
FoamFile
{
    version     2.0;
    format      ascii;
    class       surfaceScalarField;
    location    "114.999";
    object      phi;
}
// * * * * * * * * * * * * * * * * * * * * * * * * * * * * * * * * * * * * * //

dimensions      [0 3 -1 0 0 0 0];

internalField   nonuniform List<scalar> 
7273
(
-0.00273699
0.0124161
0.00306161
-0.00244089
0.0122205
-0.0021784
0.0120623
-0.00194438
0.0119137
-0.00173629
0.0117822
-0.00155083
0.0116657
-0.00138521
0.0115628
-0.00123706
0.0114723
-0.00110435
0.0113927
-0.000985316
0.0113224
-0.000878458
0.0112601
-0.000782463
0.0112046
-0.00069617
0.011155
-0.000618547
0.0111107
-0.000548662
0.0110711
-0.000485676
0.0110356
-0.000428828
0.0110039
-0.00037743
0.0109755
-0.000330852
0.0109503
-0.00028852
0.0109279
-0.000249908
0.010908
-0.000214533
0.0108907
-0.000181947
0.0108755
-0.000151737
0.0108625
-0.000123513
0.0108516
-9.69107e-05
0.0108426
-7.15843e-05
0.0108355
-4.72032e-05
0.0108301
-2.34474e-05
0.0108266
0.0108248
-0.00298711
0.0120546
0.00334857
-0.00265678
0.0118901
-0.00236509
0.0117706
-0.00210618
0.0116548
-0.00187671
0.0115527
-0.00167273
0.0114617
-0.0014911
0.0113812
-0.00132913
0.0113104
-0.00118448
0.0112481
-0.00105512
0.0111931
-0.000939301
0.0111443
-0.000835528
0.0111008
-0.000742468
0.0110619
-0.000658942
0.0110272
-0.000583897
0.010996
-0.00051639
0.0109681
-0.000455572
0.010943
-0.000400673
0.0109206
-0.000350997
0.0109006
-0.000305913
0.0108828
-0.000264843
0.010867
-0.000227258
0.0108531
-0.000192671
0.0108409
-0.000160632
0.0108305
-0.000130722
0.0108217
-0.000102548
0.0108144
-7.57379e-05
0.0108086
-4.99373e-05
0.0108043
-2.4804e-05
0.0108015
0.0108
-0.00317223
0.0116683
0.00355853
-0.00281771
0.0115356
-0.002505
0.0114579
-0.00222798
0.0113778
-0.00198264
0.0113074
-0.00176468
0.0112437
-0.00157084
0.0111873
-0.00139823
0.0111378
-0.00124433
0.0110942
-0.00110694
0.0110557
-0.000984179
0.0110215
-0.000874391
0.010991
-0.000776125
0.0109637
-0.000688088
0.0109391
-0.000609133
0.0109171
-0.00053823
0.0108972
-0.000474455
0.0108793
-0.000416976
0.0108632
-0.000365041
0.0108487
-0.000317969
0.0108357
-0.00027514
0.0108241
-0.00023599
0.0108139
-0.000199999
0.010805
-0.000166689
0.0107972
-0.000135617
0.0107906
-0.000106366
0.0107852
-7.85452e-05
0.0107808
-5.17826e-05
0.0107776
-2.57186e-05
0.0107754
0.0107743
-0.00328907
0.0112679
0.00368944
-0.00292068
0.0111672
-0.0025954
0.0111326
-0.00230715
0.0110895
-0.00205148
0.0110517
-0.00182425
0.0110165
-0.00162221
0.0109853
-0.00144239
0.0109579
-0.00128217
0.010934
-0.0011393
0.0109128
-0.00101181
0.010894
-0.000897953
0.0108771
-0.000796201
0.0108619
-0.000705184
0.0108481
-0.000623685
0.0108356
-0.00055061
0.0108241
-0.000484981
0.0108136
-0.000425917
0.0108041
-0.000372624
0.0107954
-0.000324384
0.0107875
-0.000280547
0.0107803
-0.000240519
0.0107739
-0.000203758
0.0107682
-0.000169767
0.0107632
-0.000138084
0.0107589
-0.000108277
0.0107554
-7.99437e-05
0.0107525
-5.26985e-05
0.0107503
-2.61713e-05
0.0107489
0.0107481
-0.00333798
0.0108625
0.00374343
-0.00296551
0.0107948
-0.00263569
0.0108028
-0.00234272
0.0107966
-0.00208214
0.0107911
-0.00185031
0.0107847
-0.00164407
0.010779
-0.00146048
0.0107743
-0.00129696
0.0107704
-0.00115126
0.0107671
-0.00102135
0.0107641
-0.000905483
0.0107613
-0.000802065
0.0107585
-0.000709688
0.0107558
-0.00062709
0.010753
-0.000553139
0.0107502
-0.00048682
0.0107473
-0.00042722
0.0107445
-0.000373517
0.0107417
-0.000324969
0.0107389
-0.000280905
0.0107362
-0.000240716
0.0107337
-0.000203845
0.0107313
-0.000169783
0.0107291
-0.000138059
0.0107272
-0.000108234
0.0107255
-7.98984e-05
0.0107242
-5.26623e-05
0.0107231
-2.61512e-05
0.0107224
0.010722
-0.00332218
0.0104591
0.00372557
-0.00295433
0.0104269
-0.00262687
0.0104753
-0.00233498
0.0105047
-0.00207458
0.0105307
-0.00184257
0.0105527
-0.00163599
0.0105725
-0.00145203
0.0105904
-0.00128821
0.0106066
-0.00114232
0.0106212
-0.00101237
0.0106341
-0.000896582
0.0106455
-0.000793368
0.0106553
-0.000701301
0.0106637
-0.000619098
0.0106708
-0.00054561
0.0106767
-0.000479802
0.0106815
-0.000420748
0.0106854
-0.00036761
0.0106885
-0.000319638
0.0106909
-0.00027615
0.0106928
-0.000236532
0.0106941
-0.000200223
0.010695
-0.00016671
0.0106956
-0.000135523
0.010696
-0.000106223
0.0106962
-7.84005e-05
0.0106963
-5.16689e-05
0.0106964
-2.5656e-05
0.0106964
0.0106963
-0.00324726
0.0100638
0.00364258
-0.00289075
0.0100704
-0.00257107
0.0101556
-0.00228521
0.0102188
-0.00202952
0.010275
-0.00180142
0.0103246
-0.00159814
0.0103692
-0.00141707
0.0104093
-0.00125588
0.0104454
-0.00111242
0.0104777
-0.000984756
0.0105065
-0.000871151
0.0105319
-0.000770023
0.0105542
-0.000679952
0.0105736
-0.000599657
0.0105905
-0.000527988
0.010605
-0.000463911
0.0106174
-0.000406497
0.010628
-0.000354913
0.010637
-0.000308407
0.0106444
-0.000266304
0.0106506
-0.000227992
0.0106558
-0.000192918
0.0106599
-0.000160575
0.0106633
-0.0001305
0.0106659
-0.000102264
0.010668
-7.54667e-05
0.0106695
-4.97298e-05
0.0106706
-2.46914e-05
0.0106713
0.0106717
-0.00311957
0.00968156
0.00350177
-0.00277884
0.00972966
-0.00247109
0.00984788
-0.00219532
0.00994305
-0.00194829
0.010028
-0.00172776
0.010104
-0.00153114
0.0101726
-0.00135604
0.0102342
-0.00120027
0.0102897
-0.00106178
0.0103393
-0.000938714
0.0103834
-0.000829364
0.0104225
-0.000732188
0.010457
-0.000645791
0.0104872
-0.000568911
0.0105136
-0.000500415
0.0105365
-0.000439284
0.0105563
-0.000384603
0.0105733
-0.000335554
0.0105879
-0.0002914
0.0106003
-0.000251481
0.0106107
-0.000215202
0.0106195
-0.000182025
0.0106268
-0.00015146
0.0106327
-0.000123062
0.0106375
-9.64159e-05
0.0106414
-7.11405e-05
0.0106443
-4.68743e-05
0.0106464
-2.32721e-05
0.0106477
0.0106484
-0.00294411
0.00931606
0.00330962
-0.00262238
0.00940793
-0.00232979
0.00955529
-0.00206746
0.00968072
-0.00183252
0.00979306
-0.00162281
0.00989434
-0.00143595
0.00998569
-0.00126972
0.010068
-0.00112205
0.010142
-0.000990982
0.0102082
-0.000874731
0.0102672
-0.000771659
0.0103195
-0.000680264
0.0103656
-0.000599187
0.0104061
-0.000527205
0.0104416
-0.000463212
0.0104725
-0.000406219
0.0104993
-0.000355342
0.0105225
-0.000309788
0.0105423
-0.00026885
0.0105593
-0.000231893
0.0105738
-0.000198351
0.0105859
-0.00016771
0.0105961
-0.000139509
0.0106045
-0.000113325
0.0106114
-8.87726e-05
0.0106168
-6.5493e-05
0.010621
-4.31495e-05
0.010624
-2.14216e-05
0.010626
0.010627
-0.00272482
0.0089694
0.00307149
-0.00242427
0.00910738
-0.0021498
0.00928082
-0.00190386
0.00943477
-0.001684
0.0095732
-0.00148807
0.00969841
-0.00131383
0.00981144
-0.00115919
0.00991336
-0.00102215
0.0100049
-0.000900851
0.0100869
-0.000793574
0.0101599
-0.000698733
0.0102246
-0.000614888
0.0102818
-0.000540732
0.010332
-0.000475082
0.010376
-0.000416879
0.0104143
-0.000365177
0.0104476
-0.000319134
0.0104764
-0.000277997
0.0105012
-0.000241099
0.0105224
-0.000207847
0.0105405
-0.000177708
0.0105558
-0.000150208
0.0105686
-0.00012492
0.0105792
-0.000101458
0.0105879
-7.94673e-05
0.0105948
-5.86231e-05
0.0106001
-3.86214e-05
0.010604
-1.9173e-05
0.0106065
0.0106078
-0.00246518
0.00864314
0.00279143
-0.00218662
0.00882883
-0.00193318
0.00902738
-0.00170647
0.00920806
-0.00150452
0.00937126
-0.00132514
0.00951903
-0.00116623
0.00965253
-0.00102575
0.00977288
-0.000901767
0.00988096
-0.00079248
0.0099776
-0.000696232
0.0100636
-0.000611509
0.0101399
-0.00053692
0.0102072
-0.000471216
0.0102663
-0.000413274
0.010318
-0.000362088
0.0103631
-0.000316772
0.0104023
-0.000276536
0.0104362
-0.000240686
0.0104654
-0.000208604
0.0104904
-0.000179745
0.0105117
-0.000153629
0.0105297
-0.000129826
0.0105448
-0.000107955
0.0105574
-8.76731e-05
0.0105676
-6.86682e-05
0.0105758
-5.06575e-05
0.0105821
-3.33743e-05
0.0105867
-1.65682e-05
0.0105897
0.0105912
-0.00216844
0.00834052
0.00247106
-0.00191223
0.00857261
-0.00168193
0.00879708
-0.00147709
0.00900323
-0.00129579
0.00918995
-0.00113569
0.00935893
-0.000994731
0.00951157
-0.000870907
0.00964905
-0.000762308
0.00977236
-0.000667195
0.00988249
-0.000583966
0.00998041
-0.000511152
0.0100671
-0.000447438
0.0101435
-0.00039164
0.0102105
-0.000342694
0.0102691
-0.000299684
0.0103201
-0.000261778
0.0103644
-0.000228257
0.0104027
-0.00019849
0.0104356
-0.000171928
0.0104638
-0.000148087
0.0104878
-0.000126546
0.0105081
-0.000106936
0.0105252
-8.89292e-05
0.0105394
-7.22306e-05
0.0105509
-5.65838e-05
0.0105602
-4.17489e-05
0.0105673
-2.75086e-05
0.0105725
-1.36574e-05
0.0105759
0.0105776
-0.00183562
0.00806398
0.00211216
-0.00160389
0.00834089
-0.00139851
0.00859169
-0.00121785
0.00882257
-0.00105968
0.00903178
-0.000921486
0.00922074
-0.000801077
0.00939116
-0.000696333
0.00954431
-0.000605385
0.00968141
-0.000526543
0.00980365
-0.000458233
0.0099121
-0.000399044
0.0100079
-0.000347734
0.0100921
-0.000303199
0.0101659
-0.000264469
0.0102303
-0.000230684
0.0102863
-0.00020112
0.0103348
-0.000175125
0.0103767
-0.000152155
0.0104126
-0.000131734
0.0104434
-0.000113457
0.0104695
-9.69743e-05
0.0104917
-8.19809e-05
0.0105102
-6.82085e-05
0.0105256
-5.5435e-05
0.0105381
-4.34522e-05
0.0105482
-3.20755e-05
0.0105559
-2.1143e-05
0.0105616
-1.04995e-05
0.0105652
0.0105671
-0.0014673
0.00780535
0.00172593
-0.00126227
0.00813586
-0.00108442
0.00841384
-0.000930788
0.00866894
-0.000798183
0.00889918
-0.000684489
0.00910704
-0.000587097
0.00929377
-0.000503894
0.0094611
-0.000432876
0.00961039
-0.000372318
0.00974309
-0.00032073
0.00986051
-0.000276791
0.00996395
-0.000239322
0.0100547
-0.000207304
0.0101339
-0.000179874
0.0102029
-0.000156278
0.0102627
-0.000135864
0.0103144
-0.000118105
0.0103589
-0.000102537
0.0103971
-8.87873e-05
0.0104296
-7.65318e-05
0.0104573
-6.54942e-05
0.0104806
-5.54512e-05
0.0105002
-4.6222e-05
0.0105164
-3.76307e-05
0.0105296
-2.95411e-05
0.0105401
-2.1839e-05
0.0105482
-1.44096e-05
0.0105541
-7.15966e-06
0.010558
0.0105599
-0.0010733
0.00754229
0.00133636
-0.000888495
0.00795105
-0.000739887
0.00826523
-0.000616775
0.00854583
-0.000513094
0.0087955
-0.000426707
0.00902066
-0.000355076
0.00922214
-0.000295742
0.00940177
-0.000246757
0.00956141
-0.000206499
0.00970283
-0.000173409
0.00982743
-0.000146242
0.00993678
-0.000123937
0.0100324
-0.000105582
0.0101156
-9.04147e-05
0.0101877
-7.78069e-05
0.0102501
-6.72432e-05
0.0103039
-5.82961e-05
0.01035
-5.06298e-05
0.0103894
-4.39569e-05
0.010423
-3.8055e-05
0.0104514
-3.27581e-05
0.0104753
-2.79204e-05
0.0104953
-2.34253e-05
0.0105119
-1.91942e-05
0.0105253
-1.516e-05
0.0105361
-1.1256e-05
0.0105443
-7.45556e-06
0.0105503
-3.71294e-06
0.0105543
0.0105562
-0.000676734
0.00725696
0.000962062
-0.000491907
0.00776623
-0.000367801
0.00814113
-0.000276422
0.00845445
-0.000205728
0.0087248
-0.000150121
0.00896505
-0.000107024
0.00917904
-7.4203e-05
0.00936895
-4.96628e-05
0.00953687
-3.15144e-05
0.00968469
-1.85116e-05
0.00981442
-9.50634e-06
0.00992778
-3.52881e-06
0.0100264
1.87573e-07
0.0101119
2.26547e-06
0.0101857
3.19732e-06
0.0102492
3.36103e-06
0.0103037
3.04539e-06
0.0103503
2.46892e-06
0.01039
1.78427e-06
0.0104236
1.10059e-06
0.0104521
4.93762e-07
0.0104759
5.94691e-09
0.0104958
-3.41838e-07
0.0105122
-5.4762e-07
0.0105255
-6.13325e-07
0.0105361
-5.74614e-07
0.0105443
-4.34616e-07
0.0105502
-2.32641e-07
0.0105541
0.010556
-0.000299206
0.00696307
0.000593096
-9.10368e-05
0.00755806
2.21129e-05
0.00802798
8.62412e-05
0.00839032
0.000122765
0.00868828
0.000144015
0.0089438
0.000155063
0.00916799
0.000158561
0.00936545
0.000156488
0.00953894
0.000150386
0.00969079
0.000141593
0.00982322
0.000131111
0.00993826
0.000119704
0.0100378
0.000107965
0.0101236
9.63251e-05
0.0101973
8.50987e-05
0.0102604
7.44968e-05
0.0103143
6.46498e-05
0.0103601
5.56255e-05
0.010399
4.7444e-05
0.0104318
4.00894e-05
0.0104594
3.35197e-05
0.0104825
2.76742e-05
0.0105017
2.2478e-05
0.0105174
1.78502e-05
0.0105302
1.36987e-05
0.0105403
9.93717e-06
0.010548
6.46303e-06
0.0105537
3.18376e-06
0.0105573
0.0105591
6.36939e-05
0.00671185
0.000187528
0.000285029
0.00733672
0.000410813
0.00790219
0.000459205
0.00834193
0.000464889
0.00868259
0.000450526
0.00895816
0.000426871
0.00919165
0.000398456
0.00939387
0.000367548
0.00956985
0.000335621
0.00972271
0.000303772
0.00985506
0.000272796
0.00996923
0.000243244
0.0100673
0.00021548
0.0101514
0.000189723
0.0102231
0.000166073
0.0102841
0.000144545
0.0103358
0.000125087
0.0103796
0.0001076
0.0104165
9.19512e-05
0.0104475
7.79882e-05
0.0104734
6.55451e-05
0.010495
5.44492e-05
0.0105128
4.45257e-05
0.0105273
3.56006e-05
0.0105391
2.75007e-05
0.0105484
2.00573e-05
0.0105555
1.31021e-05
0.0105606
6.47103e-06
0.010564
0.0105656
0.000451191
0.0065431
-0.000282439
0.000646505
0.00714141
0.000779549
0.00776915
0.000825758
0.00829572
0.000810085
0.00869827
0.000762974
0.00900527
0.000703795
0.00925083
0.00064156
0.0094561
0.00057999
0.00963142
0.000520753
0.00978195
0.000464756
0.00991106
0.000412523
0.0100215
0.000364324
0.0101155
0.000320245
0.0101954
0.000280236
0.0102631
0.000244149
0.0103202
0.00021177
0.0103682
0.000182838
0.0104085
0.000157068
0.0104422
0.000134161
0.0104704
0.000113814
0.0104937
9.57315e-05
0.010513
7.96227e-05
0.0105289
6.52087e-05
0.0105417
5.22213e-05
0.0105521
4.04033e-05
0.0105602
2.95078e-05
0.0105664
1.92961e-05
0.0105708
9.53641e-06
0.0105737
0.0105751
0.000871318
0.00650883
-0.000837049
0.00100079
0.00701194
0.00112424
0.0076457
0.00117314
0.00824682
0.00114619
0.00872522
0.00107249
0.00907897
0.000979426
0.00934389
0.000882721
0.00955281
0.000789274
0.00972487
0.000701668
0.00986956
0.000620797
0.00999193
0.000546903
0.0100954
0.00047991
0.0101825
0.000419562
0.0102558
0.000365488
0.0103171
0.000317247
0.0103684
0.000274361
0.0104111
0.000236336
0.0104465
0.000202681
0.0104759
0.000172917
0.0105001
0.000146585
0.0105201
0.000123251
0.0105364
0.000102504
0.0105496
8.39591e-05
0.0105603
6.72561e-05
0.0105688
5.20537e-05
0.0105754
3.80295e-05
0.0105804
2.48758e-05
0.010584
1.2296e-05
0.0105863
0.0105874
0.00134336
0.00661354
-0.00144807
0.00137219
0.0069831
0.00145566
0.00756223
0.00149837
0.00820411
0.0014645
0.00875908
0.00137029
0.00917318
0.0012465
0.00946769
0.00111594
0.00968337
0.000990191
0.00985061
0.000873708
0.00998604
0.000767715
0.0100979
0.000672208
0.0101909
0.00058671
0.010268
0.000510549
0.0103319
0.000442974
0.0103847
0.000383202
0.0104282
0.000330457
0.0104638
0.000283988
0.010493
0.000243082
0.0105168
0.00020707
0.0105362
0.000175331
0.0105518
0.00014729
0.0105644
0.000122419
0.0105745
0.000100228
0.0105825
8.02663e-05
0.0105887
6.21129e-05
0.0105935
4.53747e-05
0.0105971
2.96792e-05
0.0105997
1.46699e-05
0.0106013
0.0106021
0.00185727
0.00682901
-0.00207274
0.00177678
0.00706359
0.00179207
0.00754694
0.00180866
0.00818752
0.00176258
0.00880515
0.00164978
0.00928598
0.00149781
0.00961966
0.0013346
0.00984658
0.00117685
0.0100084
0.00103164
0.0101313
0.000900884
0.0102287
0.000784385
0.0103074
0.000681206
0.0103712
0.000590182
0.010423
0.000510108
0.0104648
0.000439814
0.0104985
0.000378194
0.0105254
0.00032422
0.010547
0.000276946
0.0105641
0.000235508
0.0105776
0.000199123
0.0105882
0.000167081
0.0105965
0.000138736
0.0106028
0.000113502
0.0106077
9.08431e-05
0.0106114
7.02668e-05
0.0106141
5.13148e-05
0.0106161
3.35572e-05
0.0106174
1.65845e-05
0.0106183
0.0106187
0.00239052
0.00711263
-0.00267414
0.00221589
0.00723822
0.00214789
0.00761494
0.00211512
0.00822029
0.00204255
0.00887773
0.00190655
0.00942198
0.00172631
0.00979991
0.00153135
0.0100415
0.00134252
0.0101972
0.00116954
0.0103042
0.00101518
0.010383
0.000879065
0.0104435
0.0007597
0.0104906
0.000655345
0.0105273
0.000564282
0.0105559
0.000484908
0.0105778
0.000415763
0.0105946
0.000355526
0.0106072
0.000303022
0.0106166
0.000257196
0.0106234
0.000217109
0.0106283
0.000181921
0.0106316
0.000150882
0.0106339
0.000123319
0.0106353
9.86227e-05
0.0106361
7.62365e-05
0.0106365
5.56479e-05
0.0106367
3.63786e-05
0.0106367
1.79752e-05
0.0106367
0.0106367
0.00292273
0.00742552
-0.00323561
0.0026794
0.00748155
0.00252641
0.00776792
0.00242434
0.00832237
0.00230588
0.00899619
0.00213604
0.00959182
0.00192414
0.0100118
0.00169767
0.010268
0.00147935
0.0104155
0.00128068
0.0105029
0.001105
0.0105587
0.000951608
0.0105969
0.00081839
0.0106238
0.000702939
0.0106428
0.000602966
0.0106558
0.000516419
0.0106644
0.000441475
0.0106695
0.000376536
0.0106722
0.000320194
0.0106729
0.000271223
0.0106724
0.000228544
0.010671
0.000191206
0.010669
0.000158371
0.0106667
0.000129293
0.0106644
0.000103302
0.0106621
7.97915e-05
0.01066
5.82078e-05
0.0106583
3.80357e-05
0.0106569
1.87891e-05
0.0106559
0.0106555
0.00344112
0.00774425
-0.00375984
0.00314988
0.00777279
0.00291636
0.00800144
0.00273106
0.00850767
0.00254743
0.00917982
0.00233032
0.00980894
0.00208141
0.0102607
0.00182358
0.0105258
0.00157844
0.0106607
0.00135765
0.0107237
0.00116437
0.010752
0.000997298
0.0107639
0.000853547
0.0107676
0.000730012
0.0107663
0.000623835
0.010762
0.000532509
0.0107557
0.000453877
0.0107482
0.000386082
0.01074
0.000327531
0.0107315
0.000276847
0.0107231
0.000232837
0.010715
0.000194467
0.0107073
0.00016083
0.0107003
0.000131128
0.0106941
0.000104651
0.0106886
8.07589e-05
0.0106839
5.88703e-05
0.0106801
3.84486e-05
0.0106773
1.89868e-05
0.0106754
0.0106744
0.00393355
0.0080657
-0.004255
0.00360158
0.00810476
0.00329105
0.00831197
0.00301513
0.00878359
0.00275218
0.00944277
0.00247625
0.0100849
0.00218577
0.0105512
0.00189782
0.0108138
0.00163028
0.0109282
0.00139285
0.0109611
0.00118742
0.0109574
0.00101166
0.0109397
0.000861796
0.0109174
0.000734016
0.0108941
0.000624948
0.0108711
0.000531698
0.010849
0.000451833
0.010828
0.000383301
0.0108085
0.000324367
0.0107904
0.00027355
0.0107739
0.000229587
0.0107589
0.00019139
0.0107455
0.000158016
0.0107337
0.000128638
0.0107234
0.000102528
0.0107147
7.90331e-05
0.0107074
5.75629e-05
0.0107016
3.75703e-05
0.0106973
1.85459e-05
0.0106944
0.010693
0.00437405
0.00840489
-0.00471324
0.00399605
0.00848276
0.00361059
0.00869743
0.00324401
0.00915016
0.00289618
0.00979061
0.00255573
0.0104253
0.00222266
0.0108843
0.00190857
0.0111279
0.00162554
0.0112112
0.00137923
0.0112074
0.00116901
0.0111676
0.000990991
0.0111177
0.000840483
0.0110679
0.000713072
0.0110215
0.000604963
0.0109792
0.000513028
0.0109409
0.000434663
0.0109064
0.000367705
0.0108754
0.00031035
0.0108478
0.000261081
0.0108232
0.000218615
0.0108014
0.00018185
0.0107823
0.000149841
0.0107657
0.000121762
0.0107515
9.68932e-05
0.0107395
7.45902e-05
0.0107297
5.42671e-05
0.0107219
3.53915e-05
0.0107162
1.74618e-05
0.0107124
0.0107105
0.0047137
0.00878339
-0.00509221
0.00428352
0.00891295
0.00382893
0.00915201
0.00337885
0.00960024
0.00294932
0.0102201
0.00254653
0.0108281
0.00217578
0.011255
0.00184402
0.0114596
0.00155599
0.0114993
0.00131124
0.0114522
0.00110547
0.0113734
0.000932958
0.0112902
0.00078815
0.0112127
0.00066626
0.0111434
0.000563352
0.0110821
0.000476218
0.011028
0.000402231
0.0109804
0.000339255
0.0109384
0.000285506
0.0109015
0.000239505
0.0108692
0.000200001
0.0108409
0.000165933
0.0108164
0.000136386
0.0107953
0.000110578
0.0107773
8.78138e-05
0.0107623
6.7479e-05
0.01075
4.90237e-05
0.0107404
3.19382e-05
0.0107333
1.57476e-05
0.0107285
0.0107262
0.00489105
0.00920932
-0.00531698
0.00441337
0.00939062
0.00390013
0.00966525
0.00337737
0.010123
0.00287662
0.0107209
0.00242298
0.0112817
0.00202826
0.0116497
0.00169425
0.0117936
0.00141623
0.0117773
0.00118618
0.0116822
0.00099564
0.011564
0.00083723
0.0114486
0.000704936
0.011345
0.00059398
0.0112544
0.00050061
0.0111755
0.000421774
0.0111069
0.000355059
0.0110471
0.000298435
0.010995
0.000250279
0.0109497
0.00020922
0.0109102
0.00017409
0.010876
0.000143932
0.0108465
0.000117912
0.0108213
9.52962e-05
0.0107999
7.54604e-05
0.0107821
5.78428e-05
0.0107677
4.19364e-05
0.0107563
2.72782e-05
0.0107479
1.34373e-05
0.0107424
0.0107396
0.00485302
0.00966877
-0.00531246
0.00433804
0.0099056
0.00377446
0.0102288
0.00319165
0.0107058
0.00263971
0.0112728
0.00216018
0.0117613
0.00176758
0.0120423
0.00145494
0.0121063
0.0012063
0.0120259
0.00100585
0.0118827
0.000841841
0.011728
0.000706045
0.0115844
0.000592841
0.0114582
0.000498022
0.0113492
0.000418278
0.0112552
0.00035108
0.0111741
0.000294306
0.0111039
0.000246261
0.0110431
0.00020553
0.0109904
0.000170934
0.0109448
0.000141505
0.0109055
0.000116379
0.0108717
9.48385e-05
0.0108428
7.62704e-05
0.0108185
6.01182e-05
0.0107983
4.58943e-05
0.0107819
3.31607e-05
0.010769
2.15156e-05
0.0107596
1.05818e-05
0.0107533
0.0107502
0.00455014
0.0101509
-0.00503224
0.00400036
0.0104554
0.00339431
0.0108349
0.00277442
0.0113257
0.00221001
0.0118372
0.00174762
0.0122237
0.00139529
0.0123947
0.00113324
0.0123683
0.000934314
0.0122248
0.000777633
0.0120394
0.000650078
0.0118555
0.000544446
0.0116901
0.000456012
0.0115467
0.000381692
0.0114235
0.000319135
0.0113178
0.000266349
0.0112268
0.000221821
0.0111484
0.000184251
0.0110807
0.000152525
0.0110221
0.000125734
0.0109716
0.000103098
0.0109281
8.3973e-05
0.0108908
6.77775e-05
0.010859
5.39838e-05
0.0108323
4.21676e-05
0.0108101
3.19309e-05
0.0107921
2.29148e-05
0.0107781
1.47909e-05
0.0107677
7.24993e-06
0.0107609
0.0107575
0.00391601
0.0106676
-0.00443276
0.00333904
0.0110323
0.00271568
0.0114582
0.00210987
0.0119315
0.00159346
0.0123537
0.00120419
0.0126129
0.000934212
0.0126647
0.000749622
0.0125529
0.000616922
0.0123575
0.000514115
0.0121422
0.000430205
0.0119394
0.000359811
0.0117605
0.000300169
0.0116063
0.000249637
0.011474
0.000206767
0.0113606
0.000170546
0.0112631
0.000139987
0.011179
0.00011433
0.0111063
9.28215e-05
0.0110436
7.4901e-05
0.0109895
5.99992e-05
0.010943
4.76437e-05
0.0109031
3.74263e-05
0.0108692
2.90218e-05
0.0108407
2.2077e-05
0.0108171
1.63093e-05
0.0107979
1.14574e-05
0.0107829
7.2738e-06
0.0107719
3.5282e-06
0.0107646
0.010761
0.00290761
0.0112096
-0.00344961
0.00234219
0.0115978
0.00176296
0.0120375
0.00124583
0.0124487
0.000847119
0.0127524
0.000582776
0.0128773
0.00042589
0.0128215
0.000334528
0.0126443
0.000275543
0.0124165
0.000231149
0.0121866
0.000193844
0.0119767
0.000161021
0.0117933
0.00013224
0.0116351
0.000107034
0.0114992
8.54085e-05
0.0113823
6.70372e-05
0.0112814
5.16205e-05
0.0111944
3.87988e-05
0.0111191
2.83876e-05
0.0110541
1.99984e-05
0.0109979
1.34152e-05
0.0109496
8.37989e-06
0.0109082
4.67314e-06
0.010873
2.06848e-06
0.0108433
3.88838e-07
0.0108187
-5.45829e-07
0.0107988
-9.03592e-07
0.0107833
-8.35557e-07
0.0107718
-4.87705e-07
0.0107643
0.0107605
0.001593
0.011703
-0.00208637
0.0011042
0.0120866
0.00065383
0.0124878
0.000295511
0.012807
6.57336e-05
0.0129821
-4.6327e-05
0.0129893
-8.03954e-05
0.0128556
-7.78311e-05
0.0126417
-6.4935e-05
0.0124036
-5.3182e-05
0.0121748
-4.54916e-05
0.011969
-4.1391e-05
0.0117892
-3.97587e-05
0.0116335
-3.94329e-05
0.0114989
-3.96946e-05
0.0113825
-4.00118e-05
0.0112818
-4.00611e-05
0.0111944
-3.96436e-05
0.0111187
-3.87207e-05
0.0110531
-3.72229e-05
0.0109964
-3.51767e-05
0.0109475
-3.26095e-05
0.0109056
-2.95726e-05
0.0108699
-2.61182e-05
0.0108399
-2.23071e-05
0.0108149
-1.81993e-05
0.0107947
-1.38546e-05
0.0107789
-9.33391e-06
0.0107673
-4.69651e-06
0.0107596
0.0107558
0.000168062
0.0120389
-0.000503933
-0.00018534
0.01244
-0.000455126
0.0127576
-0.000613255
0.0129651
-0.000659752
0.0130286
-0.000624093
0.0129537
-0.000547716
0.0127792
-0.00046349
0.0125575
-0.000388197
0.0123283
-0.00032672
0.0121133
-0.000278223
0.0119205
-0.000240126
0.0117511
-0.000209844
0.0116032
-0.000185293
0.0114744
-0.000164918
0.0113621
-0.000147585
0.0112644
-0.000132471
0.0111793
-0.000118988
0.0111052
-0.000106706
0.0110408
-9.53103e-05
0.010985
-8.45743e-05
0.0109368
-7.4329e-05
0.0108954
-6.44509e-05
0.01086
-5.48478e-05
0.0108302
-4.54491e-05
0.0108055
-3.6202e-05
0.0107855
-2.70647e-05
0.0107698
-1.80036e-05
0.0107582
-8.99062e-06
0.0107506
0.0107468
-0.00121115
0.0122393
0.00101073
-0.00135484
0.0125837
-0.00141449
0.0128173
-0.00137897
0.0129296
-0.00126722
0.0129169
-0.00111363
0.0128001
-0.000952544
0.0126182
-0.000805653
0.0124106
-0.000681076
0.0122038
-0.000578861
0.0120111
-0.00049578
0.0118375
-0.000427991
0.0116833
-0.000372135
0.0115473
-0.00032551
0.0114277
-0.000286058
0.0113227
-0.000252202
0.0112306
-0.000222743
0.0111499
-0.000196764
0.0110793
-0.000173558
0.0110176
-0.000152571
0.010964
-0.000133371
0.0109176
-0.00011561
0.0108776
-9.90104e-05
0.0108434
-8.33454e-05
0.0108146
-6.84245e-05
0.0107906
-5.40874e-05
0.0107711
-4.01951e-05
0.0107559
-2.66239e-05
0.0107446
-1.32611e-05
0.0107372
0.0107336
-0.00231146
0.0122644
0.00228631
-0.00227005
0.0125422
-0.00214918
0.0126964
-0.00196216
0.0127426
-0.00173699
0.0126917
-0.00150367
0.0125668
-0.00128618
0.0124007
-0.0010962
0.0122206
-0.000935883
0.0120434
-0.000802528
0.0118778
-0.000691818
0.0117268
-0.000599476
0.011591
-0.000521865
0.0114697
-0.000456035
0.0113619
-0.000399668
0.0112663
-0.00035093
0.0111818
-0.000308379
0.0111073
-0.00027087
0.0110417
-0.000237488
0.0109843
-0.000207496
0.010934
-0.000180293
0.0108904
-0.000155387
0.0108527
-0.000132368
0.0108204
-0.000110889
0.0107931
-9.06547e-05
0.0107704
-7.14072e-05
0.0107519
-5.2918e-05
0.0107374
-3.49801e-05
0.0107267
-1.74017e-05
0.0107197
0.0107162
-0.00309577
0.0121421
0.00321812
-0.0029026
0.0123491
-0.00265302
0.0124468
-0.00236957
0.0124591
-0.00207773
0.0123999
-0.00179978
0.0122888
-0.00155022
0.0121511
-0.00133391
0.0120043
-0.00114983
0.0118594
-0.000994219
0.0117221
-0.000862658
0.0115952
-0.000751
0.0114793
-0.000655706
0.0113744
-0.000573851
0.01128
-0.000503059
0.0111955
-0.000441402
0.0111202
-0.000387311
0.0110532
-0.000339508
0.0109939
-0.000296944
0.0109417
-0.000258751
0.0108958
-0.000224205
0.0108558
-0.0001927
0.0108212
-0.000163717
0.0107914
-0.000136814
0.0107662
-0.000111604
0.0107452
-8.77442e-05
0.010728
-6.49273e-05
0.0107146
-4.28715e-05
0.0107047
-2.13131e-05
0.0106981
0.0106948
-0.00357888
0.011911
0.00380993
-0.00328632
0.0120565
-0.00296409
0.0121246
-0.00263275
0.0121278
-0.0023114
0.0120785
-0.00201504
0.0119924
-0.00175132
0.0118874
-0.00152144
0.0117744
-0.00132322
0.0116611
-0.00115294
0.0115519
-0.0010066
0.0114489
-0.000880541
0.0113532
-0.000771538
0.0112654
-0.000676871
0.0111854
-0.000594259
0.0111129
-0.000521796
0.0110477
-0.000457888
0.0109893
-0.000401204
0.0109373
-0.000350621
0.0108911
-0.000305193
0.0108504
-0.000264115
0.0108148
-0.000226695
0.0107838
-0.000192338
0.0107571
-0.000160521
0.0107344
-0.000130785
0.0107154
-0.000102717
0.0107
-7.59421e-05
0.0106878
-5.01128e-05
0.0106788
-2.49033e-05
0.0106729
0.0106699
-0.00382456
0.0116135
0.00412211
-0.00348299
0.0117149
-0.00313288
0.0117745
-0.00278802
0.0117829
-0.00246184
0.0117523
-0.00216392
0.0116945
-0.00189783
0.0116213
-0.00166337
0.01154
-0.00145828
0.011456
-0.0012794
0.011373
-0.00112345
0.0112929
-0.000987328
0.0112171
-0.000868268
0.0111463
-0.000763847
0.011081
-0.000671969
0.011021
-0.000590834
0.0109666
-0.000518895
0.0109174
-0.000454827
0.0108732
-0.00039749
0.0108338
-0.0003459
0.0107988
-0.000299206
0.0107681
-0.000256663
0.0107412
-0.00021762
0.010718
-0.000181498
0.0106983
-0.000147779
0.0106817
-0.000115996
0.0106682
-8.5717e-05
0.0106575
-5.65422e-05
0.0106496
-2.80919e-05
0.0106444
0.0106419
-0.00390689
0.0112861
0.00423431
-0.00355394
0.011362
-0.00320439
0.0114249
-0.00286632
0.0114449
-0.0025493
0.0114353
-0.00225929
0.0114045
-0.00199796
0.01136
-0.00176484
0.0113068
-0.00155811
0.0112493
-0.00137533
0.0111902
-0.00121394
0.0111315
-0.00107145
0.0110746
-0.000945557
0.0110205
-0.000834169
0.0109696
-0.000735426
0.0109223
-0.000647679
0.0108788
-0.000569477
0.0108392
-0.000499544
0.0108033
-0.000436761
0.010771
-0.000380142
0.0107422
-0.000328817
0.0107168
-0.000282015
0.0106944
-0.000239051
0.0106751
-0.000199307
0.0106585
-0.000162225
0.0106446
-0.000127293
0.0106332
-9.40391e-05
0.0106243
-6.20184e-05
0.0106176
-3.08083e-05
0.0106132
0.010611
-0.00388847
0.0109547
0.00421988
-0.00354622
0.0110197
-0.0032118
0.0110905
-0.00289043
0.0111235
-0.00258912
0.011134
-0.00231164
0.011127
-0.00205899
0.0111073
-0.00183092
0.0110788
-0.00162616
0.0110445
-0.00144297
0.011007
-0.00127944
0.010968
-0.00113363
0.0109288
-0.00100365
0.0108905
-0.000887765
0.0108537
-0.00078434
0.0108189
-0.000691907
0.0107864
-0.000609133
0.0107564
-0.000534822
0.0107289
-0.000467899
0.0107041
-0.000407401
0.0106817
-0.000352465
0.0106618
-0.000302313
0.0106443
-0.000256241
0.010629
-0.000213612
0.0106159
-0.00017384
0.0106048
-0.000136383
0.0105958
-0.000100738
0.0105886
-6.64278e-05
0.0105833
-3.2996e-05
0.0105798
0.010578
-0.00381326
0.0106342
0.00413377
-0.00349115
0.0106976
-0.00317722
0.0107766
-0.00287588
0.0108222
-0.00259231
0.0108504
-0.00232904
0.0108638
-0.00208698
0.0108653
-0.00186614
0.0108579
-0.00166577
0.0108442
-0.00148471
0.010826
-0.00132158
0.0108049
-0.00117489
0.0107821
-0.00104314
0.0107587
-0.000924879
0.0107354
-0.000818719
0.0107127
-0.00072336
0.010691
-0.0006376
0.0106706
-0.000560331
0.0106517
-0.000490543
0.0106343
-0.000427311
0.0106185
-0.000369792
0.0106043
-0.000317219
0.0105917
-0.000268885
0.0105807
-0.000224144
0.0105711
-0.000182395
0.0105631
-0.000143081
0.0105565
-0.000105674
0.0105512
-6.96769e-05
0.0105473
-3.4608e-05
0.0105447
0.0105434
-0.00370758
0.0103312
0.00401059
-0.00340758
0.0103976
-0.00311456
0.0104836
-0.00283301
0.0105406
-0.00256676
0.0105842
-0.00231774
0.0106147
-0.00208689
0.0106344
-0.00187445
0.0106455
-0.00168003
0.0106498
-0.0015029
0.0106488
-0.00134209
0.010644
-0.00119647
0.0106365
-0.00106485
0.0106271
-0.000946043
0.0106166
-0.000838856
0.0106055
-0.000742158
0.0105943
-0.000654869
0.0105833
-0.000575978
0.0105728
-0.000504542
0.0105628
-0.000439686
0.0105536
-0.0003806
0.0105452
-0.000326534
0.0105376
-0.000276792
0.0105309
-0.000230729
0.0105251
-0.000187742
0.0105201
-0.000147262
0.010516
-0.000108753
0.0105127
-7.17015e-05