/*--------------------------------*- C++ -*----------------------------------*\
  =========                 |
  \\      /  F ield         | OpenFOAM: The Open Source CFD Toolbox
   \\    /   O peration     | Website:  https://openfoam.org
    \\  /    A nd           | Version:  7
     \\/     M anipulation  |
\*---------------------------------------------------------------------------*/
FoamFile
{
    version     2.0;
    format      ascii;
    class       volScalarField;
    location    "35";
    object      p;
}
// * * * * * * * * * * * * * * * * * * * * * * * * * * * * * * * * * * * * * //

dimensions      [0 2 -2 0 0 0 0];

internalField   nonuniform List<scalar> 
3312
(
0.62375
0.610049
0.600221
0.590655
0.57887
0.564743
0.548709
0.531256
0.512841
0.493848
0.474582
0.455279
0.436108
0.417234
0.398882
0.615898
0.602425
0.592957
0.583858
0.572581
0.558956
0.543393
0.526376
0.508362
0.489738
0.470813
0.451816
0.432926
0.414335
0.396313
0.600311
0.587289
0.578534
0.570357
0.560087
0.547455
0.532828
0.516677
0.499459
0.481569
0.463316
0.444931
0.426597
0.408567
0.391199
0.577222
0.564864
0.557157
0.550338
0.541555
0.530391
0.517148
0.502278
0.48624
0.469435
0.452181
0.434702
0.41719
0.399988
0.383581
0.546975
0.535483
0.529133
0.524078
0.517231
0.507986
0.496552
0.483358
0.468864
0.453481
0.437533
0.421243
0.40481
0.388683
0.373524
0.510025
0.49958
0.494864
0.491939
0.487441
0.480529
0.471301
0.460152
0.447541
0.433892
0.419541
0.404705
0.389591
0.374765
0.361116
0.466926
0.457691
0.454847
0.454368
0.452583
0.448377
0.441714
0.432944
0.422526
0.410898
0.398407
0.38527
0.371694
0.358371
0.346461
0.418332
0.410444
0.409661
0.41189
0.413127
0.41195
0.408164
0.402069
0.394117
0.384761
0.374366
0.363146
0.351305
0.339655
0.329682
0.364982
0.358553
0.35997
0.365101
0.369604
0.371721
0.371077
0.367904
0.36265
0.355781
0.347679
0.338562
0.328622
0.318785
0.310911
0.307693
0.302805
0.306504
0.314663
0.322606
0.328217
0.330919
0.330868
0.328496
0.324284
0.318634
0.311768
0.30386
0.295934
0.290283
0.247348
0.244054
0.250061
0.261294
0.272774
0.28201
0.288201
0.291412
0.292055
0.29062
0.287532
0.283012
0.277207
0.271234
0.267903
0.184885
0.183208
0.191485
0.205763
0.220793
0.233709
0.243465
0.250018
0.253751
0.255162
0.254701
0.252584
0.2489
0.244839
0.24386
0.12128
0.121211
0.131664
0.148876
0.167386
0.183958
0.197287
0.207204
0.214047
0.218319
0.220496
0.220777
0.2191
0.216665
0.217962
0.0575324
0.0590291
0.0715106
0.0914664
0.1133
0.133425
0.150261
0.163496
0.173406
0.18048
0.185231
0.187884
0.188162
0.18694
0.189972
-0.00534942
-0.00236965
0.0119479
0.0343837
0.0593008
0.0827961
0.103011
0.11947
0.132374
0.142183
0.149436
0.154457
0.156759
0.156004
0.158123
-0.0663745
-0.0620266
-0.0461075
-0.0215263
0.00615356
0.0327626
0.0561589
0.0756878
0.091458
0.103862
0.113382
0.120379
0.124558
0.125104
0.1226
-0.124726
-0.118948
-0.10178
-0.0754457
-0.0453896
-0.0159963
0.0103237
0.0327272
0.0512187
0.0661297
0.0778922
0.0869229
0.0932831
0.0963621
0.095753
-0.179535
-0.17223
-0.154319
-0.126618
-0.0946056
-0.0628294
-0.0338955
-0.00884227
0.0122224
0.029588
0.043669
0.0549416
0.0638107
0.0701024
0.0725059
-0.229778
-0.221252
-0.202738
-0.174514
-0.140822
-0.107149
-0.0759612
-0.0485299
-0.025094
-0.00540516
0.0109363
0.024414
0.0356005
0.0446534
0.0499304
-0.274862
-0.26535
-0.246457
-0.217925
-0.183712
-0.148451
-0.115408
-0.0859418
-0.0604148
-0.0386405
-0.0202455
-0.00477307
0.00839204
0.0196197
0.0273594
-0.314324
-0.303972
-0.285058
-0.256714
-0.222296
-0.186246
-0.151836
-0.120742
-0.0934708
-0.0699155
-0.0497418
-0.0325271
-0.0176603
-0.00464976
0.00509544
-0.347796
-0.336728
-0.318105
-0.290456
-0.256377
-0.220088
-0.184892
-0.152643
-0.124019
-0.099022
-0.077372
-0.0586875
-0.0423788
-0.0278666
-0.0164285
-0.375062
-0.363402
-0.34532
-0.318815
-0.285676
-0.249748
-0.214331
-0.181421
-0.151864
-0.125785
-0.102981
-0.0831235
-0.0656673
-0.0499326
-0.0369686
-0.396076
-0.383955
-0.366615
-0.341627
-0.30998
-0.27503
-0.239973
-0.206912
-0.176864
-0.150089
-0.126465
-0.105729
-0.0874462
-0.0708345
-0.0565322
-0.410973
-0.398525
-0.382073
-0.358888
-0.329207
-0.295816
-0.261699
-0.22901
-0.19892
-0.17184
-0.147745
-0.126437
-0.107572
-0.090505
-0.0754932
-0.420053
-0.407416
-0.391942
-0.370751
-0.343409
-0.31209
-0.279466
-0.247667
-0.217987
-0.19099
-0.166769
-0.145203
-0.12604
-0.10879
-0.0936523
-0.423771
-0.411088
-0.39663
-0.377517
-0.352772
-0.323944
-0.293312
-0.262895
-0.234065
-0.207529
-0.183507
-0.161963
-0.142716
-0.125362
-0.110035
-0.422712
-0.410131
-0.396685
-0.379634
-0.357611
-0.331578
-0.303356
-0.274769
-0.247205
-0.221488
-0.197963
-0.176686
-0.157543
-0.140187
-0.124681
-0.41756
-0.405233
-0.392767
-0.377673
-0.358365
-0.335294
-0.309798
-0.283423
-0.257506
-0.232944
-0.210201
-0.189427
-0.170588
-0.153402
-0.137838
-0.409061
-0.397144
-0.385611
-0.372306
-0.355583
-0.335498
-0.312919
-0.289057
-0.265117
-0.242024
-0.220333
-0.200295
-0.181962
-0.165135
-0.149678
-0.397989
-0.386634
-0.375984
-0.364261
-0.349899
-0.332687
-0.313078
-0.291925
-0.270231
-0.248885
-0.228502
-0.209421
-0.191783
-0.175489
-0.160316
-0.385102
-0.374449
-0.364645
-0.354288
-0.341998
-0.327427
-0.310705
-0.292336
-0.273075
-0.253707
-0.234862
-0.216945
-0.200179
-0.184574
-0.169857
-0.37111
-0.361282
-0.352297
-0.343106
-0.332574
-0.320328
-0.306285
-0.290648
-0.273906
-0.256686
-0.239574
-0.223011
-0.207282
-0.192507
-0.178411
-0.356645
-0.347737
-0.339559
-0.331366
-0.322288
-0.312009
-0.30034
-0.287263
-0.273017
-0.258033
-0.242804
-0.227761
-0.213225
-0.199413
-0.186081
-0.342238
-0.334315
-0.32694
-0.319617
-0.311728
-0.303058
-0.293401
-0.282612
-0.270726
-0.257977
-0.244721
-0.231332
-0.218131
-0.205403
-0.192959
-0.328313
-0.321404
-0.31483
-0.308287
-0.301375
-0.293992
-0.285977
-0.277137
-0.26738
-0.256765
-0.245495
-0.233849
-0.222106
-0.21058
-0.199129
-0.315185
-0.309283
-0.303502
-0.297679
-0.291588
-0.28523
-0.278513
-0.271265
-0.263335
-0.254662
-0.245306
-0.235432
-0.225239
-0.21503
-0.20466
-0.303062
-0.298128
-0.293123
-0.287981
-0.282604
-0.277072
-0.271369
-0.265376
-0.258942
-0.251948
-0.244349
-0.236201
-0.227606
-0.218827
-0.209632
-0.292066
-0.288033
-0.283772
-0.279278
-0.274546
-0.269704
-0.264798
-0.259773
-0.254516
-0.2489
-0.242831
-0.236285
-0.229272
-0.222025
-0.214108
-0.282241
-0.279024
-0.275459
-0.271583
-0.267448
-0.263207
-0.258948
-0.254671
-0.250314
-0.245777
-0.240964
-0.235819
-0.230294
-0.224641
-0.218194
-0.273573
-0.271073
-0.268146
-0.264853
-0.261278
-0.257582
-0.253873
-0.25019
-0.246516
-0.242792
-0.238947
-0.234944
-0.230722
-0.226629
-0.22188
-0.266003
-0.264117
-0.261762
-0.25901
-0.255962
-0.252772
-0.249554
-0.246366
-0.243222
-0.240097
-0.236955
-0.233794
-0.230608
-0.227836
-0.225288
-0.259439
-0.258066
-0.256214
-0.253956
-0.2514
-0.248685
-0.245919
-0.243167
-0.240454
-0.237776
-0.235116
-0.232497
-0.229996
-0.22803
-0.228084
-0.253768
-0.252816
-0.251398
-0.249584
-0.24748
-0.245209
-0.242865
-0.24051
-0.238171
-0.235841
-0.233502
-0.231171
-0.228948
-0.226984
-0.230409
-0.248867
-0.248256
-0.247207
-0.245785
-0.24409
-0.242225
-0.240273
-0.238285
-0.236279
-0.234238
-0.23212
-0.229892
-0.227505
-0.224688
-0.230576
-0.244614
-0.244279
-0.24354
-0.242457
-0.241123
-0.239624
-0.238026
-0.23637
-0.234664
-0.232871
-0.230912
-0.228676
-0.225877
-0.221132
-0.215949
-0.240898
-0.240786
-0.240305
-0.239511
-0.238491
-0.237312
-0.236028
-0.234669
-0.233235
-0.23168
-0.22991
-0.227799
-0.225114
-0.220806
-0.237621
-0.237691
-0.237427
-0.236878
-0.236124
-0.235221
-0.234211
-0.233115
-0.231928
-0.230607
-0.229071
-0.227227
-0.224936
-0.234706
-0.234929
-0.234844
-0.2345
-0.233974
-0.233308
-0.232535
-0.23167
-0.230708
-0.229612
-0.22832
-0.226775
-0.224883
-0.232091
-0.232445
-0.232512
-0.232342
-0.232008
-0.231545
-0.230979
-0.230322
-0.229569
-0.228691
-0.227647
-0.226412
-0.229733
-0.230202
-0.230398
-0.230375
-0.230206
-0.229919
-0.229536
-0.229068
-0.22851
-0.227846
-0.227052
-0.2276
-0.228173
-0.228482
-0.228585
-0.228557
-0.228423
-0.228201
-0.227903
-0.227528
-0.227067
-0.226509
-0.225675
-0.226345
-0.226753
-0.226963
-0.227055
-0.227053
-0.226973
-0.226825
-0.226615
-0.226338
-0.223951
-0.224711
-0.225206
-0.225509
-0.225704
-0.225813
-0.225853
-0.225836
-0.225768
-0.22565
-0.22243
-0.223274
-0.223847
-0.224228
-0.224508
-0.224711
-0.224851
-0.224942
-0.224992
-0.221124
-0.222045
-0.222684
-0.223129
-0.223479
-0.223757
-0.223977
-0.224155
-0.224298
-0.220047
-0.221035
-0.22173
-0.222227
-0.222631
-0.222967
-0.223249
-0.223492
-0.223706
-0.219219
-0.220261
-0.220998
-0.221534
-0.221979
-0.222357
-0.222683
-0.222973
-0.223236
-0.218656
-0.219735
-0.220502
-0.221064
-0.221535
-0.22194
-0.222296
-0.222616
-0.222911
-0.218371
-0.21947
-0.220252
-0.220826
-0.22131
-0.221729
-0.222099
-0.222433
0.340092
0.282521
0.232468
0.204649
0.177161
0.162493
0.146018
0.13763
0.127306
0.122412
0.115999
0.113339
0.109693
0.10879
0.107231
0.338615
0.281831
0.232092
0.204447
0.177036
0.162411
0.145962
0.137582
0.127275
0.122375
0.115972
0.113307
0.109667
0.108759
0.107203
0.335669
0.280454
0.231344
0.204044
0.176788
0.162246
0.145852
0.137485
0.127213
0.1223
0.115916
0.113241
0.109616
0.108698
0.107147
0.331272
0.278396
0.230227
0.203442
0.176417
0.162
0.145688
0.13734
0.127119
0.122188
0.115833
0.113144
0.109539
0.108606
0.107062
0.325453
0.275669
0.228748
0.202647
0.175927
0.161674
0.145472
0.137147
0.126992
0.122039
0.115723
0.113016
0.109436
0.108485
0.10695
0.318248
0.272283
0.226915
0.201662
0.175321
0.16127
0.145205
0.136908
0.126834
0.121853
0.115583
0.112857
0.109308
0.108334
0.106809
0.309711
0.268254
0.224738
0.200495
0.174602
0.16079
0.144889
0.136623
0.126643
0.121629
0.115419
0.112672
0.109156
0.108155
0.10664
0.299902
0.263601
0.222227
0.199152
0.173777
0.160238
0.144528
0.136295
0.126415
0.121354
0.115254
0.112459
0.108978
0.107949
0.106444
0.288898
0.258349
0.219392
0.197642
0.17285
0.159615
0.144122
0.135925
0.126151
0.121092
0.11504
0.112216
0.108777
0.107716
0.10622
0.276782
0.252529
0.216245
0.195972
0.171827
0.158926
0.143675
0.135516
0.125857
0.120787
0.114805
0.111943
0.10855
0.107457
0.105968
0.263647
0.246178
0.212796
0.19415
0.170714
0.158173
0.143189
0.13507
0.125537
0.120434
0.114539
0.111637
0.108298
0.107176
0.105689
0.249585
0.23933
0.209051
0.19217
0.169512
0.157354
0.142661
0.134587
0.125191
0.120059
0.114239
0.111301
0.108037
0.106872
0.105383
0.234679
0.232073
0.205039
0.190057
0.168241
0.156486
0.142105
0.134079
0.124823
0.119662
0.113912
0.110981
0.107753
0.106547
0.105049
0.218899
0.224627
0.200852
0.187988
0.166999
0.155673
0.141578
0.133599
0.124463
0.119269
0.113576
0.110606
0.10744
0.1062
0.104688
0.202299
0.216044
0.196085
0.185369
0.165516
0.154606
0.140927
0.132979
0.12403
0.118789
0.113197
0.110185
0.107103
0.105825
0.104305
0.142251
0.174132
0.173531
0.168059
0.156586
0.146798
0.136647
0.128803
0.121508
0.11613
0.111428
0.108297
0.105762
0.104257
0.102846
0.0989038
0.123942
0.136558
0.138598
0.135645
0.130844
0.125012
0.119674
0.114518
0.110393
0.10677
0.104223
0.102176
0.100869
0.0996723
0.0702841
0.0934717
0.108077
0.114144
0.11631
0.115195
0.112864
0.109792
0.106689
0.103793
0.101295
0.099295
0.0977556
0.0966851
0.0960008
0.0507243
0.0718851
0.0865653
0.0946164
0.0994159
0.100896
0.101044
0.0998928
0.0984817
0.0967716
0.0952551
0.0938445
0.0927879
0.092031
0.0917493
0.0377324
0.0563116
0.0701062
0.0789969
0.0850531
0.0882362
0.0900299
0.0903979
0.0902877
0.0896198
0.0889289
0.0881068
0.0875011
0.0870585
0.0870306
0.028845
0.0449966
0.057559
0.0664922
0.0730466
0.0772244
0.0800605
0.0815347
0.0823845
0.0825655
0.0825475
0.0822648
0.0820578
0.081896
0.0820142
0.0226022
0.0366279
0.047922
0.0564721
0.0630824
0.0677528
0.0711954
0.0734133
0.0749436
0.075773
0.0762858
0.0764579
0.0765842
0.0766537
0.0768593
0.0181386
0.030332
0.0404215
0.0483999
0.0548155
0.0596498
0.0633991
0.0660681
0.0680534
0.0693498
0.0702633
0.0707931
0.0711826
0.071432
0.0716942
0.0149023
0.0255264
0.0345094
0.0418469
0.0479307
0.0527233
0.0565765
0.0594844
0.0617453
0.063356
0.0645547
0.0653486
0.0659345
0.0663167
0.0666172
0.0125251
0.0218098
0.0297959
0.0364841
0.0421661
0.0467912
0.0506128
0.0536122
0.0560149
0.0578161
0.0592019
0.0601776
0.0609007
0.0613758
0.0617011
0.0107602
0.0188988
0.0259965
0.0320591
0.0373112
0.0416953
0.0453966
0.0483859
0.0508338
0.0527309
0.0542238
0.0553133
0.0561241
0.0566589
0.0569978
0.00943748
0.0165909
0.0229012
0.0283775
0.0331977
0.0373017
0.0408271
0.0437376
0.0461621
0.0480856
0.0496234
0.0507724
0.0516309
0.052199
0.052542
0.00843674
0.0147401
0.0203538
0.0252896
0.029691
0.0334987
0.0368161
0.0396027
0.041956
0.0438562
0.045393
0.0465597
0.0474346
0.0480152
0.0483547
0.00767244
0.0132389
0.0182368
0.0226793
0.0266838
0.0301934
0.033287
0.035922
0.0381723
0.0400144
0.0415173
0.0426713
0.0435387
0.0441157
0.0444457
0.00708254
0.0120079
0.0164612
0.020456
0.0240897
0.0273089
0.030174
0.0326424
0.0347697
0.0365301
0.0379766
0.0390965
0.0399397
0.0405011
0.0408173
0.00662248
0.0109871
0.014958
0.0185482
0.0218392
0.0247815
0.0274213
0.0297168
0.03171
0.0333739
0.0347489
0.0358205
0.0366282
0.0371663
0.0374657
0.00625775
0.0101309
0.013673
0.016899
0.0198765
0.022559
0.0249815
0.0271042
0.0289585
0.0305176
0.0318119
0.032826
0.033591
0.0341011
0.034382
0.00596344
0.00939925
0.0125623
0.0154648
0.0181579
0.0205988
0.0228146
0.0247684
0.0264838
0.0279345
0.0291433
0.0300947
0.0308129
0.0312922
0.0315538
0.00572497
0.00876063
0.0116002
0.0142153
0.016649
0.0188653
0.0208862
0.0226778
0.0242573
0.0255997
0.0267217
0.0276079
0.0282775
0.0287245
0.0289669
0.00553353
0.00825439
0.010783
0.0131259
0.0153197
0.0173278
0.0191669
0.0208044
0.0222536
0.02349
0.0245263
0.0253471
0.0259678
0.0263823
0.0266059
0.00536285
0.00780185
0.0100667
0.012169
0.0141445
0.0159611
0.0176311
0.0191242
0.0204496
0.0215843
0.0225376
0.0232944
0.0238671
0.0242496
0.024455
0.00521229
0.00739651
0.00942907
0.0113199
0.0131001
0.0147426
0.0162569
0.0176156
0.0188248
0.0198632
0.0207371
0.0214325
0.0219588
0.0223105
0.0224984
0.00507899
0.00703565
0.00886049
0.0105626
0.0121679
0.013653
0.0150251
0.0162598
0.0173609
0.018309
0.0191079
0.019745
0.0202273
0.0205496
0.0207211
0.00496
0.00671367
0.0083528
0.00988541
0.0113337
0.0126764
0.0139192
0.0150401
0.0160414
0.0169053
0.0176344
0.0182166
0.0186574
0.0189521
0.0191083
0.00485174
0.00642497
0.00789831
0.00927892
0.0105857
0.0117997
0.012925
0.0139419
0.0148516
0.0156378
0.016302
0.0168331
0.0172353
0.0175041
0.0176462
0.00475157
0.0061646
0.00749012
0.00873454
0.00991398
0.0110117
0.0120304
0.0129526
0.0137784
0.0144932
0.0150976
0.0155814
0.0159478
0.0161927
0.0163218
0.00465777
0.00592859
0.00712234
0.00824486
0.0093099
0.0103026
0.0112249
0.0120609
0.0128102
0.0134597
0.0140091
0.0144494
0.0147829
0.0150058
0.0151229
0.00456922
0.00571378
0.00679008
0.00780351
0.00876586
0.00966396
0.010499
0.0112569
0.0119367
0.0125266
0.0130258
0.0134262
0.0137295
0.0139322
0.0140384
0.00448519
0.00551763
0.00648924
0.00740511
0.00827534
0.00908832
0.00984471
0.0105319
0.0111486
0.0116842
0.0121378
0.0125018
0.0127775
0.0129618
0.0130581
0.00440516
0.00533809
0.0062164
0.00704503
0.00783271
0.00856918
0.00925469
0.00987798
0.0104376
0.0109241
0.0113361
0.011667
0.0119176
0.0120851
0.0121724
0.00432884
0.00517338
0.00596864
0.00671936
0.00743311
0.00810088
0.0087226
0.00928829
0.00979639
0.0102383
0.0106127
0.0109136
0.0111414
0.0112936
0.0113728
0.00425579
0.00502229
0.00574363
0.00642478
0.00707233
0.00767842
0.00824279
0.00875661
0.00921823
0.00961998
0.00996042
0.0102341
0.0104413
0.0105798
0.0106516
0.00418668
0.00488355
0.00553943
0.00615847
0.00674664
0.00729734
0.00781022
0.00827742
0.00869724
0.00906281
0.00937262
0.00962179
0.00981038
0.0099364
0.0100017
0.00412062
0.00475751
0.00535474
0.00591767
0.00645253
0.00695362
0.00742042
0.00784584
0.00822816
0.00856121
0.00884349
0.0090706
0.00924245
0.00935727
0.00941662
0.00405852
0.00464375
0.00518683
0.00569934
0.0061868
0.00664376
0.00706945
0.00745753
0.00780629
0.00811019
0.00836777
0.00857507
0.00873191
0.00883668
0.00889071
0.0039983
0.00453198
0.00503111
0.00550104
0.00594695
0.0063648
0.00675388
0.00710866
0.00742743
0.0077053
0.00794078
0.00813035
0.00827373
0.0083695
0.00841878
0.00394248
0.00443165
0.00488981
0.00532156
0.00573082
0.00611407
0.00647068
0.00679583
0.0070879
0.00734255
0.00755831
0.00773206
0.00786343
0.00795117
0.00799621
0.00389065
0.0043415
0.00476301
0.00516028
0.00553682
0.00588934
0.00621718
0.00651603
0.00678441
0.0070184
0.00721665
0.0073763
0.00749699
0.00757758
0.00761888
0.00384253
0.00426
0.00464939
0.0050161
0.0053635
0.00568872
0.00599106
0.00626665
0.00651405
0.00672975
0.00691247
0.00705964
0.00717085
0.0072451
0.00728309
0.00379798
0.00418646
0.0045478
0.00488768
0.00520939
0.0055105
0.00579031
0.00604536
0.00627425
0.00647383
0.00664284
0.00677899
0.00688185
0.00695051
0.00698557
0.00375716
0.00412045
0.00445737
0.00477385
0.00507308
0.00535305
0.00561311
0.00585013
0.00606278
0.00624821
0.0064052
0.00653168
0.0066272
0.00669095
0.00672345
0.0037202
0.00406173
0.00437749
0.00467366
0.00495337
0.00521497
0.00545783
0.00567916
0.00587766
0.00605075
0.00619727
0.00631533
0.00640446
0.00646394
0.0064942
0.00368718
0.00401005
0.00430764
0.00458634
0.00484925
0.00509503
0.00532307
0.00553086
0.00571716
0.00587961
0.00601709
0.00612787
0.00621149
0.00626728
0.00629562
0.00365815
0.00396524
0.00424738
0.00451123
0.00475987
0.00499219
0.00520763
0.0054039
0.0055798
0.00573318
0.00586296
0.00596754
0.00604646
0.0060991
0.00612581
0.00363319
0.00392705
0.0041963
0.00444778
0.00468451
0.00490559
0.00511049
0.00529711
0.00546432
0.0056101
0.00573343
0.00583281
0.00590779
0.0059578
0.00598314
0.00361215
0.00389533
0.00415412
0.00439558
0.00462262
0.00483453
0.00503081
0.00520955
0.00536965
0.00550923
0.00562728
0.00572242
0.00579418
0.00584204
0.00586625
0.00359542
0.00386975
0.00412073
0.00435435
0.00457372
0.0047784
0.0049679
0.00514044
0.00529494
0.00542963
0.00554353
0.00563532
0.00570455
0.00575071
0.00577404
0.0035828
0.00385235
0.00409639
0.00432377
0.00453743
0.00473675
0.00492123
0.00508916
0.0052395
0.00537056
0.00548138
0.0055707
0.00563805
0.00568295
0.00570564
0.00357442
0.00383842
0.00407953
0.00430358
0.00451354
0.00470927
0.00489037
0.00505524
0.00520282
0.00533149
0.00544027
0.00552795
0.00559405
0.00563813
0.00566038
0.00356809
0.00383294
0.00407203
0.00429379
0.00450173
0.00469561
0.00487502
0.00503836
0.00518458
0.00531204
0.00541981
0.00550666
0.00557214
0.00561581
0.00563787
0.108316
0.072509
0.05017
0.0346333
0.0244742
0.0177093
0.0131745
0.0101082
0.00802198
0.00659381
0.00562016
0.0049628
0.0045259
0.00424296
0.00406628
0.00396327
0.00390908
0.00389275
0.00389971
0.00390509
0.00390241
0.00390459
0.0039092
0.00391291
0.00391323
0.00390911
0.00390034
0.00388709
0.00386978
0.00384878
0.00382484
0.00379802
0.00376957
0.0037383
0.00370661
0.0036764
0.00364777
0.00361874
0.00359013
0.00356247
0.00353633
0.00351201
0.00348982
0.00346992
0.0034526
0.00343786
0.00342596
0.00341607
0.00341087
0.00340483
0.0905192
0.0569426
0.0393983
0.026876
0.0190017
0.0137346
0.0102194
0.00785671
0.00626663
0.00519655
0.00448781
0.00402963
0.00374511
0.00358059
0.00349754
0.0034699
0.00348034
0.00352248
0.00357226
0.00360162
0.00362311
0.00365228
0.00368153
0.00370666
0.00372578
0.00373842
0.00374476
0.00374518
0.00374026
0.00373054
0.00371683
0.00369936
0.00367882
0.00365422
0.00362898
0.00360665
0.003585
0.00356139
0.00353739
0.00351387
0.00349141
0.00347035
0.00345099
0.00343354
0.0034183
0.00340541
0.00339468
0.00338562
0.00338073
0.00337643
0.0687053
0.0363901
0.0254698
0.0171643
0.0125259
0.00936379
0.00722844
0.00576311
0.00476505
0.0040929
0.00365786
0.0033898
0.00323885
0.00316908
0.0031543
0.00317665
0.0032273
0.00330348
0.00337238
0.00340722
0.00343827
0.00348142
0.00352323
0.00355905
0.00358758
0.00360893
0.00362352
0.00363184
0.00363449
0.00363206
0.00362527
0.00361447
0.0035997
0.00358034
0.0035606
0.00354499
0.00352918
0.00351028
0.00349048
0.00347084
0.00345194
0.00343409
0.00341757
0.00340262
0.00338953
0.00337856
0.00336909
0.00336108
0.00335647
0.00335433
0.0507688
0.0211827
0.0152199
0.0097726
0.007284
0.00555504
0.00441035
0.00362562
0.00310471
0.00277386
0.00259023
0.0025106
0.00250344
0.00254523
0.00261858
0.00271156
0.00281965
0.00294221
0.0030478
0.00311385
0.00317408
0.00324308
0.00330692
0.00336197
0.0034075
0.00344407
0.00347238
0.00349316
0.00350714
0.00351507
0.00351771
0.00351557
0.00350866
0.0034967
0.00348387
0.00347455
0.0034642
0.00345028
0.00343505
0.00341954
0.00340434
0.00338977
0.00337612
0.00336366
0.00335267
0.00334345
0.00333532
0.00332844
0.00332431
0.00332314
0.035054
0.0105614
0.00858261
0.00474644
0.00339578
0.00240306
0.00182469
0.00147709
0.0013024
0.00124756
0.00128847
0.00139291
0.00153824
0.00170747
0.00188825
0.00207242
0.00225686
0.00244169
0.00260174
0.00272032
0.00282723
0.00293438
0.00303038
0.00311367
0.00318415
0.00324278
0.00329061
0.00332869
0.00335805
0.00337966
0.00339445
0.00340315
0.00340611
0.00340337
0.00339871
0.00339589
0.00339114
0.00338256
0.00337227
0.00336114
0.00334976
0.00333853
0.00332777
0.00331778
0.00330882
0.00330123
0.00329446
0.00328867
0.00328515
0.0032841
0.0189551
0.000523139
0.00271028
0.000295161
-7.90865e-05
-0.000503891
-0.000637044
-0.000627756
-0.000504364
-0.000310808
-5.97731e-05
0.000222066
0.000518005
0.000815774
0.00110677
0.00138592
0.00165124
0.00190308
0.002122
0.00229714
0.00245453
0.00260324
0.00273447
0.00284871
0.00294658
0.00302941
0.00309862
0.0031556
0.00320166
0.00323807
0.00326598
0.00328629
0.00329976
0.00330672
0.00331057
0.00331454
0.0033156
0.00331253
0.00330728
0.00330058
0.00329307
0.00328519
0.00327731
0.00326976
0.00326282
0.00325682
0.0032514
0.00324666
0.00324378
0.00324264
0.0023377
-0.0103451
-0.00387404
-0.0046414
-0.00379056
-0.00350094
-0.00310592
-0.00270058
-0.00226209
-0.0018152
-0.00135445
-0.00089884
-0.000457341
-3.65771e-05
0.000359103
0.000727996
0.00107
0.00138621
0.00166108
0.00188829
0.00209236
0.0022804
0.00244538
0.00258936
0.00271355
0.00281972
0.00290962
0.00298495
0.00304731
0.00309819
0.00313895
0.0031707
0.00319446
0.00321084
0.00322302
0.00323385
0.00324087
0.00324332
0.00324306
0.00324075
0.00323708
0.00323252
0.00322751
0.0032224
0.00321747
0.00321309
0.00320899
0.00320529
0.00320304
0.00320195
-0.0139818
-0.0213191
-0.0109287
-0.0100005
-0.0077707
-0.00663995
-0.00562623
-0.00477284
-0.00399111
-0.00327809
-0.00260244
-0.00197277
-0.00138801
-0.000847897
-0.000351769
0.000102368
0.000516901
0.000894452
0.00122245
0.00149787
0.00174483
0.00196956
0.00216643
0.00233858
0.00248771
0.00261603
0.00272562
0.00281847
0.00289645
0.00296124
0.00301443
0.00305726
0.003091
0.00311646
0.00313669
0.00315437
0.00316737
0.0031753
0.00317996
0.00318199
0.00318213
0.00318089
0.00317873
0.00317605
0.00317315
0.00317041
0.00316764
0.00316496
0.00316336
0.00316247
-0.0295844
-0.0315562
-0.0178028
-0.0153429
-0.0117833
-0.00981553
-0.00816735
-0.00685292
-0.00571829
-0.00473427
-0.00384054
-0.00303555
-0.0023072
-0.001648
-0.00105207
-0.000513607
-2.76113e-05
0.000410516
0.000791229
0.00111408
0.00140276
0.00166327
0.0018914
0.00209119
0.0022648
0.00241484
0.00254374
0.0026538
0.00274712
0.00282561
0.00289103
0.00294481
0.00298839
0.00302278
0.00305094
0.00307541
0.00309441
0.0031078
0.00311735
0.0031237
0.00312762
0.00312968
0.00313038
0.00313013
0.00312927
0.00312818
0.00312675
0.0031251
0.00312415
0.00312355
-0.0444701
-0.0408352
-0.0242364
-0.0204198
-0.0156647
-0.0129344
-0.0106873
-0.00893013
-0.00745016
-0.00619926
-0.00508808
-0.00410771
-0.00323506
-0.0024558
-0.00175901
-0.00113524
-0.000576944
-7.74477e-05
0.000356934
0.00072807
0.00105897
0.00135558
0.0016153
0.00184299
0.0020413
0.00221322
0.00236157
0.00248893
0.00259767
0.0026899
0.00276759
0.00283234
0.00288579
0.00292911
0.00296517
0.00299643
0.00302144
0.00304029
0.00305472
0.00306537
0.00307308
0.00307844
0.00308199
0.00308418
0.00308536
0.00308592
0.00308583
0.00308521
0.00308493
0.00308464
-0.0587769
-0.0492782
-0.030338
-0.0252302
-0.0194006
-0.0159748
-0.0131697
-0.0109944
-0.00918137
-0.00767091
-0.00634482
-0.0051903
-0.00417333
-0.00327342
-0.0024749
-0.00176481
-0.00113321
-0.000571334
-8.22727e-05
0.000338038
0.000711835
0.00104515
0.00133697
0.00159299
0.00181635
0.00201046
0.00217849
0.00232334
0.00244764
0.00255375
0.0026438
0.00271961
0.00278298
0.00283526
0.00287923
0.0029173
0.00294832
0.00297264
0.00299195
0.0030069
0.00301839
0.00302705
0.00303345
0.00303806
0.00304127
0.0030435
0.00304475
0.00304516
0.00304555
0.00304558
-0.0726673
-0.0570109
-0.0363056
-0.0298545
-0.0230502
-0.0189571
-0.0156213
-0.0130444
-0.0109072
-0.00914317
-0.00760441
-0.00627732
-0.00511656
-0.00409603
-0.00319555
-0.00239877
-0.00169334
-0.00106846
-0.000524134
-5.42796e-05
0.000362698
0.000733067
0.00105732
0.00134192
0.00159055
0.00180703
0.0019949
0.00215737
0.00229734
0.00241739
0.00251987
0.00260678
0.0026801
0.00274134
0.00279323
0.00283811
0.00287518
0.00290496
0.00292914
0.00294839
0.00296365
0.00297559
0.00298482
0.00299186
0.0029971
0.00300098
0.00300357
0.00300501
0.00300609
0.00300643
-0.0856194
-0.0645507
-0.0422657
-0.034343
-0.0266703
-0.0219025
-0.0180549
-0.0150843
-0.0126281
-0.0106127
-0.00886293
-0.00736461
-0.00606059
-0.00491973
-0.00391741
-0.00303394
-0.00225454
-0.00156634
-0.000966497
-0.000447082
1.30401e-05
0.00042056
0.000777388
0.00109066
0.00136465
0.00160356
0.00181132
0.00199145
0.00214712
0.00228114
0.00239607
0.00249408
0.00257735
0.00264754
0.00270731
0.00275902
0.00280213
0.00283738
0.0028664
0.00288993
0.00290895
0.00292417
0.00293623
0.00294568
0.00295294
0.00295848
0.0029624
0.00296487
0.00296662
0.0029673
-0.0974622
-0.0720244
-0.0481677
-0.0388019
-0.0302988
-0.0248143
-0.0204795
-0.0171186
-0.0143482
-0.012078
-0.0101199
-0.00845136
-0.00700446
-0.00574347
-0.0046394
-0.00366927
-0.00281583
-0.00206412
-0.00140859
-0.000839667
-0.000336508
0.000108176
0.000497638
0.000839631
0.00113901
0.00140036
0.00162802
0.00182581
0.00199718
0.00214517
0.00227255
0.00238166
0.00247485
0.00255394
0.00262158
0.00268011
0.00272927
0.00276996
0.00280382
0.00283161
0.00285437
0.00287285
0.00288772
0.00289957
0.00290886
0.00291604
0.00292129
0.00292478
0.00292721
0.00292824
-0.10837
-0.0793553
-0.0538723
-0.043267
-0.0339206
-0.0277301
-0.0229095
-0.0191557
-0.0160785
-0.013534
-0.0113758
-0.00953828
-0.00794884
-0.0065678
-0.00536192
-0.00430504
-0.0033774
-0.00256193
-0.00185053
-0.00123209
-0.000685945
-0.000204063
0.000218113
0.000588902
0.000913675
0.00119749
0.00144505
0.00166052
0.00184758
0.00200954
0.00214934
0.00226954
0.00237264
0.0024606
0.00253607
0.00260141
0.00265662
0.00270274
0.00274141
0.00277345
0.00279993
0.00282165
0.00283932
0.00285356
0.00286485
0.00287368
0.00288025
0.00288475
0.00288786
0.00288926
-0.118587
-0.086452
-0.0593379
-0.0477322
-0.0375135
-0.0306496
-0.0253431
-0.0211941
-0.0178075
-0.0149972
-0.0126361
-0.010628
-0.00889537
-0.00739386
-0.00608583
-0.00494187
-0.00393973
-0.00306017
-0.00229265
-0.00162461
-0.00103544
-0.00051632
-6.12972e-05
0.000338527
0.00068864
0.000994932
0.00126242
0.00149556
0.00169833
0.00187425
0.00202648
0.00215775
0.00227073
0.00236753
0.0024508
0.00252294
0.0025842
0.00263573
0.00267919
0.00271545
0.00274564
0.00277058
0.00279104
0.00280766
0.00282094
0.0028314
0.00283929
0.00284479
0.00284858
0.00285034
-0.128315
-0.0932689
-0.0645974
-0.052189
-0.041071
-0.0335621
-0.0277766
-0.0232319
-0.0195338
-0.0164692
-0.0139014
-0.011721
-0.00984452
-0.00822205
-0.00681143
-0.00558002
-0.00450301
-0.00355899
-0.00273508
-0.00201734
-0.00138505
-0.000828522
-0.000340565
8.82883e-05
0.000463849
0.00079268
0.00108013
0.00133097
0.00154945
0.00173932
0.00190397
0.0020463
0.00216915
0.00227476
0.0023658
0.00244474
0.00251202
0.00256895
0.00261718
0.00265764
0.00269151
0.00271966
0.00274289
0.00276187
0.00277714
0.00278922
0.00279841
0.00280491
0.00280936
0.00281151
-0.137724
-0.0997918
-0.0697076
-0.0566424
-0.0445974
-0.0364638
-0.0302103
-0.0252699
-0.0212609
-0.017947
-0.0151708
-0.0128172
-0.0107963
-0.00905241
-0.00753876
-0.00621951
-0.00506724
-0.0040584
-0.00317782
-0.00241026
-0.00173472
-0.00114063
-0.000619656
-0.000161785
0.000239337
0.00059077
0.000898212
0.00116677
0.00140096
0.0016048
0.00178186
0.00193524
0.00206793
0.00218232
0.00228112
0.00236683
0.00244013
0.00250243
0.0025554
0.00260004
0.00263758
0.00266892
0.00269489
0.00271622
0.00273345
0.00274715
0.00275763
0.00276512
0.00277023
0.00277275
-0.146952
-0.105987
-0.0747139
-0.0611045
-0.0480962
-0.0393607
-0.0326473
-0.0273105
-0.0229929
-0.0194292
-0.016444
-0.0139168
-0.011751
-0.00988506
-0.0082679
-0.00686035
-0.00563242
-0.00455838
-0.00362088
-0.00280334
-0.00208444
-0.00145262
-0.000898536
-0.000411598
1.51709e-05
0.000389253
0.000716718
0.001003
0.00125293
0.00147072
0.00166019
0.00182461
0.00196711
0.00209025
0.00219677
0.00228925
0.00236855
0.0024362
0.00249388
0.00254268
0.00258386
0.00261837
0.00264707
0.00267072
0.00268991
0.00270521
0.00271697
0.00272542
0.00273119
0.00273408
-0.156139
-0.111817
-0.0796647
-0.06559
-0.0515685
-0.0422637
-0.0350918
-0.0293563
-0.0247323
-0.0209163
-0.0177213
-0.0150201
-0.0127087
-0.0107202
-0.00899895
-0.00750262
-0.00619858
-0.00505895
-0.00406424
-0.00319656
-0.00243416
-0.00176447
-0.00117716
-0.000661069
-0.000208591
0.000188182
0.000535695
0.00083973
0.00110538
0.00133713
0.00153899
0.00171443
0.00186673
0.00199858
0.0021128
0.00221203
0.00229731
0.00237028
0.00243266
0.00248559
0.00253038
0.00256803
0.00259945
0.00262541
0.00264653
0.00266341
0.00267643
0.00268585
0.00269225
0.00269552
-0.165396
-0.117214
-0.0846052
-0.0701025
-0.0550136
-0.0451848
-0.0375464
-0.0314105
-0.0264811
-0.0224096
-0.0190041
-0.0161281
-0.0136702
-0.0115582
-0.00973222
-0.00814653
-0.00676587
-0.00556021
-0.00450798
-0.00358998
-0.0027839
-0.00207619
-0.00145553
-0.000910176
-0.000431927
-1.24199e-05
0.000355171
0.00067697
0.000958358
0.00120406
0.0014183
0.00160473
0.00176681
0.00190734