/*--------------------------------*- C++ -*----------------------------------*\
  =========                 |
  \\      /  F ield         | OpenFOAM: The Open Source CFD Toolbox
   \\    /   O peration     | Website:  https://openfoam.org
    \\  /    A nd           | Version:  7
     \\/     M anipulation  |
\*---------------------------------------------------------------------------*/
FoamFile
{
    version     2.0;
    format      ascii;
    class       surfaceScalarField;
    location    "35";
    object      phi;
}
// * * * * * * * * * * * * * * * * * * * * * * * * * * * * * * * * * * * * * //

dimensions      [0 3 -1 0 0 0 0];

internalField   nonuniform List<scalar> 
6484
(
-5.42941e-05
5.42939e-05
-0.000182503
0.000128208
-0.000358872
0.000176369
-0.000563833
0.00020496
-0.000784744
0.000220911
-0.00101488
0.000230132
-0.00125149
0.000236612
-0.00149398
0.000242491
-0.00174265
0.000248672
-0.00199811
0.000255451
-0.00226103
0.000262919
-0.00253214
0.00027111
-0.00281216
0.000280026
-0.00310184
0.000289676
0.000300373
-0.00340221
-5.38181e-05
0.000108112
-0.000181124
0.000255514
-0.000356483
0.000351728
-0.00056048
0.000408957
-0.000780514
0.000440944
-0.00100983
0.00045945
-0.00124566
0.000472443
-0.00148738
0.000484211
-0.00173528
0.000496568
-0.00198994
0.000510116
-0.00225206
0.000525035
-0.00252235
0.000541395
-0.00280152
0.000559203
-0.00309032
0.00057847
0.000599805
-0.00338975
-5.28685e-05
0.00016098
-0.00017837
0.000381016
-0.000351708
0.000525065
-0.000553777
0.000611027
-0.000772052
0.000659219
-0.000999743
0.000687141
-0.00123401
0.000706713
-0.00147419
0.000724388
-0.00172054
0.000742915
-0.00197363
0.00076321
-0.00223414
0.000785548
-0.00250278
0.000810035
-0.00278026
0.000836683
-0.00306729
0.0008655
0.000897353
-0.00336484
-5.14498e-05
0.00021243
-0.000174249
0.000503815
-0.000344554
0.00069537
-0.000543726
0.000810199
-0.00075936
0.000874853
-0.00098461
0.00091239
-0.00121654
0.000938644
-0.00145441
0.000962257
-0.00169844
0.000986945
-0.00194919
0.00101396
-0.00220731
0.00104367
-0.00247349
0.00107621
-0.00274843
0.00111162
-0.00303282
0.00114989
0.00119208
-0.00332754
-4.95691e-05
0.000261999
-0.000168771
0.000623017
-0.000335028
0.000861627
-0.000530331
0.0010055
-0.000742438
0.00108696
-0.000964433
0.00113438
-0.00119325
0.00116746
-0.00142806
0.00119706
-0.00166902
0.0012279
-0.00191665
0.00126159
-0.0021716
0.00129861
-0.00243452
0.00133914
-0.00270609
0.0013832
-0.00298697
0.00143077
0.00148304
-0.00327794
-4.72358e-05
0.000309235
-0.000161952
0.000737733
-0.000323143
0.00102282
-0.000513596
0.00119596
-0.000721284
0.00129465
-0.00093921
0.00135231
-0.00116415
0.00139241
-0.00139514
0.00142805
-0.00163229
0.00146504
-0.00187606
0.00150537
-0.00212708
0.00154963
-0.00238597
0.00159803
-0.00265337
0.00165061
-0.00292989
0.00170729
0.00176932
-0.00321618
-4.44615e-05
0.000353697
-0.00015381
0.000847082
-0.000308915
0.00117792
-0.000493526
0.00138057
-0.000695895
0.00149702
-0.000908936
0.00156535
-0.00112924
0.00161271
-0.00135568
0.0016545
-0.00158828
0.00169764
-0.00182748
0.00174457
-0.00207383
0.00179598
-0.00232794
0.00185214
-0.00259041
0.00191307
-0.00286177
0.00197865
0.00205003
-0.00314248
-4.1261e-05
0.000394958
-0.000144369
0.00095019
-0.000292361
0.00132591
-0.000470126
0.00155833
-0.000666265
0.00169316
-0.0008736
0.00177269
-0.0010885
0.00182761
-0.00130967
0.00187567
-0.00153703
0.00192499
-0.00177094
0.00197848
-0.00201195
0.00203699
-0.00226059
0.00210078
-0.00251741
0.00216989
-0.00278284
0.00224408
0.00232433
-0.00305714
-3.76517e-05
0.00043261
-0.000133659
0.0010462
-0.000273504
0.00146576
-0.000443404
0.00172823
-0.000632384
0.00188214
-0.000833184
0.00197349
-0.00104193
0.00203636
-0.00125712
0.00209086
-0.00147854
0.00214641
-0.00170651
0.00220645
-0.00194152
0.002272
-0.00218407
0.00234333
-0.00243463
0.00242045
-0.00269349
0.00250294
0.00259146
-0.00296062
-3.36547e-05
0.000466264
-0.000121713
0.00113426
-0.000252375
0.00159642
-0.000413368
0.00188922
-0.000594237
0.00206301
-0.000787659
0.00216691
-0.000989492
0.00223819
-0.00119799
0.00229936
-0.0014128
0.00236122
-0.00163418
0.00242783
-0.00186258
0.00250039
-0.00209847
0.00257923
-0.00234226
0.00266424
-0.00259406
0.00275474
0.00285086
-0.00285345
-2.92951e-05
0.000495559
-0.000108579
0.00121354
-0.000229012
0.00171685
-0.000380033
0.00204025
-0.000551816
0.00223479
-0.000736998
0.00235209
-0.000931152
0.00243234
-0.00113226
0.00250047
-0.00133982
0.00256877
-0.00155401
0.00264202
-0.00177527
0.00272165
-0.00200408
0.00280804
-0.00224085
0.00290102
-0.00248546
0.00299935
0.00310206
-0.00273666
-2.46033e-05
0.000520163
-9.43116e-05
0.00128325
-0.000203468
0.00182601
-0.000343423
0.0021802
-0.000505101
0.00239647
-0.00068114
0.00252813
-0.000866808
0.00261801
-0.00105978
0.00269344
-0.00125936
0.00276835
-0.00146566
0.00284832
-0.00167908
0.00293507
-0.00190014
0.0030291
-0.00212948
0.00313035
-0.00236701
0.00323689
0.00334547
-0.00261043
-1.9616e-05
0.000539779
-7.89854e-05
0.00134262
-0.00017582
0.00192285
-0.000303586
0.00230797
-0.000454106
0.00254699
-0.000620078
0.0026941
-0.000796463
0.0027944
-0.000980609
0.00287759
-0.00117163
0.00295938
-0.00136962
0.00304631
-0.00157502
0.00314047
-0.00178841
0.00324249
-0.00201084
0.00335279
-0.00224325
0.0034693
0.00358247
-0.00248025
-1.43775e-05
0.000554156
-6.26969e-05
0.00139094
-0.000146172
0.00200632
-0.000260594
0.00242239
-0.000398846
0.00268524
-0.000553754
0.00284901
-0.000719952
0.0029606
-0.000894385
0.00305202
-0.00107586
0.00314086
-0.00126433
0.00323477
-0.00146014
0.00333628
-0.00166359
0.00344594
-0.0018754
0.0035646
-0.00209966
0.00369356
0.0038203
-0.0023375
-8.94896e-06
0.000563105
-4.55731e-05
0.00142756
-0.000114667
0.00207541
-0.000214569
0.00252229
-0.000339398
0.00281007
-0.000482206
0.00299182
-0.000637316
0.00311571
-0.000801252
0.00321596
-0.00097255
0.00331215
-0.00115116
0.00341337
-0.00133794
0.00352307
-0.00153437
0.00364236
-0.00174149
0.00377172
-0.00196053
0.0039126
0.00408883
-0.00222905
-3.51999e-06
0.000566625
-2.77546e-05
0.0014518
-8.14912e-05
0.00212915
-0.000165694
0.00260649
-0.000275903
0.00292028
-0.000405519
0.00312143
-0.000548577
0.00325876
-0.000701106
0.00336849
-0.000861212
0.00347226
-0.00102851
0.00358067
-0.00120346
0.00369802
-0.00138684
0.00382573
-0.00157974
0.00396463
-0.00178494
0.0041178
0.00428268
-0.00197879
2.1097e-06
0.000564516
-9.23359e-06
0.00146314
-4.68677e-05
0.00216678
-0.000114223
0.00267385
-0.000208574
0.00301463
-0.00032385
0.00323671
-0.000453831
0.00338875
-0.000593956
0.00350861
-0.000741737
0.00362004
-0.00089623
0.00373517
-0.0010573
0.00385909
-0.00122503
0.00399346
-0.00139924
0.00413884
-0.00157913
0.00429769
0.00447449
-0.00177094
7.94196e-06
0.000556574
9.47283e-06
0.00146161
-1.07315e-05
0.00218699
-6.05107e-05
0.00272363
-0.000137705
0.00309182
-0.000237518
0.00333652
-0.000353439
0.00350467
-0.000480318
0.00363549
-0.000615036
0.00375476
-0.000756126
0.00387626
-0.000903068
0.00400603
-0.00105579
0.00414619
-0.00121447
0.00429751
-0.0013791
0.00446232
0.00464561
-0.00155022
1.32601e-05
0.000543313
2.79498e-05
0.00144692
2.53768e-05
0.00218956
-4.24021e-06
0.00275324
-6.37119e-05
0.00315129
-0.000146976
0.00341979
-0.000247894
0.00360558
-0.000360847
0.00374844
-0.000482079
0.00387599
-0.000609635
0.00400381
-0.000742715
0.00413911
-0.000881162
0.00428464
-0.00102517
0.00444152
-0.00117467
0.00461182
0.0047999
-0.00132895
1.83462e-05
0.000524967
4.61231e-05
0.00141914
6.15669e-05
0.00217412
5.14373e-05
0.00276337
1.25068e-05
0.00319022
-5.28259e-05
0.00348512
-0.000137742
0.0036905
-0.000236077
0.00384678
-0.00034343
0.00398334
-0.000457312
0.00411769
-0.000576616
0.00425842
-0.000701041
0.00440906
-0.000830686
0.00457117
-0.000965465
0.00474659
0.00493926
-0.00110483
2.31436e-05
0.000501824
6.37432e-05
0.00137854
9.7643e-05
0.00214022
0.0001086
0.00275242
9.02138e-05
0.00320861
4.42748e-05
0.00353106
-2.34811e-05
0.00375826
-0.000106425
0.00392972
-0.000199438
0.00407636
-0.000299427
0.00421768
-0.00040491
0.0043639
-0.00051542
0.00451957
-0.000630984
0.00468673
-0.000751529
0.00486714
0.00506432
-0.00087658
2.75228e-05
0.000474301
8.04481e-05
0.00132562
0.000132835
0.00208783
0.000165546
0.00271971
0.000169324
0.00320483
0.000143878
0.0035565
9.44164e-05
0.00380772
2.77203e-05
0.00399642
-5.04276e-05
0.00415451
-0.000136241
0.0043035
-0.000227795
0.00445545
-0.000324405
0.00461618
-0.000426029
0.00478835
-0.000532508
0.00497362
0.00517498
-0.000643172
3.13542e-05
0.000442947
9.58248e-05
0.00126115
0.000166421
0.00201724
0.000221407
0.00266472
0.000248509
0.00317773
0.000245111
0.0035599
0.000215306
0.00383752
0.000165899
0.00404583
0.000103281
0.00421712
3.19542e-05
0.00437482
-4.55269e-05
0.00453293
-0.000128098
0.00469875
-0.000215723
0.00487598
-0.000308234
0.00506613
0.00527119
-0.000404446
3.45352e-05
0.000408412
0.000109484
0.0011862
0.000197643
0.00192908
0.000275153
0.00258721
0.000326664
0.00312622
0.000346867
0.0035397
0.000338301
0.00384609
0.000307457
0.00407667
0.000261247
0.00426333
0.000204989
0.00443108
0.000141891
0.00459603
7.34998e-05
0.00476714
3.86445e-07
0.00494909
-7.80768e-05
0.00514459
0.00535566
-0.000162548
3.69826e-05
0.000371429
0.000121054
0.00110213
0.000225705
0.00182443
0.000325601
0.00248731
0.000402428
0.00304939
0.000447827
0.0034943
0.000462285
0.00383163
0.000451558
0.0040874
0.000422876
0.00429202
0.00038236
0.0044716
0.000334049
0.00464434
0.000280046
0.00482115
0.000221041
0.0050081
0.000156909
0.00520873
0.0054264
8.61688e-05
3.86322e-05
0.000332797
0.000130193
0.00101056
0.000249792
0.00170483
0.000371445
0.00236566
0.000474181
0.00294666
0.000546339
0.00342214
0.0005858
0.00379217
0.000597068
0.00407613
0.000587374
0.00430171
0.000563594
0.00449538
0.000530712
0.00467723
0.000491649
0.00486021
0.00044781
0.00505194
0.00039977
0.00525677
0.00547762
0.000348556
3.94443e-05
0.000293352
0.000136607
0.000913402
0.000269109
0.00157232
0.000411284
0.00222349
0.000540055
0.00281788
0.000640366
0.00332183
0.000706958
0.00372558
0.000742445
0.00404064
0.000753607
0.00429055
0.0007479
0.00450108
0.00073133
0.0046938
0.000707815
0.00488372
0.000679528
0.00508022
0.000647542
0.00528875
0.00551274
0.000612416
3.94086e-05
0.000253944
0.000140087
0.000812724
0.000282939
0.00142947
0.000443688
0.00206274
0.000597964
0.00266361
0.000727469
0.00319233
0.000823348
0.0036297
0.000885608
0.00397838
0.000919949
0.00425621
0.000934065
0.00448697
0.000934924
0.00469294
0.000927551
0.0048911
0.000915001
0.00509277
0.000898922
0.00530483
0.00553142
0.000880248
3.85495e-05
0.000215394
0.00014053
0.000710744
0.00029072
0.00127928
0.000467304
0.00188616
0.000645693
0.00248522
0.000804827
0.00303319
0.000931983
0.00350254
0.00102382
0.00388654
0.00108416
0.00419586
0.00112039
0.00445074
0.00114022
0.00467311
0.00114983
0.00488148
0.00115338
0.00508923
0.00115327
0.00530493
0.00553367
0.00115102
3.69274e-05
0.000178467
0.000137969
0.000609703
0.00029212
0.00112513
0.000480993
0.00169728
0.000681045
0.00228517
0.000869326
0.00284491
0.00102929
0.00334258
0.00115359
0.00376224
0.00124325
0.0041062
0.00130455
0.00438944
0.00134553
0.00463213
0.00137348
0.00485353
0.00139378
0.00506893
0.00140984
0.00528887
0.00551967
0.00142384
3.46382e-05
0.000143829
0.000132581
0.00051176
0.000287104
0.000970605
0.000483986
0.0015004
0.000702063
0.00206709
0.00091775
0.00262922
0.00111118
0.00314915
0.00127061
0.00360282
0.00139328
0.00398353
0.00148337
0.00429936
0.00154853
0.00456697
0.00159687
0.0048052
0.00163507
0.00503072
0.00166777
0.00525617
0.00548942
0.00169802
3.18073e-05
0.000112022
0.000124692
0.000418875
0.000275987
0.00081931
0.000476044
0.00130034
0.000707297
0.00183584
0.000947087
0.00238943
0.00117328
0.00292295
0.00136977
0.00340633
0.00152923
0.00382407
0.00165251
0.00417607
0.00174587
0.0044736
0.00181764
0.00473343
0.00187567
0.00497269
0.001926
0.00520584
0.00544258
0.00197285
2.85816e-05
8.344e-05
0.00011475
0.000332707
0.000259431
0.000674629
0.000457567
0.00110221
0.000696095
0.00159731
0.000954935
0.00213059
0.00121129
0.0026666
0.00144539
0.00317222
0.00164491
0.00362456
0.00180622
0.00401477
0.00193283
0.00434699
0.0020323
0.00463396
0.00211321
0.00489178
0.002183
0.00513605
0.00537824
0.00224734
2.5118e-05
5.8322e-05
0.000103299
0.000254526
0.000238413
0.000539514
0.000429634
0.000910987
0.000668842
0.0013581
0.000939988
0.00185945
0.00122157
0.00238502
0.00149166
0.00290214
0.00173318
0.00338303
0.00193716
0.00381078
0.00210289
0.00418127
0.00223573
0.00450112
0.00234405
0.00478346
0.00243641
0.00504369
0.00529467
0.00251998
2.15713e-05
3.67507e-05
9.09246e-05
0.000185173
0.000214136
0.000416303
0.000393941
0.000731182
0.000627067
0.00112498
0.00090247
0.00158405
0.00120191
0.00208558
0.00150343
0.00260062
0.00178647
0.00309998
0.00203656
0.0035607
0.00224744
0.00397038
0.00242057
0.004328
0.0025626
0.00464142
0.00268236
0.00492393
0.00518875
0.00278828
1.80826e-05
1.86681e-05
7.82104e-05
0.000125045
0.000187913
0.0003066
0.000352636
0.000566458
0.000573374
0.000904239
0.000844381
0.00131304
0.00115223
0.00177773
0.00147732
0.00227553
0.00179785
0.00277945
0.0020948
0.00326375
0.00235581
0.00370937
0.00257672
0.00410709
0.00276049
0.00445765
0.00291468
0.00476975
0.00505544
0.00304798
1.47712e-05
3.89686e-06
6.56886e-05
7.41277e-05
0.000161047
0.000211242
0.000308092
0.000419414
0.000511166
0.000701164
0.00076943
0.00105477
0.00107502
0.00147214
0.00141282
0.00193773
0.00176253
0.00242974
0.00210284
0.00292345
0.00241601
0.0033962
0.00269127
0.00383184
0.00292584
0.00422307
0.00312373
0.00457186
0.00488713
0.00329204
1.17296e-05
-7.83278e-06
5.38081e-05
3.20492e-05
0.000134718
0.000130332
0.000262651
0.000291481
0.000444236
0.000519579
0.00068262
0.000816391
0.000975371
0.00117938
0.00131307
0.00160004
0.00167955
0.00206325
0.00205432
0.00254869
0.00241655
0.00303397
0.00274941
0.00349898
0.00304303
0.00392945
0.00329546
0.00431943
0.00467326
0.00350932
9.02102e-06
-1.68538e-05
4.2914e-05
-1.84378e-06
0.000109902
6.33441e-05
0.000218412
0.000182971
0.000376322
0.000361669
0.000589567
0.000603145
0.000860266
0.000908685
0.00118484
0.00127546
0.00155293
0.00169517
0.00194791
0.0021537
0.00234938
0.00263251
0.00273687
0.00311149
0.00309389
0.00357243
0.00341094
0.00400238
0.00440092
0.00368328
6.68301e-06
-2.35368e-05
3.32422e-05
-2.84029e-05
8.73299e-05
9.25631e-06
0.000177067
9.32337e-05
0.000310708
0.000228029
0.000495763
0.000418091
0.000737586
0.000666861
0.0010376
0.000975445
0.00139163
0.00134114
0.00178901
0.00175632
0.00221319
0.00220833
0.00264401
0.00268066
0.00306115
0.00315529
0.00344819
0.00361534
0.00405685
0.00379226
4.72832e-06
-2.82651e-05
2.49193e-05
-4.85939e-05
6.74632e-05
-3.32876e-05
0.000139818
2.08789e-05
0.000249956
0.00011789
0.000405918
0.000262129
0.000614911
0.000457868
0.00088195
0.000708406
0.0012082
0.00101488
0.00158948
0.00137504
0.00201547
0.00178234
0.00247022
0.0022259
0.00293399
0.00269152
0.00338675
0.00316259
0.0036327
0.0038109
3.14633e-06
-3.14115e-05
1.79691e-05
-6.34166e-05
5.05028e-05
-6.58213e-05
0.000107342
-3.59606e-05
0.000195754
2.94789e-05
0.000323531
0.000134352
0.00049853
0.000282869
0.000727804
0.000479131
0.00101633
0.000726353
0.00136553
0.00102585
0.00177184
0.00137602
0.00222609
0.00177166
0.00271353
0.00220408
0.00321554
0.00266058
0.00312918
0.00371907
1.90553e-06
-3.3317e-05
1.23216e-05
-7.38327e-05
3.64085e-05
-8.99082e-05
7.98231e-05
-7.93753e-05
0.000148902
-3.95999e-05
0.000250699
3.25556e-05
0.000392828
0.000140739
0.000583032
0.000288928
0.000828388
0.000480997
0.00113419
0.000720048
0.00150265
0.00100757
0.00193172
0.00134259
0.00241445
0.00172135
0.002939
0.00213603
0.00256454
0.00350363
9.5704e-07
-3.4274e-05
7.83066e-06
-8.07063e-05
2.49413e-05
-0.000107019
5.70224e-05
-0.000111456
0.000109411
-9.19882e-05
0.000188171
-4.62042e-05
0.000300122
2.87877e-05
0.000452704
0.000136345
0.000653601
0.0002801
0.000910088
0.000463561
0.00122814
0.000689514
0.00161148
0.00095925
0.00206137
0.00127146
0.00257612
0.00162128
0.00196117
0.00317948
2.41955e-07
-3.4516e-05
4.30148e-06
-8.47658e-05
1.57299e-05
-0.000118447
3.84064e-05
-0.000134133
7.67017e-05
-0.000130284
0.000135623
-0.000105125
0.000220922
-5.6512e-05
0.00033913
1.81374e-05
0.000497446
0.000121785
0.000703452
0.000257556
0.000964649
0.000428317
0.00128793
0.000635968
0.00167953
0.000879863
0.00215019
0.00115061
0.00134983
0.00276154
-3.01523e-07
-3.42145e-05
1.52563e-06
-8.6593e-05
8.3508e-06
-0.000125272
2.33005e-05
-0.000149083
4.9875e-05
-0.000156858
9.20764e-05
-0.000147327
0.000154532
-0.000118968
0.000242586
-6.99164e-05
0.000362311
2.05955e-06
0.000520384
9.94827e-05
0.000723787
0.000224914
0.000979246
0.00038051
0.00129194
0.000567165
0.00166158
0.000780979
-7.24525e-07
-3.34899e-05
-6.87046e-07
-8.66305e-05
2.40168e-06
-0.000128361
1.10299e-05
-0.000157711
2.79597e-05
-0.000173788
5.63171e-05
-0.000175684
9.97026e-05
-0.000162353
0.000162286
-0.0001325
0.000248861
-8.45156e-05
0.000364821
-1.64772e-05
0.000515987
7.37482e-05
0.000708305
0.000188191
0.000947599
0.000327871
-1.06986e-06
-3.24201e-05
-2.49586e-06
-8.52045e-05
-2.46124e-06
-0.000128396
1.0023e-06
-0.000161174
1.0057e-05
-0.000182843
2.71279e-05
-0.000192755
5.49769e-05
-0.000190202
9.67948e-05
-0.000174318
0.000156282
-0.000144002
0.000237705
-9.79003e-05
0.000345933
-3.44802e-05
0.000486522
4.76021e-05
0.000148366
-1.36585e-06
-3.10542e-05
-4.01548e-06
-8.25548e-05
-6.50924e-06
-0.000125902
-7.28124e-06
-0.000160402
-4.6218e-06
-0.000185502
3.36054e-06
-0.000200737
1.88038e-05
-0.000205646
4.4171e-05
-0.000199685
8.23457e-05
-0.000182177
0.00013675
-0.000152305
0.000211505
-0.000109235
0.000311672
-5.25655e-05
-1.63264e-06
-2.94216e-05
-5.33546e-06
-7.8852e-05
-9.95462e-06
-0.000121283
-1.42244e-05
-0.000156133
-1.67651e-05
-0.000182961
-1.60589e-05
-0.000201443
-1.04016e-05
-0.000211303
2.16893e-06
-0.000212256
2.3973e-05
-0.000203981
5.78249e-05
-0.000186157
0.000107223
-0.000158633
-1.88479e-06
-2.75368e-05
-6.52379e-06
-7.4213e-05
-1.29711e-05
-0.000114836
-2.01748e-05
-0.000148929
-2.69837e-05
-0.000176152
-3.21328e-05
-0.000196294
-3.42065e-05
-0.000209229
-3.15771e-05
-0.000214885
-2.23156e-05
-0.000213243
-4.07003e-06
-0.000204402
-0.000188782
-2.13298e-06
-2.54038e-05
-7.63253e-06
-6.87135e-05
-1.56964e-05
-0.000106772
-2.54192e-05
-0.000139206
-3.58041e-05
-0.000165767
-4.57561e-05
-0.000186342
-5.40554e-05
-0.00020093
-5.93116e-05
-0.000209629
-5.98963e-05
-0.000212658
-5.38632e-05
-0.000210435
-2.38388e-06
-2.30199e-05
-8.69699e-06
-6.24004e-05
-1.82297e-05
-9.7239e-05
-3.01736e-05
-0.000127262
-4.36366e-05
-0.000152304
-5.76431e-05
-0.000172336
-7.11191e-05
-0.000187454
-8.28642e-05
-0.000197884
-9.15131e-05
-0.000204009
-0.000206445
-2.63912e-06
-2.03808e-05
-9.73248e-06
-5.5307e-05
-2.06236e-05
-8.63479e-05
-3.45665e-05
-0.000113319
-5.07423e-05
-0.000136129
-6.82667e-05
-0.000154811
-8.61866e-05
-0.000169534
-0.00010347
-0.000180601
-0.000118993
-0.000188486
-2.89459e-06
-1.74862e-05
-1.07325e-05
-4.74691e-05
-2.28813e-05
-7.41991e-05
-3.86332e-05
-9.75673e-05
-5.72235e-05
-0.000117538
-7.78429e-05
-0.000134192
-9.96459e-05
-0.000147731
-0.000121755
-0.000158491
-0.000166968
-3.14073e-06
-1.43455e-05
-1.16703e-05
-3.89395e-05
-2.49601e-05
-6.09094e-05
-4.23245e-05
-8.02028e-05
-6.30396e-05
-9.68233e-05
-8.63601e-05
-0.000110872
-0.000111537
-0.000122554
-0.000137832
-0.000132196
-0.000140255
-3.364e-06
-1.09815e-05
-1.25046e-05
-2.97989e-05
-2.67844e-05
-4.66296e-05
-4.55297e-05
-6.14575e-05
-6.8047e-05
-7.43061e-05
-9.36444e-05
-8.52742e-05
-0.000121654
-9.45444e-05
-0.000151459
-0.000102391
-0.000109195
-3.54918e-06
-7.43232e-06
-1.31872e-05
-2.01609e-05
-2.8263e-05
-3.15539e-05
-4.81078e-05
-4.16127e-05
-7.205e-05
-5.03638e-05
-9.94393e-05
-5.78849e-05
-0.000129673
-6.4311e-05
-0.000162224
-6.98403e-05
-7.47414e-05
-3.68197e-06
-3.75035e-06
-1.36724e-05
-1.01704e-05
-2.93073e-05
-1.5919e-05
-4.99194e-05
-2.10006e-05
-7.48514e-05
-2.54319e-05
-0.000103481
-2.92553e-05
-0.00013525
-3.25424e-05
-0.000169693
-3.53969e-05
-3.75134e-06
-1.39246e-05
-2.98482e-05
-5.0855e-05
-7.62947e-05
-0.000105559
-0.000138112
-0.00400995
0.000607731
-0.00429915
0.000289191
-0.00453153
0.000232384
-0.00463705
0.000105516
-0.0047395
0.000102445
-0.00477549
3.59923e-05
-0.00481984
4.43425e-05
-0.00482447
4.62619e-06
-0.0048374
1.29378e-05
-0.00482502
-1.23821e-05
-0.00481848
-6.54105e-06
-0.00479531
-2.31694e-05
-0.00477534
-1.99718e-05
-0.00474433
-3.10155e-05
-3.02818e-05
-0.00399677
0.00121476
-0.0042866
0.000579018
-0.00451961
0.00046539
-0.00462624
0.000212147
-0.00472955
0.000205757
-0.00476669
7.31298e-05
-0.00481192
8.95755e-05
-0.00481766
1.03652e-05
-0.00483148
2.67625e-05
-0.00482019
-2.36744e-05
-0.00481457
-1.21644e-05
-0.00479243
-4.53026e-05
-0.0047734
-3.90107e-05
-0.00474338
-6.10284e-05
-5.9619e-05
-0.00397039
0.00182031
-0.00426154
0.000870168
-0.00449577
0.000699622
-0.00460463
0.000321006
-0.00470967
0.000310798
-0.00474909
0.000112551
-0.0047961
0.000136585
-0.00480406
1.83252e-05
-0.00481966
4.23603e-05
-0.00481054
-3.27953e-05
-0.00480675
-1.5955e-05
-0.00478668
-6.53689e-05
-0.00476951
-5.61855e-05
-0.0047415
-8.90402e-05
-8.70693e-05
-0.00393075
0.00242352
-0.00422403
0.00116344
-0.00446007
0.000935669
-0.00457228
0.000433214
-0.00467992
0.000418434
-0.00472276
0.00015539
-0.00477243
0.000186255
-0.00478371
2.96095e-05
-0.00480197
6.06211e-05
-0.00479609
-3.86748e-05
-0.00479505
-1.70003e-05
-0.00477807
-8.23466e-05
-0.00476369
-7.05671e-05
-0.00473867
-0.000114059
-0.000111694
-0.00387781
0.00302339
-0.00417416
0.00145979
-0.00441259
0.0011741
-0.00452927
0.000549897
-0.00464037
0.000529533
-0.00468775
0.000202772
-0.00474096
0.000239468
-0.00475666
4.53105e-05
-0.00477848
8.2439e-05
-0.0047769
-4.02606e-05
-0.0047795
-1.4393e-05
-0.00476662
-9.52284e-05
-0.00475596
-8.12305e-05
-0.00473491
-0.000135105
-0.000132561
-0.00381153
0.00361874
-0.00411203
0.00176029
-0.00435341
0.00141548
-0.00447569
0.000672174
-0.00459112
0.000644969
-0.00464416
0.000255807
-0.00470179
0.000297104
-0.00472299
6.65045e-05
-0.00474926
0.000108714
-0.00475299
-3.65284e-05
-0.00476016
-7.22403e-06
-0.00475236
-0.000103034
-0.00474633
-8.72531e-05
-0.00473023
-0.000151211
-0.000148745
-0.0037319
0.00420816
-0.00403764
0.00206603
-0.00428268
0.00166053
-0.00441166
0.000801152
-0.00453232
0.000765624
-0.0045921
0.000315585
-0.00465503
0.00036004
-0.00468278
9.4248e-05
-0.00471441
0.000140352
-0.00472447
-2.64698e-05
-0.00473707
5.37019e-06
-0.00473531
-0.000104788
-0.00473485
-8.77165e-05
-0.00472463
-0.000161426
-0.000159333
-0.00363898
0.00479
-0.00395104
0.00237809
-0.0042006
0.00191009
-0.00433736
0.00093791
-0.00446412
0.000892389
-0.00453171
0.000383173
-0.00460082
0.000429149
-0.00463614
0.000129573
-0.00467401
0.000178217
-0.00469145
-9.03157e-06
-0.00471023
2.41569e-05
-0.00471554
-9.94756e-05
-0.00472153
-8.17295e-05
-0.00471814
-0.000164819
-0.000163427
-0.00353294
0.00536231
-0.00385235
0.00269751
-0.00410739
0.00216512
-0.00425296
0.00108348
-0.00438673
0.00102616
-0.00446316
0.000459604
-0.00453931
0.000505299
-0.0045832
0.000173457
-0.00462827
0.00022329
-0.00465379
1.64849e-05
-0.00467985
5.02245e-05
-0.00469311
-8.6219e-05
-0.00470642
-6.84231e-05
-0.00471076
-0.000160477
-0.000160141
-0.00341406
0.00592293
-0.00374174
0.00302519
-0.00400335
0.00242673
-0.0041587
0.00123884
-0.00430039
0.00116784
-0.00438666
0.000545884
-0.0044707
0.000589336
-0.00452409
0.000226847
-0.0045772
0.000276403
-0.00461179
5.10717e-05
-0.00464596
8.43937e-05
-0.00466808
-6.41006e-05
-0.00468955
-4.6951e-05
-0.00470251
-0.000147512
-0.000148611
-0.00328283
0.00646909
-0.00361943
0.00336179
-0.00388887
0.00269616
-0.00405489
0.00140486
-0.00420538
0.00131833
-0.00430247
0.000642977
-0.0043952
0.00068207
-0.00445902
0.000290658
-0.00452094
0.000338332
-0.00456558
9.57087e-05
-0.00460868
0.000127496
-0.00464052
-3.2267e-05
-0.00467097
-1.6494e-05
-0.00469342
-0.000125065
-0.000127988
-0.0031401
0.00699876
-0.00348578
0.00370748
-0.00376443
0.00297481
-0.00394196
0.00158239
-0.00410204
0.00147842
-0.00421089
0.000751826
-0.00431308
0.000784253
-0.00438819
0.000365772
-0.00445973
0.000409871
-0.00451526
0.00015124
-0.00456812
0.00018036
-0.00461051
1.01214e-05
-0.00465071
2.37043e-05
-0.00468351
-9.22667e-05
-9.74509e-05
-0.00298692
0.00750543
-0.00334096
0.00406151
-0.00363031
0.00326416
-0.00382011
0.00177219
-0.00399054
0.00164885
-0.0041121
0.000873384
-0.00422448
0.000896641
-0.00431178
0.000453066
-0.00439371
0.000491807
-0.00446095
0.00021848
-0.00452444
0.000243846
-0.00457805
6.37343e-05
-0.00462886
7.45101e-05
-0.0046728
-4.83228e-05
-5.62091e-05
-0.00282763
0.00799556
-0.00318656
0.00442044
-0.00348772
0.00356532
-0.00369037
0.00197483
-0.00387156
0.00183004
-0.00400665
0.00100847
-0.00412989
0.00101987
-0.00423013
0.000553309
-0.00432318
0.000584862
-0.00440289
0.000298185
-0.00447766
0.000318617
-0.00454338
0.000129456
-0.0046055
0.000136624
-0.00466134
7.52219e-06
-3.50444e-06
-0.00267715
0.00844366
-0.00303841
0.00478171
-0.00335037
0.00387727
-0.00356302
0.00218749
-0.00375448
0.0020215
-0.00389948
0.00115348
-0.00403446
0.00115485
-0.00414538
0.000664232
-0.0042509
0.000690384
-0.00434189
0.00038918
-0.00442932
0.000406047
-0.00450662
0.000206747
-0.00458144
0.000211453
-0.00464894
7.50169e-05
6.16019e-05
-0.0264645
0.00752162
0.0273866
-0.0259095
0.00422665
-0.0264582
0.00442597
-0.0266435
0.00237282
-0.0271717
0.00254972
-0.0273798
0.00136153
-0.027758
0.0015331
-0.0279029
0.000809079
-0.0281605
0.000948059
-0.0282462
0.000474791
-0.0284162
0.000576134
-0.0284554
0.000245882
-0.0285572
0.000313265
-0.0285506
6.84282e-05
9.67833e-05
-0.0275037
0.0063098
0.0287155
-0.0273434
0.00406636
-0.02717
0.00425251
-0.0273179
0.00252072
-0.027515
0.00274683
-0.0276947
0.00154128
-0.027923
0.00176135
-0.0280506
0.000936673
-0.0282328
0.00113032
-0.0283112
0.000553176
-0.0284409
0.000705834
-0.0284806
0.000285594
-0.0285596
0.000392212
-0.0285571
6.59657e-05
0.000125465
-0.0284575
0.00532487
0.0294424
-0.028208
0.0038169
-0.0278751
0.00391956
-0.0279138
0.00255947
-0.0278847
0.00271768
-0.0280172
0.00167383
-0.0280896
0.00183373
-0.0282176
0.00106462
-0.0283008
0.00121357
-0.0283956
0.000647924
-0.0284603
0.000770541
-0.0285178
0.000343117
-0.0285534
0.000427835
-0.028576
8.85677e-05
0.000135234
-0.0291003
0.00453868
0.0298865
-0.0287744
0.00349101
-0.0283997
0.00354485
-0.0283609
0.00252069
-0.0282241
0.00258086
-0.0282912
0.00174094
-0.0282726
0.00181505
-0.028367
0.00115907
-0.0283861
0.00123266
-0.0284681
0.000729908
-0.0284895
0.000791979
-0.0285459
0.000399525
-0.0285564
0.000438262
-0.0285884
0.000120621
0.000132616
-0.0294871
0.00391424
0.0301116
-0.0291443
0.00314815
-0.0287835
0.00318412
-0.0286704
0.00240756
-0.0285016
0.00241206
-0.0285032
0.00174251
-0.0284393
0.00175118
-0.0284873
0.00120708
-0.0284715
0.00121687
-0.0285257
0.000784127
-0.0285239
0.000790164
-0.028567
0.000442623
-0.0285651
0.000436323
-0.0285938
0.000149322
0.000124629
-0.0297002
0.00339826
0.0302162
-0.0293742
0.00282215
-0.0290451
0.00285504
-0.0288901
0.00225255
-0.0287113
0.00223327
-0.0286639
0.00169507
-0.028577
0.00166427
-0.0285828
0.00121296
-0.0285467
0.0011807
-0.0285719
0.000809343
-0.0285566
0.000774918
-0.0285829
0.000468899
-0.0285745
0.00042794
-0.028595
0.00016976
0.000115441
-0.0298077
0.00296626
0.0302397
-0.0295095
0.00252389
-0.0292119
0.00255744
-0.0290405
0.0020812
-0.0288612
0.00205392
-0.0287819
0.00161576
-0.0286836
0.00156597
-0.0286576
0.00118698
-0.0286079
0.00113106
-0.028609
0.000810402
-0.0285846
0.000750535
-0.0285954
0.000479664
-0.0285827
0.000415256
-0.0285946
0.000181648
0.000106645
-0.0298463
0.00260099
0.0302116
-0.0295781
0.0022556
-0.0293101
0.00228948
-0.0291367
0.0019078
-0.0289622
0.0018794
-0.0288652
0.00151873
-0.0287608
0.00146165
-0.0287142
0.00114038
-0.0286552
0.00107203
-0.0286382
0.000793429
-0.0286069
0.000719239
-0.0286052
0.000477926
-0.0285891
0.000399121
-0.0285939
0.000186458
9.85614e-05
-0.0298395
0.00228954
0.0301509
-0.0295999
0.00201598
-0.0293596
0.00204923
-0.0291917
0.00173987
-0.0290254
0.00171309
-0.0289202
0.00141357
-0.0288137
0.00135515
-0.0287544
0.00108105
-0.0286899
0.00100753
-0.0286603
0.000763818
-0.0286238
0.000682782
-0.0286127
0.000466819
-0.0285938
0.000380197
-0.0285933
0.000185941
9.10952e-05
-0.0298028
0.00202181
0.0300705
-0.0295895
0.00180268
-0.0293747
0.00183449
-0.0292161
0.00158125
-0.02906
0.00155697
-0.0289528
0.00130636
-0.0288472
0.0012496
-0.0287807
0.00101452
-0.0287135
0.000940347
-0.0286758
0.000726128
-0.0286359
0.000642801
-0.0286181
0.000449051
-0.0285971
0.000359215
-0.0285928
0.000181607
8.41011e-05
-0.0297475
0.00179024
0.029979
-0.0295578
0.00161298
-0.0293661
0.00164279
-0.0292185
0.00143371
-0.0290736
0.00141202
-0.0289682
0.00120093
-0.0288658
0.00114726
-0.028796
0.000944737
-0.0287282
0.000872494
-0.0286858
0.000683718
-0.0286439
0.00060092
-0.0286217
0.00042681
-0.0285994
0.000336928
-0.0285924
0.000174634
7.7489e-05
-0.0296811
0.0015889
0.0298825
-0.0295124
0.00144428
-0.0293414
0.00147174
-0.0292055
0.0012978
-0.029072
0.00127848
-0.0289707
0.00109963
-0.028873
0.00104966
-0.0288028
0.000874474
-0.0287359
0.000805568
-0.028691
0.00063887
-0.0286486
0.000558544
-0.0286237
0.000401849
-0.0286008
0.000314022
-0.0285921
0.00016592
7.1223e-05
-0.0296091
0.00141302
0.0297849
-0.029459
0.0012942
-0.0293064
0.00131912
-0.029182
0.00117343
-0.0290597
0.00115617
-0.0289639
0.00100381
-0.0288719
0.000957688
-0.028803
0.000805607
-0.0287382
0.000740753
-0.0286926
0.000593286
-0.0286507
0.000516609
-0.0286244
0.000375584
-0.0286015
0.000291087
-0.0285917
0.000156139
6.52994e-05
-0.029535
0.00125884
0.0296891
-0.0294013
0.00116057
-0.0292651
0.00118289
-0.0291518
0.00106015
-0.0290402
0.0010446
-0.0289506
0.000914201
-0.0288648
0.000871819
-0.0287985
0.000739366
-0.0287366
0.000678863
-0.0286915
0.000548202
-0.0286508
0.000475834
-0.0286241
0.000348942
-0.0286017
0.000268649
-0.0285914
0.000145828
5.97162e-05
-0.0294612
0.00112317
0.0295969
-0.0293422
0.00104153
-0.0292206
0.00106126
-0.0291177