/*--------------------------------*- C++ -*----------------------------------*\
  =========                 |
  \\      /  F ield         | OpenFOAM: The Open Source CFD Toolbox
   \\    /   O peration     | Website:  https://openfoam.org
    \\  /    A nd           | Version:  7
     \\/     M anipulation  |
\*---------------------------------------------------------------------------*/
FoamFile
{
    version     2.0;
    format      ascii;
    class       volScalarField;
    location    "45";
    object      p;
}
// * * * * * * * * * * * * * * * * * * * * * * * * * * * * * * * * * * * * * //

dimensions      [0 2 -2 0 0 0 0];

internalField   nonuniform List<scalar> 
3500
(
-0.233963
-0.237569
0.628067
0.592365
0.552828
0.628067
0.592365
0.552828
0.506229
0.460523
0.417503
0.37832
0.34321
0.312162
0.284816
0.611188
0.578455
0.541613
0.497122
0.453056
0.411314
0.373102
0.338733
0.308372
0.281885
0.578021
0.551053
0.51951
0.479163
0.438319
0.399092
0.362796
0.329884
0.300854
0.275999
0.529726
0.510981
0.487168
0.452852
0.416696
0.381142
0.347657
0.316873
0.289739
0.267154
0.467969
0.459461
0.445554
0.418926
0.388759
0.357922
0.328072
0.300016
0.275222
0.255385
0.394773
0.398167
0.395933
0.378333
0.355227
0.329986
0.304491
0.279685
0.257549
0.240798
0.31228
0.329273
0.339793
0.332181
0.316944
0.298001
0.277501
0.256428
0.237111
0.223567
0.223322
0.254933
0.278718
0.281714
0.274887
0.262734
0.24773
0.230782
0.214242
0.203767
0.131132
0.177359
0.214349
0.228227
0.230052
0.224908
0.215725
0.203392
0.189761
0.181712
0.0390555
0.0987827
0.148377
0.173057
0.183515
0.185392
0.182193
0.174999
0.164709
0.157069
-0.0495498
0.0213115
0.0825013
0.117526
0.136329
0.144998
0.147558
0.145661
0.139892
0.131263
-0.131555
-0.0534313
0.0183904
0.06288
0.0894903
0.104576
0.112513
0.115734
0.115195
0.110401
-0.203466
-0.12418
-0.0423925
0.0102248
0.0439238
0.064931
0.0777957
0.0856238
0.0900871
0.0898381
-0.264803
-0.187284
-0.0987207
-0.0394315
0.000464237
0.0267197
0.0439734
0.0556048
0.063988
0.0678091
-0.315022
-0.240575
-0.149867
-0.0850951
-0.0401765
-0.00954382
0.0115007
0.0261397
0.0373949
0.0445715
-0.353689
-0.284165
-0.194443
-0.126087
-0.0774537
-0.0434164
-0.0192099
-0.00218502
0.0111752
0.0211232
-0.38103
-0.318014
-0.231436
-0.162157
-0.111205
-0.0745
-0.0478571
-0.0288468
-0.0139932
-0.00180199
-0.39798
-0.341996
-0.260757
-0.192767
-0.141053
-0.102791
-0.074394
-0.05352
-0.0376052
-0.0240007
-0.405893
-0.356239
-0.282639
-0.217788
-0.166727
-0.127979
-0.0985802
-0.0763654
-0.0594179
-0.0454747
-0.406161
-0.361256
-0.297403
-0.237429
-0.188259
-0.149942
-0.12028
-0.0973505
-0.0796354
-0.0651486
-0.399955
-0.358105
-0.305567
-0.252052
-0.20586
-0.168782
-0.139523
-0.116429
-0.098231
-0.0830084
-0.388252
-0.348706
-0.308002
-0.262083
-0.219795
-0.184735
-0.156469
-0.133646
-0.115297
-0.0996126
-0.372174
-0.335709
-0.305887
-0.267916
-0.230382
-0.1981
-0.171364
-0.149194
-0.130996
-0.115356
-0.353391
-0.322007
-0.300106
-0.26995
-0.238
-0.209221
-0.184495
-0.163314
-0.145524
-0.130276
-0.334075
-0.309271
-0.291766
-0.268877
-0.243111
-0.218413
-0.196148
-0.176285
-0.159004
-0.144366
-0.316256
-0.297686
-0.28275
-0.265836
-0.246199
-0.225974
-0.206536
-0.18834
-0.171738
-0.157611
-0.301118
-0.287198
-0.274777
-0.262081
-0.247792
-0.232092
-0.215855
-0.199693
-0.183866
-0.170358
-0.288689
-0.27815
-0.268332
-0.258533
-0.248405
-0.236988
-0.224083
-0.210501
-0.19578
-0.182618
-0.278702
-0.270803
-0.263172
-0.25563
-0.248536
-0.240774
-0.231324
-0.220563
-0.207481
-0.195411
-0.270753
-0.265018
-0.259113
-0.253444
-0.248539
-0.243606
-0.237354
-0.229919
-0.218636
-0.208662
-0.264372
-0.260466
-0.256016
-0.251893
-0.248601
-0.245683
-0.242278
-0.237129
-0.230051
-0.223095
-0.25911
-0.256767
-0.253602
-0.250835
-0.248812
-0.247108
-0.2466
-0.241153
-0.240486
-0.234056
-0.254608
-0.253544
-0.251525
-0.249965
-0.24906
-0.247955
-0.250303
-0.241863
-0.249533
-0.239946
-0.250541
-0.25052
-0.24953
-0.248993
-0.24903
-0.248371
-0.252427
-0.242153
-0.256186
-0.240612
-0.246709
-0.247606
-0.247451
-0.24773
-0.248506
-0.248302
-0.252711
-0.243714
-0.258175
-0.24006
-0.243092
-0.244807
-0.245282
-0.246161
-0.247313
-0.247891
-0.251827
-0.245101
-0.256289
-0.24136
-0.239802
-0.242223
-0.243141
-0.244406
-0.245815
-0.247083
-0.249518
-0.246477
-0.253252
-0.242757
-0.237037
-0.240029
-0.241237
-0.242729
-0.24432
-0.245874
-0.247466
-0.24677
-0.249663
-0.244121
-0.235025
-0.238421
-0.2398
-0.241415
-0.243103
-0.244713
-0.246014
-0.24631
-0.247319
-0.244336
-0.233963
-0.237569
-0.239027
-0.240694
-0.242419
-0.24403
-0.245262
-0.245842
-0.246214
-0.244254
0.263673
0.24707
0.232453
0.219746
0.208513
0.198668
0.18994
0.182242
0.175395
0.169324
0.16391
0.159088
0.154768
0.150897
0.147421
0.144327
0.141574
0.139129
0.136959
0.135042
0.133355
0.131881
0.130604
0.129511
0.128591
0.127835
0.127236
0.126791
0.126497
0.126353
0.261534
0.245399
0.231067
0.218604
0.207554
0.197866
0.18926
0.181664
0.174898
0.168894
0.163532
0.158754
0.154473
0.15064
0.147199
0.144122
0.141381
0.138946
0.136786
0.134878
0.133198
0.131731
0.130459
0.129371
0.128455
0.127703
0.127106
0.126662
0.126367
0.126222
0.257195
0.242019
0.228285
0.216327
0.205649
0.196279
0.187917
0.180524
0.173917
0.168044
0.162786
0.158095
0.153891
0.150129
0.146745
0.143702
0.14099
0.138581
0.136443
0.134552
0.132888
0.131433
0.130172
0.129093
0.128185
0.127439
0.126848
0.126405
0.126109
0.125962
0.250596
0.236907
0.224112
0.212944
0.202836
0.193945
0.185943
0.178851
0.172477
0.166797
0.161692
0.157128
0.153028
0.149362
0.146067
0.143099
0.140426
0.138048
0.135937
0.134072
0.132429
0.130992
0.129747
0.128681
0.127785
0.127049
0.126465
0.126025
0.125727
0.125578
0.241688
0.230028
0.218521
0.208443
0.199107
0.190865
0.183347
0.176657
0.170591
0.165167
0.160262
0.155865
0.151898
0.148346
0.145156
0.142292
0.139687
0.137354
0.13528
0.133446
0.13183
0.130416
0.12919
0.128142
0.12726
0.126537
0.125962
0.125526
0.125226
0.125074
0.230492
0.221421
0.211573
0.202908
0.194551
0.187127
0.180203
0.174006
0.168313
0.163199
0.158537
0.15434
0.150533
0.147111
0.144028
0.141272
0.138789
0.136524
0.134479
0.132684
0.131101
0.129714
0.128512
0.127484
0.126619
0.12591
0.125347
0.124916
0.124613
0.124458
0.217038
0.211091
0.203206
0.196246
0.18906
0.182629
0.176429
0.170835
0.165599
0.160862
0.156494
0.152541
0.148928
0.145665
0.142705
0.140047
0.137658
0.135522
0.133584
0.131813
0.130251
0.128902
0.127727
0.126717
0.125869
0.125177
0.124626
0.124201
0.123898
0.123741
0.201312
0.199059
0.19355
0.188698
0.182932
0.177676
0.172302
0.167384
0.162647
0.158319
0.154266
0.150573
0.147166
0.144075
0.141252
0.138703
0.136396
0.134327
0.132477
0.130833
0.129349
0.128003
0.126818
0.125838
0.125023
0.12435
0.123809
0.123391
0.123088
0.122932
0.183654
0.185486
0.182582
0.179925
0.175698
0.171723
0.167315
0.163192
0.15907
0.155248
0.151593
0.14823
0.145087
0.142214
0.139569
0.137167
0.134979
0.133004
0.131224
0.129634
0.12822
0.12698
0.125901
0.124938
0.124112
0.123433
0.122903
0.122495
0.122197
0.122043
0.163051
0.169848
0.170158
0.170519
0.168298
0.165987
0.162641
0.159396
0.155863
0.152529
0.149217
0.146138
0.143204
0.140505
0.137993
0.135702
0.133602
0.131703
0.129983
0.12844
0.12706
0.125846
0.124789
0.123877
0.123101
0.122462
0.121938
0.121529
0.121236
0.121091
0.13693
0.148486
0.15394
0.156477
0.15662
0.155805
0.154032
0.151924
0.149461
0.14695
0.144373
0.141881
0.13946
0.137181
0.135031
0.133041
0.1312
0.12952
0.127988
0.126607
0.125365
0.124265
0.123298
0.122464
0.121759
0.121178
0.120708
0.120345
0.120095
0.119969
0.120996
0.130296
0.137383
0.141555
0.143734
0.144428
0.144138
0.143214
0.141842
0.140233
0.138461
0.136646
0.134819
0.133045
0.131335
0.129721
0.128206
0.126805
0.125515
0.124341
0.12328
0.122332
0.121493
0.120765
0.120146
0.119633
0.119222
0.11891
0.118701
0.118598
0.107837
0.11643
0.123562
0.128505
0.131875
0.133743
0.134623
0.134717
0.134296
0.133504
0.132473
0.131296
0.130038
0.128755
0.127478
0.126238
0.125051
0.123933
0.12289
0.12193
0.121054
0.120266
0.119564
0.118951
0.118426
0.117988
0.117637
0.117373
0.117199
0.117114
0.0963745
0.104714
0.111821
0.117204
0.121241
0.12395
0.125709
0.126647
0.127024
0.126952
0.12658
0.125987
0.125254
0.124431
0.123565
0.122685
0.121816
0.120974
0.120175
0.119426
0.118734
0.118104
0.117539
0.117042
0.116613
0.116254
0.115965
0.115749
0.115607
0.115537
0.0864771
0.0945735
0.101653
0.107314
0.111773
0.115069
0.11747
0.119081
0.12011
0.120656
0.120857
0.120786
0.120529
0.120133
0.119649
0.119108
0.118541
0.117967
0.117403
0.11686
0.116348
0.115875
0.115445
0.115062
0.114729
0.114448
0.114222
0.114052
0.11394
0.113886
0.0779553
0.0857797
0.0927779
0.0985849
0.103327
0.107035
0.109911
0.112044
0.113599
0.114663
0.115355
0.115745
0.115911
0.115902
0.11577
0.115546
0.115263
0.114942
0.114602
0.114258
0.113921
0.113599
0.113301
0.11303
0.112791
0.112587
0.112422
0.112298
0.112216
0.112176
0.0705934
0.0781469
0.0850142
0.0908633
0.0957802
0.0997741
0.103004
0.105538
0.107514
0.109005
0.110113
0.1109
0.11144
0.111778
0.111964
0.112031
0.112012
0.111927
0.1118
0.111645
0.111474
0.111299
0.111127
0.110964
0.110817
0.110688
0.110582
0.110502
0.110448
0.110422
0.0642109
0.0715025
0.0782077
0.0840291
0.0890366
0.0932199
0.0967074
0.099549
0.101859
0.103697
0.105153
0.106281
0.107145
0.10779
0.108262
0.108593
0.108815
0.10895
0.109021
0.109042
0.109029
0.108992
0.108941
0.108882
0.108822
0.108766
0.108717
0.108679
0.108653
0.10864
0.0586637
0.0657003
0.0722253
0.0779745
0.0830109
0.0873104
0.0909801
0.0940528
0.0966253
0.0987447
0.100489
0.101904
0.103049
0.103962
0.104687
0.105255
0.105695
0.106031
0.106284
0.106471
0.106605
0.106698
0.106761
0.106801
0.106824
0.106836
0.106842
0.106843
0.106844
0.106843
0.0538342
0.0606213
0.0669556
0.072604
0.0776254
0.0819869
0.0857794
0.0890222
0.0917978
0.0941422
0.0961234
0.0977793
0.0991633
0.100309
0.101257
0.102035
0.102672
0.10319
0.10361
0.103948
0.104219
0.104433
0.104603
0.104735
0.104836
0.104913
0.10497
0.105009
0.105035
0.105046
0.0496234
0.0561673
0.0623059
0.0678353
0.0728107
0.0771941
0.0810635
0.0844279
0.087358
0.0898804
0.0920542
0.0939107
0.0954971
0.096843
0.0979852
0.0989487
0.0997612
0.100443
0.101014
0.10149
0.101885
0.102212
0.10248
0.102698
0.102873
0.10301
0.103115
0.10319
0.103238
0.103262
0.0459468
0.0522556
0.0581983
0.0635975
0.0685055
0.0728814
0.0767925
0.0802403
0.0832853
0.0859466
0.0882755
0.0902972
0.0920538
0.0935704
0.0948805
0.0960063
0.0969737
0.0978011
0.0985081
0.0991092
0.0996187
0.100048
0.100407
0.100704
0.100947
0.10114
0.101289
0.101398
0.101468
0.101501
0.0427328
0.048816
0.0545661
0.0598298
0.064656
0.069003
0.0729291
0.0764302
0.0795581
0.0823261
0.0847784
0.0869352
0.0888335
0.0904948
0.091949
0.0932159
0.0943192
0.0952758
0.0961041
0.0968175
0.09743
0.0979522
0.0983942
0.098764
0.0990687
0.0993139
0.0995043
0.0996433
0.0997334
0.099777
0.03992
0.0457885
0.0513524
0.0564791
0.0612147
0.0655178
0.0694389
0.0729698
0.0761552
0.0790033
0.0815525
0.0838187
0.0858342
0.0876171
0.0891942
0.0905829
0.0918047
0.092875
0.0938106
0.0946244
0.0953294
0.0959355
0.0964527
0.0968885
0.09725
0.0975425
0.0977707
0.0979376
0.0980462
0.0980988
0.0374565
0.0431223
0.048508
0.0534997
0.0581401
0.0623891
0.0662904
0.0698333
0.0730557
0.0759626
0.0785867
0.0809404
0.0830519
0.0849365
0.0866176
0.0881108
0.0894352
0.0906048
0.091635
0.0925378
0.0933251
0.0940065
0.0945913
0.0950868
0.0954998
0.0958353
0.0960978
0.0962903
0.0964157
0.0964765
0.035298
0.0407738
0.045991
0.0508517
0.0553955
0.0595842
0.0634552
0.0669964
0.0702401
0.0731883
0.0758692
0.0782922
0.0804817
0.0824504
0.0842192
0.0858013
0.0872141
0.0884699
0.089583
0.0905641
0.0914245
0.0921729
0.0928182
0.0933673
0.0938265
0.0942008
0.0944944
0.0947101
0.0948507
0.0949189
0.0334071
0.038706
0.0437652
0.0485008
0.0529491
0.0570739
0.0609077
0.0644372
0.0676899
0.0706657
0.0733885
0.0758656
0.0781178
0.0801558
0.0819978
0.0836552
0.0851436
0.0864739
0.0876591
0.0887088
0.0896334
0.0904412
0.0911403
0.0917371
0.0922377
0.0926468
0.0929682
0.0932048
0.0933591
0.093434
0.0317518
0.0368871
0.0417996
0.0464171
0.0507727
0.0548328
0.058625
0.0621357
0.0653881
0.0683806
0.0711335
0.073652
0.0759542
0.0780487
0.0799514
0.0816722
0.0832249
0.0846191
0.0858666
0.086976
0.087957
0.0888169
0.0895634
0.0902025
0.09074
0.09118
0.0915263
0.0917815
0.091948
0.0920289
0.0303048
0.0352902
0.0400675
0.0445748
0.0488422
0.0528383
0.0565867
0.0600739
0.0633192
0.06632
0.0690935
0.0716432
0.0739845
0.0761247
0.0780775
0.0798513
0.0814583
0.0829071
0.0842081
0.0853692
0.0863991
0.0873046
0.0880928
0.0887692
0.0893391
0.0898065
0.0901749
0.0904466
0.090624
0.0907101
0.0290433
0.0338923
0.038546
0.0429517
0.0471361
0.0510704
0.0547747
0.0582355
0.0614691
0.0644719
0.0672584
0.069831
0.0722029
0.0743796
0.0763733
0.0781911
0.0798438
0.0813388
0.0826855
0.0838911
0.0849632
0.0859083
0.0867327
0.0874417
0.0880401
0.0885316
0.0889194
0.0892056
0.0893926
0.0894834
0.0279477
0.0326737
0.0372157
0.0415286
0.0456362
0.0495121
0.0531731
0.0566062
0.059825
0.0628254
0.0656193
0.0682082
0.0706032
0.072809
0.0748358
0.0766899
0.0783806
0.0799146
0.0813001
0.0825435
0.083652
0.0846312
0.085487
0.0862242
0.0868474
0.0873599
0.0877646
0.0880635
0.0882588
0.0883538
0.0270016
0.0316178
0.0360599
0.040289
0.0443266
0.0481482
0.0517681
0.0551735
0.0583758
0.0613705
0.0641676
0.0667676
0.0691801
0.0714086
0.0734621
0.0753459
0.0770681
0.0786345
0.0800527
0.0813282
0.0824675
0.0834759
0.0843586
0.0851201
0.0857646
0.0862953
0.0867146
0.0870245
0.0872272
0.0873257
0.0261912
0.0307108
0.0350645
0.0392191
0.0431937
0.0469659
0.0505474
0.0539262
0.0571115
0.0600986
0.0628958
0.0655031
0.0679284
0.0701746
0.0722493
0.074157
0.075905
0.0774984
0.0789438
0.0802462
0.0814116
0.0824446
0.0833501
0.0841323
0.0847951
0.0853413
0.0857732
0.0860925
0.0863013
0.0864029
0.0255051
0.0299406
0.0342174
0.0383069
0.042226
0.045954
0.0495008
0.0528547
0.0560235
0.0590021
0.0617974
0.064409
0.0668434
0.0691031
0.0711945
0.0731215
0.0748904
0.0765058
0.0779736
0.0792984
0.0804854
0.081539
0.0824637
0.0832633
0.0839414
0.0845007
0.0849432
0.0852705
0.0854846
0.0855887
0.0249338
0.0292978
0.0335089
0.0375425
0.0414137
0.0451033
0.0486194
0.051951
0.0551043
0.0580742
0.0608666
0.0634803
0.0659212
0.068191
0.0702953
0.0722375
0.0740232
0.0756563
0.0771423
0.0784853
0.07969
0.0807606
0.0817011
0.0825151
0.0832059
0.083776
0.0842273
0.0845612
0.0847797
0.084886
0.0244695
0.0287741
0.0329307
0.0369178
0.0407488
0.0444059
0.0478958
0.0512081
0.0543476
0.0573095
0.0600983
0.0627129
0.0651582
0.0674354
0.0695495
0.0715035
0.0733022
0.0749494
0.0764498
0.0778073
0.0790263
0.0801104
0.0810637
0.0818893
0.0825903
0.0831692
0.0836277
0.0839669
0.084189
0.084297
0.0241061
0.0283635
0.0324765
0.0364262
0.0402248
0.0438555
0.0473241
0.0506203
0.0537484
0.0567031
0.0594885
0.0621032
0.0645513
0.0668339
0.0689552
0.070918
0.0727267
0.0743845
0.075896
0.0772647
0.0784947
0.0795894
0.0805525
0.0813871
0.0820962
0.0826819
0.0831459
0.0834894
0.0837142
0.0838236
0.0238393
0.0280611
0.032141
0.0360623
0.0398363
0.043447
0.0468994
0.0501834
0.0533025
0.0562516
0.0590341
0.0616484
0.0640983
0.0663844
0.0685109
0.0704799
0.0722957
0.0739613
0.0754808
0.0768577
0.0780956
0.0791981
0.0801684
0.0810097
0.0817247
0.0823154
0.0827835
0.0831301
0.0833569
0.0834673
0.0236664
0.0278633
0.0319201
0.0358221
0.0395795
0.0431768
0.0466182
0.0498939
0.0530068
0.055952
0.0587324
0.0613464
0.0637972
0.0660856
0.0682153
0.0701884
0.0720087
0.0736794
0.0752041
0.0765863
0.0778295
0.0789369
0.079912
0.0807577
0.0814765
0.0820706
0.0825413
0.0828899
0.0831182
0.0832292
0.0235845
0.0277661
0.0318105
0.0357028
0.0394517
0.0430423
0.0464781
0.0497497
0.0528595
0.0558027
0.058582
0.0611957
0.063647
0.0659365
0.0680677
0.0700428
0.0718654
0.0735385
0.0750658
0.0764506
0.0776964
0.0788063
0.0797838
0.0806316
0.0813523
0.081948
0.0824201
0.0827697
0.0829986
0.0831101
0.122176
0.111051
0.0995227
0.0888768
0.0794603
0.0712448
0.0641065
0.0579142
0.0525456
0.047891
0.0438532
0.0403476
0.0373014
0.034652
0.0323461
0.0303382
0.0285895
0.0270672
0.0257435
0.0245947
0.0236011
0.022746
0.0220153
0.0213977
0.0208836
0.0204654
0.0201368
0.0198932
0.0197328
0.019659
0.102979
0.0925849
0.0834406
0.0748762
0.0671585
0.0602955
0.0542509
0.048963
0.0443549
0.0403472
0.0368646
0.0338386
0.0312093
0.028924
0.0269372
0.0252096
0.0237074
0.0224016
0.0212677
0.0202845
0.0194345
0.0187026
0.0180763
0.0175454
0.0171012
0.0167371
0.0164475
0.0162278
0.0160762
0.0160021
0.0821095
0.070639
0.0627727
0.0558101
0.0499479
0.0448704
0.0404593
0.0366227
0.0332838
0.0303767
0.0278434
0.0256338
0.0237054
0.0220218
0.0205514
0.0192672
0.018146
0.0171674
0.0163141
0.0155713
0.0149263
0.0143682
0.0138879
0.0134779
0.0131319
0.0128447
0.0126126
0.0124318
0.0122992
0.0122257
0.0620497
0.0513757
0.0447305
0.0387434
0.034097
0.0302833
0.0271345
0.0244962
0.0222607
0.0203497
0.0187038
0.017277
0.0160345
0.0149492
0.0139991
0.0131663
0.0124357
0.0117943
0.0112315
0.0107381
0.0103064
0.00992972
0.00960248
0.0093199
0.00907795
0.00887343
0.00870415
0.00856756
0.00845852
0.00838486
0.0415444
0.0332802
0.0288704
0.0242711
0.0208292
0.0180323
0.0158189
0.014044
0.0126046
0.0114219
0.0104373
0.00960603
0.00889615
0.00828542
0.00775688
0.00729712
0.00689503
0.00654195
0.00623109
0.00595696
0.00571508
0.00550172
0.00531372
0.00514843
0.00500352
0.00487703
0.00476789
0.00467492
0.00459167
0.00451954
0.0205423
0.0148986
0.0131087
0.0104241
0.00859267
0.00700803
0.00577366
0.00480292
0.00404528
0.00345317
0.00298799
0.0026176
0.00231712
0.00207261
0.00187412
0.0017107
0.00157344
0.00145628
0.00135478
0.0012656
0.00118617
0.00111448
0.00104891
0.000988113
0.00093088
0.000876013
0.000822912
0.000771744
0.000716366
0.000649926
-0.000170724
-0.00333795
-0.00283394
-0.00362853
-0.00373125
-0.00395779
-0.00408558
-0.00416968
-0.00420297
-0.00419364
-0.00415035
-0.00408378
-0.00400831
-0.00392379
-0.00382614
-0.00372565
-0.00362765
-0.00353494
-0.00344946
-0.00337253
-0.00330503
-0.00324756
-0.00320056
-0.0031644
-0.00313939
-0.00312615
-0.0031251
-0.00313501
-0.00315982
-0.00321532
-0.0200676
-0.0206144
-0.0182702
-0.0174635
-0.0160745
-0.0150445
-0.0140844
-0.0132606
-0.0125329
-0.0118855
-0.0113037
-0.0107761
-0.0103116
-0.00989277
-0.00949259
-0.009128
-0.00879738
-0.00849882
-0.00823096
-0.00799252
-0.00778233
-0.00759937
-0.00744279
-0.00731189
-0.00720612
-0.00712531
-0.00706975
-0.00703776
-0.00702939
-0.00706852
-0.0390116
-0.0365496
-0.0328921
-0.0305052
-0.0279356
-0.0258354
-0.0239464
-0.0223113
-0.0208753
-0.0196129
-0.0184991
-0.0175062
-0.0166417
-0.0158767
-0.015164
-0.0145308
-0.0139638
-0.0134568
-0.0130049
-0.0126039
-0.0122505
-0.0119417
-0.0116753
-0.0114494
-0.0112623
-0.0111132
-0.0110017
-0.0109265
-0.0108841
-0.0109004
-0.056787
-0.0518017
-0.0468965
-0.0429429
-0.0393137
-0.0362302
-0.0335236
-0.0311593
-0.0290797
-0.0272489
-0.025635
-0.0242032
-0.0229293
-0.0217959
-0.0207865
-0.0198917
-0.0190934
-0.0183814
-0.0177478
-0.017186
-0.0166907
-0.0162571
-0.0158816
-0.0155611
-0.015293
-0.0150754
-0.0149073
-0.0147874
-0.0147132
-0.0146996
-0.0732851
-0.0665675
-0.0602202
-0.0548151
-0.0501097
-0.0461336
-0.0426905
-0.0396777
-0.0370218
-0.0346785
-0.0326082
-0.0307691
-0.0291237
-0.0276563
-0.0263587
-0.0252082
-0.0241826
-0.0232684
-0.0224553
-0.0217343
-0.0210981
-0.0205405
-0.0200564
-0.0196415
-0.0192924
-0.0190064
-0.0187814
-0.018616
-0.0185086
-0.0184692
-0.0889082
-0.0807972
-0.0729022
-0.0661829
-0.0604734
-0.0556764
-0.0515244
-0.0478818
-0.0446739
-0.0418501
-0.0393562
-0.0371399
-0.0351595
-0.033393
-0.0318252
-0.0304307
-0.0291865
-0.0280773
-0.0270906
-0.0262155
-0.0254426
-0.0247644
-0.0241745
-0.0236677
-0.0232395
-0.0228864
-0.022606
-0.0223958
-0.0222535
-0.0221923
-0.104089
-0.0944993
-0.0849771
-0.0769796
-0.0703701
-0.0648487
-0.0600472
-0.0558118
-0.0520861
-0.0488132
-0.0459196
-0.0433452
-0.0410483
-0.0389998
-0.0371749
-0.0355465
-0.0340919
-0.0327948
-0.0316403
-0.0306156
-0.0297101
-0.0289148
-0.0282222
-0.027626
-0.027121
-0.026703
-0.0263687
-0.0261152
-0.0259389
-0.0258549
-0.118775
-0.107763
-0.0967175
-0.0875717
-0.0801528
-0.0739167
-0.0684225
-0.063563
-0.0593188
-0.0556055
-0.0523178
-0.049391
-0.0467842
-0.0444604
-0.0423861
-0.0405324
-0.038876
-0.0373982
-0.0360824
-0.034914
-0.033881
-0.0329732
-0.0321821
-0.0315002
-0.0309218
-0.0304417
-0.0300563
-0.0297621
-0.029554
-0.0294465
-0.13303
-0.120629
-0.107916
-0.0976603
-0.089587
-0.0827386
-0.0765887
-0.0711464
-0.0664249
-0.0622864
-0.0586047
-0.055326
-0.0524106
-0.0498113
-0.0474886
-0.0454122
-0.0435571
-0.0419018
-0.0404273
-0.0391178
-0.0379598
-0.036942
-0.0360546
-0.0352896
-0.0346401
-0.0341005
-0.0336664
-0.0333339
-0.0330964
-0.0329664
-0.14661
-0.133202
-0.11903
-0.107805
-0.0991059
-0.0915246
-0.0846132
-0.0785807
-0.0733947
-0.0688236
-0.0647424
-0.0611165
-0.057897
-0.0550243
-0.0524561
-0.0501613
-0.0481119
-0.046283
-0.044654
-0.0432074
-0.0419284
-0.0408045
-0.0398248
-0.0389803
-0.0382633
-0.0376677
-0.0371883
-0.0368209
-0.0365578
-0.0364081
-0.159728
-0.144989
-0.129227
-0.117376
-0.108317
-0.100046
-0.0924446
-0.0859159
-0.0802863
-0.0752676
-0.0707862
-0.0668186
-0.0632938
-0.0601443
-0.0573289
-0.0548148
-0.0525698
-0.0505666
-0.0487828
-0.0471993
-0.0458
-0.0445709
-0.0435002
-0.0425779
-0.0417957
-0.0411464
-0.0406245
-0.0402254
-0.0399401
-0.0397741
-0.172396
-0.156767
-0.139765
-0.127383
-0.117655
-0.108436
-0.10016
-0.0931665
-0.087056
-0.0815708
-0.0766992
-0.0723943
-0.0685606
-0.065133
-0.062072
-0.05934
-0.0569007
-0.0547248
-0.0527884
-0.0510706
-0.0495536
-0.0482223
-0.0470637
-0.046067
-0.0452229
-0.0445238
-0.0439633
-0.0435367
-0.0432343
-0.0430566
-0.184248
-0.166954
-0.14956
-0.137294
-0.126835
-0.11677
-0.107993
-0.100516
-0.09386
-0.0879011
-0.0826378
-0.0779752
-0.0738126
-0.0700937
-0.0667757
-0.0638145
-0.0611711
-0.0588147
-0.0567191
-0.0548617
-0.053223
-0.0517865
-0.0505382
-0.0494661
-0.0485602
-0.0478122
-0.0472151
-0.046764
-0.0464486
-0.0462644
-0.197337
-0.178594
-0.161116
-0.148125
-0.136369
-0.12555
-0.116248
-0.10813
-0.100863
-0.0944095
-0.088709
-0.0836396
-0.079114
-0.0750777
-0.0714786
-0.0682672
-0.0654027
-0.0628517
-0.0605856
-0.0585793
-0.0568115
-0.0552643
-0.0539221
-0.0527719
-0.0518029
-0.0510058
-0.0503733
-0.0499
-0.0495763
-0.0493936
-0.210071
-0.191401
-0.17463
-0.160354
-0.147381
-0.135764
-0.125593
-0.1166
-0.108596
-0.101501
-0.0952104
-0.089611
-0.0846197
-0.0801714
-0.0762057
-0.0726691
-0.0695173
-0.0667131
-0.064224
-0.0620223
-0.0600841
-0.0583895
-0.0569211
-0.0556644
-0.0546073
-0.0537396
-0.0530532
-0.0525427
-0.0521991
-0.0520116
-0.217056
-0.200654
-0.18458
-0.169804
-0.156287
-0.144163
-0.133385
-0.123783
-0.115232
-0.107629
-0.100861
-0.0948253
-0.0894415
-0.0846384
-0.0803521
-0.0765277
-0.0731184
-0.0700844
-0.0673909
-0.0650081
-0.0629106
-0.0610766
-0.0594876
-0.0581278
-0.056984
-0.0560452
-0.0553027
-0.0547511
-0.0543825
-0.0541835
-0.218048
-0.203677
-0.188724
-0.174432
-0.16116
-0.149106
-0.138258
-0.12852
-0.1198
-0.112005
-0.105033
-0.098794
-0.0932134
-0.088222
-0.0837579
-0.0797678
-0.0762057
-0.0730315
-0.0702104
-0.0677125
-0.0655119
-0.0635865
-0.0619173
-0.0604882
-0.0592857
-0.0582986
-0.0575177
-0.0569379
-0.0565524
-0.0563478
-0.216653
-0.203127
-0.189139
-0.175693
-0.163062
-0.151439
-0.140869
-0.131304
-0.122681
-0.114923
-0.10795
-0.101684
-0.0960593
-0.0910122
-0.086486
-0.082431
-0.0788037
-0.0755657
-0.0726835
-0.0701282
-0.0678744
-0.0659005
-0.0641879
-0.0627207
-0.0614855
-0.0604711
-0.0596686
-0.0590727
-0.0586778
-0.0584715
-0.215573
-0.202136
-0.188726
-0.175986
-0.163977
-0.15283
-0.142613
-0.133303
-0.124855
-0.117213
-0.11031
-0.104082
-0.098471
-0.0934203
-0.0888786
-0.0848001
-0.0811442
-0.0778747
-0.0749601
-0.0723723
-0.0700873
-0.068084
-0.0663444
-0.064853
-0.0635968
-0.0625649
-0.0617482
-0.0611417
-0.0607406
-0.0605336
-0.215368
-0.201938
-0.188892
-0.176618
-0.16505
-0.154271
-0.144342
-0.135247
-0.126951
-0.119411
-0.112572
-0.10638
-0.100783
-0.0957301
-0.0911754
-0.0870764
-0.083395
-0.0800973
-0.0771531
-0.0745359
-0.0722223
-0.070192
-0.0684275
-0.0669139
-0.0656383
-0.0645901
-0.0637605
-0.0631441
-0.0627368
-0.0625283
-0.215617
-0.202433
-0.189718
-0.17776
-0.166483
-0.155961
-0.146239
-0.1373
-0.129116
-0.121648
-0.114851
-0.108678
-0.103082
-0.0980174
-0.0934419
-0.0893159
-0.0856039
-0.0822738
-0.0792966
-0.0766469
-0.0743023
-0.0722431
-0.0704521
-0.0689147
-0.0676186
-0.0665532
-0.0657098
-0.0650829
-0.0646687
-0.0644579
-0.215896
-0.20313
-0.190772
-0.179086
-0.168039
-0.157718
-0.148161
-0.139349
-0.131254
-0.123845
-0.117081
-0.110921
-0.105322
-0.100244
-0.095646
-0.0914925
-0.0877497
-0.084387
-0.081377
-0.0786951
-0.0763197
-0.0742317
-0.0724144
-0.0708535
-0.0695369
-0.0684544
-0.0675973
-0.06696
-0.0665387
-0.0663253
-0.216038
-0.20369
-0.191689
-0.180278
-0.16946
-0.159333
-0.149935
-0.141247
-0.133244
-0.125897
-0.119173
-0.113033
-0.107439
-0.102354
-0.097741
-0.0935667
-0.0897992
-0.0864096
-0.0833717
-0.0806621
-0.0782598
-0.0761464
-0.0743058
-0.0727239
-0.0713889
-0.0702909
-0.0694214
-0.0687747
-0.068347
-0.0681311
-0.216022
-0.204016
-0.192344
-0.18121
-0.170632
-0.160712
-0.151483
-0.142928
-0.135028
-0.127756
-0.121084
-0.114976
-0.1094
-0.10432
-0.0997031
-0.0955179
-0.0917348
-0.0883265
-0.0852681
-0.0825372
-0.0801138
-0.07798
-0.0761203
-0.0745211
-0.0731708
-0.0720598
-0.0711798
-0.0705251
-0.070092
-0.0698739
-0.215866
-0.204141
-0.192766
-0.181901
-0.171567
-0.161859
-0.152806
-0.144395
-0.136608
-0.129423
-0.122815
-0.116752
-0.111205
-0.106141
-0.101531
-0.0973444
-0.0935546
-0.0901357
-0.087064
-0.0843184
-0.0818795
-0.0797304
-0.0778559
-0.0762431
-0.0748806
-0.0737591
-0.0728706
-0.0722093
-0.0717718
-0.0715519
-0.215591
-0.204121
-0.193023
-0.182413
-0.172315
-0.162817
-0.153942
-0.145678
-0.138011
-0.130921
-0.124385
-0.118376
-0.112866
-0.107828
-0.103232
-0.099053
-0.095264
-0.0918412
-0.0887624
-0.0860075
-0.0835582
-0.081398
-0.0795127
-0.0778894
-0.0765175
-0.0753877
-0.0744925
-0.073826
-0.0733849
-0.0731635
-0.215203
-0.203984
-0.193155
-0.182791
-0.172918
-0.163621
-0.154922
-0.146805
-0.13926
-0.132268
-0.12581
-0.119861
-0.114396
-0.10939
-0.104816
-0.10065
-0.0968679
-0.0934469
-0.0903663
-0.0876069
-0.0851514
-0.082984
-0.081091
-0.0794602
-0.0780812
-0.0769452
-0.0760447
-0.0753741
-0.0749302
-0.0747076
-0.214704
-0.203734
-0.193173
-0.183048
-0.173391
-0.16429
-0.15576
-0.14779
-0.140367
-0.133477
-0.127101
-0.121216
-0.115802
-0.110833
-0.106286
-0.102139
-0.0983693
-0.0949552
-0.0918773
-0.0891177
-0.0866598
-0.0844886
-0.082591
-0.0809552
-0.0795714
-0.0784309
-0.0775266
-0.0768531
-0.076407
-0.0761836
-0.214091
-0.203364
-0.193072
-0.183181
-0.173737
-0.164825
-0.156462
-0.148637
-0.141338
-0.134551
-0.12826
-0.122445
-0.117085
-0.112159
-0.107645
-0.103522
-0.0997692
-0.0963666
-0.093296
-0.0905401
-0.0880834
-0.0859118
-0.0840124
-0.0823743
-0.0809877
-0.0798445
-0.0789379
-0.0782624
-0.0778148
-0.0775909
-0.213362
-0.20287
-0.192844
-0.183187
-0.173951
-0.165226
-0.157029
-0.149348
-0.142174
-0.135494
-0.129291
-0.123549
-0.118248
-0.11337
-0.108893
-0.104799
-0.101068
-0.0976816
-0.0946224
-0.0918742
-0.0894223
-0.0872533
-0.0853551
-0.083717
-0.0823298
-0.0811856
-0.080278
-0.0796015
-0.0791532
-0.078929
-0.212522
-0.202251
-0.192492
-0.183066
-0.174035
-0.165495
-0.157462
-0.149926
-0.142878
-0.136307
-0.130196
-0.124531
-0.119294
-0.114467
-0.110033
-0.105972
-0.102267
-0.098901
-0.0958571
-0.0931203
-0.0906766
-0.0885133
-0.0866189
-0.0849832
-0.0835974
-0.0824539
-0.0815465
-0.0808701
-0.0804217
-0.0801975
-0.211575
-0.201509
-0.192017
-0.182821
-0.173993
-0.165636
-0.157766
-0.150376
-0.143456
-0.136994
-0.130978
-0.125393
-0.120224
-0.115453
-0.111065
-0.107042
-0.103368
-0.100026
-0.0970008
-0.0942789
-0.0918467
-0.089692
-0.0878039
-0.0861729
-0.0847903
-0.0836492
-0.0827433
-0.082068
-0.0816201
-0.0813962
-0.210524
-0.200646
-0.191427
-0.182459
-0.17383
-0.165653
-0.157946
-0.150702
-0.14391
-0.13756
-0.131642
-0.12614
-0.121041
-0.116331
-0.111993
-0.108011
-0.104371
-0.101057
-0.0980547
-0.0953509
-0.0929331
-0.0907897
-0.0889104
-0.0872862
-0.0859088
-0.0847714
-0.0838683
-0.0831949
-0.0827482
-0.0825249
-0.209372
-0.199662
-0.190729
-0.181987
-0.173551
-0.165552
-0.158008
-0.150909
-0.144246
-0.13801
-0.13219
-0.126775
-0.12175
-0.117103
-0.112818
-0.108882
-0.105279
-0.101996
-0.09902
-0.0963373
-0.0939366
-0.091807
-0.0899389
-0.0883234
-0.0869528
-0.0858207
-0.0849216
-0.0842509
-0.0838059
-0.0835836
-0.208124
-0.198559
-0.189931
-0.181408
-0.173159
-0.165336
-0.157955
-0.151001
-0.144468
-0.138347
-0.132628
-0.127301
-0.122353
-0.117772
-0.113544
-0.109656
-0.106094
-0.102845
-0.0998977
-0.0972389
-0.094858
-0.0927447
-0.0908898
-0.0892849
-0.0879228
-0.0867973
-0.0859031
-0.085236
-0.0847933
-0.0845722
-0.206782
-0.197337
-0.189045
-0.180726
-0.172658
-0.165011
-0.157792
-0.150984
-0.14458
-0.138575
-0.132959
-0.127722
-0.122853
-0.118341
-0.114172
-0.110335
-0.106817
-0.103605
-0.100689
-0.0980569
-0.0956982
-0.0936034
-0.0917636
-0.0901712
-0.0888191
-0.0877015
-0.0868133
-0.0861506
-0.0857106
-0.0854909
-0.205325
-0.196009
-0.188082
-0.179939
-0.172049
-0.164581
-0.157524
-0.15086
-0.144586
-0.138697
-0.133185
-0.12804
-0.123253
-0.118811
-0.114705
-0.110921
-0.107449
-0.104278
-0.101396
-0.0987924
-0.0964581
-0.0943838
-0.0925612
-0.0909828
-0.0896422
-0.0885336
-0.0876524
-0.0869948
-0.0865581
-0.08634
-0.203708
-0.194608
-0.187049
-0.179046
-0.171338
-0.164051
-0.157155
-0.150633
-0.144489
-0.138717
-0.13331
-0.128259
-0.123555
-0.119186
-0.115144
-0.111417
-0.107994
-0.104865
-0.102019
-0.0994466
-0.0971388
-0.095087
-0.0932832
-0.0917204
-0.0903926
-0.0892942
-0.0884209
-0.087769
-0.0873361
-0.0871199
-0.201963
-0.19319
-0.185938
-0.178047
-0.170531
-0.163427
-0.156687
-0.150307
-0.144292
-0.138638
-0.133338
-0.128382
-0.123762
-0.119469
-0.115493
-0.111824
-0.108452
-0.105367
-0.10256
-0.100021
-0.0977414