/*--------------------------------*- C++ -*----------------------------------*\
  =========                 |
  \\      /  F ield         | OpenFOAM: The Open Source CFD Toolbox
   \\    /   O peration     | Website:  https://openfoam.org
    \\  /    A nd           | Version:  7
     \\/     M anipulation  |
\*---------------------------------------------------------------------------*/
FoamFile
{
    version     2.0;
    format      ascii;
    class       surfaceScalarField;
    location    "45";
    object      phi;
}
// * * * * * * * * * * * * * * * * * * * * * * * * * * * * * * * * * * * * * //

dimensions      [0 3 -1 0 0 0 0];

internalField   nonuniform List<scalar> 
6855
(
-7.49536e-05
2.44506e-09
6.63515e-09
-0.00060938
2.94692e-10
-0.0014911
4.93883e-10
5.23423e-10
-0.00060938
0.00060938
-0.0014911
0.00088172
-0.00240521
0.000914106
-0.00333417
0.000928969
-0.0042941
0.000959932
-0.00529479
0.00100068
-0.00634602
0.00105123
-0.00745478
0.00110876
-0.00862715
0.00117238
0.00124436
-0.00987151
-0.000600086
0.00120947
-0.00147335
0.00175499
-0.00238055
0.00182131
-0.00330292
0.00185133
-0.00425628
0.00191329
-0.0052504
0.00199481
-0.00629514
0.00209597
-0.00739763
0.00221125
-0.00856412
0.00233886
0.00248303
-0.00980278
-0.000581588
0.00179105
-0.00143797
0.00261137
-0.00233132
0.00271466
-0.00324048
0.00276049
-0.0041807
0.00285351
-0.00516169
0.0029758
-0.00619331
0.0031276
-0.00728316
0.00330109
-0.00843747
0.00349317
0.00370923
-0.00966368
-0.000554171
0.00234522
-0.00138522
0.00344242
-0.00225765
0.00358709
-0.00314708
0.00364992
-0.00406771
0.00377413
-0.00502904
0.00393713
-0.00604085
0.00413941
-0.00711127
0.00437151
-0.00824671
0.00462861
0.00491555
-0.00945303
-0.000518858
0.00286408
-0.00131534
0.00423891
-0.00215956
0.00443131
-0.00302272
0.00451309
-0.00391724
0.00466865
-0.0048523
0.00487219
-0.00583753
0.00512464
-0.00688189
0.00541587
-0.00799188
0.0057386
0.0060945
-0.00917083
-0.000477762
0.00334184
-0.00122838
0.00498953
-0.0020374
0.00524032
-0.00286834
0.00534402
-0.00373103
0.00553135
-0.00463407
0.00577523
-0.00558633
0.0060769
-0.00659741
0.00642694
-0.00767458
0.00681578
0.00723812
-0.00881821
-0.000425025
0.00376687
-0.00112304
0.00568754
-0.00189093
0.00600822
-0.0026835
0.0061366
-0.00350769
0.00635553
-0.00437136
0.00663891
-0.00528245
0.00698799
-0.00625196
0.00739645
-0.00729154
0.00785535
0.0083428
-0.00839622
-0.000362156
0.00412903
-0.000999646
0.00632503
-0.00172052
0.00672909
-0.00246952
0.00688559
-0.00325049
0.00713651
-0.00407136
0.00745977
-0.00493863
0.00785526
-0.00586132
0.00831914
-0.00685416
0.00884819
0.00939937
-0.00791072
-0.000290138
0.00441916
-0.000858908
0.0068938
-0.00152659
0.00739678
-0.00222666
0.00758566
-0.00295846
0.00786831
-0.00372898
0.00823029
-0.00454187
0.00866815
-0.00540106
0.00917832
-0.00632616
0.0097733
0.010427
-0.0073538
-0.000209276
0.00462844
-0.000701533
0.00738606
-0.00130973
0.00800497
-0.00195593
0.00823186
-0.00263384
0.00854622
-0.00335021
0.00894666
-0.00411026
0.0094282
-0.00491675
0.00998482
-0.00577066
0.0106272
0.0114264
-0.00677001
-0.000119083
0.00474752
-0.000528701
0.00779567
-0.00107075
0.00854702
-0.00165855
0.00881966
-0.00227831
0.00916598
-0.00293516
0.00960352
-0.00363389
0.0101269
-0.00437727
0.0107282
-0.00516922
0.0114191
0.0121996
-0.00594247
-1.30085e-05
0.00476053
-0.000341683
0.00812435
-0.000809926
0.00901526
-0.00133567
0.0093454
-0.00189331
0.00972363
-0.00248595
0.0101962
-0.00311788
0.0107589
-0.00379062
0.0114009
-0.00449937
0.0121279
0.0129525
-0.00525226
7.31757e-05
0.00468735
-0.000139651
0.00833718
-0.000529386
0.009405
-0.000989022
0.00980503
-0.00148086
0.0102155
-0.00200616
0.0107214
-0.00256895
0.0113216
-0.00317357
0.0120056
-0.00382165
0.012776
0.0136372
-0.00450636
0.000166749
0.00452061
7.5269e-05
0.00842866
-0.000233584
0.00971385
-0.000620254
0.0101917
-0.00104293
0.0106381
-0.00149861
0.0111771
-0.00198973
0.0118128
-0.00252194
0.0125378
-0.00309411
0.0133481
0.014246
-0.0037029
0.000262022
0.00425858
0.000286689
0.00840399
7.74865e-05
0.00992306
-0.000232133
0.0105013
-0.000582038
0.0109881
-0.000965214
0.0115603
-0.00138075
0.0122283
-0.00183532
0.0129923
-0.00232747
0.0138403
0.0147717
-0.00285311
0.000353489
0.00390509
0.000507642
0.00824984
0.000409075
0.0100216
0.000177482
0.0107329
-0.000102446
0.011268
-0.0004083
0.0118662
-0.000744878
0.0125649
-0.00111644
0.0133639
-0.00152598
0.0142498
0.0152102
-0.00196451
0.000435633
0.00346946
0.000727624
0.00795784
0.000746561
0.0100027
0.00060776
0.0108717
0.000406241
0.0114695
0.000171919
0.0121005
-8.86136e-05
0.0128254
-0.000371389
0.0136467
-0.000689941
0.0145684
0.0155616
-0.00104133
0.000501379
0.00296808
0.000937497
0.00752173
0.00108717
0.00985301
0.00104811
0.0109108
0.000929694
0.0115879
0.000777031
0.0122531
0.0006003
0.0130021
0.00039876
0.0138482
0.000176197
0.0147909
0.0158335
-9.57442e-05
0.000542694
0.00242539
0.00112701
0.00693741
0.00142271
0.00955731
0.00149526
0.0108382
0.00146496
0.0116182
0.00139452
0.0123236
0.00130199
0.0130947
0.00118986
0.0139603
0.00105517
0.0149256
0.0159783
0.000910372
0.000552711
0.00187268
0.00128377
0.00620635
0.00174096
0.00910012
0.00194124
0.0106379
0.00200805
0.0115514
0.0020227
0.0123089
0.00201526
0.0131021
0.00199335
0.0139823
0.00195763
0.0149613
0.0160201
0.00191582
0.000528638
0.00134404
0.00139384
0.00534115
0.00202612
0.00846784
0.00237412
0.0102899
0.00255212
0.0113734
0.00265755
0.0122035
0.00273668
0.013023
0.00280515
0.0139138
0.00286537
0.0149011
0.0159672
0.00291834
0.000473067
0.000870973
0.00144232
0.0043719
0.00225721
0.00765295
0.00277795
0.0097692
0.00308705
0.0110643
0.00329282
0.0119977
0.00346124
0.0128546
0.00361946
0.0137556
0.00377334
0.0147472
0.0158174
0.00392313
0.000393407
0.000477565
0.00140635
0.00335896
0.00240775
0.00665155
0.00312924
0.00904772
0.00359677
0.0105968
0.00391919
0.0116753
0.00418257
0.0125912
0.00443169
0.0135064
0.00468028
0.0144987
0.0155704
0.00492724
0.000301937
0.000175628
0.00128106
0.00237984
0.00244961
0.00548299
0.00339464
0.00810269
0.00405547
0.00993594
0.00452117
0.0112096
0.00489288
0.0122195
0.00523538
0.0131639
0.00557991
0.0141541
0.0152237
0.00592661
0.000213969
-3.83407e-05
0.00108343
0.00151038
0.00235572
0.0042107
0.00353018
0.00692823
0.00442422
0.00904191
0.00507297
0.0105609
0.0055772
0.0117152
0.00602444
0.0127167
0.00646465
0.0137139
0.0147839
0.0069045
0.000141349
-0.00017969
0.000846638
0.000805092
0.00211116
0.00294618
0.00348452
0.00555487
0.00464553
0.0078809
0.00553061
0.00967578
0.00621061
0.0110352
0.00678096
0.0121463
0.00733066
0.0131642
0.0142488
0.00786578
8.6734e-05
-0.000266424
0.000611562
0.000280264
0.00173896
0.00181878
0.00321375
0.00408009
0.00464338
0.00645126
0.00582131
0.00849786
0.0067421
0.0101144
0.00748412
0.0114043
0.00815031
0.012498
0.0136032
0.00879587
4.77506e-05
-0.000314175
0.000411818
-8.3804e-05
0.00131143
0.000919175
0.00272308
0.00266843
0.00433641
0.00483793
0.00583838
0.00699589
0.00708105
0.00887178
0.00806768
0.0104177
0.00892166
0.0116441
0.0128684
0.00965644
2.16346e-05
-0.000335809
0.000260825
-0.000322994
0.000913205
0.000266795
0.00210164
0.00148
0.00371011
0.00322946
0.0054505
0.00525549
0.00707868
0.0072436
0.0084159
0.00908048
0.00953958
0.0105204
0.0118986
0.0105094
6.10587e-06
-0.000341915
0.000155775
-0.000472663
0.000596522
-0.000173953
0.00148642
0.000590098
0.00287771
0.00183817
0.0046374
0.00349581
0.00653088
0.00535011
0.00832277
0.00728859
0.0098563
0.00898685
0.0107594
0.0109955
-2.07644e-06
-0.000339839
8.6963e-05
-0.000561703
0.000369652
-0.000456642
0.000978114
-1.83632e-05
0.00203165
0.000784638
0.00356651
0.00196094
0.00543867
0.00347796
0.00748607
0.00524119
0.00959462
0.0068783
0.00911721
0.0112368
-6.48196e-06
-0.000333357
4.18913e-05
-0.000610076
0.000213652
-0.000628402
0.000602203
-0.000406914
0.00132257
6.42669e-05
0.00248348
0.000800032
0.0040653
0.00189613
0.00603058
0.00327591
0.00839051
0.00451837
0.00699781
0.0105099
-9.59843e-06
-0.000323758
8.32199e-06
-0.000627996
0.000100621
-0.000720701
0.000331842
-0.000638136
0.000786117
-0.000390008
0.00155787
2.82824e-05
0.00273897
0.000715025
0.00432447
0.00169042
0.0064031
0.00243974
0.00462499
0.00877592
-1.45161e-05
-0.000309242
-2.46984e-05
-0.000617814
6.13722e-06
-0.000751536
0.000122395
-0.000754394
0.000380057
-0.00064767
0.000841532
-0.000433193
0.00162493
-6.83738e-05
0.00273967
0.000575682
0.00427328
0.000906127
0.00248252
0.00641575
-2.29693e-05
-0.000286273
-6.14721e-05
-0.000579311
-8.44761e-05
-0.000728532
-5.92693e-05
-0.000779601
5.39152e-05
-0.000760854
0.000286755
-0.000666033
0.000733641
-0.00051526
0.00143922
-0.000129902
0.00240222
-5.68693e-05
0.000949649
0.00393509
-3.4425e-05
-0.000251848
-0.000102328
-0.000511409
-0.000175141
-0.000655718
-0.000226839
-0.000727903
-0.000233794
-0.000753899
-0.000165573
-0.000734254
3.33553e-05
-0.000714188
0.000379935
-0.000476482
0.000876747
-0.00055368
7.54344e-05
0.00175096
-4.74193e-05
-0.000204429
-0.000144187
-0.000414641
-0.000262318
-0.000537587
-0.000380518
-0.000609704
-0.000481941
-0.000652477
-0.000541817
-0.000674377
-0.000563595
-0.00069241
-0.000453344
-0.000586734
-0.00031837
-0.000688654
-0.000291524
4.85877e-05
-5.98624e-05
-0.000144566
-0.000182057
-0.000292447
-0.000338171
-0.000381473
-0.000509819
-0.000438055
-0.000684374
-0.000477922
-0.000849738
-0.000509014
-0.00100979
-0.000532354
-0.00109211
-0.000504421
-0.00121501
-0.000565749
-0.000380721
-0.00112581
-6.96103e-05
-7.49558e-05
-0.000210769
-0.000151288
-0.000394313
-0.000197929
-0.000603601
-0.000228767
-0.00082939
-0.000252132
-0.00106624
-0.000272161
-0.00131143
-0.000287165
-0.00152958
-0.000286276
-0.0017828
-0.000312526
-0.000249448
-0.00191407
-7.49534e-05
-0.000226235
-0.000424154
-0.000652907
-0.000905021
-0.00117716
-0.00146429
-0.00175053
-0.00206301
-0.00231241
-0.0100952
0.000223696
-0.0102669
0.000171678
-0.0104174
0.00015054
-0.0105356
0.000118177
-0.0106368
0.000101213
-0.0107167
7.98395e-05
-0.0107834
6.67384e-05
-0.0108355
5.20682e-05
-0.0108775
4.20458e-05
-0.0109091
3.16301e-05
-0.0109331
2.39266e-05
-0.0109494
1.62908e-05
-0.0109597
1.03098e-05
-0.0109643
4.64823e-06
-0.0109646
2.93552e-07
-0.0109601
-4.51811e-06
-0.0109516
-8.48607e-06
-0.0109395
-1.2113e-05
-0.0109242
-1.52753e-05
-0.010906
-1.82006e-05
-0.0108852
-2.08078e-05
-0.010862
-2.32344e-05
-0.0108365
-2.54401e-05
-0.010809
-2.75104e-05
-0.0107796
-2.94285e-05
-0.0107483
-3.12474e-05
-0.0107154
-3.29644e-05
-0.0106808
-3.46244e-05
-0.0106445
-3.6252e-05
-3.78991e-05
-0.0100292
0.000450151
-0.0102028
0.000345271
-0.0103552
0.000302957
-0.0104751
0.000238001
-0.0105781
0.000204252
-0.0106598
0.000161531
-0.0107286
0.000135504
-0.0107827
0.000106223
-0.010827
8.62929e-05
-0.0108608
6.55025e-05
-0.0108871
5.01593e-05
-0.0109057
3.49136e-05
-0.0109184
2.29889e-05
-0.0109254
1.16444e-05
-0.0109278
2.70568e-06
-0.0109258
-6.51261e-06
-0.0109198
-1.44512e-05
-0.0109102
-2.17584e-05
-0.0108974
-2.80788e-05
-0.0108816
-3.3946e-05
-0.0108633
-3.9157e-05
-0.0108425
-4.40169e-05
-0.0108195
-4.84293e-05
-0.0107944
-5.25755e-05
-0.0107675
-5.6415e-05
-0.0107386
-6.00584e-05
-0.0107081
-6.34977e-05
-0.0106759
-6.68241e-05
-0.0106421
-7.00841e-05
-7.338e-05
-0.00989518
0.000681656
-0.0100727
0.000522745
-0.0102291
0.000459447
-0.0103527
0.000361541
-0.0104598
0.000311327
-0.0105455
0.00024725
-0.0106185
0.000208563
-0.010677
0.000164732
-0.0107258
0.000135066
-0.0107643
0.000103948
-0.0107952
8.10654e-05
-0.0108185
5.82441e-05
-0.0108359
4.04208e-05
-0.0108476
2.33154e-05
-0.0108545
9.58337e-06
-0.0108575
-3.44665e-06
-0.0108565
-1.54996e-05
-0.0108518
-2.65081e-05
-0.0108439
-3.59703e-05
-0.010833
-4.47862e-05
-0.0108196
-5.26031e-05
-0.0108037
-5.99058e-05
-0.0107856
-6.65321e-05
-0.0107654
-7.27641e-05
-0.0107433
-7.8533e-05
-0.0107193
-8.40118e-05
-0.0106936
-8.91845e-05
-0.0106663
-9.41901e-05
-0.0106373
-9.90916e-05
-0.000104039
-0.00969135
0.000919983
-0.00987462
0.000706009
-0.0100376
0.000622428
-0.0101673
0.0004912
-0.0102809
0.000424996
-0.0103732
0.000339481
-0.010453
0.000288438
-0.0105184
0.000230063
-0.0105741
0.000190843
-0.0106196
0.000149421
-0.0106576
0.000119101
-0.0106881
8.87201e-05
-0.0107127
6.50471e-05
-0.0107316
4.21566e-05
-0.0107456
2.35671e-05
-0.0107554
6.35998e-06
-0.0107619
-9.02965e-06
-0.0107645
-2.38409e-05
-0.010764
-3.65023e-05
-0.0107605
-4.82959e-05
-0.0107543
-5.87299e-05
-0.0107458
-6.84892e-05
-0.010735
-7.73418e-05
-0.010722
-8.5673e-05
-0.0107072
-9.33867e-05
-0.0106905
-0.000100718
-0.010672
-0.000107641
-0.0106519
-0.000114344
-0.0106301
-0.000120901
-0.000127504
-0.00941755
0.00116671
-0.00960853
0.00089698
-0.00978051
0.000794417
-0.0099188
0.000629488
-0.0100417
0.000547901
-0.010143
0.000440812
-0.0102323
0.000377724
-0.010307
0.000304773
-0.0103724
0.000256159
-0.0104274
0.00020443
-0.010475
0.00016675
-0.0105151
0.000128805
-0.0105494
9.932e-05
-0.0105779
7.0678e-05
-0.0106017
4.73295e-05
-0.0106205
2.52107e-05
-0.0106365
6.92619e-06
-0.010649
-1.1282e-05
-0.0106582
-2.73137e-05
-0.0106644
-4.20527e-05
-0.010668
-5.51669e-05
-0.0106691
-6.73948e-05
-0.010668
-7.84867e-05
-0.0106647
-8.89497e-05
-0.0106594
-9.86286e-05
-0.0106523
-0.000107833
-0.0106434
-0.00011653
-0.0106328
-0.000124957
-0.0106205
-0.000133185
-0.000141446
-0.00907472
0.00142322
-0.00927513
0.00109739
-0.0094584
0.000977682
-0.00960776
0.000778856
-0.00974257
0.000682711
-0.00985571
0.000553945
-0.0099571
0.000479112
-0.0100438
0.000391514
-0.0101213
0.000333602
-0.0101884
0.000271523
-0.0102481
0.000226511
-0.0103003
0.000180968
-0.0103466
0.000145669
-0.0103872
0.000111265
-0.0104231
8.32458e-05
-0.0104545
5.6515e-05
-0.0104814
3.38989e-05
-0.0105055
1.28422e-05
-0.0105273
-5.53584e-06
-0.0105455
-2.38584e-05
-0.0105611
-3.96037e-05
-0.0105742
-5.42744e-05
-0.010585
-6.76729e-05
-0.0105937
-8.0311e-05
-0.0106003
-9.19533e-05
-0.0106051
-0.000103064
-0.010608
-0.000113581
-0.0106092
-0.000123761
-0.0106088
-0.000133677
-0.000143597
-0.00866487
0.00169187
-0.00887653
0.00130905
-0.00907368
0.00117484
-0.0092367
0.00094187
-0.00938581
0.000831821
-0.00951325
0.000681384
-0.0096291
0.000594969
-0.00973037
0.000492778
-0.00982235
0.000425582
-0.00990398
0.000353159
-0.00997826
0.000300781
-0.0100449
0.000247616
-0.0101057
0.000206465
-0.0101607
0.000166266
-0.010211
0.00013356
-0.0102568
0.000102303
-0.0102987
7.58296e-05
-0.0103367
5.08213e-05
-0.0103713
2.90879e-05
-0.0104042
9.00756e-06
-0.0104344
-9.40621e-06
-0.0104616
-2.70826e-05
-0.0104866
-4.26745e-05
-0.0105095
-5.74246e-05
-0.0105303
-7.11592e-05
-0.0105491
-8.42316e-05
-0.0105661
-9.66014e-05
-0.0105813
-0.000108559
-0.0105948
-0.000120191
-0.000131765
-0.00819117
0.00197232
-0.00841559
0.00153347
-0.00862728
0.00138653
-0.00880585
0.00112043
-0.00897146
0.000997438
-0.00911602
0.000825942
-0.00924916
0.000728107
-0.00936775
0.000611365
-0.00947695
0.000534787
-0.00957571
0.000451912
-0.00966697
0.000392048
-0.0097505
0.000331142
-0.00982807
0.00028404
-0.00989976
0.000237948
-0.00996668
0.000200485
-0.010029
0.000164648
-0.0100875
0.000134354
-0.0101424
0.000105682
-0.010194
8.06976e-05
-0.0102423
5.72464e-05
-0.010288
3.63053e-05
-0.0103316
1.65864e-05
-0.0103737
-5.89933e-07
-0.0104127
-1.84443e-05
-0.0104496
-3.4275e-05
-0.0104847
-4.91672e-05
-0.0105178
-6.34084e-05
-0.0105491
-7.72623e-05
-0.0105787
-9.06466e-05
-0.00010385
-0.00765482
0.00227334
-0.00789583
0.00177448
-0.00812532
0.00161603
-0.00832377
0.00131888
-0.00850761
0.00118127
-0.00867144
0.000989775
-0.00882312
0.000879781
-0.0089608
0.000749047
-0.00908882
0.000662813
-0.00920659
0.000569681
-0.00931674
0.000502196
-0.00941918
0.000433579
-0.00951558
0.00038044
-0.00960605
0.000328421
-0.00969169
0.000286124
-0.00977268
0.000245639
-0.00984978
0.000211451
-0.00992321
0.000179112
-0.00999348
0.000150968
-0.0100607
0.000124429
-0.0101251
0.000100702
-0.0101869
7.84305e-05
-0.0102458
5.82977e-05
-0.0103033
3.9057e-05
-0.0103588
2.12048e-05
-0.0104124
4.41356e-06
-0.0104637
-1.20731e-05
-0.010513
-2.79403e-05
-0.0105606
-4.30422e-05
-5.78608e-05
-0.00708306
0.00258639
-0.00733302
0.00202444
-0.00757336
0.00185636
-0.00778669
0.00153222
-0.00798952
0.0013841
-0.00817378
0.00117404
-0.0083482
0.0010542
-0.00850792
0.000908769
-0.00865859
0.000813482
-0.00879822
0.000709308
-0.00893028
0.000634258
-0.00905406
0.00055736
-0.00917172
0.000498099
-0.00928309
0.000439788
-0.00938953
0.000392564
-0.00949109
0.000347204
-0.00958867
0.00030903
-0.00968241
0.000272847
-0.00977289
0.000241446
-0.00986027
0.000211812
-0.00994499
0.000185419
-0.0100271
0.000160555
-0.0101067
0.000137888
-0.010184
0.000116369
-0.0102593
9.65021e-05
-0.0103324
7.75376e-05
-0.0104038
5.93011e-05
-0.0104732
4.1494e-05
-0.0105407
2.44192e-05
8.03702e-06
-0.01267
0.00237679
0.0128796
-0.0125765
0.00193089
-0.0125703
0.00185018
-0.0125684
0.00153028
-0.0126002
0.00141593
-0.0126252
0.00119901
-0.0126653
0.00109428
-0.0127003
0.000943781
-0.0127411
0.000854311
-0.0127777
0.000745877
-0.0128155
0.000672131
-0.0128498
0.000591576
-0.0128832
0.00053156
-0.0129135
0.000470068
-0.0129422
0.000421219
-0.012968
0.000373077
-0.012992
0.000332996
-0.0130135
0.000294374
-0.0130331
0.000261043
-0.0130506
0.000229279
-0.0130663
0.000201086
-0.01308
0.000174302
-0.013092
0.000149898
-0.0131023
0.000126676
-0.013111
0.000105164
-0.0131179
8.44751e-05
-0.0131234
6.47677e-05
-0.0131275
4.55859e-05
-0.0131302
2.71275e-05
8.98054e-06
-0.012889
0.00221311
0.0130527
-0.0128263
0.0018682
-0.0127572
0.0017811
-0.0127404
0.00151349
-0.0127352
0.00141068
-0.0127472
0.00121104
-0.0127653
0.00111234
-0.0127882
0.00096674
-0.0128144
0.000880499
-0.0128411
0.000772608
-0.0128689
0.000699852
-0.0128955
0.000618179
-0.0129217
0.000557765
-0.0129462
0.000494566
-0.0129695
0.00044459
-0.0129911
0.000394597
-0.0130111
0.00035307
-0.0130294
0.000312634
-0.0130461
0.000277767
-0.0130611
0.000244305
-0.0130746
0.000214594
-0.0130866
0.000186226
-0.0130971
0.000160393
-0.0131061
0.000135707
-0.0131137
0.00011275
-0.0131198
9.06223e-05
-0.0131246
6.95834e-05
-0.0131282
4.91203e-05
-0.0131304
2.93305e-05
9.73189e-06
-0.0130719
0.00206765
0.0132174
-0.0129994
0.00179563
-0.0129244
0.00170619
-0.0128931
0.00148217
-0.0128665
0.00138405
-0.0128633
0.00120787
-0.0128642
0.00111324
-0.0128752
0.000977724
-0.0128884
0.000893697
-0.0129056
0.000789764
-0.0129236
0.000717852
-0.0129426
0.000637251
-0.0129616
0.000576715
-0.0129803
0.000513225
-0.0129982
0.000462533
-0.0130152
0.000411632
-0.0130312
0.000369074
-0.0130461
0.000327478
-0.0130598
0.000291445
-0.0130722
0.000256748
-0.0130834
0.000225829
-0.0130934
0.00019623
-0.0131023
0.000169216
-0.0131099
0.000143332
-0.0131163
0.00011919
-0.0131216
9.58869e-05
-0.0131257
7.37104e-05
-0.0131287
5.21061e-05
-0.0131305
3.11462e-05
1.0339e-05
-0.0132261
0.00193845
0.0133553
-0.0131419
0.0017114
-0.0130663
0.00163061
-0.013023
0.00143889
-0.0129859
0.00134697
-0.0129693
0.0011913
-0.0129576
0.00110155
-0.0129573
0.000977351
-0.0129597
0.000896111
-0.0129677
0.000797779
-0.0129771
0.000727203
-0.0129889
0.000649069
-0.0130011
0.000588907
-0.013014
0.000526193
-0.0130268
0.000475264
-0.0130394
0.000424244
-0.0130514
0.000381088
-0.0130628
0.000338918
-0.0130735
0.000302089
-0.0130833
0.000266598
-0.0130923
0.000234787
-0.0131003
0.000204298
-0.0131075
0.000176357
-0.0131137
0.000149544
-0.013119
0.000124459
-0.0131233
0.000100224
-0.0131267
7.71118e-05
-0.0131292
5.45579e-05
-0.0131306
3.26242e-05
1.08312e-05
-0.0133517
0.00181965
0.0134705
-0.0132634
0.00162305
-0.0131866
0.00155388
-0.0131344
0.00138666
-0.0130907
0.00130329
-0.0130639
0.00116444
-0.013043
0.00108072
-0.0130328
0.000967145
-0.0130265
0.000889751
-0.0130262
0.000797487
-0.013028
0.000729064
-0.0130331
0.000654126
-0.0130392
0.000594994
-0.0130467
0.000533762
-0.0130546
0.000483136
-0.013063
0.000432599
-0.0130712
0.000389294
-0.0130793
0.000347038
-0.013087
0.000309789
-0.0130943
0.000273896
-0.013101
0.000241509
-0.0131072
0.000210447
-0.0131127
0.000181842
-0.0131175
0.000154364
-0.0131216
0.00012857
-0.013125
0.000103628
-0.0131277
7.97841e-05
-0.0131296
5.64861e-05
-0.0131307
3.37846e-05
1.12186e-05
-0.0134542
0.00170746
0.0135664
-0.013366
0.00153483
-0.0132884
0.00147629
-0.0132305
0.00132879
-0.0131818
0.00125454
-0.0131473
0.00112996
-0.0131196
0.00105297
-0.0131014
0.000949
-0.0130879
0.000876219
-0.0130804
0.000790006
-0.0130758
0.000724473
-0.0130748
0.000653096
-0.0130754
0.000595621
-0.013078
0.000536336
-0.0130814
0.000486539
-0.0130857
0.000436937
-0.0130904
0.000393919
-0.0130953
0.000351978
-0.0131002
0.000314673
-0.013105
0.000278721
-0.0131096
0.000246063
-0.0131138
0.000214719
-0.0131177
0.000185711
-0.0131212
0.000157818
-0.0131241
0.000131544
-0.0131266
0.000106115
-0.0131286
8.17426e-05
-0.01313
5.79051e-05
-0.0131308
3.46389e-05
1.15051e-05
-0.0135386
0.00160039
0.0136456
-0.0134519
0.00144818
-0.0133742
0.00139858
-0.0133132
0.00126774
-0.0132606
0.00120201
-0.0132206
0.00108997
-0.0131874
0.00101978
-0.0131631
0.000924628
-0.0131437
0.000856807
-0.0131302
0.000776499
-0.01312
0.000714341
-0.0131137
0.000646722
-0.0131094
0.000591397
-0.0131075
0.000534386
-0.0131068
0.000485865
-0.0131074
0.000437553
-0.0131087
0.000395212
-0.0131107
0.000353922
-0.0131129
0.000316895
-0.0131153
0.000281184
-0.0131178
0.000248543
-0.0131203
0.000217181
-0.0131226
0.000188021
-0.0131247
0.000159949
-0.0131266
0.000133416
-0.0131282
0.000107709
-0.0131295
8.30103e-05
-0.0131304
5.88321e-05
-0.0131309
3.51983e-05
1.16938e-05
-0.0136082
0.001498
0.0137106
-0.0135236
0.00136358
-0.0134464
0.00132138
-0.0133837
0.00120507
-0.0133286
0.0011469
-0.0132847
0.00104607
-0.0132473
0.000982362
-0.013218
0.000895402
-0.0131938
0.00083259
-0.0131753
0.000758017
-0.0131605
0.000699487
-0.0131495
0.000635738
-0.013141
0.0005829
-0.013135
0.000528405
-0.0131307
0.000481509
-0.0131279
0.00043477
-0.0131261
0.000393435
-0.0131253
0.000353077
-0.013125
0.000316625
-0.0131252
0.000281419
-0.0131257
0.000249058
-0.0131265
0.000217919
-0.0131273
0.000188841
-0.0131282
0.000160809
-0.013129
0.000134229
-0.0131297
0.000108444
-0.0131303
8.36146e-05
-0.0131308
5.9287e-05
-0.013131
3.54751e-05
1.17883e-05
-0.0136654
0.00140013
0.0137633
-0.0135831
0.00128127
-0.013507
0.00124521
-0.0134436
0.00114172
-0.0133869
0.00109017
-0.0133403
0.000999459
-0.0132996
0.000941738
-0.0132667
0.000862418
-0.0132386
0.000804482
-0.013216
0.000735463
-0.0131972
0.000680648
-0.0131822
0.000620816
-0.01317
0.000570676
-0.0131605
0.00051887
-0.0131528
0.000473858
-0.013147
0.000428919
-0.0131424
0.000388856
-0.013139
0.00034967
-0.0131364
0.000314045
-0.0131346
0.000279578
-0.0131332
0.00024773
-0.0131324
0.000217033
-0.0131318
0.000188251
-0.0131314
0.000160462
-0.0131312
0.000134032
-0.0131311
0.000108361
-0.0131311
8.35866e-05
-0.0131311
5.92919e-05
-0.0131311
3.54826e-05
1.17931e-05
-0.0137123
0.0013066
0.0138058
-0.0136324
0.00120141
-0.0135577
0.00117045
-0.0134943
0.00107834
-0.0134367
0.00103257
-0.0133882
0.000951015
-0.0133453
0.000898765
-0.0133094
0.000826551
-0.0132782
0.000773271
-0.0132523
0.000709593
-0.0132302
0.000658481
-0.0132119
0.00060256
-0.0131965
0.000555234
-0.0131838
0.000506233
-0.0131732
0.000463289
-0.0131647
0.000420325
-0.0131575
0.000381744
-0.0131518
0.00034393
-0.0131471
0.000309346
-0.0131433
0.000275819
-0.0131403
0.000244691
-0.0131379
0.000214632
-0.013136
0.000186341
-0.0131345
0.000158981
-0.0131334
0.000132885
-0.0131325
0.000107504
-0.0131319
8.29607e-05
-0.0131315
5.8871e-05
-0.0131312
3.52354e-05
1.1713e-05
-0.0137503
0.0012172
0.0138397
-0.013673
0.00112407
-0.0135999
0.00109737
-0.0135369
0.00101537
-0.013479
0.000974673
-0.0134294
0.000901398
-0.0133848
0.000854129
-0.0133467
0.000788505
-0.0133131
0.000739621
-0.0132845
0.000681045
-0.0132596
0.00063356
-0.0132386
0.0005815
-0.0132204
0.000537037
-0.013205
0.000490906
-0.0131919
0.000450155
-0.0131809
0.000409298
-0.0131715
0.000372363
-0.0131636
0.000336083
-0.013157
0.000302718
-0.0131515
0.000270305
-0.0131469
0.000240076
-0.0131431
0.000210828
-0.0131399
0.000183203
-0.0131374
0.000156442
-0.0131354
0.000130849
-0.0131338
0.000105922
-0.0131326
8.17741e-05
-0.0131318
5.80503e-05
-0.0131313
3.47488e-05
1.15531e-05
-0.013781
0.00113171
0.0138665
-0.0137061
0.00104923
-0.0136349
0.00102611
-0.0135726
0.000953118
-0.0135148
0.000916888
-0.0134646
0.000851108
-0.0134188
0.000808372
-0.0133791
0.000748842
-0.0133436
0.000704088
-0.0133129
0.000650354
-0.0132857
0.000606387
-0.0132623
0.000558098
-0.0132418
0.000516503
-0.0132242
0.000473267
-0.0132088
0.000434788
-0.0131956
0.000396131
-0.0131842
0.000360964
-0.0131745
0.000326349
-0.0131661
0.000294349
-0.013159
0.000263197
-0.013153
0.000234022
-0.0131479
0.000205737
-0.0131436
0.000178935
-0.0131401
0.000152925
-0.0131372
0.000127988
-0.013135
0.000103668
-0.0131333
8.00656e-05
-0.0131321
5.68572e-05
-0.0131314
3.40391e-05
1.13187e-05
-0.0138054
0.00104991
0.0138872
-0.013733
0.000976847
-0.0136637
0.000956767
-0.0136023
0.000891805
-0.013545
0.000859522
-0.0134944
0.000800525
-0.0134479
0.000761919
-0.0134071
0.000708014
-0.0133702
0.000667128
-0.0133378
0.000617967
-0.0133088
0.000577388
-0.0132834
0.000532755
-0.0132609
0.000494002
-0.0132413
0.000453651
-0.013224
0.000417491
-0.013209
0.000381093
-0.0131958
0.000347787
-0.0131844
0.000314936
-0.0131745
0.00028442
-0.0131659
0.000254651
-0.0131586
0.000226662
-0.0131523
0.000199475
-0.013147
0.000173632
-0.0131426
0.000148511
-0.013139
0.000124369
-0.0131361
0.000100793
-0.0131339
7.78748e-05
-0.0131324
5.53196e-05
-0.0131314
3.31227e-05
1.10155e-05
-0.0138246
0.00097154
0.0139029
-0.0137546
0.000906846
-0.0136871
0.00088935
-0.0136269
0.000831569
-0.0135702
0.000802789
-0.0135196
0.000749935
-0.0134728
0.000715098
-0.0134311
0.00066638
-0.0133931
0.000629111
-0.0133594
0.000584258
-0.0133289
0.000546926
-0.013302
0.000505818
-0.0132779
0.000469858
-0.0132566
0.000432358
-0.0132376
0.000398536
-0.013221
0.000364431
-0.0132062
0.000333052
-0.0131933
0.000302042
-0.013182
0.000273104
-0.0131722
0.00024482
-0.0131636
0.000218128
-0.0131563
0.000192154
-0.0131501
0.00016739
-0.0131448
0.00014328
-0.0131405
0.000120057
-0.0131371
9.735e-05
-0.0131345
7.52416e-05
-0.0131326
5.34655e-05
-0.0131315
3.20164e-05
1.06489e-05
-0.0138394
0.000896363
0.0139146
-0.0137717
0.000839117
-0.0137061
0.000823836
-0.0136471
0.000772489
-0.0135911
0.000746834
-0.0135407
0.000699553
-0.0134938
0.000668161
-0.0134516
0.000624225
-0.0134129
0.000590339
-0.0133781
0.000549534
-0.0133465
0.000515306
-0.0133183
0.000477582
-0.0132928
0.000444351
-0.0132701
0.000409653
-0.0132497
0.000378169
-0.0132316
0.000346369
-0.0132155
0.000316961
-0.0132014
0.000287846
-0.0131888
0.000260562
-0.0131778
0.000233844
-0.0131683
0.000208543
-0.01316
0.00018388
-0.0131529
0.0001603
-0.0131469
0.000137308
-0.013142
0.000115116
-0.013138
9.33897e-05
-0.013135
7.22054e-05
-0.0131328
5.13229e-05
-0.0131316
3.07369e-05
1.02245e-05
-0.0138506
0.000824132
0.0139228
-0.013785
0.000773535
-0.0137214
0.000760166
-0.0136635
0.0007146
-0.0136084
0.000691746
-0.0135584
0.000649528
-0.0135115
0.000621297
-0.013469
0.000581772
-0.0134297
0.00055105
-0.0133943
0.000514048
-0.0133617
0.000482782
-0.0133325
0.000448299
-0.0133058
0.000417726
-0.0132819
0.000385766
-0.0132604
0.000356604
-0.0132411
0.000327105
-0.0132238
0.000299697
-0.0132085
0.000272516
-0.0131949
0.000246943
-0.0131829
0.000221858
-0.0131724
0.000198026
-0.0131633
0.000174756
-0.0131554
0.000152452
-0.0131488
0.000130672
-0.0131433
0.000109607
-0.0131389
8.89623e-05
-0.0131355
6.88044e-05
-0.013133
4.89187e-05
-0.0131316
2.93002e-05
9.74759e-06
-0.0138589
0.000754606
0.0139284
-0.0137953
0.000709964
-0.0137334
0.000698258
-0.0136767
0.000657902
-0.0136225
0.000637573
-0.0135729
0.000599968
-0.0135263
0.000574643
-0.0134837
0.000539193
-0.0134441
0.000511436
-0.0134081
0.000478005
-0.0133748
0.000449564
-0.0133447
0.000418181
-0.0133172
0.000390189
-0.0132923
0.000360898
-0.0132697
0.000334032
-0.0132495
0.00030682
-0.0132312
0.000281426
-0.0132149
0.000256202
-0.0132003
0.000232385
-0.0131874
0.000208984
-0.0131761
0.000186686
-0.0131662
0.000164879
-0.0131577
0.000143928
-0.0131505
0.000123441
-0.0131445
0.000103591
-0.0131396
8.41157e-05
-0.0131359
6.50754e-05
-0.0131332
4.62791e-05
-0.0131317
2.77219e-05
9.22344e-06
-0.0138647
0.000687549
0.0139318
-0.013803
0.000648261
-0.0137428
0.000638013
-0.0136872
0.000602369
-0.013634
0.000584327
-0.0135849
0.000550937
-0.0135386
0.000528295
-0.013496
0.000496619
-0.0134562
0.000471644
-0.0134198
0.000441572
-0.0133861
0.000415825
-0.0133553
0.000387405
-0.013327
0.000361916
-0.0133013
0.00033522
-0.0132779
0.000310619
-0.0132568
0.000285669
-0.0132376
0.000262293
-0.0132205
0.000239041
-0.0132051
0.000217012
-0.0131914
0.000195335
-0.0131794
0.000174623
-0.0131688
0.000154338
-0.0131597
0.000134806
-0.013152
0.000115683
-0.0131455
9.71233e-05
-0.0131403
7.88952e-05
-0.0131363
6.10536e-05
-0.0131334
4.34289e-05
-0.0131317
2.60171e-05
8.65698e-06
-0.0138686
0.000622734
0.0139334
-0.0138086
0.00058828
-0.0137499
0.00057932
-0.0136955
0.000547955
-0.0136432
0.000531997
-0.0135947
0.000502471
-0.0135487
0.000482317
-0.0135063
0.000454145
-0.0134664
0.000431788
-0.0134297
0.000404878
-0.0133956
0.000381704
-0.0133643
0.000356118
-0.0133355
0.000333054
-0.0133091
0.00030888
-0.013285
0.000286507
-0.0132631
0.000263791
-0.0132433
0.00024243
-0.0132254
0.000221154
-0.0132093
0.000200936
-0.013195
0.000181014
-0.0131823
0.00016193
-0.0131712
0.000143216
-0.0131615
0.000125159
-0.0131533
0.00010746
-0.0131464
9.02561e-05
-0.0131409
7.33436e-05
-0.0131366
5.6772e-05
-0.0131336
4.03918e-05
-0.0131317
2.41997e-05
8.05292e-06
-0.013871
0.00055994
0.0139338
-0.0138126
0.000529869
-0.0137553
0.000522059
-0.013702
0.000494598
-0.0136505
0.000480551
-0.0136026
0.000454584
-0.0135571
0.000436744
-0.0135148
0.000411837
-0.0134749
0.00039195
-0.0134381
0.000368026
-0.0134037
0.000347312
-0.013372
0.000324441
-0.0133427
0.000303728
-0.0133158
0.000282004
-0.0132911
0.000261819
-0.0132686
0.000241305
-0.0132481
0.000221951
-0.0132296