/*--------------------------------*- C++ -*----------------------------------*\
  =========                 |
  \\      /  F ield         | OpenFOAM: The Open Source CFD Toolbox
   \\    /   O peration     | Website:  https://openfoam.org
    \\  /    A nd           | Version:  7
     \\/     M anipulation  |
\*---------------------------------------------------------------------------*/
FoamFile
{
    version     2.0;
    format      ascii;
    class       volScalarField;
    location    "75";
    object      p;
}
// * * * * * * * * * * * * * * * * * * * * * * * * * * * * * * * * * * * * * //

dimensions      [0 2 -2 0 0 0 0];

internalField   nonuniform List<scalar> 
3700
(
-0.243731
-0.246687
-0.247654
-0.2487
-0.249663
-0.250611
-0.251524
-0.25236
-0.25307
-0.253605
-0.253919
-0.253972
-0.253745
-0.253234
-0.252492
-0.244067
-0.246971
-0.247923
-0.248957
-0.249917
-0.250867
-0.25179
-0.252643
-0.253378
-0.253946
-0.254298
-0.254395
-0.254206
-0.253735
-0.252951
-0.244654
-0.24746
-0.248382
-0.249391
-0.250336
-0.251279
-0.252205
-0.25307
-0.253827
-0.254425
-0.254814
-0.254947
-0.254775
-0.254338
-0.253372
-0.245478
-0.248144
-0.249021
-0.249988
-0.250904
-0.251831
-0.252752
-0.253622
-0.254396
-0.25502
-0.255441
-0.255608
-0.255419
-0.255047
-0.253696
-0.246517
-0.249006
-0.24982
-0.25073
-0.251603
-0.2525
-0.253404
-0.254271
-0.255054
-0.255698
-0.256145
-0.256348
-0.256088
-0.255881
-0.253839
-0.247747
-0.250027
-0.250762
-0.251593
-0.252406
-0.253258
-0.254131
-0.254983
-0.255765
-0.25642
-0.25688
-0.25714
-0.2567
-0.256877
-0.253683
-0.249141
-0.251186
-0.251822
-0.252555
-0.253286
-0.254073
-0.254899
-0.255718
-0.256485
-0.257139
-0.25759
-0.257959
-0.257131
-0.258078
-0.253124
-0.250672
-0.252461
-0.252979
-0.253589
-0.254214
-0.254913
-0.255669
-0.256436
-0.25717
-0.257809
-0.258199
-0.258787
-0.257276
-0.259387
-0.252551
-0.252312
-0.253831
-0.25421
-0.25467
-0.255162
-0.255745
-0.256405
-0.257096
-0.257771
-0.258384
-0.258632
-0.259529
-0.257445
-0.260213
-0.251936
-0.254038
-0.25528
-0.255495
-0.255777
-0.256103
-0.25654
-0.257075
-0.257662
-0.258247
-0.25882
-0.258962
-0.259984
-0.257306
-0.261042
-0.250949
-0.255831
-0.256792
-0.256819
-0.25689
-0.257016
-0.257272
-0.25765
-0.258104
-0.258575
-0.259064
-0.259038
-0.260286
-0.256726
-0.26175
-0.249662
-0.25768
-0.258358
-0.258171
-0.257996
-0.257885
-0.257925
-0.258113
-0.258402
-0.258726
-0.259116
-0.258842
-0.26037
-0.255777
-0.262076
-0.248322
-0.259581
-0.259977
-0.259546
-0.25909
-0.258703
-0.258491
-0.258455
-0.25855
-0.258694
-0.258962
-0.258401
-0.260121
-0.254624
-0.261665
-0.247225
-0.26154
-0.261653
-0.260946
-0.260172
-0.259473
-0.258972
-0.258681
-0.258554
-0.25849
-0.258598
-0.257758
-0.259416
-0.253454
-0.260164
-0.246412
-0.263574
-0.263397
-0.262381
-0.261254
-0.260206
-0.259384
-0.258808
-0.258434
-0.258136
-0.258024
-0.256949
-0.258162
-0.252335
-0.257468
-0.245471
-0.265708
-0.265224
-0.26387
-0.262353
-0.260923
-0.259751
-0.258865
-0.258216
-0.257661
-0.257249
-0.255965
-0.256345
-0.251088
-0.253822
-0.243782
-0.267978
-0.267158
-0.265444
-0.263496
-0.261655
-0.260108
-0.25889
-0.257937
-0.257085
-0.256283
-0.254739
-0.254015
-0.24936
-0.24958
-0.240986
-0.27043
-0.269236
-0.267126
-0.264719
-0.262442
-0.260499
-0.258924
-0.257628
-0.256419
-0.255121
-0.253174
-0.251215
-0.246843
-0.24483
-0.237094
-0.273124
-0.271494
-0.268957
-0.266062
-0.263328
-0.260969
-0.259007
-0.257315
-0.255655
-0.253735
-0.251181
-0.247951
-0.243409
-0.239344
-0.232246
-0.276117
-0.273971
-0.270979
-0.267571
-0.264361
-0.261564
-0.259173
-0.257005
-0.254771
-0.25208
-0.248704
-0.244238
-0.239112
-0.233013
-0.226555
-0.279445
-0.276732
-0.273239
-0.269294
-0.265588
-0.262321
-0.259438
-0.25669
-0.25373
-0.250111
-0.245726
-0.240107
-0.234111
-0.226493
-0.219982
-0.283184
-0.279813
-0.275784
-0.271277
-0.267051
-0.263266
-0.259804
-0.256343
-0.252485
-0.247793
-0.242276
-0.235573
-0.228566
-0.220271
-0.212853
-0.287394
-0.283257
-0.27866
-0.273566
-0.268784
-0.264412
-0.260259
-0.255924
-0.250992
-0.245107
-0.238404
-0.230672
-0.222817
-0.213925
-0.20594
-0.29213
-0.28711
-0.281914
-0.276201
-0.270808
-0.26576
-0.260773
-0.255383
-0.249209
-0.242052
-0.234163
-0.225503
-0.216896
-0.207576
-0.199359
-0.297441
-0.291418
-0.285593
-0.279215
-0.273137
-0.267296
-0.261302
-0.254662
-0.247106
-0.238638
-0.229614
-0.220116
-0.210881
-0.201224
-0.192822
-0.303367
-0.296221
-0.289735
-0.282632
-0.275772
-0.268992
-0.261782
-0.253697
-0.244663
-0.23489
-0.224801
-0.21456
-0.20478
-0.194835
-0.186323
-0.309943
-0.301557
-0.294376
-0.286465
-0.278706
-0.270796
-0.262133
-0.252435
-0.241871
-0.23083
-0.219758
-0.208853
-0.198587
-0.1884
-0.179748
-0.317189
-0.307458
-0.299538
-0.290718
-0.281912
-0.272629
-0.262268
-0.250828
-0.238728
-0.226477
-0.214502
-0.202996
-0.192288
-0.181881
-0.173082
-0.325118
-0.313948
-0.305229
-0.295384
-0.285334
-0.274383
-0.262103
-0.248842
-0.235232
-0.221839
-0.209035
-0.196978
-0.185858
-0.175253
-0.166287
-0.333724
-0.321036
-0.311439
-0.300436
-0.288872
-0.275939
-0.261561
-0.246446
-0.231378
-0.216915
-0.203346
-0.190778
-0.179272
-0.168485
-0.159341
-0.342983
-0.328707
-0.318142
-0.305815
-0.292392
-0.277174
-0.260573
-0.243614
-0.227154
-0.21169
-0.197414
-0.184369
-0.172503
-0.161552
-0.152219
-0.352845
-0.336922
-0.325288
-0.31141
-0.295734
-0.277972
-0.259078
-0.240318
-0.222541
-0.206142
-0.191213
-0.177721
-0.165523
-0.154426
-0.144901
-0.363233
-0.345607
-0.332801
-0.317058
-0.298725
-0.27822
-0.25702
-0.236525
-0.21751
-0.200244
-0.18471
-0.170803
-0.158305
-0.147081
-0.137368
-0.374034
-0.354657
-0.340562
-0.322551
-0.301192
-0.277817
-0.254342
-0.232197
-0.212028
-0.19396
-0.177872
-0.163584
-0.150822
-0.139494
-0.129603
-0.385092
-0.363935
-0.348395
-0.327654
-0.302967
-0.276667
-0.250987
-0.227292
-0.206056
-0.187253
-0.170663
-0.156034
-0.14305
-0.13164
-0.121589
-0.39621
-0.373272
-0.356065
-0.332123
-0.30389
-0.274676
-0.246897
-0.221763
-0.199552
-0.180085
-0.163049
-0.148123
-0.134964
-0.123498
-0.113309
-0.407146
-0.382467
-0.363286
-0.335716
-0.30381
-0.271759
-0.242012
-0.215562
-0.192471
-0.172416
-0.154996
-0.139827
-0.126543
-0.115045
-0.104752
-0.417622
-0.391287
-0.369735
-0.338198
-0.302589
-0.267829
-0.236271
-0.208636
-0.18477
-0.16421
-0.146475
-0.131122
-0.117767
-0.10627
-0.0959184
-0.427329
-0.399459
-0.375078
-0.339348
-0.3001
-0.262808
-0.229613
-0.200937
-0.176405
-0.155431
-0.137455
-0.121986
-0.108621
-0.0971663
-0.0868258
-0.435939
-0.406676
-0.378991
-0.338959
-0.296226
-0.256619
-0.221982
-0.192415
-0.167338
-0.146046
-0.127913
-0.112399
-0.0990884
-0.0877377
-0.0775046
-0.443115
-0.412601
-0.381174
-0.336849
-0.290864
-0.249195
-0.213323
-0.183027
-0.157531
-0.136027
-0.117825
-0.102343
-0.0891532
-0.0779793
-0.0679597
-0.448526
-0.416884
-0.381364
-0.332862
-0.283921
-0.240471
-0.203587
-0.172733
-0.146956
-0.125352
-0.107174
-0.0917998
-0.0787983
-0.0678692
-0.0581365
-0.451849
-0.419169
-0.379335
-0.326869
-0.275321
-0.230395
-0.192732
-0.161501
-0.135588
-0.114004
-0.0959471
-0.080762
-0.0680171
-0.057376
-0.0479089
-0.452781
-0.41912
-0.3749
-0.31877
-0.265003
-0.218924
-0.180727
-0.149307
-0.123409
-0.101969
-0.0841346
-0.0692266
-0.0568197
-0.0464948
-0.0371168
-0.451049
-0.416443
-0.3679
-0.308492
-0.252923
-0.206027
-0.167547
-0.136132
-0.110406
-0.0892399
-0.0717347
-0.0571958
-0.0452221
-0.035258
-0.0257898
-0.44641
-0.410891
-0.358207
-0.295985
-0.239054
-0.191685
-0.153176
-0.121963
-0.0965732
-0.0758163
-0.0587608
-0.0446864
-0.0332344
-0.0236207
-0.014442
-0.43866
-0.402265
-0.345734
-0.281225
-0.223387
-0.175887
-0.137598
-0.106797
-0.0819201
-0.0617167
-0.0452397
-0.0317448
-0.020856
-0.0115801
-0.00299067
-0.427635
-0.390424
-0.330432
-0.264209
-0.205923
-0.158622
-0.120817
-0.0906672
-0.0664831
-0.0469862
-0.0311717
-0.0183611
-0.00808457
0.000768432
0.00865082
-0.413216
-0.375278
-0.312291
-0.244951
-0.186662
-0.139891
-0.102889
-0.0736398
-0.0502884
-0.0316078
-0.0165847
-0.00455039
0.00505074
0.0133829
0.0205041
-0.395327
-0.356795
-0.291341
-0.223484
-0.165607
-0.119769
-0.0839454
-0.0556777
-0.0333408
-0.0156199
-0.00150917
0.00965932
0.0185136
0.0262406
0.0325538
-0.373941
-0.334991
-0.26765
-0.199875
-0.142831
-0.098475
-0.0638526
-0.036834
-0.015682
0.000936818
0.0140188
0.0242321
0.0322662
0.0393158
0.0447694
-0.349075
-0.309934
-0.241333
-0.174236
-0.118591
-0.075804
-0.0427281
-0.017166
0.00263602
0.0180161
0.0299574
0.0391273
0.0462694
0.0525724
0.0571062
-0.320799
-0.281754
-0.212511
-0.146658
-0.0928542
-0.0519232
-0.0206485
0.00325912
0.0215545
0.0355661
0.0462591
0.0543007
0.0604818
0.0659664
0.069513
-0.289238
-0.250688
-0.18121
-0.117249
-0.0657091
-0.0269434
0.00229859
0.0243674
0.0410078
0.0535282
0.0628709
0.0697046
0.0748615
0.0794543
0.0819513
-0.254574
-0.217036
-0.147359
-0.0861949
-0.0372968
-0.000980925
0.0260178
0.0460767
0.0609238
0.0718379
0.0797337
0.0852881
0.0893685
0.0930012
0.094398
-0.217004
-0.180851
-0.111463
-0.0535657
-0.00775974
0.0258404
0.0504037
0.0682972
0.0812242
0.0904246
0.0967842
0.100999
0.103961
0.106557
0.10676
-0.17673
-0.141641
-0.0744708
-0.0196762
0.0227484
0.0533894
0.0753429
0.0909322
0.101825
0.109215
0.113961
0.11679
0.118584
0.119981
0.118735
-0.134021
-0.100222
-0.0361759
0.0152303
0.0540543
0.0815273
0.100715
0.113878
0.122637
0.128134
0.13121
0.132625
0.133153
0.133
0.12991
-0.0890886
-0.057131
0.00331936
0.0509481
0.0859732
0.110105
0.126393
0.137026
0.143567
0.147106
0.148482
0.148468
0.147581
0.145426
0.140275
-0.0423669
-0.012692
0.0437829
0.0872728
0.118317
0.138967
0.152244
0.160262
0.164517
0.166054
0.165716
0.164244
0.161788
0.157498
0.150882
0.00575103
0.0327785
0.0849348
0.123985
0.150892
0.167949
0.17813
0.183467
0.185388
0.184896
0.182828
0.179826
0.175663
0.169452
0.164396
0.0548706
0.078939
0.126478
0.160853
0.183502
0.196883
0.203908
0.206519
0.206077
0.203544
0.199721
0.1951
0.189242
0.181803
0.177515
0.104583
0.125434
0.168109
0.197636
0.215944
0.225599
0.229432
0.229297
0.226482
0.221906
0.216312
0.21005
0.20266
0.194315
0.18977
0.154475
0.171896
0.209522
0.234089
0.248014
0.253924
0.254557
0.251674
0.246494
0.239883
0.232513
0.224631
0.215848
0.206677
0.20142
0.204134
0.217951
0.250411
0.269963
0.279505
0.281682
0.279134
0.273526
0.266007
0.257383
0.248253
0.238797
0.228711
0.218671
0.212484
0.253141
0.263229
0.290472
0.305013
0.310213
0.308703
0.303019
0.29473
0.284912
0.274312
0.263457
0.252483
0.241158
0.23022
0.22301
0.301082
0.307366
0.329406
0.338997
0.339936
0.334815
0.326066
0.315161
0.303106
0.290581
0.278051
0.265618
0.253102
0.24125
0.232983
0.347549
0.35001
0.366925
0.371677
0.368475
0.359853
0.348135
0.334701
0.320484
0.306101
0.291959
0.278133
0.264477
0.251716
0.242382
0.392149
0.390822
0.402747
0.402825
0.39564
0.383656
0.369091
0.353234
0.336948
0.320789
0.305109
0.289958
0.275219
0.26157
0.251177
0.4345
0.429477
0.436608
0.432221
0.421248
0.40607
0.388803
0.370649
0.352404
0.334564
0.317431
0.301033
0.285273
0.270769
0.259339
0.474244
0.465668
0.468253
0.459658
0.445125
0.426948
0.407148
0.386842
0.366762
0.347349
0.328858
0.311299
0.294589
0.279272
0.266841
0.511042
0.499108
0.497448
0.484941
0.467108
0.446155
0.42401
0.401714
0.379938
0.359073
0.339329
0.320701
0.303118
0.287041
0.273656
0.544583
0.529534
0.523975
0.507892
0.487049
0.463564
0.439282
0.415174
0.391856
0.36967
0.348787
0.329191
0.310817
0.294039
0.279764
0.574582
0.556704
0.547638
0.528347
0.504809
0.47906
0.452868
0.427141
0.402446
0.379079
0.35718
0.336722
0.317646
0.300236
0.285145
0.600785
0.580405
0.568259
0.546161
0.520268
0.49254
0.464681
0.437541
0.411643
0.387248
0.364464
0.343256
0.32357
0.305602
0.289782
0.622971
0.600451
0.585685
0.561207
0.533319
0.503916
0.474645
0.44631
0.419396
0.39413
0.370597
0.348757
0.328557
0.310113
0.293665
0.640953
0.616683
0.599789
0.573378
0.543873
0.513112
0.482697
0.453394
0.425656
0.399686
0.375546
0.353197
0.332582
0.313749
0.296783
0.65458
0.628975
0.610463
0.582587
0.551856
0.520067
0.488786
0.458748
0.430387
0.403883
0.379285
0.35655
0.335622
0.316493
0.299129
0.663736
0.637231
0.617631
0.588769
0.557215
0.524734
0.492871
0.462341
0.433561
0.406699
0.381793
0.358799
0.337661
0.318332
0.300698
0.668345
0.641386
0.621237
0.59188
0.559911
0.527083
0.494927
0.464149
0.435158
0.408116
0.383056
0.359931
0.338688
0.319259
0.301487
-0.252039
-0.250798
-0.249573
-0.252715
-0.251429
-0.250193
-0.253537
-0.252141
-0.250952
-0.254479
-0.252885
-0.251723
-0.255523
-0.253629
-0.252516
-0.256691
-0.254312
-0.253283
-0.251573
-0.257955
-0.254818
-0.253988
-0.25226
-0.258667
-0.255519
-0.254491
-0.252849
-0.259067
-0.256116
-0.25482
-0.253266
-0.259134
-0.256544
-0.254939
-0.253456
-0.25866
-0.256723
-0.254811
-0.253376
-0.257495
-0.256469
-0.254389
-0.25297
-0.251188
-0.255651
-0.255538
-0.253576
-0.252191
-0.250535
-0.253263
-0.253781
-0.252236
-0.250957
-0.249427
-0.250411
-0.251202
-0.250246
-0.24917
-0.247808
-0.246962
-0.247869
-0.247558
-0.246755
-0.245627
-0.244077
-0.242763
-0.243933
-0.244195
-0.243682
-0.242855
-0.241636
-0.238052
-0.239597
-0.240262
-0.240031
-0.239554
-0.238696
-0.233179
-0.235058
-0.235897
-0.235951
-0.235876
-0.235435
-0.228411
-0.230338
-0.230842
-0.230953
-0.231158
-0.231088
-0.230478
-0.220913
-0.224364
-0.224601
-0.22467
-0.225065
-0.225361
-0.22518
-0.207558
-0.213367
-0.214213
-0.214158
-0.214582
-0.215227
-0.215525
-0.195009
-0.202033
-0.203648
-0.203877
-0.204521
-0.205521
-0.206278
-0.183427
-0.190916
-0.193324
-0.194088
-0.195072
-0.196393
-0.197531
-0.172538
-0.18029
-0.183401
-0.184772
-0.18615
-0.187772
-0.18923
-0.162462
-0.170322
-0.173997
-0.17594
-0.177723
-0.179636
-0.181378
-0.153219
-0.161055
-0.16517
-0.167619
-0.169786
-0.171982
-0.173983
-0.144747
-0.15249
-0.15694
-0.159819
-0.162338
-0.164798
-0.167037
-0.137006
-0.144609
-0.149305
-0.152543
-0.155371
-0.158073
-0.160527
-0.129948
-0.137377
-0.14225
-0.14578
-0.148874
-0.15179
-0.154436
-0.123517
-0.130755
-0.135748
-0.139515
-0.142832
-0.145934
-0.148748
-0.117662
-0.124702
-0.129772
-0.133726
-0.137229
-0.140489
-0.14345
-0.11234
-0.119179
-0.124292
-0.128392
-0.132048
-0.13544
-0.138526
-0.107508
-0.114147
-0.119278
-0.123491
-0.12727
-0.130772
-0.133963
-0.103126
-0.109572
-0.114701
-0.119
-0.122877
-0.126468
-0.129749
-0.0991603
-0.105422
-0.110534
-0.114896
-0.118851
-0.122515
-0.125868
-0.0955797
-0.101666
-0.106751
-0.111159
-0.115174
-0.118896
-0.122309
-0.092356
-0.098278
-0.10333
-0.10777
-0.11183
-0.115597
-0.119059
-0.0894642
-0.0952339
-0.100248
-0.104708
-0.108804
-0.112605
-0.116105
-0.0868823
-0.092512
-0.0974863
-0.101959
-0.10608
-0.109908
-0.113438
-0.0845906
-0.0900931
-0.0950274
-0.0995053
-0.103644
-0.107492
-0.111046
-0.0825722
-0.0879603
-0.0928556
-0.0973347
-0.101486
-0.105349
-0.108921
-0.0808121
-0.0860988
-0.0909574
-0.0954346
-0.0995944
-0.103467
-0.107053
-0.0792975
-0.0844957
-0.0893209
-0.0937943
-0.0979593
-0.101839
-0.105435
-0.0780174
-0.0831401
-0.0879357
-0.0924046
-0.0965726
-0.100457
-0.10406
-0.0769627
-0.0820228
-0.0867935
-0.0912578
-0.0954273
-0.0993145
-0.102923
-0.0761255
-0.0811363
-0.085887
-0.0903474
-0.0945177
-0.0984068
-0.102019
-0.0755005
-0.080475
-0.0852113
-0.0896688
-0.0938395
-0.0977296
-0.101345
-0.0750838
-0.0800352
-0.0847629
-0.0892188
-0.0933897
-0.0972802
-0.100897
-0.0748613
-0.0798091
-0.0845352
-0.0889916
-0.0931636
-0.097055
-0.100672
-0.212223
-0.198118
-0.184871
-0.173836
-0.163375
-0.153679
-0.144923
-0.136918
-0.129604
-0.122955
-0.116903
-0.111395
-0.10639
-0.101848
-0.0977305
-0.0940048
-0.0906411
-0.0876126
-0.0848957
-0.0824694
-0.0803154
-0.0784175
-0.0767617
-0.0753359
-0.0741298
-0.0731347
-0.072343
-0.0717499
-0.0713521
-0.0711241
-0.204607
-0.191245
-0.178072
-0.167542
-0.157573
-0.148167
-0.139732
-0.132053
-0.125016
-0.118621
-0.11281
-0.10752
-0.102712
-0.0983498
-0.0943942
-0.0908132
-0.0875787
-0.0846651
-0.0820496
-0.0797123
-0.0776355
-0.0758039
-0.0742041
-0.0728245
-0.0716552
-0.0706878
-0.0699151
-0.0693325
-0.0689353
-0.0686984
-0.198273
-0.185516
-0.172175
-0.161722
-0.152161
-0.143
-0.134784
-0.127381
-0.120592
-0.114416
-0.108814
-0.103718
-0.099086
-0.0948832
-0.0910733
-0.0876238
-0.0845074
-0.0816994
-0.0791778
-0.0769232
-0.0749188
-0.0731496
-0.0716028
-0.0702671
-0.0691332
-0.0681928
-0.0674387
-0.066867
-0.0664715
-0.06623
-0.191781
-0.179432
-0.166267
-0.155925
-0.146762
-0.137916
-0.129906
-0.122749
-0.116204
-0.110234
-0.104826
-0.0999152
-0.0954511
-0.0914007
-0.0877299
-0.0844065
-0.0814036
-0.0786973
-0.0762663
-0.0740919
-0.0721577
-0.0704493
-0.0689544
-0.067662
-0.0665631
-0.0656497
-0.064915
-0.064355
-0.0639629
-0.0637198
-0.185371
-0.173454
-0.16054
-0.150232
-0.14133
-0.132805
-0.125008
-0.11807
-0.111765
-0.106007
-0.10079
-0.0960595
-0.0917622
-0.0878629
-0.0843298
-0.0811317
-0.0782417
-0.0756369
-0.0732965
-0.0712025
-0.069339
-0.0676921
-0.0662498
-0.0650017
-0.0639389
-0.0630538
-0.0623399
-0.0617934
-0.0614069
-0.0611647
-0.178785
-0.16717
-0.154615
-0.144452
-0.135794
-0.127612
-0.120069
-0.113346
-0.107274
-0.101732
-0.0967055
-0.0921532
-0.0880218
-0.0842731
-0.0808768
-0.0778032
-0.0750259
-0.0725222
-0.0702724
-0.0682589
-0.0664662
-0.0648812
-0.0634922
-0.0622891
-0.0612634
-0.0604079
-0.0597161
-0.0591845
-0.0588056
-0.0585665
-0.172077
-0.160791
-0.148661
-0.13868
-0.130214
-0.122342
-0.11507
-0.108564
-0.102716
-0.0973931
-0.0925604
-0.0881858
-0.0842199
-0.0806227
-0.0773637
-0.0744149
-0.0717506
-0.0693488
-0.0671901
-0.0652578
-0.063537
-0.0620149
-0.0606802
-0.0595233
-0.0585361
-0.0577114
-0.0570433
-0.0565283
-0.056159
-0.0559249
-0.165227
-0.154215
-0.14253
-0.132803
-0.124548
-0.116976
-0.109997
-0.103725
-0.0980973
-0.0929925
-0.0883575
-0.0841613
-0.0803606
-0.076915
-0.0737939
-0.0709701
-0.0684192
-0.0661196
-0.0640528
-0.0622023
-0.0605541
-0.0590956
-0.0578162
-0.0567065
-0.0557588
-0.0549663
-0.0543233
-0.0538267
-0.0534685
-0.0532415
-0.15823
-0.147507
-0.136297
-0.126867
-0.11883
-0.111537
-0.104849
-0.0988225
-0.0934158
-0.0885268
-0.0840919
-0.0800762
-0.0764411
-0.0731479
-0.0701655
-0.0674676
-0.0650308
-0.0628343
-0.06086
-0.0590923
-0.0575175
-0.0561237
-0.0549007
-0.0538395
-0.0529326
-0.0521737
-0.0515572
-0.0510804
-0.0507352
-0.0505169
-0.151085
-0.140647
-0.129915
-0.120817
-0.113028
-0.106015
-0.0996203
-0.0938516
-0.0886722
-0.0839986
-0.0797653
-0.0759324
-0.072464
-0.0693237
-0.0664808
-0.0639096
-0.0615876
-0.0594948
-0.0576139
-0.0559298
-0.0544294
-0.0531013
-0.0519357
-0.0509241
-0.0500592
-0.0493351
-0.0487467
-0.048291
-0.0479603
-0.0477526
-0.14378
-0.133652
-0.12341
-0.114672
-0.107154
-0.100421
-0.0943163
-0.0888109
-0.0838646
-0.0794075
-0.0753766
-0.0717287
-0.0684286
-0.0654423
-0.0627399
-0.0602965
-0.0580903
-0.0561023
-0.0543157
-0.0527162
-0.0512912
-0.0500299
-0.0489227
-0.0479618
-0.0471402
-0.0464522
-0.0458931
-0.0454601
-0.0451454
-0.0449497
-0.136311
-0.126518
-0.116769
-0.108411
-0.10119
-0.0947478
-0.088934
-0.083698
-0.0789918
-0.0747544
-0.0709274
-0.0674665
-0.0643365
-0.0615055
-0.0589448
-0.0566303
-0.054541
-0.0526587
-0.0509675
-0.0494536
-0.048105
-0.0469114
-0.0458639
-0.0449547
-0.0441776
-0.0435269
-0.0429983
-0.0425893
-0.0422919
-0.0421099
-0.128666
-0.119245
-0.11
-0.102039
-0.0951385
-0.088998
-0.0834772
-0.0785137
-0.0740531
-0.0700391
-0.0664181
-0.0631461
-0.0601884
-0.0575143
-0.0550968
-0.0529124
-0.0509413
-0.0491658
-0.0475711
-0.0461438
-0.0448727
-0.043748
-0.0427611
-0.0419049
-0.0411733
-0.0405611
-0.0400643
-0.0396804
-0.0394017
-0.0392345
-0.120842
-0.111833
-0.103098
-0.0955505
-0.0889902
-0.0831656
-0.0779437
-0.0732573
-0.0690478
-0.0652619
-0.0618498
-0.0587691
-0.0559858
-0.0534707
-0.0511978
-0.0491451
-0.0472933
-0.045626
-0.0441288
-0.0427893
-0.0415968
-0.0405419
-0.0396168
-0.0388146
-0.0381296
-0.0375569
-0.037093
-0.0367353
-0.0364765
-0.0363255
-0.112829
-0.104277
-0.0960649
-0.0889464
-0.0827452
-0.0772508
-0.0723349
-0.0679302
-0.0639767
-0.0604235
-0.0572236
-0.0543368
-0.0517305
-0.0493763
-0.0472499
-0.0453304
-0.0435995
-0.0420416
-0.0406432
-0.0393927
-0.0382798
-0.0372959
-0.0364335
-0.0356863
-0.0350489
-0.0345169
-0.0340868
-0.0337563
-0.0335184
-0.0333846
-0.104621
-0.0965729
-0.0888996
-0.0822257
-0.0764001
-0.0712501
-0.0666496
-0.0625327
-0.0588407
-0.055525
-0.0525413
-0.0498515
-0.0474246
-0.0452337
-0.0432558
-0.0414711
-0.0398626
-0.0384155
-0.0371172
-0.0359567
-0.0349246
-0.0340127
-0.033214
-0.0325228
-0.0319339
-0.0314434
-0.0310481
-0.0307457
-0.0305298
-0.0304141
-0.096209
-0.0887121
-0.0815996
-0.0753903
-0.0699559
-0.0651636
-0.060888
-0.0570662
-0.0536413
-0.0505683
-0.047805
-0.0453154
-0.0430707
-0.0410454
-0.039218
-0.03757
-0.0360855
-0.0347506
-0.0335537
-0.0324845
-0.0315341
-0.0306952
-0.0299613
-0.0293269
-0.0287874
-0.0283392
-0.0279794
-0.0277058
-0.0275129
-0.0274159
-0.0875972
-0.0806852
-0.0741589
-0.0684389
-0.063412
-0.0589899
-0.055049
-0.0515302
-0.0483789
-0.045554
-0.0430156
-0.0407299
-0.0386704
-0.0368135
-0.035139
-0.0336297
-0.0322708
-0.0310498
-0.0299555
-0.0289787
-0.0281113
-0.0273464
-0.0266781
-0.0261013
-0.0256121
-0.0252069
-0.0248831
-0.024639
-0.0244698
-0.0243915
-0.0788082
-0.072488
-0.0665683
-0.0613652
-0.056765
-0.0527261
-0.0491301
-0.0459222
-0.043051
-0.0404799
-0.0381716
-0.0360944
-0.0342241
-0.0325388
-0.03102
-0.0296518
-0.0284207
-0.0273151
-0.026325
-0.025442
-0.0246587
-0.0239688
-0.023367
-0.0228488
-0.0224104
-0.0220489
-0.0217617
-0.0215477
-0.0214026
-0.0213416
-0.069873
-0.0641286
-0.0588174
-0.0541551
-0.0500047
-0.0463657
-0.0431268
-0.040238
-0.0376524
-0.0353416
-0.0332704
-0.0314079
-0.0297317
-0.0282221
-0.0268623
-0.025638
-0.024537
-0.0235489
-0.0226648
-0.0218771
-0.0211791
-0.0205653
-0.020031
-0.0195721
-0.0191853
-0.0188681
-0.018618
-0.0184346
-0.0183137
-0.0182678
-0.0607785
-0.0556302
-0.0508949
-0.0467961
-0.0431184
-0.0399027
-0.0370365
-0.0344762
-0.0321824
-0.0301402
-0.0283145
-0.0266735
-0.0251969
-0.0238675
-0.0226702
-0.0215927
-0.0206243
-0.0197558
-0.0189794
-0.0182883
-0.017677
-0.0171404
-0.0166744
-0.0162756
-0.0159411
-0.0156686
-0.0154562
-0.0153039
-0.0152062
-0.0151761
-0.0514572
-0.0469796
-0.042794
-0.039295
-0.0361055
-0.0333401
-0.0308625
-0.0286462
-0.0266572
-0.024893
-0.02332
-0.0219054
-0.0206323
-0.019486
-0.0184539
-0.0175253
-0.0166913
-0.0159439
-0.0152765
-0.0146834
-0.0141596
-0.0137009
-0.013304
-0.0129658
-0.012684
-0.0124566
-0.0122821
-0.0121615
-0.0120849
-0.0120768
-0.0418076
-0.0381753
-0.0345233
-0.0316808
-0.0289821
-0.0266913
-0.024611
-0.0227653
-0.0211115
-0.0196298
-0.0183104
-0.0171229
-0.0160539
-0.0150916
-0.0142255
-0.0134469
-0.012748
-0.0121224
-0.0115646
-0.0110698
-0.010634
-0.0102536
-0.00992589
-0.00964846
-0.00941944
-0.00923711
-0.00910037
-0.00901178
-0.00895449
-0.00897496
-0.0317778
-0.0292751
-0.0261264
-0.0239978
-0.0217842
-0.0199824
-0.0183005
-0.016852
-0.0155652
-0.0143629
-0.0132944
-0.0123329
-0.011468
-0.0106899
-0.00999023
-0.00936177
-0.00879842
-0.00829495
-0.00784693
-0.00745058
-0.00710269
-0.00680056
-0.00654196
-0.00632507
-0.00614847
-0.0060108
-0.00591178
-0.00585279
-0.0058186
-0.00586132
-0.0214999
-0.0202842
-0.0176832
-0.0162518
-0.0145615
-0.0132398
-0.0119821
-0.0109028
-0.00994016
-0.00904095
-0.00823431
-0.00750799
-0.00685399
-0.00626549
-0.0057364
-0.00526151
-0.00483634
-0.00445711
-0.00412057
-0.003824
-0.00356509
-0.00334192
-0.00315293
-0.00299688
-0.00287279
-0.00277977
-0.00271818
-0.00268784
-0.00267844
-0.00273828
-0.0110523
-0.0109625
-0.00912833
-0.00835525
-0.00724707
-0.00641378
-0.00559865
-0.00489542
-0.0042617
-0.00367201
-0.00313704
-0.00265338
-0.00221657
-0.00182276
-0.00146841
-0.00115042
-0.000866121
-0.000613243
-0.000389863
-0.000194366
-2.5412e-05
0.000118095
0.000237022
0.000332009
0.000403559
0.000452041
0.00047673
0.00047869
0.000463804
0.000389585
-0.000492928
-0.0014151
-0.000428646
-0.000327581
0.000173705
0.000500121
0.000859816
0.00117203
0.00146164
0.00173558
0.00199015
0.00222396
0.00243765
0.00263196
0.00280772
0.00296574
0.00310674
0.00323134
0.00334007
0.00343336
0.00351154
0.00357483
0.00362338
0.00365721
0.00367632
0.00368055
0.00366897
0.00364287
0.00360498
0.00351809
0.0101902
0.00828923
0.00842193
0.00782359
0.00770324
0.00750034
0.00738837
0.00729106
0.00721965
0.00716961
0.00713609
0.00711394
0.00709969
0.00709068
0.00708481
0.00708042
0.00707619
0.00707099
0.00706391
0.00705413
0.00704092
0.00702364
0.00700166
0.00697439
0.00694129
0.00690173
0.00685457
0.00680103
0.00674155
0.00664357
0.0210138
0.018128
0.0174168
0.0160912
0.0153274
0.0145692
0.0139658
0.0134419
0.0129964
0.0126154
0.0122889
0.0120069
0.0117617
0.0115467
0.011357
0.0111884
0.0110373
0.0109011
0.0107772
0.0106636
0.0105585
0.0104603
0.0103677
0.0102795
0.0101945
0.0101117
0.0100297
0.00994958
0.00986988
0.00976256
0.0319875
0.0280949
0.0265318
0.024448
0.0230104
0.021675
0.0205668
0.0196079
0.018783
0.0180684
0.0174466
0.0169023
0.0164234
0.0159999
0.0156238
0.0152885
0.0149886
0.0147195
0.0144774
0.0142588
0.014061
0.0138815
0.0137181
0.0135689
0.0134323
0.0133068
0.0131908
0.013085
0.0129865
0.0128717
0.0430988
0.0381607
0.0357147
0.0328511
0.0307255
0.0288123
0.0272022
0.0258098
0.0246038
0.0235518
0.0226293
0.0218165
0.0210975
0.0204593
0.0198914
0.0193848
0.0189321
0.0185269
0.018164
0.0178385
0.0175465
0.0172846
0.0170498
0.0168395
0.0166515
0.0164837
0.0163343
0.0162039
0.0160878
0.0159678
0.0543031
0.0482833
0.0449348
0.041316
0.0385262
0.0360544
0.0339473
0.0321142
0.0305132
0.0291068
0.0278667
0.0267698
0.0257973
0.0249333
0.0241642
0.0234788
0.0228674
0.0223216
0.0218343
0.0213994
0.0210115
0.0206661
0.0203592
0.0200875
0.0198482
0.0196386
0.0194568
0.0193026
0.0191705
0.0190474
0.0655622
0.0584852
0.0542764
0.0499691
0.0465374
0.0434979
0.0408639
0.0385524
0.0365198
0.0347276
0.0331447
0.0317443
0.0305033
0.0294022
0.0284238
0.0275537
0.0267794
0.0260902
0.0254768
0.0249313
0.024447
0.0240181
0.0236395
0.023307
0.0230172
0.0227669
0.0225538
0.0223773
0.0222309
0.022107
0.0769135
0.0688995
0.0638641
0.0588667
0.0547279
0.0510446
0.0478172
0.0449783
0.0424826
0.0402865
0.0383517
0.0366445
0.0351355
0.0337998
0.0326157
0.0315651
0.0306321
0.0298034
0.0290677
0.0284152
0.0278376
0.027328
0.0268803
0.0264895
0.0261514
0.0258625
0.0256203
0.0254234
0.0252649
0.0251426
0.0884026
0.0795164
0.073482
0.0676354
0.0626617
0.0582678
0.0544306
0.0510782
0.0481484
0.0455828
0.0433304
0.041348
0.039599
0.0380528
0.0366835
0.0354692
0.0343916
0.0334351
0.0325865
0.0318347
0.0311704
0.0305854
0.0300731
0.0296278
0.0292449
0.0289204
0.0286516
0.0284366
0.0282686
0.0281507
0.0997818
0.0898254
0.0824807
0.0756728
0.0698894
0.0648751
0.0605379
0.0567736
0.053495
0.050628
0.0481113
0.0458947
0.0439369
0.0422036
0.0406663
0.0393012
0.0380882
0.0370106
0.036054
0.0352065
0.034458
0.0337997
0.0332245
0.0327262
0.0322997
0.0319409
0.031647
0.0314153
0.0312402
0.0311289
0.110569
0.0995068
0.0909961
0.0834766
0.0771244
0.071652
0.0669069
0.0627683
0.0591443
0.0559596
0.0531519
0.0506698
0.0484704
0.0465179
0.0447825
0.0432389
0.0418659
0.0406453
0.0395619
0.0386026
0.0377563
0.0370135
0.0363662
0.0358075
0.0353319
0.0349348
0.0346128
0.0343629
0.034181
0.0340771
0.121215
0.11013
0.101184
0.0932471
0.0863613
0.0803112
0.0749691
0.0702446
0.0660671
0.0623717
0.0590999
0.0561997
0.0536261
0.0513404
0.0493095
0.0475049
0.0459023
0.0444807
0.0432219
0.0421106
0.0411334
0.040279
0.0395376
0.0389011
0.0383626
0.0379167
0.037559
0.0372859
0.0370947
0.0369956
0.133057
0.123389
0.114275
0.105693
0.0979111
0.0909118
0.0846429
0.0790518
0.0740841
0.0696794
0.0657769
0.0623194
0.0592557
0.0565406
0.0541346
0.0520035
0.0501172
0.04845
0.0469796
0.0456866
0.0445544
0.0435689
0.042718
0.0419914
0.0413807
0.0408789
0.0404807
0.0401813
0.0399784
0.0398792
0.143325
0.134202
0.124521
0.115156
0.106561
0.0988203
0.0918998
0.0857351
0.0802585
0.0754013
0.0710968
0.0672833
0.0639048
0.0609119
0.0582614
0.0559154
0.0538409
0.0520093
0.050396
0.0489794
0.0477413
0.0466659
0.0457399
0.0449518
0.0442923
0.0437538
0.0433299
0.0430159
0.0428085
0.04271
0.158066
0.146181
0.135305
0.12522
0.116135
0.108079
0.100957
0.0946374
0.0890146
0.0840063
0.0795446
0.0755695
0.072028
0.0688734
0.0660644
0.0635653
0.0613445
0.0593748
0.0576323
0.0560966
0.0547498
0.0535765
0.0525639
0.0517006
0.0509776
0.050387
0.0499227
0.0495797
0.0493543
0.0492431
0.171864
0.158262
0.147104
0.137315
0.128527
0.120617
0.113512
0.107134
0.101402
0.0962486
0.0916144
0.0874486
0.0837055
0.0803443
0.0773287
0.0746264
0.072209
0.0700515
0.068132
0.0664312
0.0649324
0.0636211
0.0624848
0.0615127
0.0606959
0.0600267
0.0594991
0.0591083
0.0588507
0.0587242
0.175494
0.164935
0.155178
0.146222
0.138015
0.13051
0.12367
0.117452
0.111806
0.106681
0.10203
0.0978121
0.0939899
0.09053
0.0874027
0.0845808
0.0820404
0.0797599
0.07772
0.0759039
0.0742965
0.0728846
0.0716567
0.070603
0.0697149
0.0689855
0.0684089
0.0679806
0.0676969
0.0675552
0.176543
0.167526
0.159021
0.151092
0.143758
0.136981
0.13072
0.124946
0.119631
0.114748
0.110269
0.106167
0.102418
0.0989975
0.0958833
0.093055
0.0904934
0.0881813
0.086103
0.0842442
0.0825923
0.081136
0.0798655
0.078772
0.0778482
0.0770879
0.0764859
0.076038
0.0757414
0.0755943
0.174475
0.167405
0.160488
0.153838
0.147513
0.141537
0.135923
0.13067
0.125775
0.121228
0.117016
0.113125
0.109538
0.10624
0.103217
0.100453
0.0979338
0.0956478
0.0935826
0.0917272
0.0900715
0.0886065
0.0873242
0.0862174
0.0852799
0.0845067
0.0838932
0.0834361
0.0831326
0.0829807
0.172218
0.16632
0.160485
0.154808
0.149353
0.14415
0.13921
0.13454
0.130141
0.126012
0.122151
0.118551
0.115206
0.112107
0.109246
0.106615
0.104203
0.102003
0.100005
0.098203
0.0965886
0.0951552
0.0938966
0.0928074
0.0918828
0.0911186
0.0905114
0.0900585
0.0897577
0.0896082
0.168981
0.164258
0.159504
0.154812
0.150226
0.145776
0.14149
0.137385
0.133476
0.129771
0.126275
0.122989
0.119912
0.117041
0.114374
0.111906
0.109631
0.107545
0.105643
0.103919
0.102369
0.100988
0.0997716
0.0987162
0.0978182
0.0970745
0.0964826
0.0960404
0.0957464
0.0955992
0.166153