/*--------------------------------*- C++ -*----------------------------------*\
  =========                 |
  \\      /  F ield         | OpenFOAM: The Open Source CFD Toolbox
   \\    /   O peration     | Website:  https://openfoam.org
    \\  /    A nd           | Version:  7
     \\/     M anipulation  |
\*---------------------------------------------------------------------------*/
FoamFile
{
    version     2.0;
    format      ascii;
    class       volScalarField;
    location    "5";
    object      p;
}
// * * * * * * * * * * * * * * * * * * * * * * * * * * * * * * * * * * * * * //

dimensions      [0 2 -2 0 0 0 0];

internalField   nonuniform List<scalar> 
3312
(
0.601744
0.587407
0.577067
0.566878
0.554258
0.539129
0.521988
0.503375
0.483787
0.463637
0.443257
0.422892
0.402724
0.38295
0.363872
0.593375
0.579278
0.569328
0.559644
0.547572
0.532982
0.516346
0.4982
0.47904
0.459286
0.439269
0.419233
0.399364
0.379892
0.361167
0.576755
0.563133
0.553954
0.545271
0.534285
0.520762
0.505129
0.487909
0.469603
0.450633
0.431335
0.411952
0.392677
0.373806
0.355778
0.552116
0.539195
0.531152
0.523942
0.514562
0.502619
0.488471
0.472624
0.455581
0.437773
0.419543
0.401129
0.382735
0.364749
0.347747
0.519805
0.507798
0.501228
0.495937
0.488652
0.478775
0.466571
0.452523
0.437134
0.42085
0.40402
0.386879
0.369639
0.352805
0.337137
0.48028
0.469379
0.464587
0.461617
0.456879
0.44952
0.43969
0.427839
0.414473
0.40005
0.384933
0.369351
0.353525
0.338085
0.324032
0.4341
0.424479
0.421728
0.421433
0.419645
0.415213
0.408149
0.398859
0.387852
0.375602
0.362484
0.348727
0.334552
0.320726
0.308536
0.381925
0.37373
0.373236
0.375912
0.377421
0.376276
0.372323
0.36592
0.357572
0.347771
0.33691
0.325215
0.312906
0.300879
0.290768
0.324504
0.317856
0.31978
0.325656
0.330743
0.333185
0.33264
0.329401
0.32397
0.316855
0.30847
0.299043
0.288784
0.278709
0.270857
0.262671
0.257658
0.262103
0.271336
0.28021
0.286475
0.289574
0.289726
0.287421
0.283185
0.277456
0.270464
0.2624
0.254389
0.248934
0.197328
0.194009
0.201016
0.213682
0.226474
0.236725
0.243642
0.247352
0.24833
0.247116
0.244171
0.239723
0.233936
0.22804
0.225097
0.129438
0.127839
0.137385
0.153478
0.170234
0.184557
0.195397
0.202771
0.207129
0.209026
0.208949
0.20712
0.203637
0.199818
0.199426
0.06001
0.0601249
0.0721243
0.0915543
0.112231
0.130634
0.145431
0.156515
0.164296
0.169336
0.172155
0.172952
0.171653
0.169596
0.171689
-0.00991461
-0.00812791
0.00617972
0.0287717
0.0532372
0.0756418
0.0943574
0.109127
0.120304
0.128442
0.134104
0.13752
0.138369
0.13763
0.141613
-0.0792792
-0.0759045
-0.0594834
-0.0339845
-0.00595281
0.0202957
0.0428238
0.0612081
0.0757286
0.0869131
0.0953636
0.101423
0.104525
0.104294
0.107241
-0.147021
-0.142203
-0.123894
-0.0958227
-0.0645364
-0.0346826
-0.00851718
0.0133479
0.0310998
0.045202
0.0561992
0.0644845
0.0697236
0.0710036
0.0687974
-0.212137
-0.206017
-0.18609
-0.155868
-0.121722
-0.0885776
-0.0590117
-0.0338439
-0.0129881
0.00396115
0.0174973
0.0280856
0.0357958
0.0399424
0.0399189
-0.274027
-0.266259
-0.245192
-0.213298
-0.17675
-0.140695
-0.108018
-0.0797565
-0.0559268
-0.0361576
-0.0199689
-0.00682136
0.00373855
0.0114912
0.0149096
-0.331312
-0.322086
-0.300613
-0.267381
-0.228916
-0.190393
-0.154954
-0.12386
-0.0972441
-0.0747679
-0.0559618
-0.0402703
-0.0270498
-0.0161819
-0.00957051
-0.383304
-0.372955
-0.350989
-0.317477
-0.27761
-0.237095
-0.199316
-0.165727
-0.136599
-0.11165
-0.090431
-0.0724115
-0.0568939
-0.0435405
-0.034201
-0.429448
-0.418207
-0.396087
-0.362576
-0.322175
-0.280311
-0.24066
-0.204992
-0.1737
-0.146584
-0.123234
-0.103147
-0.0856245
-0.0701965
-0.0585853
-0.469288
-0.457304
-0.435415
-0.402418
-0.362058
-0.319523
-0.278625
-0.241336
-0.208271
-0.17934
-0.154164
-0.132287
-0.113024
-0.0958034
-0.0822333
-0.502504
-0.489906
-0.468575
-0.436641
-0.396968
-0.354421
-0.312871
-0.274487
-0.240076
-0.209716
-0.183037
-0.159676
-0.138967
-0.120219
-0.104845
-0.528942
-0.515861
-0.495352
-0.464965
-0.426633
-0.384755
-0.343178
-0.304248
-0.268976
-0.237539
-0.209716
-0.1852
-0.163386
-0.143456
-0.126306
-0.548632
-0.5352
-0.515717
-0.487272
-0.450878
-0.410346
-0.369386
-0.33047
-0.29481
-0.26274
-0.234146
-0.208753
-0.186133
-0.165557
-0.146729
-0.561786
-0.548136
-0.529817
-0.503609
-0.469661
-0.431109
-0.391403
-0.353072
-0.317511
-0.28523
-0.25623
-0.230296
-0.207079
-0.185985
-0.167193
-0.568787
-0.555052
-0.537971
-0.514183
-0.483078
-0.447064
-0.409218
-0.372037
-0.337061
-0.304983
-0.275939
-0.249807
-0.226326
-0.205036
-0.186129
-0.570173
-0.556491
-0.540663
-0.51936
-0.491361
-0.458338
-0.422897
-0.387402
-0.353489
-0.322014
-0.293267
-0.267227
-0.243707
-0.2223
-0.203115
-0.566609
-0.553123
-0.538518
-0.519652
-0.494874
-0.465164
-0.432585
-0.399268
-0.366867
-0.336379
-0.30824
-0.28254
-0.259167
-0.237768
-0.218363
-0.558858
-0.545716
-0.53227
-0.515697
-0.494105
-0.467882
-0.43851
-0.407792
-0.377318
-0.34818
-0.32095
-0.295833
-0.272812
-0.251604
-0.232123
-0.547737
-0.53509
-0.522728
-0.50823
-0.489656
-0.466932
-0.440977
-0.413193
-0.385015
-0.357567
-0.331539
-0.307251
-0.284789
-0.263965
-0.244582
-0.534082
-0.522076
-0.510724
-0.498046
-0.482213
-0.462844
-0.440366
-0.41574
-0.390164
-0.36472
-0.340173
-0.316953
-0.29525
-0.274989
-0.255894
-0.518704
-0.507477
-0.497071
-0.485949
-0.472508
-0.456221
-0.437124
-0.415753
-0.393001
-0.36983
-0.347025
-0.325103
-0.30435
-0.284819
-0.266204
-0.502353
-0.492025
-0.48252
-0.472709
-0.461286
-0.447706
-0.431752
-0.413591
-0.393784
-0.373097
-0.352269
-0.331863
-0.312248
-0.293601
-0.275644
-0.48569
-0.476353
-0.467724
-0.459018
-0.449248
-0.437951
-0.424788
-0.409653
-0.392791
-0.374722
-0.356067
-0.337385
-0.31909
-0.301474
-0.284331
-0.469265
-0.460983
-0.453214
-0.445455
-0.437018
-0.427574
-0.416778
-0.404366
-0.390323
-0.374912
-0.358575
-0.341801
-0.32501
-0.308568
-0.292375
-0.453509
-0.44631
-0.439394
-0.43247
-0.425103
-0.41712
-0.408245
-0.398167
-0.386701
-0.373879
-0.359934
-0.345223
-0.330112
-0.314994
-0.299867
-0.438731
-0.432611
-0.426539
-0.420372
-0.41388
-0.407029
-0.399653
-0.391481
-0.382258
-0.37185
-0.360284
-0.347743
-0.33448
-0.320848
-0.306908
-0.425135
-0.42006
-0.414811
-0.409346
-0.403588
-0.397612
-0.391372
-0.384691
-0.377328
-0.369066
-0.359772
-0.349443
-0.33817
-0.326209
-0.313564
-0.41284
-0.408747
-0.404281
-0.399471
-0.394344
-0.389056
-0.383667
-0.37811
-0.372222
-0.36578
-0.358563
-0.35041
-0.341229
-0.331134
-0.319972
-0.401908
-0.398707
-0.394964
-0.390752
-0.386176
-0.381443
-0.376695
-0.371972
-0.367212
-0.362251
-0.356851
-0.350754
-0.343696
-0.335667
-0.326159
-0.392375
-0.389948
-0.386843
-0.383162
-0.379065
-0.37479
-0.370536
-0.366436
-0.362525
-0.35873
-0.354854
-0.350618
-0.345639
-0.339807
-0.332394
-0.384268
-0.382467
-0.379893
-0.376666
-0.372982
-0.369093
-0.365239
-0.361618
-0.358353
-0.35546
-0.352822
-0.350196
-0.347155
-0.343527
-0.338584
-0.377595
-0.376245
-0.374086
-0.371239
-0.367911
-0.364362
-0.360855
-0.357631
-0.354878
-0.352688
-0.351032
-0.349734
-0.348423
-0.34675
-0.345264
-0.372318
-0.371229
-0.369369
-0.366839
-0.363838
-0.360616
-0.357447
-0.354596
-0.352288
-0.350674
-0.349792
-0.349548
-0.34969
-0.349353
-0.352194
-0.368309
-0.367302
-0.36564
-0.363389
-0.360712
-0.357845
-0.355056
-0.352611
-0.350752
-0.349661
-0.349422
-0.349998
-0.351213
-0.352308
-0.352108
-0.365339
-0.364264
-0.362727
-0.360742
-0.358419
-0.35597
-0.353644
-0.351697
-0.350361
-0.349823
-0.350191
-0.351471
-0.353602
-0.356385
-0.363071
-0.361841
-0.360394
-0.358685
-0.356765
-0.354818
-0.35307
-0.351747
-0.351058
-0.351174
-0.352203
-0.354179
-0.357119
-0.361104
-0.359714
-0.358366
-0.356962
-0.355503
-0.354146
-0.353086
-0.352519
-0.352617
-0.353521
-0.355322
-0.35806
-0.361789
-0.359026
-0.357558
-0.356361
-0.355309
-0.354364
-0.353665
-0.35338
-0.353668
-0.354665
-0.356475
-0.359164
-0.36277
-0.356472
-0.355083
-0.354127
-0.353476
-0.353086
-0.353081
-0.353607
-0.354793
-0.356738
-0.359514
-0.363159
-0.353169
-0.352065
-0.35146
-0.351257
-0.351436
-0.352119
-0.353436
-0.35549
-0.358355
-0.362072
-0.366662
-0.348975
-0.348379
-0.348233
-0.348507
-0.34924
-0.350561
-0.352592
-0.355421
-0.359103
-0.363661
-0.343907
-0.344022
-0.344422
-0.345175
-0.346417
-0.348292
-0.350921
-0.354385
-0.358731
-0.363974
-0.338156
-0.339134
-0.340126
-0.341337
-0.34302
-0.345343
-0.348433
-0.352375
-0.357212
-0.332092
-0.334
-0.335586
-0.337207
-0.339249
-0.341911
-0.345329
-0.349595
-0.354757
-0.326217
-0.329031
-0.331164
-0.333126
-0.335443
-0.338343
-0.341975
-0.346438
-0.351784
-0.321108
-0.324707
-0.327293
-0.329519
-0.332031
-0.335086
-0.338841
-0.343406
-0.348836
-0.317325
-0.321501
-0.324411
-0.326815
-0.32945
-0.332594
-0.336414
-0.341021
-0.346475
-0.31531
-0.319792
-0.322871
-0.325364
-0.328059
-0.331243
-0.335088
-0.339709
0.303171
0.244723
0.194797
0.168153
0.14146
0.128339
0.112581
0.105542
0.09572
0.0919137
0.085797
0.0839273
0.0803604
0.0799661
0.0783712
0.301628
0.244003
0.194403
0.167946
0.141329
0.128256
0.112526
0.105493
0.0956906
0.0918786
0.0857726
0.0838972
0.0803382
0.0799382
0.0783472
0.298551
0.242568
0.193619
0.167533
0.141067
0.128091
0.112417
0.105396
0.0956321
0.0918085
0.0857237
0.0838374
0.0802939
0.0798827
0.0782991
0.293956
0.240423
0.192447
0.166917
0.140677
0.127845
0.112252
0.105251
0.0955448
0.0917037
0.0856505
0.0837482
0.0802274
0.0797999
0.0782271
0.287868
0.237579
0.190894
0.166102
0.140161
0.127518
0.11203
0.105045
0.0954327
0.0915649
0.0855531
0.0836303
0.080139
0.0796903
0.0781312
0.280325
0.234048
0.188967
0.165092
0.139523
0.127111
0.111753
0.104857
0.0952965
0.0913922
0.0854315
0.0834843
0.0800287
0.0795546
0.0780113
0.271375
0.229846
0.186676
0.163895
0.138767
0.126627
0.111429
0.104561
0.0951267
0.0911854
0.0852823
0.083312
0.0798968
0.0793935
0.0778676
0.261077
0.224992
0.18403
0.162516
0.137899
0.126069
0.111061
0.104243
0.094925
0.0909446
0.0851086
0.0831161
0.0797438
0.0792081
0.0777001
0.249501
0.219511
0.181039
0.160964
0.136924
0.125437
0.110651
0.10388
0.0946935
0.0906703
0.0849506
0.0828968
0.0795696
0.0789992
0.077509
0.236728
0.213436
0.177713
0.159244
0.13585
0.124736
0.110199
0.103477
0.0944247
0.0903371
0.0847343
0.0826504
0.0793731
0.0787681
0.0772943
0.222845
0.206804
0.174063
0.157364
0.134683
0.123968
0.109709
0.103037
0.0941219
0.0900923
0.0845128
0.0823765
0.0791528
0.0785172
0.0770564
0.207933
0.199648
0.170096
0.155316
0.133424
0.123129
0.109179
0.10256
0.0937947
0.089707
0.0842596
0.0820731
0.0789254
0.0782479
0.0767952
0.192076
0.192067
0.165847
0.153127
0.132095
0.122237
0.10862
0.102056
0.093453
0.089332
0.0839749
0.0817391
0.0786736
0.0779614
0.0765106
0.175233
0.184284
0.161386
0.150966
0.130779
0.12139
0.108082
0.101578
0.0931162
0.0889631
0.083676
0.0814403
0.0784072
0.0776571
0.0762021
0.157321
0.175218
0.156315
0.148198
0.129232
0.120275
0.107433
0.10096
0.09272
0.0885074
0.0833467
0.0810421
0.0781223
0.0773185
0.0758721
0.0931882
0.131529
0.133589
0.130525
0.120628
0.112458
0.103497
0.0968756
0.090518
0.0859995
0.0818482
0.0792428
0.0769908
0.0759321
0.0746331
0.0525538
0.0819351
0.097764
0.101891
0.100721
0.0973457
0.0927139
0.0884684
0.0842247
0.0808108
0.0777519
0.0756296
0.0738794
0.0731068
0.0719764
0.026289
0.0537186
0.0712168
0.0790103
0.0827682
0.082883
0.0816288
0.0795012
0.0772308
0.0749199
0.0729901
0.0713314
0.0700855
0.0692082
0.0687809
0.00987754
0.0348547
0.0520083
0.06148
0.0675467
0.0700324
0.0710733
0.0707066
0.0699888
0.0687723
0.0677956
0.0666775
0.0659188
0.0652875
0.0651827
0.000785167
0.0223753
0.038057
0.0480233
0.0550464
0.0589776
0.0614651
0.0624537
0.0628868
0.0626339
0.0624079
0.0618396
0.0614913
0.0611187
0.0612398
-0.00396983
0.014295
0.0281279
0.037769
0.0449839
0.0496701
0.0529979
0.0549241
0.0561761
0.0566956
0.0570429
0.0569741
0.0569648
0.0568448
0.0570823
-0.00624236
0.00910067
0.0211055
0.0300176
0.0369903
0.0419421
0.0456888
0.0481935
0.0499978
0.0510825
0.051859
0.052199
0.0524628
0.05256
0.0528498
-0.00707514
0.00578748
0.0161243
0.0241596
0.0306702
0.0355834
0.0394647
0.0422706
0.0444106
0.0458732
0.0469573
0.0476049
0.0480789
0.0483446
0.0486556
-0.00707945
0.00370878
0.0125751
0.0197141
0.0256662
0.0303649
0.0341975
0.0371126
0.0394208
0.0411076
0.0423946
0.0432553
0.0438809
0.0442661
0.0445846
-0.00662727
0.00244008
0.010034
0.0163207
0.0216891
0.0260764
0.0297466
0.032644
0.0350004
0.0367944
0.0381962
0.0391898
0.0399149
0.0403772
0.0406963
-0.00594584
0.00169836
0.00820354
0.0137111
0.0185106
0.022541
0.025983
0.0287798
0.0311015
0.0329201
0.0343668
0.035429
0.0362092
0.0367151
0.0370298
-0.00517214
0.00129493
0.00687401
0.0116861
0.0159522
0.0196135
0.0227941
0.0254387
0.0276703
0.0294566
0.0308969
0.0319786
0.0327783
0.0333018
0.0336079
-0.00438679
0.00110462
0.00589821
0.010098
0.0138757
0.0171757
0.020084
0.0225471
0.0246539
0.0263694
0.0277674
0.0288338
0.0296257
0.0301472
0.030441
-0.00363548
0.00104484
0.00517273
0.00883778
0.012175
0.0151332
0.0177719
0.0200404
0.0220027
0.0236226
0.0249544
0.0259818
0.026747
0.0272529
0.027531
-0.00294235
0.00106141
0.00462482
0.00782486
0.0107689
0.0134105
0.0157908
0.0178627
0.0196716
0.0211815
0.0224319
0.0234049
0.0241316
0.024613
0.0248735
-0.00231831
0.00111916
0.00420325
0.0069999
0.00959525
0.0119479
0.0140859
0.0159659
0.0176202
0.0190135
0.0201742
0.0210837
0.0217645
0.0222165
0.0224581
-0.0017661
0.00119564
0.00387193
0.00631897
0.00860642
0.0106978
0.0126121
0.0143097
0.0158132
0.0170887
0.0181566
0.018998
0.0196291
0.0200489
0.0202714
-0.00128357
0.00127713
0.00360555
0.00574953
0.00776585
0.00962274
0.0113326
0.0128595
0.0142193
0.0153798
0.0163554
0.0171276
0.0177077
0.0180942
0.0182978
-0.000865617
0.00135577
0.00338643
0.00526736
0.00704526
0.00869264
0.0102172
0.0115865
0.0128116
0.0138623
0.0147486
0.0154527
0.0159824
0.0163359
0.0165211
-0.000505449
0.00142732
0.003202
0.00485424
0.00642265
0.00788349
0.00924103
0.0104664
0.0115667
0.0125143
0.0133159
0.0139546
0.0144358
0.0147573
0.0149251
-0.000197902
0.00148876
0.00304299
0.00449628
0.00588074
0.00717596
0.00838372
0.00947828
0.0104642
0.0113163
0.0120387
0.0126158
0.013051
0.0133421
0.0134935
6.2073e-05
0.00153836
0.00290262
0.00418283
0.0054059
0.00655438
0.00762829
0.00860485
0.0094868
0.010251
0.0109004
0.0114201
0.0118124
0.012075
0.0122113
0.000280331
0.001576
0.00277626
0.00390578
0.00498732
0.006006
0.00696067
0.00783122
0.00861908
0.00930334
0.00988568
0.0103526
0.0107052
0.0109415
0.0110639
0.000462517
0.00160258
0.00266082
0.003659
0.0046164
0.00552039
0.00636907
0.00714472
0.0078479
0.00845973
0.00898115
0.00939981
0.00971617
0.00992832
0.0100379
0.000613708
0.00161933
0.00255429
0.00343778
0.00428624
0.00508898
0.0058436
0.00653456
0.00716179
0.00770835
0.00817468
0.00854951
0.0088329
0.00902305
0.00912115
0.000738384
0.0016276
0.0024553
0.00323849
0.0039913
0.00470466
0.00537592
0.00599144
0.00655078
0.00703876
0.00745548
0.00779075
0.00804431
0.00821454
0.00830223
0.000840476
0.00162868
0.00236287
0.00305825
0.00372701
0.0043615
0.00495894
0.00550741
0.0060062
0.00644176
0.00681398
0.00711366
0.00734038
0.00749266
0.00757099
0.000923416
0.00162381
0.00227635
0.00289475
0.0034896
0.0040545
0.00458663
0.00507556
0.00552046
0.00590924
0.00624167
0.00650945
0.0067121
0.00684826
0.0069182
0.000990179
0.00161411
0.00219525
0.0027461
0.00327594
0.00377943
0.0042538
0.00468995
0.00508696
0.00543406
0.00573099
0.00597029
0.00615141
0.00627313
0.00633559
0.00104334
0.00160059
0.00211921
0.00261074
0.00308337
0.00353267
0.00395599
0.00434538
0.00469989
0.00500996
0.00527528
0.00548917
0.00565109
0.00575992
0.00581571
0.00108511
0.00158413
0.00204796
0.00248736
0.00290964
0.00331113
0.00368935
0.00403735
0.00435419
0.00463138
0.00486861
0.00505991
0.00520473
0.00530209
0.00535194
0.00111739
0.0015655
0.00198129
0.00237485
0.0027528
0.00311212
0.00345052
0.00376192
0.0040454
0.00429345
0.00450577
0.00467699
0.00480664
0.00489379
0.00493837
0.00114178
0.00154537
0.001919
0.00227227
0.0026112
0.00293333
0.00323659
0.00351565
0.00376963
0.00399188
0.00418211
0.00433555
0.00445173
0.00452982
0.00456973
0.00115967
0.0015243
0.00186096
0.0021788
0.0024834
0.00277275
0.00304501
0.00329552
0.00352343
0.00372287
0.00389358
0.00403126
0.00413552
0.00420558
0.00424136
0.00117225
0.00150281
0.00180704
0.00209375
0.00236813
0.00262862
0.00287357
0.00309889
0.0033038
0.00348311
0.00363655
0.00376031
0.00385403
0.003917
0.00394913
0.00118062
0.00148137
0.00175714
0.0020165
0.00226432
0.0024994
0.0027203
0.00292345
0.00310808
0.00326964
0.00340786
0.00351934
0.00360376
0.00366046
0.00368937
0.00118565
0.00146034
0.00171116
0.0019465
0.00217101
0.00238375
0.00258352
0.00276715
0.00293395
0.00307988
0.00320471
0.00330538
0.00338161
0.00343278
0.00345886
0.00118807
0.00144001
0.001669
0.0018833
0.00208735
0.0022805
0.00246172
0.00262823
0.00277936
0.00291158
0.00302464
0.00311581
0.00318485
0.00323116
0.00325476
0.0011885
0.00142064
0.00163055
0.00182644
0.0020126
0.0021886
0.00235359
0.00250511
0.00264253
0.00276274
0.00286549
0.00294834
0.00301108
0.00305314
0.00307455
0.00118747
0.00140241
0.00159571
0.00177555
0.00194612
0.00210715
0.00225798
0.00239643
0.00252189
0.00263162
0.00272537
0.00280096
0.0028582
0.00289655
0.00291606
0.0011854
0.00138548
0.00156439
0.0017303
0.00188733
0.00203537
0.00217391
0.002301
0.00241606
0.0025167
0.00260264
0.00267192
0.00272439
0.00275951
0.00277737
0.00118267
0.00136996
0.00153647
0.00169038
0.00183573
0.00197255
0.00210049
0.00221778
0.00232388
0.00241666
0.00249586
0.0025597
0.00260805
0.00264038
0.00265682
0.00117957
0.00135598
0.00151189
0.00165552
0.00179088
0.00191811
0.00203697
0.00214588
0.0022443
0.00233037
0.00240381
0.00246299
0.00250781
0.00253775
0.00255298
0.00117636
0.00134359
0.00149056
0.00162551
0.00175242
0.00187153
0.00198272
0.00208453
0.00217647
0.00225686
0.00232541
0.00238066
0.0024225
0.00245042
0.00246463
0.00117324
0.00133288
0.00147242
0.00160013
0.00172002
0.00183237
0.00193718
0.0020331
0.00211963
0.0021953
0.00225979
0.00231176
0.00235112
0.00237737
0.00239071
0.00117041
0.0013239
0.00145738
0.00157922
0.00169341
0.00180028
0.0018999
0.00199103
0.00207317
0.002145
0.0022062
0.0022555
0.00229285
0.00231773
0.00233038
0.00116797
0.00131662
0.00144536
0.00156264
0.00167238
0.00177497
0.00187052
0.0019579
0.0020366
0.00210542
0.00216403
0.00221124
0.00224702
0.00227082
0.00228293
0.00116595
0.00131101
0.00143633
0.00155031
0.00165679
0.00175621
0.00184876
0.00193335
0.00200951
0.00207611
0.00213281
0.00217848
0.00221309
0.00223611
0.00224781
0.00116431
0.00130701
0.00143039
0.00154225
0.00164654
0.00174383
0.00183438
0.00191714
0.00199162
0.00205674
0.00211218
0.00215684
0.00219068
0.00221318
0.00222462
0.00116277
0.00130573
0.00142788
0.0015384
0.00164148
0.00173769
0.00182723
0.00190908
0.00198272
0.00204712
0.00210193
0.00214608
0.00217954
0.00220178
0.00221309
0.0537074
0.02089
0.00113085
-0.010365
-0.015525
-0.0172001
-0.0170195
-0.0158927
-0.0143302
-0.0126225
-0.010931
-0.00934094
-0.00789203
-0.00659822
-0.00545902
-0.00446603
-0.00360701
-0.00286803
-0.00223524
-0.00169525
-0.00123597
-0.00084648
-0.000517021
-0.000239101
-5.31082e-06
0.000190781
0.000354751
0.000491415
0.000604908
0.000698788
0.000776097
0.000839436
0.00089103
0.000932769
0.000966272
0.00099293
0.00101393
0.00103028
0.00104284
0.00105232
0.00105934
0.0010644
0.00106794
0.00107031
0.00107181
0.00107267
0.00107316
0.00107322
0.00107363
0.00107157
0.0350864
0.00536392
-0.00868845
-0.0163387
-0.0190228
-0.0193082
-0.0183013
-0.0166756
-0.0148125
-0.0129266
-0.0111317
-0.00948342
-0.00800314
-0.00669361
-0.0055474
-0.00455187
-0.00369229
-0.00295331
-0.00232049
-0.00178034
-0.00132037
-0.000929261
-0.000597308
-0.000316225
-7.87939e-05
0.000121261
0.000289388
0.000430299
0.000548047
0.000646124
0.000727522
0.000794803
0.000850171
0.000895498
0.000932381
0.00096219
0.000986104
0.00100513
0.00102013
0.00103182
0.00104083
0.00104766
0.00105276
0.00105648
0.00105913
0.00106092
0.00106215
0.00106286
0.00106358
0.00106244
0.0131965
-0.0141466
-0.0200171
-0.0222677
-0.0215511
-0.0200555
-0.0181292
-0.0160646
-0.0140297
-0.0121178
-0.0103728
-0.00880901
-0.007425
-0.00621106
-0.00515338
-0.00423644
-0.0034447
-0.00276305
-0.00217791
-0.001677
-0.00124889
-0.000883237
-0.000571294
-0.000305699
-8.00395e-05
0.000111278
0.000273123
0.000409724
0.00052473
0.000621297
0.000702145
0.00076961
0.000825714
0.00087218
0.000910482
0.000941887
0.000967494
0.000988249
0.00100496
0.00101832
0.0010289
0.00103721
0.00104365
0.00104859
0.00105229
0.00105498
0.00105694
0.00105831
0.00105926
0.00105941
-0.00561363
-0.0294983
-0.0295285
-0.0282888
-0.0251677
-0.0222088
-0.0193838
-0.0167824
-0.0144303
-0.0123353
-0.0104881
-0.00887039
-0.0074608
-0.00623754
-0.00517937
-0.00426634
-0.00348028
-0.00280448
-0.00222455
-0.00172775
-0.00130262
-0.000938877
-0.000627884
-0.000362372
-0.000136046
5.65591e-05
0.000220184
0.000358939
0.000476368
0.000575539
0.000659095
0.00072931
0.000788152
0.000837305
0.000878211
0.000912113
0.00094009
0.000963073
0.000981858
0.000997126
0.00100945
0.00101934
0.00102719
0.00103336
0.00103812
0.0010417
0.00104436
0.0010463
0.00104753
0.00104833
-0.0227229
-0.0410448
-0.0367794
-0.0337931
-0.0293558
-0.0254376
-0.0218684
-0.0187128
-0.0159467
-0.0135402
-0.0114561
-0.00965661
-0.00810619
-0.00677277
-0.0056276
-0.00464521
-0.00380336
-0.00308219
-0.00246499
-0.00193721
-0.00148611
-0.00110051
-0.000771005
-0.000489691
-0.000249761
-4.53597e-05
0.000128561
0.000276351
0.000401746
0.000507969
0.000597785
0.000673572
0.000737383
0.000790969
0.000835836
0.000873278
0.00090442
0.000930223
0.000951516
0.000969005
0.00098329
0.000994887
0.00100422
0.00101166
0.0010175
0.00102196
0.00102531
0.00102774
0.00102928
0.00103021
-0.0401883
-0.0519344
-0.0432123
-0.0387493
-0.0332712
-0.0286277
-0.0244517
-0.02081
-0.0176549
-0.0149378
-0.0126054
-0.0106069
-0.00889657
-0.00743414
-0.00618433
-0.00511661
-0.00420487
-0.00342601
-0.00276095
-0.0021932
-0.0017085
-0.00129456
-0.00094107
-0.000639347
-0.000381961
-0.000162557
2.43144e-05
0.000183328
0.000318483
0.00043322
0.000530484
0.0006128
0.000682344
0.000740971
0.000790275
0.000831626
0.00086621
0.00089504
0.000918991
0.000938806
0.000955116
0.000968465
0.000979304
0.000988015
0.000994915
0.00100025
0.00100428
0.00100718
0.00100903
0.00100994
-0.0580178
-0.0633701
-0.0498691
-0.0435518
-0.0367868
-0.0313691
-0.0266167
-0.0225463
-0.0190621
-0.0160892
-0.0135557
-0.0113979
-0.00956017
-0.00799506
-0.00666177
-0.00552561
-0.00455738
-0.00373142
-0.00302682
-0.00242568
-0.00191259
-0.00147438
-0.00110005
-0.000780342
-0.000507372
-0.000274407
-7.56933e-05
9.36927e-05
0.000237958
0.000360712
0.000465044
0.000553601
0.000628659
0.000692163
0.000745779
0.000790944
0.000828897
0.0008607
0.000887264
0.00090937
0.000927679
0.000942759
0.000955086
0.000965058
0.000973012
0.000979206
0.000983905
0.000987292
0.000989459
0.000990403
-0.0754877
-0.0748021
-0.0567499
-0.0484149
-0.0401439
-0.0338438
-0.0284811
-0.023993
-0.0202088
-0.0170152
-0.0143156
-0.0120302
-0.010093
-0.00844898
-0.00705206
-0.00586388
-0.00485265
-0.00399057
-0.00325538
-0.00262809
-0.00209246
-0.00163471
-0.00124334
-0.000908712
-0.000622602
-0.000378028
-0.00016903
9.48988e-06
0.00016188
0.000291871
0.000402657
0.000496971
0.000577165
0.00064525
0.000702951
0.000751755
0.000792944
0.000827617
0.00085672
0.000881062
0.000901331
0.000918116
0.000931913
0.000943137
0.000952141
0.000959194
0.000964567
0.000968447
0.000970938
0.000972003
-0.0922403
-0.0855429
-0.0634608
-0.053267
-0.0434911
-0.036286
-0.030289
-0.0253743
-0.0212896
-0.0178795
-0.0150203
-0.0126146
-0.0105848
-0.00886813
-0.00741313
-0.00617771
-0.00512762
-0.00423287
-0.00346997
-0.00281895
-0.0022628
-0.00178719
-0.00138017
-0.00103176
-0.00073345
-0.000478039
-0.000259387
-7.22495e-05
8.78469e-05
0.000224737
0.000341702
0.000441553
0.000526709
0.000599236
0.000660913
0.00071327
0.000757628
0.000795121
0.000826725
0.000853277
0.000875485
0.000893964
0.000909224
0.000921697
0.00093175
0.000939664
0.000945716
0.000950096
0.000952921
0.000954153
-0.108281
-0.0954124
-0.0697974
-0.057975
-0.0468165
-0.0387633
-0.032143
-0.0268009
-0.0224098
-0.0187767
-0.0157516
-0.0132202
-0.0110933
-0.00930021
-0.00778417
-0.00649915
-0.00540837
-0.00447949
-0.00368778
-0.00301216
-0.00243483
-0.00194086
-0.00151782
-0.00115535
-0.000844643
-0.000578253
-0.000349846
-0.00015402
1.38291e-05
0.000157647
0.000280809
0.000386206
0.000476325
0.000553293
0.000618941
0.000674845
0.000722367
0.000762674
0.000796773
0.000825529
0.000849673
0.000869841
0.000886562
0.000900283
0.000911385
0.000920162
0.000926894
0.000931777
0.000934942
0.000936352
-0.123631
-0.104506
-0.0758117
-0.0624903
-0.0500682
-0.0412389
-0.0340249
-0.0282674
-0.0235713
-0.0197123
-0.0165167
-0.0138545
-0.0116258
-0.00975213
-0.0081714
-0.00683366
-0.00569969
-0.00473453
-0.00391228
-0.00321068
-0.00261105
-0.00209781
-0.00165804
-0.00128094
-0.000957377
-0.000679651
-0.000441211
-0.000236482
-6.07136e-05
9.01595e-05
0.000219614
0.000330628
0.000425762
0.000507209
0.000576853
0.000636322
0.000687017
0.000730143
0.00076674
0.000797699
0.000823778
0.000845632
0.00086381
0.000878776
0.000890924
0.000900562
0.000907974
0.000913361
0.000916867
0.000918454
-0.138466
-0.112894
-0.0816454
-0.0668321
-0.0532305
-0.0436726
-0.0358914
-0.0297347
-0.0247409
-0.020659
-0.0172936
-0.0145001
-0.0121684
-0.0102129
-0.00856614
-0.00717446
-0.00599625
-0.00499384
-0.00414025
-0.00341199
-0.0027895
-0.00225653
-0.00179964
-0.00140759
-0.00107093
-0.000781662
-0.00053303
-0.000319272
-0.000135488
2.2514e-05
0.000158317
0.000274988
0.000375166
0.000461109
0.000534763
0.000597801
0.000651672
0.000697616
0.000736706
0.000769863
0.000797871
0.000821405
0.000841035
0.000857241
0.000870431
0.000880924
0.000889014
0.000894905
0.000898753
0.000900516
-0.152914
-0.120539
-0.0874166
-0.0710226
-0.0563235
-0.0460524
-0.0377233
-0.0311807
-0.0258972
-0.0215977
-0.0180657
-0.015143
-0.0127096
-0.010673
-0.00896071
-0.00751528
-0.00629302
-0.00525336
-0.0043684
-0.00361346
-0.00296806
-0.00241532
-0.00194126
-0.00153423
-0.00118442
-0.000883588
-0.000624739
-0.000401933
-0.00021012
-4.49826e-05
9.71714e-05
0.000219499
0.000324717
0.000415152
0.000492807
0.000559407
0.000616443
0.000665196
0.00070677
0.000742115
0.000772042
0.000797248
0.000818322
0.000835761
0.000849987
0.000861332
0.000870097
0.000876489
0.000880681
0.000882624
-0.166248
-0.128108
-0.0932003
-0.0750637
-0.0593816
-0.0483816
-0.0395243
-0.0326046
-0.0270375
-0.0225249
-0.0188294
-0.0157798
-0.0132464
-0.0111298
-0.00935279
-0.00785417
-0.00658834
-0.00551166
-0.0045956
-0.00381414
-0.00314596
-0.00257354
-0.00208237
-0.0016604
-0.0012975
-0.000985126
-0.000716088
-0.000484261
-0.000284442
-0.000112189
3.6296e-05
0.000164262
0.000274502
0.000369412
0.000451052
0.000521198
0.000581385
0.000632932
0.000676977
0.0007145
0.000746335
0.000773203
0.000795713
0.000814377
0.000829634
0.000841826
0.000851262
0.000858155
0.000862688
0.000864818
-0.178389
-0.135737
-0.0988832
-0.0790574
-0.0624524
-0.0506522
-0.0413058
-0.0340143
-0.0281679
-0.0234451
-0.0195882
-0.0164129
-0.0137804
-0.0115845
-0.00974333
-0.00819189
-0.00688262
-0.00576909
-0.00482207
-0.00401419
-0.0033233
-0.00273124
-0.00222302
-0.00178614
-0.00141016
-0.00108628
-0.000807073
-0.000566245
-0.000358441
-0.000179093
-2.4296e-05
0.000109289
0.000224534
0.000323901
0.000409509
0.000483185
0.000546508
0.000600835
0.000647338
0.000687025
0.000720758
0.000749279
0.000773216
0.000793098
0.000809378
0.000822411
0.000832515
0.000839906
0.000844781
0.000847101
-0.189626
-0.143311
-0.104372
-0.0830551
-0.0654887
-0.0529222
-0.0430833
-0.0354195
-0.0292955
-0.0243637
-0.020346
-0.0170456
-0.0143143
-0.0120393
-0.0101339
-0.00853016
-0.00717614
-0.00602626
-0.00504834
-0.00421402
-0.00350039
-0.00288868
-0.00236337
-0.00191158
-0.00152252
-0.00118712
-0.000897752
-0.000647929
-0.000432148
-0.000245716
-8.46199e-05
5.4571e-05
0.000174805
0.000278614
0.000368175
0.000445367
0.000511812
0.000568905
0.000617852
0.000659692
0.000695311
0.000725474
0.000750829
0.000771921
0.000789218
0.000803087
0.000813853
0.00082174
0.000826954
0.000829467
-0.200288
-0.15073
-0.109669
-0.0870577
-0.0684858
-0.055199
-0.0448615
-0.0368245
-0.0304237
-0.0252834
-0.0211051
-0.0176796
-0.0148493
-0.012495
-0.0105253
-0.00886881
-0.00747036
-0.00628379
-0.00527478
-0.00441389
-0.00367743
-0.003046
-0.00250356
-0.00203681
-0.00163463
-0.0012877
-0.000988157
-0.000729335
-0.000505578
-0.000312067
-0.00014468
1.05919e-07
0.000125318
0.000233555
0.000327056
0.000407748
0.000477301
0.000537147
0.000588525
0.000632505
0.000669998
0.000701793
0.000728556
0.000750849
0.000769155
0.000783853
0.000795277
0.000803656
0.000809206
0.000811913
-0.210641
-0.157983
-0.114832
-0.0910607
-0.0714598
-0.0574748
-0.0466415
-0.0382304
-0.0315541
-0.0262055
-0.0218663
-0.0183155
-0.015386
-0.012952
-0.0109176
-0.00920807
-0.00776536
-0.0065418
-0.0055015
-0.00461388
-0.00385448
-0.00320323
-0.00264358
-0.00216183
-0.0017465
-0.00138802
-0.00107828
-0.000810455
-0.000578722
-0.000378135
-0.000204465
-5.40942e-05
7.6083e-05
0.000188736
0.000286162
0.000370341
0.000442986
0.00050557
0.000559366
0.000605474
0.00064483
0.000678244
0.000706405
0.000729891
0.000749198
0.000764718
0.000776794
0.000785659
0.000791541
0.000794441
-0.22085
-0.165068
-0.119913
-0.095071
-0.0744242
-0.0597484
-0.0484251
-0.0396389
-0.032688
-0.0271308
-0.0226304
-0.0189538
-0.0159246
-0.0134106
-0.0113112
-0.00954816
-0.00806102
-0.00680029
-0.00572846
-0.00481397
-0.00403151
-0.00336036
-0.00278345
-0.00228663
-0.00185812
-0.00148805
-0.00116812
-0.000891273
-0.000651562
-0.000443904
-0.000263959
-0.000108014
2.7116e-05
0.000144171
0.000245508
0.000333158
0.000408882
0.000474189
0.000530389
0.00057861
0.000619816
0.000654839
0.000684387
0.000709056
0.000729355
0.000745689
0.00075841
0.000767757
0.000773966
0.000777058
-0.231058
-0.17199
-0.124961
-0.0991065
-0.0773859
-0.0620269
-0.0502163
-0.0410525
-0.0338274
-0.0280604
-0.023398
-0.0195951
-0.0164655