/*--------------------------------*- C++ -*----------------------------------*\
  =========                 |
  \\      /  F ield         | OpenFOAM: The Open Source CFD Toolbox
   \\    /   O peration     | Website:  https://openfoam.org
    \\  /    A nd           | Version:  7
     \\/     M anipulation  |
\*---------------------------------------------------------------------------*/
FoamFile
{
    version     2.0;
    format      ascii;
    class       volVectorField;
    location    "69.999";
    object      U;
}
// * * * * * * * * * * * * * * * * * * * * * * * * * * * * * * * * * * * * * //

dimensions      [0 1 -1 0 0 0 0];

internalField   nonuniform List<vector> 
3700
(
(0.0317786 -0.0167029 4.20269e-20)
(0.127351 -0.0260767 -5.27631e-21)
(0.248127 -0.0254276 -2.17743e-20)
(0.345562 -0.0225005 1.11564e-20)
(0.42926 -0.019627 3.40931e-20)
(0.500078 -0.0172135 -2.9786e-20)
(0.560961 -0.0151778 -1.08362e-21)
(0.613486 -0.0134476 -3.22963e-21)
(0.65915 -0.0119647 1.35878e-20)
(0.699031 -0.0106849 1.90219e-21)
(0.734053 -0.00957316 -8.74666e-21)
(0.764939 -0.00860138 -6.99579e-21)
(0.792255 -0.00774174 -2.51008e-20)
(0.816435 -0.00696875 2.64789e-20)
(0.837927 -0.00628649 -1.04545e-20)
(0.0342635 -0.0499377 -8.79227e-20)
(0.131095 -0.0780195 5.0696e-20)
(0.251714 -0.076106 1.74735e-20)
(0.348688 -0.0673585 -3.72568e-21)
(0.431939 -0.0587639 -3.16184e-20)
(0.502389 -0.051544 -5.80295e-20)
(0.562967 -0.0454547 4.71414e-20)
(0.615237 -0.0402793 -7.68688e-21)
(0.660688 -0.0358439 -3.56783e-20)
(0.700389 -0.0320157 -3.50469e-20)
(0.735257 -0.0286901 4.17638e-20)
(0.766015 -0.0257829 -4.28634e-20)
(0.793231 -0.0232107 5.81776e-20)
(0.817317 -0.0208982 -5.28148e-20)
(0.838675 -0.0188592 -1.02874e-20)
(0.0392032 -0.0827425 -1.35906e-19)
(0.138549 -0.129426 -2.34413e-19)
(0.25886 -0.12633 -1.26613e-20)
(0.354918 -0.111846 5.81922e-20)
(0.43728 -0.097591 2.75095e-20)
(0.506995 -0.0856122 9.28148e-20)
(0.566964 -0.0755083 -6.14928e-20)
(0.618728 -0.0669201 -6.99216e-20)
(0.663754 -0.0595591 7.60676e-20)
(0.703096 -0.0532052 2.86323e-20)
(0.737658 -0.047685 -8.61866e-20)
(0.768161 -0.0428585 2.88191e-20)
(0.795175 -0.0385868 -2.47467e-20)
(0.819075 -0.0347477 -2.61962e-20)
(0.84017 -0.0313697 -3.99275e-20)
(0.0465395 -0.114835 1.188e-19)
(0.149644 -0.179944 3.7967e-19)
(0.26951 -0.175801 -1.78456e-19)
(0.364209 -0.155718 1.42173e-20)
(0.445246 -0.135905 -6.17142e-20)
(0.513867 -0.119245 1.68933e-19)
(0.572928 -0.105192 -4.87665e-21)
(0.623937 -0.0932442 -7.80656e-22)
(0.668329 -0.0830023 -5.19003e-20)
(0.707136 -0.0741606 5.57348e-20)
(0.741242 -0.0664778 1.44964e-19)
(0.771364 -0.0597584 4.90521e-20)
(0.798076 -0.0538089 6.99676e-21)
(0.8217 -0.0484643 -1.1368e-20)
(0.842407 -0.0437761 4.59837e-20)
(0.056185 -0.14594 2.46754e-19)
(0.164281 -0.229227 -1.79583e-19)
(0.283584 -0.224225 -4.81079e-21)
(0.376496 -0.198735 -1.88311e-20)
(0.455785 -0.173505 1.28769e-19)
(0.522958 -0.152274 -9.45661e-20)
(0.580821 -0.13436 3.26571e-20)
(0.630831 -0.119128 -4.35862e-20)
(0.674386 -0.106068 2.55142e-20)
(0.712485 -0.0947905 -1.41256e-19)
(0.745988 -0.0849895 -1.02788e-19)
(0.775606 -0.0764143 -6.34782e-20)
(0.801917 -0.0688168 9.31097e-20)
(0.825178 -0.0619955 -2.42462e-20)
(0.84538 -0.0560356 2.21683e-20)
(0.0680247 -0.17579 -2.79169e-21)
(0.182327 -0.276938 -2.88367e-19)
(0.300975 -0.271315 2.16385e-19)
(0.391694 -0.240665 -1.69799e-19)
(0.468826 -0.210196 -1.37991e-19)
(0.534212 -0.184533 7.24418e-20)
(0.590592 -0.162874 -4.87662e-20)
(0.639369 -0.144452 1.82615e-19)
(0.681889 -0.128652 -5.18113e-20)
(0.719113 -0.115006 1.07987e-19)
(0.751869 -0.103143 -5.0833e-20)
(0.780861 -0.0927591 1.12401e-19)
(0.806675 -0.0835519 2.30678e-20)
(0.82949 -0.0752896 4.91217e-20)
(0.84908 -0.0681045 -5.63732e-20)
(0.0819164 -0.20413 2.19236e-20)
(0.203617 -0.322752 2.88819e-19)
(0.32155 -0.316794 -2.74895e-20)
(0.4097 -0.281281 -5.18571e-21)
(0.484284 -0.245792 -3.45684e-20)
(0.547555 -0.215864 -3.24262e-19)
(0.602181 -0.190597 2.38697e-20)
(0.649497 -0.1691 -1.44569e-19)
(0.690792 -0.150655 -1.92483e-20)
(0.72698 -0.13472 -9.02392e-21)
(0.758852 -0.120864 3.91353e-20)
(0.787102 -0.108728 -8.58035e-20)
(0.812322 -0.0979577 -1.93144e-19)
(0.834613 -0.088296 2.05472e-19)
(0.853495 -0.0799392 7.04987e-20)
(0.0976917 -0.230721 -1.55283e-19)
(0.227956 -0.366359 -2.67353e-19)
(0.345152 -0.360397 7.07715e-20)
(0.430388 -0.320368 1.1636e-19)
(0.502056 -0.280112 1.15612e-19)
(0.5629 -0.246114 -8.49297e-21)
(0.615514 -0.2174 -9.43982e-20)
(0.661154 -0.19296 2.76828e-19)
(0.701042 -0.171982 1.46873e-21)
(0.736041 -0.153852 7.16386e-20)
(0.766898 -0.138081 1.65267e-19)
(0.794292 -0.12426 -1.59373e-19)
(0.818826 -0.11198 2.08198e-19)
(0.84052 -0.100966 -1.03503e-19)
(0.858611 -0.0914956 -6.9104e-20)
(0.115158 -0.255339 9.07771e-20)
(0.255119 -0.407465 -8.17172e-20)
(0.3716 -0.401872 1.56972e-19)
(0.453615 -0.357721 -1.36104e-19)
(0.522026 -0.312987 -1.71249e-19)
(0.58015 -0.27514 -1.95031e-19)
(0.630508 -0.24316 7.9454e-20)
(0.674268 -0.215928 5.20354e-20)
(0.712578 -0.192542 -2.46646e-19)
(0.746243 -0.172322 -1.66086e-19)
(0.77596 -0.154726 -1.48182e-19)
(0.802391 -0.139296 2.06445e-19)
(0.826151 -0.125568 -5.98561e-20)
(0.847181 -0.113253 -5.05495e-20)
(0.864412 -0.102731 3.42355e-21)
(0.134099 -0.277778 3.18552e-19)
(0.284853 -0.445794 4.17569e-19)
(0.400689 -0.440981 -1.70661e-19)
(0.479221 -0.393149 -1.97948e-19)
(0.544061 -0.344258 4.23438e-19)
(0.599195 -0.302807 3.16906e-20)
(0.647069 -0.267763 1.47395e-19)
(0.688761 -0.237904 -3.36695e-19)
(0.725333 -0.21225 1.44952e-19)
(0.757528 -0.190056 2.27003e-20)
(0.785989 -0.170735 -9.28653e-20)
(0.811355 -0.153781 -2.25842e-19)
(0.834256 -0.138674 -9.97838e-20)
(0.854564 -0.125112 7.06351e-20)
(0.870877 -0.113602 1.49511e-20)
(0.154277 -0.297855 -2.21285e-19)
(0.316878 -0.481095 -2.82441e-19)
(0.432193 -0.477504 1.77423e-19)
(0.50703 -0.426473 6.40548e-19)
(0.568019 -0.373777 5.98105e-20)
(0.619912 -0.32899 1.26616e-20)
(0.665096 -0.291101 -1.94241e-19)
(0.704544 -0.258798 4.01681e-19)
(0.739231 -0.231026 1.42516e-20)
(0.769832 -0.206986 1.922e-19)
(0.796929 -0.186048 2.39321e-19)
(0.821134 -0.167663 1.50093e-19)
(0.843097 -0.151254 -1.32158e-20)
(0.86263 -0.136504 4.04327e-20)
(0.877983 -0.124069 1.33169e-19)
(0.175436 -0.315409 -1.01059e-19)
(0.350888 -0.513137 -1.66452e-19)
(0.465866 -0.511239 6.02736e-20)
(0.536847 -0.457532 4.69953e-20)
(0.593742 -0.401411 -4.79995e-19)
(0.642171 -0.353576 4.87033e-19)
(0.684476 -0.313077 -1.84449e-20)
(0.721523 -0.278526 -1.11304e-19)
(0.754192 -0.248799 -7.30692e-20)
(0.783085 -0.22305 -4.95883e-20)
(0.80872 -0.200611 -7.98356e-20)
(0.831676 -0.180895 5.51635e-20)
(0.852627 -0.163268 -1.60554e-19)
(0.87134 -0.147392 -1.23369e-19)
(0.885705 -0.134095 -8.00404e-20)
(0.197303 -0.330305 -2.55132e-20)
(0.386557 -0.541715 3.23119e-19)
(0.501442 -0.542005 -5.03242e-19)
(0.568467 -0.486179 -6.31429e-19)
(0.621063 -0.42704 2.17023e-19)
(0.665831 -0.376465 -8.13079e-20)
(0.705092 -0.333606 1.84488e-19)
(0.739598 -0.297012 2.52781e-20)
(0.77013 -0.265504 3.09477e-19)
(0.797214 -0.238189 -6.4961e-20)
(0.821297 -0.214373 -2.35899e-19)
(0.842924 -0.193436 3.06655e-20)
(0.862794 -0.174682 -6.79081e-20)
(0.880652 -0.157745 2.84704e-20)
(0.894014 -0.143644 -5.42812e-21)
(0.219589 -0.342436 1.68208e-19)
(0.423535 -0.566653 1.53847e-19)
(0.538638 -0.569641 4.71199e-19)
(0.60167 -0.512288 3.60849e-19)
(0.649805 -0.450561 2.73349e-19)
(0.690746 -0.397568 -3.12958e-19)
(0.726819 -0.352612 -6.50726e-20)
(0.758662 -0.314192 -1.33125e-19)
(0.786954 -0.281082 -8.33232e-20)
(0.81214 -0.252354 1.77973e-19)
(0.834593 -0.227288 9.77202e-20)
(0.854815 -0.205242 -2.25802e-20)
(0.873542 -0.185461 2.97691e-19)
(0.890521 -0.167533 -6.76572e-20)
(0.902883 -0.152684 1.63691e-19)
(0.241994 -0.351721 -7.3191e-20)
(0.461455 -0.587802 -5.65378e-19)
(0.577155 -0.594007 -3.39019e-19)
(0.636225 -0.535749 -1.60018e-19)
(0.679784 -0.471885 -4.09219e-19)
(0.716761 -0.41681 3.53103e-19)
(0.749526 -0.370028 1.40361e-19)
(0.778605 -0.330009 1.31865e-19)
(0.804568 -0.295486 -6.22815e-19)
(0.827782 -0.265501 -1.94748e-19)
(0.848538 -0.23932 1.4797e-19)
(0.867287 -0.216287 -7.62461e-20)
(0.884811 -0.195592 9.53996e-20)
(0.900901 -0.176751 -9.7957e-20)
(0.912283 -0.161198 -4.5166e-20)
(0.264211 -0.358113 1.21511e-20)
(0.499931 -0.605044 2.5561e-19)
(0.616677 -0.614991 2.43914e-19)
(0.671891 -0.556472 9.39067e-20)
(0.710807 -0.490941 1.85195e-19)
(0.743716 -0.434131 -1.92902e-19)
(0.773079 -0.385803 -9.74419e-20)
(0.799312 -0.344416 1.209e-19)
(0.822876 -0.308672 1.77413e-20)
(0.844058 -0.277592 1.00583e-19)
(0.863063 -0.250429 -2.20155e-20)
(0.880273 -0.226522 -2.78404e-20)
(0.896533 -0.205015 -2.56591e-20)
(0.911737 -0.18534 -5.67905e-20)
(0.922194 -0.169142 1.54813e-19)
(0.285928 -0.361594 8.66014e-20)
(0.538565 -0.618289 -1.00095e-19)
(0.656878 -0.6325 -1.13033e-19)
(0.708419 -0.574388 -2.40334e-20)
(0.742678 -0.507673 -1.02197e-19)
(0.771448 -0.449484 1.50151e-19)
(0.79734 -0.399896 -1.63355e-19)
(0.820665 -0.357376 -3.7217e-20)
(0.841775 -0.32061 1.88291e-19)
(0.860879 -0.288601 -4.42842e-21)
(0.878092 -0.260599 1.64306e-19)
(0.893704 -0.235954 -1.45673e-19)
(0.908621 -0.213791 -2.03615e-20)
(0.922957 -0.193434 -2.95056e-20)
(0.932606 -0.176632 -1.55975e-19)
(0.306831 -0.362179 -1.36721e-19)
(0.576946 -0.627482 3.3357e-20)
(0.697418 -0.646471 4.05981e-20)
(0.745551 -0.589448 6.43736e-20)
(0.775196 -0.522044 2.41008e-19)
(0.799792 -0.462838 6.86925e-20)
(0.82217 -0.412279 -1.67776e-19)
(0.842548 -0.368865 9.71499e-20)
(0.861166 -0.331274 4.23322e-19)
(0.878161 -0.2985 -1.52723e-19)
(0.893565 -0.269787 -3.787e-20)
(0.90754 -0.244493 9.63704e-20)
(0.921021 -0.221717 -5.11121e-20)
(0.934494 -0.200683 5.0272e-20)
(0.943578 -0.183346 -6.16118e-20)
(0.326609 -0.359911 5.95553e-20)
(0.614656 -0.6326 -9.70493e-20)
(0.737949 -0.656865 -1.09937e-19)
(0.783026 -0.601624 -1.14322e-19)
(0.808158 -0.534034 -1.95255e-19)
(0.82858 -0.474176 -2.03711e-19)
(0.847427 -0.422935 2.20077e-19)
(0.864839 -0.378866 -3.22346e-19)
(0.880944 -0.340651 -2.60235e-19)
(0.895809 -0.307281 2.2847e-19)
(0.909397 -0.278006 -1.74573e-19)
(0.921708 -0.252218 4.59191e-20)
(0.933586 -0.229076 8.42072e-20)
(0.946041 -0.207828 1.1114e-19)
(0.955053 -0.190507 5.64172e-20)
(0.344947 -0.354863 2.46952e-20)
(0.651275 -0.633657 -3.99325e-20)
(0.778113 -0.66367 1.41805e-20)
(0.820578 -0.610909 -1.74661e-21)
(0.84136 -0.543642 4.31056e-20)
(0.857646 -0.483496 4.72611e-21)
(0.872972 -0.431861 -1.66825e-19)
(0.887422 -0.387374 1.37543e-19)
(0.90101 -0.348733 -1.27867e-19)
(0.913736 -0.314932 -1.77175e-19)
(0.925518 -0.28522 1.13722e-19)
(0.936216 -0.258988 -8.79534e-20)
(0.946425 -0.235368 3.35689e-20)
(0.95763 -0.213465 -8.28735e-20)
(0.967611 -0.195403 -3.9788e-20)
(0.361537 -0.347144 -5.4016e-20)
(0.686379 -0.630707 4.3842e-20)
(0.81755 -0.666898 -6.1372e-22)
(0.857941 -0.617319 7.10517e-20)
(0.874599 -0.55088 8.29827e-20)
(0.886824 -0.490811 -4.45927e-20)
(0.898665 -0.439067 1.23297e-19)
(0.910177 -0.394396 -9.6946e-20)
(0.921265 -0.355523 5.2392e-20)
(0.931855 -0.321457 1.63885e-19)
(0.941844 -0.291443 9.5462e-20)
(0.951011 -0.264888 -1.41907e-19)
(0.959563 -0.241085 6.2919e-20)
(0.968688 -0.219896 3.73772e-20)
(0.979072 -0.20349 6.49446e-20)
(0.376068 -0.336892 1.68975e-19)
(0.719547 -0.623837 -1.31231e-19)
(0.855897 -0.666591 4.28568e-21)
(0.894846 -0.620891 3.31324e-20)
(0.907674 -0.555779 -2.75441e-20)
(0.915953 -0.496147 1.0201e-19)
(0.92437 -0.444573 -6.15427e-20)
(0.93299 -0.399947 -2.12329e-20)
(0.941611 -0.361034 2.20587e-19)
(0.950083 -0.326865 -1.99088e-19)
(0.958283 -0.29669 -5.9373e-20)
(0.965968 -0.269924 1.51947e-19)
(0.973007 -0.246027 -8.56551e-20)
(0.98005 -0.225105 -5.83968e-20)
(0.989132 -0.207272 -1.41903e-20)
(0.388226 -0.324275 -1.4202e-19)
(0.750349 -0.613165 1.98768e-19)
(0.892799 -0.662819 2.43234e-22)
(0.931031 -0.621681 1.50977e-20)
(0.940387 -0.558381 -5.05636e-20)
(0.944874 -0.499544 4.51362e-20)
(0.949954 -0.448414 -8.01377e-21)
(0.955746 -0.404054 8.42219e-20)
(0.961955 -0.365286 -1.82677e-19)
(0.968344 -0.33117 8.46344e-20)
(0.974764 -0.300962 -2.81921e-20)
(0.980993 -0.274067 4.35278e-20)
(0.986708 -0.250052 6.23976e-21)
(0.991991 -0.229182 -3.81047e-21)
(0.999229 -0.210502 -1.44218e-20)
(0.397814 -0.309568 4.4381e-20)
(0.778317 -0.598845 -1.65962e-19)
(0.927927 -0.655697 -9.569e-20)
(0.966237 -0.619754 -3.198e-21)
(0.972542 -0.558739 1.86856e-20)
(0.973431 -0.501055 2.68363e-20)
(0.975288 -0.450634 -1.90816e-20)
(0.978337 -0.406753 -9.91515e-20)
(0.982202 -0.368307 -2.45052e-20)
(0.986565 -0.334392 7.42593e-20)
(0.991236 -0.304276 2.43995e-20)
(0.996031 -0.277348 -9.80023e-21)
(1.00057 -0.253269 -7.6177e-20)
(1.00451 -0.232495 2.05894e-20)
(1.01001 -0.21344 1.97109e-20)
(0.404683 -0.292971 -2.52795e-20)
(0.802701 -0.580865 2.80118e-19)
(0.961036 -0.645467 5.90732e-20)
(1.00021 -0.615183 5.04702e-21)
(1.00394 -0.556918 1.11105e-20)
(1.00148 -0.500748 -3.40535e-20)
(1.00025 -0.451288 -2.51155e-20)
(1.00066 -0.40809 8.15421e-20)
(1.00226 -0.370134 7.0659e-20)
(1.00467 -0.336563 -1.26177e-19)
(1.00765 -0.306665 1.18135e-20)
(1.01104 -0.279823 9.51189e-21)
(1.01447 -0.255773 9.30788e-20)
(1.01734 -0.235136 1.28784e-20)
(1.02139 -0.21588 -9.71187e-20)
(0.408769 -0.274662 -6.17935e-20)
(0.823273 -0.559705 -4.18991e-19)
(0.991707 -0.632369 -2.03164e-20)
(1.0327 -0.607916 -3.82907e-20)
(1.03441 -0.552995 -5.0893e-20)
(1.02887 -0.498701 8.69326e-21)
(1.02472 -0.450441 2.10331e-20)
(1.02261 -0.408118 -2.7169e-20)
(1.02205 -0.370816 5.16923e-21)
(1.02259 -0.337725 5.66212e-20)
(1.02395 -0.308168 -3.71716e-20)
(1.02597 -0.28153 2.38694e-20)
(1.02832 -0.257599 -3.34936e-20)
(1.03021 -0.23711 -5.88756e-20)
(1.03299 -0.217808 1.23597e-20)
(0.409928 -0.254997 -9.63792e-21)
(0.840029 -0.535828 5.56981e-20)
(1.0192 -0.616255 6.90641e-20)
(1.06339 -0.598071 -9.956e-21)
(1.06373 -0.547087 -1.25899e-20)
(1.05547 -0.495004 -2.81094e-20)
(1.0486 -0.448168 -7.80307e-21)
(1.0441 -0.4069 5.72019e-21)
(1.04149 -0.370403 -3.39441e-21)
(1.04026 -0.337922 -2.72002e-20)
(1.04007 -0.30882 3.63505e-20)
(1.04078 -0.282499 -1.07503e-20)
(1.04207 -0.258764 -6.54645e-21)
(1.04302 -0.238437 1.73877e-20)
(1.0446 -0.219241 -9.71991e-21)
(0.408018 -0.234327 1.63931e-19)
(0.852663 -0.509403 2.69121e-19)
(1.04317 -0.597266 4.29993e-20)
(1.09197 -0.585868 -8.30545e-20)
(1.09172 -0.539299 9.1812e-20)
(1.08114 -0.489748 3.86968e-20)
(1.07177 -0.444549 -1.36391e-20)
(1.06504 -0.404507 -4.89369e-21)
(1.06049 -0.368956 1.05799e-20)
(1.05759 -0.337203 -3.72254e-21)
(1.05595 -0.308664 -6.74446e-21)
(1.05541 -0.282758 1.98753e-20)
(1.05567 -0.259295 4.83137e-20)
(1.05572 -0.239153 -3.37622e-20)
(1.05614 -0.220188 5.46131e-20)
(0.402969 -0.212977 -1.90584e-19)
(0.860773 -0.480636 -8.4298e-20)
(1.06346 -0.575677 -2.03396e-19)
(1.11813 -0.571465 2.16952e-19)
(1.11818 -0.529747 -1.50621e-19)
(1.10576 -0.483043 5.01513e-20)
(1.09414 -0.439677 9.51965e-21)
(1.08534 -0.401015 3.63186e-21)
(1.079 -0.366538 4.65443e-21)
(1.07454 -0.335622 -5.89802e-22)
(1.07153 -0.307741 7.16466e-21)
(1.06981 -0.282344 2.36719e-20)
(1.06908 -0.259225 -2.02285e-20)
(1.06828 -0.239298 -1.97943e-20)
(1.06761 -0.220669 -5.06312e-20)
(0.394793 -0.19127 -1.84407e-19)
(0.864026 -0.449835 8.27118e-20)
(1.07977 -0.551726 5.79069e-20)
(1.14162 -0.555014 -1.24497e-19)
(1.14298 -0.518582 2.22631e-20)
(1.12916 -0.474977 -6.04959e-21)
(1.11563 -0.433648 -2.33908e-20)
(1.10495 -0.396507 -1.77309e-20)
(1.09694 -0.363217 1.21327e-20)
(1.09104 -0.333237 1.49965e-21)
(1.08677 -0.306101 -1.1509e-20)
(1.08392 -0.281296 -1.4084e-20)
(1.08225 -0.258591 9.50239e-21)
(1.08065 -0.23891 1.28653e-20)
(1.07899 -0.220706 1.56236e-20)
(0.383574 -0.169532 1.79292e-19)
(0.862168 -0.417352 -8.24732e-20)
(1.09175 -0.525648 4.17735e-20)
(1.16216 -0.536696 1.83562e-19)
(1.16596 -0.505899 1.40476e-19)
(1.1513 -0.465668 -9.30513e-20)
(1.1361 -0.426577 3.28555e-20)
(1.12378 -0.391064 2.67753e-20)
(1.11427 -0.359066 -2.84654e-20)
(1.10704 -0.330109 1.05918e-20)
(1.1016 -0.303792 4.08864e-21)
(1.09771 -0.279655 -2.58695e-21)
(1.09515 -0.257429 1.66686e-21)
(1.09281 -0.238023 -1.55072e-20)
(1.09023 -0.220316 1.97971e-20)
(0.369457 -0.14809 -1.67205e-19)
(0.85501 -0.383567 1.05338e-19)
(1.09907 -0.497684 1.28173e-19)
(1.17944 -0.516656 -2.75344e-20)
(1.18682 -0.491825 -1.95272e-19)
(1.17214 -0.455249 -6.41327e-20)
(1.15555 -0.418551 -7.4334e-20)
(1.14177 -0.384798 2.67009e-20)
(1.13092 -0.354159 -7.89123e-21)
(1.1225 -0.326301 -1.62881e-20)
(1.11599 -0.300869 -9.25657e-21)
(1.11114 -0.277463 -9.02528e-22)
(1.10775 -0.255776 -7.63403e-21)
(1.10473 -0.236667 7.42135e-21)
(1.10131 -0.219512 -9.26666e-21)
(0.352648 -0.127256 7.21906e-20)
(0.842418 -0.348879 7.88368e-22)
(1.10139 -0.468092 -3.89243e-19)
(1.19317 -0.495049 -2.1297e-20)
(1.20538 -0.476493 1.55859e-19)
(1.19147 -0.443832 1.30287e-19)
(1.17397 -0.409686 6.76046e-20)
(1.15891 -0.37778 -9.9066e-22)
(1.14687 -0.348587 1.25931e-20)
(1.13737 -0.32188 -1.03807e-21)
(1.12991 -0.297383 1.53273e-20)
(1.12417 -0.274764 3.38464e-21)
(1.12 -0.253675 -9.02131e-22)
(1.11639 -0.234881 -3.37594e-21)
(1.1122 -0.218302 -1.88202e-21)
(0.333413 -0.107327 -1.23411e-20)
(0.824323 -0.313704 1.28221e-19)
(1.09842 -0.43715 2.11109e-19)
(1.20305 -0.472038 6.12161e-20)
(1.22145 -0.460028 -1.47118e-19)
(1.20915 -0.431539 -1.5456e-19)
(1.19124 -0.400084 5.70062e-20)
(1.17518 -0.370107 -2.14545e-20)
(1.1621 -0.342415 7.04546e-20)
(1.15164 -0.316912 -9.97654e-22)
(1.14332 -0.293394 -8.13404e-21)
(1.13679 -0.271601 -3.87645e-21)
(1.13189 -0.251165 9.99809e-21)
(1.12776 -0.232695 3.37591e-21)
(1.12291 -0.216715 -7.47701e-22)
(0.312077 -0.0885757 1.84552e-19)
(0.800738 -0.278479 -1.94444e-19)
(1.08988 -0.405147 1.11057e-19)
(1.20875 -0.447793 1.36923e-19)
(1.23482 -0.442542 1.02325e-19)
(1.22509 -0.418477 3.32422e-20)
(1.20728 -0.389854 2.20017e-20)
(1.19051 -0.361872 -7.28889e-22)
(1.17657 -0.335722 -3.2288e-20)
(1.16529 -0.311461 1.39188e-20)
(1.15622 -0.288949 2.90863e-20)
(1.14897 -0.26802 7.66786e-21)
(1.14338 -0.2483 -7.16143e-21)
(1.1388 -0.230161 -4.8056e-21)
(1.13343 -0.214775 -3.44268e-21)
(0.289011 -0.0712415 -9.96872e-20)
(0.771765 -0.243651 7.07046e-20)
(1.0755 -0.372383 -5.65323e-21)
(1.20993 -0.42248 -1.4682e-19)
(1.24523 -0.424145 -3.04635e-20)
(1.23916 -0.404741 7.08565e-20)
(1.22204 -0.379092 -5.24519e-20)
(1.20487 -0.353167 6.782e-21)
(1.19027 -0.328589 -3.4737e-21)
(1.1783 -0.305592 -1.0355e-20)
(1.16858 -0.284114 -1.65537e-20)
(1.16072 -0.264063 -2.53055e-20)
(1.1545 -0.245095 -1.18522e-20)
(1.14945 -0.227312 1.35647e-20)
(1.14387 -0.212558 2.67899e-21)
(0.264631 -0.0555257 -1.24016e-19)
(0.73761 -0.209677 -1.52636e-20)
(1.05509 -0.339168 -7.34236e-20)
(1.20624 -0.39627 6.2504e-20)
(1.25239 -0.404934 -6.70898e-20)
(1.25121 -0.390418 -2.60784e-20)
(1.23546 -0.367889 6.97111e-21)
(1.21824 -0.344078 -7.07113e-21)
(1.20316 -0.321094 1.86895e-20)
(1.19065 -0.299374 8.79999e-22)
(1.18038 -0.278944 1.1446e-20)
(1.172 -0.259774 1.41192e-20)
(1.16524 -0.241576 1.36067e-20)
(1.15972 -0.224307 -4.16874e-21)
(1.15414 -0.210087 -3.81778e-21)
(0.239378 -0.0415847 7.20335e-20)
(0.698601 -0.177017 7.5318e-20)
(1.02848 -0.305823 2.47188e-20)
(1.1973 -0.369329 -3.77176e-20)
(1.25599 -0.385001 7.26673e-21)
(1.26103 -0.37558 5.19205e-20)
(1.24746 -0.356322 -3.38564e-20)
(1.23059 -0.334687 -2.75357e-20)
(1.21526 -0.31331 -6.03287e-21)
(1.20233 -0.292872 5.25014e-21)
(1.19162 -0.273492 -2.39774e-20)
(1.1828 -0.255202 6.20739e-21)
(1.17558 -0.237789 1.35142e-20)
(1.16964 -0.22112 -3.13075e-21)
(1.16389 -0.207346 -4.20117e-21)
(0.213711 -0.0295256 -4.71886e-20)
(0.655209 -0.146125 -3.18744e-20)
(0.995577 -0.272675 -5.97493e-20)
(1.18274 -0.341827 -9.34743e-21)
(1.25564 -0.364427 -6.25162e-21)
(1.26841 -0.360286 -5.78716e-20)
(1.25794 -0.344458 1.72658e-20)
(1.2419 -0.325066 9.13264e-21)
(1.22655 -0.305307 -1.53248e-20)
(1.21334 -0.286146 -8.9821e-21)
(1.20229 -0.267812 -1.11175e-21)
(1.19311 -0.250397 -7.56548e-21)
(1.18551 -0.233764 -1.18816e-20)
(1.17919 -0.217698 -1.06187e-20)
(1.17316 -0.204348 7.13637e-21)
(0.188083 -0.019403 -2.08977e-20)
(0.608042 -0.117428 7.52634e-21)
(0.956362 -0.240059 1.00697e-20)
(1.16218 -0.313943 1.01238e-20)
(1.25093 -0.343282 1.67296e-20)
(1.27304 -0.344575 1.14555e-20)
(1.26675 -0.332346 -3.19416e-21)
(1.25212 -0.315277 1.05272e-20)
(1.23704 -0.29715 -3.54633e-22)
(1.22371 -0.279254 -1.04834e-22)
(1.21241 -0.261954 3.89667e-21)
(1.20295 -0.2454 -1.78173e-21)
(1.19503 -0.229531 1.14155e-21)
(1.18838 -0.214045 4.62251e-21)
(1.18207 -0.201113 -3.75265e-21)
(0.162934 -0.0112141 -1.24977e-20)
(0.557845 -0.0913173 -3.32328e-21)
(0.910943 -0.208318 1.46172e-20)
(1.13525 -0.285862 6.51178e-21)
(1.24138 -0.321631 1.83143e-20)
(1.27458 -0.328469 1.24604e-20)
(1.27372 -0.32002 -4.76801e-22)
(1.26119 -0.305372 1.47864e-20)
(1.2467 -0.288897 -7.2258e-21)
(1.23342 -0.272252 7.86967e-22)
(1.22199 -0.255965 4.84355e-21)
(1.21231 -0.240252 -2.21753e-21)
(1.20415 -0.225127 2.10523e-21)
(1.19723 -0.210201 7.61302e-21)
(1.19073 -0.197661 -2.94078e-21)
(0.138665 -0.00489751 -1.68999e-20)
(0.505477 -0.0681291 -5.01438e-20)
(0.859577 -0.177803 -5.78786e-20)
(1.10163 -0.257781 -2.12781e-21)
(1.22648 -0.299533 -8.48832e-21)
(1.27259 -0.311969 -6.41307e-20)
(1.27859 -0.307486 3.24108e-20)
(1.269 -0.295382 5.04692e-21)
(1.25553 -0.280595 -2.19496e-20)
(1.24249 -0.265189 -1.90828e-20)
(1.23103 -0.249891 3.43804e-21)
(1.22123 -0.234993 -1.18439e-20)
(1.21287 -0.220596 -1.24791e-20)
(1.20576 -0.206219 -1.62548e-20)
(1.19916 -0.194017 1.01631e-20)
(0.115631 -0.000336742 6.55536e-20)
(0.451897 -0.048128 4.78844e-20)
(0.802702 -0.14888 2.08017e-20)
(1.06106 -0.229912 -3.14215e-20)
(1.20566 -0.277046 1.53659e-20)
(1.26655 -0.295061 3.38184e-20)
(1.28103 -0.294731 -2.81786e-20)
(1.27539 -0.285322 -5.69176e-20)
(1.26346 -0.272278 -8.36238e-21)
(1.25092 -0.258108 3.32179e-20)
(1.23955 -0.243775 -4.30958e-20)
(1.2297 -0.229663 1.6576e-20)
(1.22122 -0.215973 7.29829e-21)
(1.21396 -0.20215 -1.05245e-21)
(1.20735 -0.190217 1.62601e-21)
(0.0941254 0.00263163 -7.62857e-20)
(0.398122 -0.0314871 -4.89899e-20)
(0.740975 -0.121924 -8.08047e-20)
(1.01339 -0.202486 7.57965e-20)
(1.17832 -0.254233 -8.63998e-20)
(1.25583 -0.277715 -2.30129e-20)
(1.2806 -0.281714 -2.6198e-21)
(1.28015 -0.27518 -1.48595e-21)
(1.27042 -0.263967 4.63431e-20)
(1.25869 -0.251043 -5.5289e-20)
(1.24756 -0.237655 4.14112e-20)
(1.23774 -0.224297 2.0436e-20)
(1.22921 -0.211289 5.19683e-20)
(1.22184 -0.198034 -5.8689e-21)
(1.21527 -0.186292 -1.59585e-20)
(0.07437 0.00420509 1.27915e-20)
(0.345181 -0.0182673 1.365e-20)
(0.675294 -0.0973123 -2.89071e-20)
(0.958605 -0.175761 -1.18729e-19)
(1.14386 -0.231173 -3.38936e-20)
(1.23971 -0.259892 9.13113e-20)
(1.27673 -0.26837 -7.7396e-20)
(1.28294 -0.264918 -4.24336e-20)
(1.27627 -0.25566 1.25164e-20)
(1.26576 -0.244018 -1.85766e-20)
(1.25507 -0.231561 -8.46932e-20)
(1.24537 -0.218929 -4.13965e-20)
(1.23684 -0.206568 2.97109e-21)
(1.2294 -0.193899 1.03254e-20)
(1.2229 -0.182274 9.14596e-21)
(0.0565149 0.00460018 1.42472e-19)
(0.294057 -0.00840273 -1.81248e-19)
(0.606803 -0.0754163 1.32058e-19)
(0.896937 -0.150031 7.2288e-20)
(1.10175 -0.20797 2.37229e-19)
(1.21738 -0.241553 1.29189e-20)
(1.26873 -0.254608 6.51253e-20)
(1.28331 -0.25447 1.73965e-20)
(1.28079 -0.247333 -1.49055e-19)
(1.27207 -0.237038 5.12525e-20)
(1.26207 -0.225518 3.50668e-20)
(1.25261 -0.213587 6.82518e-20)
(1.24414 -0.20183 -6.88434e-20)
(1.23666 -0.189768 -2.28663e-20)
(1.23025 -0.178188 -5.41514e-21)
(0.0406399 0.00403783 -1.89959e-20)
(0.245626 -0.00169724 2.12307e-19)
(0.536869 -0.0565728 1.80473e-19)
(0.828896 -0.125634 3.79649e-20)
(1.05154 -0.184767 -2.34285e-19)
(1.18795 -0.222668 -1.58869e-19)
(1.25572 -0.240322 5.84624e-20)
(1.28067 -0.243734 -4.40916e-20)
(1.28365 -0.238931 8.37751e-20)
(1.27746 -0.230092 2.30978e-20)
(1.26851 -0.219535 1.73375e-20)
(1.25944 -0.208293 -4.08642e-20)
(1.25112 -0.197094 2.25607e-20)
(1.24363 -0.185659 9.67236e-20)
(1.23732 -0.174059 1.11138e-19)
(0.0267625 0.00273132 1.57635e-19)
(0.200611 0.00216075 -1.74955e-19)
(0.467012 -0.0410478 -2.98077e-19)
(0.755358 -0.102961 3.06574e-20)
(0.992986 -0.161768 2.06938e-19)
(1.15052 -0.203237 2.2225e-19)
(1.23671 -0.225395 1.36244e-19)
(1.27421 -0.23258 -2.2208e-21)
(1.28436 -0.230366 3.35897e-20)
(1.28171 -0.223142 1.24121e-20)
(1.27431 -0.213609 8.69064e-20)
(1.26586 -0.203063 2.39625e-20)
(1.25778 -0.192375 1.85699e-20)
(1.25033 -0.181585 -2.44324e-20)
(1.24414 -0.169909 -3.22786e-20)
(0.0148471 0.000878075 -2.03636e-19)
(0.159541 0.00356679 1.61376e-19)
(0.398805 -0.0289886 1.58153e-19)
(0.677619 -0.0824465 -1.28793e-19)
(0.926157 -0.139252 -3.18247e-19)
(1.10424 -0.183307 -6.75492e-20)
(1.21052 -0.209716 -1.90623e-19)
(1.26293 -0.220848 7.40289e-20)
(1.28225 -0.22151 -1.17205e-20)
(1.28446 -0.216117 -9.64004e-20)
(1.27933 -0.207714 -3.90676e-20)
(1.27182 -0.197901 1.67865e-21)
(1.26413 -0.187682 -2.69982e-20)
(1.25677 -0.177556 -2.7542e-20)
(1.25073 -0.165757 3.33217e-21)
(0.00481492 -0.00134489 2.96511e-19)
(0.122742 0.00295923 -1.95928e-19)
(0.333734 -0.0203786 1.25488e-19)
(0.597393 -0.0645505 1.41456e-19)
(0.851572 -0.117595 2.74921e-19)
(1.04843 -0.162998 -2.18192e-19)
(1.17591 -0.1932 9.56018e-20)
(1.24559 -0.208363 1.11658e-19)
(1.2764 -0.212197 -1.15141e-19)
(1.28515 -0.20891 -4.86581e-20)
(1.28329 -0.201795 -1.40016e-20)
(1.27723 -0.192793 -1.84381e-20)
(1.27013 -0.183018 -8.63508e-20)
(1.26296 -0.173577 6.91284e-20)
(1.25709 -0.161618 -1.28712e-19)
(-0.00344473 -0.00378213 -1.6312e-19)
(0.090351 0.000779258 8.13925e-21)
(0.273066 -0.0150173 8.82193e-20)
(0.516727 -0.0496968 -2.20904e-19)
(0.770321 -0.0972793 1.14288e-19)
(0.982742 -0.14254 -7.0443e-22)
(1.13164 -0.175815 -1.29115e-19)
(1.22072 -0.194947 -5.73396e-20)
(1.26559 -0.202224 8.58552e-21)
(1.28299 -0.201366 1.22763e-19)
(1.28575 -0.195764 1.52498e-19)
(1.28188 -0.187705 1.33979e-19)
(1.27574 -0.178375 2.30963e-20)
(1.2689 -0.169643 -1.45103e-19)
(1.26324 -0.157505 -1.85264e-20)
(-0.0100698 -0.00630105 3.38832e-20)
(0.0623406 -0.00255871 -1.94474e-19)
(0.217752 -0.0125419 -2.96588e-19)
(0.437821 -0.0381924 2.87602e-19)
(0.684153 -0.0788812 -2.1205e-19)
(0.907369 -0.1223 1.15846e-19)
(1.07662 -0.157626 1.2826e-19)
(1.18672 -0.180449 9.30714e-20)
(1.24831 -0.191361 8.73665e-20)
(1.27685 -0.193282 2.5383e-20)
(1.28606 -0.189483 -1.02598e-19)
(1.28546 -0.182566 -1.26464e-19)
(1.28081 -0.173727 3.11829e-20)
(1.27453 -0.165743 3.58433e-20)
(1.26919 -0.153416 1.47303e-19)
(-0.0152175 -0.00879381 1.39657e-19)
(0.0385535 -0.00668771 3.85871e-19)
(0.168379 -0.0124853 -9.36695e-20)
(0.362779 -0.0301436 -1.84481e-19)
(0.59545 -0.0630192 4.23187e-19)
(0.823258 -0.102813 1.726e-19)
(1.01015 -0.138835 3.9529e-20)
(1.14194 -0.164783 -6.08195e-20)
(1.22273 -0.179372 2.23747e-20)
(1.26524 -0.18441 -1.66579e-19)
(1.28319 -0.182761 7.7562e-20)
(1.28738 -0.177265 2.16606e-20)
(1.28508 -0.169019 -1.26951e-19)
(1.27978 -0.16185 -4.11724e-20)
(1.27489 -0.149345 -1.09357e-19)
(-0.0190546 -0.0111758 -6.00476e-20)
(0.0187369 -0.0112961 1.80388e-19)
(0.125194 -0.014347 1.73307e-19)
(0.293359 -0.0254134 -7.55087e-20)
(0.507029 -0.0502462 -3.01146e-20)
(0.732279 -0.0847705 -2.00664e-19)
(0.932229 -0.119841 9.4758e-20)
(1.08491 -0.147986 -1.04733e-19)
(1.1868 -0.166055 -5.28681e-20)
(1.24623 -0.174468 1.43385e-19)
(1.27573 -0.175347 -1.36341e-19)
(1.28678 -0.171628 6.83733e-20)
(1.28809 -0.164162 1.53178e-19)
(1.28438 -0.157905 -1.7849e-19)
(1.28036 -0.145272 1.23073e-19)
(-0.0217533 -0.0133865 -1.40844e-19)
(0.00257137 -0.0161302 -5.84567e-19)
(0.0881514 -0.0176497 2.58793e-20)
(0.23081 -0.0236489 -1.44895e-19)
(0.421792 -0.0409179 -4.2302e-19)
(0.63724 -0.0689611 1.39757e-19)
(0.843867 -0.101273 -2.63987e-19)
(1.01471 -0.130291 1.16644e-19)
(1.13846 -0.151299 1.1264e-19)
(1.21752 -0.163171 -1.6806e-19)
(1.26173 -0.166934 6.85162e-20)
(1.28229 -0.165414 2.51976e-20)
(1.28905 -0.159002 4.29355e-21)
(1.28807 -0.153838 4.86559e-20)
(1.28519 -0.141113 -3.689e-20)
(-0.0234853 -0.0153888 8.88427e-21)
(-0.0103039 -0.0209925 3.32678e-19)
(0.0569927 -0.0219723 2.11362e-19)
(0.175821 -0.0243624 1.74409e-19)
(0.342306 -0.0350947 1.75013e-19)
(0.541639 -0.0561218 2.12469e-19)
(0.747338 -0.083977 1.58506e-19)
(0.931387 -0.112197 -2.13012e-19)
(1.07594 -0.135168 -2.95091e-19)
(1.17655 -0.150291 2.79568e-19)
(1.23869 -0.157179 3.53541e-20)
(1.272 -0.158313 -2.55023e-20)
(1.28672 -0.153316 -1.80647e-19)
(1.28996 -0.149485 -5.2842e-20)
(1.28955 -0.136845 1.45311e-19)
(-0.0244168 -0.017167 1.07382e-19)
(-0.0202711 -0.0257372 -4.62275e-19)
(0.031306 -0.0269603 -4.07602e-20)
(0.128576 -0.0270225 -1.6117e-19)
(0.270481 -0.0325329 -1.18274e-19)
(0.44916 -0.0467579 -8.26085e-21)
(0.646167 -0.0689089 -6.65251e-20)
(0.836417 -0.0945075 2.2799e-19)
(0.998345 -0.118011 1.74626e-19)
(1.12084 -0.135746 -1.94906e-19)
(1.20367 -0.145769 1.1068e-19)
(1.25324 -0.149937 -1.493e-19)
(1.27922 -0.146817 1.41953e-19)
(1.2891 -0.144662 -3.36102e-20)
(1.29179 -0.13212 -1.43273e-19)
(-0.0247041 -0.0187229 -3.83912e-19)
(-0.0277169 -0.0302622 6.3886e-19)
(0.0105822 -0.0323226 7.25671e-21)
(0.0888631 -0.0311174 -1.76859e-19)
(0.207432 -0.0327632 2.339e-19)
(0.363062 -0.041008 -6.85891e-20)
(0.544708 -0.0569213 -1.8896e-19)
(0.732973 -0.078272 -2.12399e-19)
(0.90627 -0.100543 4.02709e-19)
(1.04859 -0.119739 -1.061e-19)
(1.15353 -0.132487 -3.49947e-20)
(1.22279 -0.139943 1.94576e-19)
(1.26361 -0.139017 -1.43253e-19)
(1.28356 -0.139186 5.02342e-20)
(1.29225 -0.126874 -6.22589e-20)
(-0.0244899 -0.0200722 5.41684e-19)
(-0.0330188 -0.0344998 -5.93752e-19)
(-0.00574313 -0.0378218 -2.45926e-19)
(0.0561847 -0.0361854 9.70272e-20)
(0.153522 -0.0352017 -4.03655e-20)
(0.285716 -0.0386288 -1.45425e-19)
(0.447383 -0.0485336 1.89088e-19)
(0.625685 -0.064576 -1.39733e-19)
(0.802344 -0.0838377 -2.3104e-19)
(0.959528 -0.102874 2.8188e-19)
(1.0857 -0.117437 -9.57128e-20)
(1.17678 -0.127933 5.28518e-20)
(1.23678 -0.129747 1.14172e-20)
(1.26982 -0.13226 1.35553e-19)
(1.28751 -0.120851 7.05424e-20)
(-0.0239014 -0.0212402 -2.23288e-19)
(-0.0365333 -0.0384056 8.74156e-20)