/*--------------------------------*- C++ -*----------------------------------*\
  =========                 |
  \\      /  F ield         | OpenFOAM: The Open Source CFD Toolbox
   \\    /   O peration     | Website:  https://openfoam.org
    \\  /    A nd           | Version:  7
     \\/     M anipulation  |
\*---------------------------------------------------------------------------*/
FoamFile
{
    version     2.0;
    format      ascii;
    class       volVectorField;
    location    "15";
    object      U;
}
// * * * * * * * * * * * * * * * * * * * * * * * * * * * * * * * * * * * * * //

dimensions      [0 1 -1 0 0 0 0];

internalField   nonuniform List<vector> 
3312
(
(0.364201 -0.0520758 -2.62304e-19)
(0.198611 -0.0293725 -5.5591e-20)
(0.26009 -0.0402357 -2.49839e-19)
(0.128555 -0.0296456 8.25614e-19)
(0.174602 -0.0376004 -4.07921e-19)
(0.0466304 -0.035035 3.44395e-19)
(0.0753377 -0.0335241 6.57761e-19)
(0.108495 -0.0402947 -3.64382e-19)
(-0.00216258 -0.0426447 -2.2022e-19)
(0.0147117 -0.039191 -4.47655e-20)
(0.0352729 -0.0387238 8.85523e-20)
(0.0584832 -0.0448338 5.96853e-19)
(-0.0207281 -0.0451916 2.81383e-19)
(-0.00940518 -0.0429251 1.6709e-19)
(0.00458698 -0.0433414 -4.32993e-19)
(0.0202267 -0.048824 1.32305e-19)
(-0.0400872 -0.0487496 3.56101e-19)
(-0.0351431 -0.0464008 -2.95543e-19)
(-0.0283624 -0.0451665 -7.31586e-20)
(-0.0197469 -0.0461431 7.56525e-20)
(-0.00992437 -0.0507812 3.73762e-19)
(-0.0485439 -0.0472548 -2.21924e-19)
(-0.0469083 -0.045754 -4.37819e-19)
(-0.0439377 -0.0452735 3.54058e-19)
(-0.039623 -0.0465605 -2.09499e-19)
(-0.0345753 -0.0503189 2.32645e-19)
(-0.0534335 -0.0452077 8.13197e-21)
(-0.0556489 -0.0439241 -4.0246e-20)
(-0.0568473 -0.0430565 8.3714e-21)
(-0.0571041 -0.0430548 1.67253e-19)
(-0.0564258 -0.0444149 -1.49051e-20)
(-0.0554753 -0.0475165 -2.47056e-20)
(-0.0574082 -0.0395911 -2.51016e-20)
(-0.0617155 -0.0387861 -3.53767e-20)
(-0.0653318 -0.0383503 -8.09493e-22)
(-0.068335 -0.0386106 -1.03532e-19)
(-0.0707694 -0.039893 3.28303e-20)
(-0.0732208 -0.0424192 -1.97467e-19)
(-0.0607498 -0.0324854 -5.67343e-21)
(-0.0667927 -0.0320129 3.92693e-19)
(-0.0724072 -0.0318402 -1.29908e-19)
(-0.0776758 -0.0321954 -1.35348e-19)
(-0.0826763 -0.0332879 -1.25648e-19)
(-0.0878794 -0.0352539 1.21902e-19)
(-0.0633974 -0.0241389 1.68673e-20)
(-0.070788 -0.0238829 -7.23224e-20)
(-0.0779491 -0.0238459 -1.29261e-19)
(-0.0849688 -0.0241772 4.8918e-20)
(-0.0919511 -0.0250056 2.50673e-19)
(-0.0992713 -0.026418 -5.10225e-20)
(-0.065246 -0.0148651 -2.19847e-21)
(-0.0735602 -0.0147438 -4.19248e-20)
(-0.081779 -0.0147553 1.55208e-19)
(-0.0899955 -0.0149841 1.70329e-20)
(-0.0983327 -0.0155002 -2.20172e-20)
(-0.107103 -0.0163544 1.98868e-20)
(-0.0573361 -0.00506598 -2.24599e-20)
(-0.0661985 -0.00501951 -3.66163e-20)
(-0.0749827 -0.00498437 8.73742e-22)
(-0.0837391 -0.00499374 -2.66182e-20)
(-0.0925637 -0.00507494 1.6807e-20)
(-0.10159 -0.0052502 -9.8584e-21)
(-0.1111 -0.00553646 -3.14744e-20)
(1.07016 -0.127643 0)
(1.21964 -0.137652 0)
(1.22539 -0.133006 0)
(1.20114 -0.11712 0)
(1.17809 -0.100017 0)
(1.15798 -0.0861859 0)
(1.14032 -0.0734917 0)
(1.12473 -0.0627873 0)
(1.11089 -0.0536841 0)
(1.09859 -0.0459889 0)
(1.08764 -0.039482 0)
(1.0779 -0.0339671 0)
(1.06924 -0.0292819 0)
(1.06152 -0.0252892 0)
(1.05465 -0.0218754 0)
(1.04855 -0.0189475 0)
(1.04312 -0.0164281 0)
(1.03829 -0.0142555 0)
(1.034 -0.0123751 0)
(1.03019 -0.0107452 0)
(1.0268 -0.00933094 0)
(1.02379 -0.0081002 0)
(1.02111 -0.00702899 0)
(1.01873 -0.00609482 0)
(1.01662 -0.00527981 0)
(1.01474 -0.00456824 0)
(1.01308 -0.00394683 0)
(1.01159 -0.00340416 0)
(1.01028 -0.00293038 0)
(1.00911 -0.00251701 0)
(1.00807 -0.00215663 0)
(1.00714 -0.00184284 0)
(1.00633 -0.00157 0)
(1.0056 -0.00133315 0)
(1.00496 -0.00112806 0)
(1.00439 -0.000950706 0)
(1.00389 -0.000797749 0)
(1.00345 -0.000666255 0)
(1.00306 -0.000553489 0)
(1.00272 -0.000457154 0)
(1.00243 -0.000375085 0)
(1.00217 -0.000305386 0)
(1.00195 -0.000246317 0)
(1.00177 -0.000196283 0)
(1.00161 -0.000153868 0)
(1.00149 -0.000117664 0)
(1.00139 -8.65106e-05 0)
(1.00131 -5.90997e-05 0)
(1.00127 -3.44108e-05 0)
(1.00124 -1.13691e-05 0)
(1.04361 -0.110359 0)
(1.22387 -0.128151 0)
(1.23354 -0.122061 0)
(1.21064 -0.106876 0)
(1.18679 -0.0916083 0)
(1.16547 -0.0792937 0)
(1.14671 -0.0677972 0)
(1.13011 -0.0580312 0)
(1.11541 -0.0496849 0)
(1.1024 -0.0426026 0)
(1.09086 -0.0365949 0)
(1.08063 -0.0314912 0)
(1.07155 -0.0271479 0)
(1.06349 -0.0234416 0)
(1.05634 -0.0202695 0)
(1.04999 -0.017547 0)
(1.04436 -0.0152029 0)
(1.03936 -0.0131807 0)
(1.03493 -0.0114302 0)
(1.03099 -0.00991274 0)
(1.0275 -0.00859605 0)
(1.02439 -0.00745033 0)
(1.02164 -0.00645337 0)
(1.01919 -0.00558431 0)
(1.01702 -0.00482652 0)
(1.01509 -0.00416537 0)
(1.01338 -0.00358848 0)
(1.01186 -0.00308522 0)
(1.0105 -0.00264638 0)
(1.0093 -0.00226405 0)
(1.00824 -0.00193128 0)
(1.00729 -0.00164211 0)
(1.00646 -0.00139125 0)
(1.00571 -0.00117407 0)
(1.00506 -0.000986593 0)
(1.00447 -0.000825082 0)
(1.00396 -0.000686412 0)
(1.00351 -0.00056783 0)
(1.00311 -0.000466776 0)
(1.00277 -0.000381099 0)
(1.00246 -0.000308766 0)
(1.0022 -0.000248004 0)
(1.00198 -0.000197184 0)
(1.00179 -0.000154814 0)
(1.00163 -0.000119572 0)
(1.0015 -9.01367e-05 0)
(1.0014 -6.54248e-05 0)
(1.00132 -4.42125e-05 0)
(1.00128 -2.55407e-05 0)
(1.00125 -8.41598e-06 0)
(1.02522 -0.0961705 0)
(1.22367 -0.118427 0)
(1.23808 -0.110901 0)
(1.21651 -0.0965773 0)
(1.19269 -0.0829256 0)
(1.17087 -0.0720238 0)
(1.15142 -0.0617187 0)
(1.13413 -0.0529297 0)
(1.11883 -0.0453906 0)
(1.1053 -0.0389674 0)
(1.09332 -0.0334992 0)
(1.08271 -0.0288411 0)
(1.07332 -0.0248682 0)
(1.065 -0.0214718 0)
(1.05764 -0.0185608 0)
(1.05111 -0.0160594 0)
(1.04532 -0.0139037 0)
(1.04019 -0.0120428 0)
(1.03564 -0.0104312 0)
(1.03161 -0.00903374 0)
(1.02803 -0.00782095 0)
(1.02486 -0.00676563 0)
(1.02204 -0.00584753 0)
(1.01955 -0.00504749 0)
(1.01733 -0.00435027 0)
(1.01536 -0.00374242 0)
(1.01361 -0.00321255 0)
(1.01206 -0.00275085 0)
(1.01068 -0.00234883 0)
(1.00946 -0.00199917 0)
(1.00837 -0.00169546 0)
(1.00741 -0.00143215 0)
(1.00656 -0.00120438 0)
(1.0058 -0.00100784 0)
(1.00513 -0.000838849 0)
(1.00454 -0.000693946 0)
(1.00402 -0.000570245 0)
(1.00356 -0.00046518 0)
(1.00315 -0.000376374 0)
(1.0028 -0.000301827 0)
(1.00249 -0.000239665 0)
(1.00222 -0.000188233 0)
(1.002 -0.000146021 0)
(1.0018 -0.000111642 0)
(1.00164 -8.38743e-05 0)
(1.00151 -6.14929e-05 0)
(1.00141 -4.34865e-05 0)
(1.00133 -2.87224e-05 0)
(1.00128 -1.63146e-05 0)
(1.00126 -5.3459e-06 0)
(1.00687 -0.0832625 0)
(1.22168 -0.108032 0)
(1.24085 -0.0995474 0)
(1.22053 -0.0863233 0)
(1.19696 -0.0741941 0)
(1.17491 -0.0645713 0)
(1.15502 -0.0553999 0)
(1.13726 -0.0475954 0)
(1.12153 -0.0408871 0)
(1.1076 -0.0351495 0)
(1.09528 -0.0302469 0)
(1.08439 -0.0260579 0)
(1.07475 -0.0224759 0)
(1.06623 -0.0194068 0)
(1.05868 -0.0167712 0)
(1.05201 -0.0145029 0)
(1.04609 -0.0125457 0)
(1.04086 -0.0108545 0)
(1.03622 -0.00938877 0)
(1.03211 -0.00811715 0)
(1.02847 -0.00701324 0)
(1.02524 -0.00605257 0)
(1.02238 -0.00521695 0)
(1.01983 -0.00448904 0)
(1.01758 -0.00385508 0)
(1.01558 -0.00330286 0)
(1.0138 -0.00282202 0)
(1.01223 -0.00240363 0)
(1.01083 -0.00203995 0)
(1.00958 -0.0017243 0)
(1.00848 -0.0014508 0)
(1.00751 -0.00121441 0)
(1.00664 -0.00101063 0)
(1.00587 -0.000835541 0)
(1.00519 -0.000685762 0)
(1.00459 -0.000558103 0)
(1.00406 -0.000449927 0)
(1.00359 -0.000358882 0)
(1.00318 -0.00028278 0)
(1.00282 -0.000219778 0)
(1.00251 -0.000168155 0)
(1.00224 -0.00012639 0)
(1.00201 -9.30848e-05 0)
(1.00181 -6.69797e-05 0)
(1.00165 -4.69501e-05 0)
(1.00152 -3.18664e-05 0)
(1.00141 -2.07982e-05 0)
(1.00134 -1.27061e-05 0)
(1.00129 -6.77592e-06 0)
(1.00126 -2.17239e-06 0)
(0.98859 -0.0713992 0)
(1.21956 -0.0972644 0)
(1.24326 -0.0879525 0)
(1.22403 -0.0760646 0)
(1.20059 -0.0654256 0)
(1.1783 -0.0569844 0)
(1.15803 -0.0489049 0)
(1.13991 -0.0420869 0)
(1.12382 -0.0362217 0)
(1.10958 -0.031186 0)
(1.09697 -0.0268671 0)
(1.08584 -0.023165 0)
(1.076 -0.0199895 0)
(1.0673 -0.0172612 0)
(1.0596 -0.0149126 0)
(1.0528 -0.0128873 0)
(1.04678 -0.0111368 0)
(1.04145 -0.0096222 0)
(1.03674 -0.00830825 0)
(1.03256 -0.00716745 0)
(1.02886 -0.00617667 0)
(1.02558 -0.0053143 0)
(1.02267 -0.00456431 0)
(1.02009 -0.00391126 0)
(1.0178 -0.00334291 0)
(1.01577 -0.00284834 0)
(1.01397 -0.0024183 0)
(1.01237 -0.00204477 0)
(1.01095 -0.00172079 0)
(1.0097 -0.00144034 0)
(1.00858 -0.00119812 0)
(1.00759 -0.000989563 0)
(1.00671 -0.000810605 0)
(1.00593 -0.000657685 0)
(1.00524 -0.000527761 0)
(1.00463 -0.000417929 0)
(1.0041 -0.000325797 0)
(1.00362 -0.000249246 0)
(1.00321 -0.000186259 0)
(1.00285 -0.000135155 0)
(1.00253 -9.44148e-05 0)
(1.00226 -6.26278e-05 0)
(1.00202 -3.85157e-05 0)
(1.00182 -2.0941e-05 0)
(1.00166 -8.89032e-06 0)
(1.00152 -1.33527e-06 0)
(1.00142 2.58288e-06 0)
(1.00134 3.80167e-06 0)
(1.00129 3.05225e-06 0)
(1.00126 1.09686e-06 0)
(0.972347 -0.0601999 0)
(1.21799 -0.0862997 0)
(1.24586 -0.0760527 0)
(1.22755 -0.0657159 0)
(1.20404 -0.0565431 0)
(1.18137 -0.0492395 0)
(1.16072 -0.042248 0)
(1.14227 -0.036428 0)
(1.12588 -0.0314159 0)
(1.11135 -0.027095 0)
(1.09851 -0.023375 0)
(1.08716 -0.0201743 0)
(1.07713 -0.0174185 0)
(1.06827 -0.0150425 0)
(1.06045 -0.0129909 0)
(1.05353 -0.0112172 0)
(1.04741 -0.00968079 0)
(1.042 -0.00834905 0)
(1.03721 -0.00719217 0)
(1.03297 -0.00618673 0)
(1.02922 -0.005313 0)
(1.02589 -0.0045523 0)
(1.02294 -0.00389088 0)
(1.02033 -0.00331521 0)
(1.01801 -0.00281466 0)
(1.01595 -0.00237967 0)
(1.01413 -0.0020021 0)
(1.01251 -0.00167491 0)
(1.01107 -0.00139192 0)
(1.0098 -0.00114778 0)
(1.00867 -0.000937831 0)
(1.00766 -0.000757995 0)
(1.00677 -0.000604634 0)
(1.00599 -0.000474578 0)
(1.00529 -0.000365153 0)
(1.00467 -0.000273692 0)
(1.00413 -0.000198064 0)
(1.00365 -0.000136449 0)
(1.00323 -8.69746e-05 0)
(1.00286 -4.81281e-05 0)
(1.00254 -1.85933e-05 0)
(1.00226 2.92558e-06 0)
(1.00203 1.75878e-05 0)
(1.00183 2.63834e-05 0)
(1.00166 3.02303e-05 0)
(1.00152 3.00468e-05 0)
(1.00142 2.66115e-05 0)
(1.00134 2.07643e-05 0)
(1.00128 1.315e-05 0)
(1.00126 4.45454e-06 0)
(0.959513 -0.0494471 0)
(1.21719 -0.0750715 0)
(1.24861 -0.0637721 0)
(1.23114 -0.0551939 0)
(1.20735 -0.0474685 0)
(1.18418 -0.0412959 0)
(1.16314 -0.0354284 0)
(1.14438 -0.0306299 0)
(1.12772 -0.0264819 0)
(1.11294 -0.0228884 0)
(1.09988 -0.0197812 0)
(1.08834 -0.0170948 0)
(1.07816 -0.0147702 0)
(1.06916 -0.0127567 0)
(1.06122 -0.0110111 0)
(1.0542 -0.00949665 0)
(1.04799 -0.0081809 0)
(1.04251 -0.00703777 0)
(1.03765 -0.00604285 0)
(1.03336 -0.00517698 0)
(1.02955 -0.00442394 0)
(1.02618 -0.00376807 0)
(1.0232 -0.00319793 0)
(1.02055 -0.00270206 0)
(1.0182 -0.00227141 0)
(1.01612 -0.00189777 0)
(1.01427 -0.00157425 0)
(1.01263 -0.00129478 0)
(1.01118 -0.00105399 0)
(1.00989 -0.000847251 0)
(1.00874 -0.000670504 0)
(1.00773 -0.00052024 0)
(1.00683 -0.000393204 0)
(1.00603 -0.000286641 0)
(1.00533 -0.000198293 0)
(1.00471 -0.000125723 0)
(1.00416 -6.70542e-05 0)
(1.00367 -2.08056e-05 0)
(1.00325 1.47942e-05 0)
(1.00287 4.10828e-05 0)
(1.00255 5.91139e-05 0)
(1.00227 7.00991e-05 0)
(1.00203 7.5061e-05 0)
(1.00183 7.48547e-05 0)
(1.00166 7.02927e-05 0)
(1.00152 6.21876e-05 0)
(1.00141 5.12172e-05 0)
(1.00133 3.81269e-05 0)
(1.00128 2.34861e-05 0)
(1.00125 7.8904e-06 0)
(0.950384 -0.0388677 0)
(1.21696 -0.0633071 0)
(1.25126 -0.0510413 0)
(1.23457 -0.0444635 0)
(1.21032 -0.0381345 0)
(1.18661 -0.0331375 0)
(1.16521 -0.0284537 0)
(1.14619 -0.0247048 0)
(1.12928 -0.021433 0)
(1.1143 -0.0185803 0)
(1.10106 -0.0160986 0)
(1.08937 -0.0139375 0)
(1.07905 -0.0120538 0)
(1.06994 -0.0104116 0)
(1.06189 -0.00897963 0)
(1.05478 -0.00773115 0)
(1.0485 -0.0066419 0)
(1.04295 -0.0056924 0)
(1.03804 -0.00486378 0)
(1.03369 -0.00414123 0)
(1.02984 -0.00351215 0)
(1.02644 -0.00296396 0)
(1.02342 -0.00248761 0)
(1.02074 -0.00207365 0)
(1.01837 -0.00171475 0)
(1.01626 -0.00140414 0)
(1.0144 -0.00113609 0)
(1.01274 -0.000905615 0)
(1.01127 -0.000708143 0)
(1.00997 -0.000539732 0)
(1.00881 -0.000397028 0)
(1.00779 -0.000277097 0)
(1.00688 -0.000177053 0)
(1.00607 -9.45384e-05 0)
(1.00536 -2.78348e-05 0)
(1.00473 2.53872e-05 0)
(1.00418 6.67433e-05 0)
(1.00369 9.72652e-05 0)
(1.00326 0.000118671 0)
(1.00288 0.000132096 0)
(1.00255 0.000138382 0)
(1.00227 0.000138608 0)
(1.00203 0.000133653 0)
(1.00182 0.000124263 0)
(1.00165 0.000111122 0)
(1.00151 9.49411e-05 0)
(1.0014 7.62895e-05 0)
(1.00132 5.58155e-05 0)
(1.00127 3.4015e-05 0)
(1.00124 1.13893e-05 0)
(0.944882 -0.028275 0)
(1.21716 -0.0507337 0)
(1.25356 -0.0378073 0)
(1.23757 -0.0334933 0)
(1.21274 -0.0285126 0)
(1.18853 -0.0247747 0)
(1.16685 -0.0213473 0)
(1.14761 -0.0186719 0)
(1.13051 -0.0162883 0)
(1.11537 -0.0141897 0)
(1.102 -0.0123443 0)
(1.09019 -0.0107171 0)
(1.07977 -0.00928205 0)
(1.07056 -0.00801794 0)
(1.06244 -0.00690565 0)
(1.05526 -0.00592844 0)
(1.04892 -0.00507038 0)
(1.04331 -0.00431869 0)
(1.03836 -0.00365998 0)
(1.03397 -0.00308383 0)
(1.03009 -0.00258144 0)
(1.02665 -0.00214331 0)
(1.0236 -0.0017628 0)
(1.0209 -0.00143265 0)
(1.0185 -0.00114712 0)
(1.01638 -0.000900844 0)
(1.0145 -0.000689484 0)
(1.01283 -0.000509068 0)
(1.01134 -0.000355845 0)
(1.01003 -0.000226587 0)
(1.00886 -0.000118636 0)
(1.00783 -2.97023e-05 0)
(1.00691 4.28021e-05 0)
(1.0061 0.000100808 0)
(1.00538 0.000145473 0)
(1.00475 0.000178966 0)
(1.00419 0.000202622 0)
(1.0037 0.000217172 0)
(1.00326 0.000224128 0)
(1.00288 0.00022443 0)
(1.00255 0.000218789 0)
(1.00227 0.000208087 0)
(1.00202 0.000193057 0)
(1.00182 0.000174339 0)
(1.00164 0.000152494 0)
(1.0015 0.000128123 0)
(1.00139 0.000101687 0)
(1.00131 7.37341e-05 0)
(1.00126 4.46793e-05 0)
(1.00123 1.49324e-05 0)
(0.942419 -0.0171822 0)
(1.21741 -0.0370821 0)
(1.25542 -0.0240491 0)
(1.23993 -0.0222793 0)
(1.21442 -0.0185968 0)
(1.18985 -0.0162541 0)
(1.16798 -0.014144 0)
(1.14859 -0.0125576 0)
(1.13136 -0.0110741 0)
(1.11613 -0.00974099 0)
(1.10267 -0.00853877 0)
(1.09078 -0.00745102 0)
(1.08029 -0.00646976 0)
(1.07103 -0.00558843 0)
(1.06285 -0.00480001 0)
(1.05562 -0.00409788 0)
(1.04924 -0.00347443 0)
(1.04359 -0.00292359 0)
(1.0386 -0.00243736 0)
(1.03418 -0.0020099 0)
(1.03027 -0.00163632 0)
(1.02681 -0.00131009 0)
(1.02374 -0.00102704 0)
(1.02102 -0.000782079 0)
(1.01861 -0.000571147 0)
(1.01647 -0.000390315 0)
(1.01457 -0.000236588 0)
(1.01289 -0.000107084 0)
(1.0114 1.14053e-06 0)
(1.01008 9.06314e-05 0)
(1.0089 0.000163281 0)
(1.00786 0.000220778 0)
(1.00694 0.000265301 0)
(1.00612 0.000298357 0)
(1.0054 0.000320723 0)
(1.00476 0.000334202 0)
(1.00419 0.000339855 0)
(1.0037 0.000338251 0)
(1.00326 0.00033058 0)
(1.00288 0.000317586 0)
(1.00255 0.000299882 0)
(1.00226 0.000278138 0)
(1.00201 0.000252936 0)
(1.00181 0.0002248 0)
(1.00163 0.000194172 0)
(1.00149 0.00016154 0)
(1.00138 0.000127259 0)
(1.0013 9.17757e-05 0)
(1.00125 5.5416e-05 0)
(1.00122 1.8499e-05 0)
(0.942929 -0.0052772 0)
(1.21773 -0.0222174 0)
(1.25677 -0.00978182 0)
(1.24149 -0.0107624 0)
(1.21527 -0.00842441 0)
(1.19054 -0.00763458 0)
(1.16858 -0.00688278 0)
(1.14911 -0.00639321 0)
(1.13183 -0.0058203 0)
(1.11655 -0.00526068 0)
(1.10306 -0.00470492 0)
(1.09115 -0.00415895 0)
(1.08062 -0.00363363 0)
(1.07133 -0.00313715 0)
(1.06312 -0.00267463 0)
(1.05587 -0.00224952 0)
(1.04946 -0.00186245 0)
(1.04379 -0.00151428 0)
(1.03877 -0.00120229 0)
(1.03433 -0.000924986 0)
(1.0304 -0.000681544 0)
(1.02692 -0.000468419 0)
(1.02384 -0.00028389 0)
(1.0211 -0.000125118 0)
(1.01868 1.03222e-05 0)
(1.01653 0.000124991 0)
(1.01463 0.000220443 0)
(1.01293 0.000298446 0)
(1.01143 0.000361191 0)
(1.0101 0.000410438 0)
(1.00892 0.000447355 0)
(1.00788 0.000473105 0)
(1.00695 0.000489338 0)
(1.00613 0.000497155 0)
(1.0054 0.000497025 0)
(1.00476 0.000490303 0)
(1.00419 0.00047777 0)
(1.00369 0.000459878 0)
(1.00325 0.000437473 0)
(1.00287 0.000411099 0)
(1.00254 0.000381243 0)
(1.00225 0.000348389 0)
(1.002 0.00031297 0)
(1.00179 0.000275376 0)
(1.00162 0.000235933 0)
(1.00148 0.000195013 0)
(1.00136 0.000152869 0)
(1.00128 0.000109841 0)
(1.00123 6.61654e-05 0)
(1.0012 2.20696e-05 0)
(0.945551 0.00794976 0)
(1.21765 -0.00604049 0)
(1.25768 0.00495797 0)
(1.24202 0.0010472 0)
(1.21533 0.00195126 0)
(1.19058 0.00100886 0)
(1.16861 0.000398939 0)
(1.14914 -0.00021673 0)
(1.13189 -0.000560681 0)
(1.11665 -0.00077582 0)
(1.10318 -0.000865 0)
(1.09128 -0.000859955 0)
(1.08076 -0.000789934 0)
(1.07147 -0.000677895 0)
(1.06325 -0.000541157 0)
(1.05599 -0.0003932 0)
(1.04957 -0.000242925 0)
(1.04389 -9.83404e-05 0)
(1.03887 3.8989e-05 0)
(1.03442 0.000165879 0)
(1.03048 0.000278438 0)
(1.02699 0.00037784 0)
(1.02389 0.00046332 0)
(1.02115 0.000535319 0)
(1.01872 0.000594858 0)
(1.01656 0.000642964 0)
(1.01465 0.000679611 0)
(1.01295 0.000705826 0)
(1.01145 0.000722795 0)
(1.01011 0.000731472 0)
(1.00893 0.00073241 0)
(1.00788 0.000726231 0)
(1.00695 0.000713995 0)
(1.00612 0.000696396 0)
(1.00539 0.000673634 0)
(1.00475 0.000646616 0)
(1.00418 0.000615821 0)
(1.00368 0.000581555 0)
(1.00324 0.000544358 0)
(1.00286 0.000504579 0)
(1.00252 0.000462536 0)
(1.00223 0.000418548 0)
(1.00198 0.000372902 0)
(1.00177 0.000325852 0)
(1.0016 0.000277599 0)
(1.00146 0.000228402 0)
(1.00134 0.000178408 0)
(1.00126 0.000127852 0)
(1.00121 7.68815e-05 0)
(1.00118 2.56286e-05 0)
(0.950158 0.022534 0)
(1.21703 0.0112849 0)
(1.25804 0.0200565 0)
(1.24139 0.0132305 0)
(1.21464 0.0123938 0)
(1.18996 0.00964111 0)
(1.16809 0.00766263 0)
(1.14872 0.00593664 0)
(1.13158 0.00466857 0)
(1.11643 0.00368412 0)
(1.10304 0.00295713 0)
(1.09119 0.00242645 0)
(1.08071 0.00204531 0)
(1.07145 0.00177605 0)
(1.06325 0.00158924 0)
(1.056 0.00146153 0)
(1.04959 0.00137588 0)
(1.04391 0.00131854 0)
(1.03889 0.00128175 0)
(1.03444 0.0012576 0)
(1.0305 0.00123952 0)
(1.027 0.00122524 0)
(1.02391 0.0012116 0)
(1.02116 0.00119686 0)
(1.01873 0.00118039 0)
(1.01657 0.00116165 0)
(1.01465 0.00113935 0)
(1.01295 0.00111368 0)
(1.01145 0.00108475 0)
(1.01011 0.00105271 0)
(1.00892 0.00101756 0)
(1.00787 0.000979359 0)
(1.00694 0.000938583 0)
(1.00611 0.000895495 0)
(1.00538 0.00085003 0)
(1.00473 0.000802678 0)
(1.00416 0.000753611 0)
(1.00366 0.000702938 0)
(1.00322 0.000650932 0)
(1.00283 0.000597751 0)
(1.0025 0.000543531 0)
(1.00221 0.000488423 0)
(1.00196 0.000432566 0)
(1.00175 0.000376083 0)
(1.00157 0.000319052 0)
(1.00143 0.000261612 0)
(1.00132 0.000203804 0)
(1.00124 0.000145761 0)
(1.00118 8.75348e-05 0)
(1.00116 2.91664e-05 0)
(0.955836 0.0390597 0)
(1.216 0.0296156 0)
(1.25715 0.0354091 0)
(1.23969 0.0256781 0)
(1.21312 0.022801 0)
(1.18867 0.0182097 0)
(1.16702 0.0148584 0)
(1.14785 0.0120232 0)
(1.1309 0.0098384 0)
(1.11591 0.00809539 0)
(1.10263 0.00673992 0)
(1.09088 0.00568211 0)
(1.08048 0.00485702 0)
(1.07127 0.00421223 0)
(1.06312 0.00370632 0)
(1.0559 0.00330638 0)
(1.04951 0.00298765 0)
(1.04385 0.00273031 0)
(1.03884 0.0025205 0)
(1.0344 0.00234635 0)
(1.03046 0.00219844 0)
(1.02697 0.00207105 0)
(1.02388 0.00195864 0)
(1.02114 0.00185755 0)
(1.0187 0.00176526 0)
(1.01655 0.00167967 0)
(1.01463 0.00159855 0)
(1.01293 0.00152104 0)
(1.01142 0.00144621 0)
(1.01008 0.00137348 0)
(1.0089 0.00130223 0)
(1.00784 0.00123199 0)
(1.00691 0.00116268 0)
(1.00608 0.00109411 0)
(1.00535 0.00102593 0)
(1.00471 0.000958243 0)
(1.00414 0.000890921 0)
(1.00363 0.000823853 0)
(1.00319 0.000757054 0)
(1.00281 0.000690489 0)
(1.00247 0.000624121 0)
(1.00218 0.000557926 0)
(1.00193 0.000491894 0)
(1.00172 0.000426015 0)
(1.00155 0.000360245 0)
(1.0014 0.000294605 0)
(1.00129 0.00022903 0)
(1.00121 0.000163547 0)
(1.00116 9.81143e-05 0)
(1.00113 3.26793e-05 0)
(0.961899 0.0569943 0)
(1.21434 0.0487711 0)
(1.25468 0.0508745 0)
(1.23694 0.0381822 0)
(1.21073 0.0330858 0)
(1.18671 0.0266442 0)
(1.1654 0.0219349 0)
(1.14655 0.0180008 0)
(1.12987 0.0149166 0)
(1.11509 0.0124336 0)
(1.10199 0.010464 0)
(1.09037 0.00889115 0)
(1.08007 0.00763211 0)
(1.07094 0.00661985 0)
(1.06286 0.00580127 0)
(1.05569 0.00513418 0)
(1.04934 0.0045863 0)
(1.04371 0.00413169 0)
(1.03872 0.0037512 0)
(1.0343 0.00342907 0)
(1.03038 0.00315266 0)
(1.0269 0.00291319 0)
(1.02381 0.0027028 0)
(1.02108 0.00251595 0)
(1.01865 0.00234826 0)
(1.0165 0.00219615 0)
(1.01458 0.0020565 0)
(1.01289 0.0019273 0)
(1.01138 0.00180672 0)
(1.01004 0.00169341 0)
(1.00886 0.00158614 0)
(1.00781 0.00148391 0)
(1.00687 0.00138611 0)
(1.00605 0.00129211 0)
(1.00532 0.00120125 0)
(1.00467 0.00111325 0)
(1.0041 0.0010277 0)
(1.0036 0.000944273 0)
(1.00316 0.000862713 0)
(1.00278 0.000782796 0)
(1.00244 0.00070431 0)
(1.00215 0.000627065 0)
(1.0019 0.000550897 0)
(1.00169 0.000475661 0)
(1.00152 0.000401194 0)
(1.00137 0.000327395 0)
(1.00126 0.000254097 0)
(1.00118 0.000181219 0)
(1.00113 0.000108625 0)
(1.0011 3.61691e-05 0)
(0.96767 0.0758889 0)
(1.21163 0.0684477 0)
(1.25059 0.0662294 0)
(1.23305 0.0505114 0)
(1.2075 0.0431445 0)
(1.18407 0.0348727 0)
(1.16325 0.0288386 0)
(1.14482 0.0238293 0)
(1.12849 0.0198727 0)
(1.11398 0.0166741 0)
(1.10109 0.0141102 0)
(1.08965 0.0120385 0)
(1.07949 0.0103587 0)
(1.07047 0.00898937 0)
(1.06247 0.00786641 0)
(1.05537 0.00693866 0)
(1.04907 0.00616669 0)
(1.04349 0.00551878 0)
(1.03853 0.00497086 0)
(1.03414 0.00450326 0)
(1.03024 0.0041002 0)
(1.02678 0.00375012 0)
(1.02371 0.00344289 0)
(1.02098 0.00317109 0)
(1.01857 0.00292863 0)
(1.01642 0.00271059 0)
(1.01451 0.0025128 0)
(1.01282 0.00233219 0)
(1.01132 0.00216608 0)
(1.00999 0.00201237 0)
(1.00881 0.00186922 0)
(1.00776 0.0017351 0)
(1.00683 0.00160889 0)
(1.006 0.00148954 0)
(1.00527 0.00137604 0)
(1.00463 0.00126777 0)
(1.00406 0.00116404 0)
(1.00356 0.00106428 0)
(1.00312 0.000967997 0)
(1.00274 0.000874761 0)
(1.0024 0.000784187 0)
(1.00211 0.000695921 0)
(1.00187 0.000609648 0)
(1.00166 0.000525089 0)
(1.00148 0.000441956 0)
(1.00134 0.000360032 0)
(1.00123 0.000279044 0)
(1.00115 0.000198805 0)
(1.00109 0.000119083 0)
(1.00106 3.96414e-05 0)
(0.972424 0.0951556 0)
(1.20752 0.0881894 0)
(1.2449 0.081178 0)
(1.22798 0.0624361 0)
(1.20341 0.0528584 0)
(1.18077 0.0428251 0)
(1.16058 0.0355151 0)
(1.14268 0.0294697 0)
(1.12676 0.0246782 0)
(1.11259 0.0207944 0)
(1.09997 0.0176608 0)
(1.08874 0.0151104 0)
(1.07874 0.0130258 0)
(1.06986 0.0113123 0)
(1.06196 0.00989501 0)
(1.05495 0.00871456 0)
(1.04872 0.00772477 0)
(1.04319 0.0068885 0)
(1.03828 0.00617699 0)
(1.03392 0.00556694 0)
(1.03005 0.00503957 0)
(1.02661 0.00458069 0)
(1.02356 0.00417802 0)
(1.02085 0.00382233 0)
(1.01845 0.00350593 0)
(1.01631 0.00322265 0)
(1.01442 0.00296724 0)
(1.01274 0.00273559 0)
(1.01124 0.00252424 0)
(1.00991 0.00233037 0)
(1.00874 0.00215152 0)
(1.00769 0.00198565 0)
(1.00677 0.00183112 0)
(1.00595 0.0016865 0)
(1.00522 0.00155044 0)
(1.00458 0.00142195 0)
(1.00401 0.00130008 0)
(1.00352 0.00118402 0)
(1.00308 0.00107304 0)
(1.0027 0.000966512 0)
(1.00236 0.000863873 0)
(1.00207 0.000764606 0)
(1.00183 0.00066825 0)
(1.00162 0.000574387 0)
(1.00144 0.000482609 0)
(1.0013 0.00039258 0)
(1.00119 0.000303921 0)
(1.00111 0.000216341 0)
(1.00106 0.000129512 0)
(1.00103 4.31036e-05 0)
(0.97556 0.114028 0)
(1.2018 0.107452 0)
(1.23771 0.0953899 0)
(1.22178 0.0737422 0)
(1.19849 0.0621072 0)
(1.17681 0.0504263 0)
(1.15742 0.0419096 0)
(1.14014 0.0348844 0)
(1.12472 0.0293057 0)
(1.11093 0.024774 0)
(1.09862 0.0211001 0)
(1.08763 0.0180944 0)
(1.07784 0.0156239 0)
(1.06911 0.013581 0)
(1.06134 0.0118812 0)
(1.05442 0.0104574 0)
(1.04828 0.00925704 0)
(1.04281 0.00823806 0)
(1.03795 0.00736744 0)
(1.03364 0.00661844 0)
(1.02981 0.00596948 0)
(1.0264 0.0054039 0)
(1.02338 0.00490743 0)
(1.02069 0.00446911 0)
(1.0183 0.0040798 0)
(1.01618 0.00373206 0)
(1.0143 0.0034196 0)
(1.01263 0.00313738 0)
(1.01114 0.00288114 0)
(1.00982 0.00264739 0)
(1.00865 0.00243306 0)
(1.00762 0.00223559 0)
(1.0067 0.00205288 0)
(1.00588 0.00188308 0)
(1.00516 0.00172452 0)
(1.00452 0.00157588 0)
(1.00396 0.00143592 0)
(1.00346 0.00130359 0)
(1.00303 0.00117794 0)
(1.00265 0.00105814 0)
(1.00232 0.000943461 0)
(1.00203 0.000833209 0)
(1.00178 0.000726781 0)
(1.00158 0.000623627 0)
(1.0014 0.000523214 0)
(1.00126 0.000425088 0)
(1.00115 0.000328768 0)
(1.00107 0.000233856 0)
(1.00102 0.000139928 0)
(1.00099 4.65616e-05 0)
(0.976668 0.131739 0)
(1.19438 0.125623 0)
(1.2292 0.108505 0)
(1.21453 0.0842618 0)
(1.19275 0.0707818 0)
(1.17225 0.0576004 0)
(1.15378 0.0479697 0)
(1.13723 0.0400379 0)
(1.12236 0.0337295 0)
(1.10902 0.028594 0)
(1.09705 0.024414 0)
(1.08635 0.02098 0)
(1.07677 0.0181447 0)
(1.06822 0.0157893 0)
(1.0606 0.0138201 0)
(1.0538 0.0121631 0)
(1.04775 0.0107604 0)
(1.04236 0.00956501 0)
(1.03757 0.00854022 0)
(1.03331 0.00765617 0)
(1.02952 0.00688864 0)
(1.02615 0.00621873 0)
(1.02315 0.00563029 0)
(1.02049 0.0051108 0)
(1.01813 0.0046497 0)
(1.01602 0.00423836 0)
(1.01416 0.00386954 0)
(1.0125 0.00353728 0)
(1.01103 0.00323658 0)
(1.00972 0.00296327 0)
(1.00856 0.0027137 0)
(1.00753 0.00248484 0)
(1.00661 0.0022741 0)
(1.0058 0.00207924 0)
(1.00509 0.00189828 0)
(1.00445 0.00172955 0)
(1.00389 0.00157156 0)
(1.0034 0.001423 0)
(1.00297 0.00128272 0)
(1.00259 0.00114968 0)
(1.00226 0.00102297 0)
(1.00198 0.000901751 0)
(1.00174 0.000785265 0)
(1.00153 0.000672829 0)
(1.00136 0.000563789 0)
(1.00122 0.000457574 0)
(1.00111 0.000353598 0)
(1.00103 0.000251359 0)
(1.00097 0.000150338 0)
(1.00095 5.00173e-05 0)
(0.975661 0.147601 0)
(1.18542 0.142103 0)
(1.2195 0.120187 0)
(1.20633 0.0938556 0)
(1.18628 0.0787869 0)
(1.16713 0.0642758 0)
(1.14971 0.0536466 0)
(1.13397 0.0448971 0)
(1.11972 0.037926 0)
(1.10687 0.032237 0)
(1.09529 0.0275893 0)
(1.08489 0.023757 0)
(1.07556 0.0205806 0)
(1.06721 0.017931 0)
(1.05975 0.0157068 0)
(1.05308 0.0138279 0)
(1.04714 0.0122315 0)
(1.04184 0.0108667 0)
(1.03712 0.00969312 0)
(1.03292 0.00867823 0)
(1.02918 0.00779543 0)
(1.02585 0.00702377 0)
(1.02289 0.0063454 0)
(1.02026 0.00574633 0)
(1.01792 0.00521469 0)
(1.01584 0.00474075 0)
(1.01399 0.00431633 0)
(1.01235 0.00393465 0)
(1.01089 0.00358998 0)
(1.00959 0.00327749 0)
(1.00844 0.00299301 0)
(1.00742 0.00273299 0)
(1.00652 0.00249442 0)
(1.00572 0.00227468 0)
(1.005 0.00207143 0)
(1.00438 0.00188272 0)
(1.00382 0.00170678 0)
(1.00334 0.00154207 0)
(1.00291 0.00138721 0)
(1.00253 0.00124098 0)
(1.00221 0.00110228 0)
(1.00192 0.000970127 0)
(1.00168 0.000843612 0)
(1.00148 0.000721919 0)
(1.00131 0.000604273 0)
(1.00117 0.00048999 0)
(1.00106 0.000378375 0)
(1.00098 0.000268825 0)
(1.00093 0.000160725 0)
(1.0009 5.34656e-05 0)
(0.972829 0.161072 0)
(1.17528 0.156397 0)
(1.20873 0.130186 0)
(1.19731 0.102406 0)
(1.17916 0.0860396 0)
(1.16152 0.0703906 0)
(1.14526 0.0588988 0)
(1.13039 0.0494348 0)
(1.11682 0.041876 0)
(1.1045 0.0356886 0)
(1.09334 0.0306153 0)
(1.08328 0.0264173 0)
(1.07422 0.0229251 0)
(1.06609 0.0200009 0)
(1.0588 0.0175369 0)
(1.05228 0.0154481 0)
(1.04645 0.0136674 0)
(1.04125 0.0121403 0)
(1.03661 0.0108237 0)
(1.03247 0.00968245 0)
(1.02879 0.0086879 0)
(1.02551 0.00781728 0)
(1.02259 0.00705118 0)
(1.01999 0.00637426 0)
(1.01768 0.00577346 0)
(1.01563 0.00523802 0)
(1.0138 0.00475891 0)
(1.01218 0.00432853 0)
(1.01074 0.00394046 0)
(1.00946 0.00358927 0)
(1.00832 0.00327025 0)
(1.00731 0.00297939 0)
(1.00641 0.00271325 0)
(1.00562 0.00246883 0)
(1.00491 0.00224349 0)
(1.00429 0.00203495 0)
(1.00374 0.00184119 0)
(1.00326 0.00166043 0)
(1.00284 0.00149109 0)
(1.00247 0.00133175 0)
(1.00214 0.00118114 0)
(1.00187 0.00103812 0)
(1.00163 0.000901633 0)
(1.00142 0.000770736 0)
(1.00125 0.000644534 0)
(1.00112 0.000522226 0)
(1.00101 0.000403015 0)
(1.00093 0.000286195 0)
(1.00088 0.000171055 0)
(1.00085 5.68948e-05 0)
(0.968712 0.171818 0)
(1.16437 0.168177 0)
(1.19712 0.138353 0)
(1.18761 0.109817 0)
(1.17151 0.0924729 0)
(1.1555 0.0758913 0)
(1.14049 0.0636914 0)
(1.12654 0.0536277 0)
(1.11369 0.0455622 0)
(1.10193 0.0389355 0)
(1.09122 0.0334814 0)
(1.08152 0.0289525 0)
(1.07275 0.0251712 0)
(1.06485 0.021993 0)
(1.05775 0.0193053 0)
(1.05138 0.017019 0)
(1.04569 0.0150638 0)
(1.04059 0.0133822 0)
(1.03604 0.0119285 0)
(1.03198 0.0106657 0)
(1.02836 0.00956319 0)
(1.02513 0.0085966 0)
(1.02226 0.00774519 0)
(1.0197 0.00699235 0)
(1.01742 0.00632394 0)
(1.01539 0.00572829 0)
(1.01359 0.00519552 0)
(1.01199 0.00471729 0)
(1.01057 0.00428653 0)
(1.0093 0.00389723 0)
(1.00818 0.00354417 0)
(1.00718 0.0032229 0)
(1.00629 0.00292954 0)
(1.00551 0.00266076 0)
(1.00481 0.00241358 0)
(1.0042 0.00218545 0)
(1.00366 0.00197407 0)
(1.00318 0.00177745 0)
(1.00276 0.00159379 0)
(1.0024 0.00142148 0)
(1.00208 0.0012591 0)
(1.0018 0.00110532 0)
(1.00157 0.000958978 0)
(1.00137 0.000818982 0)
(1.0012 0.00068432 0)
(1.00106 0.00055408 0)
(1.00096 0.000427362 0)
(1.00088 0.000303358 0)
(1.00083 0.000181262 0)
(1.0008 6.02829e-05 0)
(0.96394 0.179731 0)
(1.15309 0.177285 0)
(1.18496 0.144658 0)
(1.17738 0.116044 0)
(1.16345 0.0980323 0)
(1.14917 0.0807401 0)
(1.13544 0.0680021 0)
(1.12247 0.0574603 0)
(1.11036 0.0489721 0)
(1.09919 0.041968 0)
(1.08896 0.0361799 0)
(1.07963 0.0313561 0)
(1.07116 0.0273133 0)
(1.06351 0.0239023 0)
(1.05661 0.0210073 0)
(1.05041 0.0185364 0)
(1.04485 0.0164167 0)
(1.03987 0.0145885 0)
(1.03541 0.0130041 0)
(1.03143 0.0116247 0)
(1.02788 0.0104182 0)
(1.02471 0.00935891 0)
(1.02189 0.00842477 0)
(1.01937 0.00759813 0)
(1.01713 0.00686388 0)
(1.01513 0.00620945 0)
(1.01336 0.00562422 0)
(1.01178 0.00509915 0)
(1.01038 0.00462656 0)
(1.00913 0.00419987 0)
(1.00802 0.0038134 0)
(1.00704 0.00346224 0)
(1.00616 0.00314214 0)
(1.00539 0.0028494 0)
(1.00471 0.00258075 0)
(1.0041 0.00233334 0)
(1.00357 0.00210463 0)
(1.00309 0.00189241 0)
(1.00268 0.00169466 0)
(1.00232 0.0015096 0)
(1.00201 0.00133563 0)
(1.00173 0.00117129 0)
(1.0015 0.00101526 0)
(1.0013 0.000866321 0)
(1.00114 0.000723352 0)
(1.001 0.000585326 0)
(1.0009 0.000451242 0)
(1.00082 0.000320189 0)
(1.00077 0.000191271 0)
(1.00075 6.36051e-05 0)
(0.959123 0.184899 0)
(1.14181 0.183715 0)
(1.17254 0.149161 0)
(1.16684 0.121085 0)
(1.15515 0.10268 0)
(1.14262 0.0849135 0)
(1.13019 0.0718167 0)
(1.1182 0.0609196 0)
(1.10687 0.052094 0)
(1.09631 0.0447755 0)
(1.08656 0.038702 0)
(1.07762 0.0336203 0)
(1.06947 0.0293441 0)
(1.06208 0.0257219 0)
(1.05539 0.0226364 0)