/*--------------------------------*- C++ -*----------------------------------*\
  =========                 |
  \\      /  F ield         | OpenFOAM: The Open Source CFD Toolbox
   \\    /   O peration     | Website:  https://openfoam.org
    \\  /    A nd           | Version:  7
     \\/     M anipulation  |
\*---------------------------------------------------------------------------*/
FoamFile
{
    version     2.0;
    format      ascii;
    class       volScalarField;
    location    "20";
    object      p;
}
// * * * * * * * * * * * * * * * * * * * * * * * * * * * * * * * * * * * * * //

dimensions      [0 2 -2 0 0 0 0];

internalField   nonuniform List<scalar> 
3312
(
-0.23992
-0.247165
-0.242228
-0.247797
-0.244523
-0.250656
-0.248504
-0.246539
-0.251907
-0.250768
-0.249257
-0.248175
-0.25165
-0.250891
-0.249918
-0.249306
-0.251803
-0.251393
-0.250949
-0.250418
-0.249935
-0.251294
-0.251101
-0.250886
-0.250611
-0.250633
-0.250794
-0.250788
-0.250766
-0.250733
-0.250671
-0.250926
-0.250185
-0.250298
-0.250404
-0.250507
-0.250604
-0.250953
-0.249649
-0.24985
-0.25005
-0.250251
-0.250461
-0.250857
-0.249215
-0.249477
-0.249741
-0.25001
-0.250296
-0.250719
-0.248908
-0.249209
-0.249512
-0.249824
-0.250157
-0.250597
-0.248425
-0.24875
-0.249069
-0.249391
-0.249723
-0.250079
-0.250526
-0.22547
-0.194761
-0.168617
-0.138145
-0.114403
-0.0961885
-0.0815743
-0.0698412
-0.0602239
-0.0522683
-0.0456143
-0.0399937
-0.0352081
-0.0311046
-0.0275652
-0.0244964
-0.0218241
-0.019488
-0.0174393
-0.0156381
-0.0140501
-0.0126466
-0.011404
-0.0103016
-0.00932241
-0.00845149
-0.00767612
-0.00698526
-0.00636931
-0.00581992
-0.00532977
-0.00489247
-0.00450238
-0.00415455
-0.00384461
-0.00356871
-0.00332356
-0.00310624
-0.00291417
-0.0027451
-0.00259702
-0.00246823
-0.00235722
-0.00226271
-0.00218361
-0.00211903
-0.00206821
-0.0020306
-0.00200575
-0.00199335
-0.225724
-0.206597
-0.177917
-0.148035
-0.123452
-0.104027
-0.0883426
-0.0755914
-0.0651167
-0.0564357
-0.0491725
-0.0430414
-0.0378269
-0.0333621
-0.0295172
-0.026189
-0.0232954
-0.0207699
-0.0185584
-0.0166165
-0.0149068
-0.0133978
-0.0120632
-0.0108808
-0.00983163
-0.00889945
-0.00807036
-0.00733231
-0.00667488
-0.00608896
-0.00556665
-0.005101
-0.00468592
-0.00431608
-0.00398677
-0.00369383
-0.0034337
-0.00320324
-0.00299967
-0.00282055
-0.00266376
-0.00252744
-0.00240999
-0.00231003
-0.0022264
-0.00215813
-0.00210443
-0.00206468
-0.00203843
-0.00202535
-0.232855
-0.21295
-0.183093
-0.153812
-0.129422
-0.109656
-0.0933808
-0.0799915
-0.0689253
-0.05972
-0.0520014
-0.0454794
-0.0399314
-0.0351827
-0.0310958
-0.0275611
-0.0244908
-0.0218135
-0.0194712
-0.0174163
-0.0156084
-0.0140142
-0.0126054
-0.0113581
-0.0102522
-0.00927031
-0.00839756
-0.00762111
-0.00692986
-0.00631413
-0.00576551
-0.00527665
-0.00484107
-0.00445314
-0.00410786
-0.00380086
-0.00352836
-0.00328701
-0.00307389
-0.00288643
-0.00272238
-0.00257978
-0.00245695
-0.00235243
-0.002265
-0.00219364
-0.00213751
-0.00209598
-0.00206855
-0.00205488
-0.238128
-0.216711
-0.186185
-0.157474
-0.133588
-0.113851
-0.0972737
-0.0834816
-0.0720038
-0.0624118
-0.0543436
-0.0475135
-0.0416979
-0.0367184
-0.032433
-0.0287274
-0.0255099
-0.0227057
-0.0202535
-0.0181032
-0.0162125
-0.0145459
-0.0130739
-0.0117714
-0.0106171
-0.0095926
-0.00868241
-0.00787297
-0.00715261
-0.00651119
-0.00593987
-0.00543092
-0.0049776
-0.00457397
-0.00421483
-0.0038956
-0.0036123
-0.00336147
-0.00314001
-0.00294525
-0.00277485
-0.00262675
-0.00249919
-0.00239066
-0.0022999
-0.00222582
-0.00216756
-0.00212445
-0.00209598
-0.00208181
-0.241094
-0.219793
-0.18886
-0.160595
-0.137091
-0.117377
-0.100586
-0.086494
-0.0746959
-0.0647899
-0.0564295
-0.049337
-0.0432903
-0.0381092
-0.0336485
-0.0297911
-0.0264419
-0.0235235
-0.0209721
-0.0187353
-0.016769
-0.0150364
-0.0135066
-0.0121534
-0.0109544
-0.00989074
-0.00894598
-0.00810605
-0.00735876
-0.00669352
-0.00610114
-0.00557357
-0.00510376
-0.00468556
-0.00431353
-0.00398291
-0.00368958
-0.00342991
-0.00320068
-0.00299913
-0.00282282
-0.00266959
-0.00253763
-0.00242538
-0.0023315
-0.00225489
-0.00219465
-0.00215007
-0.00212064
-0.00210599
-0.243307
-0.223055
-0.191806
-0.163834
-0.140486
-0.120654
-0.103627
-0.0892634
-0.0771841
-0.0669991
-0.0583765
-0.0510467
-0.0447894
-0.039423
-0.0348002
-0.0308013
-0.0273289
-0.024303
-0.0216578
-0.019339
-0.0173009
-0.0155054
-0.0139204
-0.0125186
-0.0112769
-0.0101756
-0.00919765
-0.00832839
-0.00755518
-0.00686703
-0.00625437
-0.00570885
-0.00522316
-0.00479093
-0.00440649
-0.0040649
-0.00376191
-0.00349373
-0.00325704
-0.00304895
-0.00286696
-0.00270882
-0.00257263
-0.00245679
-0.00235994
-0.0022809
-0.00221875
-0.00217277
-0.00214241
-0.0021273
-0.245877
-0.22667
-0.195028
-0.16722
-0.143848
-0.123768
-0.106465
-0.0918409
-0.0795025
-0.069062
-0.0602002
-0.0526538
-0.0462031
-0.0406654
-0.0358919
-0.0317609
-0.0281727
-0.0250455
-0.0223116
-0.019915
-0.0178086
-0.0159532
-0.0143154
-0.0128672
-0.0115845
-0.0104471
-0.00943726
-0.00853983
-0.00774171
-0.00703152
-0.00639937
-0.00583659
-0.00533563
-0.00488994
-0.00449356
-0.00414145
-0.00382918
-0.00355283
-0.00330896
-0.00309461
-0.00290719
-0.00274432
-0.00260408
-0.00248481
-0.00238511
-0.00230375
-0.00223978
-0.00219245
-0.00216121
-0.00214566
-0.249069
-0.230458
-0.198238
-0.170526
-0.147024
-0.126631
-0.109044
-0.0941799
-0.081608
-0.0709392
-0.0618653
-0.0541266
-0.0475032
-0.0418116
-0.0369018
-0.0326506
-0.0289566
-0.0257364
-0.0229206
-0.020452
-0.0182823
-0.016371
-0.0146841
-0.0131924
-0.0118715
-0.0107002
-0.00966048
-0.0087366
-0.00791508
-0.00718419
-0.00653372
-0.0059547
-0.00543939
-0.00498105
-0.00457345
-0.00421141
-0.00389044
-0.00360642
-0.00335579
-0.00313555
-0.00294304
-0.00277574
-0.00263171
-0.00250922
-0.00240681
-0.00232329
-0.00225762
-0.00220903
-0.00217696
-0.002161
-0.252729
-0.234141
-0.201129
-0.173536
-0.149828
-0.12911
-0.111273
-0.0962123
-0.0834421
-0.0725809
-0.0633294
-0.0554286
-0.048658
-0.042834
-0.037806
-0.0334497
-0.0296627
-0.02636
-0.0234714
-0.0209383
-0.0187117
-0.0167501
-0.0150187
-0.0134877
-0.012132
-0.0109299
-0.00986298
-0.00891496
-0.00807205
-0.00732224
-0.00665501
-0.00606112
-0.00553263
-0.00506278
-0.00464487
-0.00427372
-0.00394476
-0.0036537
-0.00339692
-0.00317122
-0.00297407
-0.00280271
-0.00265521
-0.00252976
-0.00242488
-0.00233936
-0.00227214
-0.00222239
-0.00218956
-0.00217323
-0.256634
-0.237504
-0.203537
-0.176119
-0.15213
-0.131113
-0.113095
-0.09789
-0.0849652
-0.0739546
-0.0645651
-0.0565362
-0.0496473
-0.0437153
-0.0385897
-0.0341455
-0.0302798
-0.0269069
-0.0239556
-0.0213668
-0.0190907
-0.0170852
-0.0153148
-0.0137491
-0.0123626
-0.0111333
-0.0100422
-0.00907268
-0.0082107
-0.007444
-0.00676182
-0.00615461
-0.00561429
-0.0051342
-0.00470703
-0.00432777
-0.00399151
-0.0036942
-0.00343192
-0.00320137
-0.00299993
-0.00282496
-0.00267434
-0.00254625
-0.00243919
-0.00235188
-0.00228325
-0.00223248
-0.00219896
-0.0021823
-0.260625
-0.240422
-0.205436
-0.178217
-0.153862
-0.1326
-0.114487
-0.0991933
-0.0861616
-0.0750491
-0.0655634
-0.0574416
-0.0504643
-0.0444497
-0.0392477
-0.0347337
-0.0308043
-0.0273737
-0.0243705
-0.0217351
-0.0194172
-0.0173746
-0.0155707
-0.0139753
-0.0125622
-0.0113092
-0.0101972
-0.00920901
-0.00833032
-0.00754888
-0.00685362
-0.00623475
-0.00568395
-0.00519495
-0.00475961
-0.0043732
-0.00403056
-0.00372769
-0.00346053
-0.00322573
-0.00302057
-0.00284239
-0.00268903
-0.00255863
-0.00244965
-0.00236076
-0.00229089
-0.00223921
-0.0022051
-0.00218813
-0.264591
-0.242812
-0.206872
-0.179803
-0.154985
-0.133583
-0.115454
-0.100121
-0.0870328
-0.075867
-0.0663263
-0.0581465
-0.0511105
-0.0450383
-0.039781
-0.0352147
-0.0312366
-0.027761
-0.0247166
-0.0220435
-0.0196914
-0.0176182
-0.0157867
-0.0141663
-0.0127308
-0.0114578
-0.0103281
-0.00932392
-0.00843104
-0.00763676
-0.00693035
-0.00630153
-0.00574196
-0.00524464
-0.00480248
-0.00440987
-0.00406181
-0.00375413
-0.00348275
-0.00324431
-0.00303593
-0.00285498
-0.00269925
-0.00256685
-0.00245619
-0.00236594
-0.002295
-0.00224253
-0.0022079
-0.00219068
-0.268394
-0.244571
-0.207904
-0.180813
-0.155501
-0.134094
-0.116007
-0.100681
-0.0875874
-0.0764163
-0.0668603
-0.058656
-0.05159
-0.0454845
-0.0401924
-0.0355909
-0.0315785
-0.0280703
-0.0249948
-0.0222928
-0.019914
-0.0178169
-0.0159631
-0.0143225
-0.0128688
-0.0115792
-0.010435
-0.00941757
-0.00851295
-0.00770795
-0.00699197
-0.00635486
-0.00578779
-0.00528371
-0.0048357
-0.00443788
-0.00408531
-0.00377355
-0.00349861
-0.00325708
-0.00304598
-0.00286268
-0.00270495
-0.00257085
-0.00245878
-0.00236737
-0.00229553
-0.00224239
-0.00220731
-0.00218988
-0.271827
-0.245551
-0.208547
-0.181135
-0.155448
-0.134153
-0.116147
-0.100878
-0.0878346
-0.0767044
-0.0671712
-0.0589749
-0.0519066
-0.0457913
-0.040484
-0.0358642
-0.0318315
-0.0283024
-0.0252062
-0.0224841
-0.0200853
-0.0179709
-0.0161001
-0.0144442
-0.0129765
-0.0116739
-0.0105176
-0.00948989
-0.00857581
-0.00776225
-0.00703869
-0.00639474
-0.00582163
-0.00531217
-0.00485932
-0.00445729
-0.00410101
-0.00378591
-0.00350808
-0.003264
-0.00305068
-0.00286546
-0.00270608
-0.00257059
-0.00245736
-0.002365
-0.00229242
-0.00223873
-0.0022033
-0.00218568
-0.274563
-0.245581
-0.208737
-0.180651
-0.154868
-0.133753
-0.115873
-0.100719
-0.0877815
-0.0767366
-0.0672629
-0.0591067
-0.0520631
-0.0459606
-0.0406574
-0.0360353
-0.0319962
-0.0284578
-0.025351
-0.0226173
-0.0202067
-0.0180793
-0.0161976
-0.0145311
-0.0130534
-0.0117413
-0.0105764
-0.00954089
-0.00861961
-0.00779979
-0.00707042
-0.0064212
-0.00584353
-0.00532987
-0.00487331
-0.00446802
-0.00410883
-0.00379117
-0.00351107
-0.00326501
-0.00304996
-0.00286325
-0.00270259
-0.00256602
-0.00245188
-0.0023588
-0.00228564
-0.00223153
-0.00219582
-0.00217806
-0.27618
-0.244566
-0.20817
-0.179347
-0.153763
-0.132866
-0.115184
-0.100209
-0.0874345
-0.0765171
-0.0671394
-0.0590543
-0.0520615
-0.0459938
-0.0407133
-0.0361049
-0.0320729
-0.0285369
-0.025429
-0.0226919
-0.0202764
-0.0181433
-0.0162557
-0.0145831
-0.0130992
-0.0117816
-0.0106112
-0.00957047
-0.00864444
-0.00782042
-0.00708702
-0.0064342
-0.00585334
-0.00533671
-0.00487756
-0.00446995
-0.0041087
-0.00378922
-0.00350751
-0.00326005
-0.00304377
-0.002856
-0.00269443
-0.0025571
-0.00244233
-0.00234873
-0.00227517
-0.00222076
-0.00218485
-0.00216699
-0.276338
-0.24243
-0.206481
-0.17729
-0.152071
-0.131479
-0.11408
-0.0993563
-0.0867979
-0.076051
-0.0668056
-0.0588219
-0.0519052
-0.0458938
-0.040654
-0.0360746
-0.0320627
-0.02854
-0.0254405
-0.0227081
-0.0202955
-0.0181628
-0.0162744
-0.0146002
-0.0131144
-0.0117947
-0.0106218
-0.00957856
-0.00865023
-0.00782396
-0.00708837
-0.0064336
-0.0058509
-0.00533259
-0.00487194
-0.00446299
-0.00410054
-0.00378
-0.00349735
-0.00324907
-0.00303207
-0.00284368
-0.00268159
-0.00254381
-0.00242867
-0.00233477
-0.00226097
-0.00220639
-0.00217036
-0.00215246
-0.274682
-0.239021
-0.203509
-0.174471
-0.149747
-0.129588
-0.112568
-0.0981675
-0.0858778
-0.0753444
-0.0662667
-0.0584139
-0.0515979
-0.0456633
-0.0404816
-0.035946
-0.0319667
-0.0284682
-0.0253864
-0.0226671
-0.0202641
-0.0181379
-0.0162539
-0.0145827
-0.0130989
-0.0117805
-0.0106081
-0.00956512
-0.00863679
-0.00781029
-0.0070744
-0.00641926
-0.00583615
-0.00531744
-0.0048564
-0.00444709
-0.00408431
-0.00376347
-0.00348055
-0.00323204
-0.00301484
-0.00282627
-0.00266403
-0.00252613
-0.00241089
-0.0023169
-0.00224304
-0.00218842
-0.00215236
-0.00213444
-0.270854
-0.234142
-0.199269
-0.17084
-0.146782
-0.127197
-0.110657
-0.096651
-0.0846825
-0.0744047
-0.0655291
-0.0578353
-0.0511435
-0.0453054
-0.0401987
-0.035721
-0.0317866
-0.0283227
-0.0252679
-0.0225695
-0.0201826
-0.0180686
-0.0161942
-0.0145306
-0.0130528
-0.0117389
-0.0105702
-0.00953011
-0.00860407
-0.00777943
-0.00704507
-0.00639116
-0.00580908
-0.00529124
-0.00483092
-0.00442224
-0.00406
-0.00373963
-0.00345712
-0.00320896
-0.00299207
-0.00280377
-0.00264176
-0.00250406
-0.00238898
-0.00229513
-0.00222138
-0.00216684
-0.00213083
-0.00211294
-0.264566
-0.22764
-0.193833
-0.166374
-0.143193
-0.124322
-0.108357
-0.0948165
-0.0832219
-0.0732407
-0.0646
-0.0570919
-0.0505466
-0.0448239
-0.0398081
-0.035402
-0.0315242
-0.0281051
-0.0250858
-0.0224157
-0.0200514
-0.0179556
-0.0160959
-0.0144442
-0.0129761
-0.0116702
-0.0105082
-0.00947357
-0.00855216
-0.00773145
-0.00700042
-0.00634936
-0.00576973
-0.00525401
-0.00479554
-0.00438846
-0.00402763
-0.00370849
-0.00342706
-0.00317984
-0.00296377
-0.00277618
-0.00261478
-0.0024776
-0.00236296
-0.00226947
-0.00219599
-0.00214165
-0.00210579
-0.00208796
-0.255675
-0.219458
-0.187254
-0.161098
-0.139012
-0.120983
-0.105685
-0.092678
-0.081508
-0.0718623
-0.0634876
-0.0561906
-0.0498128
-0.0442231
-0.0393132
-0.0349917
-0.0311815
-0.0278169
-0.0248414
-0.0222068
-0.0198715
-0.0177995
-0.0159593
-0.0143238
-0.0128692
-0.0115747
-0.0104222
-0.00939569
-0.00848121
-0.00766646
-0.00694056
-0.00629394
-0.00571818
-0.00520582
-0.0047503
-0.00434581
-0.00398724
-0.00367009
-0.0033904
-0.0031447
-0.00292996
-0.00274352
-0.00258311
-0.00244677
-0.00233283
-0.00223991
-0.00216689
-0.00211288
-0.00207724
-0.00205952
-0.24421
-0.209653
-0.179595
-0.155063
-0.134274
-0.117209
-0.102666
-0.0902547
-0.0795558
-0.0702815
-0.0622014
-0.0551389
-0.048948
-0.0435079
-0.038718
-0.0344931
-0.030761
-0.0274598
-0.0245361
-0.0219441
-0.0196439
-0.017601
-0.0157851
-0.0141699
-0.0127325
-0.0114526
-0.0103125
-0.00929672
-0.00839145
-0.00758464
-0.00686563
-0.00622503
-0.00565452
-0.00514677
-0.00469528
-0.00429434
-0.00393889
-0.00362448
-0.00334719
-0.0031036
-0.00289068
-0.00270583
-0.00254679
-0.0024116
-0.00229863
-0.0022065
-0.0021341
-0.00208055
-0.0020452
-0.00202764
-0.230381
-0.198372
-0.170961
-0.148346
-0.129023
-0.113035
-0.0993266
-0.0875694
-0.077383
-0.0685119
-0.0607522
-0.0539454
-0.0479592
-0.0426836
-0.0380265
-0.0339095
-0.0302653
-0.0270362
-0.0241719
-0.021629
-0.0193698
-0.0173611
-0.015574
-0.0139833
-0.0125666
-0.0113045
-0.0101796
-0.00917698
-0.00828311
-0.0074862
-0.00677583
-0.00614279
-0.0055789
-0.00507696
-0.00463058
-0.00423414
-0.00388265
-0.00357172
-0.00329749
-0.00305656
-0.00284598
-0.00266315
-0.00250584
-0.00237212
-0.00226038
-0.00216926
-0.00209764
-0.00204468
-0.00200972
-0.00199234
-0.214561
-0.185836
-0.161511
-0.141041
-0.123315
-0.108502
-0.095701
-0.0846472
-0.0750088
-0.0665688
-0.059152
-0.0526194
-0.0468536
-0.0417561
-0.0372437
-0.0332448
-0.0296976
-0.0265485
-0.0237506
-0.0212632
-0.0190504
-0.0170808
-0.015327
-0.0137645
-0.0123721
-0.0111307
-0.0100239
-0.00903681
-0.00815648
-0.00737139
-0.00667136
-0.00604738
-0.00549146
-0.00499653
-0.00455632
-0.00416531
-0.00381861
-0.00351189
-0.00324136
-0.00300368
-0.00279592
-0.00261554
-0.00246032
-0.00232839
-0.00221814
-0.00212823
-0.00205757
-0.00200531
-0.00197082
-0.00195367
-0.197246
-0.172351
-0.151418
-0.133254
-0.117216
-0.10366
-0.0918255
-0.0815147
-0.0724534
-0.0644678
-0.057413
-0.0511707
-0.045639
-0.0407316
-0.0363743
-0.0325028
-0.0290609
-0.0259992
-0.0232743
-0.0208481
-0.0186871
-0.0167614
-0.0150449
-0.0135145
-0.0121495
-0.010932
-0.00984574
-0.00887658
-0.00801189
-0.00724048
-0.00655246
-0.00593903
-0.00539239
-0.00490563
-0.00447264
-0.00408799
-0.00374689
-0.00344511
-0.00317891
-0.00294502
-0.00274057
-0.00256305
-0.0024103
-0.00228047
-0.00217196
-0.00208347
-0.00201393
-0.0019625
-0.00192855
-0.00191168
-0.178996
-0.158266
-0.140867
-0.125093
-0.110805
-0.0985668
-0.0877406
-0.0782007
-0.0697382
-0.0622255
-0.0555484
-0.0496097
-0.0443237
-0.0396165
-0.0354237
-0.031688
-0.0283588
-0.0253912
-0.0227453
-0.0203859
-0.0182814
-0.016404
-0.0147289
-0.013234
-0.0118997
-0.0107088
-0.00964571
-0.00869675
-0.00784973
-0.00709383
-0.00641942
-0.00581798
-0.0052819
-0.00480447
-0.0043797
-0.00400232
-0.00366762
-0.00337147
-0.00311023
-0.00288069
-0.00268002
-0.00250578
-0.00235586
-0.00222841
-0.0021219
-0.00203504
-0.00196678
-0.00191629
-0.00188297
-0.00186641
-0.160377
-0.143935
-0.130053
-0.116667
-0.104168
-0.0932845
-0.0834884
-0.0747351
-0.0668858
-0.0598592
-0.0535714
-0.0479466
-0.0429157
-0.0384175
-0.034397
-0.0308043
-0.0275945
-0.0247271
-0.0221659
-0.0198782
-0.017835
-0.01601
-0.0143799
-0.0129239
-0.0116234
-0.0104618
-0.00942435
-0.00849778
-0.0076704
-0.00693176
-0.00627255
-0.00568449
-0.00516024
-0.00469325
-0.0042777
-0.00390845
-0.00358094
-0.00329113
-0.00303545
-0.00281078
-0.00261437
-0.00244382
-0.00229705
-0.0021723
-0.00206804
-0.00198301
-0.00191619
-0.00186676
-0.00183414
-0.00181792
-0.141905
-0.129675
-0.119173
-0.1081
-0.097396
-0.0878767
-0.079111
-0.0711484
-0.0639194
-0.0573868
-0.0514959
-0.0461923
-0.0414236
-0.0371413
-0.0332997
-0.0298563
-0.0267718
-0.0240101
-0.0215385
-0.0193273
-0.0173494
-0.0155807
-0.0139993
-0.0125854
-0.0113215
-0.0101919
-0.00918232
-0.00828025
-0.0074744
-0.0067547
-0.0061122
-0.0055389
-0.00502768
-0.00457221
-0.00416685
-0.0038066
-0.00348703
-0.00320422
-0.00295471
-0.00273543
-0.00254373
-0.00237726
-0.002234
-0.00211223
-0.00201045
-0.00192745
-0.00186222
-0.00181397
-0.00178212
-0.00176629
-0.124017
-0.115757
-0.108403
-0.0995236
-0.0905825
-0.0824044
-0.0746497
-0.0674711
-0.060862
-0.0548258
-0.0493353
-0.0443573
-0.0398558
-0.0357946
-0.0321373
-0.0288484
-0.0258942
-0.023243
-0.0208656
-0.018735
-0.0168265
-0.0151177
-0.0135881
-0.0122193
-0.0109948
-0.0098996
-0.00892023
-0.00804468
-0.00726218
-0.00656307
-0.00593875
-0.00538152
-0.0048845
-0.0044416
-0.00404736
-0.00369695
-0.00338607
-0.00311091
-0.00286813
-0.00265477
-0.00246821
-0.00230621
-0.0021668
-0.00204828
-0.00194923
-0.00186844
-0.00180496
-0.001758
-0.001727
-0.00171159
-0.107056
-0.102399
-0.0978979
-0.0910665
-0.0838146
-0.0769247
-0.0701455
-0.0637338
-0.0577371
-0.0521943
-0.0471036
-0.0424525
-0.0382209
-0.0343845
-0.0309155
-0.0277853
-0.0249656
-0.0224291
-0.0201498
-0.0181037
-0.0162681
-0.0146224
-0.0131478
-0.011827
-0.0106444
-0.00958592
-0.00863885
-0.00779174
-0.00703432
-0.00635737
-0.00575263
-0.00521273
-0.00473105
-0.00430173
-0.00391952
-0.00357974
-0.00327826
-0.0030114
-0.00277592
-0.00256895
-0.00238798
-0.00223082
-0.00209556
-0.00198058
-0.00188448
-0.0018061
-0.0017445
-0.00169894
-0.00166886
-0.00165391
-0.0912647
-0.0897677
-0.0877893
-0.0828375
-0.0771667
-0.071488
-0.0656364
-0.0599658
-0.0545669
-0.0495089
-0.0448134
-0.0404879
-0.0365271
-0.0329174
-0.0296395
-0.0266713
-0.0239895
-0.0215712
-0.0193936
-0.0174353
-0.0156759
-0.0140964
-0.0126796
-0.0114094
-0.0102711
-0.00925161
-0.00833886
-0.00752202
-0.00679134
-0.00613804
-0.00555424
-0.00503287
-0.00456763
-0.00415287
-0.00378355
-0.00345519
-0.0031638
-0.00290585
-0.0026782
-0.00247811
-0.00230314
-0.00215118
-0.0020204
-0.00190922
-0.00181629
-0.0017405
-0.00168093
-0.00163687
-0.00160779
-0.00159333
-0.0767966
-0.0779849
-0.0781815
-0.0749229
-0.0707001
-0.066139
-0.0611584
-0.0561958
-0.0513735
-0.0467863
-0.0424779
-0.0384741
-0.0347829
-0.0314004
-0.0283151
-0.025511
-0.02297
-0.0206728
-0.0185999
-0.0167324
-0.015052
-0.0135415
-0.0121851
-0.0109678
-0.00987613
-0.00889767
-0.00802113
-0.00723629
-0.00653392
-0.00590569
-0.0053441
-0.00484243
-0.00439466
-0.00399538
-0.00363979
-0.00332359
-0.00304296
-0.0027945
-0.00257521
-0.00238245
-0.00221389
-0.00206748
-0.00194147
-0.00183434
-0.0017448
-0.00167177
-0.00161437
-0.00157191
-0.00154389
-0.00152996
-0.0637283
-0.0671272
-0.0691523
-0.0673863
-0.0644622
-0.0609142
-0.0567419
-0.0524479
-0.0481754
-0.0440408
-0.0401086
-0.0364203
-0.0329955
-0.0298393
-0.026947
-0.0243086
-0.0219103
-0.0197365
-0.0177709
-0.0159968
-0.014398
-0.0129591
-0.0116654
-0.0105034
-0.00946038
-0.00852489
-0.00768635
-0.00693515
-0.00626257
-0.00566076
-0.00512261
-0.00464175
-0.00421244
-0.00382955
-0.00348849
-0.00318517
-0.00291593
-0.00267753
-0.00246711
-0.00228212
-0.00212034
-0.00197983
-0.00185888
-0.00175606
-0.00167011
-0.0016
-0.00154491
-0.00150415
-0.00147725
-0.00146388
-0.052075
-0.0572348
-0.0607555
-0.0602744
-0.058491
-0.0558459
-0.0524149
-0.0487447
-0.0449901
-0.0412869
-0.0377173
-0.0343362
-0.0311732
-0.0282408
-0.025541
-0.0230687
-0.0208145
-0.018766
-0.0169097
-0.0152312
-0.0137163
-0.0123511
-0.0111223
-0.0100175
-0.00902514
-0.00813442
-0.00733553
-0.00661948
-0.00597809
-0.00540397
-0.00489041
-0.00443139
-0.00402148
-0.00365582
-0.00333006
-0.00304028
-0.00278304
-0.00255524
-0.00235416
-0.00217736
-0.00202274
-0.00188843
-0.00177283
-0.00167454
-0.00159238
-0.00152536
-0.00147269
-0.00143373
-0.00140801
-0.00139523
-0.0418059
-0.0483174
-0.0530211
-0.0536158
-0.0528125
-0.0509589
-0.0481988
-0.0451028
-0.0418309
-0.0385354
-0.035313
-0.0322293
-0.0293218
-0.02661
-0.0241012
-0.0217949
-0.0196854
-0.0177636
-0.0160183
-0.0144373
-0.0130083
-0.0117188
-0.0105569
-0.00951127
-0.00857127
-0.00772699
-0.00696931
-0.00628985
-0.00568097
-0.00513574
-0.00464787
-0.00421169
-0.00382208
-0.00347446
-0.00316471
-0.00288914
-0.00264448
-0.00242779
-0.0022365
-0.00206831
-0.0019212
-0.00179341
-0.0016834
-0.00158987
-0.00151169
-0.00144792
-0.0013978
-0.00136072
-0.00133625
-0.00132408
-0.0328547
-0.0403654
-0.0459615
-0.0474279
-0.0474473
-0.046275
-0.0441131
-0.0415386
-0.0387118
-0.0357984
-0.032906
-0.0301083
-0.0274491
-0.0249533
-0.0226331
-0.020492
-0.0185274
-0.016733
-0.0150999
-0.013618
-0.0122764
-0.0110644
-0.00997108
-0.00898629
-0.00810028
-0.00730395
-0.00658888
-0.00594731
-0.00537215
-0.00485692
-0.00439574
-0.00398331
-0.00361484
-0.003286
-0.00299294
-0.00273218
-0.00250064
-0.00229555
-0.00211448
-0.00195526
-0.00181599
-0.001695
-0.00159085
-0.0015023
-0.00142827
-0.00136788
-0.00132042
-0.00128531
-0.00126214
-0.00125062
-0.0251361
-0.0333545
-0.0395687
-0.0417128
-0.0424042
-0.0418065
-0.0401687
-0.0380612
-0.0356406
-0.0330827
-0.0305022
-0.0279781
-0.025559
-0.0232741
-0.0211397
-0.0191624
-0.0173425
-0.015676
-0.0141562
-0.0127745
-0.011522
-0.0103889
-0.00936577
-0.00844335
-0.00761282
-0.00686586
-0.00619474
-0.00559232
-0.00505202
-0.00456784
-0.00413433
-0.00374653
-0.00339999
-0.00309066
-0.00281493
-0.00256957
-0.00235166
-0.00215864
-0.0019882
-0.00183832
-0.00170721
-0.0015933
-0.00149525
-0.00141187
-0.00134216
-0.00128531
-0.00124062
-0.00120756
-0.00118574
-0.00117489
-0.0185602
-0.0272359
-0.0338225
-0.0364666
-0.0376902
-0.0375643
-0.036377
-0.0346818
-0.0326283
-0.0303986
-0.0281108
-0.0258469
-0.0236588
-0.0215791
-0.0196268
-0.0178114
-0.0161354
-0.0145968
-0.0131906
-0.0119102
-0.0107478
-0.0096949
-0.00874324
-0.0078845
-0.00711072
-0.00641437
-0.00578837
-0.00522618
-0.00472175
-0.00426957
-0.00386458
-0.0035022
-0.0031783
-0.00288912
-0.00263132
-0.00240187
-0.00219807
-0.00201752
-0.00185809
-0.00171787
-0.00159521
-0.00148864
-0.0013969
-0.00131888
-0.00125366
-0.00120045
-0.00115863
-0.0011277
-0.00110728
-0.00109713
-0.013047
-0.0219421
-0.0286872
-0.0316723
-0.0332989
-0.0335469
-0.0327386
-0.031402
-0.0296772
-0.0277482
-0.0257338
-0.0237166
-0.0217503
-0.0198697
-0.0180958
-0.0164401
-0.0149069
-0.0134961
-0.0122041
-0.0110257
-0.00995432
-0.00898285
-0.00810389
-0.00731008
-0.00659429
-0.00594972
-0.00536997
-0.00484907
-0.00438151
-0.00396223
-0.0035866
-0.00325041
-0.00294984
-0.00268146
-0.00244214
-0.00222912
-0.00203989
-0.00187224
-0.00172417
-0.00159395
-0.00148002
-0.00138103
-0.00129581
-0.00122333
-0.00116274
-0.00111332
-0.00107447
-0.00104573
-0.00102676
-0.00101733
-0.00850252
-0.0174034
-0.024128
-0.0273144
-0.029226
-0.0297563
-0.029259
-0.0282298
-0.0267959
-0.0251406
-0.0233798
-0.0215953
-0.0198411
-0.0181529
-0.0165531
-0.0150544
-0.0136626
-0.0123788
-0.0112009
-0.0101249
-0.00914526
-0.008256
-0.00745064
-0.00672272
-0.00606588
-0.00547405
-0.00494146
-0.00446273
-0.00403285
-0.00364723
-0.00330167
-0.0029923
-0.00271567
-0.0024686
-0.00224827
-0.00205211
-0.00187784
-0.00172343
-0.00158704
-0.00146708
-0.00136213
-0.00127093
-0.00119241
-0.00112564
-0.00106981
-0.00102427
-0.000988477
-0.000961996
-0.000944515
-0.000935826
-0.00484767
-0.0135533
-0.0201019
-0.0233638
-0.0254502
-0.0261784
-0.0259291
-0.0251587
-0.0239801
-0.0225723
-0.0210463
-0.0194811
-0.0179296
-0.0164274
-0.0149975
-0.0136533
-0.0124015
-0.0112442
-0.0101805
-0.00920719
-0.00832004
-0.00751383
-0.00678303
-0.00612199
-0.00552512
-0.004987
-0.00450252
-0.00406684
-0.00367548
-0.00332431
-0.00300952
-0.00272765
-0.00247554
-0.00225035
-0.00204949
-0.00187064
-0.00171174
-0.00157092
-0.00144654
-0.00133713
-0.00124139
-0.00115821
-0.00108658
-0.00102567
-0.000974741
-0.000933196
-0.000900538
-0.000876379
-0.000860431
-0.000852505
-0.00198014
-0.0103314
-0.0165752
-0.0197998
-0.0219615
-0.0228116
-0.0227524
-0.0221956
-0.0212382
-0.0200527
-0.0187429
-0.0173835
-0.0160249
-0.014702
-0.0134373
-0.0122445
-0.0111306
-0.0100987
-0.0091486
-0.00827803
-0.00748353
-0.00676079
-0.00610509
-0.00551154
-0.00497528
-0.00449154
-0.00405582
-0.00366383
-0.00331161
-0.00299545
-0.00271197
-0.00245808
-0.00223096
-0.00202804
-0.00184703
-0.00168584
-0.0015426
-0.00141566
-0.00130352
-0.00120487
-0.00111855
-0.00104354
-0.000978956
-0.000924025
-0.000878099
-0.000840632
-0.00081118
-0.000789392
-0.000775009
-0.000767859
0.00015938
-0.00767861
-0.0134992
-0.0165823
-0.0187273
-0.0196315
-0.0197095
-0.0193246
-0.0185575
-0.0175714
-0.0164609
-0.015295
-0.0141208
-0.0129712
-0.0118676
-0.0108236
-0.00984625
-0.00893901
-0.00810231
-0.00733466
-0.00663329
-0.00599467
-0.00541482
-0.00488958
-0.00441475
-0.00398622
-0.00360005
-0.00325251
-0.00294012
-0.00265965
-0.0024081
-0.00218276
-0.00198114
-0.00180098
-0.00164025
-0.00149709
-0.00136988
-0.00125712
-0.00115751
-0.00106987
-0.000993181
-0.000926537
-0.000869151
-0.000820342
-0.000779534
-0.000746242
-0.000720071
-0.00070071
-0.00068793
-0.000681579
0.0016776
-0.0055375
-0.0108394
-0.0136895
-0.0157392
-0.0166382
-0.016806
-0.0165552
-0.0159497
-0.0151413
-0.0142138
-0.0132292
-0.0122303
-0.0112473
-0.0103003
-0.0094016
-0.00855851
-0.00777444
-0.00705024
-0.00638498
-0.00577654
-0.00522204
-0.0047182
-0.00426152
-0.00384844
-0.00347547
-0.00313923
-0.00283652
-0.00256434
-0.0023199
-0.00210063
-0.00190416
-0.00172834
-0.00157121
-0.001431
-0.00130612
-0.00119512
-0.00109674
-0.00100981
-0.000933336
-0.000866409
-0.000808245
-0.000758159
-0.000715558
-0.000679939
-0.00065088
-0.000628036
-0.000611136
-0.00059998
-0.000594433
0.00260029
-0.00384979
-0.00853583
-0.0110688
-0.0129522
-0.0137944
-0.0140094
-0.0138597
-0.013391
-0.0127417
-0.0119834
-0.01117
-0.0103392
-0.00951794
-0.008724
-0.00796866
-0.00725854
-0.00659704
-0.00598523
-0.00542257
-0.00490748
-0.00443769
-0.00401053
-0.00362312
-0.00327253
-0.00295584
-0.00267023
-0.00241302
-0.00218168
-0.00197388
-0.00178742
-0.00162033
-0.00147077
-0.00133709
-0.0012178
-0.00111153
-0.00101707
-0.000933339
-0.000859354
-0.000794258
-0.000737287
-0.000687774
-0.000645135
-0.000608868
-0.000578543
-0.000553803
-0.000534354
-0.000519965
-0.000510468
-0.000505752
0.0030546
-0.0025587
-0.00655693
-0.00870245
-0.0103659
-0.0111071
-0.0113334
-0.0112562
-0.0109019
-0.0103942
-0.00979163
-0.00913909
-0.00846848
-0.00780286
-0.0071575
-0.00654205
-0.00596239
-0.00542161
-0.00492084
-0.00445984
-0.00403746
-0.00365194
-0.00330118
-0.0029829
-0.00269474
-0.00243433
-0.0021994
-0.00198777
-0.00179738
-0.00162631
-0.00147279
-0.00133519
-0.00121201
-0.00110189
-0.00100361
-0.000916056
-0.000838223
-0.00076922
-0.000708247
-0.000654597
-0.000607641
-0.00056683
-0.000531684
-0.000501789
-0.000476792
-0.000456397
-0.000440364
-0.000428503
-0.000420673
-0.000416777
0.00301986
-0.00160498
-0.00482919
-0.0065224
-0.00791807
-0.00851936
-0.0087265
-0.00869896
-0.00844113
-0.00806187
-0.00760524
-0.0071064
-0.00659102
-0.00607775
-0.0055788
-0.00510201
-0.00465221
-0.00423205
-0.00384256
-0.00348369
-0.00315463
-0.0028541
-0.00258052
-0.00233215
-0.00210719
-0.00190382
-0.0017203
-0.00155493
-0.00140613
-0.0012724
-0.00115236
-0.00104475
-0.000948413
-0.000862279
-0.000785394
-0.000716892
-0.000655993
-0.000601998
-0.000554285
-0.000512299
-0.00047555
-0.000443609
-0.000416101
-0.000392702
-0.000373137
-0.000357173
-0.000344623
-0.000335338
-0.000329209
-0.000326171
0.00266587
-0.000932636
-0.00332984
-0.00452491
-0.00562528
-0.00605311
-0.00622033
-0.00622369
-0.00604557
-0.00578259
-0.00546159
-0.0051081
-0.00474132
-0.00437506
-0.00401824
-0.00367666
-0.00335399
-0.00305225
-0.00277228
-0.00251411
-0.00227723
-0.00206077
-0.00186362
-0.00168456
-0.00152231
-0.0013756
-0.00124316
-0.00112379
-0.00101635
-0.000919781
-0.000833084
-0.000755351
-0.000685747
-0.00062351
-0.00056795
-0.000518443
-0.000474427
-0.000435399
-0.000400909
-0.000370557
-0.00034399
-0.000320897
-0.000301009
-0.000284091
-0.000269944
-0.000258402
-0.000249328
-0.000242614
-0.000238181
-0.000235968
0.00189335
-0.000473817
-0.00196155
-0.00262773
-0.00339204
-0.00361957
-0.00373385
-0.00375197
-0.00364302
-0.00349011
-0.00329949
-0.00308815
-0.00286822
-0.00264816
-0.00243338
-0.00222746
-0.00203273
-0.00185046
-0.00168122
-0.00152505
-0.00138168
-0.0012506
-0.00113117
-0.00102265
-0.000924296
-0.000835329
-0.000754998
-0.000682578
-0.000617385
-0.000558774
-0.000506148
-0.000458957
-0.000416695
-0.000378903
-0.000345162
-0.000315094
-0.00028836
-0.000264653
-0.000243701
-0.000225262
-0.000209122
-0.000195092
-0.000183009
-0.00017273
-0.000164134
-0.000157121
-0.000151607
-0.000147527
-0.000144833
-0.000143502
0.000917628
-0.00017006
-0.000715156
-0.000875757
-0.00124816
-0.00127358
-0.00132975
-0.00134408
-0.00129758
-0.00124725
-0.00117926
-0.00110421
-0.00102605
-0.000947802
-0.000871303
-0.000797892
-0.000728422
-0.000663356
-0.000602897
-0.000547081
-0.00049581
-0.000448913
-0.000406165
-0.000367309
-0.000332078
-0.0003002
-0.000271408
-0.000245444
-0.000222064
-0.000201041
-0.00018216
-0.000165226
-0.000150058
-0.000136492
-0.000124378
-0.000113581
-0.00010398
-9.54652e-05
-8.79392e-05
-8.13153e-05
-7.55165e-05
-7.04757e-05
-6.61336e-05
-6.24398e-05
-5.93507e-05
-5.68302e-05
-5.48486e-05
-5.33823e-05
-5.24123e-05
-5.19075e-05
-0.256814
-0.25062
-0.251313
-0.253027
-0.254082
-0.255508
-0.257482
-0.259906
-0.262707
-0.265818
-0.269173