/*--------------------------------*- C++ -*----------------------------------*\
  =========                 |
  \\      /  F ield         | OpenFOAM: The Open Source CFD Toolbox
   \\    /   O peration     | Website:  https://openfoam.org
    \\  /    A nd           | Version:  7
     \\/     M anipulation  |
\*---------------------------------------------------------------------------*/
FoamFile
{
    version     2.0;
    format      ascii;
    class       volScalarField;
    location    "80";
    object      p;
}
// * * * * * * * * * * * * * * * * * * * * * * * * * * * * * * * * * * * * * //

dimensions      [0 2 -2 0 0 0 0];

internalField   nonuniform List<scalar> 
3500
(
-0.228096
-0.231697
0.63345
0.597757
0.558232
0.633438
0.597746
0.558223
0.511637
0.465942
0.422931
0.383754
0.348648
0.317601
0.290254
0.616552
0.58383
0.547002
0.502525
0.458469
0.416736
0.378531
0.344165
0.313806
0.287319
0.583383
0.556425
0.524896
0.484562
0.443729
0.404511
0.368222
0.335312
0.306284
0.28143
0.535092
0.516355
0.492555
0.45825
0.422105
0.386559
0.35308
0.322299
0.295167
0.272581
0.473342
0.46484
0.450944
0.424326
0.394168
0.363338
0.333493
0.30544
0.280647
0.260809
0.400159
0.403556
0.401329
0.383737
0.360638
0.335403
0.309911
0.285108
0.262973
0.24622
0.317684
0.334674
0.345197
0.337591
0.322358
0.30342
0.282923
0.261851
0.242533
0.228987
0.228747
0.260351
0.284134
0.287132
0.280307
0.268157
0.253153
0.236205
0.219663
0.209186
0.136583
0.182795
0.219779
0.233654
0.235479
0.230335
0.221151
0.208817
0.195184
0.18713
0.0445349
0.104241
0.153823
0.178496
0.188951
0.190824
0.187623
0.180426
0.170132
0.162487
-0.0440388
0.0267949
0.0879649
0.122979
0.141774
0.150438
0.152992
0.15109
0.145316
0.136682
-0.126012
-0.0479218
0.0238733
0.0683474
0.0949467
0.110024
0.117953
0.121167
0.120621
0.115822
-0.197886
-0.118646
-0.0368896
0.0157081
0.0493922
0.0703874
0.0832419
0.0910607
0.0955155
0.0952597
-0.259191
-0.18172
-0.0931972
-0.0339311
0.00594536
0.0321854
0.0494266
0.0610463
0.069419
0.0732319
-0.309381
-0.234981
-0.144321
-0.0795769
-0.0346819
-0.00406823
0.0169615
0.0315863
0.0428288
0.0499958
-0.348021
-0.278543
-0.188872
-0.120552
-0.0719452
-0.0379308
-0.0137409
0.00326704
0.0166125
0.0265492
-0.37534
-0.312366
-0.225842
-0.156605
-0.105684
-0.0690036
-0.0423798
-0.0233892
-0.00855188
0.00362545
-0.392271
-0.336324
-0.255142
-0.187197
-0.135518
-0.0972838
-0.0689099
-0.0480564
-0.0321595
-0.0185725
-0.40017
-0.350546
-0.277004
-0.2122
-0.161178
-0.122461
-0.0930884
-0.0708962
-0.0539692
-0.040046
-0.400427
-0.355544
-0.291749
-0.231825
-0.182696
-0.144413
-0.11478
-0.0918757
-0.0741834
-0.0597176
-0.394212
-0.35238
-0.299897
-0.246433
-0.200284
-0.163243
-0.134015
-0.110949
-0.0927749
-0.0775743
-0.382503
-0.342975
-0.302319
-0.25645
-0.214207
-0.179186
-0.150953
-0.12816
-0.109837
-0.0941757
-0.366424
-0.329979
-0.300194
-0.262269
-0.224781
-0.192541
-0.165841
-0.143703
-0.125532
-0.109916
-0.347643
-0.316282
-0.294405
-0.264291
-0.232389
-0.203653
-0.178967
-0.157818
-0.140057
-0.124833
-0.328335
-0.303552
-0.286061
-0.263209
-0.237489
-0.212838
-0.190614
-0.170787
-0.153534
-0.13892
-0.310528
-0.291971
-0.277047
-0.260162
-0.240569
-0.220393
-0.200999
-0.182841
-0.166268
-0.152163
-0.2954
-0.281488
-0.269077
-0.256404
-0.242156
-0.226506
-0.210318
-0.194197
-0.178398
-0.16491
-0.282982
-0.272446
-0.262636
-0.252856
-0.242766
-0.231401
-0.218549
-0.205011
-0.190319
-0.17717
-0.273005
-0.265105
-0.25748
-0.249956
-0.242899
-0.23519
-0.225798
-0.215085
-0.202032
-0.189969
-0.265065
-0.259326
-0.253427
-0.247776
-0.242907
-0.238029
-0.23184
-0.224459
-0.213208
-0.203231
-0.258693
-0.254779
-0.250337
-0.246233
-0.242977
-0.240117
-0.236781
-0.231691
-0.22466
-0.21769
-0.253437
-0.251085
-0.247928
-0.245181
-0.243198
-0.241554
-0.241118
-0.235738
-0.235143
-0.228689
-0.248934
-0.247863
-0.245854
-0.244317
-0.243452
-0.242411
-0.244829
-0.236474
-0.244231
-0.234616
-0.244863
-0.244836
-0.243855
-0.243342
-0.24342
-0.242828
-0.246948
-0.236784
-0.250892
-0.235313
-0.241021
-0.241912
-0.241766
-0.242068
-0.242883
-0.242745
-0.247215
-0.238335
-0.252858
-0.234777
-0.237388
-0.239096
-0.23958
-0.24048
-0.241667
-0.242301
-0.246294
-0.239675
-0.250923
-0.23604
-0.234076
-0.236491
-0.237416
-0.238697
-0.240134
-0.241447
-0.243933
-0.240971
-0.247811
-0.23734
-0.231283
-0.234269
-0.235481
-0.236984
-0.238595
-0.240178
-0.241809
-0.241166
-0.244105
-0.238596
-0.229238
-0.232628
-0.234008
-0.235628
-0.237324
-0.23895
-0.240271
-0.240594
-0.241629
-0.238662
-0.228137
-0.231738
-0.233194
-0.234859
-0.236582
-0.238192
-0.239425
-0.240005
-0.240378
-0.238416
0.269111
0.252506
0.237886
0.225177
0.213941
0.204093
0.195363
0.187662
0.180813
0.174739
0.169323
0.164498
0.160177
0.156303
0.152826
0.14973
0.146975
0.144528
0.142358
0.140439
0.138751
0.137276
0.135998
0.134905
0.133984
0.133227
0.132628
0.132182
0.131888
0.131744
0.266968
0.250831
0.236498
0.224032
0.212979
0.203289
0.194681
0.187082
0.180314
0.174307
0.168943
0.164163
0.15988
0.156045
0.152602
0.149524
0.146781
0.144345
0.142184
0.140274
0.138594
0.137125
0.135853
0.134764
0.133847
0.133094
0.132497
0.132052
0.131758
0.131613
0.262625
0.247448
0.233712
0.221752
0.211073
0.2017
0.193335
0.18594
0.179331
0.173456
0.168196
0.163503
0.159297
0.155533
0.152148
0.149103
0.14639
0.143979
0.141839
0.139948
0.138282
0.136826
0.135564
0.134485
0.133576
0.13283
0.132238
0.131795
0.131499
0.131352
0.256022
0.242332
0.229537
0.218367
0.208257
0.199363
0.191359
0.184265
0.177889
0.172207
0.1671
0.162534
0.158433
0.154764
0.151468
0.148499
0.145824
0.143445
0.141333
0.139466
0.137822
0.136385
0.135139
0.134072
0.133175
0.132439
0.131854
0.131414
0.131116
0.130967
0.247112
0.235451
0.223943
0.213863
0.204525
0.196282
0.188761
0.182069
0.176001
0.170575
0.165669
0.161269
0.157301
0.153747
0.150556
0.14769
0.145084
0.14275
0.140675
0.138839
0.137222
0.135808
0.134581
0.133532
0.13265
0.131926
0.131351
0.130915
0.130614
0.130462
0.235913
0.226842
0.216992
0.208326
0.199967
0.192542
0.185615
0.179417
0.173722
0.168606
0.163942
0.159743
0.155935
0.152511
0.149426
0.146669
0.144185
0.141919
0.139872
0.138076
0.136492
0.135105
0.133902
0.132874
0.132008
0.131299
0.130734
0.130303
0.130001
0.129846
0.222456
0.216509
0.208623
0.201661
0.194474
0.188041
0.18184
0.176243
0.171006
0.166267
0.161897
0.157943
0.154328
0.151063
0.148102
0.145442
0.143052
0.140915
0.138977
0.137205
0.135642
0.134292
0.133116
0.132105
0.131257
0.130564
0.130013
0.129588
0.129284
0.129127
0.206729
0.204475
0.198965
0.194111
0.188344
0.183086
0.177711
0.17279
0.168052
0.163723
0.159668
0.155973
0.152565
0.149472
0.146648
0.144098
0.141789
0.139719
0.137867
0.136223
0.134738
0.133392
0.132205
0.131225
0.130409
0.129736
0.129195
0.128776
0.128474
0.128317
0.189068
0.190899
0.187994
0.185336
0.181107
0.17713
0.172721
0.168596
0.164473
0.16065
0.156993
0.153628
0.150484
0.147609
0.144963
0.14256
0.14037
0.138394
0.136613
0.135023
0.133608
0.132367
0.131288
0.130324
0.129498
0.128818
0.128288
0.12788
0.127581
0.127428
0.168464
0.17526
0.175569
0.175928
0.173706
0.171393
0.168046
0.164799
0.161265
0.157929
0.154616
0.151535
0.1486
0.145899
0.143386
0.141093
0.138992
0.137092
0.135371
0.133827
0.132447
0.131232
0.130175
0.129262
0.128486
0.127845
0.127322
0.126912
0.12662
0.126474
0.142343
0.153896
0.159348
0.161883
0.162025
0.161208
0.159433
0.157324
0.154859
0.152347
0.149768
0.147276
0.144853
0.142573
0.140421
0.138431
0.136589
0.134907
0.133375
0.131992
0.13075
0.129649
0.128682
0.127847
0.127142
0.12656
0.12609
0.125727
0.125476
0.12535
0.126402
0.135701
0.142786
0.146956
0.149134
0.149827
0.149535
0.14861
0.147237
0.145627
0.143853
0.142037
0.140209
0.138434
0.136723
0.135108
0.133592
0.13219
0.130899
0.129725
0.128663
0.127714
0.126875
0.126147
0.125527
0.125014
0.124602
0.12429
0.124081
0.123978
0.113238
0.121828
0.128959
0.133901
0.13727
0.139137
0.140016
0.140109
0.139687
0.138893
0.137862
0.136684
0.135425
0.134141
0.132863
0.131622
0.130435
0.129316
0.128272
0.127311
0.126435
0.125646
0.124944
0.124331
0.123805
0.123367
0.123015
0.122752
0.122577
0.122492
0.101769
0.110107
0.117213
0.122594
0.126631
0.129339
0.131097
0.132035
0.132411
0.132338
0.131965
0.131371
0.130637
0.129814
0.128947
0.128066
0.127196
0.126355
0.125554
0.124805
0.124113
0.123483
0.122918
0.12242
0.121991
0.121631
0.121342
0.121126
0.120984
0.120914
0.0918652
0.0999599
0.107038
0.112698
0.117158
0.120452
0.122854
0.124463
0.125492
0.126037
0.126239
0.126167
0.125909
0.125512
0.125028
0.124487
0.12392
0.123345
0.12278
0.122237
0.121725
0.121251
0.120821
0.120438
0.120105
0.119824
0.119597
0.119428
0.119316
0.119261
0.0833366
0.0911596
0.0981573
0.103964
0.108706
0.112413
0.11529
0.117422
0.118977
0.12004
0.120733
0.121122
0.121288
0.121279
0.121146
0.120922
0.120639
0.120317
0.119977
0.119633
0.119295
0.118974
0.118675
0.118404
0.118165
0.117961
0.117796
0.117672
0.117589
0.117549
0.0759678
0.0835203
0.0903874
0.0962367
0.101154
0.105148
0.108377
0.110912
0.112888
0.114378
0.115486
0.116274
0.116813
0.117151
0.117337
0.117404
0.117384
0.1173
0.117173
0.117017
0.116847
0.116671
0.116499
0.116336
0.116188
0.11606
0.115954
0.115874
0.11582
0.115794
0.0695782
0.0768692
0.0835747
0.0893965
0.0944046
0.0985884
0.102076
0.104918
0.107229
0.109067
0.110523
0.111651
0.112515
0.11316
0.113632
0.113963
0.114185
0.11432
0.114391
0.114412
0.114399
0.114362
0.114311
0.114252
0.114192
0.114136
0.114087
0.114049
0.114023
0.11401
0.0640239
0.0710604
0.077586
0.083336
0.0883733
0.0926736
0.096344
0.0994174
0.10199
0.10411
0.105855
0.10727
0.108415
0.109329
0.110054
0.110622
0.111063
0.111399
0.111652
0.111838
0.111973
0.112066
0.112129
0.112169
0.112192
0.112204
0.11221
0.112211
0.112212
0.112212
0.0591872
0.0659747
0.07231
0.0779596
0.0829822
0.0873448
0.0911384
0.0943821
0.0971586
0.0995038
0.101486
0.103142
0.104527
0.105673
0.106621
0.1074
0.108037
0.108555
0.108976
0.109314
0.109584
0.109799
0.109969
0.110101
0.110202
0.110279
0.110336
0.110376
0.110401
0.110413
0.0549692
0.061514
0.067654
0.073185
0.0781621
0.0825469
0.0864177
0.0897833
0.0927145
0.0952379
0.0974126
0.0992699
0.100857
0.102204
0.103346
0.10431
0.105123
0.105805
0.106377
0.106853
0.107249
0.107576
0.107844
0.108062
0.108237
0.108375
0.108479
0.108554
0.108603
0.108626
0.0512856
0.0575956
0.0635402
0.0689415
0.0738514
0.0782291
0.0821419
0.0855912
0.0886376
0.0913001
0.0936301
0.0956529
0.0974104
0.0989279
0.100239
0.101365
0.102333
0.103161
0.103869
0.10447
0.10498
0.105409
0.105769
0.106066
0.106309
0.106502
0.106652
0.10676
0.10683
0.106864
0.0480644
0.0541494
0.0599019
0.065168
0.0699965
0.0743457
0.0782738
0.0817767
0.0849063
0.0876757
0.0901294
0.0922875
0.0941869
0.0958492
0.0973043
0.098572
0.0996761
0.100633
0.101462
0.102176
0.102789
0.103312
0.103754
0.104124
0.104429
0.104675
0.104865
0.105004
0.105094
0.105138
0.0452446
0.0511155
0.0566821
0.0618117
0.06655
0.0708556
0.074779
0.078312
0.0814993
0.0843492
0.0869
0.0891676
0.0911844
0.0929685
0.0945467
0.0959364
0.097159
0.0982301
0.0991664
0.0999809
0.100686
0.101293
0.101811
0.102247
0.102609
0.102901
0.10313
0.103297
0.103405
0.103458
0.0427743
0.048443
0.053832
0.0588268
0.0634703
0.0677222
0.071626
0.0751713
0.0783959
0.0813048
0.0839307
0.086286
0.0883991
0.090285
0.0919674
0.0934616
0.094787
0.0959575
0.0969886
0.0978921
0.0986801
0.0993621
0.0999474
0.100443
0.100857
0.101192
0.101455
0.101648
0.101773
0.101834
0.0406093
0.0460884
0.0513093
0.0561737
0.0607208
0.0649126
0.0687865
0.0723304
0.0755765
0.078527
0.0812098
0.0836347
0.0858259
0.0877962
0.0895663
0.0911497
0.0925636
0.0938205
0.0949345
0.0959164
0.0967775
0.0975266
0.0981725
0.098722
0.0991816
0.0995563
0.0998501
0.100066
0.100207
0.100275
0.038712
0.0440147
0.0490781
0.0538177
0.0582697
0.062398
0.066235
0.0697674
0.0730227
0.0760009
0.078726
0.0812051
0.0834592
0.0854989
0.0873424
0.0890012
0.0904908
0.0918223
0.0930085
0.0940591
0.0949846
0.0957931
0.0964927
0.0970901
0.0975912
0.0980006
0.0983224
0.0985591
0.0987136
0.0987885
0.0370506
0.0421903
0.0471073
0.0517292
0.0560889
0.0601527
0.0639483
0.0674622
0.0707175
0.0737126
0.0764679
0.0789886
0.0812928
0.0833892
0.0852936
0.0870159
0.08857
0.0899655
0.0912141
0.0923245
0.0933063
0.0941671
0.0949142
0.095554
0.0960919
0.0965324
0.096879
0.0971344
0.0973011
0.097382
0.0355979
0.0405882
0.0453704
0.0498824
0.054154
0.0581542
0.0619063
0.0653968
0.0686453
0.071649
0.074425
0.0769771
0.0793207
0.0814629
0.0834174
0.0851929
0.0868014
0.0882516
0.0895538
0.090716
0.0917468
0.0926532
0.0934421
0.0941191
0.0946895
0.0951575
0.0955262
0.0957981
0.0959757
0.0960619
0.0343309
0.0391853
0.0438444
0.048255
0.052444
0.0563826
0.0600909
0.0635552
0.0667922
0.069798
0.0725873
0.0751625
0.0775366
0.0797155
0.0817111
0.0835307
0.085185
0.0866815
0.0880295
0.0892362
0.0903094
0.0912554
0.0920806
0.0927902
0.0933892
0.0938812
0.0942694
0.0945558
0.094743
0.0948339
0.0332303
0.0379621
0.0425098
0.0468279
0.0509405
0.0548209
0.0584861
0.061923
0.0651453
0.0681488
0.0709457
0.0735373
0.0759348
0.0781428
0.0801717
0.0820277
0.0837201
0.0852556
0.0866425
0.0878871
0.0889967
0.0899768
0.0908335
0.0915714
0.0921952
0.0927082
0.0931133
0.0934125
0.0936081
0.0937031
0.0322796
0.0369021
0.0413501
0.0455848
0.0496275
0.0534538
0.0570781
0.0604875
0.0636935
0.0666916
0.0694917
0.0720946
0.0745097
0.0767406
0.0787962
0.080682
0.0824059
0.083974
0.0853936
0.0866704
0.0878109
0.0888203
0.0897039
0.0904661
0.0911113
0.0916425
0.0920623
0.0923725
0.0925753
0.0926739
0.0314651
0.0359912
0.0403512
0.0445116
0.0484916
0.0522687
0.0558548
0.0592377
0.0624269
0.0654175
0.0682179
0.0708282
0.0732561
0.0755048
0.0775818
0.0794916
0.0812414
0.0828365
0.0842834
0.0855872
0.0867537
0.0877878
0.0886943
0.0894773
0.0901407
0.0906875
0.0911198
0.0914394
0.0916485
0.0917502
0.0307753
0.0352178
0.039501
0.0435965
0.0475212
0.0512543
0.0548058
0.0581641
0.0613368
0.0643191
0.0671177
0.0697323
0.0721696
0.0744318
0.0765256
0.0784547
0.0802256
0.0818427
0.0833121
0.0846382
0.0858265
0.0868812
0.0878069
0.0886074
0.0892862
0.089846
0.0902889
0.0906166
0.0908309
0.0909352
0.0302008
0.034572
0.0387898
0.0428297
0.0467066
0.0504014
0.0539224
0.0572584
0.0604158
0.0633895
0.0661853
0.0688022
0.071246
0.0735184
0.0756252
0.0775696
0.0793572
0.0809922
0.0824797
0.0838242
0.0850302
0.0861019
0.0870434
0.0878583
0.0885498
0.0891205
0.0895723
0.0899066
0.0901253
0.0902317
0.0297338
0.0340459
0.0382094
0.0422029
0.0460397
0.0497022
0.0531971
0.0565139
0.0596577
0.0626233
0.0654157
0.0680336
0.0704818
0.0727617
0.0748783
0.0768345
0.0786353
0.0802843
0.0817864
0.0831454
0.0843657
0.085451
0.0864053
0.0872318
0.0879336
0.0885131
0.088972
0.0893116
0.0895339
0.0896421
0.0293682
0.0336332
0.0377533
0.0417095
0.0455141
0.0491503
0.052624
0.0559249
0.0590572
0.0620159
0.0648049
0.0674229
0.069874
0.0721593
0.0742832
0.0762483
0.078059
0.0797188
0.081232
0.0826022
0.0838335
0.0849294
0.0858935
0.0867291
0.0874389
0.0880253
0.0884898
0.0888336
0.0890587
0.0891682
0.0290998
0.0333294
0.0374165
0.0413444
0.0451244
0.0487408
0.0521982
0.055487
0.0586104
0.0615635
0.0643496
0.0669673
0.0694202
0.0717092
0.0738382
0.0758096
0.0776275
0.079295
0.0808163
0.0821946
0.083434
0.0845376
0.085509
0.0863512
0.0870669
0.0876583
0.0881269
0.0884739
0.088701
0.0888115
0.0289258
0.0331306
0.0371947
0.0411033
0.0448668
0.0484698
0.0519163
0.0551968
0.0583141
0.0612633
0.0640474
0.0666648
0.0691187
0.0714099
0.0735422
0.0755176
0.0773401
0.0790127
0.0805392
0.0819229
0.0831675
0.0842762
0.0852524
0.0860989
0.0868185
0.0874132
0.0878845
0.0882335
0.0884619
0.0885731
0.0288433
0.0330329
0.0370846
0.0409836
0.0447386
0.048335
0.0517759
0.0550523
0.0581665
0.0611138
0.0638967
0.0665139
0.0689682
0.0712606
0.0733944
0.0753718
0.0771966
0.0788716
0.0804007
0.081787
0.0830342
0.0841454
0.085124
0.0859727
0.0866942
0.0872906
0.0877631
0.0881131
0.0883423
0.0884539
0.127592
0.116461
0.104927
0.094275
0.0848516
0.0766291
0.0694836
0.0632839
0.0579078
0.0532456
0.0492002
0.0456869
0.0426331
0.0399762
0.0376628
0.0356477
0.033892
0.032363
0.0310328
0.029878
0.0288788
0.0280185
0.0272833
0.0266615
0.0261438
0.0257225
0.0253916
0.0251461
0.0249845
0.02491
0.108396
0.0979954
0.0888449
0.0802737
0.0725491
0.065679
0.059627
0.0543317
0.0497159
0.0457004
0.0422099
0.0391761
0.0365388
0.0342456
0.032251
0.0305158
0.0290061
0.0276932
0.0265525
0.0255629
0.0247068
0.0239694
0.0233382
0.0228027
0.0223547
0.0219873
0.0216951
0.0214733
0.0213203
0.0212455
0.0875266
0.0760485
0.068175
0.0612047
0.055335
0.0502497
0.0458307
0.0419862
0.0386393
0.0357241
0.0331828
0.0309652
0.0290287
0.0273369
0.0258586
0.0245667
0.0234379
0.022452
0.0215918
0.0208424
0.0201912
0.0196275
0.0191421
0.0187276
0.0183775
0.0180869
0.0178521
0.0176692
0.0175351
0.0174608
0.0674669
0.0567846
0.0501321
0.0441365
0.0394818
0.0356594
0.032502
0.0298549
0.0276107
0.025691
0.0240365
0.0226013
0.0213503
0.0202566
0.0192983
0.0184575
0.0177191
0.0170704
0.0165005
0.0160006
0.0155627
0.0151803
0.014848
0.0145608
0.0143148
0.0141069
0.0139348
0.0137961
0.0136856
0.0136111
0.0469619
0.038688
0.034271
0.0296627
0.0262118
0.0234056
0.0211827
0.0193984
0.0179495
0.0167575
0.0157636
0.0149236
0.0142048
0.0135852
0.0130479
0.0125798
0.0121697
0.0118091
0.011491
0.0112102
0.0109621
0.010743
0.0105498
0.0103799
0.0102309
0.010101
0.00998903
0.00989391
0.00980917
0.00973618
0.0259604
0.0203053
0.0185075
0.015813
0.013972
0.0123774
0.0111331
0.0101524
0.00938486
0.00878289
0.00830795
0.0079285
0.00761901
0.00736487
0.00715707
0.00698495
0.0068394
0.00671438
0.00660549
0.00650939
0.00642355
0.00634599
0.0062751
0.00620958
0.00614823
0.00608987
0.00603392
0.00598057
0.00592369
0.00585634
0.00524696
0.00206772
0.00256245
0.00175695
0.00164408
0.00140712
0.00126898
0.0011745
0.00113092
0.00113003
0.00116303
0.00122007
0.00128744
0.00136065
0.0014486
0.00154006
0.00162944
0.00171398
0.00179177
0.00186153
0.00192239
0.00197378
0.00201529
0.00204659
0.00206736
0.00207702
0.00207515
0.00206299
0.00203667
0.00198023
-0.0146512
-0.0152101
-0.0128764
-0.0120814
-0.0107032
-0.0096842
-0.00873487
-0.00792193
-0.00720494
-0.0065682
-0.00599717
-0.00548034
-0.00502115
-0.00461724
-0.00422652
-0.00387122
-0.00354956
-0.0032595
-0.00299963
-0.00276866
-0.00256538
-0.00238873
-0.00223785
-0.002112
-0.00201061
-0.0019335
-0.00188095
-0.00185126
-0.00184443
-0.00188451
-0.033596
-0.0311456
-0.0275008
-0.0251258
-0.022568
-0.0204792
-0.0186015
-0.0169778
-0.0155532
-0.014302
-0.0131992
-0.0122193
-0.0113571
-0.0106114
-0.00990675
-0.00928343
-0.00872572
-0.00822759
-0.00778403
-0.00739087
-0.00704465
-0.00674247
-0.00648197
-0.00626126
-0.00607878
-0.00593345
-0.00582506
-0.00575228
-0.00571135
-0.00572863
-0.0513707
-0.0463986
-0.0415068
-0.0375659
-0.0339491
-0.0308777
-0.0281832
-0.025831
-0.0237633
-0.0219444
-0.0203422
-0.0189235
-0.0176599
-0.0165386
-0.0155385
-0.0146539
-0.0138655
-0.0131628
-0.012538
-0.0119844
-0.0114966
-0.0110699
-0.0107006
-0.0103855
-0.0101221
-0.00990848
-0.00974359
-0.00962607
-0.00955356
-0.00954084
-0.0678679
-0.0611651
-0.054832
-0.0494402
-0.0447476
-0.0407844
-0.0373542
-0.0343541
-0.031711
-0.0293804
-0.0273226
-0.0254971
-0.0238654
-0.0224083
-0.0211204
-0.0199807
-0.0189656
-0.0180612
-0.0172573
-0.0165449
-0.0159166
-0.0153662
-0.0148885
-0.0144793
-0.0141351
-0.0138531
-0.0136315
-0.0134686
-0.0133628
-0.0133243
-0.0834899
-0.075395
-0.0675147
-0.0608091
-0.0551133
-0.05033
-0.0461917
-0.0425628
-0.0393685
-0.0365584
-0.0340778
-0.0318756
-0.0299093
-0.0281541
-0.0265972
-0.0252142
-0.0239809
-0.0228821
-0.0219051
-0.021039
-0.0202744
-0.0196037
-0.0190206
-0.0185196
-0.0180965
-0.0177478
-0.0174707
-0.017263
-0.0171224
-0.0170621
-0.0986686
-0.089096
-0.0795889
-0.0716055
-0.0650103
-0.0595035
-0.0547167
-0.050496
-0.046785
-0.043527
-0.0406477
-0.0380878
-0.0358054
-0.0337697
-0.0319571
-0.0303411
-0.0288982
-0.027612
-0.0264678
-0.0254526
-0.0245559
-0.0237685
-0.023083
-0.022493
-0.0219933
-0.0215796
-0.0212489
-0.020998
-0.0208235
-0.0207403
-0.113352
-0.102357
-0.0913257
-0.0821946
-0.0747914
-0.0685711
-0.0630928
-0.0582492
-0.0540211
-0.0503238
-0.0470516
-0.0441402
-0.0415487
-0.0392392
-0.0371786
-0.0353383
-0.0336943
-0.0322282
-0.0309233
-0.0297651
-0.0287413
-0.0278419
-0.0270581
-0.0263828
-0.02581
-0.0253345
-0.0249529
-0.0246614
-0.024455
-0.0243483
-0.127603
-0.115217
-0.102519
-0.0922779
-0.0842212
-0.0773899
-0.0712572
-0.0658324
-0.0611286
-0.0570076
-0.053343
-0.0500811
-0.0471823
-0.0445988
-0.042291
-0.0402291
-0.0383874
-0.0367446
-0.0352819
-0.0339832
-0.0328351
-0.0318262
-0.0309468
-0.0301887
-0.0295451
-0.0290103
-0.0285801
-0.0282504
-0.0280148
-0.0278855
-0.141177
-0.127781
-0.113623
-0.102415
-0.0937337
-0.0861706
-0.0792781
-0.073265
-0.0680984
-0.0635466
-0.0594844
-0.055877
-0.0526756
-0.0498202
-0.0472683
-0.0449891
-0.0429543
-0.041139
-0.0395227
-0.0380877
-0.0368193
-0.0357048
-0.0347335
-0.0338964
-0.0331857
-0.0325952
-0.0321199
-0.0317556
-0.0314943
-0.0313454
-0.154288
-0.139557
-0.123809
-0.111975
-0.102934
-0.0946834
-0.0871028
-0.0805957
-0.0749876
-0.0699904
-0.0655301
-0.0615831
-0.0580783
-0.0549477
-0.0521503
-0.0496532
-0.0474242
-0.0454358
-0.0436657
-0.0420948
-0.0407069
-0.039488
-0.0384263
-0.0375119
-0.0367363
-0.0360926
-0.035575
-0.0351791
-0.0348959
-0.0347306
-0.166948
-0.15132
-0.134332
-0.121969
-0.112259
-0.103061
-0.0948086
-0.0878395
-0.081753
-0.0762917
-0.0714437
-0.0671615
-0.0633499
-0.0599432
-0.056902
-0.0541887
-0.0517669
-0.0496072
-0.0476856
-0.0459814
-0.0444768
-0.0431565
-0.0420077
-0.0410194
-0.0401826
-0.0394893
-0.0389336
-0.0385105
-0.0382101
-0.0380334
-0.178788
-0.161489
-0.144109
-0.13186
-0.12142
-0.111379
-0.102628
-0.0951773
-0.0885483
-0.0826164
-0.0773795
-0.0727424
-0.0686043
-0.0649087
-0.0616128
-0.0586723
-0.0560482
-0.0537095
-0.0516303
-0.0497878
-0.0481626
-0.0467382
-0.0455004
-0.0444376
-0.0435395
-0.042798
-0.042206
-0.0417586
-0.0414457
-0.0412625
-0.191865
-0.173112
-0.155645
-0.142667
-0.13093
-0.120137
-0.110864
-0.102775
-0.0955377
-0.0891147
-0.0834438
-0.0784029
-0.0739049
-0.0698947
-0.0663202
-0.0631319
-0.0602888
-0.0577576
-0.0555097
-0.0535199
-0.0517671
-0.0502331
-0.0489027
-0.0477627
-0.0468024
-0.0460125
-0.0453857
-0.0449166
-0.0445957
-0.0444142
-0.20459
-0.185906
-0.169134
-0.154866
-0.141913
-0.130321
-0.120179
-0.111218
-0.103247
-0.096185
-0.0899276
-0.0843603
-0.0793999
-0.0749811
-0.0710431
-0.0675327
-0.0644052
-0.0616234
-0.0591549
-0.0569719
-0.0550508
-0.0533712
-0.0519162
-0.0506712
-0.049624
-0.0487644
-0.0480846
-0.0475789
-0.0472385
-0.0470525
-0.211568
-0.195144
-0.17906
-0.164288
-0.15079
-0.138691
-0.127944
-0.118376
-0.10986
-0.102294
-0.0955614
-0.0895613
-0.0842115
-0.0794409
-0.0751853
-0.0713897
-0.0680074
-0.0649982
-0.0623275
-0.0599656
-0.0578869
-0.0560697
-0.0544954
-0.0531485
-0.0520157
-0.051086
-0.0503507
-0.0498045
-0.0494395
-0.0492422
-0.212546
-0.198144
-0.183176
-0.168889
-0.155637
-0.143611
-0.132797
-0.123095
-0.114415
-0.106659
-0.0997255
-0.0935249
-0.0879811
-0.0830247
-0.0785937
-0.0746347
-0.0711014
-0.0679539
-0.0651574
-0.0626818
-0.0605013
-0.0585938
-0.0569404
-0.0555251
-0.0543344
-0.0533569
-0.0525838
-0.0520097
-0.0516281
-0.0514253
-0.211125
-0.197561
-0.18356
-0.170122
-0.157515
-0.145924
-0.135392
-0.125869
-0.117288
-0.109573
-0.102642
-0.0964172
-0.0908315
-0.0858217
-0.0813306
-0.0773084
-0.0737115
-0.0705015
-0.067645
-0.0651129
-0.0628801
-0.060925
-0.0592288
-0.0577758
-0.0565528
-0.0555485
-0.054754
-0.054164
-0.0537732
-0.0535688
-0.210003
-0.19653
-0.183111
-0.170385
-0.158405
-0.147297
-0.137122
-0.127858
-0.119457
-0.111861
-0.105004
-0.0988201
-0.0932508
-0.0882396
-0.0837348
-0.0796907
-0.0760665
-0.0728262
-0.0699382
-0.0673745
-0.0651112
-0.0631271
-0.0614044
-0.0599277
-0.058684
-0.0576623
-0.0568539
-0.0562535
-0.0558565
-0.0556514
-0.209745
-0.196283
-0.183234
-0.170982
-0.159449
-0.148715
-0.138834
-0.129791
-0.121546
-0.114057
-0.107267
-0.101123
-0.09557
-0.0905593
-0.0860435
-0.0819805
-0.0783324
-0.0750651
-0.0721485
-0.0695562
-0.067265
-0.0652545
-0.0635075
-0.0620089
-0.0607461
-0.0597085
-0.0588872
-0.0582771
-0.0578739
-0.0576675
-0.20993
-0.196718
-0.184009
-0.172082
-0.160849
-0.150378
-0.140712
-0.131831
-0.123703
-0.116291
-0.109547
-0.103425
-0.0978761
-0.0928561
-0.0883216
-0.0842336
-0.0805564
-0.077258
-0.0743096
-0.0716858
-0.0693643
-0.0673256
-0.0655525
-0.0640307
-0.0627477
-0.0616931
-0.0608584
-0.0602379
-0.0598279
-0.0596192
-0.210133
-0.197345
-0.185003
-0.173359
-0.162367
-0.152106
-0.142612
-0.133864
-0.125832
-0.118483
-0.111777
-0.105671
-0.100123
-0.0950919
-0.0905376
-0.086424
-0.0827177
-0.0793881
-0.076408
-0.073753
-0.0714016
-0.0693348
-0.067536
-0.0659912
-0.0646881
-0.0636167
-0.0627685
-0.0621377
-0.0617208
-0.0615096
-0.210186
-0.197825
-0.185854
-0.174498
-0.163745
-0.153689
-0.144363
-0.135746
-0.127812
-0.120531
-0.113869
-0.107787
-0.102247
-0.0972122
-0.0926454
-0.088513
-0.0847836
-0.0814285
-0.0784218
-0.07574
-0.0733626
-0.0712711
-0.0694495
-0.0678841
-0.0665631
-0.0654765
-0.0646161
-0.0639761
-0.0635529
-0.0633392
-0.210064
-0.198059
-0.186434
-0.175371
-0.164873
-0.155033
-0.145885
-0.13741
-0.129586
-0.122387
-0.115781
-0.109736
-0.104217
-0.0991898
-0.0946213
-0.0904801
-0.0867368
-0.0833644
-0.0803383
-0.0776363
-0.0752385
-0.0731273
-0.0712872
-0.0697049
-0.0683689
-0.0672696
-0.0663989
-0.0657511
-0.0653226
-0.0651067
-0.209788
-0.198082
-0.186775
-0.176
-0.165759
-0.156145
-0.147184
-0.138861
-0.131157
-0.124051
-0.117514
-0.111518
-0.106032
-0.101024
-0.0964642
-0.0923239
-0.0885755
-0.0851939
-0.0821556
-0.0794397
-0.0770273
-0.0749013
-0.073047
-0.0714514
-0.0701036
-0.0689941
-0.068115
-0.0674608
-0.067028
-0.0668103
-0.209378
-0.19795
-0.186946
-0.176446
-0.166458
-0.157067
-0.148295
-0.140129
-0.132552
-0.125547
-0.119088
-0.11315
-0.107705
-0.102725
-0.0981825
-0.0940511
-0.0903051
-0.0869209
-0.0838766
-0.0811524
-0.0787301
-0.0765937
-0.074729
-0.0731234
-0.0717663
-0.0706488
-0.0697632
-0.0691039
-0.0686675
-0.0684485
-0.208845
-0.197695
-0.186987
-0.176755
-0.16701
-0.157836
-0.149251
-0.141241
-0.133795
-0.126894
-0.120518
-0.114644
-0.109248
-0.104303
-0.0997844
-0.0956682
-0.0919306
-0.0885495
-0.0855044
-0.0827765
-0.0803486
-0.0782056
-0.0763336
-0.0747208
-0.0733569
-0.0722333
-0.0713427
-0.0706794
-0.0702402
-0.0700201
-0.208188
-0.197321
-0.186912
-0.176943
-0.167433
-0.158468
-0.150066
-0.142213
-0.134897
-0.128104
-0.121816
-0.116011
-0.110668
-0.105763
-0.101275
-0.097179
-0.093455
-0.0900819
-0.0870406
-0.0843132
-0.0818836
-0.0797372
-0.077861
-0.0762435
-0.0748751
-0.0737472
-0.0728528
-0.0721867
-0.0717454
-0.0715244
-0.207408
-0.196823
-0.186716
-0.177007
-0.167728
-0.158969
-0.150746
-0.143049
-0.135865
-0.129182
-0.122985
-0.117253
-0.111968
-0.107109
-0.102655
-0.098585
-0.0948795
-0.091519
-0.0884857
-0.0857628
-0.083335
-0.0811885
-0.0793109
-0.0776913
-0.0763203
-0.0751899
-0.0742933
-0.0736252
-0.0731826
-0.072961
-0.206508
-0.196201
-0.186396
-0.176945
-0.167894
-0.159339
-0.151294
-0.143752
-0.136701
-0.130131
-0.124027
-0.118372
-0.11315
-0.108341
-0.103926
-0.0998871
-0.0962047
-0.0928613
-0.0898401
-0.0871254
-0.0847029
-0.0825594
-0.0806832
-0.0790639
-0.0776924
-0.0765611
-0.0756635
-0.0749946
-0.0745512
-0.0743294
-0.205494
-0.195456
-0.185953
-0.176758
-0.167933
-0.159579
-0.151713
-0.144325
-0.137408
-0.130953
-0.124946
-0.119372
-0.114216
-0.109462
-0.105091
-0.101087
-0.0974316
-0.0941093
-0.0911042
-0.0884014
-0.0859875
-0.08385
-0.0819778
-0.080361
-0.078991
-0.0778605
-0.0769632
-0.0762944
-0.0758509
-0.0756292
-0.204374
-0.194596
-0.185393
-0.176452
-0.16785
-0.159696
-0.152006
-0.144774
-0.137992
-0.131653
-0.125745
-0.120255
-0.11517
-0.110474
-0.106151
-0.102185
-0.0985617
-0.0952644
-0.0922789
-0.0895914
-0.0871891
-0.0850604
-0.0831947
-0.0815827
-0.0802161
-0.0790879
-0.0781922
-0.0775244
-0.0770815
-0.0768601
-0.203158
-0.193626
-0.184725
-0.176034
-0.167653
-0.159695
-0.152181
-0.145103
-0.138457
-0.132236
-0.126429
-0.121026
-0.116014
-0.11138
-0.107108
-0.103186
-0.0995968
-0.0963279
-0.0933653
-0.0906962
-0.0883085
-0.0861912
-0.0843344
-0.0827292
-0.0813677
-0.0802433
-0.0793504
-0.0786845
-0.0782427
-0.0780219
-0.20185
-0.192552
-0.183956
-0.175513
-0.167347
-0.159583
-0.152242
-0.145319
-0.138809
-0.132707
-0.127003
-0.121689
-0.116753
-0.112183
-0.107966
-0.104089
-0.100538
-0.0973012
-0.0943646
-0.0917168
-0.0893463
-0.0872429
-0.0853972
-0.0838006
-0.0824459
-0.0813268
-0.0804377
-0.0797745
-0.0793345
-0.0791146
-0.200462
-0.191378
-0.183095
-0.174895
-0.166938
-0.159366
-0.152197
-0.145427
-0.139052
-0.133069
-0.12747
-0.122246
-0.117388
-0.112886
-0.108726
-0.104898
-0.101389
-0.0981859
-0.0952781
-0.0926541
-0.0903034
-0.0882161
-0.0863835
-0.0847976
-0.0834512
-0.0823385
-0.0814544
-0.0807947
-0.0803569
-0.0801382
-0.19901
-0.190105
-0.182152
-0.174186
-0.166432
-0.159047
-0.152049
-0.145431
-0.139191
-0.133327
-0.127833
-0.122702
-0.117924
-0.113491
-0.109392
-0.105615
-0.102149
-0.0989834
-0.096107
-0.0935094
-0.0911807
-0.0891117
-0.0872941
-0.0857203
-0.0843838
-0.0832789
-0.0824007
-0.0817453
-0.0813101
-0.0810928
-0.197498
-0.188734
-0.181141
-0.173391
-0.165831
-0.158633
-0.151803
-0.145336
-0.13923
-0.133485
-0.128097
-0.123059
-0.118363
-0.114002
-0.109964
-0.106241
-0.102821
-0.0996954
-0.0968527
-0.0942837
-0.091979
-0.0899303
-0.0881295
-0.0865696
-0.0852443
-0.0841482
-0.0832768
-0.0826264
-0.0821945
-0.0819788
-0.195879
-0.187285
-0.180075
-0.172511
-0.165141
-0.158129
-0.151466
-0.145146
-0.139173
-0.133547
-0.128265
-0.123321
-0.118709
-0.11442
-0.110446
-0.106779
-0.103408
-0.100323
-0.0975165
-0.0949781
-0.0926996
-0.0906728
-0.0888905
-0.0873459
-0.0860331
-0.084947
-0.0840833
-0.0834385
-0.0830102
-0.0827963
-0.194093
-0.185805
-0.178961
-0.171546
-0.164367
-0.15754
-0.15104
-0.144865
-0.139023
-0.133516
-0.12834
-0.123491
-0.118962
-0.114748
-0.11084
-0.10723
-0.103909
-0.100869
-0.0980997
-0.0955939
-0.0933433
-0.0913402