/*--------------------------------*- C++ -*----------------------------------*\
  =========                 |
  \\      /  F ield         | OpenFOAM: The Open Source CFD Toolbox
   \\    /   O peration     | Website:  https://openfoam.org
    \\  /    A nd           | Version:  7
     \\/     M anipulation  |
\*---------------------------------------------------------------------------*/
FoamFile
{
    version     2.0;
    format      ascii;
    class       volScalarField;
    location    "15";
    object      p;
}
// * * * * * * * * * * * * * * * * * * * * * * * * * * * * * * * * * * * * * //

dimensions      [0 2 -2 0 0 0 0];

internalField   nonuniform List<scalar> 
3312
(
0.605419
0.591576
0.581635
0.571934
0.559967
0.545623
0.529347
0.511642
0.492971
0.473727
0.454219
0.434685
0.415299
0.396229
0.37772
0.597451
0.583839
0.574265
0.565038
0.553589
0.539753
0.523957
0.506695
0.488432
0.469562
0.450399
0.431177
0.412075
0.393293
0.375119
0.581632
0.568476
0.559628
0.551341
0.540916
0.52809
0.513244
0.49686
0.479406
0.461281
0.442802
0.4242
0.405662
0.38745
0.369939
0.558195
0.545712
0.537931
0.531027
0.522115
0.510782
0.497342
0.48226
0.466004
0.448981
0.431515
0.413833
0.396131
0.378758
0.362222
0.527486
0.515878
0.50948
0.504374
0.497433
0.488051
0.476451
0.463072
0.448384
0.432805
0.416665
0.400191
0.383584
0.367303
0.352035
0.489959
0.479413
0.474681
0.471746
0.467197
0.460189
0.450831
0.43953
0.426755
0.412939
0.398421
0.383424
0.368156
0.353198
0.339461
0.446174
0.436853
0.434028
0.433591
0.431806
0.427552
0.420803
0.41192
0.401375
0.389612
0.376985
0.363714
0.350009
0.336577
0.324608
0.396783
0.388828
0.388107
0.390434
0.39173
0.390561
0.386741
0.380578
0.372541
0.363089
0.352593
0.34127
0.329328
0.317597
0.307595
0.342532
0.336054
0.337581
0.342874
0.347504
0.349693
0.34907
0.345883
0.340591
0.333668
0.325505
0.31632
0.306311
0.296423
0.288555
0.28424
0.279325
0.283185
0.291575
0.29972
0.305474
0.308262
0.308254
0.305896
0.301678
0.29601
0.289116
0.281174
0.273229
0.267622
0.222799
0.219499
0.22572
0.237261
0.249024
0.258479
0.264826
0.268144
0.268858
0.267469
0.26441
0.259905
0.254103
0.248146
0.2449
0.159151
0.157491
0.166038
0.180704
0.196104
0.209322
0.21931
0.226038
0.229904
0.231417
0.231036
0.228979
0.225336
0.221326
0.220476
0.0942814
0.0942527
0.105034
0.122717
0.141689
0.158652
0.172294
0.182458
0.1895
0.193933
0.196244
0.196632
0.195033
0.192677
0.194148
0.0292014
0.0307617
0.0436283
0.0641412
0.0865329
0.107141
0.124376
0.137935
0.148111
0.155408
0.160348
0.163159
0.163554
0.162432
0.165671
-0.0350686
-0.0320028
-0.0172444
0.0058342
0.0314074
0.0554836
0.0761863
0.0930495
0.106292
0.116387
0.123888
0.129123
0.131589
0.130938
0.133234
-0.097519
-0.0930716
-0.0766547
-0.0513468
-0.0229124
0.00437735
0.0283547
0.048372
0.0645541
0.077309
0.0871334
0.094394
0.0987875
0.0994752
0.0970231
-0.157284
-0.151448
-0.133707
-0.10657
-0.0756662
-0.0454895
-0.0184906
0.00448722
0.0234668
0.0387965
0.0509216
0.0602689
0.0669008
0.0701873
0.0696816
-0.213588
-0.206155
-0.187622
-0.159063
-0.126128
-0.0934532
-0.0637384
-0.0380251
-0.0163942
0.00146218
0.0159714
0.0276228
0.0368316
0.0434122
0.0460026
-0.26529
-0.256603
-0.237469
-0.208221
-0.173633
-0.138902
-0.106839
-0.0786667
-0.0545843
-0.0343292
-0.0174896
-0.00356695
0.00802688
0.0174414
0.0229724
-0.311787
-0.302095
-0.282575
-0.253037
-0.217739
-0.181289
-0.147327
-0.117037
-0.0907809
-0.068365
-0.0494024
-0.0334205
-0.0197861
-0.0081349
-8.51812e-05
-0.352597
-0.342055
-0.322495
-0.293108
-0.25749
-0.220267
-0.184813
-0.152794
-0.124711
-0.10044
-0.079631
-0.0618437
-0.0464485
-0.0329577
-0.0228507
-0.387337
-0.376071
-0.356796
-0.328083
-0.292755
-0.25523
-0.218899
-0.185636
-0.156124
-0.130339
-0.107991
-0.0886706
-0.0717743
-0.056726
-0.0448768
-0.415769
-0.403905
-0.385183
-0.357615
-0.323193
-0.28596
-0.24933
-0.215333
-0.184814
-0.157879
-0.134323
-0.113764
-0.0956594
-0.0793301
-0.0659007
-0.437829
-0.425498
-0.40754
-0.381509
-0.348565
-0.312263
-0.275927
-0.241714
-0.210641
-0.182952
-0.158507
-0.137021
-0.118032
-0.100767
-0.0858993
-0.453632
-0.440968
-0.42393
-0.399743
-0.368776
-0.334007
-0.298564
-0.264666
-0.233494
-0.205446
-0.180478
-0.158381
-0.138781
-0.120983
-0.105198
-0.463464
-0.450605
-0.434585
-0.41245
-0.383861
-0.351165
-0.317186
-0.284132
-0.253322
-0.225311
-0.200176
-0.177781
-0.157858
-0.139884
-0.124058
-0.467771
-0.454858
-0.4399
-0.419918
-0.393989
-0.363813
-0.331819
-0.300119
-0.270122
-0.242534
-0.217563
-0.195158
-0.175127
-0.157051
-0.141058
-0.467133
-0.454312
-0.440414
-0.422582
-0.399463
-0.372138
-0.342573
-0.312692
-0.283936
-0.257138
-0.232636
-0.210469
-0.190515
-0.172408
-0.156213
-0.462235
-0.449659
-0.436787
-0.421007
-0.40071
-0.376432
-0.349637
-0.32198
-0.29486
-0.269197
-0.245452
-0.223764
-0.204085
-0.186119
-0.169838
-0.453833
-0.441657
-0.429759
-0.415864
-0.398273
-0.37709
-0.353285
-0.328175
-0.303039
-0.278835
-0.256125
-0.235152
-0.215958
-0.198328
-0.18213
-0.442714
-0.43109
-0.420113
-0.407891
-0.392786
-0.374603
-0.353868
-0.331526
-0.308662
-0.286208
-0.264797
-0.244768
-0.226255
-0.209141
-0.193204
-0.429653
-0.418726
-0.408624
-0.397849
-0.384939
-0.369535
-0.351809
-0.332337
-0.311952
-0.291496
-0.271625
-0.252753
-0.2351
-0.218661
-0.203162
-0.415385
-0.40528
-0.396022
-0.38648
-0.375441
-0.362501
-0.34759
-0.33096
-0.313166
-0.294894
-0.27677
-0.259252
-0.242628
-0.227011
-0.212116
-0.400564
-0.391382
-0.38295
-0.37446
-0.364972
-0.35413
-0.341735
-0.327792
-0.312588
-0.296611
-0.280399
-0.264409
-0.248976
-0.234315
-0.220175
-0.385747
-0.377559
-0.369945
-0.362366
-0.354145
-0.345027
-0.334782
-0.323263
-0.310534
-0.296872
-0.282678
-0.268364
-0.25427
-0.24069
-0.227433
-0.371381
-0.364221
-0.357423
-0.350654
-0.343469
-0.335733
-0.327253
-0.31782
-0.307346
-0.295918
-0.283777
-0.271241
-0.258617
-0.246238
-0.233974
-0.3578
-0.351666
-0.345677
-0.339651
-0.33333
-0.326691
-0.319613
-0.311897
-0.303379
-0.294008
-0.283868
-0.273157
-0.262108
-0.251047
-0.239864
-0.345232
-0.340089
-0.334892
-0.329563
-0.323987
-0.318227
-0.312243
-0.305888
-0.298989
-0.291418
-0.283138
-0.274226
-0.264814
-0.255189
-0.245182
-0.333808
-0.329593
-0.325157
-0.320493
-0.315583
-0.310549
-0.30542
-0.300117
-0.294501
-0.288426
-0.281789
-0.274569
-0.266797
-0.258716
-0.24998
-0.323585
-0.320212
-0.316492
-0.31246
-0.308163
-0.303754
-0.299311
-0.294817
-0.290186
-0.285296
-0.280028
-0.274314
-0.268107
-0.261648
-0.254362
-0.314554
-0.311926
-0.308863
-0.305427
-0.301703
-0.297854
-0.293986
-0.290128
-0.286244
-0.282254
-0.27806
-0.273598
-0.268787
-0.263945
-0.258309
-0.306661
-0.304673
-0.302201
-0.299318
-0.296132
-0.2928
-0.289437
-0.286101
-0.282791
-0.279468
-0.276068
-0.272557
-0.268887
-0.265466
-0.261956
-0.29982
-0.298367
-0.296415
-0.294038
-0.291352
-0.288503
-0.285602
-0.282716
-0.279868
-0.277039
-0.274194
-0.271325
-0.268453
-0.265982
-0.264968
-0.29392
-0.292905
-0.2914
-0.289479
-0.287253
-0.284854
-0.282382
-0.279904
-0.277447
-0.275
-0.272532
-0.270031
-0.267556
-0.265233
-0.267488
-0.28884
-0.288177
-0.287051
-0.285531
-0.283722
-0.281737
-0.279663
-0.277559
-0.275448
-0.273314
-0.271105
-0.268774
-0.266252
-0.263161
-0.267966
-0.284453
-0.284071
-0.283262
-0.28209
-0.280651
-0.27904
-0.277329
-0.275566
-0.273766
-0.271898
-0.269879
-0.267591
-0.26475
-0.259947
-0.254194
-0.280643
-0.280483
-0.279937
-0.279062
-0.277947
-0.276666
-0.27528
-0.273826
-0.272309
-0.27069
-0.268877
-0.266735
-0.264031
-0.2597
-0.277301
-0.277318
-0.276992
-0.276369
-0.275533
-0.274541
-0.273442
-0.272263
-0.271006
-0.269631
-0.268059
-0.266188
-0.26388
-0.274335
-0.274499
-0.274355
-0.273948
-0.273351
-0.272611
-0.271765
-0.270834
-0.269815
-0.268675
-0.267352
-0.265784
-0.263873
-0.27167
-0.271961
-0.271973
-0.27175
-0.27136
-0.27084
-0.27022
-0.269515
-0.268722
-0.267814
-0.266749
-0.265499
-0.269248
-0.269655
-0.269804
-0.269739
-0.269529
-0.269205
-0.268788
-0.268293
-0.267717
-0.267043
-0.266246
-0.267029
-0.267548
-0.26782
-0.267894
-0.267842
-0.26769
-0.267457
-0.267156
-0.266787
-0.266341
-0.265808
-0.264989
-0.265621
-0.266005
-0.266203
-0.266288
-0.266287
-0.266218
-0.266092
-0.265914
-0.265681
-0.263122
-0.263867
-0.264358
-0.264663
-0.264868
-0.264997
-0.265069
-0.265096
-0.265086
-0.26504
-0.261437
-0.262296
-0.262884
-0.263284
-0.26359
-0.263829
-0.264018
-0.264173
-0.264303
-0.259957
-0.260925
-0.261601
-0.262081
-0.262471
-0.262798
-0.263082
-0.263339
-0.26358
-0.258713
-0.25978
-0.260532
-0.261077
-0.261533
-0.261929
-0.262285
-0.262619
-0.262944
-0.257739
-0.258888
-0.259701
-0.260296
-0.260801
-0.261247
-0.261655
-0.262044
-0.262427
-0.257069
-0.258277
-0.259132
-0.259761
-0.260298
-0.260777
-0.261217
-0.26164
-0.262061
-0.256727
-0.257965
-0.258842
-0.259488
-0.260042
-0.260536
-0.260993
-0.261432
0.318514
0.260796
0.210806
0.183306
0.156053
0.141792
0.125551
0.117525
0.107381
0.10278
0.0964956
0.0940342
0.090456
0.0896698
0.0881108
0.31702
0.260098
0.210426
0.183102
0.155927
0.141709
0.125495
0.117477
0.10735
0.102743
0.0964689
0.0940023
0.0904315
0.08964
0.0880838
0.314041
0.258705
0.209668
0.182695
0.155674
0.141544
0.125383
0.117381
0.10729
0.10267
0.0964154
0.0939386
0.0903824
0.0895808
0.0880298
0.309593
0.256624
0.208536
0.182088
0.155298
0.141296
0.125217
0.117237
0.107199
0.10256
0.0963352
0.0938437
0.0903088
0.0894923
0.0879488
0.303705
0.253865
0.207036
0.181285
0.1548
0.140968
0.124999
0.117045
0.107076
0.102413
0.0962293
0.0937182
0.090211
0.0893752
0.0878409
0.296415
0.25044
0.205177
0.18029
0.154185
0.140562
0.12473
0.116807
0.106921
0.102232
0.0960979
0.0935627
0.0900892
0.08923
0.0877061
0.287772
0.246363
0.202968
0.179111
0.153456
0.140079
0.124413
0.116523
0.106734
0.102012
0.095914
0.0933815
0.0899437
0.0890576
0.0875445
0.27784
0.241655
0.20042
0.177755
0.152617
0.139523
0.124049
0.116195
0.106515
0.101754
0.0957872
0.0931771
0.0897746
0.0888588
0.0873562
0.266692
0.236339
0.197543
0.176228
0.151675
0.138895
0.12364
0.115826
0.106257
0.101432
0.0955609
0.0929421
0.0895825
0.0886345
0.0871412
0.254411
0.230448
0.194346
0.17454
0.150637
0.1382
0.123191
0.115417
0.105965
0.101204
0.0953421
0.0926777
0.0893663
0.088386
0.0868998
0.241091
0.224018
0.190842
0.172697
0.149507
0.13744
0.122702
0.114972
0.105646
0.100831
0.0950895
0.0923797
0.0891255
0.0881153
0.0866321
0.22682
0.217083
0.187036
0.170692
0.148286
0.136613
0.122171
0.114489
0.105305
0.100461
0.094798
0.0920324
0.0888737
0.0878243
0.0863381
0.211682
0.209733
0.182958
0.168552
0.146995
0.135735
0.121612
0.11398
0.104942
0.100071
0.0944788
0.0917611
0.0886111
0.0875121
0.0860177
0.195645
0.202189
0.178696
0.166451
0.145728
0.13491
0.12108
0.113499
0.104586
0.0996842
0.0941506
0.0913817
0.088313
0.0871766
0.0856714
0.178741
0.193474
0.173843
0.163786
0.144221
0.133826
0.120426
0.112878
0.10416
0.099211
0.0937849
0.09097
0.0879917
0.0868231
0.0853037
0.117721
0.151104
0.151195
0.146365
0.135336
0.126009
0.116218
0.108731
0.101712
0.0965961
0.0920893
0.0891356
0.0867216
0.0853046
0.0839055
0.0747704
0.100921
0.114397
0.117056
0.11462
0.110257
0.104799
0.0997886
0.0949073
0.0910235
0.0875936
0.0852121
0.0832841
0.0820582
0.0808796
0.0465049
0.0708239
0.0862659
0.0929125
0.0955895
0.0948846
0.0929207
0.0901526
0.0873158
0.0846413
0.0823285
0.0804733
0.0790446
0.0780468
0.0774025
0.0274676
0.0497435
0.065226
0.0738227
0.0790883
0.0809438
0.0814292
0.080556
0.0793931
0.0778834
0.0765378
0.0752544
0.0742984
0.0736095
0.0733778
0.015155
0.0348101
0.0493382
0.0587198
0.0651872
0.0687008
0.070795
0.0714118
0.0715245
0.0710355
0.0704974
0.0697867
0.0692712
0.0688913
0.0689152
0.00711361
0.024219
0.0374206
0.0467826
0.0536912
0.0581535
0.0612481
0.0629386
0.0639824
0.0643196
0.0644347
0.0642488
0.0641213
0.0640159
0.0641825
0.00180851
0.0166362
0.0284602
0.037368
0.0442728
0.0491806
0.0528387
0.0552381
0.0569324
0.0578947
0.0585207
0.0587755
0.0589703
0.059089
0.059337
-0.00169335
0.0111562
0.0216673
0.0299287
0.036577
0.0416009
0.0455231
0.0483383
0.0504573
0.0518633
0.0528703
0.0534691
0.053916
0.0542066
0.0545041
-0.00397881
0.0071699
0.0164744
0.0240227
0.030279
0.0352139
0.0391983
0.0422184
0.044583
0.0462803
0.0475533
0.0484028
0.0490351
0.0494505
0.0497789
-0.00543266
0.00425802
0.012476
0.0193085
0.0251072
0.0298296
0.0337429
0.0368222
0.0393004
0.0411655
0.0426072
0.0436256
0.0443844
0.0448848
0.045231
-0.00631436
0.00212615
0.00937711
0.0155246
0.020843
0.0252828
0.0290393
0.0320787
0.034576
0.0365156
0.0380466
0.0391663
0.0400024
0.0405552
0.0409087
-0.00680178
0.000564554
0.00696057
0.0124698
0.0173116
0.0214339
0.0249816
0.0279149
0.030365
0.0323116
0.0338711
0.035038
0.0359121
0.0364912
0.0368433
-0.00701835
-0.000577543
0.00506507
0.00998929
0.0143738
0.0181667
0.0214773
0.0242622
0.0266196
0.0285253
0.0300692
0.0312422
0.0321234
0.0327087
0.0330525
-0.00705055
-0.00140961
0.00357005
0.00796355
0.0119184
0.015385
0.0184463
0.0210579
0.0232931
0.0251249
0.0266219
0.0277719
0.0286373
0.029213
0.0295433
-0.0069594
-0.00201158
0.00238489
0.00629993
0.00985672
0.013009
0.0158202
0.0182461
0.0203415
0.0220777
0.0235066
0.0246135
0.0254473
0.0260025
0.0263156
-0.00678781
-0.00244253
0.00144055
0.00492607
0.00811783
0.0109732
0.0135407
0.0157775
0.0177242
0.0193517
0.0206988
0.0217494
0.0225416
0.0230693
0.0233628
-0.00656665
-0.00274672
0.00068345
0.00378508
0.006645
0.00922393
0.0115588
0.0136091
0.0154046
0.0169169
0.0181744
0.0191605
0.0199048
0.0204009
0.0206737
-0.00631724
-0.00296139
7.18492e-05
0.00283321
0.00539353
0.00771736
0.00983309
0.0117034
0.0133498
0.0147449
0.0159095
0.0168269
0.0175199
0.0179821
0.018234
-0.00606
-0.00310896
-0.000420268
0.00203852
0.00432799
0.00641714
0.00832851
0.0100276
0.01153
0.0128095
0.0138812
0.0147284
0.015369
0.0157964
0.0160277
-0.00578614
-0.00318315
-0.000808092
0.00137539
0.00341874
0.00529283
0.00701505
0.00855335
0.00991882
0.0110866
0.0120675
0.0128454
0.013434
0.0138268
0.0140381
-0.00552279
-0.00321777
-0.00111731
0.000820221
0.00264105
0.00431905
0.00586717
0.0072559
0.00849267
0.00955432
0.0104481
0.0111588
0.0116968
0.0120561
0.0122483
-0.00527206
-0.00323108
-0.00136963
0.000351581
0.00197352
0.00347411
0.00486303
0.00611373
0.00723064
0.00819253
0.0090039
0.0096506
0.0101404
0.0104675
0.0106418
-0.00503267
-0.00322666
-0.00157631
-4.6381e-05
0.00139848
0.00273941
0.00398379
0.00510793
0.00611418
0.00698319
0.00771745
0.00830387
0.00874816
0.00904497
0.00920242
-0.00480569
-0.00320764
-0.0017446
-0.000384832
0.000902069
0.00209956
0.00321325
0.004222
0.00512677
0.00590999
0.00657271
0.00710291
0.00750473
0.00777323
0.00791514
-0.00459218
-0.00317777
-0.00188081
-0.000672579
0.000473158
0.00154183
0.00253759
0.00344159
0.00425376
0.00495823
0.00555505
0.00603324
0.00639574
0.00663799
0.00676563
-0.00439264
-0.00314035
-0.00199051
-0.000917145
0.000102459
0.00105552
0.00194504
0.00275419
0.0034822
0.00411476
0.00465122
0.00508159
0.00540791
0.00562602
0.00574061
-0.00420707
-0.00309791
-0.00207839
-0.00112498
-0.000217981
0.000631451
0.00142538
0.00214889
0.00280063
0.0033678
0.00384922
0.00423587
0.00452908
0.00472508
0.00482779
-0.00403508
-0.00305235
-0.0021483
-0.00130154
-0.000494982
0.000261668
0.00096977
0.00161608
0.0021989
0.0027068
0.00313823
0.00348507
0.00374812
0.00392398
0.00401592
-0.00387611
-0.00300507
-0.00220334
-0.0014514
-0.000734377
-6.06997e-05
0.000570443
0.00114732
0.00166803
0.00212234
0.0025085
0.00281923
0.00305492
0.0032125
0.00329469
-0.0037295
-0.00295716
-0.00224609
-0.00157842
-0.00094115
-0.000341599
0.000220631
0.000735175
0.0012
0.001606
0.0019513
0.00222938
0.00244031
0.00258134
0.00265475
-0.00359453
-0.00290942
-0.00227866
-0.00168582
-0.00111957
-0.000586197
-8.56084e-05
0.000373059
0.000787713
0.00115026
0.00145876
0.00170739
0.00189599
0.0020221
0.00208762
-0.00347049
-0.00286243
-0.0023027
-0.00177633
-0.00127333
-0.000799014
-0.000353499
5.51618e-05
0.000424864
0.000748412
0.00102386
0.001246
0.00141451
0.0015272
0.00158564
-0.00335684
-0.00281631
-0.00231952
-0.00185236
-0.0014057
-0.00098404
-0.000587643
-0.000223654
0.000105855
0.000394476
0.000640301
0.000838673
0.00098916
0.00108979
0.00114189
-0.00325251
-0.00277114
-0.00233061
-0.00191621
-0.00151962
-0.00114476
-0.000792082
-0.000467914
-0.000174276
8.31342e-05
0.000302463
0.000479561
0.000613911
0.000703757
0.000750186
-0.00315672
-0.00272901
-0.002338
-0.00196996
-0.00161759
-0.00128421
-0.000970358
-0.000681608
-0.000419924
-0.000190342
5.34046e-06
0.000163441
0.000283377
0.000363589
0.000404966
-0.00307054
-0.00269047
-0.00234253
-0.0020151
-0.0017017
-0.001405
-0.00112557
-0.000868265
-0.000634976
-0.000430152
-0.000255519
-0.000114343
-7.24974e-06
6.43785e-05
0.000101271
-0.00299155
-0.00265356
-0.00234409
-0.00205267
-0.00177369
-0.00150941
-0.00126042
-0.00103099
-0.000822866
-0.000640017
-0.00048407
-0.000357936
-0.000262251
-0.000198251
-0.000165333
-0.00291983
-0.00261843
-0.002343
-0.00208354
-0.00183502
-0.0015994
-0.00137731
-0.0011725
-0.00098663
-0.000823228
-0.00068382
-0.00057101
-0.00048543
-0.000428187
-0.000398784
-0.00285513
-0.00258562
-0.00233999
-0.00210867
-0.00188702
-0.00167668
-0.00147829
-0.00129518
-0.00112894
-0.000982683
-0.000857869
-0.000756816
-0.000680155
-0.000628876
-0.000602571
-0.00279709
-0.00255535
-0.00233573
-0.00212902
-0.00193092
-0.00174277
-0.00156519
-0.00140114
-0.00125212
-0.00112094
-0.00100894
-0.000918222
-0.000849399
-0.00080336
-0.000779775
-0.00274534
-0.00252771
-0.00233069
-0.0021454
-0.00196783
-0.00179903
-0.00163962
-0.00149222
-0.00135825
-0.00124023
-0.00113943
-0.00105775
-0.000995773
-0.000954314
-0.000933103
-0.00269956
-0.00250275
-0.00232526
-0.0021585
-0.00199869
-0.00184666
-0.00170298
-0.00157002
-0.00144911
-0.0013425
-0.00125143
-0.00117759
-0.00112156
-0.00108408
-0.00106492
-0.00265948
-0.00248049
-0.00231974
-0.00216887
-0.0020243
-0.00188665
-0.0017565
-0.00163595
-0.00152625
-0.00142947
-0.00134676
-0.00127965
-0.00122874
-0.00119467
-0.00117729
-0.00262489
-0.00246097
-0.00231439
-0.00217698
-0.00204533
-0.0019199
-0.00180121
-0.00169119
-0.00159101
-0.00150257
-0.00142696
-0.00136558
-0.00131901
-0.00128785
-0.00127197
-0.00259558
-0.00244421
-0.00230943
-0.00218324
-0.00206236
-0.00194711
-0.00183799
-0.00173675
-0.00164453
-0.00156305
-0.00149337
-0.00143677
-0.00139383
-0.0013651
-0.00135047
-0.00257144
-0.00243023
-0.00230505
-0.00218798
-0.00207587
-0.0019689
-0.00186757
-0.00177348
-0.00168773
-0.00161192
-0.00154708
-0.00149439
-0.0014544
-0.00142765
-0.00141403
-0.00255227
-0.0024191
-0.00230139
-0.00219148
-0.00208623
-0.00198575
-0.00189053
-0.00180205
-0.00172139
-0.00165004
-0.00158899
-0.00153937
-0.00150171
-0.00147651
-0.00146369
-0.00253813
-0.00241053
-0.00229856
-0.00219395
-0.00209372
-0.00199802
-0.00190731
-0.001823
-0.00174611
-0.00167806
-0.00161982
-0.00157247
-0.00153653
-0.00151247
-0.00150025
-0.00252844
-0.00240568
-0.0022969
-0.00219543
-0.00209848
-0.00200597
-0.00191829
-0.00183674
-0.00176233
-0.00169647
-0.00164009
-0.00159423
-0.00155943
-0.00153613
-0.0015243
-0.00252591
-0.00240252
-0.00229529
-0.00219581
-0.0021007
-0.00200987
-0.0019237
-0.00184353
-0.00177037
-0.0017056
-0.00165014
-0.00160504
-0.0015708
-0.00154788
-0.00153622
0.0825877
0.0472438
0.0252886
0.0104014
0.000985798
-0.00479843
-0.00825599
-0.0102387
-0.0112715
-0.0116863
-0.0117001
-0.0114576
-0.0110564
-0.0105625
-0.0100214
-0.00946272
-0.00890796
-0.00836444
-0.0078468
-0.00736162
-0.00691806
-0.00650665
-0.00612401
-0.00577029
-0.00544513
-0.00514734
-0.00487523
-0.00462696
-0.00440071
-0.00419471
-0.00400738
-0.00383714
-0.00368291
-0.0035433
-0.00341613
-0.00330078
-0.00319622
-0.00310253
-0.00301877
-0.00294414
-0.00287798
-0.00281976
-0.00276905
-0.00272547
-0.00268868
-0.0026585
-0.00263447
-0.00261721
-0.00260439
-0.00260148
0.0645206
0.0315461
0.0145276
0.00285599
-0.00410969
-0.008343
-0.0107797
-0.012074
-0.012631
-0.0127112
-0.0124863
-0.0120712
-0.0115436
-0.010956
-0.0103446
-0.00973224
-0.00913416
-0.00855381
-0.00800684
-0.00750827
-0.00705296
-0.00662745
-0.0062315
-0.00586623
-0.00553107
-0.00522448
-0.0049445
-0.00468913
-0.00445645
-0.00424463
-0.00405203
-0.00387711
-0.00371879
-0.00357561
-0.00344487
-0.00332546
-0.00321759
-0.00312124
-0.00303516
-0.00295846
-0.00289047
-0.00283064
-0.00277852
-0.00273374
-0.00269594
-0.00266491
-0.00264026
-0.00262239
-0.00260956
-0.00260501
0.0425331
0.0109863
0.000838186
-0.00634444
-0.00982788
-0.0118682
-0.0129372
-0.013377
-0.0133931
-0.0131295
-0.0126878
-0.0121385
-0.0115306
-0.010898
-0.0102641
-0.00964372
-0.00904447
-0.00846716
-0.00792806
-0.00744651
-0.00700551
-0.00658887
-0.00620014
-0.00584158
-0.00551246
-0.00521105
-0.00493533
-0.00468338
-0.00445336
-0.00424357
-0.00405248
-0.00387874
-0.00372131
-0.00357873
-0.00344803
-0.00332792
-0.00321964
-0.00312305
-0.00303669
-0.00295966
-0.0028913
-0.00283109
-0.00277862
-0.00273349
-0.00269538
-0.00266405
-0.00263922
-0.00262098
-0.00260847
-0.00260199
0.024325
-0.00438013
-0.00941572
-0.0136172
-0.0148456
-0.0153786
-0.0154263
-0.0151778
-0.0147206
-0.0141251
-0.0134468
-0.0127266
-0.0119935
-0.0112684
-0.0105651
-0.00989223
-0.00925242
-0.0086446
-0.00808231
-0.0075822
-0.00712482
-0.00669395
-0.00629349
-0.00592508
-0.00558751
-0.00527868
-0.00499637
-0.00473851
-0.00450315
-0.00428852
-0.00409303
-0.0039153
-0.00375419
-0.00360817
-0.00347434
-0.0033514
-0.00324067
-0.00314184
-0.00305344
-0.00297457
-0.00290458
-0.00284294
-0.00278921
-0.002743
-0.00270397
-0.00267187
-0.00264646
-0.00262766
-0.00261505
-0.00260773
0.00826357
-0.0152478
-0.016229
-0.0187969
-0.0188975
-0.0186646
-0.0181034
-0.0173786
-0.0165442
-0.0156472
-0.0147253
-0.0138065
-0.0129104
-0.0120503
-0.0112347
-0.0104677
-0.00974931
-0.00907707
-0.00846058
-0.00791054
-0.00740904
-0.00694163
-0.00651067
-0.00611602
-0.00575561
-0.00542686
-0.00512714
-0.00485403
-0.0046053
-0.00437892
-0.00417309
-0.0039862
-0.00381691
-0.00366354
-0.00352339
-0.00339517
-0.00327976
-0.00317667
-0.00308446
-0.00300225
-0.00292936
-0.00286522
-0.00280933
-0.0027613
-0.00272075
-0.00268741
-0.00266102
-0.00264147
-0.00262842
-0.002621
-0.00819417
-0.0255206
-0.0222726
-0.023394
-0.0225406
-0.0217342
-0.0207022
-0.0195881
-0.0184266
-0.0172546
-0.0161018
-0.0149883
-0.0139276
-0.0129279
-0.0119936
-0.0111253
-0.0103208
-0.00957645
-0.00889843
-0.00829208
-0.00774045
-0.007231
-0.00676461
-0.00633928
-0.00595207
-0.00559986
-0.00527961
-0.00498851
-0.00472401
-0.00448378
-0.00426576
-0.00406812
-0.00388925
-0.00372736
-0.00357984
-0.00344545
-0.00332459
-0.00321654
-0.00311995
-0.00303392
-0.00295771
-0.0028907
-0.00283236
-0.00278225
-0.00273998
-0.00270524
-0.00267774
-0.00265738
-0.00264379
-0.00263646
-0.0251636
-0.0365944
-0.0289764
-0.0283882
-0.0262939
-0.0247571
-0.0231829
-0.0216559
-0.0201649
-0.0187259
-0.0173544
-0.0160602
-0.014849
-0.0137232
-0.0126823
-0.0117234
-0.0108421
-0.0100329
-0.00929944
-0.0086434
-0.00804754
-0.00750041
-0.00700186
-0.00654855
-0.00613681
-0.00576304
-0.00542383
-0.00511604
-0.00483683
-0.00458363
-0.00435416
-0.00414638
-0.00395848
-0.00378853
-0.00363402
-0.00349364
-0.00336749
-0.00325469
-0.00315388
-0.00306418
-0.00298476
-0.00291499
-0.00285428
-0.00280217
-0.00275822
-0.00272213
-0.00269356
-0.0026724
-0.00265829
-0.00265093
-0.0418353
-0.0477675
-0.0361317
-0.0337679
-0.0302509
-0.0278365
-0.0256262
-0.0236394
-0.0217986
-0.0200869
-0.0184995
-0.0170316
-0.015679
-0.0144366
-0.0132987
-0.0122584
-0.0113084
-0.0104414
-0.00965849
-0.0089588
-0.0083244
-0.0077442
-0.00721716
-0.00673894
-0.00630533
-0.0059123
-0.00555609
-0.00523327
-0.00494077
-0.00467579
-0.00443589
-0.00421884
-0.00402266
-0.00384535
-0.00368438
-0.00353841
-0.00340731
-0.00329007
-0.00318534
-0.0030922
-0.00300979
-0.00293742
-0.00287449
-0.00282048
-0.00277496
-0.00273758
-0.002708
-0.00268609
-0.0026715
-0.00266399
-0.0577929
-0.0582143
-0.0431174
-0.0391445
-0.0342507
-0.0309514
-0.0280821
-0.0256187
-0.0234173
-0.0214272
-0.0196213
-0.0179791
-0.0164855
-0.0151278
-0.0138945
-0.0127746
-0.0117579
-0.0108348
-0.0100038
-0.00926186
-0.00859053
-0.00797869
-0.00742429
-0.00692213
-0.0064675
-0.00605597
-0.00568342
-0.00534618
-0.00504089
-0.0047646
-0.00451464
-0.00428865
-0.00408451
-0.0039001
-0.00373291
-0.00358151
-0.00344561
-0.00332408
-0.00321555
-0.00311908
-0.00303377
-0.00295888
-0.00289379
-0.00283795
-0.00279089
-0.00275226
-0.0027217
-0.00269905
-0.00268399
-0.00267627
-0.0730309
-0.0677202
-0.049678
-0.0442808
-0.0381507
-0.0340405
-0.0305446
-0.0276182
-0.0250603
-0.0227918
-0.0207657
-0.0189468
-0.0173097
-0.015834
-0.014503
-0.0133014
-0.0122161
-0.0112354
-0.010355
-0.00956947
-0.00886025
-0.00821607
-0.00763371
-0.0071071
-0.00663105
-0.00620068
-0.00581155
-0.00545965
-0.00514142
-0.00485366
-0.00459354
-0.00435854
-0.00414636
-0.00395481
-0.00378135
-0.0036245
-0.00348376
-0.00335792
-0.00324559
-0.00314578
-0.00305755
-0.00298014
-0.00291289
-0.00285521
-0.00280662
-0.00276674
-0.00273519
-0.0027118
-0.00269627
-0.00268832
-0.087625
-0.0764151
-0.0559127
-0.0491681
-0.0419251
-0.0370735
-0.0329928
-0.0296258
-0.0267218
-0.024179
-0.0219338
-0.0199373
-0.0181549
-0.0165592
-0.0151282
-0.0138429
-0.012687
-0.011647
-0.0107154
-0.00988487
-0.00913656
-0.00845899
-0.00784779
-0.00729597
-0.00679785
-0.00634811
-0.00594191
-0.00557498
-0.00524347
-0.00494398
-0.00467347
-0.00442925
-0.00420888
-0.00401005
-0.00383023
-0.00366783
-0.00352217
-0.00339195
-0.00327576
-0.00317257
-0.0030814
-0.00300144
-0.00293199
-0.00287246
-0.00282232
-0.00278117
-0.00274863
-0.0027245
-0.00270848
-0.00270032
-0.101775
-0.0844425
-0.0620085
-0.0538818
-0.0456171
-0.0400565
-0.035419
-0.0316278
-0.0283864
-0.0255738
-0.0231114
-0.0209381
-0.0190103
-0.0172941
-0.0157623
-0.0143923
-0.013165
-0.0120646
-0.011081
-0.0102048
-0.0094168
-0.00870529
-0.00806471
-0.00748725
-0.00696667
-0.00649722
-0.00607368
-0.00569147
-0.00534648
-0.00503507
-0.00475402
-0.00450045
-0.00427178
-0.0040656
-0.00387934
-0.00371132
-0.00356069
-0.00342604
-0.00330596
-0.00319935
-0.00310521
-0.00302268
-0.00295102
-0.00288961
-0.00283791
-0.00279549
-0.00276195
-0.00273707
-0.00272057
-0.00271219
-0.115082
-0.0922257
-0.0680754
-0.0584747
-0.0492725
-0.0430069
-0.0378292
-0.0336208
-0.0300464
-0.0269672
-0.0242896
-0.0219404
-0.0198677
-0.0180311
-0.0163987
-0.014944
-0.013645
-0.012484
-0.0114481
-0.010526
-0.00969825
-0.00895266
-0.00828253
-0.00767926
-0.0071361
-0.00664681
-0.00620583
-0.00580824
-0.00544968
-0.00512628
-0.00483463
-0.00457167
-0.00433467
-0.0041211
-0.00392838
-0.00375471
-0.00359907
-0.00345998
-0.00333599
-0.00322596
-0.00312883
-0.00304372
-0.00296985
-0.00290657
-0.0028533
-0.0028096
-0.00277506
-0.00274943
-0.00273244
-0.00272384
-0.127309
-0.0999144
-0.0741355
-0.0630292
-0.0529068
-0.0459353
-0.0402334
-0.0356085
-0.0317024
-0.0283588
-0.0254671
-0.0229426
-0.0207253
-0.0187685
-0.0170355
-0.0154962
-0.0141255
-0.0129038
-0.0118153
-0.0108474
-0.00997995
-0.00920024
-0.00850049
-0.00787135
-0.00730555
-0.00679638
-0.00633791
-0.00592491
-0.00555276
-0.00521735
-0.00491507
-0.0046427
-0.00439735
-0.0041764
-0.00397719
-0.00379785
-0.00363719
-0.00349366
-0.00336576
-0.0032523
-0.00315219
-0.0030645
-0.00298842
-0.00292326
-0.00286842
-0.00282345
-0.00278791
-0.00276153
-0.00274404
-0.00273521
-0.138578
-0.107471
-0.0800302
-0.0675885
-0.0565575
-0.0488687
-0.0426479
-0.0375974
-0.0333555
-0.0297514
-0.0266464
-0.0239467
-0.0215847
-0.0195076
-0.0176739
-0.0160497
-0.0146072
-0.0133243
-0.0121831
-0.0111692
-0.0102621
-0.00944818
-0.00871871
-0.00806361
-0.00747509
-0.00694598
-0.00646997
-0.00604151
-0.00565572
-0.00530827
-0.00499534
-0.00471354
-0.00445983
-0.00423148
-0.00402578
-0.00384076
-0.00367507
-0.00352708
-0.00339526
-0.00327838
-0.00317529
-0.00308501
-0.00300672
-0.00293968
-0.00288328
-0.00283703
-0.00280048
-0.00277336
-0.00275538
-0.00274632
-0.149119
-0.114823
-0.085699
-0.072158
-0.0602067
-0.0518088
-0.0450679
-0.0395935
-0.0350177
-0.031151
-0.0278311
-0.0249555
-0.0224482
-0.0202502
-0.0183151
-0.0166057
-0.0150911
-0.0137462
-0.0125521
-0.0114921
-0.0105451
-0.00969685
-0.00893748
-0.00825629
-0.00764494
-0.00709578
-0.00660214
-0.00615816
-0.00575868
-0.00539913
-0.0050755
-0.00478424
-0.00452215
-0.00428639
-0.00407418
-0.00388345
-0.00371271
-0.00356027
-0.00342453
-0.00330421
-0.00319813
-0.00310527
-0.00302475
-0.00295584
-0.00289787
-0.00285035
-0.0028128
-0.00278493
-0.00276645
-0.00275715
-0.159145
-0.121927
-0.0911718
-0.0767331
-0.063839
-0.0547491
-0.0474919
-0.0415974
-0.0366909
-0.0325591
-0.0290227
-0.0259702
-0.0233167
-0.020997
-0.0189601
-0.0171647
-0.0155775
-0.0141703
-0.0129228
-0.0118165
-0.0108293
-0.00994647
-0.00915701
-0.00844955
-0.00781522
-0.00724589
-0.00673453
-0.00627494
-0.00586169
-0.00548998
-0.00515561
-0.00485485
-0.00458434
-0.00434115
-0.00412241
-0.00392595
-0.00375015
-0.00359322
-0.00345355
-0.0033298
-0.00322072
-0.00312527
-0.00304253
-0.00297173
-0.0029122
-0.0028634
-0.00282484
-0.00279623
-0.00277726
-0.00276771
-0.16884
-0.128772
-0.0965098
-0.0813176
-0.0674526
-0.0576883
-0.0499229
-0.0436095
-0.0383743
-0.0339757
-0.0302217
-0.0269912
-0.0241907
-0.0217485
-0.019609
-0.0177271
-0.0160665
-0.0145967
-0.0132955
-0.0121423
-0.0111148
-0.0101971
-0.00937734
-0.00864344
-0.00798597
-0.00739635
-0.00686715
-0.00639186
-0.00596477
-0.00558084
-0.00523568
-0.00492537
-0.00464642
-0.00439577
-0.00417048
-0.00396825
-0.00378736
-0.00362595
-0.00348234
-0.00335514
-0.00324306
-0.00314501
-0.00306005
-0.00298736
-0.00292626
-0.00287618
-0.00283662
-0.00280726
-0.0027878
-0.00277801
-0.178344
-0.135326
-0.101763
-0.085922
-0.0710505
-0.0606333
-0.0523663
-0.0456315
-0.0400679
-0.0354013
-0.0314286
-0.0280192
-0.0250705
-0.022505
-0.020262
-0.0182928
-0.0165583
-0.0150256
-0.01367
-0.0124697
-0.0114015
-0.0104488
-0.00959847
-0.00883794
-0.00815718
-0.00754714
-0.007
-0.00650892
-0.00606791
-0.00567171
-0.0053157
-0.0049958
-0.00470837
-0.00445023
-0.00421836
-0.00401036
-0.00382436
-0.00365845
-0.00351088
-0.00338022
-0.00326513