/*--------------------------------*- C++ -*----------------------------------*\
  =========                 |
  \\      /  F ield         | OpenFOAM: The Open Source CFD Toolbox
   \\    /   O peration     | Website:  https://openfoam.org
    \\  /    A nd           | Version:  7
     \\/     M anipulation  |
\*---------------------------------------------------------------------------*/
FoamFile
{
    version     2.0;
    format      ascii;
    class       surfaceScalarField;
    location    "15";
    object      phi;
}
// * * * * * * * * * * * * * * * * * * * * * * * * * * * * * * * * * * * * * //

dimensions      [0 3 -1 0 0 0 0];

internalField   nonuniform List<scalar> 
6484
(
-5.49069e-05
5.49069e-05
-0.000184423
0.000129517
-0.000362418
0.000177995
-0.000569084
0.000206666
-0.000791671
0.000222587
-0.00102342
0.000231753
-0.00126161
0.000238187
-0.00150564
0.000244032
-0.00175582
0.000250182
-0.00201275
0.000256929
-0.00227711
0.00026436
-0.00254962
0.000272509
-0.002831
0.000281378
-0.00312197
0.000290973
0.000301612
-0.00342358
-5.44318e-05
0.000109339
-0.000183049
0.000258134
-0.00036004
0.000354985
-0.000565749
0.000412375
-0.000787464
0.000444302
-0.00101841
0.000462698
-0.00125582
0.000475598
-0.00149909
0.000487297
-0.0017485
0.000499593
-0.00200465
0.000513078
-0.00226821
0.000527924
-0.0025399
0.000544201
-0.00282044
0.000561913
-0.00311054
0.000581072
0.000602292
-0.00341122
-5.34839e-05
0.000162823
-0.000180304
0.000384954
-0.000355285
0.000529966
-0.00055908
0.00061617
-0.000779051
0.000664273
-0.00100838
0.000692029
-0.00124424
0.00071146
-0.00148598
0.000729032
-0.00173385
0.000747468
-0.00198844
0.000767669
-0.00225042
0.000789899
-0.00252048
0.000814262
-0.00279934
0.000840769
-0.00308769
0.000869425
0.000901107
-0.0033865
-5.20675e-05
0.00021489
-0.000176196
0.000509083
-0.000348161
0.000701931
-0.00054908
0.000817089
-0.000766431
0.000881624
-0.00099334
0.000918937
-0.00122688
0.000945003
-0.00146633
0.000968477
-0.00171191
0.000993045
-0.00196417
0.00101993
-0.00222377
0.0010495
-0.0024914
0.00108189
-0.00276774
0.00111711
-0.00305348
0.00115516
0.00119712
-0.00334949
-5.01895e-05
0.00026508
-0.000170734
0.000629627
-0.000338673
0.000869871
-0.00053575
0.00101417
-0.000749602
0.00109548
-0.000973282
0.00114262
-0.00120374
0.00117546
-0.00144014
0.00120488
-0.00168267
0.00123557
-0.00193185
0.00126911
-0.00218831
0.00130596
-0.00245271
0.00134629
-0.00272572
0.00139012
-0.00300798
0.00143743
0.00148942
-0.00330027
-4.78586e-05
0.000312938
-0.000163932
0.000745701
-0.000326834
0.00103277
-0.000519094
0.00120643
-0.000728561
0.00130494
-0.000948205
0.00136226
-0.00117481
0.00140207
-0.00140743
0.0014375
-0.00164618
0.00147432
-0.00189153
0.00151447
-0.0021441
0.00155852
-0.0024045
0.00160669
-0.00267338
0.001659
-0.00295133
0.00171538
0.00177707
-0.00323898
-4.50864e-05
0.000358025
-0.000155809
0.000856424
-0.000312655
0.00118962
-0.000499113
0.00139288
-0.000703303
0.00150913
-0.0009181
0.00157706
-0.0011401
0.00162407
-0.00136821
0.00166561
-0.00160245
0.00170856
-0.00184326
0.00175528
-0.00209121
0.00180647
-0.00234688
0.00186236
-0.00261087
0.00192299
-0.0028837
0.00198821
0.00205921
-0.00316584
-4.18867e-05
0.000399911
-0.000146387
0.000960923
-0.000296154
0.00133939
-0.000475812
0.00157254
-0.000673819
0.00170714
-0.000882954
0.00178619
-0.0010996
0.00184071
-0.00132248
0.00188849
-0.00155151
0.00193759
-0.00178708
0.00199085
-0.00202973
0.00204911
-0.00227998
0.00211261
-0.00253838
0.00218139
-0.00280535
0.00225518
0.00233499
-0.00308114
-3.82764e-05
0.000438188
-0.000135691
0.00105834
-0.000277351
0.00148105
-0.000449194
0.00174438
-0.000640094
0.00189804
-0.000842746
0.00198884
-0.00105328
0.00205125
-0.00127022
0.00210543
-0.00149336
0.00216073
-0.00172304
0.00222053
-0.00195975
0.00228581
-0.00220397
0.00235684
-0.00245617
0.00243359
-0.00271664
0.00251565
0.00260368
-0.00298532
-3.42756e-05
0.000472463
-0.000123757
0.00114782
-0.000256271
0.00161356
-0.000419262
0.00190738
-0.000602112
0.00208089
-0.000797442
0.00218417
-0.00100112
0.00225492
-0.00121141
0.00231573
-0.001428
0.00237732
-0.00165114
0.00244368
-0.00188129
0.00251596
-0.00211892
0.00259447
-0.00236442
0.00267909
-0.0026179
0.00276913
0.0028647
-0.00287892
-2.99088e-05
0.000502372
-0.000110626
0.00122854
-0.000232951
0.00173588
-0.000386029
0.00206045
-0.000559858
0.00225472
-0.000747009
0.00237133
-0.00094306
0.00245098
-0.00114602
0.00251869
-0.00135541
0.0025867
-0.00157143
0.00265969
-0.0017945
0.00273903
-0.00202512
0.00282509
-0.00226369
0.00291767
-0.00251008
0.00301551
0.00311761
-0.00276298
-2.52053e-05
0.000527577
-9.63529e-05
0.00129969
-0.000207439
0.00184697
-0.000349511
0.00220253
-0.000513305
0.00241851
-0.000691382
0.0025494
-0.000879007
0.0026386
-0.00107389
0.00271357
-0.00127536
0.00278817
-0.00148354
0.00286787
-0.00169883
0.00295433
-0.00192177
0.00304802
-0.00215299
0.00314889
-0.00239241
0.00325492
0.00336283
-0.00263763
-2.02005e-05
0.000547778
-8.10074e-05
0.00136049
-0.000179805
0.00194577
-0.000309752
0.00233247
-0.000462463
0.00257123
-0.000630546
0.00271748
-0.000808954
0.00281701
-0.000995068
0.00289969
-0.00118804
0.00298114
-0.00138797
0.00306781
-0.00159533
0.00316169
-0.0018107
0.00326339
-0.00203514
0.00337333
-0.00226959
0.00348938
0.00360176
-0.00250852
-1.49376e-05
0.000562715
-6.46826e-05
0.00141024
-0.000150149
0.00203123
-0.000266816
0.00244914
-0.000407338
0.00271175
-0.000564436
0.00287458
-0.000732725
0.0029853
-0.000909184
0.00307615
-0.00109267
0.00316462
-0.00128313
0.00325827
-0.00148096
0.00335951
-0.00168642
0.00346886
-0.00190026
0.00358717
-0.00212666
0.00371577
0.00384185
-0.00236675
-9.47424e-06
0.00057219
-4.75021e-05
0.00144826
-0.000118606
0.00210234
-0.000220814
0.00255135
-0.000347999
0.00283893
-0.00049308
0.00301966
-0.000650355
0.00314257
-0.000816379
0.00324217
-0.000989737
0.00333798
-0.00117041
0.00343895
-0.0013593
0.00354841
-0.00155788
0.00366744
-0.0017672
0.00379649
-0.00198846
0.00393703
0.00411358
-0.00226019
-3.97476e-06
0.000576164
-2.96082e-05
0.0014739
-8.53565e-05
0.00215809
-0.000171922
0.00263791
-0.000284575
0.00295159
-0.000416558
0.00315165
-0.000561858
0.00328787
-0.000716538
0.00339685
-0.00087876
0.0035002
-0.00104818
0.00360837
-0.0012253
0.00372552
-0.00141088
0.00385302
-0.00160607
0.00399168
-0.00181368
0.00414463
0.00430908
-0.00200918
1.58389e-06
0.000574581
-1.10173e-05
0.0014865
-5.06116e-05
0.00219768
-0.000120376
0.00270768
-0.000217271
0.00304848
-0.000335016
0.00326939
-0.000467318
0.00342018
-0.000609657
0.00353919
-0.000759601
0.00365015
-0.000916254
0.00376502
-0.0010795
0.00388877
-0.00124944
0.00402296
-0.00142587
0.00416811
-0.00160797
0.00432674
0.00450317
-0.00180206
7.5869e-06
0.000566994
7.8766e-06
0.00148621
-1.4398e-05
0.00221996
-6.64992e-05
0.00275978
-0.000146401
0.00312838
-0.000248761
0.00337175
-0.000367078
0.00353849
-0.000496239
0.00366835
-0.00063317
0.00378708
-0.000776451
0.0039083
-0.000925591
0.00403791
-0.00108054
0.0041779
-0.00124144
0.00432902
-0.00140831
0.0044936
0.0046766
-0.00158174
1.29574e-05
0.000554036
2.65136e-05
0.00147265
2.20169e-05
0.00222445
-1.03685e-05
0.00279216
-7.24295e-05
0.00319044
-0.000158216
0.00345754
-0.000261634
0.00364191
-0.000376951
0.00378367
-0.000500446
0.00391057
-0.00063023
0.00403808
-0.000765542
0.00417322
-0.000906245
0.00431861
-0.00105254
0.00447532
-0.00120433
0.00464539
0.00483322
-0.00136095
1.81283e-05
0.000535908
4.49167e-05
0.00144587
5.85454e-05
0.00221082
4.60951e-05
0.00280461
4.4669e-06
0.00323207
-6.38694e-05
0.00352587
-0.000151486
0.00372953
-0.00025229
0.00388447
-0.000361977
0.00402026
-0.000478139
0.00415425
-0.000599715
0.0042948
-0.000726435
0.00444532
-0.000858406
0.00460729
-0.000995547
0.00478253
0.004975
-0.00113732
2.30113e-05
0.000512897
6.27879e-05
0.00140609
9.49862e-05
0.00217862
0.000103481
0.00279612
8.21628e-05
0.00325339
3.33599e-05
0.00357468
-3.71654e-05
0.00380005
-0.00012268
0.00396999
-0.000218112
0.00411569
-0.000320435
0.00425657
-0.000428241
0.0044026
-0.000541093
0.00455818
-0.000659031
0.00472522
-0.000781992
0.0049055
0.00510254
-0.000909531
2.74876e-05
0.000485409
7.97783e-05
0.0013538
0.000130622
0.00212778
0.000160934
0.00276581
0.000161787
0.00325254
0.000133283
0.00360318
8.08971e-05
0.00385244
1.14904e-05
0.00403939
-6.91617e-05
0.00419635
-0.000157363
0.00434477
-0.000251305
0.00449655
-0.000350287
0.00465716
-0.000454302
0.00482924
-0.000563211
0.0050144
0.00521576
-0.000676431
3.14286e-05
0.000453981
9.5493e-05
0.00128973
0.000164766
0.00205851
0.000217472
0.0027131
0.000241623
0.00322839
0.000235035
0.00360977
0.000202122
0.00388535
0.000149843
0.00409167
8.45705e-05
0.00426162
1.0721e-05
0.00441862
-6.91576e-05
0.00457642
-0.000154171
0.00474217
-0.000244248
0.00491932
-0.000339257
0.00510941
0.00531441
-0.000437908
3.47281e-05
0.000419252
0.000109536
0.00121493
0.000196655
0.00197139
0.00027206
0.0026377
0.000320636
0.00317981
0.000337524
0.00359288
0.000325653
0.00389722
0.000291735
0.00412559
0.000242722
0.00431063
0.000183862
0.00447748
0.000118213
0.00464207
4.72542e-05
0.00481313
-2.85545e-05
0.00499513
-0.000109526
0.00519039
0.00540037
-0.000195492
3.72979e-05
0.000381955
0.000121527
0.0011307
0.000225488
0.00186743
0.000323535
0.00253965
0.000397504
0.00310584
0.000439486
0.0035509
0.000450426
0.00388628
0.000436388
0.00413963
0.000404696
0.00434232
0.000361413
0.00452076
0.000310462
0.00469302
0.000253846
0.00486975
0.000192181
0.00505679
0.000124987
0.00525758
0.00547589
4.94738e-05
3.907e-05
0.000342885
0.000131111
0.00103866
0.00025044
0.0017481
0.000370597
0.00241949
0.000470639
0.0030058
0.000539322
0.00348222
0.000575051
0.00385055
0.000582732
0.00413195
0.000569771
0.00435528
0.000543026
0.00454751
0.000507359
0.00472869
0.000465549
0.00491156
0.000418871
0.00510347
0.000367829
0.00530862
0.00552982
0.000313898
4e-05
0.000302885
0.000137984
0.000940671
0.000270701
0.00161538
0.000411842
0.00227835
0.000538196
0.00287944
0.000635051
0.00338536
0.000697715
0.00378789
0.000729307
0.00410036
0.000736889
0.0043477
0.000727965
0.00455643
0.000708437
0.00474822
0.000682077
0.00493792
0.000650937
0.00513461
0.000616027
0.00534353
0.00556798
0.000577864
4.00724e-05
0.000262812
0.000141917
0.000838827
0.000285525
0.00147177
0.00044582
0.00211806
0.000598098
0.00272717
0.000724283
0.00325918
0.000816089
0.00369608
0.000874131
0.00404231
0.000904519
0.00431731
0.000915093
0.00454586
0.000912767
0.00475054
0.000902416
0.00494827
0.000886945
0.00515008
0.00086788
0.0053626
0.00558981
0.000846055
3.93061e-05
0.000223506
0.000142786
0.000735347
0.000294308
0.00132025
0.000471133
0.00194123
0.000648114
0.00255018
0.000804227
0.00310306
0.000927265
0.00357304
0.00101457
0.003955
0.00107053
0.00426136
0.0011028
0.00451359
0.00111912
0.00473422
0.00112555
0.00494184
0.00112604
0.00514959
0.00112288
0.00536576
0.00559523
0.00111746
3.77569e-05
0.000185749
0.0001406
0.000632504
0.000296669
0.00116418
0.000486575
0.00175133
0.000685996
0.00235076
0.00087177
0.00291729
0.00102774
0.00341708
0.00114726
0.00383548
0.00123208
0.00417654
0.0012889
0.00445676
0.00132593
0.00469719
0.00135037
0.0049174
0.00136743
0.00513253
0.00138032
0.00535286
0.00558444
0.00139111
3.55162e-05
0.000150233
0.000135516
0.000532505
0.000292518
0.00100718
0.000491287
0.00155256
0.000709693
0.00213236
0.000923649
0.00270333
0.00111345
0.00322728
0.001268
0.00368092
0.00138538
0.00405916
0.00147039
0.00437175
0.00153101
0.00463657
0.00157539
0.00487303
0.00161005
0.00509787
0.00163941
0.0053235
0.00555749
0.00166636
3.27072e-05
0.000117526
0.000127839
0.000437373
0.000282111
0.000852908
0.000484921
0.00134975
0.000717615
0.00189966
0.000956735
0.00246421
0.00117999
0.00300402
0.00137177
0.00348915
0.00152559
0.00390534
0.00164314
0.0042542
0.00173124
0.00454847
0.00179841
0.00480586
0.00185244
0.00504385
0.00189914
0.0052768
0.00551412
0.00194251
2.94763e-05
8.80495e-05
0.000118008
0.000348842
0.000266065
0.000704851
0.000467765
0.00114805
0.000708931
0.0016585
0.000968433
0.00220471
0.00122294
0.00274952
0.00145287
0.00325921
0.00164666
0.00371155
0.00180166
0.0040992
0.00192217
0.00442796
0.0020162
0.00471183
0.00209242
0.00496763
0.00215811
0.0052111
0.00545356
0.00221868
2.59817e-05
6.20678e-05
0.000106561
0.000268263
0.000245324
0.000566087
0.000440799
0.000952573
0.00068383
0.00141547
0.000957171
0.00193137
0.00123841
0.00246828
0.00150538
0.00299224
0.00174152
0.00347541
0.00193882
0.0039019
0.0020976
0.00426918
0.00222398
0.00458546
0.00232666
0.00486495
0.00241419
0.00512357
0.00537423
0.00249351
2.23817e-05
3.96861e-05
9.40901e-05
0.000196554
0.000221079
0.000439098
0.000405648
0.000768004
0.000643658
0.00117746
0.000922858
0.00165217
0.00122382
0.00216732
0.00152386
0.00269221
0.00180249
0.00319678
0.002046
0.00365839
0.00224928
0.0040659
0.00241482
0.00441992
0.00254999
0.00472978
0.00266386
0.0050097
0.00527333
0.00276477
1.88219e-05
2.08643e-05
8.11905e-05
0.000134186
0.000194655
0.000325634
0.000364432
0.000598227
0.000590883
0.000951007
0.000867191
0.00137586
0.00117861
0.0018559
0.00150441
0.00236641
0.00182228
0.0028789
0.00211352
0.00336715
0.00236678
0.00381265
0.00257912
0.00420757
0.00275463
0.00455427
0.0029015
0.00486284
0.00514621
0.00302862
1.54267e-05
5.43755e-06
6.84118e-05
8.12006e-05
0.000167382
0.000226664
0.000319539
0.00044607
0.000528851
0.000741695
0.000793648
0.00111107
0.00110482
0.00154472
0.00144587
0.00202536
0.00179544
0.00252933
0.0021319
0.00303069
0.00243807
0.00350648
0.00270434
0.00394129
0.00292933
0.00432928
0.00311818
0.00467399
0.00498572
0.00327866
1.22934e-05
-6.85589e-06
5.62221e-05
3.72719e-05
0.000140481
0.000142405
0.000273369
0.000313181
0.000461379
0.000553686
0.000707121
0.000865324
0.00100715
0.00124469
0.00135067
0.00168184
0.00172009
0.00215992
0.00209391
0.00265687
0.00245115
0.00314924
0.00277569
0.00361675
0.00305902
0.00404595
0.00330072
0.00443229
0.00478177
0.00350467
9.48947e-06
-1.63454e-05
4.49855e-05
1.7759e-06
0.000114975
7.24156e-05
0.0002281
0.000200056
0.000392299
0.000389487
0.000613264
0.000644359
0.000892428
0.000965526
0.00122504
0.00134923
0.00159925
0.00178571
0.00199697
0.00225915
0.0023968
0.00274941
0.00277822
0.00323534
0.00312557
0.0036986
0.00343089
0.00412696
0.00452157
0.00369109
7.05546e-06
-2.34008e-05
3.49553e-05
-2.61239e-05
9.16424e-05
1.57284e-05
0.000185521
0.000106178
0.000325044
0.000249963
0.000517727
0.000451677
0.000768581
0.000714672
0.00107822
0.00103959
0.00144116
0.00142277
0.00184513
0.00185519
0.00227204
0.0023225
0.00270073
0.00280664
0.00311078
0.00328855
0.00348676
0.00375098
0.00419127
0.00381706
5.00759e-06
-2.84084e-05
2.62761e-05
-4.73924e-05
7.09942e-05
-2.89897e-05
0.000146934
3.02387e-05
0.000262355
0.000134542
0.000425478
0.000288553
0.000643463
0.000496687
0.000920899
0.000762153
0.00125804
0.00108563
0.00164928
0.00146395
0.00208258
0.0018892
0.00254034
0.00234888
0.00300167
0.00282722
0.00344646
0.00330619
0.00378076
0.00385697
3.33975e-06
-3.17482e-05
1.89924e-05
-6.30451e-05
5.32847e-05
-6.3282e-05
0.000113128
-2.96051e-05
0.000206116
4.15543e-05
0.000340329
0.00015434
0.000523787
0.000313229
0.000763455
0.000522485
0.00106383
0.000785258
0.00142532
0.00110245
0.00184289
0.00147163
0.00230547
0.0018863
0.00279647
0.00233622
0.00329594
0.00280671
0.00328784
0.00378886
2.02653e-06
-3.37747e-05
1.30584e-05
-7.40769e-05
3.85312e-05
-8.87548e-05
8.44021e-05
-7.54759e-05
0.000157334
-3.13779e-05
0.000264715
4.69593e-05
0.000414447
0.000163497
0.000614426
0.000322506
0.000871621
0.000528063
0.00119081
0.000783267
0.00157315
0.00108929
0.00201498
0.00144446
0.00250726
0.00184395
0.0030359
0.00227808
0.00272772
0.00359602
1.02595e-06
-3.48006e-05
8.35252e-06
-8.14035e-05
2.65509e-05
-0.000106953
6.06239e-05
-0.000109549
0.00011621
-8.69641e-05
0.000199706
-3.65365e-05
0.000318271
4.49317e-05
0.000479638
0.000161138
0.000691652
0.000316049
0.000961479
0.00051344
0.00129456
0.000756207
0.00169351
0.00104551
0.00215771
0.00137975
0.00268254
0.00175325
0.00212082
0.00328943
2.84743e-07
-3.50854e-05
4.69899e-06
-8.58178e-05
1.70136e-05
-0.000119268
4.13391e-05
-0.000133874
8.23083e-05
-0.000127933
0.000145229
-9.94575e-05
0.000236193
-4.60319e-05
0.000362081
3.52506e-05
0.000530406
0.000147724
0.000748937
0.000294909
0.00102509
0.000480051
0.00136523
0.000705381
0.00177432
0.000970657
0.00225955
0.00126802
0.00150074
0.00287963
-2.5717e-07
-3.48282e-05
1.89455e-06
-8.79695e-05
9.50897e-06
-0.000126882
2.59009e-05
-0.000150266
5.4788e-05
-0.00015682
0.000100429
-0.000145098
0.000167755
-0.000113358
0.00026246
-5.94549e-05
0.000390995
1.9189e-05
0.0005604
0.000125504
0.000777914
0.000262536
0.0010503
0.000432994
0.00138241
0.00063855
0.00177332
0.000877106
-6.53088e-07
-3.41751e-05
-2.58299e-07
-8.83643e-05
3.61083e-06
-0.000130751
1.35979e-05
-0.000160253
3.26338e-05
-0.000175856
6.40528e-05
-0.000176517
0.00011171
-0.000161015
0.000180084
-0.00012783
0.000274336
-7.5063e-05
0.000400263
-4.22767e-07
0.00056408
9.872e-05
0.000772038
0.000225036
0.00103007
0.000380515
-9.55569e-07
-3.32196e-05
-1.95556e-06
-8.73643e-05
-1.08156e-06
-0.000131625
3.74083e-06
-0.000165076
1.48096e-05
-0.000186925
3.47105e-05
-0.000196418
6.6406e-05
-0.00019271
0.00011334
-0.000174763
0.00017952
-0.000141243
0.000269568
-9.04711e-05
0.000388745
-2.04567e-05
0.000542975
7.0806e-05
0.000184314
-1.20357e-06
-3.2016e-05
-3.34466e-06
-8.52232e-05
-4.925e-06
-0.000130045
-4.30092e-06
-0.0001657
3.33422e-07
-0.000191559
1.0991e-05
-0.000207076
2.99712e-05
-0.000211691
5.99344e-05
-0.000204727
0.000104008
-0.000185317
0.000165907
-0.000152369
0.00025009
-0.00010464
0.000362017
-4.1121e-05
-1.43061e-06
-3.05854e-05
-4.56221e-06
-8.20916e-05
-8.21871e-06
-0.000126388
-1.10857e-05
-0.000162833
-1.17121e-05
-0.000190933
-8.48016e-06
-0.000210308
4.40633e-07
-0.000220611
1.71752e-05
-0.000221461
4.42464e-05
-0.000212388
8.47208e-05
-0.000192844
0.000142416
-0.000162335
-1.66354e-06
-2.89218e-05
-5.71727e-06
-7.80379e-05
-1.12215e-05
-0.000120884
-1.70962e-05
-0.000156958
-2.21348e-05
-0.000185894
-2.49891e-05
-0.000207453
-2.41307e-05
-0.00022147
-1.77849e-05
-0.000227807
-3.83334e-06
-0.00022634
2.03227e-05
-0.000217
-0.000199949
-1.92246e-06
-2.69994e-05
-6.89326e-06
-7.30671e-05
-1.41343e-05
-0.000113643
-2.2725e-05
-0.000148368
-3.16228e-05
-0.000176997
-3.96573e-05
-0.000199419
-4.55018e-05
-0.000215625
-4.76217e-05
-0.000225687
-4.41971e-05
-0.000229765
-3.30237e-05
-0.000228173
-2.21899e-06
-2.47804e-05
-8.14153e-06
-6.71445e-05
-1.70882e-05
-0.000104697
-2.82412e-05
-0.000137215
-4.06683e-05
-0.000164569
-5.33238e-05
-0.000186763
-6.50318e-05
-0.000203917
-7.44512e-05
-0.000216268
-8.00269e-05
-0.000224189
-0.000228264
-2.5543e-06
-2.22261e-05
-9.47486e-06
-6.0224e-05
-2.01298e-05
-9.40417e-05
-3.37634e-05
-0.000123581
-4.95205e-05
-0.000148812
-6.6454e-05
-0.00016983
-8.35196e-05
-0.000186852
-9.95599e-05
-0.000200227
-0.000113283
-0.000210465
-2.91815e-06
-1.93079e-05
-1.0865e-05
-5.22771e-05
-2.32169e-05
-8.16898e-05
-3.92516e-05
-0.000107546
-5.81711e-05
-0.000129893
-7.91148e-05
-0.000148886
-0.000101165
-0.000164801
-0.000123348
-0.000178044
-0.000189177
-3.28984e-06
-1.60181e-05
-1.22469e-05
-4.33201e-05
-2.6228e-05
-6.77087e-05
-4.45254e-05
-8.92488e-05
-6.63854e-05
-0.000108033
-9.10263e-05
-0.000124245
-0.000117653
-0.000138175
-0.000145471
-0.000150226
-0.000160943
-3.64121e-06
-1.23769e-05
-1.35292e-05
-3.3432e-05
-2.8986e-05
-5.2252e-05
-4.93059e-05
-6.89288e-05
-7.377e-05
-8.35688e-05
-0.000101666
-9.63487e-05
-0.000132312
-0.000107529
-0.000165077
-0.000117462
-0.000126611
-3.94103e-06
-8.43585e-06
-1.46101e-05
-2.2763e-05
-3.12899e-05
-3.55721e-05
-5.32712e-05
-4.69475e-05
-7.98606e-05
-5.69794e-05
-0.000110404
-6.58055e-05
-0.000144311
-7.36212e-05
-0.000181087
-8.06862e-05
-8.73351e-05
-4.16005e-06
-4.27579e-06
-1.53934e-05
-1.15297e-05
-3.29502e-05
-1.80153e-05
-5.61155e-05
-2.37823e-05
-8.42132e-05
-2.88817e-05
-0.00011663
-3.33889e-05
-0.000152843
-3.74082e-05
-0.000192452
-4.10772e-05
-4.2757e-06
-1.58052e-05
-3.38202e-05
-5.7602e-05
-8.64832e-05
-0.000119872
-0.000157279
-0.00403035
0.000606766
-0.00431723
0.000286877
-0.00454727
0.000230044
-0.00464984
0.000102569
-0.00475024
0.000100405
-0.00478363
3.33848e-05
-0.00482648
4.28508e-05
-0.00482912
2.63551e-06
-0.00484107
1.19553e-05
-0.00482721
-1.38591e-05
-0.00482004
-7.16609e-06
-0.00479597
-2.40749e-05
-0.00477573
-2.02372e-05
-0.00474428
-3.14532e-05
-3.02343e-05
-0.00401724
0.00121279
-0.00430473
0.000574364
-0.00453539
0.000460703
-0.00463905
0.000206234
-0.00474032
0.000201675
-0.00477484
6.79033e-05
-0.00481858
8.65881e-05
-0.00482232
6.37501e-06
-0.00483516
2.47909e-05
-0.00482239
-2.66277e-05
-0.00481613
-1.34196e-05
-0.00479309
-4.71141e-05
-0.00477379
-3.95451e-05
-0.00474334
-6.19033e-05
-5.95251e-05
-0.00399101
0.00181729
-0.00427977
0.00086313
-0.00451165
0.000692582
-0.00461751
0.000312095
-0.00472051
0.000304673
-0.00475729
0.000104687
-0.0048028
0.000132096
-0.00480875
1.23222e-05
-0.00482335
3.93886e-05
-0.00481275
-3.72221e-05
-0.00480832
-1.78487e-05
-0.00478735
-6.80872e-05
-0.0047699
-5.69956e-05
-0.00474145
-9.03508e-05
-8.69307e-05
-0.00395158
0.00241939
-0.00424241
0.00115396
-0.00447609
0.000926265
-0.00458526
0.000421259
-0.00469085
0.000410265
-0.00473102
0.000144862
-0.00477918
0.000180254
-0.00478844
2.15767e-05
-0.00480568
5.66328e-05
-0.00479833
-4.45723e-05
-0.00479663
-1.95438e-05
-0.00477875
-8.59731e-05
-0.00476408
-7.16628e-05
-0.00473863
-0.000115804
-0.000111513
-0.00389893
0.00301804
-0.00419273
0.00144776
-0.00442879
0.00116232
-0.00454236
0.000534836
-0.00465141
0.000519316
-0.0046961
0.000189547
-0.00474778
0.000231939
-0.00476144
3.52286e-05
-0.00478221
7.74111e-05
-0.00477916
-4.76253e-05
-0.0047811
-1.76031e-05
-0.00476731
-9.97618e-05
-0.00475635
-8.26255e-05
-0.00473487
-0.000137281
-0.000132341
-0.00383299
0.00361205
-0.00413085
0.00174561
-0.00436984
0.00140131
-0.00448893
0.000653932
-0.00460231
0.000632698
-0.00465261
0.000239845
-0.0047087
0.000288024
-0.00472782
5.43522e-05
-0.00475303
0.000102616
-0.00475531
-4.53442e-05
-0.00476178
-1.11322e-05
-0.00475307
-0.000108469
-0.00474673
-8.89693e-05
-0.00473019
-0.000153814
-0.000148491
-0.00375378
0.00419999
-0.00405674
0.00204857
-0.00429938
0.00164395
-0.00442509
0.00077964
-0.00454368
0.00075129
-0.00460068
0.000296844
-0.00466203
0.000349379
-0.00468768
8.00019e-05
-0.00471822
0.000133154
-0.00472678
-3.67843e-05
-0.00473875
8.40321e-07
-0.00473604
-0.000111182
-0.00473524
-8.97655e-05
-0.0047246
-0.000164453
-0.00015905
-0.00366135
0.0047802
-0.00397046
0.00235768
-0.0042176
0.00189109
-0.00435099
0.00091303
-0.00447567
0.000875977
-0.00454044
0.000361606
-0.00460793
0.00041687
-0.00464113
0.000113209
-0.00467789
0.000169907
-0.00469387
-2.08011e-05
-0.00471189
1.88616e-05
-0.00471629
-0.000106781
-0.00472193
-8.41295e-05
-0.00471811
-0.000168269
-0.000163118
-0.00355585
0.00535072
-0.00387213
0.00267397
-0.00412472
0.00214368
-0.00426682
0.00105513
-0.00439849
0.00100765
-0.00447206
0.000435169
-0.00454654
0.000491355
-0.00458831
0.000154978
-0.0046321
0.000213699
-0.00465636
3.46056e-06
-0.00468156
4.40598e-05
-0.00469387
-9.44707e-05
-0.00470682
-7.11854e-05
-0.00471074
-0.000164346
-0.000159813
-0.00343757
0.00590938
-0.0037619
0.00299829
-0.00402105
0.00240283
-0.00417282
0.0012069
-0.00431237
0.0011472
-0.00439574
0.000518538
-0.00447806
0.00057368
-0.00452931
0.000206224
-0.00458125
0.000265634
-0.00461429
3.65028e-05
-0.00464769
7.74604e-05
-0.00466887
-7.32903e-05
-0.00468995
-5.01038e-05
-0.0047025
-0.000151796
-0.000148268
-0.003307
0.00645339
-0.00364
0.0033313
-0.00390696
0.00266979
-0.00406928
0.00136921
-0.0042176
0.00129552
-0.00431174
0.000612683
-0.00440271
0.000664642
-0.00446436
0.000267877
-0.00452503
0.000326309
-0.00456821
7.96822e-05
-0.00461043
0.00011968
-0.00464135
-4.23745e-05
-0.00467138
-2.00727e-05
-0.00469341
-0.000129763
-0.000127636
-0.00316499
0.00698075
-0.00350678
0.00367309
-0.00378293
0.00294594
-0.00395665
0.00154294
-0.0041145
0.00145337
-0.00422038
0.000718557
-0.00432072
0.000764985
-0.00439366
0.00034082
-0.00446388
0.000396522
-0.00451796
0.000133769
-0.00456988
0.000171603
-0.0046114
-8.59868e-07
-0.00465112
1.96429e-05
-0.0046835
-9.7374e-05
-9.70954e-05
-0.00301258
0.00748481
-0.00336237
0.00402288
-0.00364921
0.00323278
-0.00383511
0.00172883
-0.00400324
0.0016215
-0.00412181
0.000837125
-0.00423228
0.000875457
-0.00431739
0.000425934
-0.00439794
0.000477075
-0.00446373
0.000199556
-0.00452631
0.000234181
-0.00457892
5.17464e-05
-0.00462926
6.99849e-05
-0.00467281
-5.38233e-05
-5.58589e-05
-0.00285419
0.00797224
-0.00320843
0.00437713
-0.00350706
0.00353141
-0.00370569
0.00192747
-0.0038845
0.00180031
-0.00401659
0.000969214
-0.00413783
0.000996693
-0.00423589
0.000523991
-0.00432749
0.000568683
-0.00440575
0.000277808
-0.00447955
0.000307984
-0.00454431
0.000116504
-0.00460589
0.000131566
-0.00466136
1.64392e-06
-3.16929e-06
-0.00270486
0.00841691
-0.00306084
0.00473311
-0.00337016
0.00384073
-0.0035786
0.00213591
-0.00376766
0.00198936
-0.00390954
0.00111109
-0.00404254
0.00112969
-0.00415118
0.000632634
-0.00425528
0.000672786
-0.00434476
0.000367287
-0.00443124
0.000394464
-0.00450753
0.000192792
-0.00458187
0.000205904
-0.00464893
6.87015e-05
6.19505e-05
-0.0266447
0.00746068
0.027601
-0.0260373
0.00412566
-0.0265709
0.00437429
-0.0267266
0.00229165
-0.0272441
0.00250683
-0.0274316
0.0012986
-0.0278019
0.00149997
-0.0279317
0.000762516
-0.0281844
0.00092541
-0.0282597
0.000442676
-0.0284271
0.00056178
-0.0284592
0.000224952
-0.0285605
0.00030715
-0.0285499
5.80935e-05
9.78754e-05
-0.0276624
0.00620445
0.0289187
-0.027476
0.0039392
-0.0272737
0.00417202
-0.0274013
0.00241929
-0.0275813
0.00268683
-0.0277462
0.00146344
-0.0279635
0.0017173
-0.0280793
0.00087835
-0.0282548
0.00110088
-0.028325
0.000512881
-0.0284509
0.000687713
-0.0284849
0.000258968
-0.0285625
0.000384736
-0.0285566
5.21786e-05
0.000127047
-0.028604
0.00517972
0.0296288
-0.0283306
0.00366574
-0.0279711
0.00381259
-0.0279946
0.00244273
-0.027946
0.00263825
-0.0280673
0.00158472
-0.0281263
0.00177632
-0.0282462
0.000998184
-0.0283203
0.00117504
-0.0284098
0.000602385
-0.0284687
0.000746621
-0.028523
0.000313199
-0.0285552
0.000416999
-0.0285767
7.3663e-05
0.000136131
-0.0292315
0.00436375
0.0300475
-0.028885
0.00331922
-0.0284867
0.00341432
-0.0284341
0.00239006
-0.0282803
0.00248451
-0.028338
0.00164237
-0.0283064
0.00174473
-0.0283943
0.00108612
-0.0284041
0.00118482
-0.0284819
0.00068017
-0.0284971
0.000761793
-0.0285512
0.000367332
-0.0285578
0.000423657
-0.0285896
0.000105461
0.000132277
-0.0295972
0.00371404
0.0302469
-0.0292388
0.00296087
-0.0288595
0.00303501
-0.0287347
0.00226521
-0.0285514
0.00230122
-0.0285451
0.00163604
-0.0284697
0.00166939
-0.028512
0.00112844
-0.0284879
0.00116064
-0.0285383
0.000730618
-0.0285307
0.000754201
-0.028572
0.000408607
-0.0285665
0.000418174
-0.0285951
0.000134085
0.000122936
-0.0297927
0.00317913
0.0303276
-0.0294544
0.00262258
-0.0291097
0.00269028
-0.0289453
0.00210082
-0.0287542
0.00211018
-0.0287001
0.00158188
-0.0286036
0.00157288
-0.0286046
0.00112949
-0.0285611
0.00111713
-0.028583
0.000752501
-0.0285627
0.000733854
-0.0285874
0.000433367
-0.0285759
0.000406621
-0.0285962
0.000154476
0.000112475
-0.0298822
0.0027336
0.0303277
-0.029575
0.00231543
-0.029265
0.00238022
-0.0290865
0.00192233
-0.0288971
0.0019208
-0.0288122
0.00149702
-0.028706
0.00146671
-0.0286762
0.00109964
-0.0286203
0.00106124
-0.0286185
0.000750738
-0.0285898
0.000705094
-0.0285993
0.00044287
-0.0285839
0.000391192
-0.0285957
0.000166315
0.000102563
-0.029903
0.00235953
0.0302771
-0.0296289
0.0020413
-0.0293519
0.00210323
-0.0291734
0.00174381
-0.0289912
0.00173858
-0.0288898
0.00139564
-0.0287792
0.00135609
-0.0287295
0.00105003
-0.0286655
0.000997167
-0.0286462
0.000731415
-0.0286113
0.000670208
-0.0286085
0.000440056
-0.0285901
0.000372801
-0.0285948
0.000171036
9.35669e-05
-0.0298793
0.00204331
0.0301956
-0.0296367
0.00179865
-0.0293906
0.00185714
-0.0292194
0.00157259
-0.0290476
0.00156681
-0.0289393
0.00128729
-0.0288281
0.00124488
-0.0287664
0.000988337
-0.0286981
0.000928896
-0.0286666
0.000699911
-0.0286273
0.000630943
-0.0286153
0.000428026
-0.0285946
0.000352119
-0.028594
0.000170383
8.54013e-05
-0.0298274
0.00177434
0.0300964
-0.0296135
0.00158473
-0.0293957
0.00163929
-0.0292354
0.00141234
-0.0290759
0.00140725
-0.0289666
0.00117804
-0.0288578
0.0011361
-0.0287896
0.000920099
-0.0287197
0.000858995
-0.0286807
0.000660891
-0.0286386
0.000588872
-0.0286201
0.000409495
-0.0285978
0.000329839
-0.0285933
0.000165885
7.79051e-05
-0.0297585
0.00154435
0.0299885
-0.0295703
0.00139648
-0.0293778
0.00144682
-0.0292301
0.00126464
-0.0290835
0.00126062
-0.0289771
0.00107166
-0.0288728
0.00103186
-0.028802
0.000849286
-0.0287324
0.000789377
-0.0286891
0.000617573
-0.0286459
0.000545656
-0.028623
0.00038666
-0.0285999
0.000306656
-0.0285927
0.00015875
7.09598e-05
-0.0296803
0.00134682
0.0298778
-0.0295148
0.00123094
-0.0293449
0.00127695
-0.0292101
0.00112986
-0.0290764
0.00112692
-0.0289751
0.000970397
-0.0288768
0.000933513
-0.0288062
0.000778645
-0.0287383
0.000721535
-0.028693
0.000572238
-0.0286498
0.000502516
-0.0286246
0.000361383
-0.0286011
0.000283192
-0.0285922
0.000149896
6.44999e-05
-0.0295981
0.0011765
0.0297684
-0.0294525
0.00108536
-0.0293026
0.00112709
-0.0291805
0.00100773
-0.0290593
0.00100571
-0.0289644
0.000875499
-0.0288727
0.000841798
-0.028804
0.000710014
-0.028739
0.000656548
-0.0286934
0.000526579
-0.0286512
0.000460307
-0.0286248
0.000335014
-0.0286017
0.000260057
-0.0285918
0.000140015
5.84919e-05
-0.0295154
0.00102917
0.0296627
-0.0293873
0.000957299
-0.0292551
0.000994895
-0.029145
0.000897598
-0.0290356
0.000896311
-0.0289476
0.000787559
-0.0288629
0.000757034
-0.0287974
0.000644567
-0.028736
0.000595125
-0.0286912
0.000481808
-0.0286506
0.000419689
-0.0286241
0.000308471
-0.0286017
0.00023767
-0.0285914
0.000129709
5.29046e-05
-0.0294346
0.000901344
0.0295624
-0.0293219
0.000844597
-0.0292053
0.00087826
-0.0291063