/*--------------------------------*- C++ -*----------------------------------*\
  =========                 |
  \\      /  F ield         | OpenFOAM: The Open Source CFD Toolbox
   \\    /   O peration     | Website:  https://openfoam.org
    \\  /    A nd           | Version:  7
     \\/     M anipulation  |
\*---------------------------------------------------------------------------*/
FoamFile
{
    version     2.0;
    format      ascii;
    class       volVectorField;
    location    "25";
    object      U;
}
// * * * * * * * * * * * * * * * * * * * * * * * * * * * * * * * * * * * * * //

dimensions      [0 1 -1 0 0 0 0];

internalField   nonuniform List<vector> 
3312
(
(0.00820045 -0.0116389 3.73815e-21)
(0.0385212 -0.0256147 -3.98881e-20)
(0.0912577 -0.032444 7.91909e-20)
(0.151895 -0.0345258 5.06129e-20)
(0.212651 -0.0339089 -3.20297e-21)
(0.270732 -0.0320367 -2.92471e-20)
(0.325084 -0.0297637 4.54097e-21)
(0.375497 -0.027494 7.14354e-21)
(0.422157 -0.0253697 8.52824e-21)
(0.465347 -0.0234198 1.19811e-20)
(0.505352 -0.0216384 6.47104e-20)
(0.542442 -0.0200122 -3.39586e-20)
(0.576879 -0.0185242 1.59729e-21)
(0.608875 -0.0171604 3.71167e-20)
(0.638498 -0.015937 -3.7542e-20)
(0.0105865 -0.0347218 1.18096e-19)
(0.0436494 -0.0764678 1.42406e-19)
(0.0976148 -0.0969072 -2.63603e-20)
(0.158558 -0.103168 -7.66682e-21)
(0.219119 -0.101356 -2.10621e-19)
(0.276781 -0.0957799 2.71046e-20)
(0.330649 -0.0889961 -1.36389e-20)
(0.380588 -0.0822166 -4.10642e-20)
(0.426809 -0.0758691 4.56922e-20)
(0.4696 -0.0700418 3.24858e-21)
(0.509241 -0.0647176 -1.40409e-19)
(0.546007 -0.0598562 7.61994e-20)
(0.580158 -0.0554069 2.96916e-20)
(0.611872 -0.05133 -2.94896e-20)
(0.641153 -0.0476776 -2.34049e-20)
(0.0153032 -0.0572239 -3.12507e-19)
(0.0538047 -0.126198 2.01887e-19)
(0.11022 -0.160102 9.58114e-20)
(0.171782 -0.17059 8.00248e-20)
(0.231967 -0.167697 -1.81014e-20)
(0.288801 -0.158537 -1.83191e-20)
(0.34171 -0.147347 6.93077e-20)
(0.390709 -0.136146 2.39646e-20)
(0.436058 -0.125652 1.63202e-19)
(0.478055 -0.116014 1.25973e-19)
(0.516976 -0.107207 -2.94476e-20)
(0.553097 -0.0991617 1.99967e-19)
(0.586678 -0.0917952 -3.55749e-19)
(0.617835 -0.0850479 5.18899e-20)
(0.646438 -0.0790184 -6.63867e-21)
(0.0222409 -0.0787703 -5.2721e-20)
(0.0687867 -0.174075 -1.51988e-19)
(0.128856 -0.221201 -3.44656e-19)
(0.191367 -0.235993 4.33296e-19)
(0.251016 -0.232208 2.23431e-19)
(0.306637 -0.219663 -4.11195e-19)
(0.358132 -0.204242 1.9165e-19)
(0.405738 -0.188767 1.62254e-19)
(0.449797 -0.174251 -2.4805e-19)
(0.490617 -0.160914 -2.85893e-20)
(0.528469 -0.148721 -9.07049e-20)
(0.563631 -0.137578 1.25734e-19)
(0.596366 -0.127367 -1.73522e-19)
(0.6267 -0.118018 3.8992e-20)
(0.654307 -0.109695 -1.34708e-19)
(0.0312375 -0.0990041 -1.68942e-19)
(0.0882976 -0.219401 7.37413e-20)
(0.153199 -0.279407 1.15589e-20)
(0.217011 -0.298606 -1.06328e-19)
(0.276004 -0.29419 6.88156e-19)
(0.330061 -0.278537 -4.67176e-19)
(0.379712 -0.259125 -1.48335e-19)
(0.425497 -0.239579 8.11656e-20)
(0.467864 -0.221218 -9.87904e-20)
(0.50714 -0.204335 -1.88261e-19)
(0.543589 -0.188892 -8.91788e-20)
(0.577493 -0.174767 9.98899e-20)
(0.609114 -0.161811 3.87124e-19)
(0.638374 -0.149953 -1.77106e-21)
(0.664691 -0.139447 -2.59054e-19)
(0.0420808 -0.117594 2.3983e-19)
(0.111946 -0.261515 -2.2791e-19)
(0.182825 -0.333964 2.69859e-20)
(0.248319 -0.357694 -1.76842e-19)
(0.306581 -0.352976 1.72835e-20)
(0.35877 -0.334564 -1.3131e-19)
(0.406185 -0.311469 1.06201e-19)
(0.449749 -0.28811 3.83581e-20)
(0.490049 -0.266124 -3.64678e-20)
(0.527437 -0.245888 -3.95085e-19)
(0.56217 -0.227366 4.29787e-19)
(0.594529 -0.210409 -3.59648e-19)
(0.624783 -0.194832 3.15368e-19)
(0.652738 -0.180577 -4.02641e-19)
(0.677499 -0.168018 2.24311e-19)
(0.054513 -0.134239 -2.45452e-19)
(0.139252 -0.299809 5.47388e-19)
(0.217207 -0.384165 -3.69795e-19)
(0.2848 -0.412568 -7.10884e-20)
(0.342319 -0.407938 4.13574e-19)
(0.39239 -0.387187 1.20178e-19)
(0.437224 -0.360779 -4.68222e-19)
(0.478205 -0.333919 3.35104e-19)
(0.516092 -0.308573 3.2129e-21)
(0.551277 -0.285217 -3.82529e-19)
(0.584005 -0.263819 2.74035e-19)
(0.614555 -0.244205 3.32029e-19)
(0.643205 -0.226155 -6.887e-19)
(0.669648 -0.20963 7.47431e-19)
(0.692625 -0.19516 2.14448e-19)
(0.0682344 -0.148677 4.04991e-19)
(0.169654 -0.333737 7.27979e-22)
(0.255729 -0.429366 -3.97566e-19)
(0.325879 -0.462593 2.63652e-19)
(0.382709 -0.458498 -7.1639e-19)
(0.430481 -0.435894 -2.61851e-19)
(0.472445 -0.406603 -4.20201e-20)
(0.510523 -0.376602 -1.55416e-19)
(0.54569 -0.348205 8.76748e-19)
(0.578389 -0.321995 -6.88599e-19)
(0.608854 -0.297957 2.95323e-19)
(0.63736 -0.275891 -8.15895e-19)
(0.664193 -0.255535 5.72838e-19)
(0.688944 -0.236873 -5.16462e-19)
(0.709948 -0.220637 5.4887e-19)
(0.0829091 -0.160688 1.22054e-19)
(0.202513 -0.362824 -8.3838e-19)
(0.297685 -0.468994 -1.16365e-19)
(0.370892 -0.507199 1.59791e-19)
(0.42717 -0.504132 8.72578e-19)
(0.47254 -0.480224 -1.28424e-19)
(0.511407 -0.448533 -6.98413e-19)
(0.546315 -0.415801 4.40448e-19)
(0.578499 -0.384697 -7.35438e-20)
(0.608467 -0.355934 7.51099e-19)
(0.636447 -0.329518 -6.0948e-19)
(0.662703 -0.305225 -3.15643e-19)
(0.687539 -0.282747 1.20224e-19)
(0.710455 -0.262084 1.60648e-19)
(0.729343 -0.244218 5.06241e-21)
(0.0981715 -0.170103 6.42215e-19)
(0.237127 -0.386677 9.98349e-20)
(0.342289 -0.502557 1.05914e-18)
(0.419099 -0.545885 -7.53537e-19)
(0.47505 -0.544382 -2.44113e-20)
(0.518004 -0.519769 1.20517e-19)
(0.553622 -0.486219 8.65663e-19)
(0.585152 -0.451207 -5.03672e-19)
(0.614135 -0.417783 1.27755e-19)
(0.641172 -0.386802 2.79095e-19)
(0.666488 -0.358305 -1.00388e-20)
(0.690332 -0.332047 6.28807e-19)
(0.713027 -0.307656 -2.38719e-19)
(0.734007 -0.285124 2.47593e-20)
(0.750685 -0.265726 2.32428e-19)
(0.113633 -0.176801 3.37624e-19)
(0.272735 -0.40499 -4.25511e-19)
(0.388686 -0.529655 -1.12203e-20)
(0.469691 -0.578232 1.77552e-21)
(0.525635 -0.578856 -9.94836e-20)
(0.566258 -0.554188 1.73669e-19)
(0.598558 -0.519363 -1.17473e-19)
(0.626565 -0.482563 -4.07033e-19)
(0.652186 -0.447231 7.27437e-19)
(0.676138 -0.414385 -1.16403e-18)
(0.69865 -0.384109 3.93525e-20)
(0.719961 -0.356138 2.99161e-19)
(0.740429 -0.330024 -2.83889e-19)
(0.759445 -0.305729 -8.16147e-20)
(0.773886 -0.284877 4.64382e-19)
(0.12889 -0.180722 2.48112e-20)
(0.308533 -0.417556 -5.49435e-19)
(0.435959 -0.549982 1.80729e-21)
(0.52179 -0.603906 -1.53124e-19)
(0.57815 -0.607239 -3.61313e-20)
(0.616634 -0.583204 -6.2337e-20)
(0.645632 -0.547733 -4.5538e-20)
(0.670038 -0.509678 3.01772e-19)
(0.692183 -0.472895 -9.6548e-20)
(0.712937 -0.438592 7.6346e-19)
(0.732547 -0.406919 1.22206e-19)
(0.751253 -0.377616 -2.61271e-19)
(0.769477 -0.350131 -1.24395e-20)
(0.786605 -0.324272 -2.94186e-19)
(0.79887 -0.301925 -2.6407e-19)
(0.143531 -0.181862 -1.57637e-19)
(0.343684 -0.42427 1.60982e-19)
(0.483139 -0.563339 1.72671e-19)
(0.574466 -0.622664 3.84868e-20)
(0.631773 -0.629289 4.31387e-20)
(0.668428 -0.606604 -1.42167e-19)
(0.694245 -0.571147 2.35368e-19)
(0.715056 -0.532394 -2.84668e-19)
(0.733691 -0.494622 -9.46433e-20)
(0.751216 -0.459244 -1.9404e-19)
(0.767908 -0.426478 -5.74764e-19)
(0.783989 -0.396041 6.95912e-19)
(0.800022 -0.36723 -2.14983e-19)
(0.81554 -0.339651 3.96611e-19)
(0.825918 -0.315675 -6.81716e-19)
(0.15715 -0.180279 -1.25164e-20)
(0.377338 -0.42514 -3.40883e-20)
(0.529225 -0.569637 -8.05206e-20)
(0.626744 -0.634359 1.78001e-21)
(0.685635 -0.644851 8.8579e-20)
(0.720891 -0.624251 -1.14425e-19)
(0.743745 -0.589505 -1.89457e-19)
(0.76103 -0.550655 2.12875e-19)
(0.776139 -0.51242 -4.02567e-20)
(0.790382 -0.476464 2.2351e-19)
(0.804073 -0.443136 8.19562e-21)
(0.817395 -0.412251 -1.69667e-19)
(0.831113 -0.38311 3.74304e-19)
(0.845351 -0.355034 -3.01904e-19)
(0.8547 -0.330048 2.01559e-19)
(0.169353 -0.176097 3.22717e-20)
(0.408641 -0.420285 3.00311e-20)
(0.573194 -0.568903 1.81264e-20)
(0.677613 -0.638945 4.55115e-20)
(0.73883 -0.653846 -4.88595e-20)
(0.773249 -0.636069 -6.79633e-20)
(0.793476 -0.602739 -2.33718e-20)
(0.807397 -0.56439 1.15481e-19)
(0.819052 -0.526183 2.37948e-19)
(0.830083 -0.490036 -2.02592e-20)
(0.84093 -0.456394 -1.19302e-19)
(0.851728 -0.425065 -2.44057e-19)
(0.863324 -0.395024 4.94766e-19)
(0.877026 -0.364514 -3.5281e-19)
(0.888304 -0.335594 8.06598e-19)
(0.179804 -0.169517 -1.57039e-19)
(0.436757 -0.409935 5.32562e-20)
(0.614018 -0.561281 -7.13724e-20)
(0.726042 -0.636479 -1.4848e-20)
(0.790432 -0.656282 3.80741e-20)
(0.82471 -0.642053 3.00018e-20)
(0.842767 -0.610855 1.67046e-20)
(0.853577 -0.573629 -3.14256e-20)
(0.861892 -0.535995 -1.84572e-20)
(0.869748 -0.500192 -1.82315e-19)
(0.877759 -0.466857 2.41735e-19)
(0.886006 -0.435998 -4.21638e-19)
(0.894926 -0.407128 2.73493e-19)
(0.90558 -0.380069 -2.19057e-19)
(0.917425 -0.357749 -2.05139e-20)
(0.188221 -0.160719 3.43502e-20)
(0.460907 -0.394373 -4.57717e-20)
(0.650687 -0.547062 -1.12702e-19)
(0.770994 -0.627132 1.37751e-19)
(0.839494 -0.65225 -1.98576e-20)
(0.874464 -0.642264 3.7069e-20)
(0.890935 -0.613909 4.85479e-21)
(0.898972 -0.578426 -2.81989e-20)
(0.904101 -0.54189 -6.50809e-21)
(0.908781 -0.506901 1.51911e-20)
(0.913813 -0.474302 -7.70762e-20)
(0.919247 -0.444258 1.4254e-19)
(0.925129 -0.41662 -1.5344e-19)
(0.932211 -0.391325 9.40448e-20)
(0.94163 -0.368628 -8.81858e-21)
(0.194274 -0.149903 3.22103e-19)
(0.480389 -0.374066 3.39114e-19)
(0.682184 -0.526642 -7.10654e-21)
(0.811505 -0.611189 -1.59963e-19)
(0.885071 -0.641928 9.84871e-20)
(0.921701 -0.636825 -1.58221e-19)
(0.937314 -0.611991 -5.25161e-20)
(0.943032 -0.578831 4.06566e-20)
(0.945212 -0.543845 -1.3651e-20)
(0.946796 -0.50999 2.77463e-20)
(0.948812 -0.478294 5.85438e-20)
(0.951367 -0.448996 8.56927e-20)
(0.954293 -0.422111 -1.34018e-19)
(0.957965 -0.397689 7.5224e-20)
(0.964325 -0.374836 -2.04931e-19)
(0.197698 -0.137538 -1.22728e-19)
(0.494586 -0.349697 1.63876e-19)
(0.707561 -0.500585 -3.08898e-19)
(0.846457 -0.589002 1.1117e-20)
(0.926321 -0.625541 -4.30314e-20)
(0.965633 -0.625937 -1.07719e-19)
(0.98126 -0.605254 -1.03463e-19)
(0.985257 -0.574963 -5.98797e-20)
(0.984854 -0.541941 -3.52848e-21)
(0.983563 -0.509504 3.93543e-20)
(0.982707 -0.478891 1.41717e-21)
(0.982537 -0.450418 -1.74184e-20)
(0.982856 -0.424258 7.21903e-20)
(0.983741 -0.400687 -1.89731e-20)
(0.987205 -0.378241 -9.29342e-20)
(0.198419 -0.124047 4.92776e-20)
(0.502982 -0.321917 -3.02472e-19)
(0.72613 -0.469479 4.8785e-20)
(0.874813 -0.561149 -1.53374e-19)
(0.962154 -0.603528 -1.17917e-19)
(1.00552 -0.609789 4.72491e-20)
(1.02216 -0.593902 1.0235e-20)
(1.02518 -0.567033 1.87596e-19)
(1.02268 -0.536394 -1.21801e-19)
(1.01886 -0.505686 -8.95634e-21)
(1.01539 -0.476395 -3.10328e-21)
(1.01274 -0.448959 -2.772e-20)
(1.01079 -0.423671 1.01732e-20)
(1.00944 -0.400979 -8.39586e-21)
(1.01046 -0.379098 4.66356e-20)
(0.196398 -0.109808 4.09675e-19)
(0.505196 -0.291491 -3.87011e-19)
(0.737202 -0.434122 1.05797e-19)
(0.895862 -0.528193 7.33391e-19)
(0.991602 -0.576288 -2.9079e-20)
(1.04043 -0.588794 -9.14089e-20)
(1.05936 -0.5782 -2.44754e-19)
(1.0623 -0.555297 1.6498e-19)
(1.05835 -0.527479 -8.22804e-20)
(1.05242 -0.498819 5.88471e-20)
(1.04667 -0.471101 -9.24296e-20)
(1.04181 -0.444914 1.23744e-20)
(1.03785 -0.420641 3.92941e-20)
(1.03462 -0.398865 3.00176e-20)
(1.03361 -0.37772 -7.56759e-21)
(0.191661 -0.0952055 -2.7873e-20)
(0.501016 -0.259235 4.25205e-19)
(0.740183 -0.395387 -1.8226e-19)
(0.908787 -0.490842 -1.69784e-19)
(1.01391 -0.544354 1.09165e-19)
(1.06955 -0.563323 8.51021e-20)
(1.09217 -0.558503 -1.60713e-19)
(1.09614 -0.54007 2.02009e-19)
(1.09148 -0.515495 -6.14803e-20)
(1.08397 -0.489198 -2.84236e-20)
(1.07632 -0.463287 8.43562e-20)
(1.06954 -0.438536 3.75676e-20)
(1.06381 -0.415409 -9.08467e-20)
(1.05894 -0.394624 3.17083e-20)
(1.05615 -0.374456 -1.94137e-20)
(0.184323 -0.0806416 -1.52383e-20)
(0.490416 -0.226009 8.24979e-20)
(0.734678 -0.354222 -8.00843e-20)
(0.91286 -0.449906 3.27499e-19)
(1.02823 -0.508328 4.99971e-20)
(1.09212 -0.533827 -6.28174e-20)
(1.11991 -0.535173 1.26297e-19)
(1.12616 -0.521679 -4.16156e-19)
(1.12172 -0.500754 3.88534e-20)
(1.11324 -0.477129 1.4864e-19)
(1.10411 -0.45325 1.58053e-19)
(1.09573 -0.430104 -1.24545e-19)
(1.08852 -0.408241 4.08473e-21)
(1.08225 -0.388522 -3.53824e-20)
(1.07783 -0.369555 -7.373e-20)
(0.174592 -0.0665068 -1.61036e-19)
(0.473563 -0.192691 -5.80327e-19)
(0.720515 -0.311639 4.64105e-19)
(0.907522 -0.40628 1.2195e-19)
(1.03376 -0.468889 -4.45284e-19)
(1.10731 -0.500797 -4.15473e-19)
(1.14189 -0.508582 3.06173e-19)
(1.15183 -0.500451 -1.17039e-19)
(1.14867 -0.483579 1.89758e-19)
(1.13997 -0.46293 -2.43813e-19)
(1.12986 -0.441298 -2.89335e-19)
(1.12023 -0.419934 2.04758e-19)
(1.1118 -0.399456 -4.55025e-20)
(1.10445 -0.380798 -4.23979e-20)
(1.09866 -0.363199 -5.61923e-20)
(0.162759 -0.0531605 7.4081e-20)
(0.45083 -0.160148 2.25767e-20)
(0.697761 -0.268691 -4.1004e-20)
(0.892402 -0.360927 -2.73169e-19)
(1.02979 -0.426785 4.24353e-19)
(1.1143 -0.464763 2.11954e-19)
(1.15735 -0.479118 2.09003e-19)
(1.17258 -0.476707 1.85493e-19)
(1.17194 -0.464272 -3.67014e-20)
(1.16389 -0.446906 9.03988e-20)
(1.15337 -0.427735 2.57625e-20)
(1.1429 -0.408304 -1.16279e-20)
(1.13353 -0.389338 -9.28946e-21)
(1.12541 -0.371826 1.16581e-19)
(1.11882 -0.355681 9.55998e-20)
(0.149187 -0.0409139 1.76709e-19)
(0.422792 -0.129196 -1.94326e-19)
(0.666745 -0.226431 -1.70322e-19)
(0.867351 -0.31486 -1.72181e-20)
(1.01575 -0.382815 -4.23324e-19)
(1.11228 -0.42629 2.39975e-19)
(1.16548 -0.447171 -9.69435e-20)
(1.18773 -0.450752 8.67984e-20)
(1.19106 -0.443116 7.73232e-20)
(1.18468 -0.429347 -3.07841e-19)
(1.17447 -0.412861 1.57876e-19)
(1.16359 -0.395526 -1.09885e-19)
(1.15357 -0.378267 -2.57432e-20)
(1.14487 -0.36216 -1.23523e-20)
(1.13779 -0.347354 8.26553e-20)
(0.134297 -0.0300174 1.08684e-19)
(0.390219 -0.100566 -2.77976e-19)
(0.628077 -0.185881 -6.53241e-20)
(0.832489 -0.269119 2.66092e-19)
(0.991213 -0.337834 -1.47191e-19)
(1.10049 -0.385978 -1.05941e-20)
(1.16543 -0.413139 5.39196e-20)
(1.19654 -0.422867 -3.77074e-20)
(1.20547 -0.420353 3.64359e-20)
(1.20201 -0.410495 3.90531e-19)
(1.19291 -0.396925 -2.88212e-19)
(1.18215 -0.381835 9.37244e-20)
(1.17177 -0.366387 7.82786e-20)
(1.16257 -0.351743 -3.96784e-21)
(1.15495 -0.33823 -1.08607e-19)
(0.118551 -0.0206503 1.36334e-19)
(0.354053 -0.0748692 -4.87938e-20)
(0.58266 -0.147988 1.10744e-19)
(0.788249 -0.224745 -1.86945e-20)
(0.955997 -0.292737 6.38244e-20)
(1.07824 -0.344467 -5.97948e-20)
(1.15629 -0.377422 -6.22134e-20)
(1.19815 -0.393302 -1.00028e-19)
(1.21451 -0.39617 1.33288e-19)
(1.21541 -0.390535 -1.0504e-19)
(1.20845 -0.380118 -1.51402e-20)
(1.19843 -0.367407 -2.41845e-20)
(1.18805 -0.353819 7.08585e-20)
(1.17854 -0.340627 6.54317e-20)
(1.17043 -0.328475 -8.1516e-20)
(0.102428 -0.0129149 1.07739e-19)
(0.315371 -0.0525711 -1.7883e-19)
(0.531674 -0.113582 2.10941e-19)
(0.735418 -0.182744 -2.16227e-20)
(0.910207 -0.248452 -5.62005e-20)
(1.04499 -0.302442 -5.44426e-21)
(1.13715 -0.340438 -2.42069e-21)
(1.19156 -0.362281 1.23234e-21)
(1.21733 -0.370702 1.25633e-20)
(1.22432 -0.369584 -2.05399e-20)
(1.22073 -0.36258 1.08386e-19)
(1.21228 -0.352405 -5.79801e-20)
(1.20239 -0.340738 -9.27893e-20)
(1.19285 -0.328987 -4.0442e-21)
(1.18442 -0.318227 4.68909e-20)
(0.0863984 -0.00683509 1.44218e-20)
(0.27533 -0.0339671 5.1535e-20)
(0.476547 -0.083332 -2.60154e-20)
(0.67516 -0.144048 2.15209e-20)
(0.854326 -0.205926 2.95699e-20)
(1.00046 -0.260641 -1.90683e-20)
(1.10712 -0.30264 -3.27724e-20)
(1.17566 -0.33002 4.75319e-21)
(1.21293 -0.344035 -3.78417e-20)
(1.22796 -0.347697 3.5251e-20)
(1.2293 -0.344391 -2.06252e-20)
(1.22345 -0.336956 3.86464e-20)
(1.21472 -0.327312 1.49771e-20)
(1.20553 -0.317007 -1.70636e-20)
(1.19704 -0.307609 -1.16354e-21)
(0.0709034 -0.00235945 -6.19396e-20)
(0.235111 -0.0191715 3.80259e-20)
(0.418887 -0.0577092 5.24043e-20)
(0.609008 -0.109469 -2.10795e-20)
(0.789283 -0.166092 -1.8777e-21)
(0.944672 -0.219865 -6.02768e-20)
(1.06548 -0.264543 4.35018e-21)
(1.14928 -0.296753 4.8005e-21)
(1.20003 -0.316216 4.81332e-21)
(1.2253 -0.324856 6.81081e-21)
(1.23343 -0.325554 3.34783e-20)
(1.23156 -0.321114 -1.68372e-20)
(1.22486 -0.313655 3.16193e-20)
(1.21654 -0.304841 -8.7014e-21)
(1.20831 -0.296754 -3.76317e-20)
(0.0563278 0.000630085 -1.5109e-20)
(0.195845 -0.00811897 9.32359e-20)
(0.360403 -0.0369609 -1.33045e-19)
(0.538824 -0.0796473 5.05431e-20)
(0.716506 -0.129836 -3.67442e-20)
(0.878177 -0.180968 1.69037e-20)
(1.01175 -0.226754 2.93911e-20)
(1.11124 -0.262769 4.03111e-20)
(1.17719 -0.287286 -9.09855e-20)
(1.21497 -0.30098 9.87527e-20)
(1.23209 -0.305977 -7.71602e-20)
(1.23595 -0.304846 -3.13765e-20)
(1.23248 -0.299805 4.79306e-20)
(1.22576 -0.292598 -4.31622e-20)
(1.21821 -0.285789 5.77397e-20)
(0.0429835 0.00230521 -8.59549e-20)
(0.158555 -0.000578828 1.18586e-20)
(0.302793 -0.0210976 -4.90664e-20)
(0.466704 -0.0550043 -4.78596e-20)
(0.637921 -0.0979394 8.5384e-20)
(0.802107 -0.144844 1.5878e-19)
(0.945978 -0.189995 -1.0556e-19)
(1.06055 -0.228463 -1.16455e-19)
(1.14283 -0.257324 1.53382e-19)
(1.19528 -0.275945 -2.87744e-20)
(1.22385 -0.285478 -1.03377e-19)
(1.2356 -0.288008 1.06629e-19)
(1.23697 -0.285702 6.7905e-20)
(1.2329 -0.280314 -1.43025e-19)
(1.22667 -0.274816 4.84993e-20)
(0.0310959 0.00287506 -1.51139e-19)
(0.124089 0.00381744 2.6328e-20)
(0.24764 -0.00990057 2.11379e-19)
(0.394842 -0.035707 7.86783e-20)
(0.55588 -0.0710111 4.94244e-20)
(0.718286 -0.112373 -9.72417e-20)
(0.868866 -0.155112 1.18815e-19)
(0.996668 -0.194394 2.24496e-19)
(1.09542 -0.226517 7.64143e-20)
(1.16428 -0.249644 -1.1854e-19)
(1.2068 -0.263804 1.25603e-19)
(1.229 -0.270344 7.07436e-20)
(1.23733 -0.271165 -9.65805e-20)
(1.2374 -0.267923 1.30908e-19)
(1.23341 -0.263878 2.20306e-20)
(0.0208001 0.0025684 -1.12328e-19)
(0.0930894 0.00553877 4.81811e-20)
(0.196299 -0.00294974 1.25445e-20)
(0.325368 -0.0216524 -2.6162e-19)
(0.473011 -0.0494234 2.70943e-19)
(0.629202 -0.0843414 -4.56218e-19)
(0.782004 -0.12304 5.25413e-20)
(0.919789 -0.161323 1.72264e-19)
(1.03381 -0.19525 -2.84927e-19)
(1.11989 -0.222074 8.74851e-20)
(1.17861 -0.24069 -2.40869e-19)
(1.21404 -0.251496 2.18147e-19)
(1.23196 -0.255877 -1.8379e-19)
(1.23824 -0.255221 -2.43706e-21)
(1.23793 -0.252921 -1.39053e-19)
(0.0121425 0.00161623 -4.96309e-20)
(0.0659634 0.00511159 5.97709e-20)
(0.149823 0.000330171 2.26728e-20)
(0.260174 -0.0124817 2.48328e-19)
(0.391995 -0.0332608 -1.5617e-19)
(0.537857 -0.0613495 6.80524e-19)
(0.687915 -0.0947259 -2.15823e-19)
(0.831176 -0.130213 -2.33009e-19)
(0.95763 -0.164184 4.28937e-19)
(1.06036 -0.193449 -5.09702e-20)
(1.13669 -0.215956 2.69038e-19)
(1.18801 -0.23106 -2.20458e-19)
(1.21856 -0.239388 3.39426e-19)
(1.23373 -0.241833 -6.96017e-21)
(1.23918 -0.241754 -8.1582e-20)
(0.00509117 0.000236445 -1.81833e-19)
(0.0428907 0.00307633 3.92833e-19)
(0.108912 0.000611661 -2.68302e-19)
(0.20078 -0.00762335 -4.91737e-20)
(0.315312 -0.0223052 -3.26185e-20)
(0.447491 -0.0437109 -2.26191e-19)
(0.589935 -0.0709974 -3.19351e-19)
(0.733331 -0.102146 -2.4857e-20)
(0.867783 -0.13429 -4.49885e-19)
(0.984727 -0.16433 -2.47082e-19)
(1.07863 -0.189663 7.11432e-19)
(1.14779 -0.208705 -7.27777e-19)
(1.194 -0.221174 1.17776e-19)
(1.22131 -0.227211 2.45115e-19)
(1.23548 -0.229999 1.25756e-19)
(-0.000449946 -0.00137817 1.12611e-19)
(0.0238421 -5.17577e-05 -2.92201e-21)
(0.0739101 -0.00139767 -3.02299e-19)
(0.148237 -0.0063588 1.88793e-19)
(0.245017 -0.0160645 4.23511e-19)
(0.361222 -0.0313985 -1.9894e-19)
(0.491876 -0.0524146 -2.80305e-20)
(0.629911 -0.078171 3.69221e-19)
(0.766734 -0.106778 1.63954e-19)
(0.893525 -0.135699 -2.92673e-19)
(1.0029 -0.162289 -3.17419e-19)
(1.09029 -0.184359 6.81784e-20)
(1.15455 -0.20077 -1.66362e-19)
(1.19741 -0.210702 -3.54879e-19)
(1.224 -0.217069 3.50573e-19)
(-0.00462482 -0.0030679 -2.84218e-19)
(0.00861449 -0.00381366 -1.44644e-19)
(0.0448296 -0.00501278 2.46019e-19)
(0.103107 -0.00790002 -5.45772e-19)
(0.182585 -0.0138394 8.06669e-20)
(0.281712 -0.024046 1.77528e-19)
(0.397545 -0.0391626 2.31761e-19)
(0.525334 -0.0590915 -1.40776e-19)
(0.658503 -0.0829047 -2.80231e-19)
(0.789249 -0.108894 9.50593e-19)
(0.909724 -0.134846 -1.08162e-19)
(1.01344 -0.158452 7.09629e-20)
(1.0965 -0.178022 -1.85786e-19)
(1.15759 -0.191706 -3.82328e-19)
(1.20081 -0.202203 2.31521e-19)
(-0.00760786 -0.00471048 8.41758e-20)
(-0.00312492 -0.00782793 3.03979e-19)
(0.0214081 -0.00961749 3.19698e-19)
(0.065489 -0.0114637 -3.77398e-19)
(0.128846 -0.014813 -1.6426e-20)
(0.210912 -0.0210091 3.9014e-19)
(0.310261 -0.0310165 2.28761e-19)
(0.424145 -0.0452993 -4.2378e-19)
(0.548175 -0.0637032 9.60239e-20)
(0.676375 -0.0853754 -1.47014e-19)
(0.801743 -0.108821 -3.71483e-19)
(0.917266 -0.132072 5.18719e-19)
(1.01724 -0.153378 9.0277e-20)
(1.09742 -0.170064 -2.34575e-19)
(1.16043 -0.184664 -4.67346e-20)
(-0.00958786 -0.00622126 4.20791e-19)
(-0.0117938 -0.0118 -4.54558e-19)
(0.00317564 -0.0146932 -3.09313e-19)
(0.0350939 -0.0163295 3.20487e-19)
(0.0840196 -0.0181387 1.68331e-19)
(0.14996 -0.0214627 -8.00406e-20)
(0.232487 -0.0273906 1.56398e-19)
(0.330347 -0.0366948 -3.78353e-19)
(0.441075 -0.0497396 1.06938e-18)
(0.560744 -0.0663732 -1.06012e-18)
(0.684046 -0.0858671 2.28884e-20)
(0.80475 -0.106885 -2.16607e-20)
(0.916802 -0.128074 9.02173e-19)
(1.01387 -0.146413 -3.36817e-19)
(1.09758 -0.1641 -7.49003e-20)
(-0.0107544 -0.00754973 -1.44224e-19)
(-0.0178515 -0.0155206 -5.24798e-19)
(-0.0104717 -0.0198307 4.45678e-20)
(0.0113413 -0.0218759 7.39223e-20)
(0.0478027 -0.0230112 -3.36992e-19)
(0.099199 -0.0245031 -5.05198e-20)
(0.165662 -0.0274423 -5.26218e-20)
(0.246905 -0.0327219 3.41257e-19)
(0.341888 -0.0409897 -1.15468e-19)
(0.448493 -0.0525659 4.18697e-19)
(0.563333 -0.0673563 -2.24678e-19)
(0.681788 -0.0847304 3.71305e-19)
(0.798714 -0.103932 -6.32944e-21)
(0.907559 -0.122553 -5.23128e-20)
(1.00705 -0.141096 -1.26036e-20)
(-0.0112856 -0.00867333 -3.79938e-19)
(-0.0217606 -0.018855 3.70996e-19)
(-0.0202037 -0.0247241 4.03681e-19)
(-0.00653759 -0.0275928 -3.07698e-19)
(0.0195049 -0.0287098 -5.19466e-19)
(0.0582986 -0.0292338 4.94786e-20)
(0.110222 -0.0301916 5.82743e-19)
(0.175507 -0.0324822 -8.30203e-19)
(0.25401 -0.036864 -1.04784e-19)
(0.34493 -0.0439143 -6.12012e-19)
(0.446545 -0.0539686 -1.59384e-21)
(0.556038 -0.0670098 1.80733e-19)
(0.669789 -0.0828198 -2.55255e-19)
(0.783048 -0.100787 1.87485e-19)
(0.88937 -0.117519 -2.65077e-19)
(-0.0113388 -0.0095892 3.3849e-20)
(-0.0239565 -0.021726 -8.05513e-19)
(-0.0266969 -0.0291558 6.22455e-19)
(-0.0194039 -0.0330771 -3.0493e-19)
(-0.00181292 -0.0346195 1.87863e-19)
(0.0264334 -0.0348251 3.18757e-19)
(0.0657626 -0.0346312 -5.23815e-19)
(0.116609 -0.0348836 1.23138e-18)
(0.179281 -0.0363459 -4.84376e-19)
(0.253763 -0.0396949 2.92533e-19)
(0.339495 -0.0455023 -1.11488e-21)
(0.435148 -0.0541777 3.97414e-19)
(0.538536 -0.0659461 -6.263e-19)
(0.648671 -0.0833288 1.06309e-19)
(0.746373 -0.0959419 -2.78758e-19)
(-0.0110452 -0.0103054 -1.93673e-19)
(-0.0248255 -0.0240955 2.56136e-19)
(-0.0305884 -0.0329768 -4.70419e-19)
(-0.0281275 -0.038021 2.08567e-19)
(-0.0172039 -0.0402377 -4.30495e-19)
(0.00247639 -0.0405559 6.41625e-19)
(0.031288 -0.0398182 -1.23592e-20)
(0.0696755 -0.0387937 -7.96297e-20)
(0.118089 -0.0381941 5.21335e-20)
(0.176866 -0.038693 -4.38476e-19)
(0.246071 -0.0409413 1.00401e-19)
(0.32527 -0.0455475 -3.75527e-19)
(0.413331 -0.0531922 8.35759e-19)
(0.512337 -0.0694536 -6.0241e-19)
(0.585454 -0.0853087 2.6067e-19)
(-0.0105073 -0.0108335 5.85463e-19)
(-0.0246929 -0.0259496 3.7144e-19)
(-0.0324446 -0.0360898 -7.05131e-20)
(-0.0335246 -0.042201 3.33065e-19)
(-0.0277235 -0.0451779 -3.22608e-19)
(-0.0148192 -0.0458452 -5.76216e-20)
(0.00547354 -0.0449551 -7.62649e-21)
(0.0335194 -0.0431922 -3.66018e-19)
(0.069738 -0.0411864 2.51876e-19)
(0.114541 -0.039535 -1.44148e-19)
(0.168217 -0.0388249 2.16829e-19)
(0.230692 -0.0395878 -8.81553e-19)
(0.301117 -0.0422669 6.02816e-19)
(0.379778 -0.0505193 -4.79431e-19)
(0.456038 -0.0743244 9.48688e-21)
(-0.00980208 -0.0111837 -9.44226e-20)
(-0.023822 -0.0272869 1.20058e-19)
(-0.032747 -0.0384375 -1.28605e-19)
(-0.0363194 -0.0454684 -6.58695e-20)
(-0.0343521 -0.0491706 1.489e-19)
(-0.0266829 -0.0502757 -3.74922e-19)
(-0.0131113 -0.0494543 7.21213e-21)
(0.00662825 -0.0473116 -2.28535e-20)
(0.0328659 -0.0443915 2.32788e-19)
(0.0659702 -0.0411921 -4.21616e-20)
(0.106287 -0.0381863 -3.13367e-19)
(0.153962 -0.0357945 -1.5406e-19)
(0.208618 -0.0343508 6.84505e-19)
(0.270568 -0.0362373 -2.62662e-19)
(-0.00898557 -0.0113635 -4.31485e-19)
(-0.0224198 -0.0281125 -4.55702e-19)
(-0.0318928 -0.0399929 2.86619e-19)
(-0.0371303 -0.0477398 -3.00126e-19)
(-0.0379559 -0.052055 -2.63696e-19)
(-0.0342466 -0.0535909 2.57901e-19)
(-0.0258633 -0.0529498 -2.36801e-19)
(-0.0126211 -0.0506734 2.48385e-19)
(0.0057224 -0.04724 1.62622e-19)
(0.0294672 -0.043077 8.10532e-19)
(0.0589491 -0.0385878 -2.68047e-19)
(0.0944208 -0.0341703 5.13272e-19)
(0.135825 -0.0303197 -6.57677e-19)
(-0.00809852 -0.0113769 2.70974e-19)
(-0.020649 -0.0284337 1.76747e-19)
(-0.0302053 -0.0407504 3.20161e-19)
(-0.0364738 -0.0489824 2.46063e-19)
(-0.0392769 -0.0537578 -2.56243e-19)
(-0.038509 -0.0556651 1.53778e-19)
(-0.0340645 -0.0552546 2.72362e-19)
(-0.0258101 -0.0530246 2.22897e-19)
(-0.0135682 -0.0494179 -7.98432e-19)
(0.00289535 -0.0448372 -1.39644e-19)
(0.0238651 -0.0396842 -6.05703e-19)
(0.0495799 -0.0344223 5.8241e-19)
(0.080098 -0.029802 6.94154e-19)
(-0.00717229 -0.0112257 2.63225e-19)
(-0.0186391 -0.0282594 -6.62078e-20)
(-0.0279467 -0.0407182 2.06818e-19)
(-0.0347773 -0.0491966 -1.3355e-19)
(-0.0389397 -0.0542645 -1.42043e-19)
(-0.040327 -0.0564607 1.646e-19)
(-0.0388427 -0.0562982 2.19453e-19)
(-0.0343768 -0.0542507 -5.0492e-19)
(-0.0267906 -0.050751 7.90544e-19)
(-0.015901 -0.0462116 5.84107e-20)
(-0.00148559 -0.0410745 9.23483e-20)
(0.0166343 -0.0358963 3.53825e-19)
(-0.00623235 -0.0109092 1.62329e-19)
(-0.0164953 -0.0275972 -5.14836e-19)
(-0.0253323 -0.0399114 -8.65764e-20)
(-0.0323934 -0.0484021 -3.6764e-19)
(-0.0374637 -0.0535938 4.98064e-19)
(-0.0404213 -0.0559873 -1.60096e-19)
(-0.0411604 -0.0560691 -7.00048e-20)
(-0.0395734 -0.0542998 -2.7727e-19)
(-0.035539 -0.0511157 2.22393e-19)
(-0.0289097 -0.0469523 -6.48461e-19)
(-0.0195199 -0.042296 -3.62442e-20)
(-0.00530074 -0.0104254 3.27921e-19)
(-0.0143061 -0.0264527 -4.5974e-19)
(-0.0225399 -0.0383473 4.20784e-19)
(-0.029612 -0.0466263 -4.26021e-19)
(-0.0352759 -0.0517785 -1.36567e-19)
(-0.0393851 -0.0542735 -3.48935e-19)
(-0.0418136 -0.0545759 -5.22187e-20)
(-0.0424434 -0.0531361 1.10731e-19)
(-0.0411577 -0.0503934 -1.34614e-19)
(-0.0378333 -0.0467985 3.94455e-19)
(-0.032352 -0.0428589 7.11153e-20)
(-0.00439774 -0.00977102 1.2225e-20)
(-0.0121474 -0.0248309 -4.98309e-20)
(-0.0197177 -0.0360442 -2.40218e-19)
(-0.0266696 -0.0439009 5.85089e-19)
(-0.0327191 -0.0488583 2.17624e-19)
(-0.0376903 -0.0513563 6.96028e-20)
(-0.0414317 -0.0518361 -1.45984e-19)
(-0.0438085 -0.0507326 1.14618e-19)
(-0.0447015 -0.0484772 3.80517e-19)
(-0.0440041 -0.0455164 -8.68378e-21)
(-0.00354303 -0.00894371 9.54504e-20)
(-0.0100866 -0.0227387 3.55898e-19)
(-0.0169895 -0.0330248 -2.83806e-19)
(-0.0237563 -0.0402642 -8.30791e-20)
(-0.0300614 -0.0448814 8.25121e-20)
(-0.0356978 -0.0472837 1.19768e-19)
(-0.0404868 -0.0478822 -2.79004e-19)
(-0.044275 -0.0470859 -9.56402e-20)
(-0.0469373 -0.0453033 1.16659e-19)
(-0.0483774 -0.0429543 -4.06581e-19)
(-0.00275645 -0.00794371 1.06896e-19)
(-0.00818476 -0.0201898 -1.66921e-19)
(-0.014459 -0.0293217 3.17816e-19)
(-0.0210223 -0.035767 -8.95117e-20)
(-0.0275058 -0.0399115 9.78642e-20)
(-0.0336712 -0.0421229 -3.83896e-20)
(-0.0393136 -0.0427731 5.47482e-20)
(-0.0442611 -0.042233 3.79222e-21)
(-0.0483816 -0.0408722 2.12384e-19)
(-0.00205824 -0.00677652 -9.65713e-20)
(-0.0064978 -0.0172097 1.08977e-19)
(-0.0122136 -0.0249835 -1.8845e-19)
(-0.0185853 -0.0304791 1.47464e-19)
(-0.0252013 -0.0340343 1.6478e-19)
(-0.0317943 -0.0359683 -2.81663e-19)
(-0.0381348 -0.0366031 1.90627e-19)
(-0.0440344 -0.0362596 2.56275e-20)
(-0.0493533 -0.0352554 1.07392e-19)
(-0.00146856 -0.00545499 1.40027e-20)
(-0.00507683 -0.01384 7.54881e-20)
(-0.0103261 -0.0200799 -1.05577e-19)
(-0.0165357 -0.0244945 -2.5065e-20)
(-0.0232545 -0.0273624 3.35124e-20)
(-0.0301893 -0.0289449 -1.0737e-19)
(-0.0370897 -0.0295042 -3.71308e-20)
(-0.0437525 -0.0293004 3.55152e-19)
(-0.0500306 -0.0285893 -2.12177e-19)
(-0.00100642 -0.00400065 2.98988e-22)
(-0.00396686 -0.0101405 -5.04278e-20)
(-0.00885611 -0.0147038 7.10056e-21)
(-0.0149416 -0.017933 7.56128e-20)
(-0.0217392 -0.0200367 1.85925e-20)
(-0.0289342 -0.021209 -7.92068e-20)
(-0.0362597 -0.0216438 -6.23904e-20)
(-0.0435004 -0.0215325 -1.97141e-20)
(-0.0505028 -0.0210621 1.96316e-20)
(-0.000688172 -0.00244375 3.33794e-20)
(-0.00320474 -0.00618969 2.47638e-20)
(-0.00784968 -0.00897087 -4.88029e-20)
(-0.0138522 -0.0109389 4.60107e-20)
(-0.0207043 -0.0122232 -2.78806e-20)
(-0.0280761 -0.0129433 3.96754e-21)
(-0.0356889 -0.0132183 3.03535e-20)
(-0.0433191 -0.0131652 -5.06521e-20)
(-0.0508081 -0.0128978 -8.88901e-21)
(-0.000525851 -0.000821974 -2.6447e-20)
(-0.00281681 -0.00208114 8.74486e-21)
(-0.0073384 -0.00301548 1.5291e-20)
(-0.0132996 -0.00367662 -4.66521e-20)
(-0.0201797 -0.00410842 -1.91969e-20)
(-0.0276412 -0.00435126 4.12664e-20)
(-0.0353992 -0.00444528 -3.28143e-20)
(-0.0432256 -0.00442989 -4.77935e-21)
(0.729063 -0.0125192 8.57928e-21)
(0.80723 -0.00629126 1.6394e-21)
(0.864075 -0.00516021 -8.05746e-21)
(0.899433 -0.00268988 1.63126e-21)
(0.925774 -0.00262438 -2.33414e-21)
(0.945268 -0.00133203 -1.02309e-21)
(0.958776 -0.00149789 -8.12275e-22)
(0.971071 -0.000719605 -2.33075e-21)
(0.978138 -0.000892751 1.89541e-21)
(0.986392 -0.000414065 1.11008e-21)
(0.989742 -0.000526056 -7.94404e-22)
(0.995308 -0.000214078 -7.64711e-24)
(0.996269 -0.000275897 1.17618e-21)
(0.999667 -6.64262e-05 1.42596e-21)
(0.998947 -8.18807e-05 -5.01297e-22)
(0.730438 -0.0374915 -5.86683e-21)
(0.807939 -0.0188542 -1.69775e-20)
(0.864349 -0.0154646 9.59681e-21)
(0.899643 -0.00806861 2.22854e-21)
(0.925825 -0.0078672 -1.00291e-21)
(0.945348 -0.00399843 -7.99326e-21)
(0.958774 -0.00449022 1.04452e-20)
(0.971109 -0.00216279 -5.62431e-21)
(0.978122 -0.00267587 -1.02653e-21)
(0.986412 -0.0012437 -1.38659e-21)