/*--------------------------------*- C++ -*----------------------------------*\
  =========                 |
  \\      /  F ield         | OpenFOAM: The Open Source CFD Toolbox
   \\    /   O peration     | Website:  https://openfoam.org
    \\  /    A nd           | Version:  7
     \\/     M anipulation  |
\*---------------------------------------------------------------------------*/
FoamFile
{
    version     2.0;
    format      ascii;
    class       volScalarField;
    location    "50.001";
    object      p;
}
// * * * * * * * * * * * * * * * * * * * * * * * * * * * * * * * * * * * * * //

dimensions      [0 2 -2 0 0 0 0];

internalField   nonuniform List<scalar> 
11400
(
-0.234453
-0.23505
-0.235601
-0.236087
-0.236488
-0.236786
-0.236963
-0.237004
-0.236903
-0.236662
-0.236289
-0.235807
-0.23531
-0.227987
-0.23019
-0.231167
-0.231967
-0.232681
-0.233342
-0.233982
-0.234604
-0.235198
-0.235746
-0.236229
-0.236628
-0.236924
-0.237098
-0.237135
-0.237024
-0.236769
-0.236374
-0.235851
-0.23532
-0.228474
-0.230606
-0.231552
-0.232327
-0.23302
-0.233665
-0.234292
-0.234903
-0.235487
-0.236029
-0.236507
-0.236903
-0.237195
-0.237364
-0.237391
-0.237264
-0.236981
-0.236543
-0.235941
-0.235331
-0.22919
-0.231217
-0.232117
-0.232856
-0.233518
-0.234136
-0.234741
-0.235335
-0.235905
-0.236435
-0.236906
-0.237295
-0.237582
-0.237744
-0.237759
-0.237607
-0.237283
-0.236787
-0.236073
-0.235307
-0.230115
-0.232009
-0.232849
-0.233538
-0.234157
-0.234739
-0.235313
-0.235881
-0.23643
-0.236944
-0.237402
-0.237782
-0.23806
-0.238213
-0.238213
-0.238033
-0.237657
-0.237089
-0.236248
-0.235188
-0.231227
-0.232965
-0.233731
-0.234356
-0.234919
-0.235453
-0.235985
-0.236518
-0.237038
-0.237527
-0.237966
-0.238332
-0.238599
-0.238739
-0.238722
-0.238512
-0.238076
-0.237423
-0.236483
-0.234864
-0.232502
-0.234064
-0.234743
-0.235291
-0.235784
-0.236255
-0.236733
-0.237218
-0.237697
-0.238154
-0.238566
-0.23891
-0.239159
-0.239284
-0.239248
-0.239007
-0.238506
-0.237734
-0.23683
-0.234204
-0.233914
-0.235286
-0.235865
-0.236321
-0.236728
-0.237121
-0.237529
-0.237952
-0.238378
-0.238789
-0.239163
-0.239476
-0.2397
-0.239802
-0.239742
-0.239472
-0.238907
-0.237929
-0.237283
-0.233469
-0.235437
-0.236613
-0.237079
-0.237428
-0.23773
-0.238027
-0.238346
-0.238689
-0.239046
-0.239397
-0.23972
-0.23999
-0.240178
-0.240248
-0.240155
-0.239849
-0.239244
-0.238169
-0.237341
-0.232842
-0.237049
-0.238025
-0.238368
-0.238591
-0.23877
-0.238949
-0.239159
-0.239404
-0.239673
-0.239946
-0.240202
-0.240414
-0.240551
-0.240575
-0.240439
-0.24008
-0.239447
-0.238177
-0.237482
-0.23187
-0.238732
-0.239511
-0.239717
-0.239797
-0.23983
-0.239869
-0.239948
-0.240072
-0.240232
-0.240409
-0.240579
-0.240715
-0.240784
-0.240746
-0.24055
-0.240112
-0.239476
-0.237863
-0.237608
-0.230579
-0.240474
-0.241061
-0.241118
-0.241036
-0.2409
-0.240773
-0.240695
-0.240675
-0.240704
-0.240764
-0.240831
-0.240872
-0.240854
-0.240734
-0.24046
-0.239902
-0.2393
-0.237185
-0.237581
-0.229074
-0.242271
-0.242674
-0.242568
-0.242301
-0.241971
-0.241653
-0.241393
-0.241204
-0.241081
-0.241004
-0.240946
-0.240875
-0.240751
-0.240526
-0.240157
-0.239426
-0.238884
-0.236153
-0.237225
-0.227534
-0.244129
-0.244352
-0.244068
-0.243594
-0.243045
-0.242509
-0.242041
-0.24166
-0.241362
-0.241128
-0.240928
-0.240725
-0.240476
-0.240122
-0.239637
-0.238686
-0.238172
-0.234843
-0.236319
-0.226124
-0.246062
-0.246107
-0.245627
-0.244922
-0.244129
-0.24335
-0.242649
-0.242053
-0.24156
-0.24115
-0.24079
-0.240438
-0.240043
-0.23953
-0.238893
-0.237696
-0.237075
-0.233344
-0.234674
-0.224825
-0.248094
-0.247958
-0.247261
-0.246303
-0.245239
-0.24419
-0.243235
-0.242404
-0.241699
-0.241096
-0.240558
-0.240035
-0.239465
-0.238759
-0.237907
-0.236456
-0.235507
-0.231658
-0.232246
-0.223388
-0.250258
-0.249929
-0.248995
-0.247758
-0.246397
-0.245057
-0.243826
-0.242743
-0.241808
-0.240997
-0.240261
-0.239539
-0.238754
-0.237804
-0.236647
-0.234918
-0.233417
-0.229648
-0.229128
-0.221484
-0.252596
-0.252051
-0.25086
-0.249314
-0.247633
-0.245981
-0.244459
-0.243108
-0.24193
-0.240889
-0.239929
-0.238967
-0.237908
-0.236638
-0.235072
-0.23299
-0.230777
-0.227102
-0.225381
-0.218848
-0.25516
-0.254364
-0.252887
-0.251007
-0.248984
-0.247003
-0.245174
-0.243542
-0.242102
-0.240808
-0.239581
-0.238321
-0.236907
-0.235218
-0.233134
-0.230572
-0.227575
-0.223833
-0.220883
-0.215329
-0.258008
-0.256908
-0.255116
-0.252875
-0.25049
-0.248165
-0.246016
-0.244088
-0.242363
-0.240776
-0.239227
-0.237586
-0.235713
-0.233487
-0.230785
-0.227611
-0.223845
-0.219792
-0.215497
-0.210865
-0.261189
-0.259733
-0.257589
-0.254961
-0.252194
-0.249511
-0.247029
-0.244784
-0.24274
-0.240806
-0.238852
-0.236726
-0.234279
-0.2314
-0.227996
-0.224118
-0.219667
-0.215101
-0.20973
-0.205332
-0.264762
-0.262885
-0.26035
-0.257309
-0.254142
-0.251086
-0.248253
-0.245661
-0.243248
-0.24089
-0.238428
-0.235697
-0.232556
-0.228927
-0.224765
-0.220163
-0.215097
-0.209892
-0.204205
-0.199158
-0.268786
-0.26641
-0.263443
-0.259962
-0.256376
-0.25293
-0.249721
-0.246739
-0.243884
-0.241001
-0.237908
-0.234447
-0.230507
-0.226064
-0.221129
-0.215838
-0.210195
-0.204521
-0.198514
-0.193052
-0.273315
-0.270351
-0.266913
-0.262966
-0.258941
-0.255082
-0.251459
-0.248021
-0.244629
-0.241096
-0.23724
-0.232931
-0.228117
-0.222831
-0.217146
-0.211218
-0.205084
-0.19902
-0.19277
-0.187176
-0.278398
-0.274753
-0.270804
-0.266362
-0.261874
-0.257571
-0.253477
-0.249494
-0.245442
-0.241119
-0.236369
-0.231118
-0.225384
-0.219263
-0.212874
-0.206379
-0.199822
-0.193443
-0.187012
-0.181285
-0.284077
-0.279654
-0.275156
-0.270193
-0.265213
-0.260417
-0.255773
-0.251127
-0.246268
-0.241008
-0.235245
-0.228986
-0.222323
-0.215401
-0.208366
-0.201366
-0.194445
-0.187799
-0.181203
-0.175374
-0.290384
-0.28509
-0.280008
-0.274495
-0.268983
-0.263627
-0.258323
-0.252865
-0.247037
-0.240696
-0.233828
-0.226527
-0.218952
-0.211279
-0.203655
-0.196207
-0.188965
-0.182077
-0.175334
-0.169387
-0.297346
-0.291091
-0.285393
-0.279299
-0.273201
-0.267189
-0.261082
-0.254638
-0.247669
-0.240122
-0.232086
-0.22374
-0.215291
-0.20692
-0.198761
-0.190907
-0.183373
-0.176262
-0.169377
-0.163306
-0.304975
-0.297677
-0.291337
-0.284625
-0.277864
-0.271067
-0.26398
-0.256354
-0.24808
-0.239227
-0.229993
-0.220626
-0.211351
-0.202335
-0.193685
-0.185458
-0.177653
-0.170329
-0.16331
-0.15711
-0.31327
-0.304859
-0.297854
-0.290473
-0.282946
-0.275198
-0.26692
-0.25791
-0.248188
-0.237963
-0.227532
-0.217182
-0.207132
-0.19752
-0.188417
-0.179843
-0.171784
-0.164257
-0.15711
-0.15078
-0.32221
-0.312632
-0.30494
-0.296824
-0.288392
-0.279486
-0.269784
-0.259196
-0.247913
-0.236287
-0.224684
-0.213401
-0.202627
-0.192461
-0.182935
-0.174037
-0.165738
-0.158019
-0.150755
-0.144298
-0.331751
-0.320971
-0.312566
-0.303624
-0.294111
-0.283804
-0.272437
-0.260101
-0.247185
-0.234159
-0.221428
-0.209265
-0.197816
-0.187134
-0.177213
-0.168014
-0.159488
-0.151592
-0.144223
-0.137644
-0.341825
-0.329826
-0.320675
-0.310788
-0.299973
-0.287995
-0.274733
-0.26052
-0.245938
-0.231542
-0.217736
-0.204749
-0.192672
-0.181511
-0.171222
-0.161743
-0.153008
-0.144952
-0.137492
-0.130802
-0.352331
-0.339117
-0.329173
-0.318187
-0.305813
-0.291884
-0.276526
-0.260353
-0.24411
-0.228396
-0.213577
-0.199822
-0.187162
-0.175556
-0.164928
-0.155194
-0.146271
-0.138076
-0.130542
-0.123754
-0.363135
-0.348728
-0.337929
-0.325652
-0.311432
-0.295283
-0.277676
-0.259505
-0.24164
-0.224675
-0.208912
-0.194446
-0.181249
-0.169236
-0.158301
-0.148339
-0.139251
-0.130942
-0.123354
-0.116485
-0.374067
-0.35851
-0.346769
-0.332974
-0.316605
-0.298003
-0.278046
-0.25789
-0.23847
-0.220333
-0.203698
-0.188581
-0.174894
-0.162514
-0.151306
-0.141148
-0.131924
-0.12353
-0.115909
-0.10898
-0.384921
-0.368271
-0.35548
-0.339908
-0.321096
-0.299857
-0.277512
-0.255423
-0.234538
-0.215319
-0.197888
-0.182181
-0.168057
-0.155354
-0.143914
-0.133595
-0.124267
-0.11582
-0.108189
-0.101226
-0.395457
-0.377786
-0.363809
-0.346181
-0.324663
-0.300668
-0.275954
-0.252025
-0.229783
-0.20958
-0.191433
-0.175204
-0.1607
-0.147724
-0.136096
-0.125656
-0.116261
-0.107794
-0.100179
-0.0932099
-0.405403
-0.386793
-0.371471
-0.351506
-0.327072
-0.300275
-0.273265
-0.247619
-0.224143
-0.203061
-0.184286
-0.167607
-0.152784
-0.13959
-0.127824
-0.117308
-0.107888
-0.0994401
-0.0918651
-0.0849274
-0.41446
-0.395003
-0.378156
-0.355592
-0.328101
-0.298525
-0.269345
-0.242132
-0.217558
-0.195711
-0.176401
-0.15935
-0.144277
-0.130925
-0.119075
-0.108533
-0.0991326
-0.0907458
-0.0832456
-0.0763853
-0.422311
-0.402102
-0.383541
-0.358157
-0.327545
-0.295286
-0.264102
-0.235493
-0.20997
-0.187479
-0.167734
-0.150396
-0.135146
-0.121703
-0.109828
-0.0993126
-0.0899814
-0.0817013
-0.0743213
-0.0676001
-0.428628
-0.407765
-0.3873
-0.358933
-0.325222
-0.29044
-0.257456
-0.227641
-0.201327
-0.17832
-0.158246
-0.140714
-0.125367
-0.111903
-0.100065
-0.0896318
-0.0804194
-0.0722927
-0.0650853
-0.0585737
-0.433082
-0.411661
-0.389121
-0.357681
-0.320975
-0.283886
-0.249335
-0.218518
-0.191579
-0.168193
-0.147906
-0.130276
-0.114919
-0.101509
-0.0897739
-0.07948
-0.0704355
-0.0625052
-0.0555115
-0.0492566
-0.435352
-0.413464
-0.388711
-0.354189
-0.314671
-0.275539
-0.239679
-0.208077
-0.180688
-0.157067
-0.136686
-0.119063
-0.103786
-0.0905095
-0.0789465
-0.0688515
-0.0600282
-0.0523378
-0.0455692
-0.0395257
-0.435134
-0.412867
-0.385811
-0.348282
-0.306207
-0.265335
-0.228441
-0.196279
-0.168624
-0.144917
-0.12457
-0.107062
-0.0919584
-0.0788985
-0.0675799
-0.0577463
-0.0492029
-0.0418088
-0.0352686
-0.029319
-0.432151
-0.40959
-0.380201
-0.339824
-0.295503
-0.253227
-0.215588
-0.1831
-0.155365
-0.131727
-0.111544
-0.0942652
-0.0794338
-0.0666763
-0.0556794
-0.0461725
-0.0379667
-0.0309269
-0.0246367
-0.0189142
-0.426159
-0.403386
-0.371706
-0.328714
-0.282512
-0.239188
-0.201101
-0.168524
-0.1409
-0.11749
-0.0976052
-0.0806724
-0.0662214
-0.0538522
-0.0432585
-0.0341485
-0.0263486
-0.0196739
-0.0136695
-0.00838062
-0.416956
-0.394056
-0.360198
-0.314896
-0.267211
-0.22321
-0.184977
-0.152547
-0.125226
-0.102206
-0.0827676
-0.0662969
-0.0523435
-0.0404518
-0.0303242
-0.0216829
-0.0143459
-0.00807964
-0.00242318
0.00235253
-0.404387
-0.381456
-0.345593
-0.298346
-0.249605
-0.205304
-0.167222
-0.135178
-0.108364
-0.0858984
-0.0670661
-0.0511803
-0.0377955
-0.0264788
-0.0169003
-0.00879534
-0.00197672
0.00382932
0.00908398
0.0133054
-0.388347
-0.365493
-0.327851
-0.279077
-0.229727
-0.1855
-0.147861
-0.116451
-0.090366
-0.0686236
-0.0504946
-0.0353232
-0.0226181
-0.0119617
-0.00301274
0.00448863
0.0107327
0.0160284
0.020836
0.0244667
-0.368785
-0.346128
-0.306979
-0.257136
-0.207637
-0.16385
-0.126946
-0.0964535
-0.0712404
-0.0503852
-0.0331074
-0.0187635
-0.00684488
0.00306452
0.011307
0.0181383
0.0237522
0.0284914
0.032811
0.0358124
-0.345703
-0.323378
-0.283041
-0.232617
-0.183407
-0.140431
-0.104591
-0.0751739
-0.0510465
-0.0312368
-0.0149506
-0.0015482
0.00948314
0.0185598
0.0260213
0.0321176
0.0370472
0.0411857
0.0449765
0.0473113
-0.319154
-0.297317
-0.256176
-0.205683
-0.157095
-0.115325
-0.0808169
-0.0527116
-0.0298527
-0.011242
0.00391972
0.0162695
0.0263178
0.0344792
0.0410877
0.0463863
0.0505793
0.054073
0.0572916
0.058924
-0.289242
-0.268074
-0.226573
-0.176467
-0.128782
-0.0886195
-0.0557299
-0.0291571
-0.00773995
0.00952583
0.0234384
0.0346295
0.0436042
0.0507719
0.056459
0.0609005
0.0643081
0.0671138
0.0697137
0.0706071
-0.256129
-0.235846
-0.194323
-0.144783
-0.0988937
-0.0604973
-0.0294502
-0.00461215
0.0152001
0.0309844
0.0435316
0.0534647
0.061281
0.0673815
0.0720823
0.0756113
0.0781912
0.0802725
0.0822089
0.0823318
-0.22003
-0.200926
-0.159262
-0.111244
-0.0674006
-0.0311014
-0.00211233
0.0208098
0.0388658
0.0530425
0.0641174
0.0727016
0.0792813
0.0842459
0.087898
0.0904622
0.0921794
0.0935089
0.0947398
0.0940755
-0.181151
-0.163558
-0.121726
-0.0759951
-0.034513
-0.000591259
0.0261389
0.0469824
0.063146
0.0756008
0.0851072
0.0922609
0.0975339
0.101299
0.103843
0.105393
0.106216
0.106753
0.107191
0.105678
-0.13971
-0.123385
-0.0828459
-0.0392725
-0.000440575
0.0308588
0.0551494
0.0737696
0.0879203
0.0985526
0.106406
0.112059
0.115964
0.118474
0.11986
0.120357
0.120252
0.119895
0.119274
0.116647
-0.0960934
-0.0812296
-0.0424842
-0.00133981
0.0345939
0.0630629
0.0847554
0.101027
0.11306
0.121784
0.127913
0.132005
0.134493
0.135705
0.135901
0.135334
0.134274
0.13284
0.130688
0.126562
-0.0507453
-0.0373558
-0.000823119
0.0375451
0.070357
0.0958232
0.114784
0.1286
0.138431
0.145176
0.149523
0.152007
0.153037
0.152921
0.151916
0.150296
0.148264
0.145597
0.141695
0.136454
-0.00392666
0.00780547
0.0418389
0.0771159
0.106609
0.128932
0.145055
0.156332
0.163893
0.168603
0.171124
0.171964
0.171509
0.170047
0.167839
0.165163
0.162118
0.158177
0.152913
0.14952
0.0439736
0.0538627
0.0851631
0.117091
0.143103
0.162177
0.175381
0.184057
0.189298
0.191936
0.192602
0.191776
0.189818
0.187004
0.183589
0.179826
0.175693
0.170616
0.164735
0.162119
0.092542
0.100434
0.128799
0.15718
0.179589
0.195338
0.205571
0.211608
0.214501
0.215045
0.21384
0.211337
0.207874
0.203709
0.19909
0.194225
0.189024
0.182997
0.176653
0.17382
0.141361
0.147134
0.172395
0.197085
0.215811
0.228195
0.235432
0.238813
0.239349
0.237796
0.23472
0.230543
0.22558
0.220074
0.214251
0.208284
0.202056
0.19519
0.188346
0.184935
0.190009
0.193573
0.215601
0.236508
0.251516
0.260525
0.264769
0.265503
0.263693
0.260055
0.255122
0.249288
0.242842
0.236011
0.228999
0.221946
0.214733
0.207063
0.199634
0.195495
0.238067
0.23936
0.25807
0.275155
0.286447
0.292107
0.293389
0.291506
0.287381
0.28169
0.27493
0.267466
0.259565
0.251434
0.243255
0.235143
0.226983
0.218529
0.210473
0.205543
0.285118
0.284111
0.299464
0.312733
0.320357
0.322725
0.3211
0.316656
0.310266
0.302568
0.294025
0.284974
0.275657
0.26626
0.256945
0.247807
0.238732
0.229513
0.220815
0.21507
0.330755
0.327449
0.339453
0.348961
0.352999
0.352164
0.347718
0.340788
0.332204
0.322563
0.312296
0.30171
0.291025
0.280408
0.269998
0.259872
0.249918
0.239959
0.230624
0.224055
0.374583
0.369011
0.377718
0.383565
0.38414
0.380221
0.373062
0.363745
0.353055
0.341551
0.329631
0.317577
0.305584
0.293799
0.282343
0.271273
0.260482
0.249818
0.23986
0.232473
0.416224
0.408447
0.413957
0.416285
0.413553
0.406697
0.396958
0.385373
0.372684
0.359413
0.345927
0.332481
0.31925
0.30636
0.293913
0.281951
0.27037
0.259041
0.248485
0.240296
0.455317
0.445427
0.447882
0.446874
0.441024
0.431407
0.419245
0.40553
0.390965
0.376037
0.361083
0.346334
0.331943
0.318019
0.304645
0.291849
0.279532
0.267583
0.25646
0.247496
0.491526
0.479644
0.479225
0.475102
0.466354
0.454176
0.439767
0.424081
0.407779
0.391318
0.375006
0.359052
0.343591
0.328712
0.314482
0.300915
0.28792
0.275403
0.263749
0.254048
0.524539
0.510811
0.507738
0.500756
0.489359
0.474843
0.458385
0.440901
0.423016
0.405158
0.387611
0.370561
0.354124
0.338377
0.323367
0.3091
0.295492
0.282461
0.270319
0.259929
0.554071
0.538671
0.533197
0.523643
0.50987
0.49326
0.474969
0.455876
0.436577
0.41747
0.398818
0.380788
0.363482
0.346959
0.331254
0.316362
0.302207
0.288721
0.276138
0.265118
0.579871
0.562992
0.555402
0.543589
0.527737
0.509297
0.489404
0.468906
0.448371
0.428174
0.408558
0.389674
0.371609
0.354409
0.338097
0.322661
0.308032
0.294149
0.28118
0.269596
0.601717
0.583573
0.574179
0.560446
0.542831
0.52284
0.50159
0.479902
0.458321
0.437202
0.416771
0.397164
0.378456
0.360685
0.34386
0.327962
0.312934
0.298718
0.285418
0.27335
0.619421
0.600245
0.589379
0.574086
0.55504
0.533792
0.511443
0.488791
0.466362
0.444495
0.423403
0.403211
0.383984
0.365749
0.348508
0.332239
0.316888
0.302404
0.288834
0.276367
0.632833
0.612871
0.600885
0.584406
0.564276
0.542076
0.518892
0.49551
0.472439
0.450007
0.428415
0.407779
0.388159
0.369573
0.352018
0.335467
0.319872
0.305185
0.291411
0.278637
0.641839
0.621346
0.608606
0.59133
0.570471
0.547631
0.523888
0.500015
0.476513
0.453701
0.431773
0.41084
0.390956
0.372135
0.354369
0.337629
0.321871
0.307048
0.293135
0.280155
0.478557
0.455554
0.433458
0.412375
0.392358
0.37342
0.355548
0.338712
0.322873
0.307982
0.294
0.280914
-0.234882
-0.234993
-0.235215
-0.235535
-0.235951
-0.236505
-0.237263
-0.237752
-0.235966
-0.237955
-0.236404
-0.238073
-0.236804
-0.237939
-0.237114
-0.237379
-0.237192
-0.23518
-0.236266
-0.236804
-0.234728
-0.234571
-0.235693
-0.233807
-0.232665
-0.232283
-0.23368
-0.232232
-0.23131
-0.229356
-0.23071
-0.229883
-0.229342
-0.225744
-0.226876
-0.22676
-0.226657
-0.226463
-0.221454
-0.222461
-0.222996
-0.223259
-0.223329
-0.216749
-0.217833
-0.218721
-0.219204
-0.219589
-0.219885
-0.212126
-0.213268
-0.213915
-0.214353
-0.214941
-0.215475
-0.206785
-0.209314
-0.209861
-0.210347
-0.211094
-0.211802
-0.212301
-0.201054
-0.20446
-0.205028
-0.20545
-0.206291
-0.207177
-0.207852
-0.195332
-0.199274
-0.19991
-0.200315
-0.201253
-0.202308
-0.203148
-0.189717
-0.193945
-0.194739
-0.19522
-0.196269
-0.197472
-0.198462
-0.184115
-0.188583
-0.189599
-0.190215
-0.191376
-0.192707
-0.19383
-0.1786
-0.183272
-0.184523
-0.185298
-0.186572
-0.188017
-0.18926
-0.173252
-0.178057
-0.179531
-0.180474
-0.181864
-0.183415
-0.18477
-0.168072
-0.172963
-0.17464
-0.175753
-0.17726
-0.178912
-0.180371
-0.163057
-0.168004
-0.169866
-0.171143
-0.172767
-0.174515
-0.176071
-0.158215
-0.163194
-0.165217
-0.166651
-0.168387
-0.170226
-0.171873
-0.153544
-0.158534
-0.160701
-0.16228
-0.164123
-0.166048
-0.167779
-0.149041
-0.154026
-0.156321
-0.158034
-0.159976
-0.161981
-0.16379
-0.144703
-0.149672
-0.15208
-0.153915
-0.155948
-0.158026
-0.159908
-0.140529
-0.145471
-0.147978
-0.149923
-0.152039
-0.154185
-0.156133
-0.136517
-0.141421
-0.144014
-0.146059
-0.14825
-0.150456
-0.152465
-0.132662
-0.13752
-0.140188
-0.142322
-0.14458
-0.14684
-0.148903
-0.128961
-0.133766
-0.136498
-0.138711
-0.141027
-0.143335
-0.145448
-0.125408
-0.130155
-0.13294
-0.135222
-0.13759
-0.13994
-0.142096
-0.121999
-0.126683
-0.129511
-0.131854
-0.134267
-0.136653
-0.138848
-0.118729
-0.123346
-0.126209
-0.128604
-0.131055
-0.133472
-0.135701
-0.115591
-0.120139
-0.123029
-0.125469
-0.127952
-0.130395
-0.132653
-0.11258
-0.117058
-0.119968
-0.122445
-0.124955
-0.12742
-0.129702
-0.109692
-0.114098
-0.117022
-0.11953
-0.122061
-0.124544
-0.126847
-0.106921
-0.111254
-0.114187
-0.11672
-0.119269
-0.121764
-0.124085
-0.104263
-0.108523
-0.111459
-0.114013
-0.116574
-0.11908
-0.121414
-0.101712
-0.1059
-0.108835
-0.111405
-0.113975
-0.116487
-0.118831
-0.0992654
-0.10338
-0.106312
-0.108893
-0.111469
-0.113984
-0.116336
-0.0969181
-0.10096
-0.103885
-0.106473
-0.109052
-0.111568
-0.113925
-0.0946663
-0.0986366
-0.101551
-0.104144
-0.106723
-0.109237
-0.111596
-0.092506
-0.0964053
-0.0993074
-0.101902
-0.104478
-0.106988
-0.109348
-0.0904335
-0.0942628
-0.0971504
-0.0997436
-0.102315
-0.104819
-0.107177
-0.0884453
-0.0922056
-0.0950769
-0.0976666
-0.100231
-0.102728
-0.105082
-0.086538
-0.0902305
-0.0930839
-0.095668
-0.0982237
-0.100712
-0.103061
-0.0847082
-0.0883343
-0.0911685
-0.0937453
-0.096291
-0.0987689
-0.101112
-0.0829528
-0.086514
-0.089328
-0.0918959
-0.0944302
-0.0968967
-0.0992318
-0.081269
-0.0847667
-0.0875596
-0.0901171
-0.0926391
-0.095093
-0.0974194
-0.0796538
-0.0830895
-0.0858606
-0.0884068
-0.0909153
-0.093356
-0.0956726
-0.0781047
-0.08148
-0.0842288
-0.0867625
-0.0892568
-0.0916834
-0.0939895
-0.0766189
-0.0799354
-0.0826615
-0.085182
-0.0876615
-0.0900735
-0.0923683
-0.0751942
-0.0784536
-0.0811567
-0.0836632
-0.0861274
-0.0885242
-0.0908072
-0.0738281
-0.077032
-0.079712
-0.0822041
-0.0846524
-0.0870338
-0.0893044
-0.0725186
-0.0756686
-0.0783255
-0.0808026
-0.0832349
-0.0856004
-0.0878584
-0.0712634
-0.0743613
-0.0769951
-0.0794569
-0.0818729
-0.0842225
-0.0864674
-0.0700607
-0.0731081
-0.075719
-0.0781653
-0.0805648
-0.0828983
-0.08513
-0.0689086
-0.0719071
-0.0744953
-0.076926
-0.0793089
-0.0816263
-0.0838446
-0.0678053
-0.0707566
-0.0733223
-0.0757373
-0.0781037
-0.080405
-0.0826098
-0.0667491
-0.0696548
-0.0721984
-0.0745977
-0.0769477
-0.079233
-0.0814243
-0.0657384
-0.0686001
-0.0711221
-0.0735057
-0.0758394
-0.0781088
-0.0802866
-0.0647717
-0.0675911
-0.0700918
-0.0724599
-0.0747774
-0.0770311
-0.0791955
-0.0638477
-0.0666263
-0.0691061
-0.0714589
-0.0737605
-0.0759987
-0.0781499
-0.0629648
-0.0657042
-0.0681637
-0.0705014
-0.0727874
-0.0750104
-0.0771484
-0.0621219
-0.0648237
-0.0672634
-0.0695862
-0.0718569
-0.074065
-0.0761901
-0.0613178
-0.0639834
-0.0664039
-0.0687122
-0.0709678
-0.0731614
-0.0752738
-0.0605513
-0.0631822
-0.0655841
-0.0678781
-0.0701192
-0.0722985
-0.0743985
-0.0598212
-0.0624191
-0.0648029
-0.0670831
-0.0693099
-0.0714754
-0.0735633
-0.0591267
-0.0616929
-0.0640593
-0.0663261
-0.0685391
-0.0706911
-0.0727673
-0.0584668
-0.0610027
-0.0633523
-0.0656061
-0.0678058
-0.0699448
-0.0720095
-0.0578404
-0.0603476
-0.0626811
-0.0649222
-0.067109
-0.0692355
-0.0712892
-0.0572469
-0.0597267
-0.0620447
-0.0642737
-0.0664481
-0.0685625
-0.0706055
-0.0566854
-0.0591391
-0.0614423
-0.0636597
-0.0658222
-0.067925
-0.0699576
-0.0561551
-0.0585842
-0.0608733
-0.0630795
-0.0652305
-0.0673222
-0.069345
-0.0556553
-0.0580611
-0.0603368
-0.0625323
-0.0646725
-0.0667536
-0.068767
-0.0551854
-0.0575693
-0.0598322
-0.0620176
-0.0641474
-0.0662184
-0.0682228
-0.0547447
-0.057108
-0.0593589
-0.0615346
-0.0636546
-0.0657161
-0.0677119
-0.0543328
-0.0566767
-0.0589163
-0.0610829
-0.0631936
-0.0652461
-0.0672339
-0.053949
-0.0562749
-0.0585038
-0.0606619
-0.0627639
-0.0648078
-0.0667881
-0.0535928
-0.055902
-0.058121
-0.0602711
-0.0623649
-0.0644009
-0.066374
-0.0532639
-0.0555575
-0.0577673
-0.05991
-0.0619963
-0.0640249
-0.0659914
-0.0529617
-0.055241
-0.0574423
-0.0595782
-0.0616575
-0.0636793
-0.0656396
-0.0526858
-0.0549522
-0.0571458
-0.0592753
-0.0613482
-0.0633637
-0.0653185
-0.0524361
-0.0546907
-0.0568772
-0.059001
-0.0610681
-0.0630779
-0.0650275
-0.052212
-0.0544561
-0.0566362
-0.0587549
-0.0608168
-0.0628215
-0.0647665
-0.0520133
-0.0542481
-0.0564227
-0.0585369
-0.0605941
-0.0625943
-0.0645352
-0.0518398
-0.0540665
-0.0562363
-0.0583465
-0.0603997
-0.062396
-0.0643333
-0.0516913
-0.0539111
-0.0560768
-0.0581837
-0.0602334
-0.0622263
-0.0641606
-0.0515674
-0.0537817
-0.0559441
-0.0580483
-0.0600951
-0.0620852
-0.0640169
-0.0514682
-0.0536781
-0.055838
-0.05794
-0.0599846
-0.0619725
-0.0639022
-0.0513936
-0.0536004
-0.0557585
-0.0578589
-0.0599019
-0.061888
-0.0638162
-0.0513427
-0.0535482
-0.0557054
-0.0578049
-0.0598467
-0.0618317
-0.0637589
-0.0513156
-0.0535213
-0.0556785
-0.0577778
-0.0598191
-0.0618036
-0.0637302
-0.201074
-0.195241
-0.18852
-0.18265
-0.177063
-0.171538
-0.166246
-0.161188
-0.1563
-0.151583
-0.147049
-0.14269
-0.1385
-0.134478
-0.130621
-0.126923
-0.123377
-0.119977
-0.116717
-0.113591
-0.110593
-0.107718
-0.10496
-0.102316
-0.0997801
-0.0973483
-0.0950164
-0.0927801
-0.0906355
-0.0885788
-0.0866062
-0.0847143
-0.0828998
-0.0811594
-0.0794902
-0.0778893
-0.0763539
-0.0748814
-0.0734694
-0.0721155
-0.0708176
-0.0695734
-0.068381
-0.0672385
-0.0661441
-0.0650961
-0.0640929
-0.0631329
-0.0622148
-0.0613371
-0.0604986
-0.059698
-0.0589342
-0.0582061
-0.0575127
-0.0568529
-0.0562259
-0.0556308
-0.0550668
-0.0545332
-0.0540291
-0.053554
-0.0531072
-0.0526882
-0.0522963
-0.0519311
-0.051592
-0.0512788
-0.0509908
-0.0507279
-0.0504896
-0.0502756
-0.0500856
-0.0499195
-0.0497769
-0.0496576
-0.0495616
-0.0494887
-0.0494374
-0.0494089
-0.194534
-0.188705
-0.181966
-0.176333
-0.171137
-0.165852
-0.160689
-0.155775
-0.151035
-0.146446
-0.142037
-0.137812
-0.133754
-0.12986
-0.126128
-0.122551
-0.119123
-0.115836
-0.112686
-0.109667
-0.106773
-0.104
-0.101342
-0.0987935
-0.0963508
-0.0940092
-0.0917641
-0.0896116
-0.0875477
-0.0855686
-0.0836707
-0.0818505
-0.0801049
-0.0784307
-0.076825
-0.075285
-0.0738079
-0.0723914
-0.071033
-0.0697305
-0.0684817
-0.0672845
-0.0661371
-0.0650375
-0.0639842
-0.0629754
-0.0620096
-0.0610853
-0.0602012
-0.0593558
-0.0585481
-0.0577768
-0.0570407
-0.0563389
-0.0556703
-0.0550341
-0.0544293
-0.0538551
-0.0533108
-0.0527955
-0.0523087
-0.0518496
-0.0514177
-0.0510124
-0.0506331
-0.0502794
-0.0499508
-0.049647
-0.0493674
-0.0491117
-0.0488797
-0.048671
-0.0484853
-0.0483223
-0.0481819
-0.0480639
-0.0479681
-0.0478942
-0.0478406
-0.0478097
-0.188957
-0.183459
-0.176692
-0.170912
-0.165752
-0.160541
-0.155388
-0.150512
-0.145871
-0.141393
-0.137089
-0.132974
-0.129034
-0.125256
-0.121637
-0.118174
-0.114857
-0.111681
-0.108639
-0.105725
-0.102935
-0.100261
-0.0976996
-0.0952452
-0.0928933
-0.0906393
-0.088479
-0.0864084
-0.0844234
-0.0825203
-0.0806958
-0.0789462
-0.0772686
-0.0756598
-0.0741169
-0.0726373
-0.0712183
-0.0698576
-0.0685527
-0.0673014
-0.0661018
-0.0649518
-0.0638496
-0.0627933
-0.0617813
-0.0608121
-0.0598841
-0.058996
-0.0581463
-0.0573339
-0.0565574
-0.0558159
-0.0551081
-0.0544332
-0.0537902
-0.0531781
-0.0525961
-0.0520434
-0.0515193
-0.0510231
-0.0505541
-0.0501116
-0.0496952
-0.0493042
-0.0489381
-0.0485966
-0.048279
-0.0479851
-0.0477144
-0.0474666
-0.0472414
-0.0470385
-0.0468576
-0.0466985
-0.0465608
-0.0464446
-0.0463495
-0.0462753
-0.0462203
-0.0461883
-0.183123
-0.177623
-0.170831
-0.165005
-0.159952
-0.154951
-0.149958
-0.145195
-0.140685
-0.136347
-0.132168
-0.12817
-0.12435
-0.120692
-0.11719
-0.113839
-0.110634
-0.107566
-0.104629
-0.101818
-0.0991264
-0.0965498
-0.0940824
-0.0917193
-0.0894559
-0.0872876
-0.0852102
-0.0832194
-0.0813116
-0.0794829
-0.0777299
-0.0760493
-0.0744379
-0.0728929
-0.0714113
-0.0699906
-0.0686282
-0.0673217
-0.0660689
-0.0648676
-0.0637159
-0.0626118
-0.0615535
-0.0605393
-0.0595677
-0.058637
-0.0577458
-0.0568928
-0.0560767
-0.0552963
-0.0545503
-0.0538378
-0.0531577
-0.052509
-0.0518908
-0.0513023
-0.0507426
-0.0502109
-0.0497066
-0.049229
-0.0487775
-0.0483513
-0.0479501
-0.0475732
-0.0472202
-0.0468906
-0.0465839
-0.0462999
-0.0460381
-0.0457982
-0.0455799
-0.045383
-0.045207
-0.0450519
-0.0449173
-0.0448031
-0.0447092
-0.0446351
-0.0445794
-0.0445467
-0.17723
-0.171884
-0.16526
-0.159463
-0.154437
-0.149541
-0.144651
-0.139952
-0.135518
-0.131287
-0.127224
-0.123337
-0.119629
-0.116087
-0.1127
-0.109461
-0.106365
-0.103406
-0.100575
-0.0978669
-0.0952764
-0.0927975
-0.090425
-0.0881538
-0.0859792
-0.0838967
-0.0819021
-0.0799913
-0.0781605
-0.0764061
-0.0747248
-0.0731131
-0.0715681
-0.0700869
-0.0686668
-0.0673051
-0.0659994
-0.0647473
-0.0635468
-0.0623958
-0.0612922
-0.0602343
-0.0592203
-0.0582485
-0.0573174
-0.0564256
-0.0555716
-0.0547541
-0.0539719
-0.0532238
-0.0525088
-0.0518256
-0.0511735
-0.0505514
-0.0499585
-0.0493939
-0.0488569
-0.0483467
-0.0478626
-0.047404
-0.0469703
-0.0465609
-0.0461753
-0.0458129
-0.0454733
-0.0451561
-0.0448609
-0.0445872
-0.0443347
-0.0441032
-0.0438923
-0.0437016
-0.0435311
-0.0433804
-0.0432494
-0.0431379
-0.0430457
-0.0429723
-0.0429166
-0.0428837
-0.171223
-0.165946
-0.159451
-0.153682
-0.148672
-0.143884
-0.139147
-0.134581
-0.130265
-0.126164
-0.122236
-0.118477
-0.114889
-0.111467
-0.108198
-0.105074
-0.10209
-0.0992394
-0.0965148
-0.0939101
-0.0914195
-0.0890377
-0.0867591
-0.0845789
-0.0824923
-0.0804949
-0.0785824
-0.0767509
-0.0749966
-0.0733159
-0.0717054
-0.0701621
-0.0686828
-0.0672648
-0.0659054
-0.0646021
-0.0633525
-0.0621544
-0.0610056
-0.0599042
-0.0588483
-0.0578361
-0.0568658
-0.055936
-0.0550452
-0.0541918
-0.0533746
-0.0525923
-0.0518437
-0.0511278
-0.0504433
-0.0497894
-0.0491651
-0.0485694
-0.0480016
-0.0474609
-0.0469464
-0.0464576
-0.0459937
-0.0455542
-0.0451383
-0.0447457
-0.0443757
-0.044028
-0.0437019
-0.0433972
-0.0431135
-0.0428503
-0.0426074
-0.0423844
-0.0421811
-0.0419971
-0.0418323
-0.0416865
-0.0415594
-0.0414508
-0.0413608
-0.0412887
-0.0412333
-0.0412005
-0.165098
-0.1599
-0.153601
-0.147941
-0.142984
-0.138289
-0.133684
-0.12924
-0.125027
-0.121034
-0.117226
-0.113587
-0.110118
-0.106812
-0.10366
-0.100651
-0.097779
-0.0950375
-0.0924196
-0.0899187
-0.0875289
-0.0852447
-0.0830608
-0.080972
-0.0789738
-0.0770617
-0.0752316
-0.0734795
-0.0718016
-0.0701946
-0.0686551
-0.06718
-0.0657665
-0.0644117
-0.0631131
-0.0618682
-0.0606748
-0.0595306
-0.0584337
-0.057382
-0.0563738
-0.0554073
-0.054481
-0.0535933
-0.0527427
-0.0519279
-0.0511477
-0.0504007
-0.0496859
-0.0490022
-0.0483486
-0.0477241
-0.0471277
-0.0465587
-0.0460163
-0.0454996
-0.045008
-0.0445408
-0.0440973
-0.043677
-0.0432793
-0.0429037
-0.0425497
-0.0422168
-0.0419047
-0.0416128
-0.0413409
-0.0410886
-0.0408555
-0.0406415
-0.0404461
-0.0402692
-0.0401105
-0.0399699
-0.0398471
-0.039742
-0.0396545
-0.0395841
-0.0395297
-0.0394974
-0.158864
-0.153727
-0.147614
-0.142069
-0.137169
-0.132558
-0.128084
-0.123781
-0.119699
-0.115833
-0.112157
-0.10865
-0.105309
-0.102126
-0.0990939
-0.0962028
-0.0934453
-0.0908147
-0.0883044
-0.0859079
-0.0836192
-0.0814327
-0.0793433
-0.0773459
-0.0754359
-0.0736089
-0.0718608
-0.0701878
-0.0685862
-0.0670526
-0.0655838
-0.0641768
-0.0628287
-0.0615368
-0.0602987
-0.059112
-0.0579745
-0.056884
-0.0558386
-0.0548364
-0.0538757
-0.0529548
-0.0520722
-0.0512264
-0.050416
-0.0496397
-0.0488963
-0.0481846
-0.0475035
-0.046852
-0.0462291
-0.0456339
-0.0450656
-0.0445232
-0.0440061
-0.0435135
-0.0430448
-0.0425993
-0.0421763
-0.0417754
-0.041396
-0.0410375
-0.0406996
-0.0403818
-0.0400837
-0.0398049
-0.039545
-0.0393038
-0.0390809
-0.038876
-0.0386889
-0.0385193
-0.0383671
-0.0382321
-0.0381139
-0.0380127
-0.0379282
-0.0378599
-0.0378068
-0.0377754
-0.152508
-0.147432
-0.141517
-0.136121
-0.131315
-0.126805
-0.122463
-0.118303
-0.114353
-0.110612
-0.107061
-0.103682
-0.100466
-0.0974063
-0.0944942
-0.0917209
-0.0890784
-0.0865595
-0.0841575
-0.0818661
-0.0796792
-0.0775911
-0.0755968
-0.0736912
-0.0718698
-0.0701282
-0.0684625
-0.0668688
-0.0653435
-0.0638834
-0.0624854
-0.0611464
-0.0598638
-0.0586349
-0.0574574
-0.0563289
-0.0552472
-0.0542105
-0.0532166
-0.052264
-0.0513508
-0.0504756
-0.0496367
-0.0488329
-0.0480627
-0.0473249
-0.0466184
-0.0459421
-0.0452948
-0.0446756
-0.0440836
-0.0435179
-0.0429776
-0.0424621
-0.0419705
-0.0415022
-0.0410565
-0.0406328
-0.0402306
-0.0398492