/*--------------------------------*- C++ -*----------------------------------*\
  =========                 |
  \\      /  F ield         | OpenFOAM: The Open Source CFD Toolbox
   \\    /   O peration     | Website:  https://openfoam.org
    \\  /    A nd           | Version:  7
     \\/     M anipulation  |
\*---------------------------------------------------------------------------*/
FoamFile
{
    version     2.0;
    format      ascii;
    class       volVectorField;
    location    "70";
    object      U;
}
// * * * * * * * * * * * * * * * * * * * * * * * * * * * * * * * * * * * * * //

dimensions      [0 1 -1 0 0 0 0];

internalField   nonuniform List<vector> 
6000
(
(0.720833 -0.0412943 -5.30015e-20)
(0.623105 -0.0337997 6.56471e-20)
(0.528333 -0.0279236 -4.17266e-20)
(0.363084 -0.0233554 -5.02239e-20)
(0.438969 -0.023734 -2.17413e-21)
(0.292118 -0.0217388 5.87559e-20)
(0.356595 -0.0211627 -3.39099e-20)
(0.22803 -0.0208322 -3.30632e-20)
(0.281986 -0.020027 7.26847e-20)
(0.14255 -0.0245822 4.42625e-20)
(0.170597 -0.0205265 -6.60837e-20)
(0.215264 -0.0200516 -2.2417e-20)
(0.0955769 -0.0243075 -2.45194e-20)
(0.119413 -0.0207134 3.40897e-20)
(0.156086 -0.0208971 4.37439e-20)
(0.0540431 -0.0242531 1.731e-20)
(0.0739604 -0.0212555 -2.06702e-21)
(0.103834 -0.0221936 -2.02218e-20)
(0.0173789 -0.024315 2.22433e-20)
(0.0336638 -0.0220238 -6.01772e-21)
(0.0577853 -0.0235516 3.37759e-21)
(-0.0274428 -0.0266123 -1.38367e-20)
(-0.0149722 -0.0243453 6.09744e-21)
(-0.00204698 -0.0229662 2.87224e-20)
(0.0172799 -0.0245535 -1.6006e-20)
(-0.0531165 -0.0260303 3.81601e-20)
(-0.0436081 -0.0242892 -1.53242e-20)
(-0.033538 -0.023753 -1.7868e-20)
(-0.0182988 -0.0250754 1.57087e-21)
(-0.075743 -0.0253061 -5.6087e-21)
(-0.0688447 -0.0241103 -1.7274e-20)
(-0.0611494 -0.0240714 -5.53228e-21)
(-0.0498067 -0.0253441 -2.79314e-20)
(-0.0955765 -0.0243832 -4.0328e-21)
(-0.0909387 -0.0236628 5.15796e-20)
(-0.0854234 -0.0239393 2.67806e-20)
(-0.0775881 -0.0253606 6.30021e-21)
(-0.112798 -0.0232204 -1.14448e-20)
(-0.110119 -0.022885 -3.15013e-20)
(-0.106634 -0.0233774 -3.08622e-20)
(-0.101774 -0.0248739 4.14839e-20)
(-0.12753 -0.021798 -8.82013e-21)
(-0.126539 -0.0217641 3.06746e-20)
(-0.124886 -0.0223958 1.81673e-20)
(-0.122477 -0.0238583 -1.02452e-20)
(-0.139852 -0.0201165 1.03018e-20)
(-0.140285 -0.0203142 -4.22636e-21)
(-0.140216 -0.0210267 -1.42763e-20)
(-0.139778 -0.0223874 -1.07529e-20)
(-0.149802 -0.0181948 -2.66488e-22)
(-0.151395 -0.0185693 -1.25205e-20)
(-0.152629 -0.0193219 1.36563e-20)
(-0.153729 -0.0205487 8.93207e-22)
(-0.154575 -0.0157768 -1.14553e-21)
(-0.157398 -0.0160657 1.06243e-21)
(-0.159881 -0.0165772 1.39834e-20)
(-0.162118 -0.0173432 -1.51361e-21)
(-0.164357 -0.0184248 -4.68586e-21)
(-0.159262 -0.0132813 6.20436e-21)
(-0.16264 -0.0137722 6.13243e-21)
(-0.165738 -0.0143935 -4.82184e-21)
(-0.168668 -0.0151565 -1.50733e-21)
(-0.171675 -0.0160913 2.27584e-22)
(-0.161843 -0.010688 -3.57893e-21)
(-0.165525 -0.0113637 1.37335e-21)
(-0.168959 -0.0120787 -2.18244e-21)
(-0.172266 -0.0128294 5.74697e-22)
(-0.175686 -0.0136184 1.74255e-21)
(1.29086 -0.0992121 0)
(1.30195 -0.0983413 0)
(1.29967 -0.0963298 0)
(1.2935 -0.0937414 0)
(1.28608 -0.0906965 0)
(1.27825 -0.0874045 0)
(1.27044 -0.0839386 0)
(1.26295 -0.0803442 0)
(1.25596 -0.0766731 0)
(1.24947 -0.0729588 0)
(1.24346 -0.0692204 0)
(1.23786 -0.0654716 0)
(1.23265 -0.0617236 0)
(1.22779 -0.0579855 0)
(1.22327 -0.054265 0)
(1.21907 -0.050568 0)
(1.2152 -0.0468989 0)
(1.21163 -0.0432602 0)
(1.20836 -0.0396534 0)
(1.20539 -0.0360787 0)
(1.20271 -0.0325356 0)
(1.20032 -0.0290227 0)
(1.1982 -0.025538 0)
(1.19635 -0.022079 0)
(1.19478 -0.0186429 0)
(1.19347 -0.0152268 0)
(1.19243 -0.011826 0)
(1.19164 -0.00844214 0)
(1.19112 -0.00505241 0)
(1.19088 -0.00170067 0)
(1.28706 -0.0911065 0)
(1.30158 -0.0906831 0)
(1.3007 -0.0890994 0)
(1.29512 -0.0868418 0)
(1.28807 -0.0841268 0)
(1.28052 -0.0811835 0)
(1.27292 -0.0780841 0)
(1.26561 -0.0748644 0)
(1.25873 -0.0715653 0)
(1.25234 -0.068214 0)
(1.24641 -0.0648266 0)
(1.24087 -0.061415 0)
(1.2357 -0.0579889 0)
(1.23087 -0.054557 0)
(1.22636 -0.051127 0)
(1.22218 -0.0477052 0)
(1.2183 -0.0442965 0)
(1.21473 -0.0409046 0)
(1.21146 -0.0375318 0)
(1.20848 -0.0341794 0)
(1.20579 -0.0308479 0)
(1.20338 -0.0275372 0)
(1.20126 -0.0242462 0)
(1.1994 -0.0209737 0)
(1.19782 -0.0177178 0)
(1.1965 -0.0144765 0)
(1.19545 -0.0112466 0)
(1.19466 -0.00802961 0)
(1.19414 -0.00480747 0)
(1.19389 -0.00161471 0)
(1.28324 -0.0829391 0)
(1.30125 -0.0829805 0)
(1.30186 -0.0819482 0)
(1.29686 -0.0800853 0)
(1.2901 -0.0777154 0)
(1.28275 -0.075115 0)
(1.27532 -0.0723672 1.62773e-28)
(1.26813 -0.0695031 -3.53143e-29)
(1.26136 -0.0665561 0)
(1.25504 -0.0635491 0)
(1.24916 -0.060496 0)
(1.24367 -0.0574068 0)
(1.23854 -0.0542903 0)
(1.23374 -0.0511544 0)
(1.22926 -0.0480066 0)
(1.22508 -0.0448532 0)
(1.22122 -0.0416997 0)
(1.21765 -0.0385504 0)
(1.21437 -0.0354085 0)
(1.21139 -0.0322763 0)
(1.2087 -0.0291551 0)
(1.20628 -0.0260457 0)
(1.20414 -0.0229483 0)
(1.20228 -0.0198623 0)
(1.20069 -0.0167871 0)
(1.19937 -0.0137215 0)
(1.19831 -0.0106635 0)
(1.19752 -0.00761453 0)
(1.19699 -0.00456073 0)
(1.19674 -0.0015293 0)
(1.2793 -0.0749239 0)
(1.30084 -0.0753684 0)
(1.30307 -0.0748758 0)
(1.29868 -0.0734092 0)
(1.29217 -0.0713899 0)
(1.28498 -0.0691355 0)
(1.27767 -0.0667361 -1.62773e-28)
(1.27057 -0.0642195 3.53143e-29)
(1.26387 -0.0616141 0)
(1.25761 -0.0589403 0)
(1.25178 -0.0562106 0)
(1.24633 -0.0534341 0)
(1.24123 -0.0506185 0)
(1.23645 -0.0477712 0)
(1.23198 -0.0448991 0)
(1.22782 -0.042009 0)
(1.22396 -0.0391066 0)
(1.2204 -0.0361967 0)
(1.21712 -0.0332834 0)
(1.21414 -0.0303695 0)
(1.21144 -0.0274574 0)
(1.20902 -0.0245488 0)
(1.20687 -0.0216447 0)
(1.20501 -0.0187455 0)
(1.20341 -0.0158514 0)
(1.20208 -0.0129622 0)
(1.20102 -0.0100768 0)
(1.20022 -0.00719701 0)
(1.1997 -0.00431226 0)
(1.19944 -0.00144419 0)
(1.27516 -0.0671257 0)
(1.30011 -0.0679121 0)
(1.30402 -0.0679038 0)
(1.30029 -0.0668071 0)
(1.29406 -0.0651306 0)
(1.28702 -0.0632214 0)
(1.27982 -0.0611686 0)
(1.27282 -0.0589947 0)
(1.26618 -0.0567245 0)
(1.25998 -0.0543767 0)
(1.25419 -0.0519632 0)
(1.24878 -0.0494923 0)
(1.24371 -0.0469711 0)
(1.23895 -0.0444063 0)
(1.23451 -0.0418049 0)
(1.23036 -0.0391737 0)
(1.22652 -0.0365188 0)
(1.22296 -0.0338455 0)
(1.21969 -0.0311583 0)
(1.21671 -0.0284612 0)
(1.214 -0.0257571 0)
(1.21158 -0.0230484 0)
(1.20944 -0.0203372 0)
(1.20757 -0.0176247 0)
(1.20597 -0.014912 0)
(1.20464 -0.0121996 0)
(1.20357 -0.00948746 0)
(1.20278 -0.00677762 0)
(1.20225 -0.0040624 0)
(1.20199 -0.00135924 0)
(1.27086 -0.0595105 0)
(1.29898 -0.0605935 0)
(1.30456 -0.0610323 0)
(1.30154 -0.0602871 0)
(1.29561 -0.0589459 0)
(1.28874 -0.0573785 0)
(1.28166 -0.055668 0)
(1.27475 -0.0538319 0)
(1.26819 -0.0518911 0)
(1.26205 -0.0498633 0)
(1.25631 -0.0477598 0)
(1.25095 -0.0455882 0)
(1.24592 -0.0433552 0)
(1.24121 -0.0410674 0)
(1.2368 -0.0387316 0)
(1.23268 -0.0363549 0)
(1.22885 -0.0339435 0)
(1.22531 -0.0315035 0)
(1.22206 -0.0290399 0)
(1.21908 -0.0265573 0)
(1.21639 -0.0240594 0)
(1.21397 -0.0215495 0)
(1.21183 -0.0190302 0)
(1.20996 -0.0165038 0)
(1.20836 -0.013972 0)
(1.20703 -0.0114363 0)
(1.20597 -0.00889739 0)
(1.20517 -0.00635771 0)
(1.20464 -0.003812 0)
(1.20439 -0.00127456 0)
(1.26645 -0.0520218 0)
(1.29747 -0.0533633 0)
(1.30468 -0.0542428 0)
(1.30238 -0.0538495 0)
(1.29677 -0.0528451 0)
(1.29009 -0.0516181 0)
(1.28315 -0.0502464 0)
(1.27635 -0.0487429 0)
(1.26987 -0.0471261 0)
(1.26381 -0.0454123 0)
(1.25814 -0.0436124 0)
(1.25284 -0.0417339 0)
(1.24787 -0.0397829 0)
(1.24321 -0.0377661 0)
(1.23884 -0.0356904 0)
(1.23476 -0.0335631 0)
(1.23096 -0.0313909 0)
(1.22745 -0.0291801 0)
(1.22422 -0.0269367 0)
(1.22126 -0.0246656 0)
(1.21858 -0.0223714 0)
(1.21618 -0.0200582 0)
(1.21405 -0.0177292 0)
(1.21219 -0.0153874 0)
(1.21059 -0.0130355 0)
(1.20927 -0.0106755 0)
(1.20821 -0.00830907 0)
(1.20742 -0.00593904 0)
(1.20689 -0.00356213 0)
(1.20663 -0.0011904 0)
(1.26199 -0.0446267 0)
(1.29562 -0.0461871 0)
(1.30442 -0.0475206 0)
(1.30286 -0.04749 0)
(1.29759 -0.0468307 0)
(1.2911 -0.0459476 0)
(1.2843 -0.0449137 0)
(1.27762 -0.0437393 0)
(1.27125 -0.0424414 0)
(1.26527 -0.0410359 0)
(1.25968 -0.0395334 0)
(1.25446 -0.0379414 0)
(1.24956 -0.0362659 0)
(1.24496 -0.0345137 0)
(1.24064 -0.0326922 0)
(1.23661 -0.0308086 0)
(1.23286 -0.0288704 0)
(1.22938 -0.0268843 0)
(1.22618 -0.0248568 0)
(1.22325 -0.0227937 0)
(1.2206 -0.0207 0)
(1.21821 -0.0185805 0)
(1.2161 -0.0164393 0)
(1.21425 -0.0142801 0)
(1.21266 -0.0121062 0)
(1.21135 -0.00992028 0)
(1.21029 -0.00772493 0)
(1.2095 -0.00552331 0)
(1.20898 -0.00331387 0)
(1.20873 -0.00110701 0)
(1.25749 -0.0373015 0)
(1.29348 -0.0390477 0)
(1.30381 -0.0408616 0)
(1.303 -0.041205 0)
(1.29808 -0.0409021 0)
(1.29179 -0.0403705 0)
(1.28514 -0.0396768 0)
(1.27859 -0.0388298 0)
(1.27233 -0.0378467 0)
(1.26645 -0.0367441 0)
(1.26096 -0.0355331 0)
(1.25582 -0.0342209 0)
(1.25099 -0.0328142 0)
(1.24647 -0.0313201 0)
(1.24222 -0.0297462 0)
(1.23825 -0.0281004 0)
(1.23454 -0.0263905 0)
(1.23111 -0.0246239 0)
(1.22795 -0.0228076 0)
(1.22506 -0.020948 0)
(1.22243 -0.019051 0)
(1.22007 -0.0171218 0)
(1.21797 -0.0151653 0)
(1.21614 -0.0131859 0)
(1.21457 -0.0111874 0)
(1.21327 -0.00917344 0)
(1.21222 -0.00714709 0)
(1.21144 -0.00511201 0)
(1.21092 -0.00306812 0)
(1.21067 -0.00102466 0)
(1.25297 -0.0300584 0)
(1.29103 -0.0319514 0)
(1.30286 -0.0342813 0)
(1.3028 -0.0349997 0)
(1.29824 -0.0350635 0)
(1.29217 -0.0348932 0)
(1.28569 -0.0345435 0)
(1.27927 -0.0340225 0)
(1.27313 -0.0333506 0)
(1.26737 -0.032546 0)
(1.26198 -0.0316203 0)
(1.25693 -0.0305815 0)
(1.2522 -0.0294367 0)
(1.24775 -0.0281938 0)
(1.24358 -0.0268608 0)
(1.23967 -0.0254462 0)
(1.23603 -0.0239585 0)
(1.23265 -0.0224057 0)
(1.22953 -0.0207953 0)
(1.22668 -0.0191344 0)
(1.22409 -0.0174295 0)
(1.22176 -0.0156867 0)
(1.21969 -0.0139113 0)
(1.21788 -0.0121082 0)
(1.21633 -0.0102822 0)
(1.21504 -0.00843735 0)
(1.214 -0.00657739 0)
(1.21323 -0.00470646 0)
(1.21271 -0.00282571 0)
(1.21246 -0.000943543 0)
(1.2484 -0.022876 0)
(1.28826 -0.0249043 0)
(1.30155 -0.0278011 0)
(1.30224 -0.02888 0)
(1.29807 -0.0293244 0)
(1.29223 -0.0295274 0)
(1.28594 -0.029524 0)
(1.27967 -0.0293269 0)
(1.27367 -0.0289624 0)
(1.26802 -0.0284509 0)
(1.26275 -0.0278045 0)
(1.25781 -0.027032 0)
(1.25317 -0.0261419 0)
(1.24881 -0.0251427 0)
(1.24472 -0.0240434 0)
(1.24089 -0.0228532 0)
(1.23732 -0.021581 0)
(1.234 -0.0202357 0)
(1.23094 -0.0188255 0)
(1.22813 -0.017358 0)
(1.22558 -0.0158404 0)
(1.22328 -0.0142793 0)
(1.22124 -0.0126807 0)
(1.21945 -0.0110503 0)
(1.21793 -0.00939321 0)
(1.21665 -0.00771416 0)
(1.21563 -0.00601752 0)
(1.21487 -0.00430785 0)
(1.21436 -0.00258734 0)
(1.21411 -0.00086388 0)
(1.24376 -0.0158091 0)
(1.28517 -0.0179395 0)
(1.29989 -0.0214528 0)
(1.30131 -0.0228584 0)
(1.29755 -0.0237062 0)
(1.29199 -0.0242914 0)
(1.28588 -0.0246326 0)
(1.27978 -0.0247552 0)
(1.27393 -0.0246936 0)
(1.26842 -0.0244694 0)
(1.26327 -0.0240953 0)
(1.25845 -0.0235817 0)
(1.25392 -0.0229383 0)
(1.24967 -0.022175 0)
(1.24567 -0.0213016 0)
(1.24192 -0.0203282 0)
(1.23842 -0.0192646 0)
(1.23516 -0.01812 0)
(1.23216 -0.0169036 0)
(1.2294 -0.0156237 0)
(1.2269 -0.0142879 0)
(1.22464 -0.0129035 0)
(1.22263 -0.0114772 0)
(1.22088 -0.0100151 0)
(1.21937 -0.0085229 0)
(1.21812 -0.00700592 0)
(1.21711 -0.00546905 0)
(1.21636 -0.00391728 0)
(1.21586 -0.00235371 0)
(1.21561 -0.000785862 0)
(1.23896 -0.00885812 0)
(1.28176 -0.0111009 0)
(1.29785 -0.0152717 0)
(1.29998 -0.016947 0)
(1.29668 -0.0182358 0)
(1.29142 -0.0192078 0)
(1.28553 -0.0198847 0)
(1.27962 -0.0203214 0)
(1.27393 -0.0205575 0)
(1.26857 -0.0206137 0)
(1.26356 -0.0205038 0)
(1.25887 -0.0202403 0)
(1.25446 -0.019835 0)
(1.25031 -0.0192989 0)
(1.24641 -0.0186431 0)
(1.24275 -0.0178783 0)
(1.23933 -0.0170154 0)
(1.23615 -0.0160644 0)
(1.23321 -0.0150349 0)
(1.23052 -0.0139361 0)
(1.22806 -0.0127762 0)
(1.22585 -0.0115631 0)
(1.22388 -0.0103039 0)
(1.22215 -0.00900531 0)
(1.22067 -0.00767358 0)
(1.21944 -0.00631449 0)
(1.21845 -0.00493342 0)
(1.21771 -0.00353577 0)
(1.21722 -0.00212542 0)
(1.21697 -0.000709677 0)
(1.23391 -0.00215278 0)
(1.27808 -0.00447707 0)
(1.29541 -0.00926752 0)
(1.29826 -0.0111816 0)
(1.29548 -0.0129548 0)
(1.29053 -0.0142953 0)
(1.28488 -0.0152973 0)
(1.27917 -0.0160426 0)
(1.27367 -0.0165693 0)
(1.26848 -0.0168967 0)
(1.26362 -0.0170412 0)
(1.25906 -0.0170181 0)
(1.25478 -0.0168411 0)
(1.25076 -0.0165226 0)
(1.24696 -0.016075 0)
(1.24341 -0.0155101 0)
(1.24007 -0.0148394 0)
(1.23697 -0.014074 0)
(1.2341 -0.0132242 0)
(1.23147 -0.0122996 0)
(1.22907 -0.0113093 0)
(1.2269 -0.0102614 0)
(1.22497 -0.00916374 0)
(1.22328 -0.0080235 0)
(1.22183 -0.00684737 0)
(1.22062 -0.00564158 0)
(1.21965 -0.00441196 0)
(1.21892 -0.00316427 0)
(1.21844 -0.00190306 0)
(1.2182 -0.000635502 0)
(1.22866 0.00446959 0)
(1.2742 0.00184001 0)
(1.29254 -0.00344162 0)
(1.29616 -0.00561093 0)
(1.29393 -0.00789401 0)
(1.28932 -0.00956995 0)
(1.28393 -0.0108894 0)
(1.27845 -0.0119376 0)
(1.27316 -0.0127448 0)
(1.26815 -0.0133317 0)
(1.26345 -0.0137191 0)
(1.25905 -0.0139252 0)
(1.25491 -0.0139655 0)
(1.25101 -0.0138541 0)
(1.24734 -0.0136045 0)
(1.24388 -0.0132298 0)
(1.24065 -0.0127424 0)
(1.23763 -0.0121541 0)
(1.23484 -0.0114759 0)
(1.23226 -0.0107182 0)
(1.22992 -0.00989043 0)
(1.22781 -0.00900142 0)
(1.22592 -0.00805938 0)
(1.22427 -0.00707192 0)
(1.22285 -0.00604616 0)
(1.22166 -0.00498873 0)
(1.22071 -0.00390585 0)
(1.22 -0.00280362 0)
(1.21952 -0.00168712 0)
(1.21929 -0.000563493 0)
(1.2233 0.0108253 0)
(1.27006 0.00785745 0)
(1.28921 0.00222712 0)
(1.29373 -0.000321928 0)
(1.29205 -0.00307599 0)
(1.28779 -0.00505057 0)
(1.2827 -0.00668536 0)
(1.27748 -0.00802667 0)
(1.2724 -0.00909944 0)
(1.26759 -0.00993204 0)
(1.26308 -0.0105492 0)
(1.25884 -0.0109717 0)
(1.25485 -0.0112169 0)
(1.25109 -0.0113008 0)
(1.24754 -0.0112382 0)
(1.24419 -0.0110432 0)
(1.24106 -0.0107293 0)
(1.23813 -0.010309 0)
(1.23542 -0.00979409 0)
(1.23292 -0.00919535 0)
(1.23063 -0.00852285 0)
(1.22857 -0.00778591 0)
(1.22673 -0.00699314 0)
(1.22512 -0.00615254 0)
(1.22373 -0.00527158 0)
(1.22257 -0.00435726 0)
(1.22164 -0.00341612 0)
(1.22095 -0.00245453 0)
(1.22048 -0.00147804 0)
(1.22025 -0.000493786 0)
(1.21781 0.0168416 0)
(1.26553 0.0135775 0)
(1.28553 0.00764145 0)
(1.29099 0.00463771 0)
(1.28982 0.00150616 0)
(1.28596 -0.000770587 0)
(1.2812 -0.00271562 0)
(1.27626 -0.00432866 0)
(1.27142 -0.00564894 0)
(1.26683 -0.00671085 0)
(1.26251 -0.00754263 0)
(1.25844 -0.00816705 0)
(1.25461 -0.00860359 0)
(1.25099 -0.00886986 0)
(1.24757 -0.00898213 0)
(1.24435 -0.00895568 0)
(1.24132 -0.00880482 0)
(1.23848 -0.00854286 0)
(1.23585 -0.00818214 0)
(1.23343 -0.00773407 0)
(1.23121 -0.00720917 0)
(1.2292 -0.00661714 0)
(1.22741 -0.00596698 0)
(1.22584 -0.00526702 0)
(1.22449 -0.00452503 0)
(1.22336 -0.00374829 0)
(1.22245 -0.00294361 0)
(1.22177 -0.00211761 0)
(1.22132 -0.0012762 0)
(1.22109 -0.000426498 0)
(1.21214 0.0224916 0)
(1.26061 0.0189444 0)
(1.28155 0.0127091 0)
(1.28789 0.00925822 0)
(1.28728 0.00581444 0)
(1.28387 0.00323339 0)
(1.27946 0.0010019 0)
(1.27481 -0.000861381 0)
(1.27023 -0.00240733 0)
(1.26587 -0.00368126 0)
(1.26175 -0.00471026 0)
(1.25788 -0.00552017 0)
(1.25421 -0.00613286 0)
(1.25074 -0.0065675 0)
(1.24746 -0.00684168 0)
(1.24436 -0.00697173 0)
(1.24144 -0.00697282 0)
(1.2387 -0.00685894 0)
(1.23615 -0.00664302 0)
(1.2338 -0.00633692 0)
(1.23165 -0.00595156 0)
(1.2297 -0.005497 0)
(1.22796 -0.00498252 0)
(1.22643 -0.00441672 0)
(1.22512 -0.00380762 0)
(1.22402 -0.00316271 0)
(1.22313 -0.00248903 0)
(1.22247 -0.00179335 0)
(1.22203 -0.00108188 0)
(1.22181 -0.000361722 0)
(1.20624 0.0277252 0)
(1.25538 0.0238869 0)
(1.27727 0.0173729 0)
(1.28445 0.0135186 0)
(1.28445 0.00980124 0)
(1.28152 0.00693148 0)
(1.27749 0.00445002 0)
(1.27315 0.00236182 0)
(1.26885 0.000608197 0)
(1.26473 -0.000855493 0)
(1.26083 -0.00206133 0)
(1.25715 -0.00303917 0)
(1.25366 -0.00381143 0)
(1.25035 -0.00439921 0)
(1.24721 -0.00482138 0)
(1.24423 -0.00509519 0)
(1.24142 -0.00523655 0)
(1.23879 -0.00526005 0)
(1.23633 -0.00517908 0)
(1.23406 -0.0050059 0)
(1.23197 -0.00475174 0)
(1.23009 -0.00442694 0)
(1.2284 -0.00404099 0)
(1.22691 -0.00360268 0)
(1.22563 -0.00312021 0)
(1.22456 -0.00260122 0)
(1.2237 -0.00205289 0)
(1.22305 -0.00148211 0)
(1.22262 -0.00089531 0)
(1.22241 -0.000299526 0)
(1.20013 0.0324781 0)
(1.24986 0.0283431 0)
(1.2727 0.0215922 0)
(1.28072 0.017386 0)
(1.28137 0.0134286 0)
(1.27894 0.0103032 0)
(1.27531 0.00760534 0)
(1.27131 0.00532106 0)
(1.2673 0.00338738 0)
(1.26344 0.00175739 0)
(1.25976 0.000394635 0)
(1.25628 -0.000730802 0)
(1.25297 -0.00164454 0)
(1.24982 -0.00236945 0)
(1.24683 -0.00292487 0)
(1.24398 -0.00332905 0)
(1.24129 -0.00359846 0)
(1.23875 -0.00374818 0)
(1.23639 -0.00379198 0)
(1.23419 -0.0037424 0)
(1.23218 -0.00361089 0)
(1.23035 -0.00340794 0)
(1.22872 -0.00314321 0)
(1.22727 -0.00282559 0)
(1.22603 -0.00246336 0)
(1.22499 -0.00206426 0)
(1.22415 -0.00163553 0)
(1.22352 -0.00118415 0)
(1.22311 -0.000716626 0)
(1.2229 -0.000239958 0)
(1.19382 0.0366883 0)
(1.24411 0.0322637 0)
(1.26789 0.0253284 0)
(1.27675 0.0208248 0)
(1.27808 0.0166664 0)
(1.27617 0.0133275 0)
(1.27296 0.0104498 0)
(1.26931 0.0080024 0)
(1.2656 0.00591846 0)
(1.26201 0.00414794 0)
(1.25857 0.0026524 0)
(1.25529 0.00140013 0)
(1.25217 0.000363099 0)
(1.24918 -0.000481505 0)
(1.24633 -0.00115459 0)
(1.24362 -0.00167523 0)
(1.24104 -0.00206007 0)
(1.23861 -0.00232457 0)
(1.23634 -0.00248273 0)
(1.23422 -0.00254723 0)
(1.23228 -0.00252964 0)
(1.23051 -0.00244053 0)
(1.22893 -0.0022896 0)
(1.22753 -0.00208577 0)
(1.22633 -0.00183734 0)
(1.22531 -0.00155204 0)
(1.2245 -0.00123713 0)
(1.22389 -0.000899556 0)
(1.22348 -0.0005459 0)
(1.22328 -0.000183037 0)
(1.18732 0.0403018 0)
(1.23817 0.0356063 0)
(1.26286 0.0285453 0)
(1.27258 0.0238037 0)
(1.27461 0.0194908 0)
(1.27324 0.0159864 0)
(1.27046 0.0129696 0)
(1.26718 0.010395 0)
(1.26379 0.00819267 0)
(1.26046 0.00631005 0)
(1.25726 0.00470695 0)
(1.2542 0.00334972 0)
(1.25126 0.00220975 0)
(1.24844 0.00126317 0)
(1.24574 0.000487907 0)
(1.24315 -0.000134754 0)
(1.24069 -0.000621941 0)
(1.23837 -0.000989581 0)
(1.23618 -0.00125152 0)
(1.23415 -0.00142047 0)
(1.23228 -0.00150802 0)
(1.23057 -0.00152471 0)
(1.22904 -0.00148015 0)
(1.22769 -0.00138321 0)
(1.22652 -0.00124212 0)
(1.22554 -0.00106453 0)
(1.22475 -0.000857642 0)
(1.22416 -0.000628325 0)
(1.22376 -0.000383121 0)
(1.22356 -0.000128758 0)
(1.18068 0.0432724 -1.05717e-11)
(1.23208 0.038335 -1.02634e-11)
(1.25769 0.0312138 0)
(1.26827 0.0262994 -9.7471e-12)
(1.27101 0.0218847 -9.50731e-12)
(1.2702 0.0182662 -2.67508e-28)
(1.26787 0.0151544 9.06694e-12)
(1.26496 0.0124914 8.86486e-12)
(1.26188 0.0102046 0)
(1.25883 0.00823991 0)
(1.25587 0.00655555 0)
(1.25301 0.00511677 0)
(1.25026 0.0038945 0)
(1.24761 0.00286395 0)
(1.24506 0.00200308 0)
(1.2426 0.00129298 0)
(1.24026 0.000716302 0)
(1.23804 0.00025731 0)
(1.23594 -9.77804e-05 0)
(1.23399 -0.000361569 0)
(1.23219 -0.000545515 7.10797e-12)
(1.23054 -0.000659961 1.40673e-11)
(1.22906 -0.000714389 6.96767e-12)
(1.22775 -0.000717503 0)
(1.22662 -0.000677354 -6.86064e-12)
(1.22567 -0.000601457 -6.81954e-12)
(1.2249 -0.000496862 0)
(1.22432 -0.000370298 -6.76205e-12)
(1.22394 -0.000228197 -6.74564e-12)
(1.22375 -7.70904e-05 -1.94261e-28)
(1.17394 0.0455638 1.05718e-11)
(1.2259 0.0404232 1.02634e-11)
(1.25243 0.0333132 0)
(1.26388 0.0282964 9.7471e-12)
(1.26734 0.0238369 9.50731e-12)
(1.26709 0.020159 2.67508e-28)
(1.26521 0.0169987 -9.06694e-12)
(1.26267 0.014288 -8.86486e-12)
(1.25991 0.0119524 0)
(1.25713 0.00993668 0)
(1.25441 0.00819826 0)
(1.25177 0.00670193 0)
(1.2492 0.00541831 0)
(1.24672 0.00432237 0)
(1.24431 0.00339243 0)
(1.24198 0.00260946 0)
(1.23975 0.00195629 0)
(1.23763 0.00141763 0)
(1.23562 0.000979905 0)
(1.23374 0.000630779 0)
(1.23201 0.000359098 -7.10797e-12)
(1.23042 0.000154763 -1.40673e-11)
(1.22899 8.57321e-06 -6.96767e-12)
(1.22772 -8.78743e-05 0)
(1.22662 -0.000142399 6.86064e-12)
(1.2257 -0.000162297 6.81954e-12)
(1.22496 -0.000154389 0)
(1.2244 -0.000125194 6.76205e-12)
(1.22403 -8.09619e-05 6.74564e-12)
(1.22384 -2.79773e-05 1.94261e-28)
(1.16716 0.0471511 0)
(1.21969 0.0418556 0)
(1.24714 0.0348324 0)
(1.25945 0.0297868 0)
(1.26364 0.025343 0)
(1.26395 0.0216624 0)
(1.26252 0.0185022 0)
(1.26035 0.0157858 0)
(1.25791 0.013438 0)
(1.25541 0.0114029 0)
(1.25292 0.00963802 0)
(1.25048 0.00810825 0)
(1.24809 0.00678435 0)
(1.24576 0.00564165 0)
(1.2435 0.00465893 0)
(1.24129 0.0038175 0)
(1.23917 0.00310073 0)
(1.23715 0.0024939 0)
(1.23522 0.00198384 0)
(1.23342 0.00155863 0)
(1.23175 0.00120757 0)
(1.23022 0.000920994 0)
(1.22884 0.000690105 0)
(1.22761 0.00050684 0)
(1.22655 0.000363698 0)
(1.22565 0.000253716 0)
(1.22493 0.000170365 0)
(1.22439 0.000107404 0)
(1.22403 5.88325e-05 0)
(1.22385 1.86648e-05 0)
(1.16039 0.0480234 0)
(1.21353 0.0426292 0)
(1.24189 0.0357709 0)
(1.25507 0.0307717 0)
(1.25996 0.0264064 0)
(1.26084 0.022781 0)
(1.25985 0.0196703 0)
(1.25805 0.0169908 0)
(1.25591 0.0146673 0)
(1.25367 0.0126445 0)
(1.25141 0.0108807 0)
(1.24917 0.00934136 0)
(1.24695 0.00799799 0)
(1.24478 0.00682674 0)
(1.24264 0.00580717 0)
(1.24056 0.00492137 0)
(1.23854 0.00415352 0)
(1.23661 0.00348962 0)
(1.23477 0.00291709 0)
(1.23304 0.00242468 0)
(1.23143 0.00200232 0)
(1.22995 0.00164086 0)
(1.22861 0.00133202 0)
(1.22742 0.00106815 0)
(1.22639 0.000842193 0)
(1.22553 0.00064759 0)
(1.22483 0.000478168 0)
(1.2243 0.000328034 0)
(1.22395 0.000191505 0)
(1.22377 6.29416e-05 0)
(1.1537 0.0481846 0)
(1.20748 0.0427554 0)
(1.23674 0.0361397 0)
(1.25078 0.0312626 0)
(1.25638 0.0270387 0)
(1.2578 0.0235264 0)
(1.25724 0.020514 0)
(1.25579 0.0179135 0)
(1.25395 0.0156504 0)
(1.25195 0.0136712 0)
(1.2499 0.0119353 0)
(1.24785 0.0104095 0)
(1.2458 0.00906677 0)
(1.24376 0.00788448 0)
(1.24176 0.00684339 0)
(1.23978 0.00592671 0)
(1.23787 0.00511967 0)
(1.23602 0.00440919 0)
(1.23425 0.00378357 0)
(1.23259 0.00323242 0)
(1.23104 0.00274638 0)
(1.22961 0.00231699 0)
(1.22831 0.00193652 0)
(1.22716 0.00159791 0)
(1.22616 0.00129462 0)
(1.22532 0.00102055 0)
(1.22464 0.000769953 0)
(1.22413 0.000537354 0)
(1.22379 0.000317445 0)
(1.22362 0.000104982 0)
(1.14717 0.047655 0)
(1.20161 0.0422596 0)
(1.23178 0.035962 0)
(1.24666 0.0312807 0)
(1.25294 0.0272605 0)
(1.25488 0.0239173 0)
(1.25473 0.0210506 0)
(1.25361 0.0185697 0)
(1.25204 0.0164019 0)
(1.25028 0.014496 0)
(1.24843 0.0128136 0)
(1.24655 0.0113235 0)
(1.24465 0.0100004 0)
(1.24275 0.00882363 0)
(1.24085 0.00777542 0)
(1.23898 0.00684046 0)
(1.23716 0.00600529 0)
(1.23539 0.00525802 0)
(1.23369 0.00458808 0)
(1.23209 0.00398603 0)
(1.23059 0.00344338 0)
(1.22921 0.00295244 0)
(1.22795 0.00250623 0)
(1.22684 0.00209833 0)
(1.22587 0.00172278 0)
(1.22505 0.00137402 0)
(1.22439 0.00104682 0)
(1.22389 0.000736139 0)
(1.22355 0.000437113 0)
(1.22339 0.000144938 0)
(1.14086 0.04647 0)
(1.196 0.0411811 0)
(1.22706 0.0352725 0)
(1.24275 0.0308576 0)
(1.24969 0.0271002 0)
(1.25212 0.0239795 0)
(1.25236 0.0213034 0)
(1.25154 0.0189802 0)
(1.25023 0.0169404 0)
(1.24867 0.0151357 0)
(1.24701 0.0135306 0)
(1.24528 0.0120966 0)
(1.24352 0.0108108 0)
(1.24173 0.00965471 0)
(1.23994 0.00861257 0)
(1.23817 0.00767082 0)
(1.23642 0.00681761 0)
(1.23472 0.00604249 0)
(1.23309 0.00533615 0)
(1.23154 0.00469028 0)
(1.23009 0.00409741 0)
(1.22875 0.00355076 0)
(1.22753 0.00304416 0)
(1.22645 0.00257192 0)
(1.2255 0.00212874 0)
(1.2247 0.00170966 0)
(1.22406 0.00131001 0)
(1.22357 0.000925262 0)
(1.22325 0.000551025 0)
(1.22308 0.000182982 0)
(1.13485 0.0446783 0)
(1.19071 0.0395711 0)
(1.22265 0.0341166 0)
(1.23913 0.0300341 0)
(1.24669 0.0265949 0)
(1.24958 0.0237455 0)
(1.25016 0.0213011 0)
(1.24962 0.0191708 0)
(1.24853 0.0172886 0)
(1.24716 0.0156105 0)
(1.24565 0.0141043 0)
(1.24406 0.0127446 0)
(1.24242 0.0115118 0)
(1.24074 0.0103899 0)
(1.23904 0.00936556 0)
(1.23734 0.0084272 0)
(1.23567 0.00756488 0)
(1.23403 0.00676976 0)
(1.23246 0.006034 0)
(1.23096 0.00535056 0)
(1.22955 0.0047131 0)
(1.22825 0.00411589 0)
(1.22706 0.00355363 0)
(1.226 0.00302144 0)
(1.22508 0.00251475 0)
(1.2243 0.00202927 0)
(1.22367 0.0015609 0)
(1.22319 0.00110568 0)
(1.22287 0.000659753 0)
(1.22271 0.000219304 0)
(1.12922 0.0423423 0)
(1.1858 0.0374925 0)
(1.21861 0.0325491 0)
(1.23584 0.0288598 0)
(1.24397 0.0257889 0)
(1.24729 0.0232544 0)
(1.24818 0.0210781 0)
(1.24788 0.0191715 0)
(1.24697 0.0174733 0)
(1.24576 0.0159438 0)
(1.24439 0.014555 0)
(1.24291 0.0132855 0)
(1.24136 0.0121192 0)
(1.23977 0.0110431 0)
(1.23815 0.0100464 0)
(1.23652 0.00912009 0)
(1.23491 0.0082562 0)
(1.23332 0.00744773 0)
(1.23179 0.00668845 0)
(1.23034 0.00597274 0)
(1.22896 0.00529552 0)
(1.22769 0.00465213 0)
(1.22653 0.00403827 0)
(1.2255 0.00344991 0)
(1.2246 0.00288329 0)
(1.22383 0.00233478 0)
(1.22322 0.00180096 0)
(1.22275 0.00127844 0)
(1.22244 0.00076391 0)
(1.22228 0.000254106 0)
(1.12402 0.0395359 0)
(1.18134 0.0350174 0)
(1.21499 0.0306345 0)
(1.23293 0.0273925 0)
(1.24159 0.0247335 0)
(1.24528 0.0225512 0)
(1.24643 0.0206739 0)
(1.24633 0.0190171 0)
(1.24558 0.0175245 0)
(1.24449 0.0161617 0)
(1.24322 0.0149056 0)
(1.24183 0.0137393 0)
(1.24037 0.0126504 0)
(1.23884 0.0116293 0)
(1.23728 0.0106683 0)
(1.23571 0.0097609 0)
(1.23414 0.00890145 0)
(1.2326 0.00808494 0)
(1.23111 0.00730687 0)
(1.22968 0.00656315 0)
(1.22834 0.00585004 0)
(1.2271 0.00516405 0)
(1.22596 0.00450191 0)
(1.22495 0.00386053 0)
(1.22406 0.00323694 0)
(1.22331 0.00262828 0)
(1.2227 0.00203175 0)
(1.22225 0.00144463 0)
(1.22194 0.000864145 0)
(1.22179 0.000287604 0)
(1.11931 0.0363431 0)
(1.17738 0.0322289 0)
(1.21184 0.0284446 0)
(1.23043 0.0256976 0)
(1.23957 0.0234866 0)
(1.24357 0.0216859 0)
(1.24495 0.0201322 0)
(1.24499 0.0187454 0)
(1.24436 0.0174752 0)
(1.24337 0.0162931 0)
(1.24217 0.0151812 0)
(1.24085 0.0141276 0)
(1.23943 0.013124 0)
(1.23796 0.0121648 0)
(1.23644 0.0112452 0)
(1.23491 0.0103618 0)
(1.23337 0.00951111 0)
(1.23187 0.00869041 0)
(1.2304 0.00789701 0)
(1.229 0.00712843 0)
(1.22769 0.00638233 0)
(1.22646 0.00565644 0)
(1.22534 0.00494859 0)
(1.22434 0.00425663 0)
(1.22347 0.00357843 0)
(1.22273 0.00291189 0)
(1.22214 0.00225491 0)
(1.22168 0.00160538 0)
(1.22138 0.000961128 0)
(1.22123 0.00032002 0)
(1.11516 0.0328548 0)
(1.17398 0.0292129 0)
(1.20919 0.0260628 0)
(1.22839 0.0238481 0)
(1.23794 0.0221111 0)
(1.24221 0.0207135 0)
(1.24374 0.0195005 0)
(1.24389 0.0183977 0)
(1.24333 0.0173612 0)
(1.24239 0.0163687 0)
(1.24124 0.0154083 0)
(1.23995 0.0144733 0)
(1.23857 0.01356 0)
(1.23712 0.0126667 0)
(1.23563 0.011792 0)
(1.23412 0.0109354 0)
(1.23261 0.0100961 0)
(1.23113 0.00927352 0)
(1.22968 0.0084669 0)
(1.2283 0.00767542 0)
(1.227 0.00689819 0)
(1.22579 0.00613422 0)
(1.22468 0.00538241 0)
(1.2237 0.00464159 0)
(1.22283 0.0039105 0)
(1.2221 0.0031878 0)
(1.22151 0.00247208 0)
(1.22106 0.00176185 0)
(1.22077 0.00105554 0)
(1.22062 0.00035158 0)
(1.11161 0.0291717 0)
(1.17117 0.0260624 0)
(1.20708 0.0235801 0)
(1.22681 0.0219224 0)
(1.23671 0.0206747 0)
(1.24118 0.0196922 0)
(1.24283 0.0188294 0)
(1.24303 0.0180175 0)
(1.2425 0.0172198 0)
(1.24158 0.0164208 0)
(1.24043 0.0156147 0)
(1.23915 0.0148004 0)
(1.23778 0.0139789 0)
(1.23634 0.0131526 0)
(1.23486 0.0123237 0)
(1.23336 0.0114948 0)
(1.23186 0.0106676 0)
(1.23038 0.00984381 0)
(1.22894 0.00902468 0)
(1.22757 0.00821107 0)
(1.22628 0.00740353 0)
(1.22508 0.00660234 0)
(1.22398 0.00580752 0)
(1.223 0.00501886 0)
(1.22214 0.00423595 0)
(1.22142 0.00345821 0)
(1.22083 0.00268492 0)
(1.22039 0.00191521 0)
(1.22009 0.00114808 0)
(1.21994 0.00038251 0)
(1.10872 0.0254052 0)
(1.16897 0.0228808 0)
(1.20552 0.0210893 0)
(1.22572 0.0200012 0)
(1.2359 0.0192477 0)
(1.24051 0.018683 0)
(1.2422 0.0181713 0)
(1.24241 0.0176499 0)
(1.24187 0.0170897 0)
(1.24092 0.0164824 0)
(1.23975 0.0158288 0)
(1.23845 0.0151331 0)
(1.23706 0.0144015 0)
(1.23561 0.0136404 0)
(1.23412 0.0128557 0)
(1.23261 0.012053 0)
(1.2311 0.0112367 0)
(1.22962 0.0104108 0)
(1.22819 0.00957848 0)
(1.22682 0.00874226 0)
(1.22553 0.00790416 0)
(1.22433 0.0070657 0)
(1.22324 0.006228 0)
(1.22226 0.00539178 0)
(1.22141 0.00455749 0)
(1.22069 0.00372526 0)
(1.2201 0.00289504 0)
(1.21966 0.00206657 0)
(1.21937 0.00123939 0)
(1.21922 0.000413033 0)
(1.10653 0.0216712 0)
(1.1674 0.0197779 0)
(1.20452 0.0186852 0)
(1.22512 0.0181675 0)
(1.23551 0.017902 0)
(1.24019 0.0177483 0)
(1.24187 0.0175796 0)
(1.24203 0.0173406 0)
(1.24143 0.0170101 0)
(1.24042 0.0165871 0)
(1.2392 0.016079 0)
(1.23785 0.0154959 0)
(1.23641 0.0148486 0)
(1.23493 0.0141479 0)
(1.23341 0.0134031 0)
(1.23188 0.0126229 0)
(1.23035 0.0118145 0)
(1.22886 0.0109839 0)
(1.22742 0.0101362 0)
(1.22604 0.00927573 0)
(1.22475 0.00840575 0)
(1.22355 0.00752907 0)
(1.22245 0.00664781 0)
(1.22147 0.00576363 0)
(1.22062 0.00487775 0)
(1.2199 0.00399103 0)
(1.21932 0.00310402 0)
(1.21888 0.00221703 0)
(1.21858 0.00133014 0)
(1.21844 0.000443359 0)
(1.10505 0.0180908 0)
(1.16647 0.0168656 0)
(1.20408 0.0164646 0)
(1.22499 0.0165038 0)
(1.23552 0.0167098 0)
(1.24021 0.0169502 0)
(1.24182 0.0171076 0)
(1.24188 0.0171349 0)
(1.24117 0.0170194 0)
(1.24006 0.0167677 0)
(1.23875 0.0163934 0)
(1.23732 0.0159125 0)
(1.23583 0.0153405 0)
(1.23429 0.0146922 0)
(1.23272 0.0139806 0)
(1.23115 0.0132171 0)
(1.2296 0.0124115 0)
(1.22809 0.011572 0)
(1.22663 0.0107056 0)
(1.22524 0.00981787 0)
(1.22393 0.00891371 0)
(1.22272 0.00799694 0)
(1.22162 0.0070707 0)
(1.22064 0.00613748 0)
(1.21979 0.00519923 0)
(1.21907 0.00425746 0)
(1.21848 0.00331332 0)
(1.21804 0.00236762 0)
(1.21775 0.00142092 0)
(1.2176 0.00047369 0)
(1.10432 0.0147791 0)
(1.16619 0.0142555 0)
(1.20418 0.0145235 0)
(1.22532 0.0150925 0)
(1.23592 0.0157428 0)
(1.24054 0.01635 0)
(1.24203 0.0168072 0)
(1.24194 0.017077 0)
(1.24108 0.0171552 0)
(1.23984 0.0170559 0)
(1.23841 0.0167989 0)
(1.23688 0.0164056 0)
(1.23529 0.0158964 0)
(1.23368 0.0152897 0)
(1.23206 0.0146019 0)
(1.23044 0.0138471 0)
(1.22885 0.0130376 0)
(1.2273 0.0121835 0)
(1.22582 0.0112935 0)
(1.2244 0.0103747 0)
(1.22308 0.00943303 0)