/*--------------------------------*- C++ -*----------------------------------*\
  =========                 |
  \\      /  F ield         | OpenFOAM: The Open Source CFD Toolbox
   \\    /   O peration     | Website:  https://openfoam.org
    \\  /    A nd           | Version:  7
     \\/     M anipulation  |
\*---------------------------------------------------------------------------*/
FoamFile
{
    version     2.0;
    format      ascii;
    class       volScalarField;
    location    "90";
    object      p;
}
// * * * * * * * * * * * * * * * * * * * * * * * * * * * * * * * * * * * * * //

dimensions      [0 2 -2 0 0 0 0];

internalField   nonuniform List<scalar> 
3500
(
-0.228335
-0.231943
0.633577
0.597881
0.558353
0.633607
0.59791
0.55838
0.511788
0.466088
0.423074
0.383895
0.348788
0.317741
0.290396
0.616761
0.58403
0.547193
0.502708
0.458646
0.416908
0.378699
0.34433
0.313969
0.28748
0.583632
0.556662
0.525121
0.484777
0.443935
0.40471
0.368415
0.335501
0.306469
0.28161
0.535379
0.516628
0.492812
0.458495
0.42234
0.386785
0.353298
0.322511
0.295373
0.27278
0.473669
0.465149
0.451234
0.424602
0.394432
0.363591
0.333736
0.305676
0.280875
0.261028
0.400525
0.403901
0.401653
0.384044
0.360931
0.335683
0.31018
0.285366
0.263221
0.246458
0.318093
0.335057
0.345556
0.33793
0.32268
0.303727
0.283216
0.262132
0.242803
0.229243
0.229201
0.260773
0.284527
0.287503
0.280658
0.268491
0.253471
0.236509
0.219954
0.209461
0.137084
0.183259
0.22021
0.234058
0.235861
0.230696
0.221494
0.209143
0.195494
0.187423
0.0450864
0.104749
0.154292
0.178935
0.189363
0.191214
0.187991
0.180774
0.170463
0.162799
-0.0434344
0.0273493
0.0884739
0.123452
0.142218
0.150855
0.153385
0.15146
0.145666
0.137016
-0.125352
-0.0473186
0.0244237
0.0688573
0.0954225
0.110469
0.118371
0.121559
0.120989
0.116171
-0.197166
-0.117994
-0.0362968
0.0162555
0.0499008
0.0708616
0.0836849
0.0914743
0.0959012
0.0956211
-0.258413
-0.181013
-0.0925612
-0.0333448
0.00648745
0.0326884
0.0498943
0.0614808
0.0698218
0.0736064
-0.308547
-0.234218
-0.143638
-0.0789502
-0.0341056
-0.00353649
0.0174539
0.0320411
0.0432481
0.0503832
-0.347133
-0.277725
-0.18814
-0.119886
-0.071334
-0.0373701
-0.0132234
0.00374147
0.0170472
0.0269476
-0.374401
-0.311494
-0.225059
-0.155898
-0.105039
-0.0684131
-0.0418373
-0.0228959
-0.00810282
0.00403241
-0.391287
-0.3354
-0.254311
-0.186447
-0.134837
-0.0966627
-0.0683441
-0.0475442
-0.0316971
-0.01816
-0.399145
-0.34957
-0.276125
-0.211408
-0.160459
-0.121808
-0.0924979
-0.0703654
-0.0534965
-0.0396307
-0.399368
-0.354522
-0.290824
-0.230989
-0.181938
-0.143726
-0.114162
-0.0913261
-0.073701
-0.0593005
-0.393124
-0.351318
-0.298928
-0.245553
-0.199484
-0.16252
-0.133368
-0.110378
-0.0922823
-0.0771579
-0.381391
-0.341883
-0.301311
-0.255526
-0.213362
-0.178422
-0.150272
-0.127566
-0.109334
-0.0937635
-0.365294
-0.328871
-0.299152
-0.2613
-0.223888
-0.19173
-0.16512
-0.143082
-0.125017
-0.109511
-0.346504
-0.315172
-0.293334
-0.263276
-0.23144
-0.202785
-0.178196
-0.157162
-0.139528
-0.124438
-0.327194
-0.302446
-0.28497
-0.26215
-0.236479
-0.2119
-0.18978
-0.170084
-0.152985
-0.138538
-0.309395
-0.29087
-0.275947
-0.259063
-0.23949
-0.219369
-0.200082
-0.182077
-0.165691
-0.151796
-0.294272
-0.280392
-0.267974
-0.255269
-0.240999
-0.225377
-0.209291
-0.193346
-0.177783
-0.164564
-0.281855
-0.271353
-0.261526
-0.251685
-0.241527
-0.230147
-0.21738
-0.204041
-0.189644
-0.176855
-0.271877
-0.264012
-0.256357
-0.248745
-0.241574
-0.233797
-0.224456
-0.213955
-0.201269
-0.189684
-0.26394
-0.258234
-0.252286
-0.246522
-0.241497
-0.236493
-0.230303
-0.223125
-0.21229
-0.202989
-0.257577
-0.253702
-0.249185
-0.244943
-0.241496
-0.238453
-0.235053
-0.230124
-0.223489
-0.21737
-0.252365
-0.250034
-0.246784
-0.243877
-0.241678
-0.239797
-0.239253
-0.233936
-0.233691
-0.228161
-0.247938
-0.246867
-0.244751
-0.243041
-0.241945
-0.240627
-0.242915
-0.234491
-0.242566
-0.233847
-0.243968
-0.243923
-0.242837
-0.242147
-0.241993
-0.241114
-0.245075
-0.234784
-0.249127
-0.234366
-0.240254
-0.241115
-0.240869
-0.241005
-0.241603
-0.241203
-0.245489
-0.236509
-0.251105
-0.233835
-0.23677
-0.238443
-0.238837
-0.239592
-0.240591
-0.240999
-0.244798
-0.238149
-0.249416
-0.235285
-0.233621
-0.236001
-0.236852
-0.238015
-0.239301
-0.240436
-0.242784
-0.23975
-0.246652
-0.236938
-0.230999
-0.233955
-0.235112
-0.23653
-0.238029
-0.239488
-0.241021
-0.240332
-0.243364
-0.238303
-0.229127
-0.232497
-0.233844
-0.235412
-0.237041
-0.238592
-0.239854
-0.240159
-0.241265
-0.238581
-0.228202
-0.231795
-0.233239
-0.234887
-0.236586
-0.23817
-0.239383
-0.239958
-0.240356
-0.238496
0.269253
0.25265
0.238031
0.225324
0.21409
0.204244
0.195515
0.187816
0.180969
0.174897
0.169482
0.164659
0.160339
0.156467
0.152991
0.149896
0.147142
0.144696
0.142526
0.140609
0.138921
0.137447
0.136169
0.135076
0.134156
0.1334
0.132801
0.132355
0.132062
0.131918
0.267127
0.250989
0.236655
0.22419
0.213137
0.203448
0.194841
0.187243
0.180475
0.17447
0.169107
0.164327
0.160046
0.156212
0.152769
0.149692
0.14695
0.144515
0.142354
0.140445
0.138765
0.137297
0.136025
0.134937
0.134021
0.133268
0.132671
0.132227
0.131932
0.131787
0.2628
0.24762
0.233883
0.221921
0.21124
0.201867
0.193502
0.186107
0.179498
0.173624
0.168364
0.163672
0.159466
0.155703
0.152318
0.149274
0.146561
0.144151
0.142012
0.140121
0.138456
0.137
0.135739
0.134659
0.133751
0.133005
0.132413
0.131971
0.131674
0.131528
0.256214
0.242519
0.229719
0.218546
0.208434
0.199539
0.191534
0.184439
0.178062
0.17238
0.167273
0.162707
0.158605
0.154937
0.151641
0.148672
0.145998
0.143619
0.141507
0.139641
0.137997
0.13656
0.135314
0.134248
0.133351
0.132615
0.132031
0.131591
0.131293
0.131143
0.24732
0.235651
0.224138
0.214053
0.204712
0.196466
0.188943
0.182249
0.17618
0.170753
0.165846
0.161446
0.157477
0.153923
0.150731
0.147866
0.14526
0.142926
0.140852
0.139016
0.137399
0.135985
0.134758
0.133709
0.132827
0.132104
0.131528
0.131092
0.130792
0.13064
0.236137
0.227056
0.217199
0.208527
0.200163
0.192733
0.185804
0.179602
0.173906
0.168788
0.164123
0.159924
0.156114
0.15269
0.149605
0.146847
0.144363
0.142097
0.140051
0.138255
0.136671
0.135283
0.134081
0.133052
0.132187
0.131477
0.130913
0.130482
0.13018
0.130025
0.222697
0.216737
0.208842
0.201872
0.194679
0.18824
0.182035
0.176435
0.171195
0.166454
0.162083
0.158127
0.154511
0.151245
0.148284
0.145623
0.143232
0.141095
0.139157
0.137385
0.135822
0.134472
0.133296
0.132285
0.131437
0.130744
0.130193
0.129768
0.129464
0.129307
0.206985
0.204717
0.199196
0.194332
0.188557
0.183293
0.177913
0.172988
0.168246
0.163914
0.159857
0.156161
0.152751
0.149657
0.146832
0.144281
0.141972
0.139901
0.138049
0.136405
0.13492
0.133574
0.132387
0.131406
0.130591
0.129917
0.129376
0.128957
0.128655
0.128498
0.189339
0.191154
0.188235
0.185566
0.181329
0.177344
0.17293
0.1688
0.164673
0.160846
0.157187
0.153819
0.150673
0.147797
0.14515
0.142746
0.140555
0.138579
0.136797
0.135206
0.133791
0.13255
0.13147
0.130507
0.12968
0.129
0.12847
0.128062
0.127764
0.12761
0.168752
0.175528
0.175823
0.17617
0.173937
0.171616
0.168261
0.165009
0.161469
0.15813
0.154813
0.15173
0.148793
0.14609
0.143575
0.141282
0.139179
0.137278
0.135556
0.134012
0.132631
0.131416
0.130358
0.129445
0.128669
0.128029
0.127505
0.127096
0.126803
0.126658
0.142642
0.154172
0.159607
0.162129
0.162261
0.161435
0.159653
0.157538
0.155068
0.152551
0.149969
0.147474
0.145048
0.142766
0.140613
0.138621
0.136778
0.135096
0.133562
0.132179
0.130936
0.129835
0.128867
0.128032
0.127327
0.126745
0.126274
0.125911
0.125661
0.125535
0.126695
0.135976
0.143047
0.147205
0.149372
0.150057
0.149758
0.148827
0.147449
0.145834
0.144057
0.142238
0.140407
0.13863
0.136917
0.135301
0.133783
0.13238
0.131088
0.129913
0.128851
0.127902
0.127062
0.126333
0.125714
0.1252
0.124788
0.124476
0.124267
0.124163
0.113525
0.1221
0.129218
0.13415
0.137509
0.139369
0.140241
0.140328
0.139901
0.139103
0.138068
0.136887
0.135625
0.134339
0.133059
0.131817
0.130628
0.129508
0.128463
0.127502
0.126625
0.125835
0.125132
0.124519
0.123993
0.123554
0.123203
0.122939
0.122764
0.122679
0.102049
0.110374
0.117469
0.122841
0.12687
0.129571
0.131323
0.132255
0.132626
0.132549
0.132173
0.131576
0.13084
0.130014
0.129145
0.128263
0.127391
0.126548
0.125747
0.124996
0.124303
0.123673
0.123107
0.122609
0.12218
0.12182
0.121531
0.121314
0.121172
0.121102
0.0921367
0.100221
0.10729
0.112943
0.117395
0.120684
0.12308
0.124684
0.125709
0.12625
0.126448
0.126373
0.126113
0.125714
0.125227
0.124685
0.124116
0.12354
0.122974
0.12243
0.121917
0.121443
0.121012
0.120628
0.120295
0.120014
0.119787
0.119617
0.119505
0.11945
0.0835994
0.0914142
0.098405
0.104205
0.108941
0.112643
0.115515
0.117643
0.119194
0.120254
0.120943
0.121329
0.121492
0.121481
0.121347
0.121121
0.120836
0.120513
0.120173
0.119827
0.119489
0.119166
0.118867
0.118595
0.118356
0.118152
0.117987
0.117862
0.11778
0.117739
0.0762219
0.0837681
0.0906299
0.0964742
0.101386
0.105376
0.108601
0.111132
0.113105
0.114592
0.115697
0.116481
0.117019
0.117355
0.117539
0.117604
0.117583
0.117498
0.117369
0.117212
0.117041
0.116865
0.116692
0.116529
0.116381
0.116252
0.116146
0.116065
0.116011
0.115985
0.0698238
0.0771103
0.0838119
0.0896299
0.0946342
0.0988143
0.102299
0.105137
0.107445
0.10928
0.110734
0.111859
0.112721
0.113364
0.113835
0.114164
0.114384
0.114518
0.114588
0.114609
0.114595
0.114557
0.114505
0.114446
0.114386
0.114329
0.11428
0.114241
0.114215
0.114202
0.0642615
0.071295
0.0778181
0.0835653
0.0885997
0.0928972
0.0965647
0.0996352
0.102206
0.104323
0.106065
0.107478
0.108622
0.109533
0.110257
0.110823
0.111263
0.111598
0.11185
0.112036
0.112169
0.112262
0.112324
0.112363
0.112386
0.112398
0.112403
0.112405
0.112405
0.112405
0.0594175
0.0662033
0.0725371
0.0781849
0.0832055
0.0875659
0.0913571
0.0945986
0.0973728
0.0997158
0.101696
0.10335
0.104733
0.105878
0.106825
0.107601
0.108238
0.108755
0.109174
0.109511
0.109781
0.109996
0.110164
0.110296
0.110397
0.110474
0.11053
0.11057
0.110595
0.110607
0.055193
0.0617372
0.0678766
0.0734065
0.0783822
0.0827654
0.0866344
0.0899982
0.0929276
0.0954492
0.0976222
0.0994777
0.101063
0.102408
0.10355
0.104513
0.105324
0.106005
0.106576
0.107051
0.107447
0.107773
0.108041
0.108258
0.108433
0.10857
0.108674
0.108749
0.108798
0.108821
0.0515035
0.057814
0.0637587
0.0691595
0.0740687
0.0784452
0.0823567
0.0858046
0.0888495
0.0915105
0.0938391
0.0958604
0.0976166
0.0991328
0.100442
0.101568
0.102535
0.103362
0.104068
0.104669
0.105178
0.105607
0.105966
0.106263
0.106505
0.106699
0.106848
0.106956
0.107026
0.10706
0.0482775
0.0543635
0.0601167
0.0653829
0.0702111
0.0745596
0.0784868
0.0819885
0.085117
0.0878852
0.0903377
0.0924945
0.0943928
0.096054
0.097508
0.0987747
0.0998779
0.100834
0.101662
0.102376
0.102988
0.10351
0.103952
0.104321
0.104626
0.104871
0.105062
0.1052
0.105291
0.105334
0.0454537
0.0513261
0.0568939
0.0620238
0.0667622
0.0710674
0.0749902
0.0785225
0.0817089
0.0845578
0.0871076
0.0893742
0.09139
0.0931732
0.0947504
0.0961392
0.097361
0.0984313
0.0993669
0.100181
0.100886
0.101492
0.102009
0.102445
0.102806
0.103099
0.103327
0.103494
0.103602
0.103655
0.0429802
0.0486507
0.0540411
0.0590366
0.0636803
0.0679321
0.0718357
0.0753804
0.0786044
0.0815125
0.0841376
0.0864921
0.0886043
0.0904894
0.092171
0.0936644
0.0949891
0.0961589
0.0971894
0.0980922
0.0988797
0.0995612
0.100146
0.100642
0.101055
0.10139
0.101653
0.101845
0.101971
0.102031
0.0408127
0.0462939
0.0515163
0.0563814
0.0609291
0.065121
0.0689948
0.0725383
0.075784
0.0787339
0.0814161
0.0838403
0.0860308
0.0880003
0.0897698
0.0913525
0.0927657
0.094022
0.0951354
0.0961168
0.0969774
0.0977261
0.0983715
0.0989207
0.09938
0.0997544
0.100048
0.100264
0.100404
0.100473
0.0389137
0.0442184
0.0492833
0.0540239
0.0584764
0.062605
0.066442
0.0699742
0.0732293
0.0762071
0.0789317
0.0814102
0.0836637
0.0857028
0.0875457
0.0892039
0.090693
0.0920239
0.0932096
0.0942597
0.0951848
0.0959928
0.0966921
0.0972892
0.09779
0.0981992
0.0985208
0.0987574
0.0989117
0.0989867
0.037251
0.0423928
0.0473113
0.0519341
0.0562944
0.0603586
0.0641544
0.0676681
0.0709233
0.0739181
0.076673
0.0791933
0.081497
0.0835929
0.0854967
0.0872186
0.0887721
0.0901672
0.0914153
0.0925253
0.0935067
0.0943671
0.0951139
0.0957533
0.096291
0.0967313
0.0970778
0.097333
0.0974996
0.0975805
0.0357976
0.0407898
0.0455733
0.0500862
0.0543586
0.0583591
0.0621115
0.065602
0.0688504
0.0718539
0.0746296
0.0771814
0.0795245
0.0816663
0.0836204
0.0853955
0.0870035
0.0884533
0.0897551
0.0909169
0.0919474
0.0928534
0.093642
0.0943187
0.094889
0.0953567
0.0957252
0.095997
0.0961745
0.0962608
0.0345304
0.0393864
0.0440467
0.0484581
0.0526478
0.0565868
0.0602953
0.0637597
0.0669966
0.0700024
0.0727915
0.0753664
0.0777402
0.0799187
0.081914
0.0837332
0.085387
0.0868832
0.0882308
0.0894372
0.09051
0.0914557
0.0922807
0.0929901
0.0935888
0.0940807
0.0944687
0.094755
0.0949421
0.0950331
0.0334298
0.038163
0.0427118
0.0470306
0.0511437
0.0550245
0.05869
0.062127
0.0653493
0.0683527
0.0711494
0.0737408
0.0761381
0.0783458
0.0803744
0.0822301
0.0839221
0.0854573
0.0868438
0.0880882
0.0891975
0.0901774
0.0910338
0.0917715
0.0923951
0.0929079
0.0933129
0.093612
0.0938075
0.0939025
0.0324794
0.037103
0.0415519
0.0457872
0.0498304
0.053657
0.0572815
0.0606911
0.0638971
0.0668951
0.0696951
0.0722979
0.0747127
0.0769434
0.0789988
0.0808842
0.0826079
0.0841757
0.085595
0.0868716
0.0880118
0.0890209
0.0899043
0.0906664
0.0913113
0.0918424
0.0922621
0.0925722
0.0927749
0.0928735
0.0316654
0.0361923
0.0405529
0.0447138
0.0486942
0.0524716
0.0560579
0.0594409
0.0626302
0.0656208
0.0684211
0.0710312
0.073459
0.0757074
0.0777842
0.0796938
0.0814434
0.0830382
0.0844848
0.0857884
0.0869547
0.0879885
0.0888948
0.0896777
0.0903409
0.0908875
0.0913198
0.0916393
0.0918483
0.09195
0.0309761
0.0354191
0.0397029
0.0437987
0.0477237
0.051457
0.0550087
0.058367
0.0615398
0.064522
0.0673207
0.0699352
0.0723723
0.0746343
0.0767279
0.0786568
0.0804275
0.0820444
0.0835135
0.0848395
0.0860275
0.087082
0.0880075
0.0888078
0.0894865
0.0900462
0.090489
0.0908166
0.0910309
0.0911351
0.0304022
0.0347737
0.0389918
0.0430319
0.046909
0.050604
0.0541251
0.0574612
0.0606186
0.0635923
0.066388
0.0690049
0.0714486
0.0737208
0.0758274
0.0777716
0.079559
0.0811938
0.0826812
0.0840254
0.0852313
0.0863028
0.0872441
0.0880589
0.0887503
0.0893208
0.0897725
0.0901067
0.0903254
0.0904318
0.0299358
0.034248
0.0384116
0.0424051
0.0462421
0.0499047
0.0533997
0.0567165
0.0598603
0.062826
0.0656183
0.0682361
0.0706842
0.072964
0.0750805
0.0770365
0.0788371
0.080486
0.0819879
0.0833467
0.0845668
0.085652
0.0866061
0.0874324
0.0881341
0.0887135
0.0891723
0.0895119
0.0897341
0.0898422
0.0295707
0.0338356
0.0379557
0.0419119
0.0457165
0.0493528
0.0528265
0.0561274
0.0592598
0.0622184
0.0650074
0.0676253
0.0700763
0.0723615
0.0744853
0.0764502
0.0782608
0.0799204
0.0814334
0.0828035
0.0840346
0.0851304
0.0860944
0.0869298
0.0876395
0.0882257
0.0886902
0.0890339
0.089259
0.0893684
0.0293027
0.033532
0.037619
0.0415468
0.0453269
0.0489432
0.0524007
0.0556894
0.0588128
0.0617659
0.064552
0.0671697
0.0696225
0.0719114
0.0740403
0.0760115
0.0778293
0.0794966
0.0810177
0.0823959
0.0836351
0.0847386
0.0857099
0.0865519
0.0872676
0.0878589
0.0883274
0.0886743
0.0889013
0.0890118
0.0291291
0.0333334
0.0373973
0.0413059
0.0450693
0.0486722
0.0521188
0.0553992
0.0585166
0.0614658
0.0642498
0.0668671
0.0693209
0.0716121
0.0737442
0.0757195
0.0775419
0.0792143
0.0807406
0.0821242
0.0833686
0.0844772
0.0854532
0.0862997
0.0870192
0.0876138
0.088085
0.0884339
0.0886623
0.0887735
0.0290467
0.0332359
0.0372873
0.0411862
0.0449411
0.0485374
0.0519784
0.0552547
0.0583689
0.0613162
0.0640991
0.0667161
0.0691705
0.0714627
0.0735964
0.0755737
0.0773983
0.0790732
0.0806022
0.0819883
0.0832354
0.0843465
0.0853249
0.0861734
0.0868949
0.0874911
0.0879637
0.0883136
0.0885427
0.0886543
0.127914
0.116775
0.105232
0.0945698
0.0851358
0.0769023
0.0697459
0.0635358
0.0581499
0.0534787
0.0494252
0.0459051
0.0428454
0.0401838
0.0378667
0.0358488
0.0340912
0.0325611
0.0312304
0.0300756
0.0290767
0.028217
0.0274826
0.0268617
0.0263449
0.0259245
0.0255943
0.0253494
0.0251882
0.025114
0.108733
0.098323
0.0891605
0.0805767
0.0728393
0.0659565
0.0598922
0.0545851
0.0499584
0.045933
0.0424337
0.0393923
0.0367487
0.0344505
0.0324521
0.0307141
0.0292027
0.0278888
0.0267478
0.0257585
0.0249031
0.0241667
0.0235366
0.0230024
0.0225556
0.0221893
0.0218981
0.0216771
0.0215246
0.0214501
0.0878737
0.0763829
0.0684943
0.0615087
0.055624
0.0505243
0.0460917
0.0422346
0.0388763
0.035951
0.0334009
0.031176
0.0292336
0.0275372
0.0260555
0.0247613
0.0236313
0.0226449
0.0217849
0.0210363
0.0203862
0.0198239
0.0193401
0.0189271
0.0185785
0.0182893
0.0180557
0.0178737
0.0177403
0.0176664
0.067823
0.0571247
0.0504544
0.0444409
0.0397687
0.0359298
0.0327571
0.0300963
0.0278401
0.0259101
0.0242471
0.022805
0.0215487
0.0204512
0.0194903
0.0186481
0.0179091
0.0172606
0.0166916
0.016193
0.0157567
0.0153762
0.0150458
0.0147605
0.0145163
0.01431
0.0141393
0.0140017
0.0138919
0.0138178
0.0473269
0.0390325
0.0345949
0.029966
0.026495
0.0236702
0.0214306
0.0196316
0.0181703
0.016968
0.015966
0.0151195
0.0143961
0.0137735
0.0132346
0.0127659
0.0123562
0.0119966
0.0116801
0.0114012
0.0111553
0.0109386
0.0107478
0.0105801
0.0104333
0.0103052
0.0101948
0.0101009
0.0100171
0.00994453
0.0263329
0.0206518
0.0188299
0.0161116
0.0142483
0.0126335
0.0113715
0.0103757
0.00959566
0.00898371
0.00850113
0.00811589
0.0078025
0.00754643
0.00733802
0.00716628
0.00702198
0.00689889
0.00679239
0.006699
0.00661605
0.00654141
0.0064734
0.00641058
0.0063517
0.0062955
0.00624136
0.00618941
0.00613349
0.00606668
0.00562275
0.00241321
0.0028797
0.00204706
0.00190983
0.00165136
0.00149489
0.00138523
0.00132946
0.0013192
0.00134547
0.00139779
0.0014618
0.00153469
0.00162311
0.00171604
0.00180772
0.00189517
0.00197628
0.00204959
0.0021141
0.0021691
0.00221406
0.00224857
0.00227223
0.0022844
0.00228461
0.00227406
0.00224883
0.002193
-0.0142764
-0.0148702
-0.012569
-0.0118041
-0.010452
-0.00945531
-0.00852449
-0.00772646
-0.00702098
-0.00639269
-0.00582723
-0.00531349
-0.0048575
-0.00445145
-0.00405918
-0.00370118
-0.00337601
-0.0030819
-0.00281766
-0.00258217
-0.00237438
-0.00219336
-0.00203836
-0.00190872
-0.00180395
-0.00172394
-0.001669
-0.00163747
-0.00162942
-0.0016688
-0.0332247
-0.0308143
-0.0272072
-0.0248652
-0.0223355
-0.0202699
-0.0184108
-0.0168014
-0.0153871
-0.0141429
-0.0130441
-0.012065
-0.0112052
-0.0104546
-0.00974737
-0.00911981
-0.00855715
-0.00805366
-0.00760453
-0.00720578
-0.00685409
-0.0065467
-0.00628134
-0.00605622
-0.00586984
-0.00572118
-0.00561006
-0.0055352
-0.00549289
-0.00550941
-0.0510064
-0.0460818
-0.0412331
-0.0373285
-0.0337411
-0.0306929
-0.0280161
-0.0256769
-0.0236179
-0.021804
-0.0202038
-0.0187839
-0.0175182
-0.0163924
-0.0153876
-0.0144971
-0.0137021
-0.0129925
-0.0123608
-0.0118004
-0.0113061
-0.0108733
-0.0104983
-0.0101781
-0.00991024
-0.00969287
-0.00952491
-0.00940506
-0.00933097
-0.00931745
-0.0675159
-0.0608695
-0.0545851
-0.0492325
-0.0445701
-0.0406296
-0.0372159
-0.034227
-0.0315901
-0.0292618
-0.0272033
-0.025374
-0.0237364
-0.0222733
-0.0209787
-0.019831
-0.0188074
-0.0178945
-0.0170821
-0.0163616
-0.0157256
-0.0151681
-0.0146839
-0.0142689
-0.0139196
-0.0136334
-0.0134084
-0.0132428
-0.0131353
-0.0130959
-0.083157
-0.0751304
-0.0673052
-0.0606401
-0.0549731
-0.0502106
-0.0460865
-0.0424657
-0.0392745
-0.0364635
-0.0339791
-0.0317701
-0.0297951
-0.0280312
-0.0264649
-0.0250716
-0.0238278
-0.0227186
-0.0217316
-0.0208559
-0.0200823
-0.0194035
-0.0188129
-0.0183054
-0.0178766
-0.0175231
-0.0172422
-0.0170317
-0.0168891
-0.0168279
-0.0983619
-0.0888715
-0.0794248
-0.0714819
-0.064914
-0.0594263
-0.0546513
-0.050435
-0.0467228
-0.0434597
-0.0405727
-0.0380025
-0.035708
-0.0336602
-0.031835
-0.0302059
-0.0287501
-0.0274514
-0.0262954
-0.0252692
-0.0243621
-0.0235654
-0.0228714
-0.0222741
-0.021768
-0.0213491
-0.0210142
-0.0207601
-0.0205835
-0.0204993
-0.113082
-0.102188
-0.0912217
-0.0821275
-0.0747472
-0.0685429
-0.0630721
-0.0582276
-0.0539933
-0.0502864
-0.0470021
-0.0440763
-0.0414691
-0.0391436
-0.0370669
-0.0352105
-0.0335511
-0.0320704
-0.0307517
-0.0295806
-0.0285452
-0.0276351
-0.026842
-0.0261584
-0.0255785
-0.0250972
-0.0247109
-0.024416
-0.0242073
-0.0240996
-0.127379
-0.115117
-0.102484
-0.0922749
-0.0842391
-0.0774222
-0.0712914
-0.0658584
-0.0611421
-0.0570058
-0.0533231
-0.0500415
-0.0471222
-0.0445184
-0.0421907
-0.0401093
-0.0382493
-0.0365894
-0.0351107
-0.0337973
-0.0326358
-0.031615
-0.030725
-0.0299578
-0.0293064
-0.0287652
-0.0283299
-0.0279965
-0.0277584
-0.027628
-0.14102
-0.127779
-0.113679
-0.102489
-0.0938249
-0.0862719
-0.0793718
-0.0733421
-0.0681566
-0.0635829
-0.059496
-0.055863
-0.052636
-0.0497555
-0.0471795
-0.0448774
-0.042821
-0.0409859
-0.0393512
-0.0378995
-0.0366161
-0.0354883
-0.0345053
-0.033658
-0.0329388
-0.0323413
-0.0318605
-0.031492
-0.0312281
-0.031078
-0.154215
-0.139668
-0.123962
-0.112139
-0.103119
-0.0948701
-0.0872686
-0.0807352
-0.0751
-0.0700718
-0.0655784
-0.0615986
-0.0580619
-0.0549007
-0.0520743
-0.0495501
-0.0472959
-0.0452845
-0.0434935
-0.0419037
-0.040499
-0.0392652
-0.0381906
-0.037265
-0.0364801
-0.0358286
-0.035305
-0.0349047
-0.0346186
-0.034452
-0.167002
-0.151583
-0.134599
-0.122239
-0.112551
-0.10334
-0.0950515
-0.0880474
-0.0819239
-0.0764211
-0.0715311
-0.0672085
-0.0633581
-0.0599147
-0.0568392
-0.0540942
-0.0516434
-0.0494574
-0.0475121
-0.0457868
-0.0442633
-0.0429266
-0.0417634
-0.040763
-0.0399159
-0.0392143
-0.038652
-0.038224
-0.0379206
-0.0377424
-0.179002
-0.161901
-0.144503
-0.132273
-0.121847
-0.111768
-0.102968
-0.0954709
-0.0887906
-0.0828041
-0.0775144
-0.0728273
-0.0686419
-0.0649021
-0.0615656
-0.058588
-0.0559304
-0.0535616
-0.0514555
-0.0495892
-0.047943
-0.0465002
-0.0452468
-0.0441705
-0.0432613
-0.0425106
-0.0419115
-0.0414589
-0.0411426
-0.0409578
-0.192286
-0.173661
-0.156188
-0.143247
-0.131499
-0.12065
-0.111316
-0.103165
-0.0958606
-0.0893695
-0.0836339
-0.0785321
-0.0739769
-0.0699141
-0.0662919
-0.0630604
-0.0601785
-0.0576128
-0.0553343
-0.0533176
-0.0515412
-0.0499869
-0.048639
-0.0474843
-0.0465116
-0.0457117
-0.0450771
-0.0446023
-0.0442776
-0.0440943
-0.205142
-0.186553
-0.169848
-0.155618
-0.142637
-0.130982
-0.120768
-0.111727
-0.103672
-0.0965279
-0.0901917
-0.0845504
-0.0795213
-0.0750397
-0.071045
-0.0674836
-0.0643107
-0.0614886
-0.0589847
-0.0567707
-0.0548226
-0.0531199
-0.0516451
-0.0503834
-0.0493224
-0.0484517
-0.0477631
-0.047251
-0.0469064
-0.0467184
-0.212252
-0.195964
-0.179981
-0.165229
-0.151684
-0.139507
-0.128669
-0.119002
-0.110386
-0.102721
-0.0958959
-0.0898088
-0.0843791
-0.0795358
-0.0752149
-0.0713609
-0.0679268
-0.064872
-0.0621615
-0.0597648
-0.0576562
-0.0558133
-0.0542172
-0.052852
-0.0517041
-0.0507623
-0.0500175
-0.0494644
-0.0490948
-0.0488953
-0.21348
-0.199249
-0.184365
-0.170055
-0.15672
-0.144586
-0.133654
-0.12383
-0.115028
-0.107157
-0.100115
-0.0938149
-0.0881804
-0.0831425
-0.0786388
-0.0746152
-0.0710252
-0.0678281
-0.0649884
-0.0624754
-0.0602629
-0.058328
-0.0566516
-0.055217
-0.0540104
-0.0530203
-0.0522372
-0.051656
-0.0512697
-0.0510646
-0.212435
-0.199026
-0.185051
-0.171531
-0.158793
-0.147055
-0.136372
-0.126698
-0.117974
-0.110125
-0.103071
-0.0967343
-0.0910483
-0.0859492
-0.0813793
-0.0772878
-0.0736305
-0.070368
-0.0674662
-0.0648952
-0.0626292
-0.0606459
-0.0589261
-0.0574535
-0.0562144
-0.0551972
-0.0543927
-0.0537955
-0.0533999
-0.0531933
-0.211781
-0.198394
-0.18492
-0.172045
-0.15988
-0.148581
-0.138219
-0.128776
-0.120208
-0.112459
-0.105463
-0.099156
-0.0934772
-0.0883697
-0.0837807
-0.0796633
-0.0759757
-0.0726808
-0.0697459
-0.0671422
-0.064845
-0.0628324
-0.0610858
-0.0595893
-0.0583295
-0.0572951
-0.0564768
-0.0558692
-0.0554675
-0.0552601
-0.21204
-0.198573
-0.185378
-0.172901
-0.161125
-0.150154
-0.140048
-0.130795
-0.122359
-0.114697
-0.107754
-0.101474
-0.0958031
-0.0906891
-0.086084
-0.0819439
-0.0782295
-0.0749055
-0.0719408
-0.0693076
-0.0669819
-0.0649427
-0.0631717
-0.0616534
-0.0603746
-0.0593243
-0.0584933
-0.0578761
-0.0574683
-0.0572596
-0.212764
-0.199458
-0.186505
-0.174273
-0.162734
-0.151976
-0.142044
-0.132921
-0.124576
-0.116972
-0.11006
-0.10379
-0.0981138
-0.0929836
-0.0883546
-0.0841857
-0.0804396
-0.0770826
-0.0740848
-0.0714194
-0.0690631
-0.0669954
-0.0651984
-0.0636569
-0.0623581
-0.0612911
-0.0604467
-0.0598193
-0.0594049
-0.059194
-0.213539
-0.200562
-0.187871
-0.175833
-0.164466
-0.153864
-0.144062
-0.135038
-0.126763
-0.119202
-0.112312
-0.106046
-0.100362
-0.0952136
-0.0905599
-0.0863619
-0.0825842
-0.0791946
-0.0761641
-0.073467
-0.0710805
-0.0689847
-0.0671621
-0.0655979
-0.0642793
-0.0631957
-0.0623382
-0.0617008
-0.0612795
-0.0610662
-0.21421
-0.201545
-0.189104
-0.177258
-0.166058
-0.155604
-0.145925
-0.136998
-0.128794
-0.121281
-0.114419
-0.108166
-0.102481
-0.0973231
-0.0926524
-0.0884326
-0.0846299
-0.0812136
-0.0781559
-0.0754318
-0.0730194
-0.0708993
-0.0690543
-0.06747
-0.0661339
-0.0650356
-0.0641662
-0.0635198
-0.0630925
-0.0628767
-0.214748
-0.202299
-0.19007
-0.178415
-0.167393
-0.157097
-0.147551
-0.138731
-0.13061
-0.123158
-0.116338
-0.110111
-0.104439
-0.0992837
-0.0946077
-0.0903767
-0.0865588
-0.0831245
-0.0800473
-0.0773033
-0.074871
-0.0727318
-0.070869
-0.0692685
-0.0679181
-0.0668076
-0.0659285
-0.0652746
-0.0648423
-0.0646245
-0.215155
-0.202845
-0.190789
-0.179315
-0.168474
-0.158344
-0.148939
-0.140236
-0.132211
-0.124833
-0.118068
-0.111881
-0.106235
-0.101094
-0.0964239
-0.0921923
-0.0883688
-0.0849252
-0.0818364
-0.0790792
-0.0766331
-0.0744801
-0.0726041
-0.0709913
-0.0696299
-0.06851
-0.0676231
-0.0669634
-0.066527
-0.0663076
-0.215436
-0.203226
-0.19132
-0.180014
-0.169349
-0.159382
-0.150122
-0.141543
-0.133621
-0.126327
-0.119628
-0.11349
-0.10788
-0.102764
-0.0981094
-0.0938861
-0.090065
-0.0866196
-0.0835258
-0.0807615
-0.0783071
-0.076145
-0.0742598
-0.0726382
-0.0712687
-0.0701416
-0.069249
-0.0685847
-0.0681452
-0.0679246
-0.215585
-0.203455
-0.191692
-0.18055
-0.170053
-0.160246
-0.151129
-0.142677
-0.134863
-0.127658
-0.121032
-0.114952
-0.109386
-0.104303
-0.0996719
-0.0954642
-0.0916525
-0.0882117
-0.0851187
-0.0823525
-0.0798943
-0.0777273
-0.0758365
-0.0742092
-0.0728341
-0.0717021
-0.0708053
-0.0701377
-0.0696959
-0.0694744
-0.215585
-0.203522
-0.191907
-0.18093
-0.170597
-0.160946
-0.151972
-0.143648
-0.135946
-0.128837
-0.12229
-0.116274
-0.11076
-0.105716
-0.101116
-0.0969302
-0.0931341
-0.0897036
-0.0866167
-0.0838534
-0.0813957
-0.0792275
-0.0773345
-0.0757043
-0.0743261
-0.0731911
-0.0722917
-0.071622
-0.0711785
-0.0709565
-0.215417
-0.203404
-0.191949
-0.181146
-0.170979
-0.161482
-0.152653
-0.14446
-0.136875
-0.129867
-0.123405
-0.11746
-0.112003
-0.107006
-0.102442
-0.0982853
-0.0945107
-0.091096
-0.0880202
-0.0852644
-0.0828113
-0.0806456
-0.0787535
-0.0771232
-0.0757443
-0.0746082
-0.0737076
-0.0730369
-0.0725927
-0.0723704
-0.215062
-0.203081
-0.191803
-0.181186
-0.171189
-0.16185
-0.153169
-0.145113
-0.13765
-0.130748
-0.124377
-0.11851
-0.113117
-0.108174
-0.103653
-0.0995304
-0.095783
-0.0923893
-0.0893296
-0.0865857
-0.0841412
-0.0819815
-0.0800935
-0.0784658
-0.0770884
-0.0759531
-0.0750529
-0.0743823
-0.0739379
-0.0737157
-0.214508
-0.202531
-0.191464
-0.181048
-0.171223
-0.162047
-0.15352
-0.145608
-0.138272
-0.131483
-0.12521
-0.119426
-0.114105
-0.109221
-0.104749
-0.100667
-0.096952
-0.0935844
-0.0905454
-0.0878176
-0.0853857
-0.0832354
-0.0813545
-0.0797319
-0.0783583
-0.0772256
-0.0763272
-0.0756578
-0.0752141
-0.0749923
-0.213739
-0.201737
-0.190931
-0.180729
-0.171079
-0.162072
-0.153709
-0.145946
-0.138745
-0.132074
-0.125905
-0.120212
-0.114968
-0.110149
-0.105732
-0.101696
-0.098019
-0.0946824
-0.0916685
-0.088961
-0.0865452
-0.0844077
-0.0825367
-0.0809218
-0.079554
-0.0784257
-0.0775305
-0.0768632
-0.0764209
-0.0761998
-0.212735
-0.200686
-0.190213
-0.18023
-0.170756
-0.161927
-0.153738
-0.146133
-0.139072
-0.132526
-0.126468
-0.12087
-0.115709
-0.110962
-0.106606
-0.10262
-0.098986
-0.0956849
-0.0927003
-0.0900169
-0.0876206
-0.0854989
-0.0836406
-0.0820357
-0.0806758
-0.0795535
-0.0786628
-0.0779987
-0.0775584
-0.0773384
-0.21147
-0.199378
-0.189323
-0.179547
-0.170252
-0.161618
-0.153612
-0.146171
-0.139258
-0.132843
-0.126901
-0.121405
-0.116333
-0.111662
-0.107372
-0.103442
-0.0998548
-0.0965935
-0.0936421
-0.0909863
-0.0886128
-0.0865098
-0.0846667
-0.0830742
-0.0817239
-0.0806092
-0.0797242
-0.0790644
-0.0786266
-0.0784079
-0.209879
-0.197839
-0.188271
-0.178668
-0.169569
-0.161148
-0.153336
-0.146066
-0.139305
-0.133028
-0.127209
-0.121821
-0.116842
-0.112253
-0.108033
-0.104163
-0.100628
-0.0974099
-0.0944954
-0.0918705
-0.0895229
-0.0874413
-0.0856159
-0.0840376
-0.082699
-0.0815933
-0.0807152
-0.0800604
-0.0796258
-0.0794088
-0.207904
-0.196133
-0.187053
-0.177587
-0.168713
-0.160524
-0.152913
-0.14582
-0.139219
-0.133087
-0.127395
-0.12212
-0.11724
-0.112737
-0.108591
-0.104787
-0.101306
-0.098136
-0.0952617
-0.0926709
-0.090352
-0.0882944
-0.0864888
-0.0849269
-0.0836014
-0.0825062
-0.0816362
-0.0809871
-0.0805563
-0.0803412
-0.205639
-0.194339
-0.185642
-0.176303
-0.167695
-0.159753
-0.152347
-0.145437
-0.139004
-0.133022
-0.127464
-0.122306
-0.11753
-0.113118
-0.109051
-0.105315
-0.101893
-0.0987737
-0.0959428
-0.093389
-0.0911013
-0.08907
-0.0872864
-0.0857426
-0.0844319
-0.0833485
-0.0824875
-0.081845
-0.0814185
-0.0812055
-0.203156
-0.192501
-0.183995
-0.174832
-0.166533
-0.158839
-0.151642
-0.144923
-0.138665
-0.132839
-0.127419
-0.122384
-0.117716
-0.113398
-0.109414
-0.10575
-0.102391
-0.099325
-0.0965404
-0.0940262
-0.0917722
-0.0897694
-0.0880097
-0.0864858
-0.0851913
-0.0841209
-0.0832699
-0.0826347
-0.082213
-0.0820024
-0.200546
-0.190492
-0.182073
-0.173204
-0.165234
-0.157783
-0.150802
-0.144283
-0.138206
-0.132542
-0.127265
-0.122357
-0.117801
-0.113582
-0.109684
-0.106094
-0.102801
-0.0997921
-0.0970564
-0.0945842
-0.0923661
-0.0903939
-0.0886599
-0.0871574
-0.0858804
-0.0848241