/*--------------------------------*- C++ -*----------------------------------*\
  =========                 |
  \\      /  F ield         | OpenFOAM: The Open Source CFD Toolbox
   \\    /   O peration     | Website:  https://openfoam.org
    \\  /    A nd           | Version:  7
     \\/     M anipulation  |
\*---------------------------------------------------------------------------*/
FoamFile
{
    version     2.0;
    format      ascii;
    class       surfaceScalarField;
    location    "90";
    object      phi;
}
// * * * * * * * * * * * * * * * * * * * * * * * * * * * * * * * * * * * * * //

dimensions      [0 3 -1 0 0 0 0];

internalField   nonuniform List<scalar> 
6855
(
-7.49437e-05
-1.82706e-06
8.30105e-07
-0.00060932
-5.79707e-07
-0.00149097
-6.21145e-07
-5.04421e-07
-0.000609305
0.000608725
-0.00149094
0.000881015
-0.00240498
0.000913531
-0.00333388
0.000928524
-0.00429376
0.000959625
-0.0052944
0.00100052
-0.0063456
0.00105121
-0.00745433
0.00110886
-0.00862669
0.00117262
0.00124474
-0.00987105
-0.000599995
0.00120872
-0.00147316
0.00175418
-0.00238028
0.00182065
-0.00330257
0.00185082
-0.00425587
0.00191292
-0.00524995
0.00199459
-0.00629464
0.0020959
-0.0073971
0.00221133
-0.00856357
0.00233909
0.00248339
-0.00980222
-0.00058148
0.0017902
-0.00143775
0.00261045
-0.002331
0.0027139
-0.00324008
0.00275989
-0.00418022
0.00285307
-0.00516115
0.00297552
-0.00619273
0.00312748
-0.00728254
0.00330114
-0.00843683
0.00349337
0.00370959
-0.00966302
-0.000554046
0.00234425
-0.00138496
0.00344136
-0.00225728
0.00358623
-0.00314662
0.00364923
-0.00406716
0.00377361
-0.00502843
0.00393678
-0.00604018
0.00413923
-0.00711055
0.00437151
-0.00824596
0.00462878
0.00491589
-0.00945227
-0.000518711
0.00286296
-0.00131504
0.00423769
-0.00215913
0.00443032
-0.00302219
0.00451228
-0.00391662
0.00466804
-0.00485159
0.00487176
-0.00583676
0.0051244
-0.00688107
0.00541582
-0.00799103
0.00573874
0.00609482
-0.00916995
-0.000477593
0.00334055
-0.00122804
0.00498814
-0.00203691
0.00523919
-0.00286773
0.0053431
-0.00373032
0.00553063
-0.00463327
0.00577471
-0.00558546
0.00607659
-0.00659648
0.00642684
-0.00767361
0.00681588
0.00723842
-0.00881721
-0.000424836
0.00376539
-0.00112265
0.00568595
-0.00189038
0.00600693
-0.00268282
0.00613553
-0.00350688
0.00635469
-0.00437046
0.00663829
-0.00528146
0.00698759
-0.0062509
0.00739628
-0.00729043
0.0078554
0.00834308
-0.00839509
-0.000361945
0.00412733
-0.000999208
0.00632322
-0.0017199
0.00672762
-0.00246875
0.00688438
-0.00324959
0.00713553
-0.00407034
0.00745904
-0.00493751
0.00785477
-0.00586012
0.00831889
-0.0068529
0.00884818
0.00939962
-0.00790944
-0.000289905
0.00441724
-0.000858418
0.00689173
-0.0015259
0.0073951
-0.00222579
0.00758428
-0.00295745
0.00786718
-0.00372784
0.00822943
-0.00454062
0.00866755
-0.00539973
0.00917799
-0.00632477
0.00977322
0.0104272
-0.00735235
-0.000209022
0.00462626
-0.000700987
0.00738369
-0.00130895
0.00800307
-0.00195497
0.00823029
-0.00263271
0.00854492
-0.00334894
0.00894565
-0.00410886
0.00942747
-0.00491524
0.00998438
-0.00576906
0.010627
0.0114264
-0.00676828
-0.000118807
0.00474507
-0.000528094
0.00779298
-0.00106989
0.00854486
-0.00165748
0.00881788
-0.00227706
0.0091645
-0.00293375
0.00960234
-0.00363233
0.010126
-0.00437559
0.0107276
-0.00516745
0.0114189
0.0121997
-0.0059407
-1.26281e-05
0.00475769
-0.000341012
0.00812136
-0.000808979
0.00901283
-0.00133449
0.00934339
-0.00189193
0.00972194
-0.00248438
0.0101948
-0.00311616
0.0107578
-0.00378877
0.0114003
-0.00449742
0.0121275
0.0129525
-0.00525025
7.34307e-05
0.00468426
-0.000138911
0.00833371
-0.000528354
0.00940227
-0.000987725
0.00980276
-0.00147934
0.0102136
-0.00200443
0.0107199
-0.00256705
0.0113204
-0.00317152
0.0120047
-0.00381949
0.0127755
0.0136371
-0.00450412
0.000167036
0.00451723
7.59767e-05
0.00842476
-0.000232482
0.00971073
-0.000618837
0.0101891
-0.00104126
0.010636
-0.00149672
0.0111753
-0.00198764
0.0118114
-0.00251969
0.0125368
-0.00309173
0.0133475
0.0142458
-0.00370043
0.000262311
0.00425492
0.000287473
0.0083996
7.87429e-05
0.00991946
-0.000230601
0.0104985
-0.000580206
0.0109856
-0.000963139
0.0115583
-0.00137844
0.0122267
-0.00183282
0.0129912
-0.00232484
0.0138396
0.0147714
-0.00285037
0.000353753
0.00390116
0.00050845
0.00824491
0.000410371
0.0100175
0.000179186
0.0107296
-0.00010048
0.0112653
-0.000406038
0.0118638
-0.000742337
0.012563
-0.0011137
0.0133625
-0.00152307
0.0142489
0.0152098
-0.00196148
0.000435838
0.00346533
0.000728416
0.00795233
0.000747923
0.00999803
0.000609569
0.010868
0.000408441
0.0114664
0.000174444
0.0120978
-8.58779e-05
0.0128233
-0.000368383
0.013645
-0.000686702
0.0145673
0.0155611
-0.001038
0.000501486
0.00296384
0.000938229
0.00751558
0.00108857
0.0098477
0.00105003
0.0109065
0.000932048
0.0115844
0.000779758
0.0122501
0.000603388
0.0129997
0.000402119
0.0138463
0.00017969
0.0147897
0.0158329
-9.21692e-05
0.000542663
0.00242118
0.00112762
0.00693063
0.00142409
0.00955123
0.00149727
0.0108333
0.00146748
0.0116142
0.00139748
0.0123201
0.00130535
0.0130918
0.00119356
0.0139581
0.00105916
0.0149241
0.0159775
0.000914596
0.000552513
0.00186866
0.00128419
0.00619895
0.00174224
0.00909318
0.0019433
0.0106323
0.00201073
0.0115467
0.00202591
0.0123049
0.00201895
0.0130987
0.00199746
0.0139796
0.00196209
0.0149595
0.0160191
0.0019205
0.000528274
0.00134039
0.00139398
0.00533325
0.0020272
0.00845995
0.00237614
0.0102833
0.00255492
0.011368
0.002661
0.0121989
0.00274071
0.013019
0.0028097
0.0139106
0.00287034
0.0148988
0.0159659
0.00292358
0.000472563
0.000867827
0.00144206
0.00436375
0.00225794
0.00764407
0.00277981
0.00976147
0.0030899
0.0110579
0.00329649
0.0119923
0.00346563
0.0128499
0.0036245
0.0137517
0.00377892
0.0147444
0.0158157
0.00392908
0.000392816
0.000475011
0.00140555
0.00335102
0.00240793
0.00664169
0.00313075
0.00903865
0.00359954
0.0105891
0.00392302
0.0116688
0.00418733
0.0125856
0.00443728
0.0135018
0.00468656
0.0144951
0.0155682
0.00493402
0.000301339
0.000173672
0.00127976
0.0023726
0.00244902
0.00547244
0.0033955
0.00809216
0.00405792
0.00992667
0.00452504
0.0112017
0.00489798
0.0122126
0.00524156
0.0131582
0.005587
0.0141497
0.0152209
0.00593438
0.000213445
-3.97737e-05
0.00108177
0.00150428
0.00235413
0.00420007
0.00353001
0.00691629
0.00442597
0.00903071
0.00507663
0.010551
0.00558255
0.0117067
0.00603124
0.0127095
0.00647268
0.0137082
0.0147801
0.00691342
0.000140906
-0.00018068
0.000844803
0.000800378
0.00210849
0.00293638
0.00348283
0.00554195
0.004646
0.00786753
0.00553359
0.00966342
0.00621597
0.0110243
0.00678836
0.0121371
0.00733972
0.0131569
0.0142437
0.00787612
8.6322e-05
-0.000267002
0.000609713
0.000276987
0.00173543
0.00181067
0.00321016
0.00406722
0.00464177
0.00643592
0.00582282
0.00848238
0.00674691
0.0101003
0.00749193
0.0113921
0.00816057
0.0124882
0.0135965
0.00880774
4.72828e-05
-0.000314284
0.000409954
-8.56843e-05
0.00130741
0.000913211
0.00271767
0.00265696
0.00433191
0.00482169
0.00583711
0.00697717
0.0070843
0.00885306
0.0080753
0.0104011
0.00893302
0.0116305
0.0128591
0.0096705
2.10454e-05
-0.00033533
0.000258823
-0.000323461
0.000908979
0.000263054
0.002095
0.00147093
0.0037026
0.00321409
0.00544502
0.00523476
0.00707825
0.00721983
0.00842196
0.00905737
0.00955173
0.0105008
0.0118852
0.0105256
5.41172e-06
-0.000340742
0.000153577
-0.000471627
0.000592212
-0.000175581
0.00147934
0.000583807
0.00286815
0.00182528
0.00462754
0.00347536
0.00652453
0.00532284
0.00832351
0.0072584
0.00986803
0.00895623
0.0107382
0.0110151
-3.03203e-06
-0.00033771
8.46995e-05
-0.000559358
0.000365517
-0.000456398
0.00097134
-2.20161e-05
0.00202167
0.000774947
0.00355406
0.00194298
0.00542679
0.00345011
0.00747786
0.00520732
0.0096002
0.00683389
0.00908485
0.0112535
-7.2921e-06
-0.000330417
3.99226e-05
-0.000606573
0.000210213
-0.000626689
0.00059672
-0.000408523
0.00131413
5.75357e-05
0.00247147
0.000785639
0.00405134
0.00187024
0.00601567
0.00324299
0.0083846
0.00446497
0.00695226
0.0105172
-1.01752e-05
-0.000320242
7.04485e-06
-0.000623793
9.85514e-05
-0.000718196
0.000328689
-0.000638661
0.000781108
-0.000394884
0.0015498
1.69445e-05
0.00272832
0.000691723
0.00431038
0.00166093
0.00639042
0.00238493
0.00456886
0.00877382
-1.48193e-05
-0.000305423
-2.51367e-05
-0.000613475
5.85422e-06
-0.000749186
0.000122264
-0.00075507
0.000379769
-0.000652389
0.000840304
-0.000443591
0.00162227
-9.02441e-05
0.00273543
0.000547775
0.0042671
0.000853254
0.00242048
0.00641549
-2.29512e-05
-0.000282472
-6.09786e-05
-0.000575448
-8.30025e-05
-0.000727163
-5.64426e-05
-0.00078163
5.83074e-05
-0.000767139
0.000293266
-0.000678549
0.000741203
-0.000538181
0.00144955
-0.000160572
0.00241234
-0.000109535
0.000882845
0.00394997
-3.41269e-05
-0.000248345
-0.000101089
-0.000508486
-0.000172311
-0.00065594
-0.000221769
-0.000732173
-0.000225675
-0.000763233
-0.000153821
-0.000750403
4.84018e-05
-0.000740404
0.000404282
-0.000516453
0.000904156
-0.000609409
-1.15168e-06
0.00178815
-4.69442e-05
-0.000201401
-0.000142534
-0.000412896
-0.000258809
-0.000539665
-0.000374401
-0.00061658
-0.000472248
-0.000665386
-0.000527215
-0.000695437
-0.000542359
-0.00072526
-0.00042415
-0.000634662
-0.000278503
-0.000755055
-0.000384988
0.000105333
-5.93432e-05
-0.000142057
-0.000180377
-0.000291862
-0.000334735
-0.000385308
-0.000503939
-0.000447376
-0.000675109
-0.000494216
-0.000835691
-0.000534855
-0.000989455
-0.000571496
-0.00106325
-0.00056087
-0.00117489
-0.000643409
-0.000486931
-0.00107295
-6.91774e-05
-7.288e-05
-0.000209423
-0.000151616
-0.000391625
-0.000203106
-0.000599062
-0.00023994
-0.000822281
-0.000270997
-0.00105554
-0.000301592
-0.00129593
-0.000331107
-0.00150755
-0.000349256
-0.00175225
-0.000398702
-0.000365023
-0.00187416
-7.47071e-05
-0.000225493
-0.000422705
-0.00065051
-0.000901336
-0.00117172
-0.0014565
-0.00173962
-0.00204799
-0.00229295
-0.0100948
0.000224091
-0.0102665
0.000172093
-0.0104171
0.000150971
-0.0105353
0.000118616
-0.0106365
0.000101654
-0.0107164
8.02782e-05
-0.0107832
6.7169e-05
-0.0108353
5.24881e-05
-0.0108773
4.24502e-05
-0.010909
3.20166e-05
-0.0109329
2.42916e-05
-0.0109492
1.6633e-05
-0.0109596
1.06272e-05
-0.0109642
4.93695e-06
-0.0109645
5.22871e-07
-0.01096
-4.25336e-06
-0.0109515
-8.2587e-06
-0.0109394
-1.1918e-05
-0.0109242
-1.51094e-05
-0.010906
-1.80625e-05
-0.0108852
-2.06956e-05
-0.010862
-2.31466e-05
-0.0108365
-2.53744e-05
-0.010809
-2.74647e-05
-0.0107796
-2.93998e-05
-0.0107483
-3.12326e-05
-0.0107154
-3.29597e-05
-0.0106808
-3.4626e-05
-0.0106445
-3.62559e-05
-3.79017e-05
-0.0100287
0.000450593
-0.0102024
0.000345731
-0.0103548
0.000303431
-0.0104747
0.000238482
-0.0105778
0.000204731
-0.0106595
0.000162006
-0.0107283
0.000135967
-0.0107825
0.000106674
-0.0108268
8.67248e-05
-0.0108607
6.59143e-05
-0.0108869
5.05477e-05
-0.0109056
3.52776e-05
-0.0109182
2.33252e-05
-0.0109253
1.19478e-05
-0.0109277
2.96433e-06
-0.0109257
-6.23979e-06
-0.0109198
-1.42125e-05
-0.0109101
-2.1553e-05
-0.0108973
-2.79025e-05
-0.0108816
-3.37993e-05
-0.0108633
-3.90371e-05
-0.0108425
-4.39227e-05
-0.0108195
-4.83581e-05
-0.0107944
-5.25254e-05
-0.0107675
-5.63827e-05
-0.0107386
-6.00407e-05
-0.0107081
-6.34909e-05
-0.0106759
-6.68243e-05
-0.0106421
-7.00872e-05
-7.33823e-05
-0.00989458
0.000682154
-0.0100721
0.00052326
-0.0102287
0.000459972
-0.0103522
0.00036207
-0.0104594
0.00031185
-0.0105451
0.000247766
-0.0106182
0.000209065
-0.0106768
0.000165217
-0.0107256
0.00013553
-0.010764
0.00010439
-0.010795
8.14811e-05
-0.0108183
5.86332e-05
-0.0108358
4.0779e-05
-0.0108475
2.36365e-05
-0.0108544
9.86155e-06
-0.0108575
-3.14722e-06
-0.0108564
-1.52507e-05
-0.0108517
-2.6291e-05
-0.0108438
-3.57835e-05
-0.010833
-4.46289e-05
-0.0108195
-5.24741e-05
-0.0108037
-5.98037e-05
-0.0107856
-6.64544e-05
-0.0107654
-7.27085e-05
-0.0107433
-7.84963e-05
-0.0107193
-8.39908e-05
-0.0106936
-8.91753e-05
-0.0106663
-9.41886e-05
-0.0106373
-9.90938e-05
-0.000104041
-0.00969066
0.000920552
-0.00987399
0.000706589
-0.010037
0.000623013
-0.0101667
0.000491785
-0.0102805
0.00042557
-0.0103727
0.000340045
-0.0104527
0.000288982
-0.010518
0.000230588
-0.0105739
0.000191343
-0.0106194
0.000149896
-0.0106574
0.000119548
-0.0106879
8.91377e-05
-0.0107126
6.5432e-05
-0.0107315
4.25076e-05
-0.0107455
2.38836e-05
-0.0107553
6.63246e-06
-0.0107618
-8.75112e-06
-0.0107644
-2.36036e-05
-0.0107639
-3.63003e-05
-0.0107604
-4.81264e-05
-0.0107543
-5.85904e-05
-0.0107457
-6.83779e-05
-0.0107349
-7.72563e-05
-0.010722
-8.5611e-05
-0.0107072
-9.33449e-05
-0.0106905
-0.000100694
-0.010672
-0.000107629
-0.0106519
-0.000114341
-0.0106301
-0.000120902
-0.000127506
-0.00941677
0.00116736
-0.00960781
0.000897637
-0.00977987
0.000795072
-0.00991823
0.000630138
-0.0100412
0.000548534
-0.0101426
0.00044143
-0.0102319
0.000378318
-0.0103067
0.000305344
-0.010372
0.000256701
-0.0104271
0.000204944
-0.0104748
0.000167232
-0.0105149
0.000129253
-0.0105492
9.97338e-05
-0.0105777
7.10579e-05
-0.0106015
4.76764e-05
-0.0106204
2.55214e-05
-0.0106363
7.18842e-06
-0.0106489
-1.10192e-05
-0.0106581
-2.70949e-05
-0.0106644
-4.18687e-05
-0.010668
-5.50145e-05
-0.0106691
-6.72729e-05
-0.0106679
-7.83922e-05
-0.0106647
-8.88807e-05
-0.0106594
-9.85812e-05
-0.0106523
-0.000107803
-0.0106434
-0.000116515
-0.0106328
-0.000124951
-0.0106205
-0.000133185
-0.000141447
-0.00907383
0.00142398
-0.00927433
0.00109814
-0.00945768
0.000978418
-0.00960712
0.000779581
-0.009742
0.00068341
-0.00985519
0.000554625
-0.00995663
0.000479761
-0.0100434
0.000392136
-0.0101209
0.00033419
-0.010188
0.000272079
-0.0102478
0.000227031
-0.0103
0.000181452
-0.0103464
0.000146116
-0.010387
0.000111674
-0.010423
8.36193e-05
-0.0104543
5.68528e-05
-0.0104813
3.41978e-05
-0.0105054
1.30941e-05
-0.0105273
-5.28587e-06
-0.0105455
-2.36602e-05
-0.010561
-3.94407e-05
-0.0105742
-5.41398e-05
-0.010585
-6.75684e-05
-0.0105936
-8.02341e-05
-0.0106003
-9.18991e-05
-0.0106051
-0.00010303
-0.010608
-0.000113562
-0.0106092
-0.000123753
-0.0106088
-0.000133675
-0.000143598
-0.00866386
0.00169275
-0.00887563
0.0013099
-0.00907288
0.00117567
-0.00923598
0.000942681
-0.00938516
0.000832597
-0.00951267
0.000682133
-0.00962859
0.000595681
-0.00972991
0.000493456
-0.00982194
0.000426222
-0.00990363
0.000353762
-0.00997794
0.000301345
-0.0100446
0.00024814
-0.0101055
0.000206948
-0.0101605
0.000166709
-0.0102108
0.000133963
-0.0102567
0.000102667
-0.0102986
7.61547e-05
-0.0103366
5.11084e-05
-0.0103712
2.93365e-05
-0.0104041
9.21071e-06
-0.0104343
-9.21723e-06
-0.0104615
-2.69345e-05
-0.0104866
-4.25581e-05
-0.0105095
-5.73361e-05
-0.0105303
-7.10982e-05
-0.0105491
-8.4192e-05
-0.0105661
-9.65794e-05
-0.0105813
-0.000108549
-0.0105948
-0.000120188
-0.000131765
-0.00819003
0.00197335
-0.00841458
0.00153445
-0.00862638
0.00138747
-0.00880505
0.00112134
-0.00897075
0.000998302
-0.00911539
0.000826769
-0.0092486
0.000728889
-0.00936725
0.000612107
-0.00947651
0.000535485
-0.00957531
0.000452567
-0.00966663
0.000392659
-0.0097502
0.000331709
-0.00982781
0.000284563
-0.00989953
0.000238427
-0.00996649
0.00020092
-0.0100289
0.000165041
-0.0100874
0.000134705
-0.0101423
0.000105993
-0.0101939
8.09696e-05
-0.0102422
5.74773e-05
-0.0102879
3.64969e-05
-0.0103316
1.67332e-05
-0.0103737
-4.35105e-07
-0.0104127
-1.8352e-05
-0.0104496
-3.42107e-05
-0.0104846
-4.91226e-05
-0.0105178
-6.33821e-05
-0.0105491
-7.72485e-05
-0.0105787
-9.06423e-05
-0.00010385
-0.00765355
0.00227454
-0.00789471
0.00177562
-0.00812433
0.0016171
-0.0083229
0.00131991
-0.00850683
0.00118223
-0.00867075
0.00099069
-0.0088225
0.00088064
-0.00896025
0.000749859
-0.00908834
0.000663573
-0.00920617
0.000570394
-0.00931637
0.000502859
-0.00941885
0.000434193
-0.0095153
0.000381006
-0.00960581
0.000328939
-0.00969148
0.000286595
-0.0097725
0.000246063
-0.00984963
0.000211831
-0.00992309
0.000179448
-0.00999338
0.000151263
-0.0100606
0.000124682
-0.010125
0.000100913
-0.0101869
7.86021e-05
-0.0102457
5.84388e-05
-0.0103033
3.9165e-05
-0.0103588
2.12823e-05
-0.0104123
4.46434e-06
-0.0104637
-1.20402e-05
-0.010513
-2.79236e-05
-0.0105606
-4.30363e-05
-5.78601e-05
-0.00708156
0.00258782
-0.00733175
0.0020258
-0.00757223
0.00185758
-0.0077857
0.00153338
-0.00798865
0.00138518
-0.00817301
0.00117505
-0.00834753
0.00105515
-0.00850733
0.00090966
-0.00865807
0.000814313
-0.00879776
0.000710084
-0.00892988
0.000634978
-0.00905371
0.000558027
-0.00917142
0.000498713
-0.00928283
0.000440349
-0.00938931
0.000393073
-0.00949091
0.000347664
-0.00958852
0.000309441
-0.00968228
0.000273211
-0.00977278
0.000241764
-0.00986018
0.000212085
-0.00994492
0.000185649
-0.0100271
0.000160746
-0.0101067
0.000138041
-0.010184
0.000116486
-0.0102593
9.65887e-05
-0.0103324
7.75958e-05
-0.0104038
5.93384e-05
-0.0104732
4.15137e-05
-0.0105407
2.4427e-05
8.03813e-06
-0.0126692
0.00237836
0.0128786
-0.0125758
0.00193242
-0.0125697
0.00185152
-0.0125679
0.00153154
-0.0125998
0.00141708
-0.0126248
0.00120009
-0.012665
0.00109528
-0.0127
0.000944712
-0.0127409
0.000855179
-0.0127775
0.000746682
-0.0128154
0.000672878
-0.0128496
0.000592264
-0.0128831
0.000532193
-0.0129134
0.000470646
-0.0129421
0.000421744
-0.0129679
0.00037355
-0.0129919
0.000333419
-0.0130135
0.000294748
-0.0130331
0.00026137
-0.0130505
0.000229561
-0.0130662
0.000201325
-0.01308
0.000174501
-0.013092
0.000150057
-0.0131023
0.000126799
-0.013111
0.000105256
-0.0131179
8.4539e-05
-0.0131234
6.48089e-05
-0.0131275
4.56088e-05
-0.0131302
2.71377e-05
8.98247e-06
-0.0128883
0.00221482
0.0130518
-0.0128257
0.00186981
-0.0127567
0.00178254
-0.01274
0.00151482
-0.0127348
0.0014119
-0.0127469
0.00121216
-0.012765
0.00111339
-0.012788
0.000967705
-0.0128142
0.000881399
-0.012841
0.000773437
-0.0128687
0.000700622
-0.0128953
0.000618885
-0.0129215
0.000558415
-0.0129461
0.000495158
-0.0129694
0.000445128
-0.012991
0.000395081
-0.0130111
0.000353503
-0.0130293
0.000313017
-0.0130461
0.000278102
-0.0130611
0.000244594
-0.0130746
0.00021484
-0.0130865
0.00018643
-0.013097
0.000160558
-0.0131061
0.000135836
-0.0131137
0.000112847
-0.0131198
9.06912e-05
-0.0131246
6.96284e-05
-0.0131282
4.91463e-05
-0.0131304
2.93427e-05
9.73456e-06
-0.0130714
0.00206948
0.0132168
-0.0129989
0.00179729
-0.0129241
0.00170769
-0.0128928
0.00148354
-0.0128662
0.00138532
-0.0128631
0.00120904
-0.012864
0.00111433
-0.012875
0.000978717
-0.0128883
0.000894622
-0.0129054
0.000790613
-0.0129234
0.000718641
-0.0129425
0.000637973
-0.0129615
0.000577378
-0.0129802
0.000513829
-0.0129981
0.000463081
-0.0130152
0.000412125
-0.0130312
0.000369516
-0.013046
0.000327869
-0.0130597
0.000291788
-0.0130722
0.000257044
-0.0130834
0.000226081
-0.0130934
0.00019644
-0.0131022
0.000169386
-0.0131099
0.000143467
-0.0131163
0.000119292
-0.0131216
9.59601e-05
-0.0131257
7.37591e-05
-0.0131287
5.21351e-05
-0.0131305
3.11602e-05
1.03423e-05
-0.0132257
0.00194032
0.0133549
-0.0131415
0.0017131
-0.013066
0.00163216
-0.0130227
0.0014403
-0.0129857
0.00134827
-0.0129691
0.00119249
-0.0129575
0.00110266
-0.0129571
0.000978365
-0.0129596
0.000897055
-0.0129676
0.000798644
-0.012977
0.000728004
-0.0129888
0.000649802
-0.013001
0.00058958
-0.013014
0.000526805
-0.0130267
0.00047582
-0.0130393
0.000424745
-0.0130513
0.000381536
-0.0130628
0.000339315
-0.0130734
0.000302438
-0.0130833
0.0002669
-0.0130922
0.000235044
-0.0131003
0.000204513
-0.0131075
0.000176533
-0.0131137
0.000149684
-0.013119
0.000124566
-0.0131233
0.000100301
-0.0131267
7.71639e-05
-0.0131292
5.45896e-05
-0.0131306
3.264e-05
1.08352e-05
-0.0133515
0.00182155
0.0134703
-0.0132632
0.00162476
-0.0131864
0.00155545
-0.0131342
0.00138809
-0.0130906
0.00130461
-0.0130637
0.00116564
-0.0130429
0.00108184
-0.0130327
0.000968171
-0.0130264
0.000890705
-0.0130261
0.000798361
-0.013028
0.000729873
-0.013033
0.000654866
-0.0130391
0.000595673
-0.0130467
0.000534379
-0.0130546
0.000483697
-0.0130629
0.000433104
-0.0130711
0.000389746
-0.0130793
0.000347439
-0.013087
0.000310141
-0.0130943
0.000274202
-0.013101
0.00024177
-0.0131071
0.000210666
-0.0131126
0.000182021
-0.0131175
0.000154507
-0.0131216
0.00012868
-0.013125
0.000103709
-0.0131277
7.98393e-05
-0.0131296
5.65203e-05
-0.0131307
3.3802e-05
1.12232e-05
-0.0134542
0.00170935
0.0135664
-0.0133659
0.00153653
-0.0132883
0.00147787
-0.0132305
0.00133022
-0.0131817
0.00125587
-0.0131473
0.00113117
-0.0131195
0.0010541
-0.0131014
0.000950031
-0.0130878
0.000877177
-0.0130804
0.000790884
-0.0130758
0.000725284
-0.0130747
0.000653838
-0.0130754
0.000596302
-0.0130779
0.000536955
-0.0130814
0.000487101
-0.0130857
0.000437444
-0.0130903
0.000394373
-0.0130953
0.000352382
-0.0131001
0.000315028
-0.013105
0.000279029
-0.0131095
0.000246327
-0.0131138
0.000214941
-0.0131177
0.000185894
-0.0131211
0.000157965
-0.0131241
0.000131658
-0.0131266
0.000106199
-0.0131286
8.18005e-05
-0.01313
5.79415e-05
-0.0131308
3.46578e-05
1.15103e-05
-0.0135386
0.00160225
0.0136458
-0.013452
0.00144985
-0.0133742
0.00140014
-0.0133132
0.00126916
-0.0132606
0.00120333
-0.0132206
0.00109117
-0.0131874
0.0010209
-0.0131631
0.000925655
-0.0131437
0.000857761
-0.0131301
0.000777373
-0.01312
0.00071515
-0.0131136
0.000647462
-0.0131094
0.000592076
-0.0131075
0.000535004
-0.0131068
0.000486427
-0.0131074
0.000438059
-0.0131087
0.000395666
-0.0131106
0.000354325
-0.0131129
0.00031725
-0.0131153
0.000281493
-0.0131178
0.000248808
-0.0131203
0.000217405
-0.0131226
0.000188206
-0.0131247
0.000160098
-0.0131266
0.000133532
-0.0131282
0.000107796
-0.0131295
8.30706e-05
-0.0131304
5.88705e-05
-0.0131309
3.52185e-05
1.16995e-05
-0.0136084
0.00149981
0.0137108
-0.0135237
0.00136521
-0.0134465
0.00132291
-0.0133838
0.00120646
-0.0133287
0.0011482
-0.0132847
0.00104726
-0.0132473
0.000983469
-0.0132181
0.000896418
-0.0131939
0.000833533
-0.0131754
0.000758883
-0.0131605
0.000700288
-0.0131495
0.000636471
-0.013141
0.000583573
-0.013135
0.000529018
-0.0131307
0.000482066
-0.0131279
0.000435273
-0.0131261
0.000393887
-0.0131252
0.000353479
-0.013125
0.000316978
-0.0131252
0.000281728
-0.0131257
0.000249323
-0.0131265
0.000218144
-0.0131273
0.000189027
-0.0131281
0.000160959
-0.013129
0.000134346
-0.0131297
0.000108533
-0.0131303
8.36769e-05
-0.0131308
5.9327e-05
-0.013131
3.54964e-05
1.17945e-05
-0.0136658
0.00140188
0.0137637
-0.0135834
0.00128285
-0.0135072
0.0012467
-0.0134438
0.00114308
-0.013387
0.00109144
-0.0133404
0.00100062
-0.0132998
0.000942824
-0.0132668
0.000863414
-0.0132386
0.00080541
-0.0132161
0.000736315
-0.0131972
0.000681437
-0.0131823
0.000621539
-0.01317
0.00057134
-0.0131605
0.000519475
-0.0131528
0.000474409
-0.013147
0.000429416
-0.0131424
0.000389302
-0.013139
0.000350068
-0.0131364
0.000314396
-0.0131346
0.000279884
-0.0131332
0.000247994
-0.0131324
0.000217257
-0.0131318
0.000188438
-0.0131314
0.000160613
-0.0131312
0.000134151
-0.0131311
0.00010845
-0.0131311
8.36503e-05
-0.0131311
5.93332e-05
-0.0131311
3.5505e-05
1.17997e-05
-0.0137127
0.00130826
0.0138063
-0.0136328
0.00120293
-0.013558
0.00117189
-0.0134945
0.00107965
-0.0134369
0.0010338
-0.0133884
0.000952143
-0.0133454
0.000899821
-0.0133095
0.000827523
-0.0132783
0.000774176
-0.0132524
0.000710426
-0.0132302
0.000659252
-0.013212
0.000603268
-0.0131965
0.000555885
-0.0131839
0.000506826
-0.0131733
0.000463829
-0.0131647
0.000420813
-0.0131576
0.000382183
-0.0131518
0.000344321
-0.0131471
0.000309693
-0.0131433
0.000276122
-0.0131403
0.000244953
-0.0131379
0.000214854
-0.013136
0.000186526
-0.0131345
0.000159132
-0.0131334
0.000133004
-0.0131325
0.000107594
-0.0131319
8.30255e-05
-0.0131315
5.89133e-05
-0.0131312
3.52585e-05
1.17199e-05
-0.0137509
0.00121878
0.0138403
-0.0136734
0.00112551
-0.0136003
0.00109874
-0.0135373
0.00101662
-0.0134793
0.000975858
-0.0134297
0.000902487
-0.013385
0.000855151
-0.0133469
0.000789447
-0.0133132
0.0007405
-0.0132847
0.000681854
-0.0132597
0.00063431
-0.0132386
0.000582189
-0.0132204
0.000537671
-0.0132051
0.000491485
-0.0131919
0.000450682
-0.0131809
0.000409776
-0.0131715
0.000372792
-0.0131637
0.000336466
-0.013157
0.000303058
-0.0131515
0.000270602
-0.0131469
0.000240334
-0.0131431
0.000211047
-0.0131399
0.000183387
-0.0131374
0.000156592
-0.0131354
0.000130968
-0.0131338
0.000106013
-0.0131326
8.18395e-05
-0.0131318
5.80933e-05
-0.0131313
3.47725e-05
1.15602e-05
-0.0137816
0.00113321
0.0138671
-0.0137067
0.00105059
-0.0136353
0.00102742
-0.013573
0.000954315
-0.0135152
0.000918021
-0.0134649
0.000852152
-0.0134191
0.000809354
-0.0133794
0.000749749
-0.0133438
0.000704935
-0.0133131
0.000651135
-0.0132859
0.000607112
-0.0132625
0.000558765
-0.0132419
0.000517117
-0.0132242
0.000473828
-0.0132089
0.0004353
-0.0131957
0.000396595
-0.0131843
0.000361383
-0.0131745
0.000326722
-0.0131662
0.000294681
-0.013159
0.000263487
-0.013153
0.000234274
-0.0131479
0.000205953
-0.0131436
0.000179116
-0.0131401
0.000153073
-0.0131372
0.000128106
-0.013135
0.000103759
-0.0131333
8.0131e-05
-0.0131321
5.69005e-05
-0.0131314
3.40631e-05
1.1326e-05
-0.013806
0.00105131
0.0138879
-0.0137336
0.000978132
-0.0136642
0.000958
-0.0136028
0.00089294
-0.0135454
0.000860599
-0.0134947
0.00080152
-0.0134482
0.000762856
-0.0134074
0.000708882
-0.0133704
0.000667939
-0.013338
0.000618717
-0.0133089
0.000578085
-0.0132836
0.000533397
-0.013261
0.000494594
-0.0132414
0.000454192
-0.0132241
0.000417985
-0.013209
0.000381542
-0.0131959
0.000348192
-0.0131844
0.000315298
-0.0131745
0.000284742
-0.0131659
0.000254934
-0.0131586
0.000226908
-0.0131523
0.000199686
-0.013147
0.000173809
-0.0131426
0.000148657
-0.013139
0.000124486
-0.0131361
0.000100883
-0.0131339
7.79397e-05
-0.0131324
5.53628e-05
-0.0131314
3.31469e-05
1.10229e-05
-0.0138253
0.00097285
0.0139037
-0.0137552
0.000908049
-0.0136877
0.000890508
-0.0136274
0.000832639
-0.0135706
0.000803807
-0.01352
0.000750878
-0.0134731
0.000715988
-0.0134314
0.000667205
-0.0133934
0.000629884
-0.0133596
0.000584973
-0.0133291
0.000547591
-0.0133022
0.000506432
-0.013278
0.000470424
-0.0132567
0.000432877
-0.0132377
0.000399011
-0.013221
0.000364862
-0.0132063
0.000333442
-0.0131934
0.000302391
-0.013182
0.000273415
-0.0131722
0.000245093
-0.0131637
0.000218366
-0.0131563
0.000192357
-0.0131501
0.000167562
-0.0131449
0.000143421
-0.0131405
0.000120171
-0.0131371
9.74377e-05
-0.0131345
7.53057e-05
-0.0131326
5.35084e-05
-0.0131315
3.20406e-05
1.06564e-05
-0.0138402
0.000897578
0.0139154
-0.0137723
0.000840237
-0.0137068
0.000824917
-0.0136476
0.000773491
-0.0135916
0.00074779
-0.0135411
0.00070044
-0.0134942
0.000669001
-0.013452
0.000625004
-0.0134131
0.00059107
-0.0133784
0.000550212
-0.0133467
0.000515937
-0.0133185
0.000478165
-0.0132929
0.000444891
-0.0132702
0.000410148
-0.0132498
0.000378621
-0.0132317
0.00034678
-0.0132156
0.000317333
-0.0132014
0.00028818
-0.0131889
0.00026086
-0.0131779
0.000234107
-0.0131683
0.000208772
-0.01316
0.000184076
-0.0131529
0.000160466
-0.0131469
0.000137445
-0.013142
0.000115226
-0.013138
9.34752e-05
-0.013135
7.2268e-05
-0.0131328
5.1365e-05
-0.0131316
3.07607e-05
1.02319e-05
-0.0138514
0.000825253
0.0139237
-0.0137857
0.000774572
-0.013722
0.00076117
-0.013664
0.000715533
-0.0136089
0.000692638
-0.0135588
0.000650359
-0.0135119
0.000622083
-0.0134694
0.000582504
-0.0134301
0.000551738
-0.0133945
0.000514687
-0.013362
0.000483378
-0.0133327
0.00044885
-0.013306
0.000418236
-0.0132821
0.000386234
-0.0132605
0.000357033
-0.0132412
0.000327496
-0.0132239
0.000300051
-0.0132086
0.000272833
-0.013195
0.000247227
-0.013183
0.000222108
-0.0131724
0.000198245
-0.0131633
0.000174944
-0.0131554
0.000152611
-0.0131488
0.000130804
-0.0131433
0.000109714
-0.0131389
8.90449e-05
-0.0131355
6.88652e-05
-0.013133
4.89597e-05
-0.0131316
2.93235e-05
9.75488e-06
-0.0138597
0.000755634
0.0139293
-0.013796
0.000710919
-0.0137341
0.000699185
-0.0136773
0.000658766
-0.013623
0.0006384
-0.0135734
0.000600739
-0.0135267
0.000575375
-0.0134841
0.000539876
-0.0134444
0.000512079
-0.0134083
0.000478603
-0.0133751
0.000450122
-0.0133449
0.000418698
-0.0133174
0.000390668
-0.0132925
0.000361338
-0.0132699
0.000334436
-0.0132496
0.000307188
-0.0132313
0.00028176
-0.0132149
0.000256502
-0.0132004
0.000232653
-0.0131875
0.000209221
-0.0131761
0.000186893
-0.0131662
0.000165058
-0.0131577
0.000144079
-0.0131505
0.000123567
-0.0131445
0.000103693
-0.0131396
8.41949e-05
-0.0131359
6.51339e-05
-0.0131332
4.63187e-05
-0.0131317
2.77445e-05
9.23054e-06
-0.0138656
0.000688487
0.0139327
-0.0138038
0.000649135
-0.0137435
0.000638862
-0.0136878
0.000603163
-0.0136345
0.000585088
-0.0135854
0.000551649
-0.013539
0.000528971
-0.0134964
0.000497252
-0.0134566
0.00047224
-0.0134201
0.000442127
-0.0133863
0.000416344
-0.0133555
0.000387886
-0.0133272
0.000362362
-0.0133015
0.00033563
-0.0132781
0.000310996
-0.0132569
0.000286013
-0.0132377
0.000262606
-0.0132206
0.000239322
-0.0132052
0.000217264
-0.0131915
0.000195558
-0.0131794
0.000174818
-0.0131689
0.000154507
-0.0131597
0.000134949
-0.013152
0.000115802
-0.0131455
9.72199e-05
-0.0131403
7.89705e-05
-0.0131363
6.11094e-05
-0.0131334
4.34668e-05
-0.0131317
2.60387e-05
8.66382e-06
-0.0138695
0.000623584
0.0139344
-0.0138094
0.000589074
-0.0137507
0.000580093
-0.0136962
0.00054868
-0.0136438
0.000532693
-0.0135953
0.000503124
-0.0135492
0.000482937
-0.0135067
0.000454726
-0.0134668
0.000432336
-0.0134301
0.000405389
-0.0133959
0.000382182
-0.0133646
0.000356563
-0.0133357
0.000333467
-0.0133093
0.00030926
-0.0132852
0.000286856
-0.0132633
0.000264109
-0.0132434
0.00024272
-0.0132255
0.000221415
-0.0132094
0.000201171
-0.013195
0.000181221
-0.0131823
0.000162112
-0.0131712
0.000143373
-0.0131615
0.000125293
-0.0131533
0.000107572
-0.0131464
9.03467e-05
-0.0131409
7.34145e-05
-0.0131366
5.68246e-05
-0.0131336
4.04276e-05
-0.0131317
2.42203e-05
8.05944e-06
-0.0138719
0.000560703
0.0139348
-0.0138134
0.000530585
-0.0137561
0.000522756
-0.0137026
0.000495253
-0.0136511
0.000481181
-0.0136032
0.000455175
-0.0135576
0.000437308
-0.0135152
0.000412366
-0.0134753
0.000392449
-0.0134384
0.000368493
-0.013404
0.00034775
-0.0133723
0.000324847
-0.0133429
0.000304105
-0.013316
0.000282352
-0.0132913
0.00026214
-0.0132688
0.000241597
-0.0132483
0.000222217
-0.0132297
0.00020289