/*--------------------------------*- C++ -*----------------------------------*\
  =========                 |
  \\      /  F ield         | OpenFOAM: The Open Source CFD Toolbox
   \\    /   O peration     | Website:  https://openfoam.org
    \\  /    A nd           | Version:  7
     \\/     M anipulation  |
\*---------------------------------------------------------------------------*/
FoamFile
{
    version     2.0;
    format      ascii;
    class       surfaceScalarField;
    location    "55";
    object      phi;
}
// * * * * * * * * * * * * * * * * * * * * * * * * * * * * * * * * * * * * * //

dimensions      [0 3 -1 0 0 0 0];

internalField   nonuniform List<scalar> 
11835
(
0.00169882
0.00253924
0.00139145
0.00222875
0.00111084
0.00191915
0.00136915
0.000672716
0.000860438
0.00161955
0.00111745
0.000489592
0.000641362
0.00133653
0.000885756
0.000334623
0.000453039
0.00107408
0.00054554
0.000130283
0.000674833
0.00020533
0.000293903
0.000833969
0.000378076
3.98169e-05
0.000484302
9.91046e-05
0.000161972
0.000616232
0.000227406
-3.15168e-05
0.000313007
1.35031e-05
5.52431e-05
0.000419736
9.21449e-05
-8.5863e-05
0.000159477
-5.38294e-05
-2.80077e-05
0.000242728
-6.84142e-05
-0.000148715
-2.90876e-05
-0.00012519
2.30533e-05
-0.00010597
-8.79703e-05
8.30159e-05
-0.000163294
-0.000167215
-0.000136735
-0.000151749
-0.000102051
-0.000140654
-0.000131091
-5.89305e-05
-0.000247788
-0.00017544
-0.000233237
-0.0001663
-0.000212741
-0.00016115
-0.000159345
-0.000184487
-0.000322587
-0.0001745
-0.00031881
-0.000170077
-0.000310706
-0.000169254
-0.000172731
-0.00029732
-0.000388078
-0.000165446
-0.000393848
-0.000164308
-0.000396751
-0.000166351
-0.00017279
-0.000396691
-0.000444441
-0.000149321
-0.000458518
-0.000150231
-0.000471015
-0.000153854
-0.000161425
-0.000482381
-0.000491695
-0.000127199
-0.000512799
-0.000129128
-0.000533398
-0.000133254
-0.000140609
-0.000554214
-0.000529758
-0.000100203
-0.000556555
-0.000102331
-0.000583697
-0.000106112
-0.000112299
-0.000612007
-0.000527798
-6.8606e-05
-0.0005585
-6.9501e-05
-0.000589609
-7.12218e-05
-0.000621689
-7.40317e-05
-7.84101e-05
-0.000655578
-0.00054459
-3.57921e-05
-0.000577786
-3.63048e-05
-0.000611791
-3.72164e-05
-0.000647176
-3.86469e-05
-4.08216e-05
-0.000684765
-0.000553061
-0.000587514
-0.000622974
-0.000660015
-0.000699448
0.000868848
0.0125978
-0.000833948
0.000865942
0.0127207
0.000849386
0.012706
0.000827291
0.0126509
0.000801745
0.0125831
0.000773659
0.0125109
0.000743665
0.0124386
0.000712308
0.0123693
0.000680026
0.0123043
0.000647123
0.012244
0.00061381
0.012188
0.000580246
0.0121359
0.00054656
0.0120871
0.000512863
0.0120416
0.000479242
0.0119992
0.000445768
0.0119597
0.000412491
0.0119231
0.000379446
0.0118893
0.000346653
0.0118584
0.000314121
0.0118302
0.000281849
0.0118047
0.000249829
0.0117818
0.000218046
0.0117616
0.000186478
0.011744
0.000155101
0.0117289
0.000123887
0.0117164
9.28051e-05
0.0117064
6.18182e-05
0.0116989
3.08898e-05
0.0116939
0.0116915
0.000799212
0.0125564
-0.000757868
0.000802011
0.0127179
0.000788865
0.0127191
0.000769487
0.0126703
0.000746874
0.0126057
0.000721936
0.0125358
0.000695174
0.0124654
0.000667038
0.0123974
0.000637908
0.0123334
0.000608056
0.0122738
0.000577674
0.0122184
0.000546912
0.0121666
0.000515893
0.0121182
0.000484727
0.0120728
0.000453505
0.0120304
0.000422304
0.0119909
0.000391182
0.0119542
0.000360181
0.0119203
0.000329332
0.0118892
0.000298652
0.0118608
0.000268151
0.0118352
0.000237828
0.0118121
0.000207678
0.0117918
0.000177688
0.011774
0.000147844
0.0117588
0.000118124
0.0117461
8.85054e-05
0.011736
5.89628e-05
0.0117284
2.94615e-05
0.0117234
0.011721
0.000730225
0.0125108
-0.000684606
0.000738529
0.0127095
0.00072957
0.0127281
0.000713513
0.0126863
0.000693933
0.0126253
0.000671994
0.0125578
0.000648233
0.0124892
0.000623074
0.0124226
0.000596862
0.0123596
0.00056985
0.0123008
0.000542216
0.012246
0.000514097
0.0121947
0.000485612
0.0121466
0.000456867
0.0121015
0.000427956
0.0120593
0.000398957
0.0120199
0.000369933
0.0119832
0.000340934
0.0119493
0.000311997
0.0119182
0.000283148
0.0118897
0.000254402
0.0118639
0.000225769
0.0118408
0.00019725
0.0118203
0.000168841
0.0118024
0.000140534
0.0117871
0.000112317
0.0117743
8.41729e-05
0.0117642
5.60843e-05
0.0117565
2.80251e-05
0.0117514
0.011749
0.000663692
0.0124624
-0.000615285
0.000676509
0.0126967
0.000671528
0.0127331
0.000658832
0.012699
0.000642318
0.0126418
0.000623313
0.0125768
0.000602425
0.0125101
0.000580088
0.0124449
0.000556638
0.0123831
0.000532316
0.0123252
0.000507291
0.0122711
0.000481693
0.0122203
0.000455638
0.0121727
0.000429227
0.0121279
0.000402554
0.012086
0.000375698
0.0120467
0.000348726
0.0120102
0.000321694
0.0119764
0.000294642
0.0119452
0.000267605
0.0119167
0.000240603
0.0118909
0.000213653
0.0118677
0.000186764
0.0118472
0.000159938
0.0118292
0.000133174
0.0118138
0.000106467
0.0118011
7.98072e-05
0.0117908
5.31834e-05
0.0117831
2.65787e-05
0.011778
0.0117756
0.000600177
0.0124119
-0.000549727
0.000616655
0.0126803
0.000615137
0.0127346
0.000605529
0.0127086
0.000591906
0.0126554
0.000575706
0.012593
0.000557569
0.0125282
0.000537929
0.0124645
0.000517115
0.0124039
0.000495362
0.0123469
0.000472834
0.0122936
0.000449657
0.0122435
0.000425943
0.0121964
0.00040179
0.0121521
0.000377291
0.0121105
0.000352527
0.0120715
0.000327566
0.0120351
0.000302467
0.0120015
0.000277277
0.0119704
0.000252033
0.011942
0.000226764
0.0119162
0.000201491
0.011893
0.000176229
0.0118724
0.000150988
0.0118545
0.000125771
0.0118391
0.00010058
0.0118262
7.54127e-05
0.011816
5.0263e-05
0.0118083
2.51221e-05
0.0118032
0.0118007
0.000539447
0.01236
-0.0004875
0.000559054
0.0126606
0.00056061
0.012733
0.000553795
0.0127154
0.000542825
0.0126664
0.000529241
0.0126066
0.0005137
0.0125437
0.000496622
0.0124816
0.00047832
0.0124222
0.00045902
0.0123662
0.000438884
0.0123137
0.000418034
0.0122644
0.000396576
0.0122179
0.000374608
0.0121741
0.000352221
0.0121328
0.000329495
0.0120942
0.000306501
0.0120581
0.000283301
0.0120247
0.000259945
0.0119938
0.000236474
0.0119654
0.000212922
0.0119397
0.000189315
0.0119166
0.000165675
0.0118961
0.000142014
0.0118781
0.000118344
0.0118627
9.46725e-05
0.0118499
7.10012e-05
0.0118397
4.73309e-05
0.011832
2.36593e-05
0.0118269
0.0118244
0.000481132
0.0123071
-0.000428237
0.000503508
0.0126383
0.00050792
0.0127286
0.000503694
0.0127197
0.00049518
0.0126749
0.000484029
0.0126177
0.000470922
0.0125568
0.00045626
0.0124963
0.00044034
0.0124381
0.000423376
0.0123832
0.000405525
0.0123316
0.000386904
0.012283
0.000367617
0.0122372
0.000347759
0.0121939
0.000327417
0.0121532
0.000306674
0.012115
0.0002856
0.0120792
0.000264259
0.012046
0.000242704
0.0120153
0.00022098
0.0119872
0.000199124
0.0119616
0.000177168
0.0119386
0.000155137
0.0119181
0.000133049
0.0119002
0.000110921
0.0118849
8.87649e-05
0.0118721
6.65885e-05
0.0118618
4.43974e-05
0.0118542
2.21955e-05
0.0118491
0.0118466
0.000425023
0.0122538
-0.000371704
0.000449835
0.0126135
0.000456934
0.0127215
0.000455175
0.0127214
0.000448983
0.0126811
0.000440119
0.0126266
0.000429299
0.0125677
0.000416915
0.0125087
0.000403248
0.0124518
0.000388503
0.0123979
0.000372829
0.0123472
0.000356342
0.0122995
0.000339139
0.0122544
0.000321313
0.0122117
0.00030295
0.0121716
0.00028413
0.0121338
0.000264925
0.0120984
0.000245399
0.0120655
0.000225608
0.0120351
0.000205601
0.0120072
0.000185416
0.0119818
0.00016509
0.0119589
0.000144651
0.0119385
0.000124123
0.0119207
0.000103526
0.0119055
8.28775e-05
0.0118927
6.21894e-05
0.0118825
4.14724e-05
0.0118749
2.0736e-05
0.0118698
0.0118673
0.000371037
0.0122005
-0.000317744
0.000397954
0.0125865
0.000407562
0.0127119
0.000408164
0.0127208
0.000404193
0.012685
0.000397501
0.0126333
0.000388843
0.0125763
0.000378613
0.0125189
0.000367081
0.0124633
0.000354444
0.0124106
0.000340847
0.0123608
0.000326399
0.0123139
0.000311195
0.0122696
0.000295325
0.0122276
0.000278872
0.012188
0.000261915
0.0121507
0.000244526
0.0121158
0.00022677
0.0120833
0.000208704
0.0120532
0.000190378
0.0120255
0.000171835
0.0120003
0.000153114
0.0119776
0.000134247
0.0119574
0.000115261
0.0119397
9.6181e-05
0.0119245
7.70271e-05
0.0119119
5.78166e-05
0.0119017
3.85645e-05
0.0118941
1.92848e-05
0.0118891
0.0118866
0.000319158
0.0121476
-0.000266257
0.000347858
0.0125578
0.000359776
0.0127
0.000362616
0.012718
0.000360766
0.0126869
0.000356145
0.0126379
0.000349543
0.0125829
0.000341358
0.0125271
0.000331853
0.0124728
0.000321222
0.0124212
0.000309604
0.0123725
0.000297106
0.0123264
0.00028382
0.0122829
0.000269831
0.0122416
0.000255221
0.0122026
0.000240067
0.0121659
0.00022444
0.0121314
0.000208406
0.0120993
0.000192023
0.0120696
0.000175343
0.0120422
0.000158411
0.0120172
0.000141268
0.0119948
0.000123948
0.0119747
0.000106484
0.0119572
8.89026e-05
0.0119421
7.12278e-05
0.0119295
5.34808e-05
0.0119195
3.56805e-05
0.0119119
1.78453e-05
0.0119069
0.0119044
0.000269333
0.0120954
-0.000217115
0.000299542
0.0125276
0.000313566
0.012686
0.000318512
0.012713
0.000318681
0.0126867
0.000316032
0.0126405
0.000311385
0.0125876
0.000305143
0.0125333
0.000297568
0.0124804
0.000288847
0.0124299
0.000279119
0.0123822
0.000268487
0.0123371
0.00025704
0.0122943
0.00024486
0.0122538
0.000232027
0.0122155
0.000218616
0.0121793
0.000204699
0.0121454
0.000190339
0.0121137
0.000175597
0.0120843
0.000160524
0.0120573
0.000145169
0.0120326
0.000129574
0.0120104
0.000113776
0.0119905
9.78101e-05
0.0119731
8.17063e-05
0.0119582
6.54918e-05
0.0119458
4.91911e-05
0.0119358
3.28267e-05
0.0119283
1.64205e-05
0.0119233
0.0119209
0.000221543
0.0120441
-0.000170257
0.000253017
0.0124962
0.000268928
0.0126701
0.000275844
0.0127061
0.000277931
0.0126846
0.000277158
0.0126413
0.000274366
0.0125904
0.000269969
0.0125377
0.000264229
0.0124861
0.00025733
0.0124368
0.000249406
0.0123901
0.00024056
0.0123459
0.000230876
0.012304
0.000220435
0.0122642
0.000209315
0.0122266
0.000197589
0.012191
0.000185328
0.0121576
0.000172594
0.0121264
0.000159449
0.0120974
0.000145945
0.0120708
0.000132131
0.0120464
0.000118053
0.0120244
0.000103748
0.0120048
8.92551e-05
0.0119876
7.46056e-05
0.0119729
5.98301e-05
0.0119605
4.49559e-05
0.0119507
3.00085e-05
0.0119432
1.50134e-05
0.0119383
0.0119359
0.00017569
0.011994
-0.000125591
0.000208269
0.0124636
0.000225839
0.0126525
0.000234609
0.0126973
0.000238523
0.0126807
0.000239525
0.0126403
0.000238486
0.0125914
0.000235838
0.0125404
0.000231843
0.0124901
0.00022668
0.012442
0.000220479
0.0123963
0.00021334
0.012353
0.000205347
0.012312
0.000196579
0.012273
0.000187109
0.012236
0.00017701
0.0122011
0.00016635
0.0121683
0.000155195
0.0121376
0.000143602
0.012109
0.000131627
0.0120827
0.000119319
0.0120587
0.000106723
0.012037
9.38821e-05
0.0120177
8.08336e-05
0.0120007
6.76129e-05
0.0119861
5.42526e-05
0.0119739
4.07825e-05
0.0119641
2.7231e-05
0.0119568
1.36264e-05
0.0119519
0.0119495
0.000131864
0.0119451
-8.29986e-05
0.00016531
0.0124301
0.000184295
0.0126335
0.000194811
0.0126868
0.000200459
0.0126751
0.000203129
0.0126376
0.000203742
0.0125908
0.000202752
0.0125413
0.000200417
0.0124925
0.000196906
0.0124455
0.000192349
0.0124009
0.000186843
0.0123585
0.000180471
0.0123184
0.000173307
0.0122802
0.000165426
0.0122439
0.000156897
0.0122096
0.000147788
0.0121774
0.000138161
0.0121472
0.000128077
0.0121191
0.000117589
0.0120932
0.000106748
0.0120696
9.56016e-05
0.0120482
8.41917e-05
0.0120291
7.25586e-05
0.0120123
6.07392e-05
0.0119979
4.87682e-05
0.0119859
3.66778e-05
0.0119762
2.44987e-05
0.011969
1.22617e-05
0.0119642
0.0119618
8.99946e-05
0.0118973
-4.21653e-05
0.000124072
0.0123961
0.000144306
0.0126133
0.000156481
0.0126747
0.000163746
0.0126678
0.000167956
0.0126334
0.000170126
0.0125886
0.000170712
0.0125408
0.000169953
0.0124932
0.000168014
0.0124474
0.000165024
0.0124039
0.000161078
0.0123625
0.000156258
0.0123232
0.000150636
0.0122858
0.000144283
0.0122503
0.000137268
0.0122167
0.000129656
0.012185
0.00012151
0.0121553
0.000112889
0.0121277
0.000103847
0.0121023
9.44357e-05
0.012079
8.4702e-05
0.0120579
7.469e-05
0.0120391
6.44412e-05
0.0120226
5.3994e-05
0.0120084
4.33848e-05
0.0119965
3.26478e-05
0.011987
2.18157e-05
0.0119798
1.09216e-05
0.011975
0.0119727
5.07694e-05
0.0118496
-3.0759e-06
8.45122e-05
0.0123623
0.00010593
0.0125919
0.000119723
0.0126609
0.000128343
0.0126592
0.000133976
0.0126278
0.000137635
0.012585
0.000139717
0.0125387
0.00014045
0.0124925
0.000140005
0.0124479
0.000138508
0.0124054
0.000136053
0.0123649
0.000132719
0.0123265
0.000128575
0.0122899
0.000123692
0.0122552
0.000118135
0.0122222
0.000111969
0.0121912
0.000105256
0.012162
9.80528e-05
0.0121349
9.04151e-05
0.0121099
8.23936e-05
0.012087
7.40362e-05
0.0120663
6.5388e-05
0.0120477
5.64911e-05
0.0120315
4.73856e-05
0.0120175
3.81091e-05
0.0120058
2.86975e-05
0.0119964
1.91854e-05
0.0119893
9.60757e-06
0.0119846
0.0119823
1.37563e-05
0.0118041
3.17863e-05
4.65437e-05
0.0123295
6.91787e-05
0.0125692
8.42895e-05
0.0126457
9.41612e-05
0.0126493
0.000101187
0.0126208
0.000106267
0.0125799
0.000109757
0.0125352
0.000111903
0.0124903
0.000112877
0.0124469
0.000112802
0.0124054
0.000111771
0.012366
0.000109858
0.0123284
0.000107133
0.0122927
0.000103661
0.0122586
9.95087e-05
0.0122264
9.47378e-05
0.0121959
8.9409e-05
0.0121674
8.35795e-05
0.0121408
7.73037e-05
0.0121162
7.06326e-05
0.0120937
6.36144e-05
0.0120733
5.62947e-05
0.0120551
4.87165e-05
0.012039
4.09209e-05
0.0120253
3.29469e-05
0.0120137
2.48314e-05
0.0120045
1.66107e-05
0.0119975
8.32124e-06
0.0119929
0.0119906
-2.27345e-05
0.0117605
6.62535e-05
9.86032e-06
0.0122969
3.4038e-05
0.0125451
5.00688e-05
0.0126297
6.11373e-05
0.0126382
6.95962e-05
0.0126123
7.60093e-05
0.0125735
8.082e-05
0.0125304
8.43015e-05
0.0124869
8.66243e-05
0.0124446
8.7905e-05
0.0124042
8.8232e-05
0.0123656
8.7679e-05
0.012329
8.63126e-05
0.012294
8.41974e-05
0.0122607
8.13962e-05
0.0122292
7.79702e-05
0.0121994
7.39787e-05
0.0121714
6.94781e-05
0.0121453
6.4522e-05
0.0121211
5.91614e-05
0.012099
5.34447e-05
0.012079
4.74178e-05
0.0120611
4.11243e-05
0.0120453
3.4606e-05
0.0120318
2.79029e-05
0.0120204
2.10531e-05
0.0120113
1.40942e-05
0.0120045
7.06383e-06
0.0119999
0.0119977
-5.76699e-05
0.011719
9.9242e-05
-2.43561e-05
0.0122636
7.04844e-07
0.01252
1.70431e-05
0.0126134
2.95343e-05
0.0126258
3.92169e-05
0.0126026
4.68288e-05
0.0125659
5.28834e-05
0.0125243
5.76359e-05
0.0124821
6.12414e-05
0.012441
6.38121e-05
0.0124016
6.54349e-05
0.012364
6.61817e-05
0.0123282
6.61173e-05
0.0122941
6.53039e-05
0.0122616
6.38023e-05
0.0122307
6.16722e-05
0.0122015
5.89714e-05
0.0121741
5.57553e-05
0.0121485
5.2077e-05
0.0121248
4.79872e-05
0.0121031
4.3534e-05
0.0120835
3.87636e-05
0.0120659
3.372e-05
0.0120504
2.84457e-05
0.012037
2.29812e-05
0.0120259
1.73658e-05
0.0120169
1.1638e-05
0.0120102
5.83642e-06
0.0120057
0.0120035
-9.06167e-05
0.0116791
0.000130521
-5.72868e-05
0.0122303
-3.24901e-05
0.0124952
-1.45078e-05
0.0125954
-6.75702e-07
0.0126119
9.95744e-06
0.012592
1.87012e-05
0.0125571
2.59386e-05
0.0125171
3.18967e-05
0.0124761
3.67187e-05
0.0124362
4.05165e-05
0.0123978
4.33751e-05
0.0123612
4.53643e-05
0.0123262
4.65466e-05
0.0122929
4.69822e-05
0.0122611
4.67298e-05
0.0122309
4.58475e-05
0.0122024
4.43916e-05
0.0121755
4.24163e-05
0.0121505
3.99742e-05
0.0121273
3.71152e-05
0.012106
3.38874e-05
0.0120867
3.0337e-05
0.0120694
2.65082e-05
0.0120542
2.24439e-05
0.0120411
1.81852e-05
0.0120302
1.3772e-05
0.0120214
9.24373e-06
0.0120148
4.63988e-06
0.0120104
0.0120082
-0.00012194
0.0116408
0.000160164
-8.89566e-05
0.0121973
-6.36682e-05
0.0124699
-4.4683e-05
0.0125764
-3.01192e-05
0.0125974
-1.82633e-05
0.0125801
-8.38715e-06
0.0125472
-1.87347e-08
0.0125087
7.07072e-06
0.0124691
1.3045e-05
0.0124302
1.80098e-05
0.0123928
2.20465e-05
0.0123571
2.52225e-05
0.0123231
2.75983e-05
0.0122905
2.92318e-05
0.0122595
3.01797e-05
0.01223
3.04982e-05
0.0122021
3.0242e-05
0.0121758
2.94645e-05
0.0121512
2.82172e-05
0.0121285
2.65495e-05
0.0121076
2.45091e-05
0.0120887
2.21419e-05
0.0120718
1.94925e-05
0.0120569
1.66038e-05
0.012044
1.35174e-05
0.0120332
1.02737e-05
0.0120246
6.91286e-06
0.0120181
3.47493e-06
0.0120138
0.0120116
-0.000151723
0.0116043
0.000188268
-0.000119146
0.0121647
-9.34476e-05
0.0124442
-7.37508e-05
0.0125567
-5.82071e-05
0.0125818
-4.53827e-05
0.0125673
-3.44666e-05
0.0125363
-2.50414e-05
0.0124993
-1.68658e-05
0.0124609
-9.79409e-06
0.0124231
-3.71879e-06
0.0123867
1.44092e-06
0.012352
5.75071e-06
0.0123188
9.26864e-06
0.012287
1.20504e-05
0.0122567
1.41509e-05
0.0122279
1.56244e-05
0.0122006
1.65239e-05
0.0121749
1.69018e-05
0.0121509
1.68085e-05
0.0121286
1.62927e-05
0.0121082
1.54017e-05
0.0120896
1.41812e-05
0.012073
1.26756e-05
0.0120584
1.09279e-05
0.0120458
8.9799e-06
0.0120352
6.87259e-06
0.0120267
4.64646e-06
0.0120203
2.34211e-06
0.0120161
0.012014
-0.000180007
0.0115694
0.000214911
-0.000147895
0.0121326
-0.000121952
0.0124183
-0.000101577
0.0125363
-8.51591e-05
0.0125654
-7.14151e-05
0.0125536
-5.9539e-05
0.0125244
-4.91177e-05
0.0124889
-3.9924e-05
0.0124517
-3.18128e-05
0.012415
-2.46811e-05
0.0123796
-1.84506e-05
0.0123457
-1.30582e-05
0.0123134
-8.44764e-06
0.0122824
-4.56565e-06
0.0122528
-1.35948e-06
0.0122247
1.22392e-06
0.012198
3.2366e-06
0.0121729
4.72849e-06
0.0121494
5.74904e-06
0.0121276
6.34633e-06
0.0121076
6.56704e-06
0.0120894
6.45656e-06
0.0120731
6.0591e-06
0.0120588
5.41781e-06
0.0120464
4.57409e-06
0.012036
3.56975e-06
0.0120277
2.44537e-06
0.0120215
1.24186e-06
0.0120173
0.0120152
-0.000206858
0.0115361
0.000240165
-0.000175295
0.0121011
-0.000149195
0.0123922
-0.000128202
0.0125153
-0.000111015
0.0125482
-9.64092e-05
0.012539
-8.36318e-05
0.0125117
-7.22768e-05
0.0124775
-6.21216e-05
0.0124415
-5.30258e-05
0.0124059
-4.48901e-05
0.0123715
-3.76396e-05
0.0123385
-3.12133e-05
0.0123069
-2.55574e-05
0.0122767
-2.06207e-05
0.0122479
-1.63522e-05
0.0122204
-1.27016e-05
0.0121943
-9.61888e-06
0.0121698
-7.05448e-06
0.0121468
-4.9601e-06
0.0121255
-3.2886e-06
0.0121059
-1.99398e-06
0.0120881
-1.03131e-06
0.0120721
-3.56708e-07
0.0120581
7.27952e-08
0.012046
3.00242e-07
0.0120358
3.65528e-07
0.0120277
3.09808e-07
0.0120215
1.74365e-07
0.0120174
0.0120154
-0.000232357
0.0115043
0.000264106
-0.000201413
0.0120701
-0.000175212
0.012366
-0.000153697
0.0124938
-0.000135804
0.0125303
-0.000120401
0.0125236
-0.000106778
0.012498
-9.45431e-05
0.0124653
-8.34792e-05
0.0124305
-7.345e-05
0.0123959
-6.43601e-05
0.0123624
-5.61376e-05
0.0123303
-4.87243e-05
0.0122995
-4.20688e-05
0.0122701
-3.6122e-05
0.0122419
-3.08352e-05
0.0122151
-2.61598e-05
0.0121897
-2.20473e-05
0.0121657
-1.84497e-05
0.0121432
-1.53199e-05
0.0121224
-1.26116e-05
0.0121032
-1.02795e-05
0.0120858
-8.27913e-06
0.0120701
-6.56703e-06
0.0120564
-5.10041e-06
0.0120445
-3.83792e-06
0.0120345
-2.73765e-06
0.0120266
-1.75868e-06
0.0120205
-8.59781e-07
0.0120165
0.0120145
-0.000256588
0.0114741
0.000286815
-0.000226308
0.0120398
-0.000200063
0.0123397
-0.000178102
0.0124719
-0.000159564
0.0125118
-0.000143422
0.0125074
-0.000129007
0.0124836
-0.000115943
0.0124522
-0.000104019
0.0124185
-9.31043e-05
0.012385
-8.31067e-05
0.0123524
-7.39579e-05
0.0123211
-6.56022e-05
0.0122912
-5.79907e-05
0.0122625
-5.10765e-05
0.012235
-4.48131e-05
0.0122089
-3.91536e-05
0.012184
-3.40513e-05
0.0121606
-2.94597e-05
0.0121386
-2.53327e-05
0.0121182
-2.16251e-05
0.0120995
-1.82923e-05
0.0120824
-1.52904e-05
0.0120671
-1.25764e-05
0.0120537
-1.0108e-05
0.012042
-7.84344e-06
0.0120323
-5.7415e-06
0.0120244
-3.76106e-06
0.0120186
-1.86086e-06
0.0120146
0.0120127
-0.000279632
0.0114454
0.000308378
-0.000250043
0.0120102
-0.000223808
0.0123135
-0.000201465
0.0124495
-0.000182338
0.0124927
-0.000165509
0.0124906
-0.000150351
0.0124685
-0.000136504
0.0124384
-0.000123765
0.0124058
-0.000112008
0.0123732
-0.000101147
0.0123415
-9.11145e-05
0.0123111
-8.18587e-05
0.0122819
-7.33327e-05
0.0122539
-6.5492e-05
0.0122272
-5.82921e-05
0.0122017
-5.16881e-05
0.0121774
-4.56349e-05
0.0121545
-4.00873e-05
0.0121331
-3.50005e-05
0.0121131
-3.03303e-05
0.0120948
-2.60328e-05
0.0120781
-2.20649e-05
0.0120632
-1.8384e-05
0.01205
-1.4948e-05
0.0120386
-1.17156e-05
0.012029
-8.64558e-06
0.0120214
-5.69706e-06
0.0120156
-2.8288e-06
0.0120118
0.0120098
-0.000301572
0.011418
0.000328886
-0.000272685
0.0119814
-0.000246508
0.0122873
-0.000223835
0.0124269
-0.000204169
0.012473
-0.000186698
0.0124731
-0.00017084
0.0124526
-0.000156252
0.0124238
-0.00014274
0.0123923
-0.000130183
0.0123606
-0.000118498
0.0123298
-0.000107622
0.0123002
-9.7506e-05
0.0122718
-8.81052e-05
0.0122445
-7.93771e-05
0.0122185
-7.12794e-05
0.0121936
-6.3769e-05
0.0121699
-5.68025e-05
0.0121475
-5.0336e-05
0.0121266
-4.4326e-05
0.0121071
-3.87291e-05
0.0120892
-3.35025e-05
0.0120729
-2.86036e-05
0.0120583
-2.39902e-05
0.0120454
-1.96209e-05
0.0120342
-1.54545e-05
0.0120249
-1.145e-05
0.0120174
-7.56676e-06
0.0120117
-3.76364e-06
0.012008
0.0120061
-0.00032249
0.0113921
0.000348427
-0.000294307
0.0119532
-0.000268222
0.0122612
-0.000245263
0.0124039
-0.0002251
0.0124528
-0.000207027
0.0124551
-0.000190507
0.0124361
-0.000175216
0.0124085
-0.000160968
0.012378
-0.000147648
0.0123473
-0.000135177
0.0123174
-0.000123496
0.0122885
-0.000112557
0.0122609
-0.000102319
0.0122343
-9.27406e-05
0.0122089
-8.37823e-05
0.0121846
-7.54024e-05
0.0121615
-6.7559e-05
0.0121397
-6.02098e-05
0.0121193
-5.33123e-05
0.0121002
-4.68242e-05
0.0120827
-4.07033e-05
0.0120668
-3.49079e-05
0.0120525
-2.93964e-05
0.0120399
-2.41276e-05
0.012029
-1.90607e-05
0.0120198
-1.41552e-05
0.0120125
-9.37039e-06
0.0120069
-4.66548e-06
0.0120033
0.0120014
-0.000342469
0.0113675
0.000367092
-0.00031498
0.0119257
-0.000289011
0.0122353
-0.000265798
0.0123807
-0.000245173
0.0124322
-0.000226532
0.0124364
-0.000209383
0.0124189
-0.000193422
0.0123925
-0.000178472
0.0123631
-0.000164423
0.0123333
-0.000151201
0.0123041
-0.00013875
0.0122761
-0.000127024
0.0122491
-0.000115984
0.0122233
-0.000105592
0.0121985
-9.58084e-05
0.0121748
-8.65946e-05
0.0121523
-7.79098e-05
0.012131
-6.97131e-05
0.0121111
-6.1963e-05
0.0120925
-5.46183e-05
0.0120754
-4.76375e-05
0.0120598
-4.09797e-05
0.0120458
-3.46037e-05
0.0120335
-2.8469e-05
0.0120228
-2.25351e-05
0.0120139
-1.67616e-05
0.0120067
-1.11083e-05
0.0120013
-5.53447e-06
0.0119977
0.0119959
-0.000361589
0.0113441
0.000384968
-0.000334774
0.0118989
-0.000308933
0.0122094
-0.00028549
0.0123572
-0.000264431
0.0124111
-0.000245249
0.0124172
-0.000227499
0.0124012
-0.000210898
0.0123759
-0.000195276
0.0123475
-0.00018053
0.0123185
-0.000166589
0.0122902
-0.0001534
0.0122629
-0.00014092
0.0122366
-0.000129112
0.0122115
-0.00011794
0.0121873
-0.000107366
0.0121642
-9.73522e-05
0.0121423
-8.78603e-05
0.0121215
-7.88503e-05
0.012102
-7.02818e-05
0.0120839
-6.21144e-05
0.0120672
-5.43076e-05
0.012052
-4.68209e-05
0.0120383
-3.96139e-05
0.0120263
-3.26464e-05
0.0120159
-2.58784e-05
0.0120071
-1.92699e-05
0.0120001
-1.27808e-05
0.0119948
-6.37081e-06
0.0119913
0.0119895
-0.000379926
0.0113219
0.000402135
-0.000353752
0.0118727
-0.000328041
0.0121837
-0.000304385
0.0123336
-0.000282912
0.0123897
-0.000263212
0.0123975
-0.000244885
0.0123829
-0.000227668
0.0123587
-0.000211401
0.0123312
-0.000195986
0.0123031
-0.000181355
0.0122756
-0.000167459
0.012249
-0.000154257
0.0122234
-0.000141713
0.0121989
-0.000129793
0.0121754
-0.000118462
0.0121529
-0.000107682
0.0121315
-9.74161e-05
0.0121113
-8.76261e-05
0.0120923
-7.82725e-05
0.0120746
-6.93158e-05
0.0120583
-6.07161e-05
0.0120434
-5.24336e-05
0.0120301
-4.44286e-05
0.0120183
-3.66612e-05
0.0120081
-2.90918e-05
0.0119995
-2.16808e-05
0.0119927
-1.43885e-05
0.0119875
-7.17474e-06
0.0119841
0.0119823
-0.000397548
0.0113008
0.000418672
-0.000371977
0.0118471
-0.000346389
0.0121581
-0.000322527
0.0123097
-0.000300655
0.0123678
-0.000280453
0.0123773
-0.000261568
0.012364
-0.000243756
0.0123409
-0.000226868
0.0123143
-0.000210809
0.0122871
-0.000195516
0.0122603
-0.000180942
0.0122344
-0.000167047
0.0122096
-0.000153798
0.0121857
-0.000141161
0.0121628
-0.000129104
0.0121409
-0.000117589
0.01212
-0.000106582
0.0121003
-9.60451e-05
0.0120817
-8.59391e-05
0.0120645
-7.62257e-05
0.0120485
-6.68658e-05
0.012034
-5.78201e-05
0.012021
-4.90495e-05
0.0120095
-4.05147e-05
0.0119995
-3.21763e-05
0.0119912
-2.39951e-05
0.0119845
-1.59318e-05
0.0119794
-7.9465e-06
0.0119761
0.0119744
-0.000414519
0.0112806
0.000434646
-0.000389501
0.0118221
-0.000364021
0.0121326
-0.000339954
0.0122857
-0.000317691
0.0123455
-0.000297
0.0123566
-0.000277573
0.0123446
-0.000259185
0.0123225
-0.000241696
0.0122968
-0.000225016
0.0122704
-0.000209086
0.0122444
-0.00019386
0.0122192
-0.0001793
0.012195
-0.000165375
0.0121717
-0.000152052
0.0121494
-0.000139299
0.0121281
-0.000127082
0.0121078
-0.000115365
0.0120885
-0.000104112
0.0120705
-9.32855e-05
0.0120536
-8.28474e-05
0.0120381
-7.27594e-05
0.0120239
-6.29827e-05
0.0120112
-5.34787e-05
0.012
-4.42084e-05
0.0119903
-3.5133e-05
0.0119821
-2.62137e-05
0.0119756
-1.74112e-05
0.0119706
-8.68636e-06
0.0119674
0.0119657
-0.000430893
0.0112614
0.00045012
-0.000406374
0.0117976
-0.000380977
0.0121072
-0.0003567
0.0122614
-0.00033405
0.0123229
-0.000312878
0.0123355
-0.000292921
0.0123246
-0.000273972
0.0123036
-0.000255901
0.0122788
-0.000238622
0.0122531
-0.000222078
0.0122278
-0.000206225
0.0122033
-0.000191027
0.0121798
-0.000176453
0.0121572
-0.000162473
0.0121355
-0.000149054
0.0121147
-0.000136164
0.0120949
-0.000123768
0.0120761
-0.000111831
0.0120585
-0.000100315
0.0120421
-8.91842e-05
0.012027
-7.83996e-05
0.0120132
-6.79236e-05
0.0120008
-5.77178e-05
0.0119898
-4.77439e-05
0.0119803
-3.79632e-05
0.0119723
-2.83374e-05
0.0119659
-1.88275e-05
0.0119611
-9.39461e-06
0.0119579
0.0119563
-0.000446719
0.011243
0.000465147
-0.000422635
0.0117735
-0.000397294
0.0120819
-0.000372796
0.0122369
-0.000349758
0.0122998
-0.00032811
0.0123138
-0.000307632
0.0123041
-0.000288136
0.0122841
-0.000269498
0.0122601
-0.00025164
0.0122352
-0.000234503
0.0122107
-0.000218047
0.0121869
-0.000202237
0.012164
-0.000187041
0.012142
-0.000172431
0.0121208
-0.000158375
0.0121006
-0.000144842
0.0120814
-0.000131797
0.0120631
-0.000119206
0.0120459
-0.000107032
0.0120299
-9.5239e-05
0.0120152
-8.37892e-05
0.0120017
-7.26451e-05
0.0119896
-6.17689e-05
0.0119789
-5.11226e-05
0.0119697
-4.0668e-05
0.0119619
-3.0367e-05
0.0119556
-2.0181e-05
0.0119509
-1.00715e-05
0.0119478
0.0119462
-0.000462034
0.0112253
0.000479768
-0.000438319
0.0117498
-0.000412997
0.0120566
-0.000388262
0.0122121
-0.000364833
0.0122764
-0.000342712
0.0122917
-0.00032172
0.0122831
-0.000301688
0.012264
-0.0002825
0.0122409
-0.000264079
0.0122168
-0.000246371
0.012193
-0.000229335
0.0121698
-0.000212936
0.0121476
-0.000197145
0.0121262
-0.000181933
0.0121056
-0.000167268
0.012086
-0.000153121
0.0120672
-0.000139457
0.0120494
-0.000126241
0.0120327
-0.00011344
0.0120171
-0.000101015
0.0120028
-8.89306e-05
0.0119896
-7.71494e-05
0.0119778
-6.56337e-05
0.0119674
-5.4346e-05
0.0119584
-4.32486e-05
0.0119508
-3.23035e-05
0.0119447
-2.14725e-05
0.0119401
-1.07174e-05
0.0119371
0.0119355
-0.000476865
0.0112081
0.000494013
-0.000453447
0.0117264
-0.000428106
0.0120312
-0.000403117
0.0121872
-0.000379289
0.0122526
-0.000356697
0.0122691
-0.000335197
0.0122616
-0.000314639
0.0122435
-0.000294915
0.0122212
-0.000275949
0.0121979
-0.00025769
0.0121747
-0.000240095
0.0121523
-0.000223132
0.0121306
-0.000206771
0.0121098
-0.000190983
0.0120898
-0.000175738
0.0120707
-0.000161004
0.0120525
-0.00014675
0.0120352
-0.000132941
0.0120189
-0.000119541
0.0120037
-0.000106515
0.0119897
-9.38264e-05
0.0119769
-8.14385e-05
0.0119654
-6.9314e-05
0.0119553
-5.74157e-05
0.0119465
-4.57061e-05
0.0119391
-3.41476e-05
0.0119331
-2.27024e-05
0.0119287
-1.13325e-05
0.0119257
0.0119242
-0.000491228
0.0111914
0.000507901
-0.000468034
0.0117032
-0.000442634
0.0120058
-0.00041737
0.0121619
-0.000393136
0.0122284
-0.000370072
0.012246
-0.00034807
0.0122396
-0.000326997
0.0122224
-0.00030675
0.012201
-0.000287256
0.0121784
-0.000268464
0.0121559
-0.000250334
0.0121341
-0.00023283
0.0121131
-0.000215924
0.0120929
-0.000199587
0.0120735
-0.000183788
0.0120549
-0.000168497
0.0120372
-0.000153681
0.0120204
-0.000139307
0.0120045
-0.000125338
0.0119898
-0.000111741
0.0119761
-9.84788e-05
0.0119637
-8.55145e-05
0.0119525
-7.28116e-05
0.0119426
-6.0333e-05
0.011934
-4.80417e-05
0.0119268
-3.59004e-05
0.011921
-2.38714e-05
0.0119166
-1.19171e-05
0.0119137
0.0119123
-0.000505128
0.0111751
0.000521437
-0.000482084
0.0116801
-0.000456582
0.0119803
-0.000431023
0.0121363
-0.000406376
0.0122037
-0.00038284
0.0122225
-0.000360342
0.0122171
-0.000338764
0.0122008
-0.000318008
0.0121802
-0.000298004
0.0121584
-0.000278699
0.0121366
-0.000260054
0.0121155
-0.000242034
0.0120951
-0.000224608
0.0120755
-0.000207748
0.0120566
-0.000191423
0.0120386
-0.000175602
0.0120214
-0.000160253
0.012005
-0.000145343
0.0119896
-0.000130836
0.0119753
-0.000116697
0.011962
-0.00010289
0.0119499
-8.93793e-05
0.011939
-7.6128e-05
0.0119293
-6.30993e-05
0.011921
-5.02565e-05
0.011914
-3.75624e-05
0.0119083
-2.49799e-05
0.0119041
-1.24715e-05
0.0119012
0.0118998
-0.000518559
0.0111591
0.000534611
-0.000495591
0.0116572
-0.000469947
0.0119547
-0.000444073
0.0121105
-0.000419006
0.0121786
-0.000395
0.0121985
-0.000372013
0.0121941
-0.00034994
0.0121788
-0.00032869
0.012159
-0.000308193
0.0121379
-0.000288397
0.0121168
-0.000269259
0.0120963
-0.000250746
0.0120766
-0.000232826
0.0120576
-0.000215469
0.0120393
-0.000198644
0.0120218
-0.000182322
0.012005
-0.000166469
0.0119892
-0.000151051
0.0119742
-0.000136034
0.0119602
-0.000121383
0.0119473
-0.000107062
0.0119356
-9.30347e-05
0.0119249
-7.92648e-05
0.0119155
-6.5716e-05
0.0119074
-5.23515e-05
0.0119006
-3.91347e-05
0.0118951
-2.60285e-05
0.011891
-1.29959e-05
0.0118882
0.0118868
-0.000531501
0.0111432
0.000547403
-0.000508541
0.0116342
-0.000482715
0.0119289
-0.000456509
0.0120843
-0.000431018
0.0121531
-0.000406545
0.012174
-0.000383078
0.0121707
-0.000360524
0.0121562
-0.000338796
0.0121372
-0.000317825
0.0121169
-0.000297557
0.0120965
-0.00027795
0.0120767
-0.000258968
0.0120576