/*--------------------------------*- C++ -*----------------------------------*\
  =========                 |
  \\      /  F ield         | OpenFOAM: The Open Source CFD Toolbox
   \\    /   O peration     | Website:  https://openfoam.org
    \\  /    A nd           | Version:  7
     \\/     M anipulation  |
\*---------------------------------------------------------------------------*/
FoamFile
{
    version     2.0;
    format      ascii;
    class       volVectorField;
    location    "55";
    object      U;
}
// * * * * * * * * * * * * * * * * * * * * * * * * * * * * * * * * * * * * * //

dimensions      [0 1 -1 0 0 0 0];

internalField   nonuniform List<vector> 
6000
(
(0.72101 -0.0376514 -5.29784e-20)
(0.62317 -0.029738 6.55637e-20)
(0.528086 -0.0233737 -4.17184e-20)
(0.362517 -0.0183011 -5.02382e-20)
(0.438217 -0.0186292 -2.15062e-21)
(0.290873 -0.0161465 5.8813e-20)
(0.355185 -0.0154497 -3.38517e-20)
(0.226056 -0.0146745 -3.3082e-20)
(0.279826 -0.0136737 7.26032e-20)
(0.140136 -0.0183544 4.43664e-20)
(0.167907 -0.0137912 -6.61066e-20)
(0.212339 -0.0130489 -2.23588e-20)
(0.0925843 -0.0175445 -2.45685e-20)
(0.116077 -0.0134048 3.41064e-20)
(0.152455 -0.0132561 4.36552e-20)
(0.0505874 -0.0169686 1.73192e-20)
(0.0700936 -0.013397 -2.09267e-21)
(0.0996147 -0.0139406 -2.02074e-20)
(0.0135978 -0.0165274 2.22585e-20)
(0.029406 -0.0136608 -6.02905e-21)
(0.053143 -0.0147139 3.36443e-21)
(-0.0310261 -0.0190487 -1.38475e-20)
(-0.0189531 -0.0161246 6.10062e-21)
(-0.00653829 -0.0141509 2.87079e-20)
(0.0124248 -0.0150821 -1.59714e-20)
(-0.0567421 -0.0180808 3.82181e-20)
(-0.0476538 -0.0156821 -1.5342e-20)
(-0.0380037 -0.0145119 -1.78715e-20)
(-0.0232279 -0.015101 1.55674e-21)
(-0.0792907 -0.0170045 -5.60765e-21)
(-0.0727979 -0.015124 -1.72581e-20)
(-0.0654949 -0.0144098 -5.52168e-21)
(-0.0546697 -0.0150355 -2.78681e-20)
(-0.0989394 -0.0157678 -4.03297e-21)
(-0.0946808 -0.0143377 5.15656e-20)
(-0.08955 -0.0139151 2.67481e-20)
(-0.0822142 -0.014686 6.29377e-21)
(-0.115888 -0.0143298 -1.14424e-20)
(-0.113555 -0.0132653 -3.14829e-20)
(-0.110435 -0.0130393 -3.08206e-20)
(-0.106027 -0.0138514 4.13717e-20)
(-0.130277 -0.01267 -8.81189e-21)
(-0.129592 -0.011891 3.06542e-20)
(-0.128268 -0.0117873 1.81388e-20)
(-0.126251 -0.0125365 -1.02193e-20)
(-0.142199 -0.0107889 1.03027e-20)
(-0.142894 -0.0102281 -4.21992e-21)
(-0.143108 -0.0101909 -1.42519e-20)
(-0.142997 -0.0108188 -1.07258e-20)
(-0.151709 -0.00870484 -2.64574e-22)
(-0.153514 -0.00831029 -1.25056e-20)
(-0.154979 -0.00830171 1.36338e-20)
(-0.156338 -0.00878293 8.92175e-22)
(-0.155866 -0.00693777 -1.14352e-21)
(-0.158835 -0.0064505 1.06316e-21)
(-0.161478 -0.00618469 1.39654e-20)
(-0.163889 -0.00618089 -1.5107e-21)
(-0.166321 -0.00650848 -4.67462e-21)
(-0.160115 -0.00435925 6.19768e-21)
(-0.16359 -0.00406857 6.12578e-21)
(-0.166794 -0.00390674 -4.81538e-21)
(-0.169839 -0.00389394 -1.50454e-21)
(-0.172972 -0.0040692 2.26894e-22)
(-0.162248 -0.00171747 -3.57406e-21)
(-0.165978 -0.00160807 1.37148e-21)
(-0.169464 -0.00153635 -2.17916e-21)
(-0.172826 -0.00150772 5.73725e-22)
(-0.176306 -0.00153382 1.73929e-21)
(1.28816 -0.0980539 0)
(1.29928 -0.0976537 0)
(1.29715 -0.0961265 0)
(1.29118 -0.0939472 0)
(1.284 -0.0912287 0)
(1.27642 -0.0881885 0)
(1.26885 -0.0849134 0)
(1.26161 -0.0814588 0)
(1.25485 -0.0778841 0)
(1.24858 -0.0742294 0)
(1.24278 -0.0705202 0)
(1.23738 -0.0667757 0)
(1.23234 -0.0630113 0)
(1.22764 -0.0592402 0)
(1.22327 -0.0554736 0)
(1.2192 -0.0517201 0)
(1.21544 -0.0479864 0)
(1.21198 -0.0442772 0)
(1.2088 -0.0405953 0)
(1.20591 -0.0369424 0)
(1.2033 -0.0333189 0)
(1.20096 -0.0297242 0)
(1.19889 -0.026157 0)
(1.19709 -0.0226151 0)
(1.19555 -0.019096 0)
(1.19427 -0.0155971 0)
(1.19325 -0.0121136 0)
(1.19248 -0.00864742 0)
(1.19197 -0.00517537 0)
(1.19173 -0.00174183 0)
(1.28371 -0.0900528 0)
(1.29838 -0.0901435 0)
(1.29774 -0.089104 0)
(1.29247 -0.0872872 0)
(1.28573 -0.0849103 0)
(1.27849 -0.0822205 0)
(1.2712 -0.0793072 0)
(1.26417 -0.0762176 0)
(1.25757 -0.0730018 0)
(1.25143 -0.0696951 0)
(1.24573 -0.0663208 0)
(1.2404 -0.0628968 0)
(1.23542 -0.059438 0)
(1.23077 -0.0559572 0)
(1.22642 -0.0524659 0)
(1.22237 -0.0489733 0)
(1.21862 -0.0454867 0)
(1.21516 -0.0420118 0)
(1.21198 -0.0385526 0)
(1.20908 -0.0351116 0)
(1.20646 -0.0316903 0)
(1.20411 -0.0282892 0)
(1.20203 -0.0249079 0)
(1.20022 -0.0215454 0)
(1.19867 -0.0182 0)
(1.19738 -0.0148699 0)
(1.19635 -0.0115518 0)
(1.19558 -0.00824715 0)
(1.19506 -0.00493772 0)
(1.19482 -0.00165823 0)
(1.27917 -0.0820858 0)
(1.29748 -0.0826931 0)
(1.29846 -0.0822535 0)
(1.29386 -0.0808477 0)
(1.28749 -0.0788157 0)
(1.28052 -0.0764609 0)
(1.27346 -0.0738855 1.60967e-28)
(1.26661 -0.0711341 -3.49733e-29)
(1.26014 -0.0682504 0)
(1.25412 -0.0652669 0)
(1.2485 -0.0622056 0)
(1.24324 -0.0590832 0)
(1.23832 -0.0559139 0)
(1.2337 -0.0527102 0)
(1.22938 -0.0494832 0)
(1.22536 -0.0462427 0)
(1.22161 -0.0429963 0)
(1.21816 -0.0397504 0)
(1.21498 -0.0365098 0)
(1.21208 -0.0332778 0)
(1.20945 -0.0300567 0)
(1.20709 -0.026848 0)
(1.20501 -0.0236522 0)
(1.20319 -0.0204689 0)
(1.20163 -0.0172977 0)
(1.20033 -0.0141373 0)
(1.1993 -0.0109856 0)
(1.19852 -0.00784391 0)
(1.198 -0.00469799 0)
(1.19776 -0.00157512 0)
(1.27444 -0.074391 0)
(1.29645 -0.075453 0)
(1.29921 -0.075584 0)
(1.29533 -0.0745737 0)
(1.28931 -0.0728785 0)
(1.28257 -0.07085 0)
(1.27569 -0.0685994 -1.60967e-28)
(1.26898 -0.0661689 3.49733e-29)
(1.26263 -0.063599 0)
(1.25669 -0.060921 0)
(1.25115 -0.0581564 0)
(1.24595 -0.0553212 0)
(1.24107 -0.052429 0)
(1.23649 -0.0494917 0)
(1.2322 -0.0465203 0)
(1.22818 -0.0435246 0)
(1.22445 -0.0405126 0)
(1.221 -0.0374913 0)
(1.21782 -0.0344658 0)
(1.21492 -0.0314403 0)
(1.21229 -0.0284179 0)
(1.20992 -0.0254006 0)
(1.20783 -0.0223898 0)
(1.206 -0.019386 0)
(1.20443 -0.0163893 0)
(1.20313 -0.0133994 0)
(1.20209 -0.0104151 0)
(1.20131 -0.00743765 0)
(1.20079 -0.00445616 0)
(1.20054 -0.00149218 0)
(1.26944 -0.0670537 0)
(1.29509 -0.0685042 0)
(1.29969 -0.0691282 0)
(1.2966 -0.0684671 0)
(1.29096 -0.0670854 0)
(1.28446 -0.0653688 0)
(1.27775 -0.0634289 0)
(1.27119 -0.0613042 0)
(1.26494 -0.0590331 0)
(1.25909 -0.0566464 0)
(1.25361 -0.0541653 0)
(1.24847 -0.0516055 0)
(1.24363 -0.0489797 0)
(1.23909 -0.0462996 0)
(1.23482 -0.0435761 0)
(1.23083 -0.0408188 0)
(1.22711 -0.0380361 0)
(1.22367 -0.0352352 0)
(1.22049 -0.0324217 0)
(1.21759 -0.0296004 0)
(1.21496 -0.026775 0)
(1.21259 -0.0239482 0)
(1.21049 -0.0211219 0)
(1.20866 -0.0182975 0)
(1.20709 -0.0154758 0)
(1.20578 -0.012657 0)
(1.20474 -0.00984082 0)
(1.20395 -0.0070287 0)
(1.20343 -0.00421246 0)
(1.20318 -0.00140924 0)
(1.26421 -0.0600552 0)
(1.29331 -0.0618423 0)
(1.29978 -0.0628948 0)
(1.29754 -0.0625428 0)
(1.2923 -0.061449 0)
(1.28606 -0.0600252 0)
(1.27954 -0.0583782 0)
(1.27312 -0.0565429 0)
(1.26699 -0.0545557 0)
(1.26122 -0.0524466 0)
(1.25582 -0.0502366 0)
(1.25074 -0.0479407 0)
(1.24597 -0.0455713 0)
(1.24147 -0.0431397 0)
(1.23724 -0.0406565 0)
(1.23327 -0.0381312 0)
(1.22958 -0.0355724 0)
(1.22615 -0.0329875 0)
(1.22298 -0.0303826 0)
(1.22009 -0.0277629 0)
(1.21745 -0.0251325 0)
(1.21509 -0.0224947 0)
(1.21299 -0.0198521 0)
(1.21116 -0.0172066 0)
(1.20958 -0.0145596 0)
(1.20828 -0.0119121 0)
(1.20723 -0.00926438 0)
(1.20644 -0.00661819 0)
(1.20592 -0.00396757 0)
(1.20567 -0.00132636 0)
(1.25884 -0.053355 0)
(1.29116 -0.0554318 0)
(1.29948 -0.0568721 0)
(1.29812 -0.0568049 0)
(1.29332 -0.0559803 0)
(1.28734 -0.0548307 0)
(1.28102 -0.0534581 0)
(1.27476 -0.051895 0)
(1.26875 -0.0501762 0)
(1.26309 -0.048331 0)
(1.25777 -0.0463795 0)
(1.25277 -0.0443362 0)
(1.24805 -0.0422131 0)
(1.24361 -0.0400209 0)
(1.23942 -0.03777 0)
(1.2355 -0.03547 0)
(1.23183 -0.0331294 0)
(1.22842 -0.0307557 0)
(1.22528 -0.0283554 0)
(1.2224 -0.0259339 0)
(1.21978 -0.0234959 0)
(1.21742 -0.0210451 0)
(1.21532 -0.0185846 0)
(1.21349 -0.016117 0)
(1.21192 -0.013644 0)
(1.21062 -0.0111673 0)
(1.20957 -0.00868783 0)
(1.20878 -0.00620754 0)
(1.20826 -0.00372238 0)
(1.20801 -0.00124372 0)
(1.2534 -0.0469284 0)
(1.28872 -0.0492461 0)
(1.29886 -0.0510451 0)
(1.2984 -0.0512476 0)
(1.29405 -0.0506803 0)
(1.28835 -0.0497898 0)
(1.28223 -0.0486749 0)
(1.27613 -0.0473678 0)
(1.27026 -0.0459026 0)
(1.2647 -0.0443077 0)
(1.25948 -0.0426023 0)
(1.25456 -0.0408003 0)
(1.24991 -0.0389131 0)
(1.24553 -0.0369512 0)
(1.2414 -0.0349247 0)
(1.23751 -0.0328429 0)
(1.23388 -0.0307143 0)
(1.23051 -0.0285465 0)
(1.22739 -0.0263463 0)
(1.22452 -0.0241194 0)
(1.22192 -0.0218706 0)
(1.21958 -0.0196043 0)
(1.21749 -0.0173239 0)
(1.21567 -0.0150323 0)
(1.2141 -0.0127321 0)
(1.2128 -0.0104252 0)
(1.21176 -0.00811311 0)
(1.21097 -0.00579815 0)
(1.21045 -0.00347777 0)
(1.2102 -0.00116152 0)
(1.24794 -0.0407646 0)
(1.28605 -0.0432741 0)
(1.29798 -0.0454049 0)
(1.29843 -0.0458637 0)
(1.29455 -0.0455441 0)
(1.28912 -0.0449003 0)
(1.28321 -0.044029 0)
(1.27727 -0.0429638 0)
(1.27153 -0.0417387 0)
(1.26609 -0.0403814 0)
(1.26096 -0.0389102 0)
(1.25613 -0.0373385 0)
(1.25156 -0.0356773 0)
(1.24724 -0.0339367 0)
(1.24317 -0.0321264 0)
(1.23934 -0.0302556 0)
(1.23575 -0.0283327 0)
(1.23241 -0.0263654 0)
(1.22932 -0.0243605 0)
(1.22648 -0.022324 0)
(1.2239 -0.020261 0)
(1.22157 -0.0181762 0)
(1.2195 -0.0160733 0)
(1.21768 -0.0139558 0)
(1.21613 -0.0118265 0)
(1.21483 -0.00968783 0)
(1.21379 -0.00754189 0)
(1.21301 -0.00539119 0)
(1.2125 -0.00323448 0)
(1.21224 -0.00107995 0)
(1.24252 -0.0348607 0)
(1.2832 -0.0375137 0)
(1.29687 -0.0399499 0)
(1.29824 -0.0406487 0)
(1.29483 -0.0405667 0)
(1.28969 -0.0401584 0)
(1.28398 -0.0395183 0)
(1.2782 -0.0386825 0)
(1.27259 -0.0376855 0)
(1.26727 -0.036554 0)
(1.26224 -0.0353059 0)
(1.2575 -0.0339541 0)
(1.25301 -0.0325094 0)
(1.24876 -0.0309813 0)
(1.24475 -0.0293793 0)
(1.24097 -0.0277125 0)
(1.23743 -0.025989 0)
(1.23413 -0.0242165 0)
(1.23107 -0.022402 0)
(1.22826 -0.0205516 0)
(1.2257 -0.0186706 0)
(1.2234 -0.0167639 0)
(1.22134 -0.0148358 0)
(1.21954 -0.0128898 0)
(1.218 -0.0109292 0)
(1.21671 -0.00895701 0)
(1.21568 -0.00697554 0)
(1.21491 -0.00498763 0)
(1.21439 -0.0029931 0)
(1.21414 -0.000999148 0)
(1.23715 -0.0292084 0)
(1.28019 -0.0319624 0)
(1.29555 -0.0346804 0)
(1.29784 -0.0356008 0)
(1.29491 -0.0357454 0)
(1.29006 -0.0355615 0)
(1.28455 -0.0351411 0)
(1.27893 -0.0345233 0)
(1.27346 -0.033743 0)
(1.26825 -0.0328265 0)
(1.26333 -0.0317911 0)
(1.25867 -0.0306496 0)
(1.25427 -0.0294121 0)
(1.2501 -0.0280881 0)
(1.24615 -0.0266868 0)
(1.24243 -0.0252169 0)
(1.23894 -0.0236865 0)
(1.23568 -0.0221032 0)
(1.23266 -0.0204741 0)
(1.22988 -0.0188052 0)
(1.22735 -0.0171023 0)
(1.22507 -0.0153703 0)
(1.22303 -0.0136137 0)
(1.22125 -0.0118365 0)
(1.21972 -0.0100423 0)
(1.21844 -0.00823428 0)
(1.21742 -0.00641526 0)
(1.21665 -0.00458832 0)
(1.21614 -0.00275417 0)
(1.21589 -0.000919265 0)
(1.23186 -0.0238056 0)
(1.27704 -0.0266182 0)
(1.29402 -0.029599 0)
(1.29724 -0.030719 0)
(1.2948 -0.0310787 0)
(1.29023 -0.0311085 0)
(1.28493 -0.0308969 0)
(1.27947 -0.0304859 0)
(1.27414 -0.0299117 0)
(1.26905 -0.0291998 0)
(1.26423 -0.0283673 0)
(1.25967 -0.0274266 0)
(1.25535 -0.0263877 0)
(1.25125 -0.0252598 0)
(1.24737 -0.0240517 0)
(1.24371 -0.0227718 0)
(1.24027 -0.0214282 0)
(1.23706 -0.0200285 0)
(1.23408 -0.0185796 0)
(1.23134 -0.0170877 0)
(1.22884 -0.0155587 0)
(1.22658 -0.0139977 0)
(1.22457 -0.0124093 0)
(1.2228 -0.0107979 0)
(1.22129 -0.0091673 0)
(1.22002 -0.00752099 0)
(1.21901 -0.00586213 0)
(1.21825 -0.00419404 0)
(1.21774 -0.00251816 0)
(1.21749 -0.000840427 0)
(1.22668 -0.0186357 0)
(1.27377 -0.0214754 0)
(1.29231 -0.0247069 0)
(1.29644 -0.0260016 0)
(1.29449 -0.026566 0)
(1.29022 -0.0267993 0)
(1.28512 -0.0267856 0)
(1.27983 -0.0265707 0)
(1.27463 -0.0261919 0)
(1.26966 -0.0256748 0)
(1.26495 -0.0250358 0)
(1.26048 -0.0242871 0)
(1.25625 -0.0234384 0)
(1.25223 -0.0224986 0)
(1.24842 -0.0214763 0)
(1.24482 -0.0203797 0)
(1.24144 -0.0192168 0)
(1.23828 -0.0179949 0)
(1.23534 -0.0167211 0)
(1.23264 -0.0154015 0)
(1.23017 -0.0140421 0)
(1.22794 -0.0126482 0)
(1.22595 -0.0112246 0)
(1.22421 -0.00977572 0)
(1.22271 -0.00830574 0)
(1.22146 -0.00681839 0)
(1.22045 -0.00531713 0)
(1.2197 -0.00380548 0)
(1.2192 -0.0022855 0)
(1.21895 -0.00076276 0)
(1.22162 -0.0137158 0)
(1.2704 -0.0165336 0)
(1.29044 -0.0200101 0)
(1.29545 -0.0214449 0)
(1.294 -0.0222058 0)
(1.29003 -0.022634 0)
(1.28514 -0.0228075 0)
(1.28001 -0.0227777 0)
(1.27496 -0.0225842 0)
(1.2701 -0.0222522 0)
(1.26549 -0.0217977 0)
(1.26112 -0.0212323 0)
(1.25698 -0.0205657 0)
(1.25304 -0.0198064 0)
(1.2493 -0.0189628 0)
(1.24577 -0.0180429 0)
(1.24245 -0.0170545 0)
(1.23934 -0.0160049 0)
(1.23645 -0.0149009 0)
(1.23379 -0.0137489 0)
(1.23135 -0.0125547 0)
(1.22915 -0.0113238 0)
(1.22719 -0.0100612 0)
(1.22547 -0.00877148 0)
(1.22399 -0.00745895 0)
(1.22275 -0.00612761 0)
(1.22176 -0.00478114 0)
(1.22101 -0.00342328 0)
(1.22052 -0.00205659 0)
(1.22027 -0.000686378 0)
(1.21668 -0.00901462 0)
(1.26697 -0.0117918 0)
(1.28842 -0.0155092 0)
(1.29429 -0.0170432 0)
(1.29334 -0.0179996 0)
(1.28968 -0.0186133 0)
(1.285 -0.018962 0)
(1.28003 -0.0191063 0)
(1.27511 -0.0190884 0)
(1.27038 -0.0189326 0)
(1.26588 -0.0186538 0)
(1.2616 -0.0182635 0)
(1.25755 -0.017771 0)
(1.25369 -0.0171848 0)
(1.25003 -0.0165129 0)
(1.24656 -0.0157632 0)
(1.2433 -0.0149433 0)
(1.24024 -0.0140602 0)
(1.2374 -0.0131208 0)
(1.23478 -0.0121315 0)
(1.23238 -0.0110981 0)
(1.23022 -0.0100262 0)
(1.22828 -0.00892071 0)
(1.22658 -0.00778654 0)
(1.22512 -0.00662812 0)
(1.2239 -0.00544961 0)
(1.22292 -0.00425494 0)
(1.22219 -0.00304799 0)
(1.2217 -0.00183176 0)
(1.22146 -0.000611386 0)
(1.21184 -0.00463402 0)
(1.2635 -0.00726423 0)
(1.28629 -0.0112061 0)
(1.29297 -0.0127903 0)
(1.29253 -0.0139475 0)
(1.28917 -0.0147369 0)
(1.2847 -0.0152474 0)
(1.27989 -0.0155554 0)
(1.27511 -0.0157043 0)
(1.2705 -0.015716 0)
(1.2661 -0.0156045 0)
(1.26193 -0.0153811 0)
(1.25796 -0.0150551 0)
(1.25419 -0.0146348 0)
(1.2506 -0.0141279 0)
(1.2472 -0.013542 0)
(1.244 -0.0128845 0)
(1.241 -0.0121625 0)
(1.23821 -0.0113825 0)
(1.23563 -0.0105511 0)
(1.23327 -0.00967391 0)
(1.23114 -0.00875663 0)
(1.22923 -0.00780439 0)
(1.22756 -0.00682206 0)
(1.22612 -0.00581423 0)
(1.22491 -0.00478525 0)
(1.22395 -0.00373918 0)
(1.22322 -0.00268008 0)
(1.22274 -0.00161131 0)
(1.2225 -0.000537873 0)
(1.20709 -0.0003677 0)
(1.26006 -0.0029877 0)
(1.28403 -0.0070785 0)
(1.29149 -0.00868702 0)
(1.29158 -0.0100571 0)
(1.28852 -0.0110014 0)
(1.28425 -0.0116602 0)
(1.27961 -0.0121238 0)
(1.27496 -0.0124314 0)
(1.27047 -0.0126021 0)
(1.26618 -0.0126497 0)
(1.26211 -0.0125855 0)
(1.25823 -0.0124186 0)
(1.25453 -0.0121572 0)
(1.25102 -0.0118087 0)
(1.2477 -0.0113804 0)
(1.24456 -0.0108795 0)
(1.24161 -0.0103129 0)
(1.23887 -0.00968725 0)
(1.23634 -0.00900874 0)
(1.23402 -0.00828327 0)
(1.23192 -0.00751639 0)
(1.23005 -0.00671332 0)
(1.2284 -0.00587901 0)
(1.22698 -0.00501816 0)
(1.22579 -0.00413523 0)
(1.22484 -0.00323444 0)
(1.22413 -0.00231998 0)
(1.22365 -0.0013955 0)
(1.22342 -0.000465918 0)
(1.20251 0.0037143 0)
(1.25669 0.0010437 0)
(1.28166 -0.00309226 0)
(1.2899 -0.00474293 0)
(1.2905 -0.00632495 0)
(1.28773 -0.00739824 0)
(1.28366 -0.00819764 0)
(1.27918 -0.00881065 0)
(1.27467 -0.00926886 0)
(1.2703 -0.00959025 0)
(1.26612 -0.00978901 0)
(1.26214 -0.00987652 0)
(1.25835 -0.00986177 0)
(1.25474 -0.00975246 0)
(1.25131 -0.00955585 0)
(1.24805 -0.00927903 0)
(1.24497 -0.00892899 0)
(1.24209 -0.00851246 0)
(1.2394 -0.00803594 0)
(1.23691 -0.00750557 0)
(1.23463 -0.00692721 0)
(1.23257 -0.0063064 0)
(1.23073 -0.00564839 0)
(1.22911 -0.00495821 0)
(1.22771 -0.00424061 0)
(1.22654 -0.00350016 0)
(1.22561 -0.0027412 0)
(1.2249 -0.00196803 0)
(1.22443 -0.00118454 0)
(1.2242 -0.000395588 0)
(1.19815 0.00756654 0)
(1.25334 0.0048723 0)
(1.27917 0.000784857 0)
(1.28822 -0.000974105 0)
(1.2893 -0.0027474 0)
(1.28681 -0.0039218 0)
(1.28294 -0.00485927 0)
(1.27862 -0.00561514 0)
(1.27425 -0.00621533 0)
(1.26999 -0.00667929 0)
(1.26592 -0.00702174 0)
(1.26204 -0.00725388 0)
(1.25834 -0.0073844 0)
(1.25481 -0.00742071 0)
(1.25146 -0.00736978 0)
(1.24827 -0.00723852 0)
(1.24526 -0.00703368 0)
(1.24243 -0.00676185 0)
(1.23979 -0.00642938 0)
(1.23735 -0.00604234 0)
(1.23512 -0.00560651 0)
(1.23309 -0.00512742 0)
(1.23128 -0.00461035 0)
(1.22968 -0.00406032 0)
(1.22831 -0.00348217 0)
(1.22716 -0.00288053 0)
(1.22624 -0.00225986 0)
(1.22555 -0.00162452 0)
(1.22509 -0.000978608 0)
(1.22486 -0.00032694 0)
(1.194 0.0112082 0)
(1.24998 0.00854608 0)
(1.2766 0.00451381 0)
(1.28646 0.00260229 0)
(1.28797 0.000710213 0)
(1.28576 -0.000569731 0)
(1.2821 -0.00164738 0)
(1.27794 -0.00253569 0)
(1.2737 -0.00326895 0)
(1.26956 -0.00386789 0)
(1.26559 -0.004347 0)
(1.26181 -0.004717 0)
(1.2582 -0.00498622 0)
(1.25475 -0.00516181 0)
(1.25147 -0.00525054 0)
(1.24836 -0.00525906 0)
(1.24541 -0.00519393 0)
(1.24264 -0.00506155 0)
(1.24006 -0.00486813 0)
(1.23766 -0.00461963 0)
(1.23547 -0.00432178 0)
(1.23348 -0.00398007 0)
(1.2317 -0.00359976 0)
(1.23014 -0.00318589 0)
(1.22879 -0.00274333 0)
(1.22766 -0.00227678 0)
(1.22675 -0.00179074 0)
(1.22607 -0.0012897 0)
(1.22562 -0.000777854 0)
(1.22539 -0.000260021 0)
(1.19002 0.0146645 0)
(1.2466 0.0120629 0)
(1.27402 0.00807638 0)
(1.28459 0.00601665 0)
(1.28651 0.00404454 0)
(1.28461 0.00264846 0)
(1.28115 0.00144422 0)
(1.27715 0.000431599 0)
(1.27303 -0.000427507 0)
(1.26901 -0.00115479 0)
(1.26514 -0.00176378 0)
(1.26145 -0.00226507 0)
(1.25793 -0.00266666 0)
(1.25457 -0.00297545 0)
(1.25137 -0.00319799 0)
(1.24832 -0.00334069 0)
(1.24544 -0.0034099 0)
(1.24273 -0.00341182 0)
(1.24019 -0.00335252 0)
(1.23785 -0.00323786 0)
(1.2357 -0.00307347 0)
(1.23375 -0.0028648 0)
(1.232 -0.00261707 0)
(1.23047 -0.00233533 0)
(1.22914 -0.00202447 0)
(1.22803 -0.00168921 0)
(1.22714 -0.00133413 0)
(1.22647 -0.000963746 0)
(1.22603 -0.000582398 0)
(1.22581 -0.000194871 0)
(1.18621 0.0179492 0)
(1.24324 0.0154145 0)
(1.27142 0.0114753 0)
(1.28262 0.00928822 0)
(1.28497 0.00724759 0)
(1.28335 0.00573544 0)
(1.28009 0.00441829 0)
(1.27624 0.00328903 0)
(1.27225 0.00231067 0)
(1.26834 0.00146183 0)
(1.26458 0.000729277 0)
(1.26098 0.000102939 0)
(1.25755 -0.000424953 0)
(1.25427 -0.000861097 0)
(1.25114 -0.00121181 0)
(1.24816 -0.00148326 0)
(1.24534 -0.00168157 0)
(1.24269 -0.00181277 0)
(1.24021 -0.00188276 0)
(1.23792 -0.00189728 0)
(1.23581 -0.00186188 0)
(1.2339 -0.00178192 0)
(1.23218 -0.0016626 0)
(1.23068 -0.00150896 0)
(1.22938 -0.00132588 0)
(1.22829 -0.00111809 0)
(1.22741 -0.000890215 0)
(1.22676 -0.000646821 0)
(1.22632 -0.000392334 0)
(1.2261 -0.000131518 0)
(1.18256 0.0210695 -1.09069e-11)
(1.23993 0.0186024 -1.06534e-11)
(1.26879 0.0147182 0)
(1.28057 0.0124236 -1.01708e-11)
(1.28333 0.0103186 -9.93341e-12)
(1.28199 0.00869808 -2.79669e-28)
(1.27893 0.00727685 9.48071e-12)
(1.27522 0.00603843 9.26777e-12)
(1.27136 0.0049475 0)
(1.26756 0.00398348 0)
(1.2639 0.00313359 0)
(1.2604 0.00238822 0)
(1.25705 0.00173984 0)
(1.25385 0.00118197 0)
(1.2508 0.000708533 0)
(1.24789 0.000313579 0)
(1.24514 -8.7782e-06 0)
(1.24254 -0.000264345 0)
(1.24012 -0.00045888 0)
(1.23787 -0.000598006 0)
(1.2358 -0.000687162 7.35885e-12)
(1.23393 -0.000731638 1.45554e-11)
(1.23225 -0.000736581 7.20572e-12)
(1.23077 -0.000706994 0)
(1.2295 -0.000647748 -7.08907e-12)
(1.22843 -0.00056359 -7.04432e-12)
(1.22757 -0.000459156 0)
(1.22693 -0.000339037 -6.98178e-12)
(1.2265 -0.000207733 -6.96393e-12)
(1.22629 -6.99874e-05 -2.00535e-28)
(1.17908 0.0240322 1.0907e-11)
(1.23668 0.0216343 1.06534e-11)
(1.26613 0.017812 0)
(1.27845 0.0154263 1.01708e-11)
(1.28162 0.0132611 9.93341e-12)
(1.28055 0.0115416 2.79669e-28)
(1.27767 0.0100231 -9.48071e-12)
(1.27411 0.00868213 -9.26777e-12)
(1.27038 0.00748503 0)
(1.26669 0.00641198 0)
(1.26312 0.00545074 0)
(1.25971 0.0045921 0)
(1.25645 0.0038288 0)
(1.25333 0.00315459 0)
(1.25035 0.00256366 0)
(1.24751 0.0020503 0)
(1.24482 0.00160884 0)
(1.24228 0.00123368 0)
(1.23991 0.00091922 0)
(1.23771 0.00065998 0)
(1.23569 0.000450628 -7.35885e-12)
(1.23385 0.000285957 -1.45554e-11)
(1.23221 0.000160883 -7.20572e-12)
(1.23076 7.04342e-05 0)
(1.22951 9.75948e-06 7.08907e-12)
(1.22846 -2.585e-05 7.04432e-12)
(1.22762 -4.10482e-05 0)
(1.22699 -4.04722e-05 6.98178e-12)
(1.22657 -2.86466e-05 6.96393e-12)
(1.22636 -1.02928e-05 2.00535e-28)
(1.17576 0.0268446 0)
(1.23349 0.024519 0)
(1.26346 0.020763 0)
(1.27628 0.0183008 0)
(1.27983 0.0160799 0)
(1.27901 0.0142701 0)
(1.27632 0.0126605 0)
(1.2729 0.011223 0)
(1.26929 0.0099257 0)
(1.26571 0.00874944 0)
(1.26224 0.0076825 0)
(1.25892 0.00671607 0)
(1.25574 0.00584314 0)
(1.2527 0.00505776 0)
(1.24979 0.00435436 0)
(1.24702 0.0037275 0)
(1.24439 0.00317172 0)
(1.24191 0.0026816 0)
(1.23959 0.00225174 0)
(1.23744 0.00187679 0)
(1.23546 0.00155154 0)
(1.23367 0.00127086 0)
(1.23206 0.00102975 0)
(1.23063 0.000823272 0)
(1.22941 0.000646608 0)
(1.22838 0.000495079 0)
(1.22756 0.000364034 0)
(1.22694 0.000248819 0)
(1.22653 0.000144891 0)
(1.22632 4.75517e-05 0)
(1.1726 0.0295155 0)
(1.23036 0.0272649 0)
(1.26078 0.0235779 0)
(1.27406 0.0210519 0)
(1.27796 0.0187799 0)
(1.2774 0.0168876 0)
(1.27488 0.0151925 0)
(1.27161 0.0136643 0)
(1.26812 0.0122722 0)
(1.26464 0.0109981 0)
(1.26127 0.00983081 0)
(1.25803 0.00876173 0)
(1.25494 0.00778421 0)
(1.25197 0.00689258 0)
(1.24913 0.00608154 0)
(1.24643 0.00534589 0)
(1.24386 0.0046804 0)
(1.24144 0.00407985 0)
(1.23917 0.003539 0)
(1.23707 0.00305265 0)
(1.23514 0.00261571 0)
(1.23338 0.00222316 0)
(1.2318 0.00187005 0)
(1.23041 0.00155152 0)
(1.22921 0.00126278 0)
(1.2282 0.000999172 0)
(1.2274 0.000756064 0)
(1.22679 0.000528813 0)
(1.22638 0.000312863 0)
(1.22618 0.000103542 0)
(1.16959 0.0320537 0)
(1.22731 0.0298802 0)
(1.2581 0.0262635 0)
(1.2718 0.0236853 0)
(1.27604 0.0213665 0)
(1.27572 0.019398 0)
(1.27337 0.0176229 0)
(1.27024 0.016009 0)
(1.26686 0.0145274 0)
(1.26348 0.0131605 0)
(1.2602 0.0118977 0)
(1.25705 0.0107308 0)
(1.25404 0.00965344 0)
(1.25114 0.00866025 0)
(1.24838 0.00774617 0)
(1.24574 0.00690627 0)
(1.24324 0.00613553 0)
(1.24087 0.00542891 0)
(1.23866 0.00478136 0)
(1.2366 0.00418784 0)
(1.23471 0.00364335 0)
(1.23299 0.00314299 0)
(1.23144 0.00268188 0)
(1.23008 0.00225523 0)
(1.22891 0.0018583 0)
(1.22792 0.00148644 0)
(1.22713 0.00113505 0)
(1.22654 0.000799512 0)
(1.22614 0.000475271 0)
(1.22594 0.000157678 0)
(1.16673 0.0344689 0)
(1.22432 0.0323734 0)
(1.25543 0.0288273 0)
(1.2695 0.0262067 0)
(1.27406 0.0238447 0)
(1.27396 0.0218058 0)
(1.27179 0.0199553 0)
(1.26878 0.0182606 0)
(1.26552 0.016694 0)
(1.26224 0.015239 0)
(1.25905 0.0138852 0)
(1.25598 0.012625 0)
(1.25305 0.0114523 0)
(1.25023 0.010362 0)
(1.24753 0.00934931 0)
(1.24496 0.0084095 0)
(1.24251 0.0075378 0)
(1.24021 0.00672936 0)
(1.23804 0.0059793 0)
(1.23603 0.00528271 0)
(1.23418 0.00463474 0)
(1.2325 0.00403056 0)
(1.23099 0.00346539 0)
(1.22966 0.00293451 0)
(1.22851 0.00243322 0)
(1.22754 0.00195692 0)
(1.22677 0.00150101 0)
(1.22619 0.00106094 0)
(1.2258 0.000632124 0)
(1.2256 0.000209963 0)
(1.16401 0.0367707 0)
(1.22141 0.0347529 0)
(1.25276 0.0312766 0)
(1.26717 0.0286218 0)
(1.27203 0.0262197 0)
(1.27215 0.0241154 0)
(1.27014 0.0221937 0)
(1.26726 0.0204223 0)
(1.2641 0.018775 0)
(1.26092 0.017236 0)
(1.25782 0.0157955 0)
(1.25483 0.0144462 0)
(1.25197 0.0131824 0)
(1.24923 0.0119992 0)
(1.2466 0.010892 0)
(1.24409 0.00985649 0)
(1.2417 0.00888796 0)
(1.23945 0.00798181 0)
(1.23734 0.00713329 0)
(1.23537 0.00633766 0)
(1.23356 0.00559018 0)
(1.23192 0.00488612 0)
(1.23044 0.00422078 0)
(1.22914 0.00358951 0)
(1.22801 0.00298766 0)
(1.22707 0.00241068 0)
(1.22631 0.00185402 0)
(1.22574 0.00131312 0)
(1.22536 0.000783439 0)
(1.22517 0.000260403 0)
(1.16143 0.0389687 0)
(1.21857 0.0370275 0)
(1.2501 0.033619 0)
(1.26481 0.0309365 0)
(1.26994 0.0284967 0)
(1.27027 0.026331 0)
(1.26842 0.0243418 0)
(1.26566 0.0224974 0)
(1.26261 0.0207732 0)
(1.25952 0.0191541 0)
(1.2565 0.0176307 0)
(1.2536 0.0161962 0)
(1.25081 0.0148452 0)
(1.24814 0.0135731 0)
(1.24558 0.0123755 0)
(1.24313 0.0112482 0)
(1.2408 0.0101868 0)
(1.2386 0.0091869 0)
(1.23654 0.00824388 0)
(1.23462 0.00735313 0)
(1.23286 0.00651003 0)
(1.23125 0.00570994 0)
(1.22981 0.00494826 0)
(1.22853 0.00422039 0)
(1.22743 0.00352176 0)
(1.22651 0.00284784 0)
(1.22577 0.00219413 0)
(1.22521 0.0015561 0)
(1.22484 0.000929243 0)
(1.22465 0.000309007 0)
(1.15899 0.0410722 0)
(1.2158 0.0392052 0)
(1.24746 0.0358619 0)
(1.26243 0.0331563 0)
(1.26782 0.0306807 0)
(1.26834 0.028457 0)
(1.26664 0.0264033 0)
(1.264 0.0244892 0)
(1.26105 0.0226913 0)
(1.25805 0.0209955 0)
(1.25512 0.0193928 0)
(1.25229 0.0178768 0)
(1.24958 0.0164423 0)
(1.24697 0.0150849 0)
(1.24448 0.0138007 0)
(1.24209 0.0125855 0)
(1.23982 0.0114351 0)
(1.23768 0.0103453 0)
(1.23566 0.00931162 0)
(1.23379 0.00832958 0)
(1.23206 0.00739466 0)
(1.23049 0.00650233 0)
(1.22908 0.00564807 0)
(1.22784 0.00482735 0)
(1.22676 0.00403565 0)
(1.22586 0.0032685 0)
(1.22513 0.00252143 0)
(1.22459 0.00178995 0)
(1.22423 0.00106957 0)
(1.22404 0.000355785 0)
(1.15666 0.04309 0)
(1.21309 0.0412938 0)
(1.24482 0.038012 0)
(1.26003 0.0352869 0)
(1.26564 0.0327765 0)
(1.26636 0.0304975 0)
(1.26479 0.0283818 0)
(1.26227 0.0264007 0)
(1.25942 0.024532 0)
(1.25651 0.0227625 0)
(1.25366 0.0210838 0)
(1.25091 0.0194896 0)
(1.24827 0.017975 0)
(1.24573 0.0165361 0)
(1.2433 0.0151688 0)
(1.24097 0.0138693 0)
(1.23876 0.0126337 0)
(1.23667 0.0114577 0)
(1.2347 0.0103371 0)
(1.23287 0.00926747 0)
(1.23119 0.00824447 0)
(1.22966 0.00726362 0)
(1.22828 0.00632049 0)
(1.22706 0.00541061 0)
(1.22601 0.00452952 0)
(1.22513 0.0036728 0)
(1.22442 0.00283602 0)
(1.22389 0.00201472 0)
(1.22353 0.00120446 0)
(1.22335 0.000400751 0)
(1.15445 0.0450305 0)
(1.21045 0.0433004 0)
(1.24221 0.0400759 0)
(1.2576 0.0373331 0)
(1.26343 0.0347885 0)
(1.26432 0.0324562 0)
(1.26289 0.0302805 0)
(1.26048 0.0282346 0)
(1.25773 0.0262978 0)
(1.2549 0.0244574 0)
(1.25213 0.0227055 0)
(1.24945 0.0210362 0)
(1.24688 0.0194449 0)
(1.24441 0.0179277 0)
(1.24204 0.0164808 0)
(1.23978 0.0151006 0)
(1.23762 0.0137833 0)
(1.23558 0.0125247 0)
(1.23366 0.0113208 0)
(1.23188 0.0101673 0)
(1.23024 0.00905985 0)
(1.22874 0.00799414 0)
(1.22739 0.00696579 0)
(1.2262 0.00597039 0)
(1.22518 0.00500355 0)
(1.22431 0.00406088 0)
(1.22362 0.003138 0)
(1.2231 0.0022305 0)
(1.22275 0.00133395 0)
(1.22258 0.000443919 0)
(1.15235 0.0469009 0)
(1.20787 0.0452316 0)
(1.2396 0.0420591 0)
(1.25515 0.0392996 0)
(1.26118 0.0367209 0)
(1.26223 0.0343367 0)
(1.26094 0.0321025 0)
(1.25864 0.0299937 0)
(1.25597 0.0279908 0)
(1.25323 0.0260819 0)
(1.25054 0.0242596 0)
(1.24793 0.0225182 0)
(1.24543 0.0208532 0)
(1.24302 0.0192609 0)
(1.24072 0.0177378 0)
(1.23851 0.0162803 0)
(1.23641 0.0148846 0)
(1.23442 0.013547 0)
(1.23255 0.0122633 0)
(1.23081 0.0110295 0)
(1.22921 0.0098412 0)
(1.22775 0.00869422 0)
(1.22643 0.00758424 0)
(1.22527 0.00650691 0)
(1.22427 0.00545791 0)
(1.22343 0.00443288 0)
(1.22275 0.00342748 0)
(1.22224 0.00243735 0)
(1.2219 0.00145808 0)
(1.22173 0.000485303 0)
(1.15034 0.0487081 0)
(1.20535 0.0470931 0)
(1.237 0.0439667 0)
(1.25269 0.0411904 0)
(1.25889 0.0385771 0)
(1.2601 0.0361418 0)
(1.25893 0.0338503 0)
(1.25673 0.0316801 0)
(1.25415 0.0296131 0)
(1.2515 0.027638 0)
(1.24888 0.0257477 0)
(1.24635 0.0239368 0)
(1.24391 0.022201 0)
(1.24157 0.0205367 0)
(1.23932 0.0189405 0)
(1.23717 0.017409 0)
(1.23513 0.0159385 0)
(1.23319 0.0145252 0)
(1.23137 0.0131652 0)
(1.22967 0.0118545 0)
(1.22811 0.0105889 0)
(1.22668 0.00936419 0)
(1.2254 0.00817612 0)
(1.22426 0.00702042 0)
(1.22328 0.0058928 0)
(1.22246 0.00478895 0)
(1.2218 0.00370458 0)
(1.2213 0.00263536 0)
(1.22097 0.00157692 0)
(1.22081 0.000524919 0)
(1.14842 0.0504576 0)
(1.20287 0.0488895 0)
(1.23442 0.0458031 0)
(1.2502 0.043009 0)
(1.25656 0.0403602 0)
(1.25791 0.0378743 0)
(1.25686 0.0355262 0)
(1.25477 0.0332959 0)
(1.25228 0.0311664 0)
(1.2497 0.0291271 0)
(1.24716 0.0271712 0)
(1.2447 0.0252934 0)
(1.24233 0.0234895 0)
(1.24005 0.0217562 0)
(1.23786 0.0200899 0)
(1.23577 0.0184875 0)
(1.23378 0.0169454 0)
(1.23189 0.0154598 0)
(1.23011 0.0140269 0)
(1.22846 0.0126428 0)
(1.22694 0.0113033 0)
(1.22554 0.0100044 0)
(1.22429 0.00874171 0)
(1.22319 0.00751113 0)
(1.22223 0.0063084 0)
(1.22143 0.00512924 0)
(1.22078 0.00396941 0)
(1.2203 0.0028246 0)
(1.21997 0.00169049 0)
(1.21981 0.000562783 0)
(1.14658 0.0521542 0)
(1.20043 0.0506249 0)
(1.23183 0.0475716 0)
(1.24769 0.0447581 0)
(1.25418 0.0420724 0)
(1.25568 0.039536 0)
(1.25475 0.037132 0)
(1.25275 0.0348426 0)
(1.25035 0.0326521 0)
(1.24785 0.0305505 0)
(1.24538 0.0285311 0)
(1.24299 0.0265888 0)
(1.24068 0.0247196 0)
(1.23847 0.02292 0)
(1.23634 0.0211867 0)
(1.2343 0.0195166 0)
(1.23236 0.017906 0)
(1.23053 0.0163514 0)
(1.2288 0.014849 0)
(1.22719 0.0133948 0)
(1.2257 0.0119849 0)
(1.22434 0.0106151 0)
(1.22312 0.00928127 0)
(1.22204 0.00797928 0)
(1.22111 0.00670489 0)
(1.22033 0.0054539 0)
(1.2197 0.00422208 0)
(1.21922 0.00300516 0)
(1.21891 0.00179886 0)
(1.21875 0.00059891 0)
(1.1448 0.0538011 0)
(1.19803 0.0523019 0)
(1.22925 0.0492748 0)
(1.24515 0.0464396 0)
(1.25177 0.0437156 0)
(1.2534 0.0411285 0)
(1.25258 0.0386689 0)
(1.25068 0.0363213 0)
(1.24836 0.0340713 0)
(1.24594 0.0319091 0)
(1.24354 0.0298284 0)
(1.24122 0.027824 0)
(1.23898 0.0258919 0)
(1.23683 0.0240289 0)
(1.23476 0.0222315 0)
(1.23278 0.0204966 0)
(1.23089 0.0188208 0)
(1.2291 0.0172004 0)
(1.22742 0.0156317 0)
(1.22585 0.0141108 0)
(1.2244 0.0126338 0)
(1.22308 0.0111966 0)
(1.22189 0.00979505 0)
(1.22084 0.00842507 0)
(1.21993 0.00708247 0)
(1.21916 0.00576308 0)
(1.21855 0.0044627 0)
(1.21809 0.00317712 0)
(1.21778 0.00190206 0)
(1.21762 0.000633316 0)
(1.14308 0.0554006 0)
(1.19565 0.0539222 0)
(1.22666 0.0509141 0)
(1.24259 0.0480546 0)
(1.24932 0.0452907 0)
(1.25107 0.0426526 0)
(1.25036 0.0401378 0)
(1.24855 0.037733 0)
(1.24632 0.0354247 0)
(1.24398 0.0332037 0)
(1.24165 0.0310636 0)
(1.23939 0.0289995 0)
(1.23722 0.0270072 0)
(1.23513 0.0250834 0)
(1.23312 0.0232249 0)
(1.23119 0.0214283 0)
(1.22936 0.0196903 0)
(1.22762 0.0180073 0)
(1.22598 0.0163755 0)
(1.22445 0.0147913 0)
(1.22304 0.0132505 0)
(1.22175 0.0117492 0)
(1.22059 0.0102833 0)
(1.21957 0.00884872 0)