/*--------------------------------*- C++ -*----------------------------------*\
  =========                 |
  \\      /  F ield         | OpenFOAM: The Open Source CFD Toolbox
   \\    /   O peration     | Website:  https://openfoam.org
    \\  /    A nd           | Version:  7
     \\/     M anipulation  |
\*---------------------------------------------------------------------------*/
FoamFile
{
    version     2.0;
    format      ascii;
    class       volScalarField;
    location    "50.001";
    object      p;
}
// * * * * * * * * * * * * * * * * * * * * * * * * * * * * * * * * * * * * * //

dimensions      [0 2 -2 0 0 0 0];

internalField   nonuniform List<scalar> 
3700
(
-0.244781
-0.247742
-0.248708
-0.249753
-0.250714
-0.251656
-0.252562
-0.253388
-0.254085
-0.254602
-0.254894
-0.254922
-0.254665
-0.254121
-0.253347
-0.24504
-0.247954
-0.248906
-0.249937
-0.250887
-0.251822
-0.252722
-0.253544
-0.254239
-0.254755
-0.255045
-0.255067
-0.254793
-0.254227
-0.253346
-0.245552
-0.248375
-0.249296
-0.250299
-0.251228
-0.252146
-0.253034
-0.253849
-0.254539
-0.255052
-0.255338
-0.255349
-0.255038
-0.254445
-0.253322
-0.246304
-0.248992
-0.249868
-0.250827
-0.251722
-0.252614
-0.253483
-0.254284
-0.254967
-0.255475
-0.255754
-0.255753
-0.255375
-0.254788
-0.253224
-0.247275
-0.249792
-0.250606
-0.251504
-0.252351
-0.253205
-0.254045
-0.254825
-0.255494
-0.255993
-0.256262
-0.256255
-0.255758
-0.255281
-0.25298
-0.248443
-0.250756
-0.25149
-0.25231
-0.253092
-0.253893
-0.254691
-0.25544
-0.256087
-0.25657
-0.25682
-0.25683
-0.256115
-0.255967
-0.25248
-0.249781
-0.251864
-0.2525
-0.25322
-0.253917
-0.254647
-0.255387
-0.25609
-0.256704
-0.257163
-0.257376
-0.257459
-0.256329
-0.256893
-0.25163
-0.251263
-0.253093
-0.253613
-0.254209
-0.254799
-0.255436
-0.256098
-0.256738
-0.257303
-0.257728
-0.257856
-0.258129
-0.256303
-0.257976
-0.250785
-0.252861
-0.254426
-0.254807
-0.255254
-0.255709
-0.256227
-0.256788
-0.257343
-0.257838
-0.258219
-0.258183
-0.258761
-0.256295
-0.258653
-0.249983
-0.254553
-0.255842
-0.256062
-0.256332
-0.256621
-0.256991
-0.257424
-0.257868
-0.258266
-0.258597
-0.258443
-0.259125
-0.256054
-0.259364
-0.24887
-0.256319
-0.257329
-0.257363
-0.257424
-0.257514
-0.257704
-0.257978
-0.258286
-0.258564
-0.258805
-0.258478
-0.25937
-0.255417
-0.260009
-0.247518
-0.258149
-0.258878
-0.258699
-0.258517
-0.258373
-0.258348
-0.258432
-0.258575
-0.258703
-0.258841
-0.258265
-0.259431
-0.254447
-0.260329
-0.246167
-0.260037
-0.260484
-0.260063
-0.259604
-0.259188
-0.258913
-0.258776
-0.258726
-0.258674
-0.258691
-0.257828
-0.25919
-0.253303
-0.259961
-0.245111
-0.26199
-0.262152
-0.261459
-0.260686
-0.259961
-0.259402
-0.259013
-0.258744
-0.258485
-0.258344
-0.257206
-0.258518
-0.252171
-0.258545
-0.244396
-0.264023
-0.263893
-0.262893
-0.261771
-0.260702
-0.259827
-0.259158
-0.258644
-0.258156
-0.257799
-0.256431
-0.257315
-0.251117
-0.255963
-0.243611
-0.26616
-0.265725
-0.264382
-0.262877
-0.261431
-0.260211
-0.259237
-0.258452
-0.257711
-0.25706
-0.255492
-0.255565
-0.249965
-0.252451
-0.242128
-0.268436
-0.267659
-0.265962
-0.264029
-0.262177
-0.260587
-0.259284
-0.2582
-0.257167
-0.256135
-0.254321
-0.253314
-0.248359
-0.248361
-0.239566
-0.270896
-0.269742
-0.267652
-0.265262
-0.262978
-0.260996
-0.259341
-0.257918
-0.256533
-0.255016
-0.252819
-0.250606
-0.245983
-0.243785
-0.235919
-0.273597
-0.272005
-0.269489
-0.266613
-0.263876
-0.261482
-0.259443
-0.257628
-0.2558
-0.253675
-0.250895
-0.247446
-0.242704
-0.238496
-0.231323
-0.276597
-0.274488
-0.271516
-0.268129
-0.264918
-0.262088
-0.259624
-0.257339
-0.254946
-0.252068
-0.248492
-0.243846
-0.238565
-0.232379
-0.22589
-0.279935
-0.27725
-0.273779
-0.269855
-0.26615
-0.262852
-0.259899
-0.257041
-0.253934
-0.250148
-0.245593
-0.239829
-0.233719
-0.226063
-0.219575
-0.283679
-0.280331
-0.276324
-0.271838
-0.267613
-0.263799
-0.260272
-0.256707
-0.252718
-0.247881
-0.242223
-0.235407
-0.228322
-0.220018
-0.212639
-0.287891
-0.283774
-0.279198
-0.274124
-0.269342
-0.264944
-0.260729
-0.256301
-0.251253
-0.245246
-0.23843
-0.230614
-0.222708
-0.213824
-0.205887
-0.292627
-0.287624
-0.282448
-0.276752
-0.27136
-0.266286
-0.261243
-0.255771
-0.249499
-0.242242
-0.234265
-0.225544
-0.216907
-0.207606
-0.199439
-0.297933
-0.291926
-0.286118
-0.279757
-0.273679
-0.267815
-0.261772
-0.255061
-0.247425
-0.238878
-0.229788
-0.220248
-0.210998
-0.201367
-0.193015
-0.303853
-0.296721
-0.290251
-0.283162
-0.276303
-0.269503
-0.262251
-0.25411
-0.245011
-0.235178
-0.225041
-0.214773
-0.20499
-0.195075
-0.186613
-0.310419
-0.302047
-0.294881
-0.286983
-0.279225
-0.271299
-0.262603
-0.252861
-0.242248
-0.231163
-0.220059
-0.209138
-0.198878
-0.188725
-0.180121
-0.317656
-0.307938
-0.30003
-0.291223
-0.282419
-0.273125
-0.262741
-0.251269
-0.239134
-0.226853
-0.214858
-0.203347
-0.192651
-0.182279
-0.173529
-0.325572
-0.314416
-0.305709
-0.295876
-0.28583
-0.274874
-0.26258
-0.249298
-0.235665
-0.222254
-0.209441
-0.197387
-0.186284
-0.175715
-0.166798
-0.334165
-0.321491
-0.311907
-0.300915
-0.289359
-0.276427
-0.262043
-0.246918
-0.231838
-0.217366
-0.203797
-0.191238
-0.179754
-0.169004
-0.159907
-0.343411
-0.32915
-0.318596
-0.306282
-0.292871
-0.277662
-0.261063
-0.244103
-0.22764
-0.212175
-0.197906
-0.184875
-0.173034
-0.16212
-0.152834
-0.353259
-0.337352
-0.32573
-0.311867
-0.296208
-0.278461
-0.259578
-0.240824
-0.223051
-0.20666
-0.191742
-0.178268
-0.166098
-0.155037
-0.145559
-0.363633
-0.346024
-0.333231
-0.317506
-0.299196
-0.278713
-0.25753
-0.237048
-0.218044
-0.20079
-0.185273
-0.171388
-0.158918
-0.147732
-0.138064
-0.37442
-0.355061
-0.34098
-0.322992
-0.301662
-0.278316
-0.254864
-0.232737
-0.212585
-0.194533
-0.178465
-0.164202
-0.151471
-0.140179
-0.130332
-0.385465
-0.364327
-0.348803
-0.32809
-0.303439
-0.277173
-0.251521
-0.227849
-0.206634
-0.187852
-0.171285
-0.156682
-0.14373
-0.132356
-0.122347
-0.396571
-0.373652
-0.356465
-0.332558
-0.304366
-0.275191
-0.247444
-0.222337
-0.20015
-0.180707
-0.163696
-0.148799
-0.135672
-0.124241
-0.114094
-0.407497
-0.382838
-0.36368
-0.336152
-0.304292
-0.272283
-0.242572
-0.216153
-0.193089
-0.173061
-0.155668
-0.140528
-0.127275
-0.115814
-0.105561
-0.417964
-0.39165
-0.370125
-0.338637
-0.30308
-0.268365
-0.236845
-0.209244
-0.185407
-0.164876
-0.147169
-0.131846
-0.118523
-0.10706
-0.0967477
-0.427663
-0.399815
-0.375467
-0.339791
-0.3006
-0.263356
-0.230203
-0.201561
-0.177061
-0.156116
-0.13817
-0.122731
-0.109398
-0.0979775
-0.0876739
-0.436268
-0.407027
-0.379382
-0.33941
-0.296737
-0.257181
-0.222586
-0.193056
-0.168011
-0.14675
-0.128648
-0.113165
-0.0998851
-0.0885675
-0.0783697
-0.443443
-0.412951
-0.381571
-0.33731
-0.291386
-0.24977
-0.213942
-0.183684
-0.158222
-0.13675
-0.118578
-0.103126
-0.089968
-0.0788264
-0.0688406
-0.448854
-0.417234
-0.381768
-0.333334
-0.284456
-0.241061
-0.204221
-0.173406
-0.147664
-0.126093
-0.107945
-0.0926011
-0.0796301
-0.0687326
-0.0590325
-0.45218
-0.419523
-0.379749
-0.327354
-0.275871
-0.231
-0.193383
-0.162191
-0.136313
-0.114761
-0.0967348
-0.0815797
-0.0688648
-0.0582546
-0.0488193
-0.453118
-0.419482
-0.375325
-0.31927
-0.265569
-0.219544
-0.181393
-0.150013
-0.12415
-0.102743
-0.0849383
-0.0700598
-0.057682
-0.0473867
-0.0380394
-0.451394
-0.416814
-0.36834
-0.309007
-0.253505
-0.206663
-0.16823
-0.136854
-0.111164
-0.090029
-0.0725539
-0.0580439
-0.0460979
-0.0361618
-0.0267208
-0.446765
-0.411275
-0.358663
-0.296518
-0.239653
-0.192338
-0.153874
-0.122701
-0.0973464
-0.076621
-0.0595948
-0.0455487
-0.0341228
-0.0245372
-0.0153838
-0.439028
-0.402664
-0.346208
-0.281776
-0.224004
-0.176558
-0.138314
-0.107551
-0.082709
-0.0625367
-0.0460878
-0.0326205
-0.0217573
-0.0125082
-0.00394363
-0.428019
-0.39084
-0.330925
-0.264779
-0.206558
-0.159311
-0.12155
-0.0914371
-0.0672871
-0.047821
-0.0320341
-0.0192498
-0.00899847
-0.000170918
0.00768723
-0.413618
-0.375714
-0.312806
-0.24554
-0.187315
-0.140597
-0.10364
-0.0744251
-0.0511077
-0.032457
-0.0174609
-0.00545198
0.0041248
0.0124326
0.0195304
-0.395749
-0.357252
-0.291877
-0.224094
-0.166281
-0.12049
-0.0847154
-0.05648
-0.0341752
-0.0164834
-0.00239886
0.00874517
0.017576
0.0252796
0.0315706
-0.374384
-0.335472
-0.268209
-0.200508
-0.143527
-0.0992122
-0.0646379
-0.0376529
-0.0165316
5.93066e-05
0.0131159
0.0233057
0.0313171
0.0383443
0.0437769
-0.349542
-0.310438
-0.241917
-0.174891
-0.119306
-0.0765619
-0.0435292
-0.018001
0.00177139
0.0171247
0.0290414
0.0381888
0.0453092
0.0515907
0.0561047
-0.32129
-0.282284
-0.21312
-0.147335
-0.0935885
-0.0527013
-0.0214663
0.0024082
0.0206749
0.0346607
0.0453303
0.0533502
0.0595106
0.0649745
0.0685025
-0.289755
-0.251243
-0.181846
-0.117948
-0.0664633
-0.027741
0.00146368
0.0235007
0.0401134
0.0526091
0.0619293
0.0687423
0.0738795
0.0784525
0.0809319
-0.255118
-0.217619
-0.14802
-0.0869176
-0.0380714
-0.0017976
0.0251656
0.0451941
0.0600147
0.0709051
0.0787795
0.0843142
0.0883756
0.0919896
0.0933699
-0.217577
-0.181465
-0.112147
-0.0543115
-0.00855507
0.0250048
0.0495342
0.0673987
0.0803004
0.0894784
0.0958176
0.100014
0.102958
0.105536
0.105723
-0.177332
-0.142283
-0.0751807
-0.0204451
0.0219323
0.0525348
0.0744561
0.0900179
0.100887
0.108255
0.112982
0.115793
0.11757
0.11895
0.11769
-0.134652
-0.100894
-0.0369122
0.0144383
0.0532174
0.0806538
0.0998111
0.112948
0.121684
0.12716
0.130218
0.131617
0.132128
0.13196
0.128857
-0.0897496
-0.0578313
0.00255659
0.0501329
0.0851154
0.109213
0.125472
0.136081
0.1426
0.14612
0.147478
0.147448
0.146545
0.144377
0.139215
-0.0430584
-0.0134213
0.042994
0.0864344
0.117438
0.138056
0.151306
0.159301
0.163535
0.165055
0.1647
0.163213
0.160742
0.156439
0.149814
0.00502891
0.0320203
0.0841199
0.123124
0.149993
0.167019
0.177175
0.18249
0.184392
0.183883
0.1818
0.178783
0.174607
0.168385
0.163318
0.0541178
0.0781519
0.125637
0.159969
0.182582
0.195936
0.202936
0.205527
0.205068
0.202518
0.198681
0.194046
0.188176
0.180726
0.176427
0.1038
0.124618
0.167243
0.196729
0.215005
0.224633
0.228444
0.228289
0.225458
0.220867
0.215259
0.208985
0.201584
0.193229
0.188673
0.153662
0.171052
0.208631
0.233159
0.247054
0.252939
0.253552
0.250651
0.245456
0.238832
0.231449
0.223555
0.214761
0.205581
0.200313
0.20329
0.217079
0.249495
0.269012
0.278526
0.28068
0.278113
0.272489
0.264955
0.256319
0.247177
0.23771
0.227614
0.217566
0.211367
0.252267
0.262328
0.289531
0.30404
0.309214
0.307683
0.301981
0.293677
0.283847
0.273235
0.262369
0.251385
0.240051
0.229104
0.221884
0.300178
0.306438
0.328441
0.338002
0.338918
0.333778
0.325012
0.314094
0.302027
0.289491
0.276951
0.264509
0.251985
0.240125
0.231848
0.346617
0.349055
0.365936
0.370661
0.367438
0.358799
0.347066
0.33362
0.319391
0.304999
0.290848
0.277012
0.263349
0.250581
0.241238
0.391188
0.38984
0.401735
0.401788
0.394584
0.382584
0.368006
0.352138
0.335842
0.319674
0.303986
0.288827
0.274081
0.260426
0.250024
0.433511
0.428469
0.435572
0.431163
0.420173
0.404981
0.387703
0.369539
0.351284
0.333437
0.316296
0.299892
0.284125
0.269615
0.258177
0.473227
0.464634
0.467195
0.45858
0.444032
0.425843
0.406032
0.385717
0.365629
0.34621
0.327712
0.310146
0.29343
0.278109
0.265669
0.509998
0.498049
0.496367
0.483843
0.465997
0.445033
0.422879
0.400575
0.378793
0.357921
0.338171
0.319538
0.301949
0.285867
0.272476
0.543511
0.528449
0.522872
0.506774
0.48592
0.462426
0.438136
0.414022
0.390698
0.368506
0.347618
0.328017
0.309638
0.292856
0.278575
0.573484
0.555595
0.546513
0.52721
0.503663
0.477906
0.451707
0.425975
0.401274
0.377904
0.356
0.335538
0.316457
0.299043
0.283947
0.599661
0.579272
0.567113
0.545005
0.519104
0.49137
0.463506
0.436362
0.41046
0.386061
0.363272
0.342061
0.322371
0.3044
0.288576
0.621821
0.599294
0.584519
0.560032
0.532139
0.502731
0.473456
0.445117
0.418199
0.392931
0.369394
0.347552
0.327349
0.308902
0.292449
0.639778
0.615503
0.598601
0.572184
0.542675
0.511911
0.481494
0.452187
0.424447
0.398474
0.374333
0.35198
0.331363
0.312528
0.295558
0.65338
0.627772
0.609255
0.581375
0.550642
0.518851
0.487568
0.457529
0.429166
0.40266
0.378061
0.355323
0.334393
0.315263
0.297895
0.662512
0.636006
0.616402
0.587539
0.555984
0.523503
0.491639
0.461108
0.432327
0.405464
0.380557
0.357562
0.336422
0.317093
0.299456
0.667097
0.640139
0.619989
0.590632
0.558664
0.525837
0.493681
0.462903
0.433913
0.40687
0.381809
0.358684
0.33744
0.31801
0.300236
-0.252869
-0.251623
-0.250402
-0.253035
-0.251727
-0.250512
-0.253363
-0.251922
-0.250721
-0.253833
-0.252183
-0.251008
-0.254434
-0.252473
-0.251342
-0.255197
-0.252743
-0.251689
-0.250119
-0.256099
-0.252891
-0.25202
-0.250444
-0.256573
-0.253277
-0.252214
-0.25072
-0.256778
-0.253641
-0.252298
-0.250888
-0.256725
-0.253912
-0.252248
-0.250908
-0.256214
-0.25402
-0.252037
-0.250734
-0.255086
-0.253787
-0.251617
-0.250318
-0.248918
-0.253343
-0.252971
-0.250889
-0.249608
-0.248308
-0.251119
-0.251398
-0.249711
-0.248518
-0.247325
-0.248475
-0.249057
-0.247947
-0.246941
-0.245889
-0.245276
-0.245995
-0.245528
-0.244783
-0.24393
-0.242902
-0.241344
-0.242341
-0.24246
-0.241993
-0.241407
-0.240657
-0.236892
-0.238281
-0.238824
-0.238632
-0.238367
-0.237929
-0.232254
-0.233995
-0.234735
-0.234814
-0.234911
-0.234827
-0.227689
-0.229503
-0.229955
-0.230105
-0.230467
-0.230711
-0.230606
-0.220439
-0.223761
-0.223995
-0.224133
-0.22469
-0.225279
-0.22556
-0.207482
-0.213162
-0.21405
-0.214132
-0.214775
-0.215747
-0.216517
-0.195242
-0.202178
-0.20387
-0.20427
-0.205157
-0.206488
-0.207694
-0.183914
-0.191362
-0.193868
-0.194818
-0.19605
-0.197692
-0.199244
-0.173244
-0.180989
-0.184213
-0.185772
-0.187395
-0.189321
-0.191159
-0.163351
-0.171231
-0.175028
-0.177158
-0.179175
-0.181374
-0.183463
-0.15426
-0.162138
-0.166379
-0.169011
-0.171401
-0.173861
-0.176176
-0.145917
-0.153717
-0.158294
-0.161349
-0.164076
-0.16678
-0.169303
-0.138284
-0.145954
-0.150777
-0.154181
-0.157203
-0.160128
-0.162837
-0.131317
-0.138819
-0.143815
-0.147502
-0.150775
-0.153894
-0.156768
-0.124961
-0.132276
-0.137388
-0.141301
-0.144783
-0.148069
-0.151088
-0.11917
-0.126287
-0.131471
-0.13556
-0.139215
-0.142641
-0.145784
-0.1139
-0.120816
-0.126036
-0.130262
-0.134056
-0.137599
-0.140848
-0.10911
-0.115826
-0.121058
-0.125387
-0.129291
-0.132929
-0.136266
-0.104763
-0.111284
-0.116508
-0.120913
-0.124905
-0.128619
-0.132029
-0.100826
-0.10716
-0.112361
-0.116821
-0.12088
-0.124655
-0.128124
-0.0972693
-0.103425
-0.108593
-0.113091
-0.117201
-0.121023
-0.124539
-0.0940645
-0.100053
-0.105182
-0.109705
-0.113852
-0.117709
-0.121263
-0.091188
-0.0970209
-0.102107
-0.106644
-0.110819
-0.114702
-0.118284
-0.0886182
-0.0943081
-0.0993496
-0.103893
-0.108086
-0.111988
-0.115593
-0.0863362
-0.0918961
-0.0968932
-0.101437
-0.105643
-0.109558
-0.113179
-0.0843253
-0.0897682
-0.0947225
-0.0992625
-0.103476
-0.1074
-0.111032
-0.0825711
-0.0879101
-0.0928243
-0.0973584
-0.101575
-0.105505
-0.109146
-0.081061
-0.0863094
-0.0911871
-0.0957141
-0.0999325
-0.103865
-0.107511
-0.0797844
-0.0849553
-0.089801
-0.0943205
-0.0985387
-0.102472
-0.106123
-0.0787322
-0.083839
-0.0886576
-0.0931702
-0.0973874
-0.101321
-0.104974
-0.0778968
-0.082953
-0.0877501
-0.0922568
-0.0964728
-0.100406
-0.10406
-0.0772731
-0.082292
-0.0870735
-0.0915759
-0.0957907
-0.0997232
-0.103378
-0.0768572
-0.0818524
-0.0866244
-0.0911243
-0.0953383
-0.0992701
-0.102925
-0.076635
-0.0816262
-0.0863963
-0.0908963
-0.0951109
-0.099043
-0.102699
-0.211998
-0.198259
-0.18528
-0.174443
-0.164165
-0.154625
-0.145997
-0.138103
-0.130883
-0.124313
-0.118328
-0.112876
-0.107919
-0.103417
-0.0993324
-0.0956342
-0.0922934
-0.0892838
-0.0865823
-0.0841687
-0.082025
-0.0801355
-0.0784864
-0.0770659
-0.075864
-0.0748721
-0.0740827
-0.0734912
-0.0730945
-0.0728668
-0.204538
-0.191493
-0.17857
-0.168211
-0.158403
-0.14914
-0.140822
-0.133244
-0.126293
-0.119972
-0.114223
-0.108986
-0.104224
-0.099899
-0.0959752
-0.0924211
-0.0892091
-0.0863142
-0.0837142
-0.0813898
-0.0793236
-0.0775007
-0.0759079
-0.0745339
-0.0733691
-0.0724052
-0.071635
-0.0710542
-0.0706582
-0.0704216
-0.198337
-0.185846
-0.17274
-0.16244
-0.153019
-0.143988
-0.135881
-0.12857
-0.121861
-0.115754
-0.110211
-0.105166
-0.100577
-0.0964109
-0.0926321
-0.0892091
-0.0861151
-0.0833259
-0.0808201
-0.0785787
-0.0765853
-0.0748252
-0.0732858
-0.0719562
-0.0708271
-0.0698904
-0.0691392
-0.0685694
-0.068175
-0.0679338
-0.191962
-0.179833
-0.166881
-0.156681
-0.147641
-0.138915
-0.131006
-0.123933
-0.117463
-0.111559
-0.106208
-0.101345
-0.0969221
-0.0929075
-0.0892672
-0.08597
-0.0829894
-0.080302
-0.077887
-0.0757261
-0.0738032
-0.0721043
-0.0706171
-0.0693311
-0.0682373
-0.0673279
-0.0665962
-0.0660382
-0.0656474
-0.0654045
-0.185653
-0.173922
-0.161196
-0.151021
-0.14223
-0.133812
-0.126109
-0.11925
-0.113015
-0.107319
-0.102155
-0.0974711
-0.0932139
-0.0893494
-0.0858462
-0.0826739
-0.0798061
-0.0772202
-0.0748961
-0.0728158
-0.0709639
-0.0693267
-0.0678925
-0.0666511
-0.0655937
-0.0647128
-0.0640021
-0.0634577
-0.0630726
-0.0628306
-0.179157
-0.167699
-0.155309
-0.145268
-0.136711
-0.128626
-0.12117
-0.114522
-0.108515
-0.103032
-0.0980557
-0.0935478
-0.0894551
-0.0857402
-0.0823733
-0.0793251
-0.0765697
-0.074085
-0.0718515
-0.0698519
-0.0680711
-0.0664961
-0.0651154
-0.0639192
-0.0628992
-0.062048
-0.0613596
-0.0608303
-0.0604528
-0.060214
-0.172528
-0.161376
-0.149388
-0.139521
-0.131148
-0.123362
-0.116171
-0.109735
-0.103948
-0.0986804
-0.0938961
-0.0895641
-0.0856356
-0.0820712
-0.0788409
-0.0759172
-0.0732747
-0.0708917
-0.0687494
-0.0668312
-0.0651224
-0.0636104
-0.0622843
-0.0611346
-0.0601531
-0.059333
-0.0586684
-0.0581559
-0.0577879
-0.0575543
-0.165746
-0.154851
-0.143288
-0.133664
-0.125495
-0.118003
-0.111097
-0.104891
-0.0993214
-0.0942684
-0.0896796
-0.0855242
-0.0817595
-0.0783458
-0.0752527
-0.0724536
-0.0699242
-0.0676434
-0.0655929
-0.0637566
-0.0621205
-0.0606723
-0.0594017
-0.0582993
-0.0573576
-0.0565699
-0.0559305
-0.0554363
-0.0550797
-0.0548531
-0.158809
-0.148186
-0.137084
-0.127746
-0.119789
-0.11257
-0.105949
-0.099984
-0.0946319
-0.0897919
-0.0854009
-0.0814244
-0.0778242
-0.0745619
-0.0716068
-0.0689331
-0.0665175
-0.0643396
-0.0623816
-0.060628
-0.0590655
-0.0576822
-0.056468
-0.0554143
-0.0545135
-0.0537594
-0.0531467
-0.0526725
-0.0523288
-0.0521111
-0.151716
-0.141367
-0.130728
-0.121713
-0.113997
-0.107052
-0.10072
-0.0950087
-0.0898807
-0.0852535
-0.081062
-0.0772667
-0.0738318
-0.0707215
-0.0679052
-0.0653577
-0.0630567
-0.0609824
-0.0591177
-0.0574477
-0.0559596
-0.054642
-0.0534854
-0.0524813
-0.0516227
-0.0509036
-0.0503189
-0.049866
-0.0495369
-0.0493297
-0.144456
-0.134406
-0.124246
-0.115583
-0.108133
-0.101463
-0.0954157
-0.0899638
-0.0850659
-0.0806528
-0.0766617
-0.0730498
-0.069782
-0.0668247
-0.0641483
-0.0617281
-0.0595425
-0.0575727
-0.0558022
-0.0542168
-0.0528041
-0.0515533
-0.0504553
-0.049502
-0.0486867
-0.0480038
-0.0474486
-0.0470184
-0.0467053
-0.0465103
-0.137026
-0.127303
-0.117626
-0.109335
-0.102177
-0.0957929
-0.0900329
-0.0848468
-0.0801863
-0.0759905
-0.0722015
-0.068775
-0.0656762
-0.0628733
-0.0603379
-0.058046
-0.055977
-0.0541127
-0.0524374
-0.0509375
-0.0496011
-0.0484182
-0.0473797
-0.0464783
-0.0457076
-0.045062
-0.0445374
-0.0441313
-0.0438357
-0.0436543
-0.129416
-0.120057
-0.110876
-0.102976
-0.0961331
-0.0900462
-0.0845755
-0.0796587
-0.0752411
-0.0712666
-0.0676817
-0.0644428
-0.0615151
-0.0588682
-0.0564752
-0.054313
-0.0523616
-0.050604
-0.0490249
-0.0476116
-0.0463527
-0.0452385
-0.0442608
-0.0434124
-0.0426872
-0.0420802
-0.0415875
-0.0412065
-0.0409296
-0.0407632
-0.121621
-0.112668
-0.103991
-0.0964991
-0.0899915
-0.0842166
-0.0790414
-0.0743987
-0.0702297
-0.0664812
-0.0631036
-0.0600545
-0.0573001
-0.0548113
-0.0525623
-0.0505311
-0.0486988
-0.0470489
-0.0455673
-0.0442416
-0.0430612
-0.0420169
-0.0411009
-0.0403065
-0.0396279
-0.0390606
-0.0386008
-0.0382461
-0.0379891
-0.0378389
-0.113635
-0.105134
-0.0969735
-0.0899053
-0.0837526
-0.0783042
-0.0734319
-0.0690681
-0.0651529
-0.0616351
-0.0584681
-0.0556116
-0.0530331
-0.0507043
-0.0486011
-0.0467026
-0.0449907
-0.04345
-0.0420669
-0.04083
-0.0397291
-0.0387558
-0.0379025
-0.0371631
-0.0365322
-0.0360055
-0.0355796
-0.0352522
-0.0350162
-0.0348832
-0.10545
-0.097448
-0.0898218
-0.0831939
-0.0774129
-0.0723056
-0.0677458
-0.0636675
-0.0600115
-0.0567293
-0.0537771
-0.0511163
-0.0487161
-0.0465498
-0.0445944
-0.0428302
-0.0412402
-0.03981
-0.0385267
-0.0373797
-0.0363595
-0.035458
-0.0346685
-0.033985
-0.0334027
-0.0329176
-0.0325264
-0.0322271
-0.0320132
-0.0318983
-0.0970586
-0.0896036
-0.0825341
-0.0763668
-0.0709737
-0.066221
-0.0619835
-0.0581979
-0.054807
-0.0517658
-0.0490325
-0.0465707
-0.0443517
-0.0423502
-0.0405446
-0.0389166
-0.0374502
-0.0361318
-0.0349496
-0.0338937
-0.0329552
-0.0321266
-0.0314017
-0.0307751
-0.0302422
-0.0297994
-0.0294437
-0.0291732
-0.0289823
-0.0288863
-0.088465
-0.0815912
-0.0751043
-0.069423
-0.0644342
-0.060049
-0.0561438
-0.0526591
-0.0495398
-0.0467451
-0.0442353
-0.0419762
-0.0399415
-0.0381075
-0.0364542
-0.0349643
-0.0336232
-0.0324182
-0.0313385
-0.0303748
-0.029519
-0.0287644
-0.028105
-0.027536
-0.0270533
-0.0266535
-0.0263339
-0.026093
-0.0259258
-0.0258485
-0.0796922
-0.073407
-0.0675235
-0.0623562
-0.0577914
-0.0537868
-0.0502242
-0.0470486
-0.0442075
-0.041665
-0.0393841
-0.0373324
-0.0354858
-0.0338227
-0.0323244
-0.030975
-0.0297612
-0.0286714
-0.0276956
-0.0268255
-0.0260537
-0.0253739
-0.024781
-0.0242705
-0.0238386
-0.0234825
-0.0231995
-0.0229887
-0.0228457
-0.0227857
-0.0707714
-0.0650593
-0.0597814
-0.0551523
-0.0510347
-0.0474277
-0.0442205
-0.0413623
-0.038805
-0.0365211
-0.034476
-0.0326379
-0.0309846
-0.0294964
-0.0281565
-0.0269505
-0.0258663
-0.0248937
-0.0240236
-0.0232485
-0.0225619
-0.0219581
-0.0214326
-0.0209813
-0.0206011
-0.0202891
-0.0200434
-0.0198631
-0.0197443
-0.0196995
-0.06169
-0.0565714
-0.051867
-0.0477988
-0.0441517
-0.0409658
-0.0381298
-0.0355995
-0.0333316
-0.0313143
-0.0295136
-0.027896
-0.0264415
-0.0251327
-0.0239547
-0.022895
-0.021943
-0.0210895
-0.0203269
-0.0196483
-0.0190481
-0.0185214
-0.0180641
-0.0176729
-0.0173448
-0.0170777
-0.0168695
-0.0167204
-0.0166248
-0.0165959
-0.052381
-0.0479303
-0.0437735
-0.0403029
-0.0371418
-0.0344042
-0.0319557
-0.029768
-0.0278032
-0.026062
-0.0245129
-0.023121
-0.0218691
-0.0207427
-0.0197292
-0.018818
-0.018
-0.0172673
-0.0166134
-0.0160324
-0.0155196
-0.0150707
-0.0146824
-0.0143517
-0.0140762
-0.0138541
-0.0136838
-0.0135664
-0.0134919
-0.013485
-0.0427433
-0.0391348
-0.0355101
-0.0326937
-0.0300217
-0.0277565
-0.0257045
-0.0238822
-0.0222548
-0.0207944
-0.019498
-0.0183321
-0.0172835
-0.0163405
-0.0154924
-0.0147305
-0.0140472
-0.013436
-0.0128914
-0.0124085
-0.0119834
-0.0116127
-0.0112935
-0.0110234
-0.0108007
-0.0106236
-0.0104911
-0.0104057
-0.0103506
-0.0103721
-0.0327254
-0.0302436
-0.0271204
-0.0250158
-0.0228273
-0.0210493
-0.0193951
-0.017959
-0.0167072
-0.0155241
-0.0144775
-0.0135365
-0.0126911
-0.0119316
-0.0112493
-0.0106371
-0.0100889
-0.00959937
-0.00916418
-0.00877952
-0.00844219
-0.00814953
-0.00789929
-0.0076897
-0.00751934
-0.00738687
-0.00729202
-0.00723619
-0.00720413
-0.00724802
-0.0224587
-0.0212626
-0.0186836
-0.017275
-0.0156075
-0.0143087
-0.0130752
-0.0120109
-0.0110777
-0.0101988
-0.00941276
-0.00870618
-0.00807098
-0.00750032
-0.00698805
-0.00652892
-0.00611846
-0.00575284
-0.00542883
-0.00514369
-0.00489515
-0.00468128
-0.00450052
-0.00435167
-0.00423374
-0.00414587
-0.00408842
-0.00406123
-0.00405392
-0.004115
-0.012019
-0.0119489
-0.0101346
-0.00938297
-0.00829598
-0.00748429
-0.00669064
-0.00600521
-0.00539575
-0.00482646
-0.00431119
-0.00384649
-0.00342778
-0.00305118
-0.0027131
-0.00241039
-0.00214038
-0.00190077
-0.00168962
-0.00150532
-0.00134652
-0.00121215
-0.00110132
-0.00101343
-0.000947959
-0.000904562
-0.00088397
-0.000885136
-0.00090211
-0.000977597
-0.0014671
-0.00240839
-0.0014406
-0.00135942
-0.000877975
-0.000571833
-0.000231903
6.14783e-05
0.000330093
0.000584272
0.000819967
0.00103557
0.00123183
0.00140953
0.00156955
0.00171274
0.00183985
0.00195153
0.00204832
0.00213067
0.00219889
0.00225322
0.0022938
0.00232065
0.00233376
0.00233298
0.00231734
0.00228815
0.00224818
0.00216002
0.00920828
0.00728957
0.00740466
0.00678787
0.00664888
0.006427
0.00629642
0.00618052
0.00608994
0.00602112
0.00596951
0.00592988
0.00589886
0.00587381
0.00585271
0.00583395
0.00581621
0.00579843
0.0057797
0.00575921
0.00573625
0.00571018
0.00568038
0.00564624
0.00560724
0.00556273
0.00551156
0.00545497
0.00539341
0.00529418
0.0200242
0.0171222
0.0163945
0.0150518
0.0142704
0.0134944
0.0128734
0.0123316
0.0118681
0.0114694
0.0111256
0.0108268
0.0105654
0.010335
0.0101306
0.00994797
0.00978383
0.00963531
0.00950004
0.00937596
0.00926131
0.00915454
0.00905427
0.00895928
0.0088685
0.00878081
0.00869488
0.00861174
0.00852998
0.00842143
0.0309902
0.0270828
0.0255045
0.0234049
0.0219509
0.0205988
0.0194738
0.018498
0.017656
0.0169246
0.0162862
0.0157258
0.0152313
0.0147929
0.0144025
0.0140537
0.0137411
0.0134601
0.0132069
0.0129781
0.012771
0.012583
0.012412
0.0122562
0.012114
0.0119836
0.0118637
0.011755
0.0116544
0.0115384
0.0420937
0.0371424
0.0346824
0.0318041
0.0296634
0.0277345
0.0261085
0.0247
0.0234779
0.0224098
0.0214715
0.0206432
0.0199093
0.0192567
0.018675
0.0181553
0.0176902
0.0172735
0.0168997
0.0165642
0.0162631
0.015993
0.0157508
0.0155339
0.0153403
0.0151677
0.0150146
0.0148812
0.0147631
0.014642
0.0532903
0.0472586
0.0438975
0.040265
0.0374612
0.0349747
0.0328527
0.0310043
0.029388
0.0279663
0.0267112
0.0255996
0.0246127
0.0237348
0.0229524
0.0222543
0.0216308
0.0210737
0.0205759
0.0201312
0.0197343
0.0193808
0.0190667
0.0187886
0.0185438
0.0183295
0.0181439
0.0179869
0.0178529
0.0177286
0.0645416
0.0574543
0.0532338
0.048914
0.0454692
0.0424161
0.0397681
0.0374422
0.0353952
0.0335886
0.0319914
0.0305768
0.029322
0.0282074
0.0272162
0.0263338
0.0255478
0.0248475
0.0242238
0.0236688
0.0231758
0.0227388
0.0223531
0.0220144
0.0217192
0.0214643
0.0212475
0.0210682
0.0209198
0.0207948
0.0758853
0.0678621
0.0628162
0.0578073
0.0536565
0.0499606
0.0467201
0.0438679
0.0413585
0.0391487
0.0372002
0.0354794
0.0339571
0.0326084
0.0314119
0.0303492
0.0294048
0.0285654
0.0278197
0.0271578
0.0265717
0.0260543
0.0255996
0.0252027
0.0248594
0.024566
0.0243201
0.0241204
0.0239601
0.0238368
0.0873668
0.0784724
0.0724288
0.0665719
0.0615872
0.0571816
0.0533322
0.0499672
0.0470244
0.0444456
0.0421801
0.0401846
0.0384228
0.0368641
0.0354827
0.0342568
0.0331682
0.0322012
0.0313429
0.030582
0.0299093
0.0293168
0.0287977
0.0283465
0.0279584
0.0276295
0.0273572
0.0271395
0.0269697
0.0268508
0.0987383
0.0887748
0.0814222
0.074605
0.0688116
0.0637864
0.0594377
0.0556613
0.0523704
0.0494908
0.0469614
0.0447323
0.0427622
0.0410169
0.039468
0.0380917
0.0368681
0.0357803
0.0348143
0.0339581
0.0332015
0.0325358
0.031954
0.0314499
0.0310184
0.0306554
0.030358
0.0301237
0.0299468
0.0298346
0.109518
0.0984497
0.0899323
0.0824045
0.076043
0.0705604
0.0658045
0.0616546
0.058019
0.0548224
0.0520028
0.0495087
0.0472975
0.0453336
0.043587
0.0420327
0.0406493
0.039419
0.0383265
0.0373586
0.0365044
0.0357544
0.0351006
0.0345362
0.0340556
0.0336543
0.033329
0.0330765
0.0328929
0.0327881
0.120158
0.109067
0.100115
0.0921712
0.085277
0.0792177
0.0738657
0.0691309
0.0649426
0.0612362
0.0579532
0.0550417
0.0524569
0.0501601
0.0481184
0.0463033
0.0446906
0.0432593
0.0419915
0.0408716
0.0398865
0.0390249
0.038277
0.0376347
0.0370913
0.0366412
0.0362801
0.0360044
0.0358115
0.0357115
0.131994
0.122321
0.113202
0.104614
0.0968249
0.0898176
0.08354
0.0779396
0.0729621
0.0685472
0.0646341
0.0611659
0.0580913
0.0553654
0.0529488
0.0508072
0.0489109
0.0472341
0.0457544
0.0444528
0.0433126
0.0423198
0.0414623
0.0407298
0.0401141
0.0396081
0.0392063
0.0389044
0.0386997
0.0385997
0.142254
0.133126
0.12344
0.11407
0.105469
0.0977216
0.0907933
0.0846201
0.0791345
0.0742678
0.0699534
0.0661297
0.0627409
0.0597377
0.057077
0.0547209
0.0526366
0.0507957
0.0491734
0.0477485
0.0465027
0.0454201
0.0444876
0.0436939
0.0430295
0.0424868
0.0420596
0.041743
0.041534
0.0414347
0.15697
0.14508
0.134201
0.124112
0.115023
0.106961
0.0998324
0.0935062
0.0878758
0.0828595
0.0783894
0.0744058
0.0708556
0.0676923
0.0648747
0.0623671
0.0601381
0.0581605
0.0564106
0.0548678
0.0535145
0.0523353
0.0513172
0.0504491
0.0497219
0.0491279
0.0486607
0.0483156
0.0480888
0.047977
0.170731
0.157131
0.145972
0.136181
0.127391
0.119477
0.112368
0.105984
0.100247
0.0950875
0.090447
0.0862745
0.0825248
0.0791568
0.0761345
0.0734255
0.0710017
0.068838
0.0669126
0.0652062
0.0637023
0.0623862
0.0612455
0.0602696
0.0594494
0.0587774
0.0582476
0.0578551
0.0575964
0.0574692
0.174339
0.163781
0.154025
0.145068
0.136859
0.129352
0.122509
0.116288
0.110638
0.105508
0.100852
0.0966296
0.0928022
0.0893372
0.0862047
0.0833777
0.0808322
0.0785468
0.0765023
0.0746818
0.0730702
0.0716545
0.0704231
0.0693663
0.0684755
0.0677438
0.0671654
0.0667356
0.0664511
0.0663088
0.175368
0.166354
0.15785
0.149922
0.142587
0.135808
0.129546
0.12377
0.118452
0.113566
0.109083
0.104978
0.101225
0.0978001
0.0946819
0.0918495
0.089284
0.0869681
0.084886
0.0830237
0.0813685
0.0799091
0.0786358
0.0775398
0.0766139
0.0758517
0.0752482
0.0747992
0.0745018
0.0743543
0.173287
0.166218
0.159303
0.152653
0.146328
0.140352
0.134737
0.129482
0.124585
0.120036
0.115822
0.111928
0.108339
0.105038
0.102012
0.0992443
0.0967226
0.0944337
0.0923656
0.0905074
0.088849
0.0873816
0.0860971
0.0849883
0.0840491
0.0832744
0.0826597
0.0822017
0.0818976
0.0817454
0.171017
0.165121
0.159289
0.153612
0.148158
0.142955
0.138014
0.133343
0.128943
0.124814
0.120951
0.117349
0.114002
0.110901
0.108038
0.105404
0.10299
0.100787
0.0987874
0.0969831
0.0953667
0.0939313
0.092671
0.0915803
0.0906543
0.0898889
0.0892808
0.0888271
0.0885259
0.0883761
0.167771
0.16305
0.158298
0.153607
0.149021
0.144572
0.140286
0.136181
0.132271
0.128566
0.125068
0.121781
0.118702
0.115831
0.113162
0.110692
0.108415
0.106328
0.104424
0.102698
0.101147
0.0997644
0.0985468
0.0974902
0.0965911
0.0958465
0.0952538
0.0948111
0.0945167