/*--------------------------------*- C++ -*----------------------------------*\
  =========                 |
  \\      /  F ield         | OpenFOAM: The Open Source CFD Toolbox
   \\    /   O peration     | Website:  https://openfoam.org
    \\  /    A nd           | Version:  7
     \\/     M anipulation  |
\*---------------------------------------------------------------------------*/
FoamFile
{
    version     2.0;
    format      ascii;
    class       surfaceScalarField;
    location    "90";
    object      phi;
}
// * * * * * * * * * * * * * * * * * * * * * * * * * * * * * * * * * * * * * //

dimensions      [0 3 -1 0 0 0 0];

internalField   nonuniform List<scalar> 
6856
(
-0.000424192
0.000192069
-0.000653059
0.000216732
-0.000905406
0.000232176
-0.00117795
0.000241333
-0.00146574
0.000241463
-0.0017529
0.000221023
-0.00206673
0.000223508
0.000130646
-0.00231744
-6.98264e-05
0.000146597
-0.000211475
0.000292105
-0.000395799
0.000376393
-0.000606251
0.000427183
-0.00083378
0.000459705
-0.0010732
0.000480758
-0.00132196
0.000490214
-0.00154523
0.000444298
-0.00180514
0.000483422
0.000269999
-0.0019445
-6.02325e-05
0.00020683
-0.000183285
0.000415158
-0.000340767
0.000533875
-0.000514427
0.000600843
-0.000691915
0.000637193
-0.00086161
0.000650453
-0.00102747
0.000656074
-0.00111805
0.000534882
-0.00125183
0.0006172
0.000194566
-0.0011764
-4.78241e-05
0.000254654
-0.000145612
0.000512946
-0.00026542
0.000653682
-0.000386088
0.000721512
-0.00049106
0.000742165
-0.000556029
0.000715422
-0.000584935
0.00068498
-0.000483353
0.000433299
-0.000360388
0.000494235
-0.000153117
-1.27049e-05
-3.47245e-05
0.000289378
-0.000103548
0.00058177
-0.00017797
0.000728104
-0.000232038
0.00077558
-0.000242397
0.000752524
-0.000178528
0.000651552
1.6252e-05
0.000490201
0.000350803
9.87482e-05
0.000842426
2.61126e-06
-0.00101322
0.00170253
-2.3039e-05
0.000312417
-6.21046e-05
0.000620835
-8.62588e-05
0.000752258
-6.27363e-05
0.000752057
4.82762e-05
0.000641511
0.00027792
0.000421909
0.000721969
4.61516e-05
0.00142226
-0.000601545
0.00238124
-0.000956367
-0.00253618
0.0039042
-1.42871e-05
0.000326704
-2.44888e-05
0.000631037
5.92329e-06
0.000721846
0.00012153
0.00063645
0.000378472
0.000384569
0.000839446
-3.90647e-05
0.00162186
-0.000736263
0.00273488
-0.00171457
0.00426534
-0.00248682
-0.00466668
0.00639583
-9.08884e-06
0.000335793
9.36081e-06
0.000612588
0.000102088
0.000629119
0.000333734
0.000404805
0.000788676
-7.03731e-05
0.00156144
-0.000811827
0.00274233
-0.00191716
0.00432755
-0.00329979
0.00640017
-0.00455944
-0.00702713
0.00876063
-5.72871e-06
0.000341522
4.36156e-05
0.000563243
0.0002164
0.000456334
0.000606089
1.51163e-05
0.00132781
-0.000792097
0.0024898
-0.00197382
0.00407059
-0.00349795
0.006034
-0.00526319
0.00838265
-0.00690809
-0.00913439
0.0104899
-1.12213e-06
0.000342644
8.89761e-05
0.000473145
0.000372934
0.000172376
0.00098278
-0.00059473
0.00203748
-0.0018468
0.00357246
-0.0035088
0.00544177
-0.00536726
0.00748475
-0.00730617
0.0095809
-0.00900424
-0.0107668
0.0112133
6.76691e-06
0.000335877
0.000157658
0.000322254
0.000599682
-0.000269648
0.00149075
-0.00148579
0.00288246
-0.00323851
0.00464089
-0.00526722
0.00653032
-0.0072567
0.00831644
-0.00909229
0.00984109
-0.0105289
-0.0119002
0.0109745
2.21767e-05
0.0003137
0.000262374
8.20567e-05
0.000915853
-0.000923127
0.00210497
-0.00267491
0.00371292
-0.00484646
0.00545102
-0.00700532
0.00707514
-0.00888081
0.00840765
-0.0104248
0.00952694
-0.0116482
-0.0128679
0.0104946
4.81389e-05
0.000265561
0.000413021
-0.000282825
0.00131345
-0.00182355
0.00272515
-0.00408662
0.00433721
-0.00645851
0.0058367
-0.00850482
0.00707623
-0.0101203
0.00805986
-0.0114084
0.00891136
-0.0124997
-0.0136012
0.0096446
8.70146e-05
0.000178547
0.000612501
-0.000808312
0.00174032
-0.00295137
0.00321455
-0.00556085
0.00464265
-0.00788661
0.00581852
-0.00968068
0.00673715
-0.011039
0.00747722
-0.0121485
0.00814188
-0.0131643
-0.0142461
0.00878684
0.000141587
3.69602e-05
0.000847361
-0.00151409
0.00211184
-0.00421584
0.0034843
-0.00693331
0.00464391
-0.00904622
0.00552745
-0.0105642
0.00620599
-0.0117175
0.0067751
-0.0127176
0.00732393
-0.0137132
-0.0147809
0.00785874
0.000214194
-0.000177234
0.00108392
-0.00238381
0.00235578
-0.00548771
0.00352928
-0.00810682
0.00442219
-0.00993912
0.00506985
-0.0112119
0.00557311
-0.0122208
0.00601957
-0.0131641
0.00645927
-0.0141529
-0.0152207
0.00689905
0.000302151
-0.000479385
0.00128128
-0.00336294
0.0024492
-0.00665563
0.00339336
-0.00905097
0.00405334
-0.0105991
0.00451828
-0.0116768
0.00488935
-0.0125918
0.00523137
-0.0135061
0.00557564
-0.0144971
-0.0155675
0.00592246
0.000393576
-0.000872961
0.0014063
-0.00437566
0.00240705
-0.00765638
0.00312781
-0.00977174
0.00359471
-0.011066
0.0039166
-0.0119987
0.00417957
-0.0128548
0.00442841
-0.013755
0.00467692
-0.0147456
-0.0158147
0.00492408
0.000473161
-0.00134612
0.00144204
-0.00534454
0.00225634
-0.00847068
0.00277651
-0.0102919
0.00308516
-0.0113747
0.00329057
-0.0122041
0.00345872
-0.013023
0.0036168
-0.013913
0.0037707
-0.0148995
-0.0159647
0.00392075
0.000528649
-0.00187477
0.00139342
-0.00620931
0.00202519
-0.00910245
0.00237275
-0.0106395
0.00255043
-0.0115523
0.00265561
-0.0123093
0.00273457
-0.0131019
0.00280299
-0.0139815
0.00286332
-0.0149599
-0.016018
0.00291657
0.000552642
-0.00242741
0.00128328
-0.00693995
0.00174004
-0.0095592
0.00193999
-0.0108394
0.00200656
-0.0116189
0.00202105
-0.0123238
0.00201352
-0.0130944
0.00199161
-0.0139595
0.00195602
-0.0149243
-0.0159764
0.00191447
0.000542562
-0.00296998
0.00112649
-0.00752388
0.00142184
-0.00985455
0.00149414
-0.0109117
0.00146367
-0.0115884
0.00139312
-0.0122532
0.00130055
-0.0130018
0.00118846
-0.0138475
0.00105392
-0.0147897
-0.0158319
0.000909369
0.000501207
-0.00347118
0.000936992
-0.00795966
0.00108639
-0.0100039
0.00104713
-0.0108725
0.000928592
-0.0114699
0.000775861
-0.0121005
0.00059911
-0.0128251
0.000397636
-0.013646
0.000175235
-0.0145673
-0.0155602
-9.64602e-05
0.000435444
-0.00390663
0.000727149
-0.00825137
0.000745863
-0.0100227
0.000606916
-0.0107335
0.000405298
-0.0112683
0.000170933
-0.0118661
-8.95648e-05
-0.0125646
-0.000372283
-0.0133633
-0.000690711
-0.0142489
-0.015209
-0.00104189
0.000353302
-0.00425993
0.000507211
-0.00840528
0.000408468
-0.00992391
0.000176755
-0.0105018
-0.000103217
-0.0109883
-0.000409102
-0.0115603
-0.000745673
-0.012228
-0.00111716
-0.0129918
-0.00152659
-0.0138395
-0.0147707
-0.00196494
0.000261849
-0.00452178
0.000286311
-0.00842974
7.69512e-05
-0.00971455
-0.000232732
-0.0101921
-0.000582693
-0.0106383
-0.00096588
-0.0111771
-0.0013814
-0.0118125
-0.0018359
-0.0125373
-0.00232795
-0.0133474
-0.0142452
-0.00285344
0.000166599
-0.00468838
7.49606e-05
-0.0083381
-0.000234013
-0.00940558
-0.000620759
-0.00980539
-0.00104348
-0.0102156
-0.00149916
-0.0107214
-0.00199026
-0.0113214
-0.00252241
-0.0120051
-0.00309449
-0.0127754
-0.0136365
-0.00370317
7.30559e-05
-0.00476143
-0.000139942
-0.0081251
-0.000529751
-0.00901577
-0.00098944
-0.0093457
-0.00148131
-0.00972375
-0.0020066
-0.0101961
-0.00256937
-0.0107586
-0.00317394
-0.0114006
-0.00382195
-0.0121274
-0.0129518
-0.00450657
-1.31659e-05
-0.00474827
-0.00034192
-0.00779635
-0.000810226
-0.00854747
-0.00133601
-0.00881993
-0.00189367
-0.00916608
-0.00248631
-0.00960346
-0.00311822
-0.0101267
-0.00379092
-0.0107279
-0.0044996
-0.0114187
-0.012199
-0.00525242
-0.000119183
-0.00462908
-0.000528891
-0.00738664
-0.00107099
-0.00800537
-0.00165882
-0.0082321
-0.0022786
-0.00854631
-0.00293544
-0.00894661
-0.00363415
-0.009428
-0.00437751
-0.0099845
-0.0051694
-0.0106268
-0.0114259
-0.00594257
-0.000209354
-0.00441973
-0.000701681
-0.00689432
-0.00130991
-0.00739713
-0.00195614
-0.00758588
-0.00263405
-0.00786839
-0.00335042
-0.00823024
-0.00411045
-0.00866797
-0.00491693
-0.00917802
-0.00577081
-0.0097729
-0.0104265
-0.00677017
-0.000290198
-0.00412953
-0.000859017
-0.0063255
-0.00152673
-0.00672942
-0.0022268
-0.0068858
-0.00295861
-0.00713658
-0.00372912
-0.00745973
-0.004542
-0.00785509
-0.00540115
-0.00831886
-0.00632623
-0.00884782
-0.0093989
-0.00735384
-0.000362199
-0.00376733
-0.000999721
-0.00568797
-0.00172061
-0.00600854
-0.00246961
-0.0061368
-0.00325058
-0.00635561
-0.00407144
-0.00663887
-0.0049387
-0.00698784
-0.00586137
-0.0073962
-0.00685418
-0.007855
-0.00834237
-0.00791071
-0.000425052
-0.00334228
-0.00112308
-0.00498995
-0.00189098
-0.00524064
-0.00268355
-0.00534423
-0.00350773
-0.00553144
-0.00437139
-0.0057752
-0.00528246
-0.00607677
-0.00625195
-0.00642671
-0.00729151
-0.00681545
-0.0072377
-0.00839617
-0.000477775
-0.00286451
-0.0012284
-0.00423932
-0.00203741
-0.00443163
-0.00286833
-0.0045133
-0.00373102
-0.00466875
-0.00463404
-0.00487218
-0.00558629
-0.00512452
-0.00659735
-0.00541565
-0.00767451
-0.00573829
-0.00609409
-0.00881812
-0.000518856
-0.00234565
-0.00131533
-0.00344285
-0.00215953
-0.00358743
-0.00302268
-0.00365015
-0.00391718
-0.00377425
-0.00485222
-0.00393714
-0.00583743
-0.0041393
-0.00688177
-0.0043713
-0.00799175
-0.00462831
-0.00491516
-0.00917069
-0.000554154
-0.0017915
-0.00138517
-0.00261183
-0.00225758
-0.00271502
-0.00314699
-0.00276075
-0.00406759
-0.00285365
-0.0050289
-0.00297583
-0.00604069
-0.00312751
-0.00711109
-0.0033009
-0.00824652
-0.00349288
-0.00370885
-0.00945284
-0.000581556
-0.00120994
-0.0014379
-0.00175548
-0.00233121
-0.00182171
-0.00324034
-0.00185162
-0.00418053
-0.00191346
-0.00516149
-0.00199487
-0.00619309
-0.00209591
-0.00728292
-0.00221107
-0.00843722
-0.00233858
-0.00248264
-0.00966343
-0.00060004
-0.00147325
-0.00238041
-0.00330273
-0.0009293
-0.00425605
-0.000960141
-0.00525015
-0.00100077
-0.00629486
-0.0010512
-0.00739733
-0.0011086
-0.00856381
-0.0011721
-0.00124398
-0.00980247
-0.00333394
-0.00429382
-0.00529447
-0.00634567
-0.00745441
-0.00862677
-0.00987112
-0.0023596
-2.46277e-05
-0.00239822
-3.14621e-05
-0.00243221
-3.83641e-05
-0.00246194
-4.37411e-05
-0.00248785
-4.73182e-05
-0.00251039
-4.89668e-05
-0.00252992
-4.86508e-05
-0.00254673
-4.63517e-05
-0.00256103
-4.2076e-05
-0.002573
-3.58458e-05
-0.00258273
-2.77077e-05
-0.00259024
-1.77516e-05
-0.00259539
-6.17614e-06
-0.00259883
7.62707e-06
-0.00260068
2.2892e-05
-0.00260085
3.93996e-05
-0.00259933
5.70156e-05
-0.00259611
7.55292e-05
-0.00259118
9.46964e-05
-0.00258454
0.000114249
-0.00257617
0.0001339
-0.00256606
0.000153348
-0.00255421
0.000172274
-0.00254057
0.000190344
-0.00252514
0.000207251
-0.00250789
0.000222675
-0.00248883
0.000236297
-0.00246792
0.000247806
0.000256906
-0.00198235
1.3228e-05
-0.00201585
2.03571e-06
-0.00204601
-8.20489e-06
-0.0020725
-1.7249e-05
-0.00209542
-2.4401e-05
-0.00211503
-2.93612e-05
-0.00213158
-3.20915e-05
-0.00214533
-3.26029e-05
-0.00215643
-3.09762e-05
-0.002165
-2.72786e-05
-0.00217112
-2.15879e-05
-0.00217483
-1.40421e-05
-0.00217609
-4.91703e-06
-0.00217513
6.67158e-06
-0.00217227
2.00252e-05
-0.00216745
3.45845e-05
-0.00216066
5.02285e-05
-0.00215189
6.67579e-05
-0.00214113
8.39332e-05
-0.00212837
0.000101486
-0.0021136
0.00011913
-0.00209682
0.00013657
-0.00207804
0.000153491
-0.00205719
0.000169493
-0.00203426
0.000184328
-0.00200927
0.000197682
-0.0019822
0.000209229
-0.00195306
0.000218661
0.000225686
-0.00120625
4.30798e-05
-0.00123203
2.78173e-05
-0.00125718
1.69391e-05
-0.00127886
4.43234e-06
-0.00129755
-5.71201e-06
-0.0013137
-1.32096e-05
-0.00132718
-1.8606e-05
-0.00133794
-2.1845e-05
-0.00134595
-2.29625e-05
-0.00135124
-2.19888e-05
-0.00135388
-1.89557e-05
-0.0013539
-1.40139e-05
-0.00135145
-7.37474e-06
-0.0013457
9.2071e-07
-0.00133791
1.22408e-05
-0.00132777
2.44475e-05
-0.00131526
3.7716e-05
-0.00130038
5.18802e-05
-0.00128316
6.67048e-05
-0.00126359
8.19209e-05
-0.00124169
9.72284e-05
-0.00121741
0.000112293
-0.00119106
0.000127136
-0.00116226
0.000140692
-0.00113108
0.000153153
-0.00109757
0.000164173
-0.00106174
0.000173399
-0.00102361
0.000180528
0.000185283
-2.6926e-05
5.7301e-05
-5.0824e-05
5.17153e-05
-7.19597e-05
3.80748e-05
-9.25451e-05
2.50178e-05
-0.000111805
1.35475e-05
-0.000128119
3.10484e-06
-0.000142066
-4.65915e-06
-0.000153783
-1.01282e-05
-0.000162847
-1.38984e-05
-0.000169051
-1.57847e-05
-0.000172342
-1.56643e-05
-0.000172614
-1.37427e-05
-0.000169877
-1.01114e-05
-0.00016403
-4.92619e-06
-0.000154131
2.34148e-06
-0.000141542
1.1859e-05
-0.000126072
2.22456e-05
-0.0001077
3.35088e-05
-8.64364e-05
4.54409e-05
-6.23014e-05
5.77858e-05
-3.53569e-05
7.02839e-05
-5.69524e-06
8.26316e-05
2.73542e-05
9.40864e-05
6.28928e-05
0.000105154
0.000100935
0.000115111
0.000141542
0.000123566
0.000184694
0.000130246
0.000230329
0.000134894
0.000278362
0.000137249
0.000137068
0.00163865
0.000121184
0.00158999
0.000100376
0.00154808
7.99856e-05
0.00151016
6.29301e-05
0.00147594
4.77656e-05
0.00144492
3.41306e-05
0.00141758
2.26794e-05
0.0013941
1.33562e-05
0.00137448
5.72146e-06
0.00135943
-7.36327e-07
0.00134742
-3.6569e-06
0.00133895
-5.27598e-06
0.00133415
-5.30375e-06
0.001333
-3.77869e-06
0.00133633
-9.93929e-07
0.00134353
4.65821e-06
0.00135458
1.11959e-05
0.00136948
1.8611e-05
0.00138816
2.676e-05
0.00141054
3.54125e-05
0.00143652
4.42996e-05
0.00146607
5.30823e-05
0.00149876
6.13918e-05
0.00153483
6.90906e-05
0.00157417
7.57705e-05
0.00161665
8.10876e-05
0.00166214
8.47533e-05
0.00171052
8.65116e-05
0.00176165
8.61176e-05
8.33363e-05
0.00379705
0.000228332
0.00370508
0.000192352
0.00361817
0.000166897
0.00353717
0.000143931
0.00346425
0.00012068
0.00339953
9.88523e-05
0.0033418
8.04079e-05
0.00329006
6.51023e-05
0.00324382
5.19563e-05
0.00320243
4.06542e-05
0.00316735
3.14237e-05
0.0031379
2.41693e-05
0.00311381
1.87939e-05
0.00309484
1.51879e-05
0.00308056
1.32835e-05
0.00307213
1.3089e-05
0.00306897
1.43533e-05
0.00307082
1.67634e-05
0.00307753
2.00519e-05
0.00308899
2.39536e-05
0.00310509
2.8194e-05
0.00312571
3.24716e-05
0.00315063
3.64706e-05
0.00317979
3.99242e-05
0.00321305
4.25123e-05
0.00325022
4.39226e-05
0.00329112
4.38537e-05
0.00333555
4.2082e-05
0.00338328
3.83793e-05
3.25264e-05
0.00624936
0.000374802
0.00611324
0.00032847
0.00598173
0.000298408
0.00585407
0.000271592
0.00573534
0.000239415
0.00562639
0.000207794
0.00552607
0.000180729
0.00543384
0.000157334
0.00534972
0.00013608
0.00527353
0.00011684
0.00520498
9.99797e-05
0.00514367
8.54762e-05
0.00508937
7.30948e-05
0.00504189
6.26611e-05
0.00500111
5.40726e-05
0.00496698
4.7219e-05
0.00493944
4.1888e-05
0.00491836
3.7843e-05
0.00490357
3.48426e-05
0.00489489
3.26343e-05
0.00489213
3.09502e-05
0.0048951
2.95051e-05
0.00490357
2.80032e-05
0.00491734
2.61526e-05
0.0049362
2.36553e-05
0.0049599
2.0215e-05
0.0049882
1.5561e-05
0.00502086
9.41767e-06
0.00505786
1.38181e-06
0.00509824
-7.85816e-06
-1.95262e-05
0.00858943
0.000546
0.00842519
0.000492709
0.0082605
0.000463098
0.00810087
0.000431226
0.00795115
0.000389135
0.00781028
0.000348656
0.00767719
0.000313825
0.0075523
0.000282225
0.00743612
0.00025226
0.00732856
0.000224399
0.00722939
0.000199145
0.00713847
0.000176404
0.00705561
0.000155946
0.00698063
0.000137641
0.00691333
0.00012138
0.00685354
0.000107006
0.00680112
9.43117e-05
0.00675588
8.30757e-05
0.00671766
7.30636e-05
0.00668627
6.40278e-05
0.00666151
5.57075e-05
0.00664319
4.78307e-05
0.00663107
4.01176e-05
0.00662495
3.22723e-05
0.00662461
2.3996e-05
0.0066299
1.49258e-05
0.00664085
4.61028e-06
0.00665642
-6.15492e-06
0.00667587
-1.80627e-05
0.00669976
-3.17498e-05
0.00672755
-4.73136e-05
-6.48695e-05
0.0103252
0.000710719
0.0101611
0.000656745
0.00999338
0.000630862
0.00983313
0.000591477
0.00968067
0.000541602
0.00953428
0.000495046
0.00939416
0.00045394
0.00926097
0.000415413
0.00913493
0.000378304
0.00901611
0.000343221
0.00890471
0.00031054
0.00880091
0.000280204
0.00870473
0.000252131
0.00861609
0.000226281
0.0085349
0.000202569
0.00846106
0.000180846
0.00839444
0.000160934
0.00833488
0.000142636
0.0082822
0.000125739
0.00823622
0.000110007
0.00819673
9.51941e-05
0.00816353
8.10392e-05
0.00813637
6.72756e-05
0.00811502
5.36251e-05
0.00809922
3.97926e-05
0.00808866
2.54842e-05
0.00808299
1.02793e-05
0.00808226
-5.4238e-06
0.00808554
-2.1345e-05
0.0080928
-3.90066e-05
0.00810388
-5.83936e-05
-7.94026e-05
0.0111046
0.000819455
0.0109754
0.000785912
0.0108549
0.000751422
0.0107379
0.000708426
0.0106213
0.000658171
0.0105071
0.000609337
0.0103963
0.000564703
0.0102889
0.000522759
0.010185
0.000482265
0.0100848
0.00044341
0.00998886
0.000406477
0.00989754
0.000371517
0.00981114
0.000338537
0.00972986
0.000307553
0.0096539
0.000278532
0.00958337
0.000251383
0.00951832
0.000225981
0.00945878
0.000202176
0.00940472
0.000179797
0.00935608
0.000158649
0.00931275
0.000138522
0.0092746
0.000119195
0.00924144
0.000100429
0.00921307
8.19972e-05
0.00918926
6.36049e-05
0.00916972
4.50206e-05
0.00915421
2.57874e-05
0.00914342
5.37235e-06
0.00913609
-1.4019e-05
0.00913174
-3.46564e-05
0.00913024
-5.68907e-05
0.00913125
-8.04169e-05
-0.000105265
0.016552
0.000927878
-0.0166604
0.0164677
0.000870123
0.016394
0.000825194
0.0163227
0.000779719
0.0162481
0.000732717
0.0161708
0.000686629
0.0160934
0.000642141
0.0160167
0.000599464
0.0159403
0.000558683
0.015864
0.000519698
0.0157881
0.000482366
0.015713
0.000446642
0.015639
0.00041255
0.0155664
0.000380096
0.0154957
0.000349234
0.0154272
0.000319883
0.0153613
0.000291937
0.0152982
0.000265266
0.0152382
0.000239727
0.0151817
0.000215157
0.0151289
0.000191385
0.0150798
0.000168225
0.0150348
0.000145481
0.0149938
0.000122974
0.0149569
0.000100493
0.014924
7.79317e-05
0.0148947
5.51515e-05
0.0148678
3.22115e-05
0.0148446
9.22538e-06
0.0148257
-1.58041e-05
0.0148105
-4.16442e-05
0.0147982
-6.81498e-05
-9.57019e-05
0.0166561
0.000941601
-0.0166698
0.0166396
0.000886585
0.0166289
0.000835884
0.0166183
0.000790286
0.0166038
0.00074724
0.0165852
0.000705245
0.0165633
0.000664031
0.0165388
0.000624013
0.0165119
0.00058552
0.0164831
0.000548564
0.0164524
0.000513013
0.0164203
0.00047877
0.016387
0.000445802
0.016353
0.000414092
0.0163187
0.000383605
0.0162843
0.000354278
0.0162502
0.000326029
0.0162167
0.000298756
0.0161841
0.000272345
0.0161526
0.00024667
0.0161223
0.000221597
0.0160936
0.00019699
0.0160663
0.000172713
0.0160407
0.000148636
0.0160165
0.000124636
0.0159939
0.000100569
0.0159728
7.62785e-05
0.0159535
5.15278e-05
0.0159366
2.61019e-05
0.015921
-2.64835e-07
0.0159057
-2.63036e-05
0.0158914
-5.38139e-05
-8.18609e-05
0.0165563
0.000924464
-0.0165392
0.0165709
0.000872076
0.0165832
0.00082355
0.0165939
0.000779523
0.0166026
0.000738599
0.0166086
0.000699261
0.0166118
0.000660847
0.0166124
0.000623414
0.0166107
0.000587172
0.0166071
0.000552207
0.0166016
0.000518471
0.0165945
0.000485874
0.016586
0.000454346
0.0165762
0.000423843
0.0165655
0.000394321
0.016554
0.000365728
0.0165421
0.000337993
0.0165298
0.000311036
0.0165174
0.000284763
0.016505
0.000259076
0.0164927
0.00023387
0.0164807
0.000209037
0.0164689
0.000184464
0.0164575
0.000160033
0.0164465
0.000135622
0.016436
0.000111092
0.0164259
8.63609e-05
0.0164161
6.13505e-05
0.0164061
3.6118e-05
0.0163951
1.0751e-05
0.0163844
-1.56727e-05
0.0163732
-4.25966e-05
-6.99062e-05
0.0164133
0.000888172
-0.016377
0.016441
0.000844358
0.016464
0.000800582
0.0164843
0.000759155
0.0165027
0.000720286
0.0165187
0.000683196
0.0165324
0.000647217
0.0165436
0.000612125
0.0165528
0.000577971
0.0165602
0.000544839
0.0165659
0.000512743
0.0165702
0.000481637
0.0165731
0.000451454
0.0165748
0.00042214
0.0165754
0.000393644
0.0165753
0.000365917
0.0165744
0.000338903
0.0165729
0.000312535
0.0165709
0.000286737
0.0165685
0.000261431
0.0165659
0.000236529
0.016563
0.000211943
0.0165598
0.000187582
0.0165565
0.000163352
0.016553
0.000139169
0.0165491
0.000114957
0.0165448
9.06599e-05
0.0165399
6.62248e-05
0.0165344
4.16051e-05
0.0165286
1.6646e-05
0.0165216
-8.74676e-06
0.0165136
-3.45247e-05
-6.05829e-05
0.016261
0.000848646
-0.0162215
0.016295
0.000810336
0.0163247
0.000770867
0.0163512
0.000732659
0.0163751
0.000696395
0.0163966
0.000661719
0.0164157
0.00062811
0.0164326
0.000595281
0.0164473
0.000563194
0.0164603
0.000531908
0.0164715
0.000501463
0.0164813
0.000471846
0.0164898
0.000443013
0.016497
0.000414915
0.0165031
0.000387504
0.0165083
0.000360737
0.0165127
0.000334568
0.0165163
0.000308943
0.0165192
0.000283805
0.0165215
0.000259088
0.0165233
0.000234725
0.0165246
0.000210648
0.0165254
0.000186788
0.0165257
0.00016308
0.0165254
0.000139461
0.0165245
0.000115876
0.0165229
9.22658e-05
0.0165205
6.85736e-05
0.0165174
4.47302e-05
0.0165133
2.07067e-05
0.0165081
-3.49077e-06
0.0165015
-2.79227e-05
-5.25302e-05
0.0161163
0.00080738
-0.016075
0.0161541
0.000772502
0.016188
0.000736991
0.0162184
0.000702295
0.0162458
0.000668978
0.0162706
0.000636873
0.0162931
0.000605632
0.0163134
0.000575027
0.0163316
0.000545005
0.0163479
0.000515604
0.0163625
0.000486867
0.0163755
0.000458801
0.0163871
0.000431383
0.0163975
0.000404574
0.0164066
0.000378338
0.0164147
0.00035264
0.0164219
0.000327442
0.0164281
0.000302704
0.0164335
0.000278382
0.0164382
0.000254427
0.0164421
0.000230788
0.0164454
0.000207414
0.0164479
0.000184255
0.0164497
0.000161261
0.0164508
0.000138382
0.0164511
0.000115572
0.0164506
9.27824e-05
0.0164492
6.99743e-05
0.0164468
4.71177e-05
0.0164433
2.42033e-05
0.0164385
1.25732e-06
0.0164325
-2.18541e-05
-4.50026e-05
0.0159862
0.000763676
-0.0159425
0.0160259
0.000732806
0.0160618
0.000701082
0.0160943
0.000669756
0.016124
0.00063936
0.016151
0.000609832
0.0161757
0.00058094
0.0161982
0.000552526
0.0162186
0.000524552
0.0162372
0.00049705
0.016254
0.000470059
0.0162692
0.000443596
0.0162829
0.000417651
0.0162953
0.000392204
0.0163064
0.000367226
0.0163164
0.000342691
0.0163252
0.000318574
0.0163331
0.000294845
0.01634
0.000271471
0.016346
0.000248417
0.0163512
0.000225647
0.0163555
0.000203121
0.0163589
0.000180802
0.0163615
0.000158653
0.0163633
0.000136636
0.0163641
0.000114717
0.016364
9.28658e-05
0.0163629
7.10603e-05
0.0163608
4.92837e-05
0.0163575
2.75209e-05
0.016353
5.76015e-06
0.0163471
-1.59961e-05
-3.77434e-05
0.0158697
0.000719745
-0.0158258
0.0159099
0.000692597
0.0159467
0.000664279
0.0159805
0.000636027
0.0160114
0.000608384
0.0160399
0.000581346
0.0160661
0.00055475
0.0160902
0.000528482
0.0161122
0.000502521
0.0161323
0.000476902
0.0161507
0.000451664
0.0161675
0.000426829
0.0161828
0.000402399
0.0161966
0.000378363
0.0162091
0.000354705
0.0162204
0.000331409
0.0162305
0.000308457
0.0162395
0.00028583
0.0162475
0.000263505
0.0162545
0.000241458
0.0162604
0.000219662
0.0162655
0.00019809
0.0162696
0.000176716
0.0162727
0.000155511
0.0162749
0.000134451
0.0162761
0.000113514
0.0162763
9.26808e-05
0.0162754
7.19353e-05
0.0162734
5.12657e-05
0.0162703
3.06617e-05
0.0162659
1.01114e-05
0.0162603
-1.03542e-05
-3.07497e-05
0.0157641
0.000676734
-0.0157211
0.0158042
0.000652506
0.0158414
0.000627159
0.0158757
0.000601707
0.0159074
0.000576634
0.0159368
0.00055196
0.015964
0.000527566
0.0159891
0.00050337
0.0160123
0.000479366
0.0160336
0.000455592
0.0160532
0.000432089
0.0160711
0.000408883
0.0160875
0.000385982
0.0161025
0.000363386
0.0161161
0.000341088
0.0161284
0.00031908
0.0161395
0.000297353
0.0161495
0.000275894
0.0161583
0.00025469
0.016166
0.000233726
0.0161727
0.000212983
0.0161783
0.000192444
0.016183
0.00017209
0.0161866
0.000151904
0.0161892
0.00013187
0.0161907
0.000111973
0.0161912
9.22021e-05
0.0161906
7.25457e-05
0.0161888
5.2997e-05
0.016186
3.35525e-05
0.0161819
1.42109e-05
0.0161765
-5.01018e-06
-2.41032e-05
0.0156675
0.000634543
-0.0156253
0.0157071
0.000612872
0.0157441
0.000590168
0.0157786
0.000567257
0.0158107
0.000544554
0.0158405
0.00052209
0.0158683
0.000499777
0.0158941
0.000477556
0.0159181
0.000455432
0.0159402
0.000433445
0.0159607
0.000411637
0.0159795
0.000390038
0.0159968
0.000368662
0.0160127
0.000347513
0.0160272
0.000326593
0.0160404
0.000305901
0.0160523
0.000285433
0.016063
0.000265186
0.0160725
0.000245151
0.0160809
0.00022532
0.0160882
0.000205684
0.0160945
0.000186231
0.0160996
0.000166951
0.0161037
0.000147833
0.0161067
0.000128868
0.0161086
0.000110047
0.0161094
9.13627e-05
0.0161092
7.28115e-05
0.0161078
5.43907e-05
0.0161052
3.61017e-05
0.0161015
1.79475e-05
0.0160965
-7.00525e-08
-1.79099e-05
0.0155784
0.000593293
-0.0155372
0.0156173
0.000573976
0.0156539
0.000553642
0.0156881
0.000533018
0.0157202
0.000512476
0.0157502
0.000492056
0.0157783
0.000471689
0.0158045
0.000451334
0.0158289
0.000431
0.0158517
0.000410728
0.0158727
0.000390562
0.0158922
0.000370531
0.0159103
0.000350654
0.0159268
0.000330941
0.015942
0.000311398
0.0159559
0.000292029
0.0159685
0.000272837
0.0159799
0.000253822
0.01599
0.000234983
0.015999
0.000216316
0.0160069
0.000197819
0.0160136
0.000179485
0.0160193
0.00016131
0.0160238
0.000143289
0.0160273
0.000125416
0.0160296
0.00010769
0.0160309
9.01061e-05
0.016031
7.26654e-05
0.0160301
5.5369e-05
0.0160279
3.82211e-05
0.0160247
2.1227e-05
0.0160202
4.38324e-06
-1.22596e-05
0.015496
0.000553265
-0.015456
0.015534
0.000536016
0.0155698
0.000517788
0.0156036
0.00049922
0.0156355
0.000480645
0.0156654
0.000462107
0.0156936
0.000443551
0.0157199
0.000424946
0.0157446
0.000406305
0.0157677
0.000387668
0.0157892
0.000369077
0.0158092
0.000350564
0.0158277
0.000332148
0.0158448
0.000313843
0.0158605
0.00029566
0.0158749
0.000277606
0.0158881
0.000259687
0.0159
0.000241909
0.0159107
0.000224275
0.0159202
0.000206786
0.0159286
0.000189442
0.0159358
0.000172242
0.015942
0.000155187
0.015947
0.000138275
0.0159509
0.000121506
0.0159537
0.00010488
0.0159554
8.83976e-05
0.015956
7.20625e-05
0.0159555
5.5878e-05
0.0159539
3.98494e-05
0.0159511
2.39837e-05
0.0159472
8.28703e-06
-7.21405e-06
0.0154197
0.000514541
-0.015381
0.0154566
0.000499093
0.0154917
0.000482739
0.0155249
0.000466024
0.0155563
0.000449241
0.015586
0.000432432
0.015614
0.000415555
0.0156403
0.000398585
0.0156651
0.000381537
0.0156883
0.00036445
0.01571
0.000347363
0.0157303
0.000330307
0.0157491
0.000313305
0.0157666
0.000296371
0.0157827
0.000279518
0.0157976
0.000262757
0.0158112
0.000246098
0.0158235
0.000229547
0.0158347
0.000213113
0.0158447
0.000196799
0.0158535
0.000180608
0.0158612
0.000164545
0.0158678
0.000148611
0.0158733
0.000132809
0.0158776
0.000117141
0.0158809
0.000101611
0.0158831
8.62228e-05
0.0158841
7.09803e-05
0.0158841
5.58893e-05
0.015883
4.09566e-05
0.0158808
2.61905e-05
0.0158775
1.15993e-05
-2.80366e-06
0.015349
0.00047709
-0.0153116
0.0153849
0.00046325
0.015419
0.000448576
0.0154515
0.000433536
0.0154824
0.000418386
0.0155117
0.000403166
0.0155394
0.000387844
0.0155656
0.000372399
0.0155902
0.000356846
0.0156135
0.000341222
0.0156353
0.000325564
0.0156557
0.000309902
0.0156747
0.000294259
0.0156924
0.00027865
0.0157089
0.00026309
0.015724
0.000247592
0.015738
0.000232167
0.0157507
0.000216825
0.0157622
0.000201574
0.0157726
0.000186423
0.0157818
0.000171376
0.0157899
0.000156439
0.0157969
0.000141618
0.0158028
0.000126917
0.0158076
0.000112341
0.0158113
9.78946e-05
0.015814
8.35843e-05
0.0158156
6.94157e-05
0.015816
5.5396e-05
0.0158155
4.15328e-05
0.0158138
2.78357e-05
0.0158111
1.43135e-05
9.59407e-07
0.0152837
0.000440887
-0.0152475
0.0153184
0.000428497
0.0153517
0.000415338
0.0153834
0.000401815
0.0154136
0.000388156
0.0154424
0.000374399
0.0154697
0.000360516
0.0154956
0.000346491
0.0155201
0.00033234
0.0155433
0.000318095
0.015565
0.000303792
0.0155855
0.000289458
0.0156046
0.000275116
0.0156225
0.000260783
0.0156391
0.000246474
0.0156545
0.000232202
0.0156687
0.00021798
0.0156817
0.000203819
0.0156935
0.000189729
0.0157042
0.00017572
0.0157138
0.000161798
0.0157223
0.000147972
0.0157297
0.000134247
0.0157359
0.000120631
0.0157412
0.000107129
0.0157453
9.3749e-05
0.0157484
8.04969e-05
0.0157504
6.738e-05
0.0157514
5.4406e-05
0.0157514
4.15833e-05
0.0157503
2.89207e-05
0.0157482
1.64273e-05
4.10956e-06
0.0152234
0.000405901
-0.0151884
0.0152571
0.000394816
0.0152894
0.000383027
0.0153203
0.000370886
0.0153499
0.000358593
0.0153781
0.000346183
0.015405
0.000333634
0.0154305
0.000320934
0.0154548
0.000308096
0.0154777
0.00029515
0.0154994
0.000282129
0.0155198
0.00026906
0.0155389
0.000255962
0.0155568
0.000242853
0.0155736
0.000229749
0.0155891
0.000216663
0.0156035
0.000203608
0.0156167
0.000190596
0.0156288
0.000177639
0.0156398
0.000164746
0.0156496
0.000151926
0.0156584
0.000139187
0.0156661
0.000126538
0.0156728
0.000113985
0.0156784
0.000101537
0.0156829
8.92007e-05
0.0156864
7.69835e-05
0.0156889
6.48933e-05
0.0156904
5.29382e-05
0.0156908
4.11267e-05
0.0156903
2.94678e-05
0.0156888
1.79709e-05
6.64475e-06
0.0151678
0.00037207
-0.015134
0.0152005
0.000362166
0.0152319
0.000351622
0.015262
0.000340744
0.0152909
0.000329707
0.0153186
0.000318544
0.015345
0.000307235
0.0153701
0.000295772
0.015394
0.000284165
0.0154168
0.000272444
0.0154382
0.000260637
0.0154585
0.000248768
0.0154776
0.000236858
0.0154956
0.000224922
0.0155123
0.000212976
0.015528
0.000201033
0.0155425
0.000189108
0.0155559
0.000177211
0.0155681
0.000165355
0.0155793
0.000153549
0.0155895
0.000141803
0.0155985
0.000130127
0.0156065
0.000118528
0.0156135
0.000107015
0.0156194
9.55962e-05
0.0156244
8.4279e-05
0.0156283
7.30715e-05
0.0156312
6.19819e-05
0.0156331
5.10182e-05
0.015634
4.01891e-05
0.015634
2.95034e-05
0.015633
1.897e-05
8.59748e-06
0.0151169
0.000339318
-0.0150841
0.0151486
0.000330492
0.0151791
0.000321087
0.0152085
0.00031137
0.0152367
0.000301492
0.0152637
0.000291486
0.0152896
0.000281333
0.0153144
0.000271027
0.015338
0.000260578
0.0153604
0.000250011
0.0153817
0.000239353
0.0154018
0.000228627
0.0154208
0.000217849
0.0154387
0.000207036
0.0154555
0.000196203
0.0154712
0.000185362
0.0154858
0.000174526
0.0154993
0.000163709
0.0155117
0.00015292
0.0155231
0.000142171
0.0155334
0.000131471
0.0155427
0.000120829
0.015551
0.000110254
0.0155582
9.97546e-05
0.0155645
8.93391e-05
0.0155698
7.90154e-05
0.015574
6.87916e-05
0.0155773
5.86758e-05
0.0155797
4.86761e-05
0.0155811
3.88009e-05
0.0155815
2.90587e-05
0.015581
1.94586e-05
1.00088e-05
0.0150704
0.000307567
-0.0150386
0.0151011
0.00029973
0.0151308
0.000291374
0.0151595
0.000282728
0.015187
0.000273927
0.0152135
0.000264997
0.0152389
0.000255925
0.0152633
0.000246705
0.0152865
0.000237346