/*--------------------------------*- C++ -*----------------------------------*\
  =========                 |
  \\      /  F ield         | OpenFOAM: The Open Source CFD Toolbox
   \\    /   O peration     | Website:  https://openfoam.org
    \\  /    A nd           | Version:  7
     \\/     M anipulation  |
\*---------------------------------------------------------------------------*/
FoamFile
{
    version     2.0;
    format      ascii;
    class       volVectorField;
    location    "15";
    object      U;
}
// * * * * * * * * * * * * * * * * * * * * * * * * * * * * * * * * * * * * * //

dimensions      [0 1 -1 0 0 0 0];

internalField   nonuniform List<vector> 
1360
(
(0.906239 0.0464094 0)
(0.963033 0.0457409 0)
(1.01324 0.0440967 8.73215e-12)
(1.05586 0.0417345 -8.73215e-12)
(1.09058 0.038908 0)
(1.11771 0.0358347 0)
(1.13797 0.0326885 0)
(1.15236 0.0295913 0)
(1.162 0.026616 -4.0047e-28)
(1.16795 0.023795 4.0047e-28)
(1.1712 0.0211319 -4.09e-28)
(1.17257 0.0186122 4.09e-28)
(1.17271 0.016213 -1.00105e-11)
(1.17211 0.0139092 1.00105e-11)
(1.17114 0.0116777 0)
(1.17005 0.00949864 0)
(1.16902 0.0073565 1.01974e-11)
(1.16817 0.00523925 -1.01974e-11)
(1.16757 0.00313779 -4.71389e-28)
(1.16726 0.00104502 4.74374e-28)
(0.906211 0.0460345 0)
(0.962457 0.0454172 0)
(1.01224 0.0438301 9.6744e-29)
(1.05456 0.0415256 -9.6744e-29)
(1.0891 0.0387529 0)
(1.11614 0.0357261 0)
(1.1364 0.0326173 0)
(1.15083 0.0295482 0)
(1.16053 0.0265927 8.10373e-28)
(1.16657 0.0237848 -8.10373e-28)
(1.16989 0.0211295 8.28023e-28)
(1.17133 0.0186143 -8.28023e-28)
(1.17152 0.0162172 -1.94795e-11)
(1.17096 0.0139143 1.94795e-11)
(1.17002 0.0116827 0)
(1.16896 0.00950319 0)
(1.16794 0.00736028 9.92726e-12)
(1.1671 0.00524207 -9.92726e-12)
(1.16651 0.00313954 6.33467e-28)
(1.1662 0.00104561 -6.37477e-28)
(0.906205 0.0456747 0)
(0.961908 0.0451077 0)
(1.01127 0.043576 0)
(1.05328 0.0413278 0)
(1.08764 0.0386074 0)
(1.1146 0.0356257 0)
(1.13484 0.0325531 0)
(1.14931 0.0295113 0)
(1.15908 0.0265747 -3.78304e-28)
(1.16518 0.0237791 3.78304e-28)
(1.16858 0.0211312 0)
(1.17008 0.0186197 0)
(1.17033 0.0162243 -1.89453e-11)
(1.16981 0.0139217 1.89453e-11)
(1.1689 0.0116896 3.97939e-28)
(1.16786 0.00950919 -3.97939e-28)
(1.16686 0.00736513 0)
(1.16603 0.00524563 0)
(1.16544 0.00314171 -4.46662e-28)
(1.16514 0.00104634 4.49489e-28)
(0.906222 0.0453302 0)
(0.961386 0.0448124 0)
(1.01032 0.0433348 0)
(1.05204 0.0411412 0)
(1.08621 0.0384716 0)
(1.11308 0.0355337 0)
(1.1333 0.0324963 0)
(1.1478 0.0294806 0)
(1.15763 0.0265623 0)
(1.16381 0.0237783 0)
(1.16728 0.021137 -7.82308e-28)
(1.16884 0.0186289 7.82308e-28)
(1.16913 0.0162345 -1.84181e-11)
(1.16866 0.0139316 1.84181e-11)
(1.16778 0.0116986 -8.05555e-28)
(1.16676 0.00951682 8.05555e-28)
(1.16578 0.0073712 -8.11929e-28)
(1.16496 0.00525003 8.11929e-28)
(1.16438 0.00314437 5.99712e-28)
(1.16408 0.00104723 -6.03509e-28)
(0.90626 0.0450009 0)
(0.96089 0.0445313 0)
(1.0094 0.0431065 1.76086e-29)
(1.05082 0.0409661 -1.76086e-29)
(1.0848 0.0383458 0)
(1.11157 0.0354504 0)
(1.13177 0.032447 -3.84753e-28)
(1.1463 0.0294567 3.84753e-28)
(1.15619 0.0265558 0)
(1.16243 0.0237826 0)
(1.16597 0.0211474 0)
(1.1676 0.0186419 0)
(1.16794 0.016248 -1.78979e-11)
(1.16751 0.0139443 1.78979e-11)
(1.16666 0.0117098 0)
(1.16567 0.00952623 0)
(1.1647 0.00737861 9.13524e-12)
(1.16389 0.00525536 -9.13524e-12)
(1.16331 0.00314758 0)
(1.16301 0.0010483 0)
(0.906321 0.044687 -2.96309e-28)
(0.960419 0.0442646 2.96702e-28)
(1.00851 0.0428911 -1.70687e-29)
(1.04963 0.0408026 1.70687e-29)
(1.08341 0.0382303 0)
(1.11009 0.0353761 0)
(1.13026 0.0324056 3.73305e-28)
(1.14482 0.0294397 -3.73305e-28)
(1.15475 0.0265553 -8.34385e-12)
(1.16107 0.0237924 8.34385e-12)
(1.16467 0.0211625 0)
(1.16636 0.018659 0)
(1.16675 0.0162651 -1.73846e-11)
(1.16636 0.01396 1.73846e-11)
(1.16554 0.0117235 3.6547e-28)
(1.16457 0.00953757 -3.6547e-28)
(1.16362 0.00738747 1.77547e-11)
(1.16282 0.0052617 -1.77547e-11)
(1.16225 0.00315139 -4.10592e-28)
(1.16195 0.00104957 4.13191e-28)
(0.906403 0.0443884 5.97288e-28)
(0.959972 0.0440121 -5.98078e-28)
(1.00765 0.0426889 0)
(1.04846 0.0406508 0)
(1.08205 0.0381251 0)
(1.10862 0.0353109 0)
(1.12876 0.0323723 -4.99711e-28)
(1.14334 0.0294298 4.99711e-28)
(1.15332 0.0265612 -8.09532e-12)
(1.1597 0.0238078 8.09532e-12)
(1.16337 0.0211826 0)
(1.16511 0.0186805 0)
(1.16556 0.0162859 -8.439e-12)
(1.16521 0.0139789 8.439e-12)
(1.16442 0.0117398 -7.38796e-28)
(1.16347 0.00955097 7.38796e-28)
(1.16253 0.0073979 8.62245e-12)
(1.16174 0.00526913 -8.62245e-12)
(1.16118 0.00315584 0)
(1.16088 0.00105105 0)
(0.906506 0.0441049 0)
(0.95955 0.043774 0)
(1.00681 0.0424997 0)
(1.04731 0.0405108 0)
(1.08071 0.0380304 0)
(1.10717 0.035255 0)
(1.12728 0.0323472 3.5098e-28)
(1.14187 0.0294272 -3.5098e-28)
(1.1519 0.0265736 0)
(1.15834 0.0238289 0)
(1.16207 0.0212079 0)
(1.16387 0.0187065 0)
(1.16437 0.0163106 0)
(1.16406 0.014001 0)
(1.1633 0.0117588 0)
(1.16237 0.00956654 0)
(1.16145 0.00740998 3.47471e-28)
(1.16067 0.00527772 -3.47471e-28)
(1.16011 0.00316098 0)
(1.15982 0.00105276 0)
(0.906629 0.0438366 0)
(0.959152 0.0435501 0)
(1.006 0.0423237 0)
(1.04619 0.0403826 0)
(1.07939 0.0379463 0)
(1.10574 0.0352085 0)
(1.12581 0.0323304 0)
(1.14041 0.0294321 0)
(1.15049 0.0265927 -6.57551e-28)
(1.15698 0.0238561 6.57551e-28)
(1.16078 0.0212384 0)
(1.16263 0.0187372 0)
(1.16318 0.0163393 0)
(1.1629 0.0140266 0)
(1.16217 0.0117806 0)
(1.16126 0.00958439 0)
(1.16036 0.00742379 0)
(1.15959 0.00528754 0)
(1.15904 0.00316684 5.18614e-28)
(1.15875 0.00105471 -5.21897e-28)
(0.906772 0.0435833 0)
(0.958776 0.0433404 0)
(1.0052 0.0421607 0)
(1.0451 0.0402662 0)
(1.07809 0.0378728 0)
(1.10432 0.0351715 0)
(1.12435 0.0323221 0)
(1.13896 0.0294446 0)
(1.14908 0.0266187 0)
(1.15562 0.0238894 0)
(1.15948 0.0212744 0)
(1.16139 0.0187727 0)
(1.16198 0.0163722 0)
(1.16174 0.0140557 0)
(1.16105 0.0118054 0)
(1.16016 0.00960461 0)
(1.15927 0.00743942 -3.26932e-28)
(1.15851 0.00529863 3.26932e-28)
(1.15796 0.00317346 -3.64398e-28)
(1.15768 0.00105691 3.66705e-28)
(0.906936 0.043345 -5.22813e-28)
(0.958423 0.0431447 5.23492e-28)
(1.00444 0.0420108 0)
(1.04402 0.0401618 0)
(1.0768 0.0378099 0)
(1.10293 0.035144 0)
(1.12291 0.0323224 0)
(1.13752 0.0294647 0)
(1.14767 0.0266515 -7.1384e-12)
(1.15427 0.0239288 7.1384e-12)
(1.15818 0.0213159 0)
(1.16015 0.0188131 0)
(1.16079 0.0164093 0)
(1.16059 0.0140885 0)
(1.15992 0.0118332 6.53578e-28)
(1.15905 0.00962728 -6.53578e-28)
(1.15818 0.00745692 7.63282e-12)
(1.15743 0.00531104 -7.63282e-12)
(1.15689 0.00318087 4.87474e-28)
(1.1566 0.00105937 -4.9056e-28)
(0.907119 0.0431214 2.42604e-28)
(0.958092 0.0429631 -2.42917e-28)
(1.00369 0.0418738 0)
(1.04297 0.0400691 0)
(1.07554 0.0377577 0)
(1.10154 0.0351261 0)
(1.12147 0.0323313 0)
(1.13609 0.0294926 0)
(1.14627 0.0266913 -1.38159e-11)
(1.15292 0.0239746 1.38159e-11)
(1.15689 0.0213631 0)
(1.1589 0.0188584 0)
(1.15959 0.0164509 -7.22169e-12)
(1.15943 0.014125 7.22169e-12)
(1.15879 0.0118642 -3.04054e-28)
(1.15794 0.00965246 3.04054e-28)
(1.15708 0.00747636 1.47855e-11)
(1.15634 0.00532482 -1.47855e-11)
(1.15581 0.00318908 -3.421e-28)
(1.15553 0.0010621 3.44266e-28)
(0.907321 0.0429123 4.03865e-29)
(0.957783 0.0427952 -4.04385e-29)
(1.00297 0.0417496 -2.13136e-28)
(1.04193 0.0399881 2.13136e-28)
(1.0743 0.0377161 0)
(1.10018 0.0351177 0)
(1.12005 0.0323487 0)
(1.13466 0.0295283 0)
(1.14487 0.0267381 -6.68088e-12)
(1.15157 0.0240267 6.68088e-12)
(1.15559 0.0214159 0)
(1.15766 0.0189088 0)
(1.15839 0.0164968 -1.39753e-11)
(1.15826 0.0141654 1.39753e-11)
(1.15765 0.0118983 0)
(1.15683 0.00968022 0)
(1.15598 0.00749778 7.15553e-12)
(1.15525 0.00534 -7.15553e-12)
(1.15472 0.00319814 0)
(1.15445 0.00106511 0)
(0.907542 0.0427177 2.63036e-28)
(0.957496 0.042641 -2.63372e-28)
(1.00227 0.0416382 -1.53239e-28)
(1.04092 0.0399188 1.53239e-28)
(1.07307 0.037685 0)
(1.09882 0.0351189 0)
(1.11864 0.0323748 0)
(1.13324 0.0295717 0)
(1.14348 0.026792 0)
(1.15022 0.0240852 0)
(1.15429 0.0214746 0)
(1.15641 0.0189644 0)
(1.15718 0.0165472 -1.35133e-11)
(1.15709 0.0142095 1.35133e-11)
(1.15651 0.0119357 0)
(1.15571 0.0097106 0)
(1.15488 0.00752121 3.34503e-28)
(1.15416 0.00535661 -3.34503e-28)
(1.15364 0.00320804 1.03644e-28)
(1.15337 0.0010684 -1.04301e-28)
(0.907782 0.0425372 0)
(0.957229 0.0425002 0)
(1.00159 0.0415392 0)
(1.03993 0.0398609 0)
(1.07187 0.0376644 0)
(1.09748 0.0351295 0)
(1.11724 0.0324094 0)
(1.13183 0.029623 0)
(1.14209 0.026853 4.46428e-29)
(1.14888 0.0241501 -4.46428e-29)
(1.15299 0.0215389 0)
(1.15516 0.0190251 0)
(1.15598 0.0166022 -1.30572e-11)
(1.15592 0.0142576 1.30572e-11)
(1.15537 0.0119763 0)
(1.15459 0.00974364 0)
(1.15378 0.0075467 0)
(1.15307 0.00537467 0)
(1.15255 0.00321882 0)
(1.15228 0.00107198 0)
(0.90804 0.0423707 -4.36633e-28)
(0.956982 0.0423727 4.37186e-28)
(1.00093 0.0414527 0)
(1.03896 0.0398144 0)
(1.07068 0.0376542 0)
(1.09616 0.0351495 0)
(1.11585 0.0324526 0)
(1.13043 0.0296819 0)
(1.14071 0.026921 0)
(1.14753 0.0242214 0)
(1.15169 0.0216091 0)
(1.15391 0.0190909 0)
(1.15477 0.0166617 -1.26069e-11)
(1.15475 0.0143096 1.26069e-11)
(1.15422 0.0120202 0)
(1.15346 0.00977937 0)
(1.15267 0.00757426 0)
(1.15197 0.0053942 0)
(1.15146 0.00323047 0)
(1.15119 0.00107585 0)
(0.908317 0.0422178 2.01852e-28)
(0.956756 0.0422582 -2.02106e-28)
(1.00029 0.0413783 1.17218e-29)
(1.03801 0.0397792 -1.17218e-29)
(1.0695 0.0376541 0)
(1.09485 0.0351788 0)
(1.11447 0.0325042 0)
(1.12903 0.0297486 0)
(1.13932 0.0269959 -5.80403e-12)
(1.14618 0.024299 5.80403e-12)
(1.15039 0.0216849 2.47325e-28)
(1.15265 0.0191619 -2.47325e-28)
(1.15355 0.0167257 -1.21622e-11)
(1.15357 0.0143655 1.21622e-11)
(1.15307 0.0120675 0)
(1.15234 0.0098178 0)
(1.15155 0.00760391 6.23459e-12)
(1.15087 0.00541523 -6.23459e-12)
(1.15036 0.00324301 -2.88602e-28)
(1.1501 0.00108002 2.90429e-28)
(0.908611 0.0420783 -4.78281e-28)
(0.956549 0.0421564 0)
(0.999676 0.0413158 -4.16711e-28)
(1.03707 0.0397549 4.96908e-28)
(1.06834 0.0376641 -5.67082e-28)
(1.09355 0.0352172 -5.4666e-28)
(1.1131 0.0325641 4.85684e-28)
(1.12763 0.0298228 5.28973e-28)
(1.13794 0.0270779 -5.59226e-12)
(1.14484 0.024383 5.59226e-12)
(1.14909 0.0217666 0)
(1.15139 0.019238 5.23181e-28)
(1.15234 0.0167943 -5.86158e-12)
(1.15239 0.0144254 5.86158e-12)
(1.15192 0.0121181 5.37476e-28)
(1.1512 0.00985894 5.78487e-28)
(1.15044 0.00763567 1.20222e-11)
(1.14976 0.00543774 -1.20222e-11)
(1.14926 0.00325645 9.31087e-28)
(1.149 0.00108449 -3.86514e-28)
(0.908923 0.0419518 4.78284e-28)
(0.956362 0.042067 0)
(0.999077 0.0412649 4.7327e-28)
(1.03616 0.0397414 -5.53468e-28)
(1.0672 0.0376839 5.67082e-28)
(1.09226 0.0352646 5.4666e-28)
(1.11173 0.0326322 -4.85684e-28)
(1.12625 0.0299045 -5.28973e-28)
(1.13657 0.0271666 4.65175e-28)
(1.14349 0.0244732 -4.65175e-28)
(1.14778 0.0218539 0)
(1.15013 0.0193193 -5.23181e-28)
(1.15111 0.0168674 -5.65379e-28)
(1.1512 0.0144892 0)
(1.15076 0.012172 -5.37476e-28)
(1.15006 0.00990279 -5.78487e-28)
(1.14931 0.00766953 5.79027e-12)
(1.14865 0.00546176 -5.79027e-12)
(1.14816 0.00327078 -5.47005e-28)
(1.1479 0.00108925 0)
(0.909253 0.0418381 0)
(0.956193 0.0419898 0)
(0.998497 0.0412255 0)
(1.03526 0.0397384 0)
(1.06607 0.0377134 0)
(1.09099 0.0353208 0)
(1.11038 0.0327083 0)
(1.12486 0.0299936 0)
(1.13519 0.0272621 -2.14907e-28)
(1.14214 0.0245696 2.14907e-28)
(1.14648 0.0219468 0)
(1.14887 0.0194055 0)
(1.14989 0.016945 0)
(1.15001 0.0145569 0)
(1.14959 0.0122292 0)
(1.14892 0.00994935 0)
(1.14818 0.00770549 5.572e-12)
(1.14753 0.00548728 -5.572e-12)
(1.14705 0.00328601 0)
(1.14679 0.00109432 0)
(0.9096 0.0417368 0)
(0.956044 0.0419244 0)
(0.997936 0.0411971 0)
(1.03438 0.0397457 0)
(1.06496 0.0377524 0)
(1.08973 0.0353856 0)
(1.10903 0.0327924 0)
(1.12349 0.0300899 0)
(1.13382 0.0273643 4.2977e-28)
(1.1408 0.0246721 -4.2977e-28)
(1.14517 0.0220452 0)
(1.1476 0.0194968 0)
(1.14866 0.0170271 0)
(1.14881 0.0146284 0)
(1.14842 0.0122897 4.58089e-28)
(1.14777 0.00999861 -4.58089e-28)
(1.14705 0.00774355 5.35626e-12)
(1.14641 0.00551429 -5.35626e-12)
(1.14593 0.00330214 -3.42296e-28)
(1.14568 0.00109968 3.44464e-28)
(0.909964 0.0416476 0)
(0.955913 0.0418705 0)
(0.997393 0.0411796 0)
(1.03351 0.0397629 0)
(1.06386 0.0378005 1.83721e-28)
(1.08847 0.0354589 -1.83721e-28)
(1.10769 0.0328841 0)
(1.12211 0.0301933 0)
(1.13244 0.0274729 -1.98117e-28)
(1.13945 0.0247805 1.98117e-28)
(1.14385 0.0221491 -2.03585e-28)
(1.14632 0.019593 2.03585e-28)
(1.14742 0.0171135 0)
(1.14761 0.0147038 0)
(1.14725 0.0123535 0)
(1.14662 0.0100505 0)
(1.14591 0.00778369 0)
(1.14528 0.00554279 0)
(1.14481 0.00331916 0)
(1.14456 0.00110534 0)
(0.910345 0.04157 0)
(0.955799 0.0418277 0)
(0.996868 0.0411725 0)
(1.03266 0.0397899 0)
(1.06278 0.0378575 -3.6626e-28)
(1.08723 0.0355403 3.6626e-28)
(1.10636 0.0329833 0)
(1.12074 0.0303035 0)
(1.13107 0.0275879 3.95263e-28)
(1.1381 0.0248947 -3.95263e-28)
(1.14254 0.0222583 0)
(1.14504 0.0196941 0)
(1.14618 0.0172042 0)
(1.1464 0.014783 0)
(1.14607 0.0124204 -4.21736e-28)
(1.14545 0.0101051 4.21736e-28)
(1.14477 0.0078259 4.93216e-12)
(1.14414 0.00557277 -4.93216e-12)
(1.14368 0.00333707 3.15227e-28)
(1.14343 0.00111129 -3.17222e-28)
(0.910743 0.0415037 0)
(0.955704 0.0417957 0)
(0.996361 0.0411755 0)
(1.03183 0.0398262 0)
(1.06171 0.0379231 0)
(1.086 0.0356296 0)
(1.10504 0.0330898 -1.94863e-28)
(1.11938 0.0304205 1.94863e-28)
(1.1297 0.027709 0)
(1.13675 0.0250147 0)
(1.14122 0.0223728 0)
(1.14376 0.0197998 0)
(1.14493 0.0172992 -1.90932e-28)
(1.14518 0.0148659 1.90932e-28)
(1.14488 0.0124906 0)
(1.14429 0.0101623 0)
(1.14361 0.00787014 9.44744e-12)
(1.143 0.00560421 -9.44744e-12)
(1.14255 0.00335586 -2.18746e-28)
(1.1423 0.00111754 2.2013e-28)
(0.911157 0.0414483 0)
(0.955626 0.0417739 0)
(0.995871 0.0411882 3.66771e-12)
(1.03102 0.0398715 -3.66771e-12)
(1.06065 0.037997 0)
(1.08478 0.0357265 0)
(1.10372 0.0332033 1.86189e-28)
(1.11802 0.0305439 -1.86189e-28)
(1.12833 0.0278361 -1.73714e-28)
(1.13539 0.0251401 1.73714e-28)
(1.13989 0.0224923 0)
(1.14247 0.0199102 0)
(1.14368 0.0173983 0)
(1.14396 0.0149524 0)
(1.14368 0.0125639 0)
(1.14311 0.0102221 0)
(1.14246 0.0079164 4.51761e-12)
(1.14185 0.00563709 -4.51761e-12)
(1.14141 0.00337551 0)
(1.14117 0.00112408 0)
(0.911588 0.0414032 0)
(0.955565 0.0417621 0)
(0.995397 0.0412102 3.49288e-12)
(1.03021 0.0399255 -3.49288e-12)
(1.05961 0.0380789 0)
(1.08357 0.0358308 0)
(1.10241 0.0333235 -2.45158e-28)
(1.11666 0.0306736 2.45158e-28)
(1.12696 0.027969 0)
(1.13404 0.025271 0)
(1.13857 0.0226167 0)
(1.14118 0.0200251 0)
(1.14242 0.0175015 -4.19861e-12)
(1.14273 0.0150425 4.19861e-12)
(1.14248 0.0126402 3.68762e-28)
(1.14193 0.0102844 -3.68762e-28)
(1.14129 0.00796464 4.3138e-12)
(1.1407 0.00567139 -4.3138e-12)
(1.14026 0.00339602 0)
(1.14002 0.0011309 0)
(0.912034 0.0413681 0)
(0.955522 0.0417598 0)
(0.99494 0.0412412 7.55903e-30)
(1.02943 0.0399878 -7.55903e-30)
(1.05858 0.0381684 0)
(1.08237 0.0359421 0)
(1.10111 0.0334503 1.69157e-28)
(1.1153 0.0308092 -1.69157e-28)
(1.1256 0.0281076 1.57936e-28)
(1.13268 0.025407 -1.57936e-28)
(1.13723 0.022746 0)
(1.13988 0.0201444 0)
(1.14115 0.0176086 -8.00317e-12)
(1.1415 0.0151361 8.00317e-12)
(1.14127 0.0127195 -1.68858e-28)
(1.14074 0.0103491 1.68858e-28)
(1.14012 0.00801483 8.22444e-12)
(1.13954 0.00570709 -8.22444e-12)
(1.1391 0.00341737 1.90454e-28)
(1.13887 0.001138 -1.9166e-28)
(0.912497 0.0413425 -2.52769e-28)
(0.955495 0.0417666 2.53063e-28)
(0.9945 0.0412806 3.5951e-29)
(1.02866 0.040058 -3.5951e-29)
(1.05756 0.0382653 0)
(1.08118 0.0360601 0)
(1.09981 0.0335832 -2.21931e-28)
(1.11395 0.0309507 2.21931e-28)
(1.12423 0.0282514 -3.12635e-28)
(1.13132 0.025548 3.12635e-28)
(1.1359 0.0228799 0)
(1.13857 0.0202679 0)
(1.13988 0.0177196 -7.6136e-12)
(1.14025 0.0152331 7.6136e-12)
(1.14005 0.0128018 0)
(1.13955 0.0104163 0)
(1.13894 0.00806692 3.91284e-12)
(1.13837 0.00574416 -3.91284e-12)
(1.13794 0.00343954 0)
(1.13771 0.00114538 0)
(0.912976 0.041326 1.14622e-28)
(0.955484 0.0417819 -1.14754e-28)
(0.994075 0.0413282 0)
(1.0279 0.0401357 0)
(1.05655 0.0383691 0)
(1.08 0.0361846 0)
(1.09852 0.0337221 1.52528e-28)
(1.1126 0.0310976 -1.52528e-28)
(1.12286 0.0284004 1.4253e-28)
(1.12996 0.0256938 -1.4253e-28)
(1.13456 0.0230182 0)
(1.13726 0.0203956 0)
(1.1386 0.0178342 -3.61421e-12)
(1.139 0.0153334 3.61421e-12)
(1.13883 0.0128869 0)
(1.13834 0.0104859 0)
(1.13775 0.00812088 0)
(1.13719 0.00578258 0)
(1.13677 0.00346253 -1.72099e-28)
(1.13655 0.00115303 1.73188e-28)
(0.91347 0.0413179 -2.24587e-28)
(0.95549 0.0418053 2.24844e-28)
(0.993666 0.0413834 0)
(1.02716 0.0402205 0)
(1.05556 0.0384794 0)
(1.07883 0.036315 0)
(1.09723 0.0338666 0)
(1.11125 0.0312498 0)
(1.12149 0.0285543 0)
(1.12859 0.0258442 0)
(1.13321 0.0231608 0)
(1.13595 0.0205272 0)
(1.13731 0.0179525 -3.42375e-12)
(1.13775 0.0154369 3.42375e-12)
(1.1376 0.0129748 0)
(1.13713 0.0105578 0)
(1.13655 0.00817665 -3.04203e-28)
(1.13601 0.0058223 3.04203e-28)
(1.1356 0.00348631 0)
(1.13537 0.00116095 0)
(0.91398 0.041318 1.01231e-28)
(0.955511 0.0418364 -1.01346e-28)
(0.993272 0.0414457 6.02988e-30)
(1.02643 0.0403119 -6.02988e-30)
(1.05457 0.0385958 0)
(1.07766 0.0364512 0)
(1.09595 0.0340164 0)
(1.10991 0.0314069 0)
(1.12012 0.0287129 -1.27479e-28)
(1.12722 0.0259989 1.27479e-28)
(1.13186 0.0233075 0)
(1.13462 0.0206625 0)
(1.13602 0.0180742 -6.47078e-12)
(1.13648 0.0155435 6.47078e-12)
(1.13635 0.0130653 0)
(1.13591 0.0106319 0)
(1.13535 0.0082342 3.32733e-12)
(1.13482 0.00586331 -3.32733e-12)
(1.13441 0.00351086 0)
(1.13419 0.00116912 0)
(0.914505 0.0413255 0)
(0.955549 0.0418746 0)
(0.992894 0.0415148 -5.65824e-30)
(1.02571 0.0404096 5.65824e-30)
(1.0536 0.0387181 0)
(1.07651 0.0365927 0)
(1.09468 0.0341711 0)
(1.10856 0.0315687 0)
(1.11875 0.0288758 0)
(1.12585 0.0261578 0)
(1.13051 0.0234581 0)
(1.13329 0.0208015 0)
(1.13472 0.0181993 -3.04907e-12)
(1.13521 0.015653 3.04907e-12)
(1.13511 0.0131585 0)
(1.13468 0.0107082 0)
(1.13414 0.00829346 6.27244e-12)
(1.13361 0.00590555 -6.27244e-12)
(1.13322 0.00353616 1.45278e-28)
(1.133 0.00117754 -1.46197e-28)
(0.915045 0.0413401 -1.8345e-28)
(0.955602 0.0419195 1.83654e-28)
(0.99253 0.0415901 0)
(1.02501 0.0405131 0)
(1.05264 0.0388456 0)
(1.07536 0.0367391 0)
(1.09341 0.0343305 0)
(1.10722 0.0317348 0)
(1.11737 0.0290428 0)
(1.12448 0.0263206 0)
(1.12915 0.0236124 2.41886e-28)
(1.13196 0.020944 -2.41886e-28)
(1.13341 0.0183275 0)
(1.13393 0.0157654 0)
(1.13385 0.0132541 0)
(1.13344 0.0107865 0)
(1.13291 0.00835438 5.89409e-12)
(1.1324 0.005949 -5.89409e-12)
(1.13201 0.00356219 -1.88426e-28)
(1.1318 0.00118621 1.89619e-28)
(0.915601 0.0413612 8.16826e-29)
(0.955671 0.0419705 -8.17727e-29)
(0.992182 0.0416712 0)
(1.02432 0.0406218 0)
(1.05169 0.0389781 0)
(1.07422 0.0368901 0)
(1.09214 0.0344941 0)
(1.10588 0.031905 0)
(1.116 0.0292137 0)
(1.1231 0.0264871 0)
(1.12778 0.0237702 -1.08787e-28)
(1.13062 0.0210897 1.08787e-28)
(1.13209 0.0184588 0)
(1.13264 0.0158806 0)
(1.13258 0.0133522 0)
(1.1322 0.010867 0)
(1.13168 0.00841692 2.75977e-12)
(1.13119 0.00599362 -2.75977e-12)
(1.1308 0.00358892 1.27845e-28)
(1.1306 0.00119512 -1.28654e-28)
(0.916172 0.0413883 0)
(0.955754 0.0420272 0)
(0.991847 0.0417575 0)
(1.02365 0.0407355 0)
(1.05075 0.0391151 0)
(1.07308 0.0370453 0)
(1.09088 0.0346616 0)
(1.10455 0.0320789 0)
(1.11463 0.0293882 2.04819e-28)
(1.12172 0.026657 -2.04819e-28)
(1.12641 0.0239312 2.11191e-28)
(1.12927 0.0212386 -2.11191e-28)
(1.13077 0.0185929 -2.50197e-12)
(1.13134 0.0159984 2.50197e-12)
(1.13131 0.0134525 2.19943e-28)
(1.13094 0.0109493 -2.19943e-28)
(1.13044 0.008481 2.57433e-12)
(1.12996 0.00603937 -2.57433e-12)
(1.12958 0.00361634 -1.646e-28)
(1.12938 0.00120425 1.65642e-28)
(0.916757 0.0414209 0)
(0.955853 0.042089 0)
(0.991527 0.0418486 0)
(1.02298 0.0408535 0)
(1.04982 0.0392561 0)
(1.07196 0.0372043 0)
(1.08962 0.0348328 0)
(1.10321 0.0322562 0)
(1.11325 0.029566 -9.1325e-29)
(1.12033 0.0268301 9.1325e-29)
(1.12504 0.0240954 0)
(1.12791 0.0213903 0)
(1.12944 0.0187298 -4.64679e-12)
(1.13003 0.0161187 4.64679e-12)
(1.13002 0.0135551 0)
(1.12968 0.0110335 0)
(1.1292 0.00854658 4.78136e-12)
(1.12872 0.0060862 -4.78136e-12)
(1.12835 0.00364442 1.10747e-28)
(1.12815 0.00121361 -1.11449e-28)
(0.917357 0.0414584 0)
(0.955967 0.0421554 0)
(0.991222 0.041944 0)
(1.02233 0.0409755 0)
(1.0489 0.0394008 0)
(1.07084 0.0373666 0)
(1.08837 0.0350071 0)
(1.10188 0.0324366 0)
(1.11188 0.0297467 0)
(1.11894 0.0270062 0)
(1.12366 0.0242624 0)
(1.12655 0.0215449 0)
(1.1281 0.0188693 -4.29332e-12)
(1.12871 0.0162413 4.29332e-12)
(1.12873 0.0136598 -9.0657e-29)
(1.1284 0.0111195 9.0657e-29)
(1.12794 0.00861359 2.20877e-12)
(1.12747 0.00613408 -2.20877e-12)
(1.12711 0.00367314 0)
(1.12692 0.00122317 0)
(0.917972 0.0415003 -1.17835e-28)
(0.956096 0.0422259 1.1796e-28)
(0.99093 0.0420431 0)
(1.02169 0.041101 0)
(1.04799 0.0395487 0)
(1.06973 0.037532 0)
(1.08712 0.0351843 0)
(1.10054 0.0326198 0)
(1.1105 0.0299303 0)
(1.11755 0.027185 0)
(1.12227 0.0244321 0)
(1.12518 0.021702 0)
(1.12675 0.0190113 -3.94342e-12)
(1.12739 0.0163662 3.94342e-12)
(1.12743 0.0137664 0)
(1.12712 0.0112073 0)
(1.12667 0.00868198 2.02854e-12)
(1.12622 0.00618295 -2.02854e-12)
(1.12586 0.00370246 0)
(1.12567 0.00123295 0)
(0.918601 0.0415462 5.05161e-29)
(0.956239 0.0423001 -5.0569e-29)
(0.990652 0.0421456 0)
(1.02107 0.0412294 0)
(1.04709 0.0396993 0)
(1.06863 0.0376999 0)
(1.08588 0.035364 0)
(1.09921 0.0328054 0)
(1.10912 0.0301163 0)
(1.11616 0.0273662 0)
(1.12088 0.0246042 -7.29042e-29)
(1.1238 0.0218615 7.29042e-29)
(1.12539 0.0191555 -1.7985e-12)
(1.12606 0.0164933 1.7985e-12)
(1.12611 0.013875 0)
(1.12583 0.0112966 0)
(1.12539 0.00875167 3.69988e-12)
(1.12495 0.00623279 -3.69988e-12)
(1.1246 0.00373237 -8.56879e-29)
(1.12441 0.00124291 8.62304e-29)
(0.919245 0.0415955 0)
(0.956397 0.0423774 0)
(0.990388 0.0422509 0)
(1.02046 0.0413604 0)
(1.0462 0.0398523 0)
(1.06753 0.0378701 0)
(1.08464 0.0355458 0)
(1.09788 0.0329932 0)
(1.10774 0.0303044 1.32882e-28)
(1.11476 0.0275497 -1.32882e-28)
(1.11948 0.0247786 0)
(1.12241 0.0220232 0)
(1.12403 0.0193019 0)
(1.12471 0.0166223 0)
(1.12479 0.0139854 0)
(1.12452 0.0113875 0)
(1.1241 0.00882262 1.67291e-12)
(1.12367 0.00628354 -1.67291e-12)
(1.12333 0.00376283 0)
(1.12315 0.00125306 0)
(0.919903 0.0416478 0)
(0.956568 0.0424573 0)
(0.990137 0.0423585 0)
(1.01985 0.0414934 0)
(1.04532 0.0400071 0)
(1.06645 0.038042 0)
(1.08341 0.0357294 0)
(1.09656 0.0331828 0)
(1.10636 0.0304945 0)
(1.11336 0.0277351 0)
(1.11807 0.024955 0)
(1.12102 0.0221871 0)
(1.12265 0.0194503 0)
(1.12336 0.0167533 0)
(1.12346 0.0140975 6.14984e-29)
(1.12321 0.0114799 -6.14984e-29)
(1.1228 0.00889476 -6.21586e-29)
(1.12238 0.00633516 6.21586e-29)
(1.12205 0.00379381 6.9342e-29)
(1.12187 0.00126339 -6.9781e-29)
(0.920575 0.0417026 0)
(0.956754 0.0425394 0)
(0.9899 0.0424679 9.51409e-13)
(1.01926 0.0416281 -9.51409e-13)
(1.04445 0.0401634 0)
(1.06537 0.0382153 0)
(1.08218 0.0359145 0)
(1.09523 0.033374 0)
(1.10498 0.0306863 -1.05229e-28)
(1.11195 0.0279224 1.05229e-28)
(1.11667 0.0251333 0)
(1.11962 0.0223528 0)
(1.12127 0.0196005 0)
(1.122 0.016886 0)
(1.12212 0.0142112 -1.13184e-28)
(1.12189 0.0115737 1.13184e-28)
(1.12149 0.00896802 1.14352e-28)
(1.12109 0.00638761 -1.14352e-28)
(1.12076 0.00382529 -8.45654e-29)
(1.12059 0.00127388 8.51008e-29)
(0.92126 0.0417595 0)
(0.956954 0.0426232 0)
(0.989676 0.0425787 8.07958e-13)
(1.01869 0.0417638 -8.07958e-13)
(1.04359 0.0403207 0)
(1.06429 0.0383896 0)
(1.08095 0.0361006 -4.63566e-29)
(1.09391 0.0335664 4.63566e-29)
(1.1036 0.0308795 0)
(1.11054 0.0281112 0)
(1.11525 0.0253133 0)
(1.11822 0.0225202 0)
(1.11988 0.0197525 0)
(1.12063 0.0170204 0)
(1.12077 0.0143265 0)
(1.12055 0.0116688 0)
(1.12017 0.00904235 0)
(1.11978 0.00644084 0)
(1.11946 0.00385723 0)
(1.11929 0.00128451 0)
(0.92196 0.041818 0)
(0.957168 0.0427082 0)
(0.989465 0.0426904 1.51718e-30)
(1.01812 0.0419003 -1.51718e-30)
(1.04274 0.0404785 0)
(1.06323 0.0385646 0)
(1.07973 0.0362875 0)
(1.09258 0.0337598 0)
(1.10222 0.0310738 0)
(1.10913 0.0283014 0)
(1.11383 0.0254949 0)
(1.1168 0.0226893 0)
(1.11849 0.0199062 0)
(1.11925 0.0171563 0)
(1.11941 0.0144431 0)
(1.11921 0.0117651 0)
(1.11884 0.00911769 -4.06554e-29)
(1.11846 0.00649481 4.06554e-29)
(1.11815 0.0038896 0)
(1.11798 0.00129527 0)
(0.922672 0.041878 -3.23316e-29)
(0.957395 0.042794 3.23631e-29)
(0.989267 0.0428025 0)
(1.01756 0.0420368 0)
(1.0419 0.0406365 0)
(1.06217 0.0387398 0)
(1.07852 0.0364749 0)
(1.09126 0.0339538 0)
(1.10083 0.0312691 0)
(1.10771 0.0284928 0)
(1.11241 0.0256778 0)
(1.11538 0.0228599 0)
(1.11708 0.0200613 0)
(1.11786 0.0172937 0)
(1.11804 0.0145611 0)
(1.11785 0.0118626 0)
(1.1175 0.00919399 8.09234e-13)
(1.11713 0.00654948 -8.09234e-13)
(1.11682 0.00392235 5.16355e-29)
(1.11666 0.00130613 -5.19624e-29)
(0.923389 0.041937 9.97229e-30)
(0.957633 0.0428786 -9.98188e-30)
(0.989083 0.0429134 0)
(1.01703 0.0421724 0)
(1.04107 0.0407937 0)
(1.06113 0.0389145 0)
(1.07732 0.0366621 2.58241e-29)
(1.08995 0.0341481 -2.58241e-29)
(1.09946 0.031465 2.48704e-29)
(1.10631 0.0286851 -2.48704e-29)
(1.11099 0.0258618 2.57347e-29)
(1.11397 0.0230317 -2.57347e-29)
(1.11567 0.0202178 -6.30911e-13)
(1.11647 0.0174324 6.30911e-13)
(1.11666 0.0146803 0)
(1.1165 0.0119611 0)
(1.11616 0.00927113 6.3994e-13)
(1.11579 0.00660479 -6.3994e-13)
(1.1155 0.00395535 -2.95532e-29)
(1.11534 0.00131697 2.97403e-29)
(0.924157 0.0419834 -8.81832e-30)
(0.957896 0.0429521 8.82669e-30)
(0.988907 0.0430152 0)
(1.01648 0.0423007 0)
(1.04024 0.0409452 0)
(1.06006 0.0390849 0)
(1.07609 0.0368462 -2.69816e-29)
(1.08862 0.0343404 2.69816e-29)
(1.09806 0.0316596 -3.95399e-29)
(1.10487 0.0288767 3.95399e-29)
(1.10953 0.0260456 -4.0833e-29)
(1.11252 0.0232036 4.0833e-29)
(1.11423 0.0203745 -9.56234e-13)
(1.11505 0.0175715 9.56234e-13)
(1.11526 0.0148 0)
(1.1151 0.0120601 0)
(1.11478 0.00934862 -4.14682e-29)
(1.11443 0.00666038 4.14682e-29)
(1.11414 0.00398846 0)
(1.11398 0.0013278 0)
(0.925213 0.0420148 -1.44248e-30)
(0.958277 0.0430082 1.4412e-30)
(0.988689 0.043097 0)
(1.01576 0.0424074 0)
(1.0391 0.0410746 0)
(1.05861 0.0392334 0)
(1.0744 0.0370093 1.39584e-29)
(1.08676 0.0345127 -1.39488e-29)
(1.09609 0.0318358 0)
(1.10284 0.0290515 0)
(1.10749 0.0262142 0)
(1.11047 0.0233619 0)
(1.1122 0.0205192 -6.85324e-13)
(1.11303 0.0177001 6.85293e-13)
(1.11326 0.0149107 0)
(1.11313 0.0121518 0)
(1.11283 0.00942047 3.36444e-13)
(1.11249 0.00671222 -3.36451e-13)
(1.11221 0.00402128 1.53504e-29)
(1.11205 0.00133969 -1.5449e-29)
(0.848438 0.0464989 -3.39426e-20)
(0.848983 0.0460665 5.935e-20)
(0.849545 0.0456502 -3.81526e-20)
(0.850124 0.0452501 4.24359e-20)
(0.850719 0.044866 -6.33634e-20)
(0.851331 0.0444981 1.70099e-20)
(0.851959 0.0441461 4.60212e-20)
(0.852604 0.0438101 -5.97016e-20)
(0.853264 0.0434899 1.41658e-20)
(0.85394 0.0431853 -1.15927e-20)
(0.854631 0.0428963 -1.6181e-21)
(0.855338 0.0426225 1.8065e-20)
(0.85606 0.042364 5.94628e-21)
(0.856798 0.0421204 -1.09856e-20)
(0.857551 0.0418915 -7.98423e-21)
(0.858319 0.041677 1.68437e-20)
(0.859101 0.0414767 -7.73058e-21)
(0.859899 0.0412903 5.5985e-21)
(0.860712 0.0411175 -3.73621e-21)
(0.861539 0.040958 2.92274e-21)
(0.862381 0.0408114 1.04243e-20)
(0.863238 0.0406773 -1.58956e-20)
(0.864109 0.0405554 -7.43396e-21)
(0.864995 0.0404453 1.13888e-20)
(0.865896 0.0403465 -4.63935e-21)
(0.866811 0.0402587 2.36861e-21)
(0.86774 0.0401814 1.04033e-21)
(0.868684 0.0401142 -8.90765e-21)
(0.869642 0.0400565 8.5894e-21)
(0.870614 0.040008 -6.33451e-22)
(0.871601 0.0399681 2.24121e-21)
(0.872602 0.0399363 2.79534e-22)
(0.873617 0.0399121 -3.43608e-21)
(0.874646 0.0398951 -1.06871e-21)
(0.875689 0.0398847 2.13074e-21)
(0.876746 0.0398803 1.14006e-21)
(0.877816 0.0398816 -9.52396e-22)
(0.878901 0.0398879 3.85391e-22)
(0.88 0.0398988 2.29556e-22)
(0.881112 0.0399138 -3.02195e-23)
(0.882238 0.0399325 1.25317e-22)
(0.883378 0.0399542 -2.48335e-22)
(0.884531 0.0399787 -2.63714e-22)
(0.885697 0.0400056 4.31971e-22)
(0.886878 0.0400345 -1.38676e-22)
(0.88807 0.0400652 -3.09645e-24)
(0.889261 0.0400951 4.59713e-23)
(0.890531 0.0401109 6.86348e-25)
(0.892255 0.0401163 -3.11796e-25)
(0.790336 0.0445425 -1.50624e-20)
(0.791571 0.0441073 -1.47847e-21)
(0.792812 0.0436878 2.9199e-20)
(0.79406 0.0432839 -1.79427e-20)
(0.795314 0.0428957 6.04817e-21)
(0.796576 0.0425229 3.80752e-20)
(0.797845 0.0421656 -2.14244e-20)
(0.799121 0.0418236 -2.6257e-20)
(0.800405 0.0414967 2.63839e-20)
(0.801696 0.0411849 -2.60312e-20)
(0.802995 0.040888 1.1058e-20)
(0.804301 0.0406058 1.9376e-20)
(0.805616 0.040338 -1.8782e-22)
(0.806939 0.0400845 -1.54672e-20)
(0.80827 0.0398451 1.65727e-20)
(0.80961 0.0396194 -6.24751e-21)
(0.810958 0.0394072 -7.80911e-21)
(0.812316 0.0392083 -8.93512e-22)
(0.813682 0.0390222 -6.61998e-21)
(0.815058 0.0388488 4.93635e-21)
(0.816443 0.0386876 1.06148e-21)
(0.817837 0.0385383 3.55027e-21)
(0.819242 0.0384006 -1.10287e-21)
(0.820656 0.038274 9.0817e-21)
(0.82208 0.0381582 -8.26868e-21)
(0.823515 0.0380528 -5.86392e-21)
(0.82496 0.0379573 1.40934e-20)
(0.826415 0.0378713 -7.08546e-21)
(0.827881 0.0377944 -9.04081e-22)
(0.829358 0.0377261 1.91825e-22)
(0.830845 0.0376659 2.32927e-22)
(0.832344 0.0376135 -7.88443e-22)
(0.833854 0.0375682 -2.47844e-23)
(0.835375 0.0375297 -1.04009e-21)
(0.836907 0.0374975 2.77978e-21)
(0.838451 0.037471 -1.51031e-21)
(0.840006 0.0374498 -2.29411e-21)
(0.841572 0.0374333 1.03076e-21)
(0.84315 0.0374212 4.10813e-22)
(0.84474 0.037413 -6.92042e-22)
(0.846341 0.0374081 5.24671e-22)
(0.847954 0.0374062 -1.40733e-22)
(0.849579 0.0374068 -2.44296e-22)
(0.851215 0.0374095 4.4343e-22)
(0.852865 0.037414 -5.08931e-23)
(0.854523 0.0374199 -3.34349e-23)
(0.856174 0.0374238 3.32337e-24)
(0.857936 0.0374114 3.19305e-24)
(0.8603 0.0373951 3.02755e-24)
(0.728914 0.041687 -3.37297e-20)
(0.730907 0.0412482 -9.85417e-21)
(0.732894 0.0408243 2.27306e-20)
(0.734877 0.0404153 -1.7409e-20)
(0.736854 0.0400211 -1.06518e-20)
(0.738828 0.0396416 3.1147e-20)
(0.740798 0.0392767 2.38742e-21)
(0.742765 0.0389263 5.84319e-21)
(0.744729 0.0385904 -3.54763e-20)
(0.74669 0.0382686 1.59684e-20)
(0.74865 0.037961 -3.51848e-21)