/*--------------------------------*- C++ -*----------------------------------*\
  =========                 |
  \\      /  F ield         | OpenFOAM: The Open Source CFD Toolbox
   \\    /   O peration     | Website:  https://openfoam.org
    \\  /    A nd           | Version:  7
     \\/     M anipulation  |
\*---------------------------------------------------------------------------*/
FoamFile
{
    version     2.0;
    format      ascii;
    class       volScalarField;
    location    "25";
    object      p;
}
// * * * * * * * * * * * * * * * * * * * * * * * * * * * * * * * * * * * * * //

dimensions      [0 2 -2 0 0 0 0];

internalField   nonuniform List<scalar> 
3313
(
-0.238446
-0.238735
-0.239021
-0.239309
-0.239611
-0.239988
-0.238601
-0.238873
-0.239141
-0.23941
-0.239691
-0.240063
-0.238902
-0.239137
-0.239367
-0.239597
-0.239835
-0.240194
-0.239329
-0.239505
-0.239676
-0.239842
-0.24001
-0.240347
-0.239858
-0.239951
-0.240033
-0.240107
-0.240171
-0.240468
-0.240465
-0.240443
-0.240403
-0.240348
-0.240264
-0.24048
-0.240956
-0.240752
-0.240525
-0.240234
-0.240238
-0.241475
-0.241062
-0.24061
-0.240052
-0.239564
-0.241341
-0.240584
-0.239622
-0.239001
-0.241611
-0.240485
-0.238994
-0.237929
-0.240386
-0.238261
-0.236346
-0.237563
-0.234378
-0.23693
-0.232121
-0.229832
-0.240871
-0.241449
-0.242639
-0.243733
-0.245035
-0.246393
-0.247813
-0.249231
-0.250601
-0.251863
-0.25295
-0.253785
-0.254277
-0.254319
-0.253782
-0.252521
-0.250372
-0.247157
-0.242683
-0.236893
-0.22968
-0.22099
-0.21085
-0.199356
-0.186678
-0.173043
-0.158731
-0.144037
-0.129256
-0.11467
-0.100524
-0.0870172
-0.0743129
-0.0625177
-0.0517047
-0.0419062
-0.0331296
-0.0253577
-0.0185662
-0.0127017
-0.00774393
-0.00359582
-0.000305761
0.00234685
0.00406388
0.00548926
0.00550419
0.00616092
0.00371287
0.00465494
-0.241027
-0.241521
-0.242721
-0.243809
-0.245112
-0.246473
-0.247897
-0.249321
-0.250697
-0.251966
-0.253062
-0.253909
-0.254416
-0.254476
-0.253963
-0.252729
-0.250611
-0.247427
-0.242987
-0.237231
-0.230047
-0.221382
-0.21126
-0.199776
-0.187099
-0.173459
-0.159135
-0.144425
-0.129623
-0.115015
-0.100846
-0.0873159
-0.0745897
-0.0627737
-0.0519413
-0.0421248
-0.0333321
-0.0255454
-0.0187406
-0.0128637
-0.00789514
-0.00373634
-0.000437701
0.00222474
0.00394888
0.00538387
0.00540777
0.00607161
0.00365345
0.00457542
-0.24133
-0.241653
-0.242876
-0.243951
-0.245257
-0.246624
-0.248055
-0.249487
-0.250874
-0.252156
-0.25327
-0.254139
-0.254674
-0.25477
-0.254301
-0.253119
-0.251058
-0.247929
-0.243533
-0.237869
-0.230746
-0.222127
-0.21204
-0.200577
-0.187907
-0.174258
-0.159914
-0.145174
-0.130336
-0.115686
-0.101475
-0.0879012
-0.0751338
-0.0632779
-0.0524081
-0.0425578
-0.0337338
-0.0259182
-0.0190874
-0.0131862
-0.00819636
-0.00401634
-0.000700474
0.00198165
0.00372036
0.00517472
0.00521719
0.00589561
0.00353732
0.00442169
-0.241763
-0.241821
-0.243085
-0.244141
-0.24545
-0.246823
-0.248263
-0.249706
-0.251107
-0.252406
-0.253543
-0.254442
-0.255016
-0.25516
-0.254752
-0.253642
-0.25166
-0.248614
-0.244377
-0.238754
-0.231706
-0.223155
-0.213121
-0.201693
-0.189037
-0.175383
-0.161015
-0.146238
-0.131354
-0.11665
-0.102383
-0.0887496
-0.0759274
-0.0640151
-0.0530955
-0.043197
-0.0343285
-0.0264716
-0.0196032
-0.0136663
-0.00864504
-0.00443352
-0.00109164
0.00162005
0.00338145
0.00486517
0.00493701
0.00563798
0.00336959
0.00420366
-0.242303
-0.241997
-0.243321
-0.244356
-0.245665
-0.247044
-0.248492
-0.249947
-0.251362
-0.25268
-0.253842
-0.254775
-0.255394
-0.255596
-0.255259
-0.254236
-0.252351
-0.249402
-0.245273
-0.23978
-0.232838
-0.224376
-0.214414
-0.203036
-0.190407
-0.176756
-0.162371
-0.147559
-0.132625
-0.117863
-0.103539
-0.0898267
-0.0769445
-0.0649705
-0.0539883
-0.044031
-0.0351075
-0.0271986
-0.0202822
-0.0142994
-0.00923708
-0.00498417
-0.00160729
0.00114387
0.00293691
0.00446018
0.0045738
0.00530565
0.00315705
0.00393444
-0.242935
-0.242146
-0.243558
-0.244571
-0.245875
-0.247258
-0.248711
-0.250174
-0.251602
-0.252938
-0.254125
-0.255093
-0.25576
-0.256023
-0.255763
-0.254835
-0.253056
-0.250217
-0.246228
-0.240864
-0.234045
-0.225692
-0.215822
-0.204513
-0.191928
-0.178295
-0.163904
-0.14907
-0.13409
-0.119271
-0.104883
-0.0911173
-0.0781618
-0.0661193
-0.055069
-0.045046
-0.0360595
-0.0280901
-0.0211169
-0.0150791
-0.00996661
-0.00566287
-0.00224186
0.000558557
0.00239315
0.00396607
0.00413566
0.00490678
0.00290723
0.00362859
-0.243683
-0.242218
-0.243768
-0.24476
-0.246053
-0.247435
-0.248888
-0.250356
-0.251792
-0.253143
-0.254352
-0.255353
-0.256065
-0.256389
-0.256207
-0.255375
-0.253704
-0.250984
-0.247141
-0.241921
-0.235239
-0.227011
-0.217252
-0.206033
-0.193519
-0.179911
-0.165533
-0.150693
-0.135692
-0.120836
-0.106393
-0.0925704
-0.079548
-0.0674378
-0.056318
-0.0462257
-0.037171
-0.0291348
-0.0220975
-0.0159968
-0.0108258
-0.00646232
-0.00298802
-0.000128841
0.00175808
0.00339043
0.00363178
0.00445028
0.00262757
0.00330039
-0.244553
-0.242192
-0.243927
-0.244902
-0.246173
-0.247547
-0.248994
-0.25046
-0.251899
-0.25326
-0.254487
-0.255516
-0.25627
-0.25665
-0.256543
-0.255804
-0.254238
-0.251728
-0.247952
-0.242877
-0.236345
-0.22824
-0.218615
-0.207507
-0.195076
-0.181544
-0.167209
-0.152383
-0.137379
-0.122503
-0.108022
-0.0941536
-0.0810742
-0.0689014
-0.0577143
-0.0475521
-0.0384267
-0.0303192
-0.0232123
-0.0170419
-0.0118047
-0.00737343
-0.00383678
-0.000909821
0.0010409
0.00274175
0.00307187
0.00394536
0.00232482
0.00296235
-0.245094
-0.242299
-0.243979
-0.244983
-0.246215
-0.24757
-0.249004
-0.25046
-0.251896
-0.253261
-0.254501
-0.255553
-0.256343
-0.256773
-0.256734
-0.256075
-0.254562
-0.252193
-0.248587
-0.243661
-0.237277
-0.22934
-0.219855
-0.208877
-0.19656
-0.183123
-0.168859
-0.15408
-0.139101
-0.124229
-0.109734
-0.0958357
-0.0827123
-0.0704857
-0.0592365
-0.0490064
-0.0398097
-0.0316284
-0.0244476
-0.0182019
-0.012892
-0.00838545
-0.00477763
-0.00177463
0.000251748
0.00202923
0.00246562
0.00340115
0.0020048
0.0026243
-0.245704
-0.242389
-0.243909
-0.244984
-0.24616
-0.247482
-0.248893
-0.250333
-0.251761
-0.253124
-0.254371
-0.255439
-0.256258
-0.256731
-0.25675
-0.256166
-0.254876
-0.252495
-0.24902
-0.24424
-0.238011
-0.230237
-0.22091
-0.210087
-0.197912
-0.184599
-0.170438
-0.155739
-0.140817
-0.125978
-0.111493
-0.0975853
-0.0844336
-0.0721642
-0.0608605
-0.0505667
-0.0413001
-0.0330441
-0.0257866
-0.0194615
-0.0140733
-0.00948531
-0.00579816
-0.00271194
-0.000598197
0.00126281
0.00182258
0.00282652
0.00167251
0.00229308
-0.246411
-0.242411
-0.243727
-0.244873
-0.245979
-0.247252
-0.248632
-0.250051
-0.251466
-0.252824
-0.254074
-0.255153
-0.255994
-0.256502
-0.256564
-0.256041
-0.254791
-0.252559
-0.249215
-0.244577
-0.238503
-0.230896
-0.221742
-0.211092
-0.199084
-0.185928
-0.171903
-0.157317
-0.142484
-0.127707
-0.113258
-0.0993623
-0.0862001
-0.0739016
-0.0625533
-0.0522026
-0.0428702
-0.0345411
-0.0272067
-0.0208003
-0.01533
-0.0106564
-0.00688315
-0.00370823
-0.00149649
0.000453507
0.00115215
0.00223021
0.0013322
0.00197277
-0.247136
-0.242382
-0.243418
-0.244629
-0.24565
-0.246856
-0.248195
-0.24959
-0.25099
-0.252341
-0.25359
-0.254676
-0.255534
-0.256067
-0.256156
-0.255731
-0.254508
-0.252377
-0.249146
-0.244641
-0.238721
-0.231286
-0.222315
-0.211855
-0.200038
-0.187065
-0.173208
-0.15877
-0.144058
-0.129375
-0.11499
-0.10113
-0.0879784
-0.0756674
-0.0642876
-0.0538895
-0.0444978
-0.0360996
-0.02869
-0.0222018
-0.0166474
-0.0118848
-0.00801996
-0.00475155
-0.00243258
-0.00038841
0.000461855
0.00162024
0.000986657
0.00166449
-0.247751
-0.242374
-0.243094
-0.244333
-0.245231
-0.246331
-0.247608
-0.248965
-0.25034
-0.251675
-0.252915
-0.253999
-0.254863
-0.255406
-0.25556
-0.255129
-0.253977
-0.251929
-0.248803
-0.24443
-0.238667
-0.231414
-0.222645
-0.212402
-0.200807
-0.188057
-0.174409
-0.160157
-0.145606
-0.13105
-0.116758
-0.102959
-0.0898343
-0.0775229
-0.0661187
-0.0556762
-0.046225
-0.0377544
-0.0302645
-0.0236879
-0.0180414
-0.0131812
-0.00921507
-0.00584433
-0.00340683
-0.0012604
-0.000246244
0.00100034
0.000637218
0.0013643
-0.24817
-0.242425
-0.242752
-0.243964
-0.244668
-0.245602
-0.246787
-0.248098
-0.249446
-0.25076
-0.251985
-0.253059
-0.253923
-0.254476
-0.254663
-0.254264
-0.253175
-0.251212
-0.248202
-0.24398
-0.238401
-0.231368
-0.222845
-0.212869
-0.201551
-0.189076
-0.175686
-0.161666
-0.14731
-0.132908
-0.118727
-0.104996
-0.0918999
-0.0795824
-0.0681438
-0.0576433
-0.0481172
-0.0395577
-0.0319706
-0.0252892
-0.0195339
-0.0145617
-0.0104775
-0.00699371
-0.00441969
-0.00216521
-0.000966913
0.000367825
0.000293392
0.00106258
-0.246675
-0.240362
-0.240941
-0.242379
-0.243044
-0.243898
-0.245081
-0.246455
-0.247887
-0.249277
-0.250562
-0.251686
-0.252593
-0.253191
-0.253396
-0.253051
-0.25202
-0.250134
-0.247224
-0.243131
-0.237712
-0.23087
-0.222566
-0.212831
-0.201769
-0.189551
-0.17641
-0.162619
-0.148464
-0.134231
-0.120184
-0.106551
-0.0935214
-0.0812393
-0.06981
-0.0592972
-0.0497403
-0.0411364
-0.0334912
-0.026745
-0.0209101
-0.0158601
-0.0116726
-0.0081053
-0.00539232
-0.00305845
-0.0016546
-0.000262632
-1.43014e-05
0.000763813
-0.214997
-0.215374
-0.222586
-0.227744
-0.230426
-0.232201
-0.234132
-0.236414
-0.238838
-0.241155
-0.24322
-0.244968
-0.246359
-0.247336
-0.247815
-0.24767
-0.246777
-0.244998
-0.242183
-0.23819
-0.232902
-0.226246
-0.218203
-0.208818
-0.198201
-0.18652
-0.173992
-0.160866
-0.147408
-0.133879
-0.12052
-0.107539
-0.0951101
-0.083366
-0.0724028
-0.0622819
-0.0530368
-0.0446736
-0.0371844
-0.0305371
-0.0247028
-0.0196224
-0.0152694
-0.0115634
-0.00849496
-0.00594242
-0.00393039
-0.00227506
-0.00107302
-7.60576e-05
-0.185109
-0.196712
-0.202869
-0.206358
-0.209022
-0.211698
-0.214562
-0.217444
-0.220086
-0.222297
-0.223999
-0.225176
-0.225821
-0.225892
-0.225307
-0.224012
-0.222011
-0.219298
-0.215808
-0.21145
-0.206152
-0.19988
-0.192643
-0.184491
-0.175508
-0.165815
-0.155552
-0.144881
-0.133973
-0.123001
-0.11213
-0.101501
-0.0912368
-0.0814347
-0.072169
-0.0634942
-0.0554434
-0.0480346
-0.0412686
-0.0351377
-0.0296209
-0.0246949
-0.0203188
-0.0164526
-0.0130415
-0.0100413
-0.00738762
-0.00503599
-0.0029065
-0.000967334
-0.159807
-0.168772
-0.173706
-0.176569
-0.178967
-0.181566
-0.184376
-0.187127
-0.189541
-0.191457
-0.192843
-0.193739
-0.194206
-0.194296
-0.194035
-0.193401
-0.192199
-0.190214
-0.187376
-0.183705
-0.17925
-0.174048
-0.168134
-0.161551
-0.154359
-0.146638
-0.138489
-0.130026
-0.121365
-0.11262
-0.103892
-0.0952796
-0.0868671
-0.0787309
-0.0709314
-0.0635187
-0.0565246
-0.0499744
-0.0438743
-0.0382303
-0.0330266
-0.0282554
-0.0238798
-0.0198849
-0.0162146
-0.0128582
-0.00973842
-0.00685657
-0.0040968
-0.00147246
-0.130041
-0.139652
-0.145231
-0.148726
-0.15167
-0.154699
-0.157837
-0.160858
-0.163543
-0.165779
-0.167535
-0.168826
-0.169667
-0.170033
-0.169851
-0.16904
-0.167582
-0.165544
-0.162948
-0.159784
-0.156043
-0.151736
-0.146889
-0.141542
-0.13574
-0.129539
-0.123005
-0.116213
-0.109235
-0.102147
-0.0950214
-0.087931
-0.0809422
-0.0741156
-0.0675
-0.0611375
-0.0550556
-0.0492784
-0.0438132
-0.0386702
-0.0338385
-0.0293189
-0.0250831
-0.0211287
-0.0174086
-0.0139243
-0.0106051
-0.00746844
-0.00441437
-0.00150879
-0.10698
-0.115805
-0.121638
-0.125704
-0.12911
-0.13239
-0.135619
-0.138654
-0.141323
-0.143524
-0.145217
-0.146402
-0.147075
-0.147245
-0.146938
-0.146196
-0.145052
-0.14345
-0.141359
-0.138781
-0.135731
-0.132232
-0.128309
-0.123992
-0.119316
-0.114322
-0.109053
-0.103561
-0.0978981
-0.0921187
-0.0862779
-0.0804301
-0.0746236
-0.0689038
-0.0633068
-0.0578656
-0.0526019
-0.0475373
-0.0426786
-0.0380387
-0.0336102
-0.0294004
-0.0253872
-0.0215777
-0.0179318
-0.0144643
-0.0111121
-0.0079093
-0.00475438
-0.00170574
-0.0894017
-0.0970752
-0.102625
-0.106782
-0.110282
-0.113527
-0.116609
-0.11945
-0.121933
-0.123979
-0.125558
-0.126676
-0.127359
-0.127641
-0.127545
-0.12707
-0.126195
-0.124916
-0.12323
-0.121143
-0.11867
-0.115829
-0.112643
-0.109135
-0.105331
-0.101263
-0.0969648
-0.0924728
-0.087826
-0.0830656
-0.0782313
-0.0733624
-0.0684936
-0.0636582
-0.0588827
-0.0541933
-0.0496072
-0.0451441
-0.040811
-0.0366221
-0.0325732
-0.0286753
-0.0249111
-0.0212929
-0.0177871
-0.0144143
-0.0111174
-0.00793458
-0.0047693
-0.00168975
-0.0753688
-0.082025
-0.0870328
-0.0909392
-0.0942793
-0.0973496
-0.100223
-0.102848
-0.105147
-0.107065
-0.108582
-0.10971
-0.110469
-0.110873
-0.110926
-0.110625
-0.109969
-0.108966
-0.107625
-0.105952
-0.103956
-0.101651
-0.0990572
-0.0961939
-0.0930826
-0.0897473
-0.0862137
-0.08251
-0.0786648
-0.0747079
-0.0706679
-0.066574
-0.0624521
-0.0583283
-0.0542231
-0.0501583
-0.0461482
-0.0422103
-0.038351
-0.0345844
-0.0309074
-0.0273326
-0.0238457
-0.0204617
-0.0171516
-0.0139394
-0.0107742
-0.00769881
-0.00462736
-0.00163618
-0.0641557
-0.0698367
-0.0742436
-0.0777821
-0.0808569
-0.0836915
-0.0863382
-0.0887569
-0.090887
-0.0926867
-0.0941416
-0.0952561
-0.096041
-0.0965054
-0.0966545
-0.0964924
-0.0960239
-0.0952573
-0.0942017
-0.0928663
-0.0912598
-0.0893924
-0.0872779
-0.0849333
-0.0823762
-0.0796255
-0.0767011
-0.0736243
-0.0704169
-0.0671012
-0.0636987
-0.0602315
-0.0567194
-0.053183
-0.0496388
-0.0461049
-0.0425928
-0.0391176
-0.0356846
-0.0323068
-0.0289819
-0.0257229
-0.0225179
-0.0193835
-0.0162947
-0.0132778
-0.0102879
-0.00737028
-0.00444504
-0.00158431
-0.0549985
-0.0598549
-0.0636959
-0.0668442
-0.0696189
-0.0721923
-0.0746
-0.0768049
-0.0787559
-0.0804181
-0.0817794
-0.0828427
-0.0836168
-0.0841107
-0.0843315
-0.0842847
-0.0839755
-0.0834105
-0.0825958
-0.0815389
-0.0802484
-0.0787341
-0.0770069
-0.0750802
-0.0729684
-0.070687
-0.0682513
-0.065678
-0.0629836
-0.0601856
-0.0573004
-0.0543453
-0.0513358
-0.0482884
-0.0452161
-0.042134
-0.0390509
-0.0359801
-0.0329256
-0.0298997
-0.0269004
-0.0239409
-0.0210113
-0.0181288
-0.0152719
-0.0124673
-0.00967487
-0.00693908
-0.00418635
-0.00148796
-0.0474449
-0.0516007
-0.0549345
-0.0577088
-0.060181
-0.062487
-0.0646507
-0.0666378
-0.0684042
-0.0699207
-0.0711775
-0.0721777
-0.0729293
-0.0734399
-0.0737151
-0.0737588
-0.0735744
-0.0731673
-0.0725431
-0.0717086
-0.0706718
-0.0694413
-0.0680261
-0.0664367
-0.0646847
-0.0627823
-0.060742
-0.0585769
-0.0562998
-0.0539246
-0.0514643
-0.0489326
-0.0463416
-0.0437046
-0.0410319
-0.0383357
-0.0356235
-0.0329065
-0.0301882
-0.02748
-0.0247804
-0.0221022
-0.019437
-0.0168019
-0.0141779
-0.0115916
-0.00900689
-0.00646721
-0.00390571
-0.00139093
-0.0411411
-0.0447061
-0.0475955
-0.0500272
-0.0522125
-0.0542612
-0.0561899
-0.0579675
-0.0595558
-0.0609301
-0.0620822
-0.0630145
-0.0637334
-0.0642445
-0.0645517
-0.0646579
-0.0645657
-0.06428
-0.0638057
-0.0631488
-0.0623158
-0.061314
-0.0601509
-0.0588348
-0.0573748
-0.0557809
-0.0540631
-0.0522319
-0.0502975
-0.048271
-0.0461627
-0.0439837
-0.0417436
-0.039453
-0.0371203
-0.0347557
-0.0323653
-0.0299591
-0.02754
-0.0251184
-0.0226931
-0.0202762
-0.0178605
-0.0154626
-0.0130657
-0.0106953
-0.00831933
-0.00597915
-0.0036138
-0.00128785
-0.0358262
-0.0388939
-0.0413987
-0.0435247
-0.0454485
-0.0472603
-0.0489717
-0.050555
-0.0519768
-0.053216
-0.0542651
-0.0551258
-0.0558029
-0.0563008
-0.0566222
-0.0567695
-0.0567449
-0.0565522
-0.0561955
-0.0556796
-0.0550099
-0.0541923
-0.0532329
-0.0521387
-0.0509168
-0.0495752
-0.0481221
-0.0465659
-0.0449149
-0.0431781
-0.0413636
-0.0394805
-0.0375365
-0.0355405
-0.033499
-0.031421
-0.0293113
-0.0271787
-0.0250258
-0.022862
-0.0206863
-0.0185099
-0.0163267
-0.0141523
-0.011972
-0.00981004
-0.00763746
-0.00549344
-0.00332245
-0.00118494
-0.0313071
-0.033955
-0.0361294
-0.0379874
-0.0396781
-0.0412768
-0.0427916
-0.0441978
-0.0454664
-0.0465788
-0.0475286
-0.0483169
-0.0489472
-0.049423
-0.0497465
-0.0499192
-0.0499428
-0.0498201
-0.0495543
-0.0491495
-0.04861
-0.0479406
-0.0471463
-0.0462327
-0.0452056
-0.0440714
-0.0428367
-0.0415085
-0.0400934
-0.0385988
-0.0370311
-0.035398
-0.0337056
-0.0319614
-0.0301708
-0.0283413
-0.0264771
-0.0245859
-0.0226698
-0.0207374
-0.0187877
-0.0168313
-0.0148627
-0.0128966
-0.01092
-0.00895561
-0.00697743
-0.00502205
-0.00303907
-0.00108462
-0.0274369
-0.0297297
-0.0316208
-0.0332456
-0.0347311
-0.0361404
-0.0374795
-0.0387262
-0.0398554
-0.0408509
-0.0417071
-0.0424246
-0.0430064
-0.0434549
-0.0437717
-0.0439577
-0.0440142
-0.0439432
-0.0437473
-0.0434297
-0.042994
-0.042444
-0.0417838
-0.0410177
-0.0401507
-0.0391878
-0.0381344
-0.0369962
-0.0357786
-0.0344876
-0.0331286
-0.0317079
-0.0302305
-0.0287028
-0.0271292
-0.0255162
-0.0238672
-0.0221891
-0.0204836
-0.0187585
-0.0170129
-0.0152567
-0.0134848
-0.0117112
-0.00992412
-0.00814476
-0.00634971
-0.0045729
-0.00276865
-0.000988775
-0.0241022
-0.0260933
-0.0277418
-0.0291645
-0.0304704
-0.0317127
-0.0328958
-0.0340001
-0.0350038
-0.0358929
-0.0366623
-0.0373126
-0.0378459
-0.0382641
-0.0385683
-0.038759
-0.0388369
-0.0388034
-0.0386607
-0.0384115
-0.0380586
-0.0376049
-0.0370538
-0.0364087
-0.0356737
-0.0348529
-0.0339507
-0.0329716
-0.0319203
-0.0308016
-0.02962
-0.0283807
-0.0270879
-0.0257471
-0.0243618
-0.0229378
-0.0214779
-0.0199881
-0.01847
-0.0169304
-0.0153688
-0.013794
-0.0122017
-0.0106047
-0.00899249
-0.00738473
-0.00576033
-0.00415057
-0.00251408
-0.000898443
-0.0212139
-0.022948
-0.0243882
-0.025636
-0.0267851
-0.0278808
-0.0289262
-0.0299042
-0.0307957
-0.0315887
-0.0322787
-0.032866
-0.0333523
-0.033739
-0.0340268
-0.0342159
-0.0343067
-0.0343
-0.0341977
-0.034002
-0.0337151
-0.0333394
-0.0328773
-0.0323319
-0.0317062
-0.0310039
-0.0302282
-0.0293832
-0.0284726
-0.0275003
-0.0264702
-0.0253866
-0.024253
-0.0230741
-0.0218529
-0.0205942
-0.0193007
-0.0179775
-0.016626
-0.0152524
-0.0138561
-0.0124454
-0.0110163
-0.00958047
-0.00812868
-0.00667893
-0.00521226
-0.00375736
-0.0022768
-0.000814155
-0.0187017
-0.0202157
-0.0214767
-0.0225731
-0.0235856
-0.0245528
-0.0254771
-0.0263434
-0.027135
-0.0278417
-0.0284595
-0.0289885
-0.0294301
-0.0297854
-0.0300547
-0.0302381
-0.0303355
-0.0303474
-0.0302757
-0.0301219
-0.0298878
-0.0295752
-0.0291861
-0.028723
-0.0281884
-0.0275852
-0.0269162
-0.0261846
-0.0253934
-0.0245462
-0.0236461
-0.0226965
-0.0217007
-0.0206625
-0.0195845
-0.018471
-0.017324
-0.0161484
-0.0149451
-0.0137199
-0.0124721
-0.0112093
-0.00992786
-0.00863864
-0.00733324
-0.00602816
-0.00470635
-0.00339403
-0.00205738
-0.000736141
-0.0165084
-0.0178333
-0.0189399
-0.019905
-0.0207984
-0.0216531
-0.0224709
-0.0232386
-0.0239416
-0.0245711
-0.0251236
-0.0255993
-0.0259991
-0.0263238
-0.0265736
-0.0267485
-0.0268482
-0.0268728
-0.0268239
-0.0267029
-0.0265111
-0.0262499
-0.025921
-0.0255263
-0.0250678
-0.0245479
-0.023969
-0.0233338
-0.0226447
-0.0219047
-0.0211164
-0.0202828
-0.0194066
-0.018491
-0.0175384
-0.0165524
-0.0155348
-0.0144899
-0.0134185
-0.0123258
-0.0112111
-0.0100814
-0.00893345
-0.00777705
-0.00660472
-0.00543151
-0.00424207
-0.00306032
-0.00185569
-0.00066438
-0.0145878
-0.0157495
-0.0167226
-0.0175737
-0.0183631
-0.0191193
-0.0198435
-0.0205242
-0.0211487
-0.0217093
-0.0222032
-0.0226302
-0.0229913
-0.0232869
-0.0235172
-0.0236818
-0.0237806
-0.0238135
-0.0237819
-0.0236866
-0.0235289
-0.0233097
-0.0230304
-0.0226927
-0.0222982
-0.0218488
-0.0213464
-0.0207934
-0.0201918
-0.019544
-0.0188523
-0.0181193
-0.0173472
-0.0165388
-0.0156961
-0.0148224
-0.0139192
-0.0129901
-0.0120361
-0.0110616
-0.0100663
-0.00905616
-0.00802847
-0.00699211
-0.00594036
-0.00488692
-0.00381797
-0.00275527
-0.00167122
-0.000598694
-0.0129023
-0.0139227
-0.0147798
-0.0155315
-0.01623
-0.0168999
-0.0175418
-0.0181457
-0.0187007
-0.0192
-0.0196413
-0.0200243
-0.0203498
-0.0206181
-0.0208292
-0.0209828
-0.0210786
-0.0211166
-0.0210976
-0.0210226
-0.0208923
-0.0207076
-0.0204697
-0.0201798
-0.0198392
-0.0194495
-0.0190124
-0.0185298
-0.0180034
-0.0174353
-0.0168274
-0.0161818
-0.0155006
-0.0147861
-0.01404
-0.0132653
-0.0124631
-0.0116369
-0.0107873
-0.00991842
-0.0090298
-0.008127
-0.00720751
-0.0062794
-0.00533664
-0.00439167
-0.00343204
-0.0024775
-0.00150315
-0.000538816
-0.0114191
-0.0123169
-0.013073
-0.0137381
-0.0143571
-0.014951
-0.0155206
-0.0160568
-0.0165503
-0.0169952
-0.0173893
-0.0177327
-0.0180257
-0.0182686
-0.0184614
-0.0186037
-0.0186953
-0.0187359
-0.0187264
-0.0186673
-0.0185593
-0.0184031
-0.0181996
-0.0179498
-0.0176549
-0.0173162
-0.016935
-0.0165129
-0.0160515
-0.0155524
-0.0150172
-0.014448
-0.0138462
-0.0132141
-0.0125531
-0.0118657
-0.0111531
-0.0104181
-0.00966142
-0.00888673
-0.00809358
-0.00728699
-0.00646472
-0.00563406
-0.00478961
-0.00394262
-0.0030819
-0.00222536
-0.00135052
-0.000484405
-0.0101112
-0.0109024
-0.0115706
-0.0121599
-0.0127091
-0.0132364
-0.0137423
-0.0142188
-0.0146578
-0.0150544
-0.0154065
-0.0157142
-0.0159777
-0.0161973
-0.0163729
-0.016504
-0.0165905
-0.0166321
-0.0166295
-0.0165829
-0.016493
-0.0163605
-0.0161859
-0.0159701
-0.0157141
-0.0154189
-0.0150858
-0.014716
-0.0143107
-0.0138716
-0.0133999
-0.0128974
-0.0123653
-0.0118056
-0.0112196
-0.0106093
-0.00997596
-0.00932203
-0.00864807
-0.00795737
-0.00724956
-0.00652914
-0.00579411
-0.00505106
-0.00429511
-0.00353648
-0.00276506
-0.0019971
-0.00121228
-0.000435099
-0.00895608
-0.00965423
-0.0102457
-0.0107686
-0.0112566
-0.0117253
-0.012175
-0.0125989
-0.0129898
-0.0133434
-0.0136581
-0.0139337
-0.0141706
-0.0143689
-0.0145284
-0.0146488
-0.0147298
-0.0147712
-0.0147735
-0.0147369
-0.0146618
-0.014549
-0.0143988
-0.0142118
-0.013989
-0.0137313
-0.0134396
-0.013115
-0.0127586
-0.0123717
-0.0119554
-0.0115113
-0.0110404
-0.0105445
-0.0100246
-0.00948265
-0.00891954
-0.00833759
-0.00773725
-0.00712147
-0.0064899
-0.00584661
-0.00518977
-0.00452537
-0.00384899
-0.00316989
-0.00247896
-0.00179089
-0.00108736
-0.000390522
-0.00793419
-0.00855114
-0.00907541
-0.0095401
-0.00997432
-0.0103915
-0.0107916
-0.011169
-0.0115173
-0.0118328
-0.0121141
-0.0123611
-0.012574
-0.0127529
-0.0128976
-0.0130078
-0.0130832
-0.0131236
-0.0131293
-0.0131006
-0.0130379
-0.0129415
-0.0128119
-0.0126496
-0.0124553
-0.0122298
-0.0119739
-0.0116886
-0.0113747
-0.0110335
-0.0106658
-0.0102729
-0.00985585
-0.00941613
-0.00895466
-0.00847315
-0.00797237
-0.00745438
-0.00691956
-0.00637058
-0.0058071
-0.00523279
-0.004646
-0.00405213
-0.0034472
-0.0028396
-0.00222108
-0.00160496
-0.000974686
-0.000350295
-0.00702929
-0.00757511
-0.00804048
-0.00845403
-0.00884088
-0.00921254
-0.00956905
-0.00990528
-0.0102159
-0.0104976
-0.0107493
-0.0109706
-0.0111619
-0.0113232
-0.0114544
-0.011555
-0.0116248
-0.0116638
-0.0116719
-0.0116495
-0.0115969
-0.0115143
-0.0114023
-0.0112611
-0.0110913
-0.0108938
-0.010669
-0.0104178
-0.0101411
-0.00983975
-0.00951462
-0.00916682
-0.00879722
-0.00840712
-0.00799732
-0.00756935
-0.00712387
-0.00666273
-0.00618625
-0.00569682
-0.00519413
-0.00468147
-0.00415738
-0.0036267
-0.00308587
-0.00254244
-0.00198901
-0.00143757
-0.000873221
-0.000314058
-0.00622714
-0.00671062
-0.00712425
-0.00749279
-0.00783789
-0.00816941
-0.00848735
-0.00878724
-0.00906449
-0.00931625
-0.00954142
-0.00973991
-0.00991186
-0.0100573
-0.010176
-0.0102677
-0.0103323
-0.0103694
-0.0103791
-0.0103617
-0.0103176
-0.0102468
-0.0101497
-0.0100266
-0.00987814
-0.00970475
-0.00950705
-0.00928575
-0.00904151
-0.00877516
-0.00848745
-0.00817933
-0.00785157
-0.00750531
-0.00714124
-0.00676073
-0.00636435
-0.00595374
-0.00552919
-0.00509284
-0.0046444
-0.00418684
-0.00371881
-0.00324472
-0.00276132
-0.00227546
-0.00178043
-0.0012871
-0.000781981
-0.000281458
-0.00551563
-0.00594433
-0.00631245
-0.00664132
-0.00694956
-0.00724563
-0.00752947
-0.00779722
-0.00804489
-0.00827004
-0.0084717
-0.00864978
-0.00880437
-0.00893547
-0.00904291
-0.00912653
-0.00918598
-0.00922101
-0.00923177
-0.00921855
-0.00918145
-0.00912064
-0.00903638
-0.008929
-0.0087989
-0.00864656
-0.00847249
-0.00827729
-0.00806153
-0.00782594
-0.00757115
-0.00729802
-0.00700721
-0.00669971
-0.00637615
-0.00603773
-0.00568494
-0.00531927
-0.00494095
-0.0045519
-0.00415186
-0.0037435
-0.0033256
-0.00290212
-0.00247015
-0.00203586
-0.0015932
-0.00115198
-0.00070004
-0.000252171
-0.00488416
-0.00526468
-0.0055927
-0.00588657
-0.00616224
-0.00642695
-0.00668063
-0.00691992
-0.0071414
-0.00734293
-0.00752368
-0.00768355
-0.00782261
-0.00794081
-0.00803802
-0.00811412
-0.00816875
-0.00820171
-0.00821318
-0.0082033
-0.00817215
-0.00811988
-0.00804669
-0.00795288
-0.00783878
-0.0077048
-0.00755139
-0.00737906
-0.00718831
-0.00697978
-0.00675401
-0.00651176
-0.0062536
-0.00598041
-0.00569274
-0.00539166
-0.0050776
-0.00475188
-0.00441471
-0.00406782
-0.00371094
-0.0033465
-0.00297337
-0.00259515
-0.00220919
-0.00182107
-0.00142531
-0.00103081
-0.000626533
-0.000225888
-0.00432353
-0.00466164
-0.0049543
-0.00521722
-0.00546408
-0.00570105
-0.00592802
-0.00614212
-0.00634038
-0.00652095
-0.00668311
-0.00682677
-0.00695195
-0.0070586
-0.00714653
-0.00721537
-0.00726568
-0.00729674
-0.0073087
-0.00730156
-0.00727544
-0.00723048
-0.00716686
-0.00708482
-0.00698465
-0.00686673
-0.00673142
-0.00657917
-0.00641042
-0.00622571
-0.00602554
-0.00581056
-0.00558128
-0.00533848
-0.00508263
-0.00481469
-0.00453503
-0.00424484
-0.0039443
-0.00363495
-0.00331656
-0.00299129
-0.00265815
-0.00232036
-0.00197553
-0.0016287
-0.00127492
-0.000922237
-0.000560663
-0.000202329
-0.00382573
-0.00412645
-0.00438788
-0.00462344
-0.00484479
-0.00505718
-0.00526051
-0.00545229
-0.00562996
-0.00579194
-0.0059376
-0.00606684
-0.00617969
-0.00627612
-0.00635595
-0.006419
-0.00646482
-0.00649373
-0.00650567
-0.00650066
-0.00647876
-0.00644007
-0.00638471
-0.00631291
-0.00622492
-0.00612105
-0.00600162
-0.00586702
-0.00571764
-0.00555395
-0.00537638
-0.00518551
-0.00498178
-0.00476589
-0.00453826
-0.00429973
-0.00405064
-0.00379205
-0.00352409
-0.00324818
-0.00296408
-0.00267376
-0.00237629
-0.0020746
-0.00176651
-0.00145659
-0.00114035
-0.000825063
-0.000501696
-0.000181232
-0.00338368
-0.00365145
-0.00388528
-0.00409661
-0.00429536
-0.00448598
-0.00466836
-0.00484035
-0.00499977
-0.00514524
-0.00527623
-0.00539261
-0.00549442
-0.0055816
-0.00565399
-0.00571141
-0.00575361
-0.00578064
-0.00579251
-0.00578928
-0.00577098
-0.00573769
-0.00568951
-0.00562665
-0.0055493
-0.00545776
-0.00535228
-0.00523322
-0.0051009
-0.00495576
-0.00479816
-0.00462861
-0.00444751
-0.00425547
-0.00405286
-0.00384044
-0.0036185
-0.00338799
-0.00314903
-0.00290288
-0.00264933
-0.00239015
-0.00212449
-0.001855
-0.00157971
-0.00130275
-0.00102004
-0.000738175
-0.000448963
-0.00016236
-0.00299125
-0.00322993
-0.00343936
-0.00362923
-0.00380795
-0.00397927
-0.00414308
-0.00429754
-0.00444076
-0.00457158
-0.00468951
-0.00479445
-0.0048864
-0.00496531
-0.00503103
-0.00508342
-0.00512226
-0.00514753
-0.00515926
-0.00515751
-0.0051423
-0.00511369
-0.00507177
-0.00501671
-0.0049487
-0.00486798
-0.00477478
-0.00466941
-0.00455214
-0.00442337
-0.00428342
-0.00413273
-0.00397166
-0.00380076
-0.00362034
-0.00343109
-0.00323326
-0.00302771
-0.00281453
-0.00259486
-0.00236851
-0.00213706
-0.00189975
-0.00165898
-0.00141293
-0.00116538
-0.000912588
-0.000660566
-0.000401855
-0.000145495
-0.00264296
-0.00285598
-0.00304383
-0.00321469
-0.00337566
-0.00352987
-0.00367722
-0.00381613
-0.003945
-0.00406281
-0.00416914
-0.00426389
-0.00434706
-0.00441859
-0.00447836
-0.00452623
-0.00456199
-0.00458562
-0.00459717
-0.00459666
-0.00458411
-0.00455956
-0.00452311
-0.00447489
-0.00441507
-0.00434386
-0.00426147
-0.00416816
-0.00406418
-0.00394987
-0.00382552
-0.00369152
-0.00354819
-0.00339601
-0.00323527
-0.00306658
-0.00289015
-0.00270676
-0.0025165
-0.00232038
-0.00211821
-0.00191144
-0.00169937
-0.00148417
-0.00126419
-0.00104284
-0.000816735
-0.000591322
-0.000359819
-0.000130443
-0.00233402
-0.00252441
-0.00269319
-0.00284722
-0.00299244
-0.0031315
-0.00326427
-0.00338941
-0.00350555
-0.00361182
-0.00370785
-0.00379355
-0.00386889
-0.00393382
-0.00398827
-0.00403209
-0.00406507
-0.0040872
-0.00409854
-0.00409908
-0.00408882
-0.00406781
-0.00403614
-0.00399392
-0.0039413
-0.00387846
-0.00380558
-0.00372291
-0.00363065
-0.00352911
-0.00341855
-0.00329932
-0.00317168
-0.00303609
-0.00289279
-0.00274232
-0.00258488
-0.00242116
-0.00225124
-0.00207604
-0.00189537
-0.00171055
-0.00152093
-0.00132848
-0.0011317
-0.000933676
-0.000731332
-0.000529619
-0.000322356
-0.000117024
-0.00206023
-0.00223067
-0.00238259
-0.00252172
-0.00265301
-0.00277865
-0.00289852
-0.00301148
-0.00311635
-0.0032124
-0.00329929
-0.00337692
-0.00344527
-0.00350428
-0.00355393
-0.00359415
-0.00362467
-0.00364549
-0.00365661
-0.00365804
-0.00364977
-0.00363184
-0.00360435
-0.00356738
-0.00352108
-0.00346561
-0.00340111
-0.00332781
-0.0032459
-0.00315564
-0.00305725
-0.00295107
-0.00283732
-0.00271641
-0.00258854
-0.00245422
-0.00231362
-0.00216735
-0.00201547
-0.00185883
-0.00169725
-0.00153192
-0.00136224
-0.00119001
-0.00101384
-0.000836562
-0.000655348
-0.000474716
-0.000289019
-0.00010508
-0.00181777
-0.00197068
-0.00210774
-0.0022337
-0.00235268
-0.00246645
-0.00257493
-0.00267712
-0.00277205
-0.00285907
-0.00293789
-0.00300839
-0.00307048
-0.00312404
-0.00316878
-0.00320636
-0.00323489
-0.00325458
-0.00326549
-0.00326765
-0.00326108
-0.00324584
-0.00322198
-0.00318963
-0.00314887
-0.00309987
-0.00304275
-0.00297771
-0.00290491
-0.0028246
-0.00273697
-0.00264231
-0.00254083
-0.00243289
-0.00231869
-0.00219865
-0.00207294
-0.00194212
-0.00180624
-0.00166605
-0.00152138
-0.00137334
-0.00122135
-0.00106705
-0.000909182
-0.000750314
-0.000587859
-0.000425946
-0.000259403
-9.44668e-05
-0.00160351
-0.00174099
-0.00186495
-0.00197929
-0.00208738
-0.00219069
-0.00228911
-0.00238183
-0.002468
-0.0025471
-0.00261889
-0.00268329
-0.00274031
-0.00278994
-0.00283222
-0.0028655
-0.00289137
-0.0029096
-0.00292008
-0.00292275
-0.0029176
-0.00290466
-0.00288398
-0.00285565
-0.00281976
-0.00277643
-0.0027258
-0.00266802
-0.00260325
-0.0025317
-0.00245355
-0.00236906
-0.00227841
-0.00218193
-0.00207978
-0.00197237
-0.00185983
-0.00174267
-0.00162092
-0.00149528
-0.00136559
-0.00123284
-0.00109651
-0.000958097
-0.000816431
-0.000673873
-0.00052804
-0.000382715
-0.000233148
-8.50556e-05
-0.00141461
-0.00153853
-0.00165096
-0.00175505
-0.00185355
-0.00194762
-0.00203718
-0.00212152
-0.00219996