/*--------------------------------*- C++ -*----------------------------------*\
  =========                 |
  \\      /  F ield         | OpenFOAM: The Open Source CFD Toolbox
   \\    /   O peration     | Website:  https://openfoam.org
    \\  /    A nd           | Version:  7
     \\/     M anipulation  |
\*---------------------------------------------------------------------------*/
FoamFile
{
    version     2.0;
    format      ascii;
    class       volVectorField;
    location    "50";
    object      U;
}
// * * * * * * * * * * * * * * * * * * * * * * * * * * * * * * * * * * * * * //

dimensions      [0 1 -1 0 0 0 0];

internalField   nonuniform List<vector> 
6000
(
(0.0100653 -0.00726844 -1.49028e-21)
(0.0536078 -0.0147131 6.59999e-21)
(0.123297 -0.0174589 7.19321e-22)
(0.193037 -0.0177097 -4.32181e-21)
(0.259294 -0.0168361 2.95993e-21)
(0.319808 -0.0156172 -9.4227e-21)
(0.374506 -0.0143884 -2.80263e-21)
(0.42394 -0.0132551 2.9014e-21)
(0.46872 -0.0122329 -1.04521e-21)
(0.509404 -0.0113129 8.33984e-21)
(0.546468 -0.0104829 -1.70729e-21)
(0.580324 -0.00973189 1.74748e-22)
(0.611325 -0.00905038 1.93062e-21)
(0.639776 -0.00843021 -4.31135e-21)
(0.665944 -0.00786435 -8.30281e-23)
(0.69006 -0.0073467 3.48275e-21)
(0.712325 -0.00687198 1.31118e-21)
(0.732919 -0.00643558 1.8945e-22)
(0.751995 -0.00603347 2.29308e-21)
(0.769694 -0.00566208 1.05221e-21)
(0.78614 -0.00531843 4.42991e-21)
(0.80144 -0.00499997 -2.95405e-21)
(0.815667 -0.00470384 5.25445e-21)
(0.828906 -0.00442616 -2.52016e-21)
(0.841363 -0.00416609 -2.4089e-21)
(0.01081 -0.0217819 6.81107e-22)
(0.055072 -0.0441004 1.34062e-20)
(0.124996 -0.0523376 9.54663e-21)
(0.194736 -0.0530946 1.70422e-20)
(0.260889 -0.0504791 -1.41224e-20)
(0.321272 -0.0468263 8.63819e-21)
(0.37584 -0.0431432 -1.70572e-21)
(0.425156 -0.0397458 2.34728e-21)
(0.469831 -0.0366812 1.24108e-20)
(0.51042 -0.033923 1.68542e-21)
(0.547401 -0.0314346 2.01442e-21)
(0.581182 -0.0291829 2.37786e-21)
(0.612115 -0.0271395 -1.20617e-20)
(0.640506 -0.02528 -5.60439e-21)
(0.66662 -0.0235832 5.04786e-21)
(0.690686 -0.022031 -1.07267e-20)
(0.712907 -0.0206075 -8.16173e-22)
(0.73346 -0.0192988 -5.33958e-21)
(0.7525 -0.018093 -7.43596e-21)
(0.770165 -0.0169792 5.25034e-22)
(0.78658 -0.0159486 -1.38057e-20)
(0.801852 -0.0149935 -4.57821e-21)
(0.816055 -0.0141054 4.46531e-21)
(0.829272 -0.0132725 2.71651e-21)
(0.841697 -0.0124928 2.59486e-21)
(0.0122953 -0.0362049 -1.68906e-20)
(0.0579935 -0.0733313 -6.05421e-22)
(0.12839 -0.0870529 3.98028e-20)
(0.198128 -0.0883299 -3.32246e-20)
(0.264075 -0.0839896 -3.64871e-21)
(0.324194 -0.0779181 2.18992e-20)
(0.378504 -0.0717932 1.17767e-20)
(0.427584 -0.0661421 1.10515e-20)
(0.472049 -0.0610442 2.29117e-22)
(0.512451 -0.0564558 4.7277e-21)
(0.549265 -0.0523161 5.16018e-21)
(0.582896 -0.04857 -6.24316e-21)
(0.613695 -0.0451705 2.46042e-20)
(0.641965 -0.0420767 2.22114e-20)
(0.667969 -0.0392536 -1.7282e-20)
(0.691937 -0.0366709 2.70667e-20)
(0.714069 -0.0343023 5.23623e-21)
(0.734541 -0.0321247 -2.43965e-20)
(0.753508 -0.0301181 -2.54611e-21)
(0.771106 -0.0282647 5.05651e-21)
(0.787459 -0.0265496 7.32786e-21)
(0.802675 -0.0249602 -3.31722e-21)
(0.816831 -0.0234818 -2.24246e-20)
(0.830003 -0.0220955 3.7111e-21)
(0.842364 -0.0207989 -3.75325e-22)
(0.0145125 -0.0504776 1.35683e-20)
(0.0623587 -0.102302 -4.73328e-20)
(0.133462 -0.121497 -6.48e-20)
(0.203201 -0.123316 2.71028e-20)
(0.268841 -0.11728 4.14004e-21)
(0.328567 -0.108815 -5.93103e-20)
(0.38249 -0.100269 -3.55127e-21)
(0.431218 -0.0923814 -4.53581e-21)
(0.475368 -0.0852653 -2.30436e-20)
(0.51549 -0.07886 4.21458e-20)
(0.552054 -0.0730808 1.13341e-20)
(0.585461 -0.067851 -6.57157e-21)
(0.616059 -0.0631047 6.17618e-21)
(0.644148 -0.0587851 -1.93288e-20)
(0.66999 -0.0548433 8.19827e-21)
(0.693811 -0.051237 -3.79968e-20)
(0.715809 -0.0479294 -9.47454e-21)
(0.73616 -0.0448884 1.1863e-21)
(0.755017 -0.042086 -1.31837e-20)
(0.772514 -0.0394975 1.22302e-20)
(0.788776 -0.0371022 4.20967e-21)
(0.803908 -0.034882 5.38687e-21)
(0.817992 -0.0328165 7.93106e-21)
(0.831098 -0.0308797 -9.71509e-21)
(0.843363 -0.0290706 -1.38513e-20)
(0.017449 -0.0645409 -2.73563e-20)
(0.068147 -0.130911 4.16e-20)
(0.140194 -0.155561 -1.74275e-20)
(0.209937 -0.157955 -2.44457e-20)
(0.275172 -0.150263 8.25443e-20)
(0.334376 -0.13944 1.8506e-20)
(0.387786 -0.128501 -2.31188e-20)
(0.436046 -0.118402 2.12796e-21)
(0.479779 -0.109288 -4.13288e-20)
(0.519529 -0.101085 -3.22572e-21)
(0.55576 -0.0936827 -2.50298e-20)
(0.58887 -0.0869839 -2.34536e-20)
(0.619201 -0.080904 -4.38915e-20)
(0.64705 -0.0753704 2.05423e-20)
(0.672675 -0.0703204 -6.11307e-21)
(0.696301 -0.0657 7.61675e-21)
(0.718122 -0.0614619 2.02187e-20)
(0.738312 -0.0575653 7.7451e-21)
(0.757023 -0.0539741 -3.40621e-21)
(0.774387 -0.0506569 1.64964e-20)
(0.790526 -0.047587 -1.15018e-20)
(0.805547 -0.0447413 -2.01155e-20)
(0.819537 -0.042093 6.42739e-21)
(0.832553 -0.0396098 2.1656e-20)
(0.844693 -0.0372946 5.81252e-21)
(0.021088 -0.0783368 4.87863e-20)
(0.0753311 -0.159057 7.164e-21)
(0.148557 -0.189141 4.50471e-20)
(0.218312 -0.192149 1.90132e-20)
(0.283046 -0.182852 -6.83595e-20)
(0.341604 -0.169716 4.51263e-21)
(0.394376 -0.156422 5.34142e-20)
(0.442055 -0.144141 -4.34334e-20)
(0.485268 -0.133058 2.00409e-20)
(0.524555 -0.12308 -6.70794e-20)
(0.560373 -0.114076 3.36305e-20)
(0.593113 -0.105927 5.5331e-20)
(0.623112 -0.0985305 -9.9198e-21)
(0.650663 -0.0917979 3.7319e-21)
(0.676019 -0.0856534 2.08668e-20)
(0.699401 -0.080031 2.25631e-20)
(0.721002 -0.0748735 1.61915e-20)
(0.740993 -0.0701312 -1.53476e-20)
(0.759521 -0.0657601 -9.6968e-23)
(0.776719 -0.0617223 -7.98032e-21)
(0.792705 -0.0579852 1.93349e-20)
(0.807589 -0.0545205 -8.82179e-21)
(0.821461 -0.051295 -1.6735e-20)
(0.834367 -0.0482708 -2.7251e-20)
(0.84635 -0.0454577 1.30189e-20)
(0.0254083 -0.0918082 -1.42553e-19)
(0.0838768 -0.186639 3.43247e-20)
(0.158518 -0.222131 4.05897e-20)
(0.228296 -0.225801 1.82676e-20)
(0.292439 -0.214964 5.26464e-20)
(0.350228 -0.199569 -2.5372e-20)
(0.402241 -0.183965 -3.9097e-20)
(0.449226 -0.169541 3.99554e-20)
(0.49182 -0.15652 -2.78083e-20)
(0.530555 -0.144796 5.15357e-20)
(0.56588 -0.134216 5.2803e-21)
(0.598178 -0.12464 1.97212e-20)
(0.627782 -0.115947 4.02598e-20)
(0.654977 -0.108034 4.29714e-20)
(0.680011 -0.100811 1.27762e-20)
(0.703103 -0.0942017 -2.41517e-20)
(0.724442 -0.0881381 1.35177e-20)
(0.744194 -0.082562 3.20786e-20)
(0.762506 -0.0774219 3.20239e-20)
(0.779506 -0.0726733 -3.0896e-20)
(0.79531 -0.068278 2.50368e-20)
(0.810028 -0.0642024 5.87579e-21)
(0.823759 -0.0604065 3.59866e-20)
(0.836534 -0.0568477 5.37784e-20)
(0.848333 -0.0535463 -2.06198e-20)
(0.030385 -0.1049 1.70286e-20)
(0.0937436 -0.213561 -9.65942e-20)
(0.170036 -0.254429 -4.9892e-20)
(0.239854 -0.258819 -3.33626e-20)
(0.30332 -0.246513 -6.99159e-20)
(0.360222 -0.228925 4.01799e-20)
(0.411356 -0.211063 2.95374e-21)
(0.457539 -0.19454 5.4338e-20)
(0.499415 -0.17962 5.39813e-20)
(0.537511 -0.166184 -3.29872e-20)
(0.572265 -0.154058 -4.60877e-20)
(0.604052 -0.143082 3.74541e-20)
(0.633197 -0.133117 2.25392e-20)
(0.65998 -0.124045 -1.18031e-19)
(0.684642 -0.115763 -4.79796e-21)
(0.707398 -0.108184 -1.12798e-20)
(0.728432 -0.10123 -9.02381e-21)
(0.747908 -0.0948342 -1.13002e-20)
(0.765969 -0.0889379 1.38361e-20)
(0.782739 -0.08349 -4.78179e-21)
(0.798332 -0.0784471 6.54444e-21)
(0.81286 -0.07377 -9.76613e-21)
(0.826426 -0.0694117 -1.70028e-20)
(0.83905 -0.0653258 -8.91601e-20)
(0.850638 -0.061547 1.71628e-20)
(0.0359893 -0.117559 1.17402e-19)
(0.104885 -0.239728 6.88584e-20)
(0.183065 -0.285935 1.04759e-19)
(0.252943 -0.291109 -3.26029e-20)
(0.315652 -0.277418 1.15557e-19)
(0.371555 -0.257711 -8.5168e-21)
(0.421695 -0.237652 -8.28864e-20)
(0.466968 -0.219081 1.84113e-20)
(0.508032 -0.202305 -7.07666e-21)
(0.545403 -0.187197 5.78125e-20)
(0.57951 -0.17356 3.35388e-20)
(0.610718 -0.161214 -6.9874e-20)
(0.639343 -0.150005 -3.72436e-20)
(0.665658 -0.139798 5.69518e-20)
(0.689899 -0.13048 -1.44002e-20)
(0.712274 -0.121951 3.3405e-20)
(0.732963 -0.114124 6.98903e-21)
(0.752125 -0.106925 2.5043e-20)
(0.769901 -0.100287 -5.30923e-20)
(0.786412 -0.0941529 -7.53182e-21)
(0.801766 -0.0884744 1.88314e-20)
(0.816076 -0.0832067 -3.68909e-20)
(0.829455 -0.0782951 2.69093e-20)
(0.841908 -0.0736906 5.94735e-20)
(0.85326 -0.0694465 -3.08142e-21)
(0.0421886 -0.129733 -4.77903e-20)
(0.117246 -0.265049 -8.61695e-21)
(0.19755 -0.316551 -7.91192e-20)
(0.267516 -0.322581 -3.33226e-20)
(0.329396 -0.3076 -1.18036e-19)
(0.384191 -0.285857 9.33347e-20)
(0.433226 -0.26367 2.83627e-20)
(0.477487 -0.243107 -6.29382e-20)
(0.517645 -0.224526 6.19795e-20)
(0.554208 -0.207789 4.96925e-21)
(0.587594 -0.192679 1.44525e-20)
(0.618158 -0.178999 2.52696e-20)
(0.646204 -0.166575 -3.10183e-20)
(0.671997 -0.155262 2.36005e-20)
(0.695769 -0.144932 1.14243e-20)
(0.717719 -0.135475 -6.18428e-21)
(0.738023 -0.126796 -1.48271e-20)
(0.756836 -0.118812 -4.92345e-20)
(0.774295 -0.111448 4.33683e-20)
(0.790516 -0.104643 8.99308e-21)
(0.805602 -0.0983423 -5.02968e-20)
(0.81967 -0.0924961 -3.41739e-20)
(0.83284 -0.0870417 2.42883e-20)
(0.845103 -0.0819278 3.10951e-20)
(0.856196 -0.0772315 -2.38144e-20)
(0.0489466 -0.141373 3.84491e-20)
(0.130769 -0.289434 -1.93987e-20)
(0.213431 -0.346183 2.44955e-21)
(0.283522 -0.353148 -5.10804e-20)
(0.344507 -0.336982 1.24273e-19)
(0.398092 -0.313295 -1.92522e-19)
(0.445915 -0.289055 -4.58941e-20)
(0.489064 -0.266565 -1.77089e-21)
(0.528226 -0.246233 -1.11152e-19)
(0.563902 -0.227915 -1.83823e-20)
(0.596496 -0.211375 -3.23062e-20)
(0.62635 -0.196398 9.26108e-20)
(0.653759 -0.182795 2.98335e-20)
(0.67898 -0.170406 -9.71623e-20)
(0.702235 -0.159092 1.30616e-20)
(0.723718 -0.148732 -1.44358e-20)
(0.743599 -0.139222 4.03308e-21)
(0.762028 -0.130472 1.08252e-19)
(0.779138 -0.122402 -3.19014e-20)
(0.79504 -0.114942 -2.33876e-20)
(0.809833 -0.108034 -1.42851e-20)
(0.823633 -0.101623 4.66503e-20)
(0.836572 -0.0956367 7.85521e-21)
(0.848626 -0.0900235 -3.11633e-20)
(0.85944 -0.0848891 2.52674e-20)
(0.0562236 -0.152433 -4.96347e-20)
(0.145387 -0.3128 -3.22544e-20)
(0.230644 -0.37474 1.05912e-19)
(0.300901 -0.382725 6.72325e-20)
(0.360934 -0.365487 5.65687e-21)
(0.413214 -0.339959 7.50864e-20)
(0.459723 -0.313749 8.87401e-20)
(0.501664 -0.2894 3.10662e-21)
(0.539745 -0.267377 1.19789e-19)
(0.574456 -0.247531 -9.61703e-21)
(0.606189 -0.229609 -4.07923e-20)
(0.635271 -0.213377 -7.89613e-20)
(0.661989 -0.198632 2.2184e-20)
(0.686587 -0.1852 6.68788e-20)
(0.709281 -0.172931 3.31767e-20)
(0.730256 -0.161695 4.28314e-20)
(0.749677 -0.15138 5.83098e-20)
(0.767689 -0.141886 -1.07316e-19)
(0.784418 -0.133128 1.26194e-20)
(0.799973 -0.125031 6.17979e-20)
(0.814448 -0.117532 -1.06859e-20)
(0.827957 -0.110571 -1.11073e-20)
(0.840643 -0.104066 -2.41202e-21)
(0.852471 -0.0979645 -1.51051e-21)
(0.862986 -0.0924065 -2.17682e-20)
(0.0639767 -0.162869 -1.55059e-20)
(0.16103 -0.335064 -2.12424e-20)
(0.249116 -0.402133 -8.30289e-20)
(0.319591 -0.411231 -1.42571e-19)
(0.378624 -0.393045 -8.91903e-20)
(0.42951 -0.365785 -1.90288e-20)
(0.474609 -0.337695 -3.80694e-20)
(0.515251 -0.311563 -1.32827e-20)
(0.552168 -0.287914 -9.49702e-20)
(0.585841 -0.266596 3.46879e-21)
(0.616646 -0.247342 -2.52408e-20)
(0.644899 -0.2299 -5.64054e-20)
(0.670871 -0.214053 2.49377e-20)
(0.694799 -0.199615 -8.86743e-20)
(0.716887 -0.186424 -5.13985e-20)
(0.737316 -0.174342 -5.02546e-20)
(0.756242 -0.163247 -1.14388e-19)
(0.773803 -0.153033 4.71106e-20)
(0.790124 -0.143609 5.70199e-20)
(0.805305 -0.134894 -4.47574e-21)
(0.819436 -0.126822 -5.53233e-20)
(0.83263 -0.119326 3.98271e-20)
(0.845043 -0.112316 1.63769e-20)
(0.856629 -0.105738 8.47997e-22)
(0.866827 -0.0997711 2.08697e-20)
(0.0721599 -0.172641 6.26201e-20)
(0.177621 -0.356151 1.12884e-19)
(0.268769 -0.428281 -1.67764e-20)
(0.339522 -0.438587 1.30139e-19)
(0.397518 -0.419586 -1.26912e-20)
(0.44693 -0.390712 -2.65315e-21)
(0.490529 -0.36084 1.5464e-19)
(0.529786 -0.333004 -3.03866e-20)
(0.565459 -0.307798 -6.37719e-20)
(0.598024 -0.285071 5.68368e-21)
(0.627839 -0.264539 6.05797e-20)
(0.655205 -0.245936 3.0113e-20)
(0.680381 -0.229031 -3.22667e-20)
(0.703593 -0.213624 -4.07885e-21)
(0.725035 -0.199546 -5.15165e-20)
(0.74488 -0.186648 7.07467e-20)
(0.763276 -0.174802 5.57056e-20)
(0.780357 -0.163894 1.09271e-20)
(0.79624 -0.153826 -1.09382e-20)
(0.811022 -0.144514 9.4692e-21)
(0.824785 -0.135887 3.95463e-20)
(0.837643 -0.127874 -2.32096e-20)
(0.849763 -0.120374 2.93406e-20)
(0.861091 -0.11333 -3.17059e-20)
(0.870958 -0.106971 -3.23114e-20)
(0.0807243 -0.18171 -1.51849e-20)
(0.195078 -0.375989 -1.93379e-19)
(0.289521 -0.453102 1.19034e-19)
(0.360622 -0.464719 6.10556e-20)
(0.417552 -0.445043 7.53637e-20)
(0.46542 -0.414682 6.29319e-20)
(0.507435 -0.383131 -9.78351e-20)
(0.545224 -0.353678 6.59522e-21)
(0.579581 -0.32699 3.89031e-20)
(0.61097 -0.302918 -4.76642e-20)
(0.639735 -0.281166 -6.80406e-21)
(0.666161 -0.261453 -6.10386e-21)
(0.690494 -0.243535 1.3674e-20)
(0.712946 -0.227202 8.00222e-20)
(0.733703 -0.212274 6.36846e-20)
(0.752928 -0.198593 -4.75139e-20)
(0.770763 -0.186024 4.37781e-20)
(0.787334 -0.174449 -6.22045e-21)
(0.802753 -0.163762 -3.64304e-20)
(0.817112 -0.153875 1.44272e-20)
(0.830485 -0.144714 -2.32775e-20)
(0.842985 -0.136202 9.9851e-21)
(0.854792 -0.128227 1.57772e-20)
(0.865846 -0.120731 3.1424e-20)
(0.87537 -0.113994 6.67303e-20)
(0.0896183 -0.190043 1.00076e-19)
(0.213314 -0.39451 5.17886e-20)
(0.311284 -0.476524 -1.48824e-19)
(0.382812 -0.489557 -5.36582e-20)
(0.43866 -0.469355 -2.39463e-20)
(0.484922 -0.437641 -3.50682e-20)
(0.525275 -0.40452 -3.83659e-20)
(0.561522 -0.373542 1.02235e-19)
(0.594492 -0.345449 -3.68794e-20)
(0.624643 -0.3201 1.12074e-19)
(0.652302 -0.297189 -6.22577e-21)
(0.677738 -0.276421 6.53221e-20)
(0.701182 -0.257539 -8.99084e-20)
(0.722833 -0.240323 -2.14634e-20)
(0.742869 -0.224583 9.98926e-21)
(0.761441 -0.210155 1.31331e-20)
(0.778684 -0.196896 -4.75428e-20)
(0.794717 -0.184682 1.13973e-20)
(0.809647 -0.173402 -6.21312e-20)
(0.823558 -0.162963 -2.12487e-20)
(0.836521 -0.153288 3.04073e-20)
(0.848643 -0.144296 2.57699e-20)
(0.860118 -0.135863 -6.53436e-20)
(0.870886 -0.127928 1.40127e-20)
(0.880056 -0.120828 -7.87381e-20)
(0.0987881 -0.19761 -1.18602e-19)
(0.232238 -0.411654 -1.67971e-20)
(0.333962 -0.498475 -6.07021e-20)
(0.406008 -0.513034 -8.01014e-20)
(0.460772 -0.492462 -6.5295e-22)
(0.505374 -0.459536 7.85887e-20)
(0.543998 -0.424962 2.64305e-20)
(0.578631 -0.392554 -4.25523e-20)
(0.610149 -0.363138 -5.30791e-21)
(0.639004 -0.336586 -8.52084e-20)
(0.665505 -0.31258 -5.62356e-20)
(0.689904 -0.290813 -6.51593e-20)
(0.712416 -0.271017 4.4489e-20)
(0.733229 -0.252964 -7.77175e-20)
(0.752508 -0.236454 2.44021e-20)
(0.770396 -0.221315 -2.39736e-20)
(0.787019 -0.2074 -5.68068e-20)
(0.802488 -0.194576 5.03047e-20)
(0.816905 -0.182729 1.91915e-20)
(0.830348 -0.171763 1.2456e-20)
(0.84288 -0.161597 7.45395e-21)
(0.854605 -0.152145 -4.00698e-20)
(0.86573 -0.143272 4.24817e-20)
(0.876198 -0.134911 -5.20391e-20)
(0.885006 -0.127464 -9.44321e-21)
(0.108178 -0.204384 1.02089e-20)
(0.251752 -0.427363 1.24128e-20)
(0.35746 -0.518892 1.51146e-19)
(0.430124 -0.535088 -1.56641e-20)
(0.483812 -0.514309 -2.75249e-20)
(0.526714 -0.48032 -4.49464e-20)
(0.563546 -0.444414 -1.25647e-20)
(0.596502 -0.410676 5.17568e-20)
(0.626509 -0.380023 -1.0915e-19)
(0.654013 -0.352343 1.01535e-19)
(0.679307 -0.327309 1.41518e-19)
(0.702625 -0.304603 3.10262e-21)
(0.724166 -0.283947 -1.11162e-21)
(0.744106 -0.265104 -1.06134e-20)
(0.762597 -0.247866 -5.34922e-20)
(0.779771 -0.232055 1.87837e-20)
(0.795747 -0.217517 7.6516e-20)
(0.810628 -0.204115 -6.40018e-20)
(0.82451 -0.191731 -2.54236e-20)
(0.837465 -0.180262 2.64955e-20)
(0.849547 -0.169628 4.33705e-20)
(0.860858 -0.159738 3.83636e-20)
(0.871617 -0.150443 8.09058e-23)
(0.881774 -0.141669 -8.43561e-20)
(0.890213 -0.133889 9.29204e-20)
(0.117729 -0.210343 3.52921e-20)
(0.271759 -0.441588 4.95339e-20)
(0.381672 -0.537716 -7.951e-20)
(0.455068 -0.555663 1.55888e-19)
(0.507703 -0.534845 2.46854e-20)
(0.548874 -0.499947 4.02539e-20)
(0.583861 -0.462836 -7.96441e-21)
(0.615083 -0.427873 2.29432e-20)
(0.643523 -0.396074 2.38667e-19)
(0.669628 -0.367343 -6.51024e-20)
(0.693671 -0.34135 -1.28026e-19)
(0.715868 -0.317767 -1.66949e-20)
(0.736402 -0.296307 -4.16554e-20)
(0.755436 -0.276723 2.22055e-20)
(0.773108 -0.258801 9.24524e-20)
(0.789542 -0.242358 6.51979e-20)
(0.804847 -0.227234 -7.77475e-20)
(0.819118 -0.213286 -3.92677e-22)
(0.832444 -0.200393 6.62089e-20)
(0.844892 -0.188448 -4.75258e-20)
(0.856508 -0.17737 4.89468e-20)
(0.867389 -0.167064 1.00333e-20)
(0.877765 -0.157366 1.50154e-20)
(0.8876 -0.148194 4.62552e-20)
(0.895667 -0.140094 4.05894e-20)
(0.127383 -0.215468 -3.18783e-20)
(0.292152 -0.454286 -8.51104e-20)
(0.406492 -0.554892 9.2774e-20)
(0.480744 -0.574704 -1.14978e-19)
(0.532363 -0.554022 -1.14415e-19)
(0.571784 -0.518377 -5.19428e-20)
(0.604883 -0.480193 5.23862e-20)
(0.63432 -0.444114 -6.70756e-20)
(0.661144 -0.41126 -1.53653e-19)
(0.685804 -0.38156 7.37821e-20)
(0.708556 -0.35468 -1.41887e-20)
(0.729596 -0.330283 8.27995e-20)
(0.749092 -0.308076 1.50588e-20)
(0.767189 -0.287802 9.82353e-20)
(0.784016 -0.269243 -1.01982e-19)
(0.799686 -0.252209 9.98155e-21)
(0.814296 -0.236535 1.49734e-20)
(0.827937 -0.222075 1.45543e-20)
(0.840689 -0.208703 -2.67646e-20)
(0.852614 -0.19631 4.21204e-20)
(0.863748 -0.184813 -3.57646e-20)
(0.874183 -0.174114 -8.40226e-21)
(0.884162 -0.164034 6.62021e-21)
(0.893667 -0.154476 2.90727e-20)
(0.901359 -0.14607 -3.57126e-20)
(0.137078 -0.219744 -5.34891e-21)
(0.312827 -0.465417 1.09795e-19)
(0.431808 -0.570373 -1.91299e-20)
(0.507053 -0.592165 9.58895e-20)
(0.557708 -0.571798 5.125e-20)
(0.595373 -0.535573 -3.63353e-20)
(0.626549 -0.496453 1.33333e-20)
(0.654156 -0.45937 1.62076e-20)
(0.679323 -0.425557 5.0963e-20)
(0.702498 -0.39497 -5.58834e-20)
(0.723923 -0.367277 1.33795e-19)
(0.743773 -0.342133 -6.65663e-20)
(0.7622 -0.319236 -1.03807e-19)
(0.779335 -0.298326 -1.59004e-21)
(0.795293 -0.279176 -2.30315e-20)
(0.810176 -0.261594 -3.61463e-20)
(0.824073 -0.245408 -1.35618e-20)
(0.837065 -0.230471 -3.24708e-20)
(0.849226 -0.216652 2.35603e-20)
(0.860611 -0.203839 -1.12243e-19)
(0.871251 -0.191947 -1.21798e-19)
(0.881226 -0.180879 -7.88474e-20)
(0.890796 -0.170437 -4.5977e-20)
(0.899962 -0.160509 -7.18798e-20)
(0.90728 -0.151807 2.75572e-20)
(0.146753 -0.223164 -5.89695e-21)
(0.333672 -0.474952 -5.83799e-20)
(0.457506 -0.584119 -1.05458e-19)
(0.533891 -0.608004 -2.05666e-20)
(0.583649 -0.588135 -6.98298e-20)
(0.619566 -0.551501 1.12591e-19)
(0.648794 -0.511587 -6.80754e-20)
(0.674536 -0.473616 2.3528e-20)
(0.698007 -0.438941 -1.72686e-19)
(0.719663 -0.407554 1.07473e-19)
(0.739729 -0.379123 -3.118e-20)
(0.758362 -0.353299 5.00105e-20)
(0.775694 -0.329773 1.3308e-19)
(0.791843 -0.308279 8.3046e-20)
(0.806911 -0.288587 3.37962e-20)
(0.820988 -0.270499 -1.06134e-20)
(0.834153 -0.253841 -1.13683e-20)
(0.84648 -0.238462 1.71338e-20)
(0.858035 -0.224228 3.13288e-20)
(0.868867 -0.211023 9.90083e-20)
(0.878999 -0.198764 7.68094e-20)
(0.888504 -0.187351 5.05316e-20)
(0.897652 -0.176571 2.7412e-20)
(0.906475 -0.166286 -6.02631e-20)
(0.913422 -0.157297 7.45597e-20)
(0.156347 -0.22572 -3.89896e-20)
(0.354576 -0.482865 -1.68971e-20)
(0.483467 -0.596093 3.41875e-20)
(0.561153 -0.622183 2.74411e-20)
(0.610096 -0.602998 4.45174e-20)
(0.644286 -0.566132 -4.08576e-20)
(0.671551 -0.52557 3.11251e-21)
(0.6954 -0.486829 -5.22193e-20)
(0.717144 -0.451393 1.06455e-19)
(0.737252 -0.419292 -1.12084e-19)
(0.755932 -0.390201 -1.62721e-20)
(0.773323 -0.363765 -2.85064e-21)
(0.789539 -0.339671 -7.9605e-20)
(0.804682 -0.317649 -5.1075e-20)
(0.818841 -0.297464 -1.48495e-20)
(0.832094 -0.278915 -2.68348e-20)
(0.844512 -0.261825 6.1481e-20)
(0.856159 -0.24604 -1.44065e-20)
(0.867095 -0.231423 7.42131e-20)
(0.877363 -0.217857 -1.11265e-19)
(0.886977 -0.205258 -1.15263e-21)
(0.896001 -0.193526 6.08526e-22)
(0.904719 -0.18243 2.15804e-20)
(0.913194 -0.171802 7.11051e-20)
(0.919777 -0.162532 3.79642e-20)
(0.165795 -0.227413 8.50933e-20)
(0.375423 -0.489141 1.76468e-20)
(0.50957 -0.606268 -4.55043e-21)
(0.588727 -0.634671 -2.48565e-20)
(0.636956 -0.616359 -1.78173e-20)
(0.669454 -0.579442 1.41997e-20)
(0.694754 -0.53838 1.29137e-20)
(0.716689 -0.498992 -7.49229e-20)
(0.736682 -0.462896 1.771e-20)
(0.755217 -0.430171 1.92189e-20)
(0.77249 -0.400497 -3.19039e-20)
(0.788618 -0.373519 -2.37601e-20)
(0.803699 -0.348919 2.67758e-20)
(0.817819 -0.326424 1.00231e-19)
(0.831053 -0.305797 -1.59768e-20)
(0.843469 -0.286831 3.63732e-21)
(0.855126 -0.26935 1.00492e-20)
(0.866081 -0.253196 -1.55052e-20)
(0.876387 -0.23823 -1.16873e-19)
(0.88608 -0.224333 2.37943e-20)
(0.895166 -0.211421 4.61531e-20)
(0.903702 -0.199396 4.58855e-21)
(0.911982 -0.188009 -5.01706e-20)
(0.92011 -0.177053 -4.10158e-20)
(0.926341 -0.167506 -1.24331e-20)
(0.175036 -0.228247 -3.37287e-20)
(0.396099 -0.493769 3.08553e-20)
(0.535689 -0.614621 7.41654e-22)
(0.616503 -0.645442 -1.81073e-20)
(0.664135 -0.628193 -4.21703e-20)
(0.694991 -0.591409 -2.36663e-20)
(0.718333 -0.550001 2.92698e-20)
(0.738342 -0.510088 -1.47791e-21)
(0.756566 -0.473437 -5.23784e-20)
(0.77351 -0.440177 6.26973e-20)
(0.789357 -0.41 -1.63693e-20)
(0.804206 -0.38255 5.47931e-20)
(0.818138 -0.357508 -7.92154e-20)
(0.831221 -0.334596 -4.66765e-20)
(0.843517 -0.313576 3.12302e-20)
(0.855084 -0.294241 4.56263e-21)
(0.86597 -0.276409 3.43082e-20)
(0.876223 -0.259923 -2.91508e-20)
(0.885889 -0.244642 -1.34262e-20)
(0.894999 -0.230445 -2.48187e-20)
(0.903551 -0.217248 8.72363e-20)
(0.911589 -0.204958 -6.70213e-20)
(0.919425 -0.193309 9.58621e-20)
(0.927214 -0.182042 -4.50598e-20)
(0.933113 -0.172215 -2.65347e-20)
(0.184008 -0.22823 1.98893e-20)
(0.416485 -0.496747 -5.2718e-20)
(0.561699 -0.621138 1.48687e-20)
(0.644364 -0.654477 7.54945e-20)
(0.691533 -0.638482 -3.12914e-20)
(0.720813 -0.602018 3.66495e-20)
(0.742217 -0.560418 3.41749e-20)
(0.760298 -0.520107 4.28705e-20)
(0.776741 -0.483006 -4.02912e-20)
(0.792081 -0.449302 -5.46717e-20)
(0.806489 -0.418701 4.6095e-20)
(0.820049 -0.390851 -3.98792e-20)
(0.832819 -0.36543 -4.15873e-21)
(0.844855 -0.342158 1.63337e-20)
(0.856205 -0.320797 -4.87403e-20)
(0.866913 -0.301136 7.36674e-20)
(0.877019 -0.282996 -4.21606e-20)
(0.886562 -0.266216 2.8971e-20)
(0.89558 -0.250655 1.28434e-20)
(0.904101 -0.236189 -1.05139e-19)
(0.912112 -0.222735 -1.07071e-19)
(0.919644 -0.210207 -2.00269e-20)
(0.927031 -0.198324 4.77732e-20)
(0.934496 -0.186767 2.81958e-20)
(0.940097 -0.176657 -1.19175e-20)
(0.192649 -0.227375 -2.30403e-20)
(0.436465 -0.498079 4.07164e-20)
(0.587472 -0.62581 -1.53631e-20)
(0.672194 -0.66176 -4.76242e-20)
(0.719051 -0.64721 4.47404e-20)
(0.746838 -0.611255 -3.62318e-20)
(0.766336 -0.569622 4.52526e-20)
(0.782494 -0.529041 -6.40455e-22)
(0.797152 -0.491596 2.91808e-20)
(0.81088 -0.457538 3.34852e-20)
(0.823843 -0.426595 -9.19682e-21)
(0.836104 -0.398416 6.28601e-20)
(0.847707 -0.372679 -4.49012e-20)
(0.858688 -0.349105 4.53933e-22)
(0.869085 -0.327453 1.09407e-20)
(0.878928 -0.307514 2.51001e-21)
(0.888248 -0.289106 -4.96094e-21)
(0.897073 -0.27207 -7.75458e-20)
(0.905438 -0.256263 1.15788e-19)
(0.913366 -0.24156 -4.79357e-20)
(0.920834 -0.22788 1.11843e-19)
(0.927854 -0.215144 3.70548e-21)
(0.934782 -0.203066 -5.35223e-21)
(0.941949 -0.191254 -3.21993e-20)
(0.947316 -0.180857 -2.39128e-20)
(0.2009 -0.225701 -1.63429e-21)
(0.455921 -0.497779 -1.34694e-20)
(0.612877 -0.628638 3.65167e-20)
(0.699873 -0.667285 7.7168e-21)
(0.746588 -0.654368 1.46544e-20)
(0.772981 -0.619115 1.35248e-20)
(0.790619 -0.577608 -1.22551e-19)
(0.804869 -0.536886 4.92836e-20)
(0.817744 -0.499203 9.87753e-21)
(0.829859 -0.464884 -2.95509e-20)
(0.841373 -0.433678 6.37078e-21)
(0.852333 -0.405241 -2.27245e-20)
(0.862764 -0.379252 1.42239e-20)
(0.872688 -0.355432 7.58856e-22)
(0.882126 -0.333541 2.72213e-20)
(0.891101 -0.31337 -8.81425e-21)
(0.89963 -0.294736 -1.92274e-20)
(0.907736 -0.277482 2.25484e-20)
(0.915442 -0.261464 -3.50278e-20)
(0.922774 -0.246556 3.89402e-20)
(0.929699 -0.232675 -2.24214e-20)
(0.936199 -0.219753 -3.05625e-20)
(0.942637 -0.207498 -2.3261e-21)
(0.949523 -0.195454 6.42784e-21)
(0.95479 -0.184789 4.18058e-20)
(0.208702 -0.223231 5.72262e-21)
(0.474735 -0.495866 -7.09093e-21)
(0.637783 -0.629627 -1.81149e-20)
(0.727279 -0.671049 -3.44502e-21)
(0.774041 -0.659952 -6.79375e-21)
(0.799157 -0.625592 5.97995e-21)
(0.814992 -0.584374 5.31421e-20)
(0.82736 -0.543641 1.08002e-20)
(0.838462 -0.505828 -1.33769e-20)
(0.848967 -0.471338 1.23076e-20)
(0.859034 -0.43995 -7.39493e-20)
(0.868694 -0.411326 8.11668e-21)
(0.877954 -0.385148 -3.65694e-20)
(0.88682 -0.36114 -6.15013e-20)
(0.8953 -0.33906 3.48288e-20)
(0.903404 -0.318702 -1.31679e-20)
(0.911142 -0.299885 -3.06206e-20)
(0.918525 -0.28245 1.02138e-20)
(0.92557 -0.266256 7.83953e-20)
(0.932301 -0.251176 4.03959e-22)
(0.938689 -0.237128 -2.95354e-20)
(0.944676 -0.224058 2.55933e-20)
(0.950595 -0.211701 -2.81795e-20)
(0.957189 -0.199582 2.37412e-20)
(0.962623 -0.18884 2.71223e-20)
(0.216001 -0.219991 -9.97131e-22)
(0.492791 -0.492368 2.36474e-22)
(0.662058 -0.628792 3.82875e-22)
(0.754291 -0.673057 1.13273e-20)
(0.801305 -0.663963 -1.30564e-20)
(0.825278 -0.630688 -7.07569e-22)
(0.839384 -0.589923 2.10443e-20)
(0.849904 -0.549308 -3.15894e-20)
(0.85925 -0.511472 1.75123e-20)
(0.868156 -0.476903 3.71512e-20)
(0.876783 -0.445412 1.04188e-19)
(0.885148 -0.416672 -4.01138e-20)
(0.89324 -0.390369 7.17982e-20)
(0.901051 -0.366228 4.01838e-21)
(0.908575 -0.344011 9.68145e-21)
(0.915811 -0.323512 -9.64162e-21)
(0.922758 -0.304551 2.45702e-20)
(0.929419 -0.286973 8.54551e-21)
(0.935802 -0.270636 -3.39814e-20)
(0.941931 -0.255415 3.65756e-20)
(0.947788 -0.241224 4.10493e-20)
(0.953289 -0.228002 -5.96342e-20)
(0.958638 -0.215478 3.96116e-20)
(0.964713 -0.203099 3.77471e-21)
(0.970636 -0.191962 9.33207e-21)
(0.222744 -0.216014 -8.9399e-21)
(0.509972 -0.487317 -5.6912e-21)
(0.685572 -0.626154 3.909e-21)
(0.780783 -0.67332 -4.37205e-21)
(0.828274 -0.666405 2.03582e-20)
(0.851257 -0.634409 3.90095e-20)
(0.863721 -0.594259 -1.92973e-20)
(0.872439 -0.553896 2.58462e-20)
(0.880055 -0.516142 -2.48095e-20)
(0.887376 -0.481585 2.30361e-20)
(0.894575 -0.45007 -5.84002e-20)
(0.901654 -0.421283 8.94553e-21)
(0.908587 -0.394917 -3.24978e-20)
(0.915349 -0.370699 -4.23998e-20)
(0.921923 -0.348395 4.8287e-20)
(0.928294 -0.327799 4.79564e-20)
(0.934454 -0.308736 -2.30746e-21)
(0.940395 -0.291051 -1.13491e-20)
(0.946118 -0.274606 8.62165e-21)
(0.951641 -0.259278 -4.79453e-20)
(0.956962 -0.244979 -5.92965e-20)
(0.962 -0.23165 6.55275e-20)
(0.966793 -0.219117 -8.294e-21)
(0.971987 -0.207317 -1.70228e-20)
(0.978369 -0.197562 2.39553e-20)
(0.228892 -0.21134 2.51245e-20)
(0.526161 -0.480752 1.58441e-20)
(0.708191 -0.621743 -1.45403e-20)
(0.806631 -0.671854 1.29031e-21)
(0.854842 -0.667291 -1.43832e-21)
(0.877008 -0.636763 -3.08004e-20)
(0.887931 -0.597394 -2.50491e-20)
(0.894904 -0.557412 -9.72782e-22)
(0.900821 -0.519849 1.57242e-20)
(0.90658 -0.485392 -4.48802e-20)
(0.912367 -0.453931 5.32449e-20)
(0.918174 -0.425166 -2.19103e-20)
(0.923958 -0.398798 -1.99171e-20)
(0.929682 -0.374558 5.5021e-20)
(0.935313 -0.352215 -3.46359e-21)
(0.940827 -0.331568 -6.40733e-20)
(0.946204 -0.312442 -6.54621e-21)
(0.95143 -0.294686 -9.31724e-21)
(0.956496 -0.278165 -4.15174e-20)
(0.96141 -0.262762 2.74733e-20)
(0.966182 -0.248385 4.99207e-20)
(0.970757 -0.234966 -4.19998e-20)
(0.97507 -0.222419 1.002e-19)
(0.979486 -0.210875 -4.5076e-20)
(0.985376 -0.200669 1.2498e-20)
(0.234423 -0.206011 -4.00972e-20)
(0.541235 -0.472706 -3.93545e-20)
(0.729786 -0.615603 4.38296e-22)
(0.831711 -0.668682 6.09414e-21)
(0.880901 -0.666636 3.93641e-22)
(0.902441 -0.637765 1.53945e-20)
(0.911942 -0.59934 1.51815e-20)
(0.917237 -0.559872 -2.60945e-20)
(0.921496 -0.522603 -5.26023e-22)
(0.92572 -0.488335 1.97264e-20)
(0.930116 -0.457004 -3.56373e-20)
(0.934668 -0.428329 8.44317e-21)
(0.93932 -0.402019 -6.79104e-20)
(0.944018 -0.377811 -1.47823e-20)
(0.948717 -0.355478 1.84878e-20)
(0.953383 -0.334823 2.35912e-20)
(0.957986 -0.315673 -2.3419e-21)
(0.962504 -0.29788 -1.4788e-20)
(0.966918 -0.281314 -2.85276e-20)
(0.971227 -0.265861 -4.48322e-21)
(0.975444 -0.251423 2.74388e-21)
(0.979559 -0.237914 1.46011e-20)
(0.983483 -0.225299 -4.69942e-20)
(0.987303 -0.213861 -5.97418e-21)
(0.9924 -0.203432 -4.02754e-20)
(0.239277 -0.200022 -7.96989e-21)
(0.555101 -0.46323 1.1887e-20)
(0.750229 -0.607793 1.77169e-20)
(0.855897 -0.663833 -1.65644e-20)
(0.906344 -0.664461 1.29914e-22)
(0.927467 -0.637433 -4.77265e-21)
(0.935682 -0.600114 5.31531e-21)
(0.939377 -0.56129 5.75909e-21)
(0.942026 -0.524421 -2.29941e-21)
(0.944749 -0.490428 1.44009e-20)
(0.94778 -0.459302 3.09909e-20)
(0.9511 -0.430784 1.75746e-20)
(0.954637 -0.40459 1.40608e-20)
(0.958326 -0.380467 3.93758e-20)
(0.962107 -0.358191 -1.21198e-20)
(0.965937 -0.33757 -6.49231e-22)
(0.969776 -0.318434 2.7319e-20)
(0.973595 -0.300638 -2.25327e-21)
(0.977367 -0.284056 -9.93596e-21)
(0.981081 -0.268576 -5.42099e-22)
(0.984754 -0.254096 -4.9382e-21)
(0.988422 -0.240512 -3.70039e-20)
(0.992016 -0.227833 4.05391e-20)
(0.995413 -0.216475 4.65037e-20)
(0.99971 -0.205935 1.01175e-20)
(0.243373 -0.193409 7.11424e-20)
(0.567658 -0.452413 5.71396e-20)
(0.769417 -0.598378 -3.4954e-20)
(0.879072 -0.657337 1.35959e-20)
(0.931061 -0.660791 -1.0495e-20)
(0.952 -0.635787 4.97988e-21)
(0.959078 -0.599738 2.60269e-21)
(0.961266 -0.561688 5.6615e-21)
(0.962362 -0.525321 7.74852e-21)
(0.963622 -0.491689 -2.39689e-20)
(0.965319 -0.46084 -1.22799e-20)
(0.967432 -0.432542 -1.24839e-20)
(0.969877 -0.406523 1.82295e-20)
(0.972575 -0.382536 -4.50067e-20)
(0.975456 -0.360363 4.64157e-20)
(0.978464 -0.339816 8.85333e-21)
(0.981552 -0.320732 -1.04111e-20)
(0.984683 -0.302966 2.05953e-20)
(0.987826 -0.286396 6.81403e-20)
(0.990961 -0.270914 -2.06797e-20)
(0.994112 -0.256417 -1.05923e-20)
(0.997347 -0.242788 2.28462e-20)
(1.00062 -0.230069 -1.77969e-20)
(1.00367 -0.21876 -2.77455e-21)
(1.00729 -0.208096 1.45848e-20)
(0.246683 -0.186243 -1.18871e-19)
(0.578813 -0.440366 -1.85695e-20)
(0.787204 -0.587408 -7.61729e-21)