/*--------------------------------*- C++ -*----------------------------------*\
  =========                 |
  \\      /  F ield         | OpenFOAM: The Open Source CFD Toolbox
   \\    /   O peration     | Website:  https://openfoam.org
    \\  /    A nd           | Version:  7
     \\/     M anipulation  |
\*---------------------------------------------------------------------------*/
FoamFile
{
    version     2.0;
    format      ascii;
    class       volScalarField;
    location    "110.001";
    object      p;
}
// * * * * * * * * * * * * * * * * * * * * * * * * * * * * * * * * * * * * * //

dimensions      [0 2 -2 0 0 0 0];

internalField   nonuniform List<scalar> 
14800
(
-0.382839
-0.387247
-0.388844
-0.391176
-0.393947
-0.397078
-0.400273
-0.403079
-0.404951
-0.405293
-0.403588
-0.399641
-0.39388
-0.38741
-0.381328
-0.391533
-0.396015
-0.398109
-0.401293
-0.405258
-0.409896
-0.414869
-0.419598
-0.423331
-0.42513
-0.424001
-0.419178
-0.410476
-0.39873
-0.384308
-0.400636
-0.405067
-0.407637
-0.411659
-0.416818
-0.422989
-0.429747
-0.436437
-0.442082
-0.445392
-0.444875
-0.439163
-0.427386
-0.41021
-0.386788
-0.410035
-0.414282
-0.417287
-0.422104
-0.428413
-0.436059
-0.444572
-0.45318
-0.46069
-0.465456
-0.46548
-0.458802
-0.443792
-0.421216
-0.388421
-0.419598
-0.423526
-0.426903
-0.432438
-0.439811
-0.448831
-0.458987
-0.46937
-0.478585
-0.48463
-0.484995
-0.47719
-0.458738
-0.430974
-0.388499
-0.429175
-0.432655
-0.43632
-0.442461
-0.450768
-0.461005
-0.472603
-0.48454
-0.495193
-0.502222
-0.502609
-0.493444
-0.471271
-0.43888
-0.38564
-0.438614
-0.441526
-0.445374
-0.451978
-0.461047
-0.472292
-0.485078
-0.498262
-0.509986
-0.517615
-0.517611
-0.506852
-0.480611
-0.444556
-0.378493
-0.447764
-0.450007
-0.453914
-0.46081
-0.47043
-0.48243
-0.496097
-0.510166
-0.522538
-0.530327
-0.529496
-0.516833
-0.486728
-0.445856
-0.375947
-0.456491
-0.457985
-0.461815
-0.468809
-0.478741
-0.491209
-0.505412
-0.51998
-0.532572
-0.540035
-0.537957
-0.523099
-0.489243
-0.444414
-0.37072
-0.46468
-0.46537
-0.468984
-0.475864
-0.485856
-0.498494
-0.512896
-0.527536
-0.539911
-0.546595
-0.542878
-0.525586
-0.488263
-0.440166
-0.364084
-0.47225
-0.47211
-0.47536
-0.481916
-0.491706
-0.504215
-0.518466
-0.532797
-0.544531
-0.550013
-0.544304
-0.524424
-0.484056
-0.433371
-0.356692
-0.479152
-0.478184
-0.480927
-0.486951
-0.496287
-0.50838
-0.522163
-0.535836
-0.546543
-0.55042
-0.542423
-0.519853
-0.476997
-0.424455
-0.348876
-0.485376
-0.483607
-0.485714
-0.491014
-0.499662
-0.511083
-0.524116
-0.536822
-0.546147
-0.548045
-0.537515
-0.512233
-0.467516
-0.413953
-0.340802
-0.490949
-0.488426
-0.489789
-0.494197
-0.501956
-0.512485
-0.524529
-0.535988
-0.543603
-0.543176
-0.529931
-0.502022
-0.456094
-0.402432
-0.332607
-0.495937
-0.49272
-0.493251
-0.496634
-0.50334
-0.512791
-0.523649
-0.533607
-0.539198
-0.536131
-0.520065
-0.489734
-0.443256
-0.390404
-0.32443
-0.50044
-0.496591
-0.496232
-0.498493
-0.504026
-0.512266
-0.521755
-0.529963
-0.533219
-0.52724
-0.508348
-0.475903
-0.429536
-0.378259
-0.316359
-0.504587
-0.500162
-0.49888
-0.499964
-0.504245
-0.511167
-0.51912
-0.525318
-0.525934
-0.516842
-0.495234
-0.461057
-0.415417
-0.366173
-0.308312
-0.508531
-0.50357
-0.50136
-0.501252
-0.504241
-0.509753
-0.515988
-0.519898
-0.517589
-0.505293
-0.481193
-0.445723
-0.401292
-0.354045
-0.300001
-0.512441
-0.506961
-0.50384
-0.502556
-0.50424
-0.508247
-0.512552
-0.513879
-0.508413
-0.492959
-0.466691
-0.430433
-0.38749
-0.341657
-0.291279
-0.51649
-0.51048
-0.506484
-0.504063
-0.504428
-0.50681
-0.508942
-0.5074
-0.498628
-0.4802
-0.452163
-0.415674
-0.374321
-0.329316
-0.282836
-0.520848
-0.514266
-0.509442
-0.505926
-0.504942
-0.505541
-0.505232
-0.500565
-0.488451
-0.467339
-0.437966
-0.401755
-0.36204
-0.318527
-0.275836
-0.525668
-0.518444
-0.512837
-0.508256
-0.505856
-0.504477
-0.501448
-0.493461
-0.478089
-0.454649
-0.424354
-0.388755
-0.350655
-0.309889
-0.270967
-0.53108
-0.523116
-0.516763
-0.511114
-0.507183
-0.503602
-0.497582
-0.486166
-0.467722
-0.442329
-0.411468
-0.376656
-0.340271
-0.302135
-0.266139
-0.537183
-0.528362
-0.521278
-0.514509
-0.508896
-0.502861
-0.493605
-0.478748
-0.457494
-0.430507
-0.399346
-0.365414
-0.330644
-0.294888
-0.261577
-0.544041
-0.534233
-0.526405
-0.518415
-0.510933
-0.502167
-0.489483
-0.47127
-0.447503
-0.419234
-0.387964
-0.354913
-0.321625
-0.287935
-0.256743
-0.551689
-0.540757
-0.532135
-0.52278
-0.513208
-0.501414
-0.485183
-0.463777
-0.437801
-0.408508
-0.377246
-0.345032
-0.31305
-0.281114
-0.251718
-0.560131
-0.547943
-0.538434
-0.527542
-0.515603
-0.50049
-0.480681
-0.456294
-0.428396
-0.398283
-0.367095
-0.335643
-0.304792
-0.27436
-0.246434
-0.569347
-0.555776
-0.545251
-0.532627
-0.517978
-0.499295
-0.475953
-0.448826
-0.419262
-0.388483
-0.3574
-0.326623
-0.296746
-0.267599
-0.240915
-0.579292
-0.564221
-0.552527
-0.537932
-0.520178
-0.497738
-0.470971
-0.441354
-0.410346
-0.379018
-0.348046
-0.317859
-0.28882
-0.260788
-0.235152
-0.589899
-0.573216
-0.560191
-0.543314
-0.522046
-0.495737
-0.465706
-0.433839
-0.401577
-0.369787
-0.338923
-0.309247
-0.280935
-0.253879
-0.229142
-0.601077
-0.582674
-0.568153
-0.548593
-0.523433
-0.493219
-0.460114
-0.426228
-0.392873
-0.360688
-0.329924
-0.300694
-0.273022
-0.246831
-0.222875
-0.612702
-0.592478
-0.576284
-0.553556
-0.524194
-0.490115
-0.454147
-0.418454
-0.384144
-0.35162
-0.320951
-0.292116
-0.265018
-0.239606
-0.216336
-0.624613
-0.602487
-0.584402
-0.557982
-0.524193
-0.486351
-0.447744
-0.410441
-0.375298
-0.342487
-0.311912
-0.283436
-0.256866
-0.232165
-0.20951
-0.636607
-0.612529
-0.592268
-0.561645
-0.523301
-0.481854
-0.440837
-0.402109
-0.366244
-0.333196
-0.302724
-0.274585
-0.248515
-0.224473
-0.202379
-0.648441
-0.622406
-0.599588
-0.564327
-0.521397
-0.476547
-0.433352
-0.393373
-0.356893
-0.323661
-0.293311
-0.265502
-0.239917
-0.216495
-0.194926
-0.659831
-0.631882
-0.60604
-0.565812
-0.518362
-0.470348
-0.42521
-0.38415
-0.34716
-0.313804
-0.283603
-0.256131
-0.231029
-0.2082
-0.187135
-0.670461
-0.640685
-0.611291
-0.565898
-0.514085
-0.463177
-0.416332
-0.374358
-0.336965
-0.303553
-0.273539
-0.246425
-0.221816
-0.199561
-0.178993
-0.679995
-0.648504
-0.615019
-0.564394
-0.508458
-0.454951
-0.406639
-0.363919
-0.326236
-0.292841
-0.263065
-0.236342
-0.212245
-0.19056
-0.170507
-0.688089
-0.654995
-0.616928
-0.561127
-0.50138
-0.445591
-0.396055
-0.352758
-0.314904
-0.281612
-0.252132
-0.225842
-0.202285
-0.181187
-0.161698
-0.694393
-0.659794
-0.616757
-0.555944
-0.492759
-0.435021
-0.384508
-0.340811
-0.302912
-0.269817
-0.240701
-0.21489
-0.191906
-0.171429
-0.152583
-0.698571
-0.662531
-0.614283
-0.548722
-0.482511
-0.423173
-0.371935
-0.32802
-0.29021
-0.257413
-0.228737
-0.203459
-0.181082
-0.161259
-0.143109
-0.700303
-0.662852
-0.609316
-0.539358
-0.470566
-0.409985
-0.358281
-0.314335
-0.276757
-0.244365
-0.21621
-0.191526
-0.169807
-0.150664
-0.133145
-0.699295
-0.660448
-0.601683
-0.527771
-0.456867
-0.395408
-0.343503
-0.299721
-0.262515
-0.230643
-0.203098
-0.179078
-0.158091
-0.13969
-0.122552
-0.695283
-0.655048
-0.591246
-0.513902
-0.44137
-0.379404
-0.327565
-0.284143
-0.247456
-0.216225
-0.189384
-0.166109
-0.145943
-0.128373
-0.111405
-0.688039
-0.646433
-0.577902
-0.497709
-0.424046
-0.361942
-0.310434
-0.267569
-0.23157
-0.201109
-0.175077
-0.152635
-0.133354
-0.116372
-0.100206
-0.677374
-0.634434
-0.561588
-0.479177
-0.404884
-0.343003
-0.29208
-0.249971
-0.214879
-0.185318
-0.1602
-0.138675
-0.120281
-0.10393
-0.0887345
-0.66314
-0.618937
-0.54228
-0.458307
-0.383879
-0.322574
-0.272507
-0.231372
-0.197427
-0.168861
-0.144735
-0.124217
-0.106745
-0.0911225
-0.0769362
-0.645232
-0.599882
-0.519985
-0.435119
-0.361037
-0.300676
-0.251777
-0.211915
-0.17911
-0.151723
-0.128706
-0.109275
-0.0927793
-0.0779725
-0.064815
-0.623588
-0.577261
-0.494747
-0.409656
-0.336383
-0.277391
-0.229957
-0.191492
-0.16001
-0.133929
-0.112138
-0.0938719
-0.0784152
-0.0644913
-0.052398
-0.598195
-0.551112
-0.466653
-0.381988
-0.31
-0.252792
-0.207007
-0.170147
-0.14017
-0.115519
-0.0950617
-0.0780417
-0.0636851
-0.0506995
-0.0397153
-0.569082
-0.52152
-0.435823
-0.352219
-0.282039
-0.226832
-0.182989
-0.147936
-0.119634
-0.0965354
-0.0775164
-0.0618216
-0.0486243
-0.0366286
-0.0268028
-0.536332
-0.48864
-0.402352
-0.320444
-0.252533
-0.199621
-0.157971
-0.124923
-0.0984526
-0.0770292
-0.0595469
-0.0452537
-0.0332728
-0.0223217
-0.0137076
-0.500085
-0.452735
-0.366224
-0.286782
-0.221576
-0.171261
-0.132035
-0.101179
-0.0766873
-0.0570556
-0.0412042
-0.0283842
-0.017675
-0.00782913
-0.000485118
-0.460532
-0.414114
-0.327459
-0.251347
-0.189297
-0.141866
-0.105276
-0.0767837
-0.054407
-0.0366766
-0.0225447
-0.011264
-0.00187706
0.00680018
0.0128239
-0.417873
-0.372757
-0.28661
-0.214256
-0.155834
-0.11156
-0.0777978
-0.0518247
-0.031688
-0.0159608
-0.00363151
0.00605223
0.0140763
0.0215272
0.0261988
-0.372315
-0.328153
-0.244633
-0.175847
-0.121336
-0.0804713
-0.0497126
-0.0263975
-0.00861313
0.00501728
0.015468
0.0235077
0.0301397
0.0362994
0.0395471
-0.324128
-0.281139
-0.201295
-0.136369
-0.0859796
-0.0487362
-0.0211395
-0.000604305
0.0147293
0.02618
0.0346886
0.0410527
0.0462545
0.0509682
0.0525438
-0.273508
-0.232313
-0.15667
-0.0960237
-0.0499497
-0.0165027
0.00779552
0.0254466
0.0382458
0.047449
0.0539747
0.0586526
0.0623394
0.065244
0.0646931
-0.220883
-0.182046
-0.11098
-0.0550078
-0.0134342
0.0160731
0.03696
0.0516413
0.0618383
0.0687456
0.073276
0.0762726
0.0783059
0.0789162
0.0759201
-0.166674
-0.130645
-0.0645082
-0.0135359
0.0233749
0.0488281
0.0662158
0.0778607
0.0854051
0.0899882
0.0925275
0.0938302
0.0940548
0.0922097
0.0874733
-0.111287
-0.0784466
-0.0175531
0.0281618
0.0602806
0.0815942
0.0954197
0.103982
0.108843
0.111091
0.111637
0.111177
0.109442
0.105389
0.102444
-0.0551412
-0.0258083
0.0295778
0.0698447
0.0970807
0.114199
0.124425
0.129881
0.132046
0.131963
0.130503
0.128187
0.124507
0.119031
0.116952
0.0013373
0.0269044
0.0765746
0.111266
0.133569
0.146469
0.153084
0.155431
0.154909
0.152509
0.149035
0.144851
0.139419
0.132884
0.130495
0.057717
0.0793215
0.123128
0.152175
0.169537
0.178227
0.181246
0.180504
0.17732
0.172626
0.167143
0.161122
0.154103
0.146607
0.143393
0.11357
0.131069
0.168931
0.192322
0.204778
0.209297
0.208762
0.204974
0.199171
0.192219
0.184755
0.176957
0.168458
0.159961
0.155688
0.168479
0.18177
0.213678
0.231459
0.239083
0.239505
0.235485
0.228715
0.220352
0.211191
0.201795
0.192289
0.182388
0.172861
0.167432
0.222027
0.231057
0.257073
0.269344
0.27225
0.268679
0.261269
0.251601
0.240754
0.229452
0.218186
0.207045
0.195799
0.185232
0.178615
0.273806
0.278578
0.298827
0.30574
0.304081
0.296654
0.285972
0.273514
0.260276
0.246913
0.233852
0.221152
0.208623
0.197026
0.189213
0.323422
0.323994
0.338661
0.34042
0.334386
0.323268
0.309459
0.294335
0.278816
0.263489
0.24872
0.234542
0.220794
0.208194
0.199199
0.370498
0.366985
0.376311
0.373165
0.362982
0.348368
0.331599
0.313955
0.29628
0.279097
0.262717
0.24715
0.232256
0.218692
0.208541
0.414676
0.407248
0.41153
0.403771
0.389699
0.37181
0.352269
0.332267
0.312577
0.29366
0.275777
0.258916
0.242955
0.228477
0.217211
0.455624
0.444502
0.444084
0.432047
0.414375
0.393456
0.371355
0.349176
0.327625
0.307107
0.287836
0.269786
0.252844
0.237509
0.225183
0.493034
0.478488
0.473762
0.457816
0.436862
0.413184
0.388751
0.36459
0.341345
0.319372
0.298839
0.279708
0.261878
0.245754
0.232432
0.526629
0.508974
0.50037
0.48092
0.457028
0.43088
0.404362
0.378427
0.353669
0.330393
0.308733
0.288638
0.270015
0.253177
0.238939
0.55616
0.53575
0.523739
0.501216
0.474752
0.446444
0.418101
0.390616
0.364534
0.340118
0.317471
0.296535
0.277221
0.259749
0.244688
0.581413
0.558638
0.543719
0.518582
0.489933
0.459789
0.429896
0.401094
0.373886
0.348502
0.325015
0.303364
0.283463
0.265446
0.249665
0.602208
0.577487
0.560187
0.532915
0.502483
0.470842
0.439684
0.409807
0.381681
0.355504
0.33133
0.309095
0.288714
0.270246
0.25386
0.618401
0.592177
0.573043
0.544133
0.512333
0.479543
0.447415
0.416713
0.387881
0.361095
0.336391
0.313704
0.292952
0.274133
0.257267
0.629883
0.602617
0.582214
0.552173
0.519431
0.485851
0.453054
0.421782
0.39246
0.36525
0.340177
0.317174
0.296163
0.277094
0.259881
0.636585
0.608749
0.58765
0.556996
0.523744
0.489735
0.456574
0.424991
0.3954
0.367955
0.342674
0.319492
0.298333
0.27912
0.261698
0.638474
0.610547
0.589331
0.558584
0.525256
0.491183
0.457966
0.426332
0.396693
0.369202
0.343877
0.320653
0.299457
0.280205
0.262717
0.635556
0.608017
0.587261
0.55694
0.523971
0.490198
0.457232
0.425805
0.39634
0.368992
0.343786
0.320657
0.299536
0.280353
0.262941
0.627876
0.601195
0.581471
0.552091
0.519909
0.486798
0.454385
0.423425
0.394352
0.367336
0.342409
0.319511
0.298576
0.279567
0.262373
0.615517
0.590152
0.572017
0.544083
0.513111
0.481015
0.449456
0.419215
0.390749
0.364249
0.33976
0.317227
0.296588
0.277856
0.261015
0.598598
0.574989
0.558984
0.532986
0.503635
0.472899
0.442485
0.413209
0.385561
0.359757
0.335862
0.313826
0.293589
0.275233
0.258874
0.577276
0.555835
0.54248
0.518889
0.491556
0.462514
0.433524
0.405454
0.378826
0.353892
0.330743
0.309331
0.2896
0.271714
0.255957
0.551743
0.532854
0.522636
0.501902
0.476965
0.449936
0.422641
0.396004
0.370593
0.346697
0.324436
0.303772
0.28465
0.26732
0.252273
0.522224
0.506235
0.49961
0.482155
0.459972
0.435257
0.409912
0.384925
0.360916
0.338216
0.316983
0.297186
0.27877
0.262078
0.247836
0.488978
0.476194
0.473579
0.459796
0.440701
0.418582
0.395426
0.372293
0.349859
0.328507
0.30843
0.289614
0.271997
0.256015
0.242661
0.452291
0.442976
0.444745
0.43499
0.41929
0.400027
0.379281
0.358191
0.337495
0.317629
0.298831
0.281102
0.264371
0.249164
0.236769
0.412482
0.406847
0.413327
0.407919
0.395891
0.37972
0.361586
0.342712
0.323902
0.30565
0.288243
0.271699
0.255937
0.241561
0.23018
0.36989
0.368097
0.379563
0.378778
0.370669
0.3578
0.342457
0.325954
0.309164
0.292642
0.276728
0.261461
0.246743
0.233246
0.22292
0.324882
0.327036
0.343707
0.347779
0.343798
0.334414
0.32202
0.308024
0.293372
0.278684
0.264355
0.250448
0.236842
0.224262
0.215018
0.277839
0.283991
0.30603
0.315141
0.315465
0.309719
0.300407
0.289034
0.276623
0.263857
0.251194
0.238724
0.22629
0.214651
0.206503
0.229163
0.239306
0.266813
0.281097
0.285862
0.283876
0.277755
0.269102
0.259016
0.248248
0.23732
0.226357
0.215151
0.204464
0.197406
0.179265
0.193336
0.226348
0.245885
0.25519
0.257054
0.254205
0.248348
0.240655
0.231943
0.222808
0.213417
0.203495
0.193749
0.187751
0.128568
0.146449
0.184937
0.209751
0.223651
0.229424
0.229905
0.226897
0.221647
0.215036
0.207734
0.199978
0.191408
0.182582
0.17756
0.0774941
0.0990211
0.142887
0.172943
0.191454
0.201163
0.205001
0.204873
0.202101
0.197619
0.192174
0.186106
0.178982
0.171042
0.166797
0.0264651
0.051433
0.100506
0.135712
0.158808
0.172444
0.179643
0.182405
0.182125
0.179787
0.176202
0.171849
0.166314
0.159347
0.155459
-0.0240955
0.00405819
0.058105
0.0983075
0.12592
0.143444
0.15398
0.159618
0.161828
0.16164
0.159904
0.157251
0.153469
0.147791
0.143321
-0.0737681
-0.0427383
0.0159903
0.0609739
0.0929951
0.114337
0.128157
0.136636
0.141316
0.143272
0.143365
0.142334
0.140333
0.13663
0.130813
-0.122147
-0.088602
-0.0255368
0.0239491
0.0602344
0.0852925
0.102322
0.113584
0.120691
0.12477
0.126682
0.127205
0.126858
0.125313
0.120926
-0.168838
-0.133202
-0.0661891
-0.0125408
0.0278338
0.0564769
0.0766127
0.0905801
0.100055
0.106218
0.109938
0.111987
0.113139
0.113613
0.111207
-0.213378
-0.176235
-0.105713
-0.0482831
-0.00401586
0.0280502
0.0511666
0.067742
0.079507
0.0876957
0.0931964
0.0967563
0.0992614
0.101332
0.100733
-0.255513
-0.217187
-0.143937
-0.0830717
-0.035128
0.000165107
0.0261131
0.0451808
0.0591415
0.0692792
0.07651
0.0815549
0.0853217
0.0886637
0.0895243
-0.294978
-0.255482
-0.180856
-0.11668
-0.0653232
-0.027035
0.0015752
0.0230018
0.0390497
0.0510452
0.0599349
0.0664242
0.0714066
0.0758718
0.077967
-0.331528
-0.290904
-0.216166
-0.14883
-0.0944385
-0.0534158
-0.0223308
0.00130444
0.0193176
0.033069
0.0435345
0.0514136
0.0575742
0.0630933
0.0663444
-0.364963
-0.323674
-0.24916
-0.179304
-0.122331
-0.0788503
-0.0454963
-0.0198192
2.53387e-05
0.0154225
0.0273731
0.0365762
0.0438667
0.050378
0.0547479
-0.395098
-0.353609
-0.279565
-0.208012
-0.148868
-0.10322
-0.067822
-0.0402845
-0.0187533
-0.00182819
0.0115107
0.0219639
0.0303254
0.0377619
0.0432007
-0.421778
-0.380443
-0.307407
-0.2348
-0.173932
-0.126416
-0.0892194
-0.0600155
-0.0369514
-0.0186234
-0.00399852
0.0076251
0.0169939
0.0252893
0.0317393
-0.444907
-0.403995
-0.332619
-0.25956
-0.197454
-0.148334
-0.109611
-0.0789437
-0.0545096
-0.0349099
-0.0191057
-0.00639571
0.0039138
0.0130053
0.0204117
-0.464441
-0.424163
-0.355085
-0.282197
-0.219334
-0.168948
-0.128931
-0.0970099
-0.071375
-0.0506413
-0.0337673
-0.0200584
-0.00887655
0.000947969
0.00925859
-0.480389
-0.440903
-0.374714
-0.302631
-0.239466
-0.188229
-0.147157
-0.114163
-0.0875018
-0.0657772
-0.047944
-0.0333287
-0.0213416
-0.0108557
-0.00169079
-0.492804
-0.454219
-0.391452
-0.32081
-0.257805
-0.206086
-0.164267
-0.130416
-0.102845
-0.0802836
-0.0616029
-0.0461793
-0.0334454
-0.0223879
-0.0124174
-0.501786
-0.464169
-0.40529
-0.336706
-0.274333
-0.222481
-0.180196
-0.14572
-0.117445
-0.0941272
-0.0747251
-0.0585861
-0.0451528
-0.0336272
-0.0229211
-0.507479
-0.470868
-0.416253
-0.350312
-0.289047
-0.237412
-0.194924
-0.160036
-0.131238
-0.107326
-0.0873331
-0.0705263
-0.0564496
-0.0445201
-0.0332382
-0.510072
-0.474487
-0.424408
-0.361644
-0.301953
-0.250889
-0.208456
-0.173357
-0.144202
-0.119845
-0.0993663
-0.082024
-0.0673925
-0.0549464
-0.0434484
-0.509793
-0.47525
-0.42986
-0.370741
-0.313074
-0.262931
-0.220811
-0.185698
-0.156343
-0.131671
-0.11081
-0.093048
-0.0779367
-0.0650265
-0.053391
-0.506906
-0.473431
-0.432759
-0.377663
-0.322447
-0.273567
-0.232011
-0.197076
-0.167674
-0.142813
-0.121672
-0.10358
-0.088072
-0.0747634
-0.0628354
-0.501707
-0.469357
-0.433274
-0.382494
-0.330127
-0.282836
-0.242088
-0.207515
-0.178214
-0.153284
-0.131965
-0.113621
-0.0977929
-0.0841288
-0.0718171
-0.494518
-0.463389
-0.431608
-0.385345
-0.336183
-0.290788
-0.25108
-0.217046
-0.187985
-0.163103
-0.141701
-0.123183
-0.107102
-0.0931356
-0.0804668
-0.48568
-0.455901
-0.428005
-0.386355
-0.3407
-0.297485
-0.259034
-0.225703
-0.197014
-0.172288
-0.150896
-0.132283
-0.116015
-0.101814
-0.088885
-0.47554
-0.447261
-0.422747
-0.385694
-0.343773
-0.302992
-0.266003
-0.233531
-0.205334
-0.180867
-0.159571
-0.140939
-0.124552
-0.110184
-0.0970999
-0.464445
-0.43781
-0.416152
-0.383553
-0.345512
-0.30738
-0.272043
-0.240574
-0.212983
-0.188868
-0.16775
-0.149173
-0.132733
-0.118251
-0.105092
-0.452732
-0.427858
-0.408564
-0.380147
-0.346035
-0.310725
-0.27721
-0.246879
-0.22
-0.196323
-0.175459
-0.157007
-0.140578
-0.126022
-0.112846
-0.440711
-0.417673
-0.400332
-0.375705
-0.345467
-0.313103
-0.28156
-0.252494
-0.226423
-0.203266
-0.182727
-0.164464
-0.148107
-0.133513
-0.120365
-0.428659
-0.407485
-0.39179
-0.370467
-0.343947
-0.314591
-0.285147
-0.25746
-0.232291
-0.209731
-0.189583
-0.17157
-0.155346
-0.14075
-0.12767
-0.41681
-0.39749
-0.383229
-0.36468
-0.341619
-0.315268
-0.288017
-0.261816
-0.237637
-0.215747
-0.196056
-0.178351
-0.16232
-0.147762
-0.134785
-0.405349
-0.387847
-0.374879
-0.358593
-0.338637
-0.315209
-0.290212
-0.26559
-0.242489
-0.221345
-0.202176
-0.184835
-0.169058
-0.15458
-0.14174
-0.394412
-0.378687
-0.366903
-0.352441
-0.335161
-0.314492
-0.291764
-0.268802
-0.246866
-0.226545
-0.207967
-0.19105
-0.175592
-0.161237
-0.148565
-0.384092
-0.370103
-0.359404
-0.346431
-0.331353
-0.313197
-0.2927
-0.27146
-0.250775
-0.231361
-0.213453
-0.197023
-0.181951
-0.16777
-0.155294
-0.374444
-0.362154
-0.352436
-0.340713
-0.327374
-0.31141
-0.293043
-0.273557
-0.25421
-0.235796
-0.218648
-0.20278
-0.188168
-0.174219
-0.161969
-0.365492
-0.354859
-0.346027
-0.335375
-0.323368
-0.30922
-0.292815
-0.27508
-0.257148
-0.239836
-0.223555
-0.208342
-0.194277
-0.180627
-0.168638
-0.35724
-0.348211
-0.340178
-0.330446
-0.319451
-0.306727
-0.292047
-0.276008
-0.259553
-0.243454
-0.228167
-0.213722
-0.200311
-0.187049
-0.175354
-0.349681
-0.342184
-0.334873
-0.325916
-0.315696
-0.304027
-0.290782
-0.276324
-0.261378
-0.246601
-0.232457
-0.218925
-0.206306
-0.193539
-0.182197
-0.342807
-0.336742
-0.330084
-0.32176
-0.312131
-0.301212
-0.289084
-0.276029
-0.262575
-0.249216
-0.23638
-0.223938
-0.21229
-0.200181
-0.189242
-0.336612
-0.331861
-0.32578
-0.317961
-0.308764
-0.298357
-0.287039
-0.275149
-0.263109
-0.251228
-0.239867
-0.228729
-0.218285
-0.207037
-0.196683
-0.331098
-0.327536
-0.321945
-0.314513
-0.305605
-0.295526
-0.284749
-0.273757
-0.262975
-0.252572
-0.242835
-0.233227
-0.224296
-0.21423
-0.204653
-0.326293
-0.323773
-0.318578
-0.311436
-0.302694
-0.29279
-0.282335
-0.27197
-0.262223
-0.253214
-0.245187
-0.237345
-0.230264
-0.221801
-0.213722
-0.322242
-0.320585
-0.315704
-0.308778
-0.300105
-0.290253
-0.279941
-0.269952
-0.260968
-0.25318
-0.246849
-0.240937
-0.236127
-0.229758
-0.22393
-0.318963
-0.317986
-0.313394
-0.306604
-0.297945
-0.288055
-0.277746
-0.267915
-0.259404
-0.252584
-0.247787
-0.24392
-0.241499
-0.238309
-0.235433
-0.316478
-0.316028
-0.311682
-0.305
-0.296338
-0.286366
-0.275962
-0.266115
-0.257794
-0.251641
-0.248046
-0.246261
-0.246195
-0.246815
-0.245922
-0.314795
-0.314732
-0.310587
-0.304055
-0.295397
-0.285355
-0.274818
-0.264834
-0.256467
-0.25066
-0.247818
-0.247959
-0.249991
-0.25412
-0.255592
-0.313899
-0.314101
-0.310157
-0.3038
-0.295214
-0.285162
-0.274516
-0.26435
-0.255776
-0.250019
-0.247451
-0.249151
-0.252845
-0.260147
-0.26471
-0.313753
-0.314124
-0.310389
-0.304255
-0.295826
-0.285868
-0.275199
-0.264885
-0.256041
-0.250115
-0.247412
-0.250203
-0.254928
-0.26534
-0.27322
-0.314305
-0.314778
-0.311261
-0.305388
-0.297241
-0.287487
-0.276922
-0.26656
-0.257485
-0.251295
-0.248185
-0.251646
-0.256606
-0.270201
-0.28081
-0.315489
-0.316026
-0.312741
-0.30718
-0.299398
-0.289976
-0.279659
-0.26939
-0.260199
-0.253763
-0.250164
-0.25396
-0.258488
-0.275142
-0.287297
-0.317239
-0.317835
-0.31479
-0.309583
-0.302235
-0.29326
-0.283328
-0.273299
-0.264147
-0.257557
-0.253563
-0.257414
-0.261326
-0.280351
-0.292986
-0.319495
-0.320169
-0.317371
-0.31255
-0.305695
-0.297256
-0.287824
-0.278166
-0.269206
-0.262578
-0.258402
-0.262063
-0.265668
-0.285888
-0.298747
-0.322209
-0.323003
-0.32046
-0.316047
-0.309731
-0.301894
-0.293051
-0.28387
-0.27523
-0.268671
-0.264524
-0.267842
-0.271616
-0.29192
-0.305488
-0.325349
-0.326322
-0.32404
-0.320055
-0.314309
-0.307135
-0.298943
-0.290321
-0.2821
-0.275701
-0.271742
-0.274639
-0.278927
-0.298701
-0.313467
-0.328902
-0.330119
-0.328111
-0.324575
-0.31943
-0.312956
-0.305475
-0.297481
-0.289751
-0.283594
-0.279899
-0.282349
-0.287267
-0.306287
-0.322384
-0.332872
-0.334399
-0.332681
-0.329618
-0.325108
-0.319375
-0.312659
-0.305369
-0.298192
-0.292345
-0.28892
-0.290909
-0.296358
-0.314451
-0.331616
-0.337278
-0.339173
-0.337766
-0.335209
-0.331374
-0.326432
-0.320545
-0.314031
-0.307507
-0.30202
-0.298816
-0.300323
-0.306009
-0.32287
-0.340678
-0.34215
-0.344454
-0.343388
-0.341375
-0.338266
-0.334182
-0.32921
-0.323571
-0.317777
-0.312736
-0.309692
-0.310685
-0.316109
-0.331325
-0.349162
-0.347525
-0.350264
-0.349567
-0.348146
-0.345825
-0.342683
-0.338732
-0.334093
-0.329145
-0.324632
-0.321708
-0.322153
-0.326647
-0.339811
-0.356763
-0.35344
-0.356612
-0.356318
-0.355543
-0.354085
-0.351983
-0.349178
-0.345687
-0.341734
-0.337861
-0.335023
-0.33464
-0.338073
-0.348445
-0.36327
-0.359923
-0.363503
-0.363646
-0.363574
-0.363059
-0.362106
-0.36059
-0.358415
-0.35563
-0.352544
-0.349826
-0.348578
-0.350323
-0.357254
-0.368798
-0.366991
-0.370928
-0.371537
-0.372223
-0.372735
-0.373044
-0.372964
-0.372283
-0.370861
-0.368733
-0.366224
-0.36408
-0.363642
-0.3666
-0.3738
-0.374639
-0.37886
-0.379957
-0.381451
-0.383061
-0.384738
-0.386236
-0.387223
-0.387361
-0.386379
-0.384205
-0.381153
-0.378171
-0.376644
-0.377893
-0.381207
-0.387049
-0.39834
-0.410346
-0.418922
-0.417862
-0.404043
-0.376959
-0.338733
-0.29484
-0.251437
-0.213547
-0.184027
-0.163697
-0.152034
-0.148001
-0.150887
-0.160659
-0.177136
-0.19861
-0.221213
-0.239757
-0.249494
-0.247664
-0.234608
-0.213098
-0.187336
-0.16138
-0.13809
-0.118885
-0.104081
-0.0934007
-0.0863829
-0.0825863
-0.0816538
-0.0833816
-0.0878157
-0.0952344
-0.105849
-0.119295
-0.134267
-0.148619
-0.159908
-0.166091
-0.166067
-0.160135
-0.149498
-0.136061
-0.121734
-0.108008
-0.0958112
-0.0855757
-0.0774074
-0.0712535
-0.0670033
-0.0645432
-0.0638059
-0.0648261
-0.0677471
-0.0727164
-0.0796805
-0.0881977
-0.0973974
-0.106122
-0.113161
-0.117496
-0.118461
-0.115874
-0.110037
-0.101617
-0.0913947
-0.0802994
-0.0688783
-0.0578461
-0.0471618
-0.0374516
-0.0280177
-0.0198532
-0.0113573
-0.00459395
-0.374221
-0.369402
-0.371559
-0.376873
-0.381301
-0.379455
-0.366609
-0.342956
-0.309535
-0.271341
-0.233655
-0.201007
-0.176057
-0.15962
-0.151261
-0.150129
-0.155804
-0.168482
-0.187917
-0.21204
-0.236544
-0.255962
-0.265505
-0.262549
-0.247663
-0.223929
-0.195869
-0.167789
-0.142659
-0.121898
-0.105763
-0.0939108
-0.0858131
-0.0809765
-0.0790045
-0.0796472
-0.082886
-0.0889381
-0.0980073
-0.10981
-0.123199
-0.136221
-0.146615
-0.152483
-0.152769
-0.147751
-0.138449
-0.1266
-0.113918
-0.101756
-0.0909732
-0.081983
-0.0749106
-0.0697359
-0.0663832
-0.0647732
-0.0648761
-0.0667701
-0.0706404
-0.0766612
-0.0847774
-0.0945138
-0.104937
-0.114803
-0.122797
-0.127797
-0.129052
-0.126338
-0.119991
-0.110734
-0.0994496
-0.087189
-0.0745925
-0.0624532
-0.0507607
-0.0401625
-0.0299591
-0.0211309
-0.0120684
-0.00479806
-0.366891
-0.350695
-0.342789
-0.340436
-0.340252
-0.336643
-0.325204
-0.305392
-0.277125
-0.245008
-0.213322
-0.186161
-0.165967
-0.15353
-0.148503
-0.150259
-0.158706
-0.17424
-0.19652
-0.223114
-0.24932
-0.26948
-0.278827
-0.274927
-0.258456
-0.232784
-0.202727
-0.172811
-0.146092
-0.123973
-0.106661
-0.0937508
-0.0846585
-0.0788469
-0.0758852
-0.0754847
-0.0775677
-0.0822896
-0.0898419
-0.10002
-0.111839
-0.123546
-0.133064
-0.138639
-0.139354
-0.135124
-0.127125
-0.116826
-0.10575
-0.0951198
-0.0857241
-0.077963
-0.0719778
-0.0677785
-0.0653218
-0.0645613
-0.0655049
-0.0682734
-0.0730937
-0.0801672
-0.0894398
-0.100407
-0.112077
-0.12312
-0.132116
-0.13783
-0.13942
-0.136613
-0.129784
-0.119703
-0.107352
-0.0939141
-0.0801305
-0.066878
-0.05418
-0.0427057
-0.0317529
-0.0222918
-0.0127007
-0.00497325
-0.359314
-0.331519
-0.313135
-0.302392
-0.297
-0.291307
-0.281995
-0.265063
-0.242033
-0.216161
-0.190567
-0.168991
-0.153621
-0.145197
-0.143468
-0.148055
-0.159223
-0.17754
-0.202524
-0.231392
-0.259129
-0.279963
-0.289142
-0.284538
-0.266802
-0.239542
-0.207844
-0.176421
-0.148393
-0.125142
-0.106825
-0.0929852
-0.0829966
-0.0762863
-0.0723967
-0.0710066
-0.071988
-0.0754357
-0.0815229
-0.0901182
-0.1004
-0.110817
-0.11948
-0.124757
-0.125746
-0.122386
-0.115659
-0.106854
-0.0973217
-0.0881654
-0.0801131
-0.073549
-0.0686286
-0.0653887
-0.0638151
-0.0638923
-0.065665
-0.069296
-0.0750524
-0.083163
-0.0935784
-0.105771
-0.118695
-0.130937
-0.140971
-0.147447
-0.14942
-0.146564
-0.139298
-0.128421
-0.115018
-0.100408
-0.0854407
-0.071082
-0.0573922
-0.045063
-0.0333883
-0.0233305
-0.0132524
-0.00511986
-0.351529
-0.31244
-0.283685
-0.26418
-0.253005
-0.24484
-0.235566
-0.222657
-0.204891
-0.185177
-0.165584
-0.14955
-0.138949
-0.134457
-0.135927
-0.14328
-0.157122
-0.178139
-0.205677
-0.236622
-0.265732
-0.287208
-0.296255
-0.291265
-0.272605
-0.244143
-0.211194
-0.178624
-0.149592
-0.125453
-0.106316
-0.091685
-0.0809069
-0.0733839
-0.0686378
-0.0663227
-0.0662678
-0.0685129
-0.0732065
-0.0802812
-0.0890751
-0.0982375
-0.106062
-0.111032
-0.112267
-0.109701
-0.104183
-0.0967914
-0.0887187
-0.0809626
-0.0741933
-0.0687797
-0.0648888
-0.0625802
-0.0618655
-0.0627576
-0.0653364
-0.0698045
-0.0764679
-0.0855829
-0.0971085
-0.1105
-0.124666
-0.138115
-0.149212
-0.156491
-0.158898
-0.156041
-0.148404
-0.136782
-0.122361
-0.106602
-0.0904704
-0.0750261
-0.0603702
-0.047217
-0.0348555
-0.0242427
-0.0137222
-0.00523844
-0.343876
-0.294052
-0.25548
-0.227291
-0.209845
-0.198681
-0.189288
-0.179122
-0.166527
-0.152572
-0.138699
-0.127993
-0.121962
-0.12123
-0.125767
-0.135837
-0.152323
-0.175966
-0.2059
-0.238716
-0.26904
-0.29114
-0.300555
-0.295119
-0.275842
-0.246576
-0.212791
-0.179454
-0.14974
-0.124968
-0.105202
-0.0899251
-0.0784695
-0.0702252
-0.0647017
-0.0615352
-0.0605186
-0.0616435
-0.0650303
-0.0706632
-0.07803
-0.0859797
-0.0929833
-0.0976307
-0.0990754
-0.097216
-0.0928213
-0.0867422
-0.0800286
-0.0735825
-0.0680214
-0.0636987
-0.0607901
-0.0593738
-0.0594829
-0.0611567
-0.0645072
-0.0697744
-0.0773004
-0.0873695
-0.0999529
-0.114497
-0.129872
-0.144516
-0.156692
-0.164806
-0.167695
-0.16489
-0.156972
-0.144675
-0.129289
-0.112425
-0.0951661
-0.078672
-0.0630878
-0.0491513
-0.0361456
-0.0250249
-0.0141099
-0.00532975
-0.337312
-0.276785
-0.229516
-0.193294
-0.169142
-0.154252
-0.14424
-0.136577
-0.127772
-0.118861
-0.110262
-0.104518
-0.102758
-0.105545
-0.11303
-0.125789
-0.144907
-0.171094
-0.203246
-0.237717
-0.269092
-0.291772
-0.301508
-0.296066
-0.276529
-0.246873
-0.212678
-0.17897
-0.148908
-0.123759
-0.103559
-0.0877822
-0.0757625
-0.0668909
-0.0606731
-0.0567341
-0.0548392
-0.0549339
-0.0571111
-0.0613936
-0.0674048
-0.074188
-0.0803893
-0.0847014
-0.0863012
-0.0850376
-0.0816836
-0.0768057
-0.0713359
-0.0660964
-0.0616565
-0.058354
-0.0563696
-0.0557961
-0.0566846
-0.0590973
-0.0631747
-0.0691905
-0.0775202
-0.088476
-0.102045
-0.117674
-0.134204
-0.150012
-0.163263
-0.172243
-0.17566
-0.172941
-0.164871
-0.15199
-0.135712
-0.117805
-0.0994749
-0.0819821
-0.0655198
-0.050851
-0.0372512
-0.0256746
-0.0144157
-0.00539475
-0.325439
-0.26034
-0.206383
-0.16353
-0.132467
-0.11328
-0.10139
-0.0941072
-0.089058
-0.0845787
-0.08064
-0.0793788
-0.0815337
-0.0875891
-0.0979324
-0.113377
-0.135116
-0.163746
-0.197911
-0.2338
-0.266054
-0.289292
-0.2994
-0.294191
-0.274736
-0.245105