/*--------------------------------*- C++ -*----------------------------------*\
  =========                 |
  \\      /  F ield         | OpenFOAM: The Open Source CFD Toolbox
   \\    /   O peration     | Website:  https://openfoam.org
    \\  /    A nd           | Version:  7
     \\/     M anipulation  |
\*---------------------------------------------------------------------------*/
FoamFile
{
    version     2.0;
    format      ascii;
    class       volVectorField;
    location    "110.001";
    object      U;
}
// * * * * * * * * * * * * * * * * * * * * * * * * * * * * * * * * * * * * * //

dimensions      [0 1 -1 0 0 0 0];

internalField   nonuniform List<vector> 
14800
(
(-0.00562593 0.0472794 -2.44364e-20)
(-0.0241599 0.0667549 3.16102e-21)
(-0.0530951 0.0525611 1.39373e-20)
(-0.0834709 0.0263149 -7.41727e-21)
(-0.11443 -0.00345919 -2.42108e-20)
(-0.144572 -0.0360244 2.30016e-20)
(-0.173044 -0.0734146 1.00797e-21)
(-0.199128 -0.117496 2.80053e-21)
(-0.222019 -0.169044 -1.31418e-20)
(-0.240709 -0.227618 -1.68136e-21)
(-0.253974 -0.291407 9.63439e-21)
(-0.260512 -0.356962 8.10372e-21)
(-0.259155 -0.419073 2.9979e-20)
(-0.248851 -0.470663 -3.25909e-20)
(-0.226239 -0.504962 1.30381e-20)
(-0.00752175 0.0529251 5.21726e-20)
(-0.0267176 0.0780681 -3.24692e-20)
(-0.0551035 0.0667179 -1.13804e-20)
(-0.0845809 0.0418131 2.3058e-21)
(-0.114518 0.0125079 2.25141e-20)
(-0.143577 -0.0201269 4.73875e-20)
(-0.17095 -0.0580028 -4.03718e-20)
(-0.196 -0.102982 7.75857e-21)
(-0.218027 -0.155962 3.44405e-20)
(-0.236185 -0.216651 3.83201e-20)
(-0.249508 -0.283374 -4.67201e-20)
(-0.257103 -0.352778 5.12406e-20)
(-0.258258 -0.419695 -7.08248e-20)
(-0.253023 -0.476802 6.61103e-20)
(-0.236766 -0.517886 1.32165e-20)
(-0.00964693 0.0581649 8.67408e-20)
(-0.0293723 0.0889505 1.52846e-19)
(-0.0565907 0.0806055 8.38864e-21)
(-0.0843516 0.0571734 -4.29834e-20)
(-0.112254 0.0284506 -2.13422e-20)
(-0.139018 -0.00409342 -7.39255e-20)
(-0.163833 -0.0422218 5.3063e-20)
(-0.186091 -0.0877683 6.91617e-20)
(-0.205156 -0.141745 -7.83278e-20)
(-0.220298 -0.203981 -3.02167e-20)
(-0.230797 -0.2729 1.04112e-19)
(-0.236207 -0.345179 -3.39934e-20)
(-0.236262 -0.415741 3.09445e-20)
(-0.232853 -0.47692 3.55717e-20)
(-0.218559 -0.523492 5.21616e-20)
(-0.011944 0.0627864 -7.15579e-20)
(-0.0320551 0.0990515 -2.56639e-19)
(-0.0574957 0.0938448 1.27057e-19)
(-0.0827297 0.0720134 -1.35922e-20)
(-0.107592 0.0439803 4.74709e-20)
(-0.130854 0.0116572 -1.45572e-19)
(-0.151665 -0.0264912 5.604e-21)
(-0.169369 -0.0723523 4.04405e-21)
(-0.183361 -0.12694 5.48833e-20)
(-0.192972 -0.190196 -6.70521e-20)
(-0.197685 -0.260586 -1.79316e-19)
(-0.197558 -0.33471 -6.49344e-20)
(-0.192551 -0.407619 -8.75581e-21)
(-0.187606 -0.471138 1.79486e-20)
(-0.169946 -0.521373 -5.88314e-20)
(-0.0143398 0.0665966 -1.65987e-19)
(-0.0346925 0.108036 1.21631e-19)
(-0.0577838 0.106065 9.98428e-21)
(-0.0797202 0.0859551 1.24473e-20)
(-0.100578 0.0587079 -1.08064e-19)
(-0.119165 0.0267065 7.90898e-20)
(-0.13459 -0.0113316 -2.99881e-20)
(-0.146086 -0.0572655 5.17425e-20)
(-0.152981 -0.11214 -2.84817e-20)
(-0.154677 -0.17596 1.74911e-19)
(-0.150776 -0.247169 1.31953e-19)
(-0.141964 -0.322145 8.73027e-20)
(-0.127869 -0.39607 -1.31756e-19)
(-0.118427 -0.460176 3.87417e-20)
(-0.0915179 -0.511721 -2.71959e-20)
(-0.0167493 0.0694359 -4.11938e-22)
(-0.0372084 0.115602 2.18851e-19)
(-0.0574459 0.116914 -1.62275e-19)
(-0.0753819 0.0986339 1.3711e-19)
(-0.0913487 0.0722564 1.22256e-19)
(-0.104199 0.0406469 -7.27574e-20)
(-0.112938 0.00279077 5.02691e-20)
(-0.116691 -0.0430281 -2.04721e-19)
(-0.114694 -0.0979452 5.94365e-20)
(-0.106366 -0.161963 -1.35477e-19)
(-0.091345 -0.233459 7.20291e-20)
(-0.0712375 -0.308435 -1.62171e-19)
(-0.0443403 -0.382033 -3.76776e-20)
(-0.028245 -0.445566 -6.55139e-20)
(0.0132128 -0.494793 7.62584e-20)
(-0.0190821 0.0711886 -2.01085e-20)
(-0.0395272 0.121491 -2.2653e-19)
(-0.0564954 0.126073 2.0627e-20)
(-0.0698199 0.109707 2.44781e-21)
(-0.080105 0.0842673 3.69805e-20)
(-0.0862644 0.0530981 3.16733e-19)
(-0.0871893 0.0154979 -2.55336e-20)
(-0.0818631 -0.0301382 1.73391e-19)
(-0.0694304 -0.0849226 2.03201e-20)
(-0.0493296 -0.148866 1.14574e-20)
(-0.0211161 -0.220227 -5.16526e-20)
(0.0121929 -0.294685 1.26147e-19)
(0.0546437 -0.366297 2.90438e-19)
(0.079243 -0.429703 -3.07515e-19)
(0.137901 -0.470227 -9.40335e-20)
(-0.0212487 0.0717922 1.31951e-19)
(-0.0415767 0.125508 2.28212e-19)
(-0.0549645 0.133264 -6.17115e-20)
(-0.0631747 0.118862 -1.09191e-19)
(-0.0671021 0.0944076 -1.08857e-19)
(-0.0657484 0.0636992 1.74557e-20)
(-0.057896 0.026369 1.05179e-19)
(-0.0423657 -0.0190438 -3.4017e-19)
(-0.018222 -0.073573 -7.75301e-21)
(0.0150378 -0.137257 -1.06031e-19)
(0.0579812 -0.208026 -2.53292e-19)
(0.105972 -0.281957 2.51617e-19)
(0.164943 -0.349792 -3.28568e-19)
(0.200143 -0.413129 1.49831e-19)
(0.276357 -0.442286 8.77376e-20)
(-0.0231686 0.0712407 -7.12283e-20)
(-0.0432914 0.127527 8.7325e-20)
(-0.0528987 0.138265 -1.56794e-19)
(-0.0556081 0.125823 1.34776e-19)
(-0.0526224 0.102379 1.87247e-19)
(-0.0430663 0.0721301 2.28137e-19)
(-0.0256323 0.0350608 -9.28442e-20)
(0.00103231 -0.0100941 -7.68226e-20)
(0.0379688 -0.0643801 3.49736e-19)
(0.0855456 -0.127647 2.5445e-19)
(0.144206 -0.197414 2.34486e-19)
(0.207761 -0.270519 -3.34953e-19)
(0.283727 -0.333514 8.90015e-20)
(0.328485 -0.395585 7.9046e-20)
(0.422398 -0.414992 -3.48763e-21)
(-0.0247764 0.069586 -3.22621e-19)
(-0.044616 0.1275 -4.17761e-19)
(-0.0503475 0.140915 1.55761e-19)
(-0.0472853 0.130368 2.18027e-19)
(-0.0369434 0.107924 -4.52745e-19)
(-0.0186023 0.0781044 -1.72013e-20)
(0.0091185 0.0412571 -1.88162e-19)
(0.0476851 -0.00367407 4.58489e-19)
(0.098318 -0.0576767 -2.05825e-19)
(0.161212 -0.120361 -2.34918e-20)
(0.2365 -0.188684 1.60258e-19)
(0.315725 -0.260175 3.84919e-19)
(0.407873 -0.317839 1.63236e-19)
(0.460742 -0.377283 -1.12927e-19)
(0.567997 -0.387762 -2.09424e-20)
(-0.0260276 0.0669333 2.2417e-19)
(-0.045507 0.125458 3.01329e-19)
(-0.0473539 0.141118 -2.10316e-19)
(-0.0383489 0.132319 -7.22498e-19)
(-0.020305 0.110822 -8.24396e-20)
(0.0073212 0.0813841 5.53765e-21)
(0.045973 0.0446932 2.54513e-19)
(0.0972516 -7.4322e-05 -5.83081e-19)
(0.162482 -0.0536574 -2.7675e-20)
(0.241597 -0.115523 -3.13878e-19)
(0.334039 -0.181746 -4.09531e-19)
(0.428757 -0.25078 -2.55065e-19)
(0.534303 -0.302458 2.12288e-20)
(0.593913 -0.357673 -6.59289e-20)
(0.707039 -0.36014 -1.78539e-19)
(-0.0269038 0.0634322 1.25654e-19)
(-0.0459335 0.121508 2.20583e-19)
(-0.0439472 0.138854 -1.03402e-19)
(-0.0288935 0.131561 -9.58318e-20)
(-0.00285237 0.110913 6.04364e-19)
(0.0345427 0.0818 -6.34626e-19)
(0.084809 0.0452178 3.49989e-20)
(0.1497 0.00062925 1.52514e-19)
(0.230572 -0.0523868 1.15344e-19)
(0.326819 -0.113028 8.02104e-20)
(0.436363 -0.176383 1.38953e-19)
(0.545637 -0.241592 -9.73509e-20)
(0.660066 -0.286886 2.8004e-19)
(0.72417 -0.336207 1.94559e-19)
(0.834392 -0.331562 1.04072e-19)
(-0.0274136 0.0592665 5.52362e-20)
(-0.0458754 0.115829 -4.47391e-19)
(-0.0401264 0.134192 6.56389e-19)
(-0.018939 0.128067 8.24491e-19)
(0.0154062 0.108117 -2.8057e-19)
(0.063133 0.0792615 1.02791e-19)
(0.125862 0.0427786 -2.72411e-19)
(0.205499 -0.00153548 -4.66315e-20)
(0.303227 -0.0536826 -5.38124e-19)
(0.417367 -0.112406 1.16026e-19)
(0.543063 -0.172 4.4042e-19)
(0.66446 -0.23168 -5.43172e-20)
(0.781953 -0.270371 1.22876e-19)
(0.846943 -0.312607 -5.46717e-20)
(0.945797 -0.301963 1.88132e-21)
(-0.0275911 0.0546393 -2.686e-19)
(-0.0453171 0.10866 -3.02855e-19)
(-0.0358399 0.127279 -7.22385e-19)
(-0.00838727 0.121895 -5.22819e-19)
(0.0346646 0.102447 -4.19871e-19)
(0.0934872 0.0737753 4.87352e-19)
(0.169819 0.0374662 9.7667e-20)
(0.265659 -0.00632695 2.19191e-19)
(0.381522 -0.0570549 1.21606e-19)
(0.513709 -0.112795 -3.34126e-19)
(0.653216 -0.167587 -1.75509e-19)
(0.782286 -0.220136 3.82214e-20)
(0.896306 -0.252229 -5.32649e-19)
(0.957533 -0.286895 1.15824e-19)
(1.03855 -0.27181 -2.27462e-19)
(-0.027491 0.0497578 1.38307e-19)
(-0.0442385 0.100282 1.05404e-18)
(-0.0309645 0.118339 5.35776e-19)
(0.00301779 0.113202 2.52646e-19)
(0.0553784 0.0940298 6.53978e-19)
(0.12637 0.0655445 -5.83871e-19)
(0.217875 0.0295881 -2.4688e-19)
(0.331645 -0.0131998 -2.42914e-19)
(0.466621 -0.0616315 1.18202e-18)
(0.615672 -0.113028 3.80186e-19)
(0.764773 -0.161922 -2.87805e-19)
(0.89519 -0.20625 1.45019e-19)
(0.999271 -0.232175 -1.76998e-19)
(1.05211 -0.25951 1.62759e-19)
(1.11188 -0.241906 5.8225e-20)
(-0.0271794 0.044817 -1.31462e-20)
(-0.0426014 0.0910007 -5.63188e-19)
(-0.0252823 0.107671 -5.15111e-19)
(0.0157322 0.102255 -1.80841e-19)
(0.0783507 0.0831486 -3.22783e-19)
(0.163011 0.0549339 3.382e-19)
(0.271659 0.0197046 1.68283e-19)
(0.405087 -0.0212576 -2.56657e-19)
(0.559147 -0.0661788 -2.00263e-21)
(0.721787 -0.111817 -1.99095e-19)
(0.874299 -0.153938 4.43637e-20)
(0.998783 -0.189722 5.50915e-20)
(1.08753 -0.210455 4.58521e-20)
(1.12863 -0.231212 9.63847e-20)
(1.16682 -0.213151 -2.37846e-19)
(-0.0267221 0.0399856 -2.77894e-19)
(-0.0403325 0.0811239 2.27783e-19)
(-0.0184598 0.0956307 2.15543e-19)
(0.0304357 0.0894325 2.7424e-20)
(0.10471 0.0702417 2.21719e-19)
(0.205063 0.0425119 -3.07869e-19)
(0.333053 0.00870239 3.2406e-19)
(0.48722 -0.0292711 5.6158e-20)
(0.658441 -0.0692825 -3.77249e-19)
(0.828968 -0.108055 9.03076e-21)
(0.977417 -0.143041 -3.48662e-19)
(1.08914 -0.170783 3.04353e-19)
(1.15913 -0.18773 3.74399e-20)
(1.18714 -0.202787 5.33681e-20)
(1.20568 -0.186272 2.25932e-19)
(-0.0261708 0.0353935 7.79115e-19)
(-0.0373057 0.0709428 -3.0555e-19)
(-0.0100318 0.0826186 -1.62398e-19)
(0.0480419 0.0752241 -2.02027e-19)
(0.135896 0.0559312 -5.57051e-19)
(0.254376 0.0291503 -1.8701e-19)
(0.403695 -0.00222803 3.75909e-19)
(0.578157 -0.035831 -2.49732e-19)
(0.762059 -0.0696747 -9.77919e-19)
(0.932847 -0.101117 3.51416e-19)
(1.06982 -0.12924 7.29004e-20)
(1.16372 -0.150139 -2.0462e-19)
(1.21397 -0.164773 1.02746e-19)
(1.22933 -0.174717 -8.53232e-20)
(1.23117 -0.161743 9.63351e-20)
(-0.0255488 0.0311237 -1.26118e-19)
(-0.0333274 0.060713 4.01434e-19)
(0.000598672 0.0690574 4.51005e-19)
(0.0696627 0.0602106 3.49585e-19)
(0.173543 0.0410058 5.45895e-19)
(0.312712 0.0159437 4.94303e-19)
(0.484366 -0.0117176 -5.63911e-19)
(0.676294 -0.039629 7.91751e-19)
(0.86593 -0.0665721 6.23326e-19)
(1.02877 -0.0909956 -5.57692e-19)
(1.14838 -0.113067 4.11761e-19)
(1.22192 -0.12875 -1.00573e-19)
(1.25366 -0.142119 -1.71661e-19)
(1.25776 -0.147119 -2.06545e-19)
(1.24596 -0.140062 -8.73556e-20)
(-0.0248388 0.0272093 -3.48298e-19)
(-0.0281282 0.0506404 6.89595e-19)
(0.0141428 0.0553689 -3.7146e-20)
(0.0965309 0.0450388 7.24595e-20)
(0.219251 0.0263939 -9.95167e-20)
(0.381267 0.00413061 -8.30563e-21)
(0.574382 -0.0184501 4.77284e-19)
(0.778227 -0.0397731 -3.66609e-19)
(0.965227 -0.0598427 3.62778e-19)
(1.11293 -0.0781941 4.4621e-19)
(1.2117 -0.0953519 -2.77764e-19)
(1.26489 -0.107529 1.9803e-19)
(1.28089 -0.119883 -7.24923e-20)
(1.27534 -0.120337 1.56576e-19)
(1.25272 -0.122562 6.19546e-20)
(-0.0239757 0.0236355 -4.87774e-19)
(-0.0213649 0.0408744 5.2551e-20)
(0.0313856 0.0419525 1.84452e-19)
(0.12988 0.0303863 -3.00276e-19)
(0.274298 0.0131015 -3.46897e-19)
(0.460171 -0.00506395 2.13722e-19)
(0.671325 -0.0214455 -4.05159e-19)
(0.879378 -0.0359794 3.18626e-19)
(1.05557 -0.0499196 -1.33135e-19)
(1.18318 -0.0634803 -4.75902e-19)
(1.26016 -0.0769786 -2.55799e-19)
(1.2949 -0.0870677 3.58766e-19)
(1.29858 -0.0980178 -1.4176e-19)
(1.28528 -0.096054 -7.50829e-20)
(1.2541 -0.111751 -1.15387e-19)
(-0.0228454 0.0203477 9.57218e-19)
(-0.0126329 0.0315081 -1.17507e-18)
(0.0531282 0.0291688 -2.69373e-19)
(0.170788 0.0169309 -1.60685e-19)
(0.339319 0.00212892 1.00707e-19)
(0.548143 -0.0106382 -4.05284e-19)
(0.771344 -0.0202646 2.36853e-19)
(0.975092 -0.0285385 1.13342e-19)
(1.13396 -0.037549 -7.60364e-19)
(1.2391 -0.0476502 6.09161e-19)
(1.29535 -0.0586664 1.50835e-19)
(1.31459 -0.0675611 -3.84407e-19)
(1.30904 -0.0770134 2.1185e-19)
(1.29004 -0.0766906 1.24939e-19)
(1.26233 -0.0862196 2.88825e-20)
(-0.0212897 0.017265 -6.44122e-19)
(-0.00148799 0.0225881 1.06713e-18)
(0.0801241 0.0173357 1.04541e-19)
(0.220023 0.00532703 -3.86798e-19)
(0.41403 -0.00563537 4.81586e-19)
(0.642502 -0.0120018 -2.93617e-19)
(0.869977 -0.0150275 3.1185e-20)
(1.06165 -0.0181048 -3.76687e-19)
(1.19908 -0.0235331 6.61621e-19)
(1.28164 -0.0313748 -2.88148e-19)
(1.31953 -0.0408561 7.61047e-20)
(1.32646 -0.0490463 -1.06293e-19)
(1.3142 -0.0578999 -5.35248e-21)
(1.29301 -0.0575911 1.63787e-20)
(1.2654 -0.068128 2.7291e-20)
(-0.0191164 0.0142959 1.37647e-19)
(0.0125277 0.0141339 -6.30553e-19)
(0.113016 0.00673891 -5.53508e-19)
(0.277893 -0.00380973 1.48476e-19)
(0.497089 -0.00953197 -3.89125e-19)
(0.739593 -0.00905235 -3.59502e-19)
(0.963117 -0.00625682 1.15358e-19)
(1.13677 -0.00544888 5.28295e-19)
(1.25103 -0.00856846 1.67329e-19)
(1.31254 -0.01513 -3.20731e-19)
(1.33504 -0.023753 -8.0337e-20)
(1.33259 -0.0317061 4.53627e-20)
(1.31609 -0.0399691 2.20185e-19)
(1.29344 -0.0408455 -4.5661e-20)
(1.26727 -0.0509186 -5.65817e-20)
(-0.0161123 0.0113553 -7.55548e-20)
(0.0298598 0.00616313 8.25447e-19)
(0.15228 -0.00234111 3.90219e-19)
(0.344133 -0.00992242 1.39094e-19)
(0.586178 -0.00922469 2.74122e-19)
(0.835504 -0.00210223 5.33734e-19)
(1.04769 0.00534484 2.47827e-19)
(1.19965 0.00871495 -5.41538e-19)
(1.29095 0.00681847 -3.36415e-19)
(1.33386 0.000800295 5.53713e-19)
(1.344 -0.00745695 -5.36979e-20)
(1.3348 -0.0153724 -3.40451e-20)
(1.31561 -0.0234204 -2.81495e-19)
(1.29267 -0.0251669 -3.45641e-20)
(1.26803 -0.0349575 2.23946e-19)
(-0.0120566 0.00838008 -1.2903e-19)
(0.0509189 -0.00127917 -1.03952e-18)
(0.198182 -0.00959744 -7.87461e-20)
(0.417838 -0.0125521 -2.2224e-19)
(0.678328 -0.00472281 -6.04356e-19)
(0.926761 0.00828887 2.00285e-19)
(1.12191 0.0190709 -4.91402e-19)
(1.25057 0.0238077 2.20084e-19)
(1.32043 0.0222733 -1.83644e-20)
(1.34762 0.0162725 -3.0959e-19)
(1.34821 0.00806921 1.96498e-19)
(1.33431 1.47359e-05 -9.3244e-20)
(1.3137 -0.00789345 1.18312e-19)
(1.29093 -0.0106028 1.83756e-19)
(1.26757 -0.0203206 -3.60034e-20)
(-0.00673272 0.00534106 3.19813e-22)
(0.0760612 -0.00809284 1.73274e-19)
(0.250721 -0.0146731 1.65141e-19)
(0.497484 -0.011393 -1.51014e-20)
(0.770385 0.00368443 8.72383e-20)
(1.01076 0.021481 -6.35099e-19)
(1.18509 0.0343053 1.52268e-19)
(1.29053 0.039401 -9.28932e-20)
(1.34127 0.0375842 7.10807e-20)
(1.35562 0.0312518 1.75153e-19)
(1.34906 0.0228939 -2.06463e-19)
(1.33206 0.0146223 4.98103e-20)
(1.3108 0.00672503 4.49757e-20)
(1.2885 0.00307868 -4.74537e-20)
(1.26648 -0.00636023 3.39498e-20)
(6.22281e-05 0.00224967 2.96881e-19)
(0.105569 -0.0141009 5.26615e-19)
(0.309587 -0.0171645 8.01391e-20)
(0.581059 -0.00633393 -1.94454e-19)
(0.859468 0.0155432 5.74288e-19)
(1.0859 0.0368636 3.81426e-19)
(1.23745 0.050554 -1.34773e-19)
(1.32089 0.0552017 6.88414e-21)
(1.35515 0.0526483 -1.24678e-19)
(1.35932 0.0457636 3.43285e-20)
(1.34759 0.0371223 2.58026e-20)
(1.32865 0.0285711 -1.1308e-19)
(1.30725 0.0205988 -2.23125e-19)
(1.28558 0.016061 1.3475e-19)
(1.26465 0.00676767 -1.94038e-19)
(0.00851096 -0.000840217 -3.2245e-19)
(0.139628 -0.0190373 -1.71514e-19)
(0.374121 -0.0166613 -4.58503e-19)
(0.666285 0.00254263 7.3004e-19)
(0.943273 0.0303428 -6.35292e-19)
(1.15142 0.0539054 2.553e-19)
(1.27972 0.067443 1.59319e-19)
(1.34312 0.0710275 1.74418e-19)
(1.3636 0.0674366 1.06271e-19)
(1.3599 0.0598689 -1.9301e-20)
(1.34453 0.0508553 -9.84002e-20)
(1.32447 0.0419801 -2.26764e-19)
(1.30322 0.0338472 1.14357e-19)
(1.2822 0.0284254 1.02659e-19)
(1.26229 0.0193169 2.07661e-19)
(0.018771 -0.00383351 -2.84728e-19)
(0.1783 -0.0225482 1.40115e-19)
(0.443308 -0.0128096 1.46854e-19)
(0.750884 0.0150047 -3.16758e-19)
(1.02018 0.0475858 1.24123e-19)
(1.20726 0.0721685 -1.1104e-19)
(1.31293 0.084704 -1.6398e-19)
(1.35863 0.086779 -1.83663e-19)
(1.36786 0.0819662 6.73181e-20)
(1.35823 0.0736394 2.03152e-19)
(1.34039 0.0641864 2.86185e-19)
(1.31974 0.0549425 1.07002e-19)
(1.29881 0.0465599 -6.61394e-20)
(1.27846 0.0402847 -6.85764e-20)
(1.25939 0.031293 -5.41347e-20)
(0.0309707 -0.00659731 2.7446e-19)
(0.221486 -0.0242102 -1.38671e-19)
(0.515828 -0.00537122 8.03643e-20)
(0.83281 0.0307309 4.56767e-19)
(1.08922 0.0668206 4.34391e-19)
(1.25381 0.0913044 -4.03543e-19)
(1.33825 0.102155 1.95695e-19)
(1.36869 0.102416 2.2439e-19)
(1.36893 0.0962775 -3.77414e-19)
(1.35494 0.0871446 7.68128e-20)
(1.33546 0.077192 -1.64824e-19)
(1.31459 0.0675304 2.62505e-20)
(1.29405 0.0588118 -7.92365e-20)
(1.27433 0.0516942 1.35303e-19)
(1.25601 0.0427863 -1.4303e-19)
(0.0452057 -0.00896475 -2.45314e-19)
(0.268899 -0.0235648 1.69539e-19)
(0.59016 0.00574689 2.29006e-19)
(0.910388 0.049362 -5.9991e-20)
(1.14996 0.0876525 -5.45845e-19)
(1.29174 0.111044 -1.91742e-19)
(1.35681 0.119681 -2.99075e-19)
(1.37438 0.117934 1.26283e-19)
(1.36759 0.110418 -1.78184e-20)
(1.35044 0.100443 -1.97433e-19)
(1.32994 0.0899311 -1.78193e-19)
(1.30907 0.0797973 3.30109e-20)
(1.28896 0.0706547 6.27479e-20)
(1.26985 0.0627135 -1.27074e-19)
(1.25217 0.0538314 6.04388e-20)
(0.0615317 -0.010739 1.05018e-19)
(0.320047 -0.0201656 1.92872e-21)
(0.664708 0.0204981 -6.85787e-19)
(0.982371 0.0705342 -4.88212e-20)
(1.20236 0.109743 3.86906e-19)
(1.32187 0.131185 3.90248e-19)
(1.36966 0.137216 2.67041e-19)
(1.3766 0.133349 -4.90814e-20)
(1.36439 0.124433 8.07936e-20)
(1.34502 0.11358 -2.34491e-21)
(1.32393 0.102445 1.43023e-19)
(1.3032 0.0917797 5.51496e-20)
(1.28352 0.0821299 1.14723e-19)
(1.26498 0.0733793 -8.56191e-20)
(1.24787 0.0644651 -6.25156e-20)
(0.0799562 -0.0116992 -1.77487e-20)
(0.374243 -0.0136278 1.90772e-19)
(0.737933 0.0387238 3.5876e-19)
(1.04792 0.0938959 1.20634e-19)
(1.24668 0.132806 -3.44412e-19)
(1.34505 0.151578 -4.30102e-19)
(1.37774 0.154726 1.76026e-19)
(1.37604 0.148685 -1.06476e-19)
(1.35975 0.138356 2.99948e-19)
(1.33887 0.126584 7.82242e-21)
(1.31747 0.114761 -7.4045e-20)
(1.29697 0.1035 -2.78797e-20)
(1.27773 0.0932651 1.32112e-19)
(1.25974 0.083722 1.12931e-19)
(1.24312 0.0747104 1.17694e-19)
(0.100429 -0.0116086 2.69209e-19)
(0.430626 -0.00366758 -2.94378e-19)
(0.808452 0.0601857 1.85244e-19)
(1.10653 0.119114 2.61039e-19)
(1.28334 0.156598 2.26369e-19)
(1.36211 0.172114 9.20271e-20)
(1.38185 0.172195 4.84216e-20)
(1.37323 0.163961 -1.90246e-20)
(1.35394 0.152209 -1.37714e-19)
(1.33206 0.13947 5.20146e-20)
(1.31057 0.12689 1.23686e-19)
(1.29036 0.114971 4.94212e-20)
(1.27156 0.10408 -4.69462e-20)
(1.2541 0.0937606 -4.84621e-20)
(1.23793 0.0845822 -5.68974e-20)
(0.122831 -0.010227 -1.45456e-19)
(0.48822 0.00987634 1.05285e-19)
(0.875102 0.0845936 -1.34465e-20)
(1.158 0.145876 -2.73634e-19)
(1.31288 0.180916 -7.25639e-20)
(1.37383 0.192709 1.60674e-19)
(1.38263 0.189615 -1.44037e-19)
(1.36859 0.17919 9.7976e-21)
(1.34713 0.165998 -8.93601e-21)
(1.32464 0.152238 -4.73478e-20)
(1.30322 0.138834 -7.82195e-20)
(1.28334 0.126194 -1.1104e-19)
(1.26499 0.114585 -4.30225e-20)
(1.24804 0.103507 7.22067e-20)
(1.2323 0.0940885 1.68109e-20)
(0.146974 -0.00732559 -1.83742e-19)
(0.545986 0.0270393 -2.38197e-20)
(0.936961 0.111626 -1.20213e-19)
(1.2023 0.173883 1.11949e-19)
(1.33587 0.205583 -1.3205e-19)
(1.38089 0.213301 -5.79294e-20)
(1.3806 0.206977 1.50733e-20)
(1.3624 0.194371 -2.28421e-20)
(1.33944 0.179716 4.63775e-20)
(1.31664 0.164878 5.65812e-22)
(1.29539 0.150585 3.25017e-20)
(1.27588 0.137163 5.56156e-20)
(1.258 0.124785 6.39493e-20)
(1.24157 0.112965 -2.77855e-20)
(1.22623 0.10323 -2.06474e-20)
(0.172594 -0.00270195 1.08877e-19)
(0.602881 0.0477398 1.17054e-19)
(0.993344 0.140942 4.05671e-20)
(1.23956 0.202855 -6.52797e-20)
(1.35286 0.230447 1.46146e-20)
(1.38389 0.233835 1.00459e-19)
(1.37618 0.224265 -6.95171e-20)
(1.35485 0.209491 -6.12646e-20)
(1.33091 0.193344 -1.94186e-20)
(1.30803 0.177367 1.27589e-20)
(1.28705 0.162124 -7.00377e-20)
(1.26797 0.147866 1.53867e-20)
(1.25057 0.134679 3.98542e-20)
(1.23466 0.122131 -1.50983e-20)
(1.21974 0.112002 -1.25449e-20)
(0.199362 0.00380553 -7.16062e-20)
(0.657908 0.071795 -4.97801e-20)
(1.04378 0.172194 -9.67264e-20)
(1.27004 0.232524 -1.55843e-20)
(1.36441 0.255366 -1.01429e-20)
(1.38333 0.254256 -1.09146e-19)
(1.36967 0.241453 3.48818e-20)
(1.34609 0.224522 2.12434e-20)
(1.32158 0.206848 -3.58961e-20)
(1.29881 0.189676 -2.18856e-20)
(1.27818 0.173426 -1.0413e-21)
(1.25957 0.158284 -2.10398e-20)
(1.2427 0.144258 -3.25114e-20)
(1.22733 0.13099 -2.88599e-20)
(1.21285 0.120392 2.03161e-20)
(0.226892 0.0123081 -3.25333e-20)
(0.710156 0.0989378 1.20114e-20)
(1.08797 0.205028 1.63471e-20)
(1.29401 0.262634 1.69281e-20)
(1.37102 0.280212 2.90736e-20)
(1.37962 0.274509 2.07093e-20)
(1.36131 0.258505 -5.85777e-21)
(1.33619 0.239424 2.06261e-20)
(1.31146 0.220188 -1.05758e-21)
(1.28894 0.201767 -9.18469e-23)
(1.26876 0.184462 8.61802e-21)
(1.25066 0.168395 -4.01487e-21)
(1.23435 0.153505 2.77016e-21)
(1.21956 0.139512 1.13583e-20)
(1.2056 0.128384 -9.19228e-21)
(0.254754 0.0228617 -2.03132e-20)
(0.758825 0.128832 -5.34676e-21)
(1.12578 0.239089 2.37529e-20)
(1.31182 0.292942 1.04191e-20)
(1.37314 0.304859 2.92917e-20)
(1.37311 0.29453 1.99845e-20)
(1.35128 0.27537 -7.01425e-22)
(1.3252 0.254144 2.43182e-20)
(1.30052 0.233311 -1.22142e-20)
(1.27842 0.213595 1.31654e-21)
(1.25875 0.195196 8.12474e-21)
(1.24122 0.178173 -3.76486e-21)
(1.22552 0.162397 3.59895e-21)
(1.21134 0.147657 1.29924e-20)
(1.19798 0.135958 -4.80006e-21)
(0.282492 0.0354668 -2.87685e-20)
(0.803241 0.161089 -8.36722e-20)
(1.15718 0.274018 -9.40971e-20)
(1.32384 0.323217 -3.53603e-21)
(1.37118 0.329183 -1.40932e-20)
(1.36407 0.314247 -9.87023e-20)
(1.33969 0.291984 4.94475e-20)
(1.31316 0.26862 5.58583e-21)
(1.28878 0.246159 -3.22723e-20)
(1.2672 0.225113 -2.87685e-20)
(1.24815 0.20559 4.32615e-21)
(1.23125 0.187591 -1.69069e-20)
(1.21619 0.170912 -1.82586e-20)
(1.20267 0.155397 -2.50902e-20)
(1.18989 0.143104 1.52626e-20)
(0.309636 0.0500706 1.09375e-19)
(0.842874 0.19528 8.08438e-20)
(1.18223 0.30946 3.42737e-20)
(1.3304 0.35324 -4.83028e-20)
(1.36549 0.353061 2.26019e-20)
(1.35272 0.333577 5.21952e-20)
(1.32664 0.308272 -4.16374e-20)
(1.30008 0.282778 -8.16739e-20)
(1.2762 0.25867 -7.47709e-21)
(1.25529 0.236265 4.76946e-20)
(1.23693 0.215603 -5.74963e-20)
(1.22073 0.196615 2.41426e-20)
(1.20639 0.179028 1.10941e-20)
(1.19358 0.162746 1.1235e-21)
(1.18121 0.149825 7.57207e-22)
(0.33572 0.0665675 -1.31086e-19)
(0.877336 0.23096 -8.36838e-20)
(1.20104 0.345062 -1.31023e-19)
(1.33187 0.382796 1.16435e-19)
(1.35639 0.376367 -1.24212e-19)
(1.33925 0.352428 -3.02341e-20)
(1.31221 0.324151 -2.64805e-21)
(1.28597 0.296544 1.30884e-21)
(1.26279 0.270776 6.17412e-20)
(1.24266 0.246996 -6.81424e-20)
(1.22508 0.225187 5.42492e-20)
(1.20966 0.205199 2.26778e-20)
(1.19613 0.186701 5.62184e-20)
(1.18411 0.16977 -3.03988e-21)
(1.17195 0.156143 -1.66193e-20)
(0.3603 0.0848023 1.98531e-20)
(0.906359 0.267676 2.43173e-20)
(1.21378 0.380481 -4.43207e-20)
(1.32857 0.411672 -1.76187e-19)
(1.34417 0.398969 -4.42792e-20)
(1.32381 0.370698 1.1888e-19)
(1.29643 0.339526 -9.37631e-20)
(1.27084 0.309832 -4.69912e-20)
(1.24853 0.282406 1.44188e-20)
(1.22931 0.257245 -1.63489e-20)
(1.21262 0.234293 -8.5664e-20)
(1.19806 0.213298 -4.25926e-20)
(1.18542 0.193872 -2.88877e-21)
(1.1741 0.176461 1.17236e-20)
(1.16243 0.162081 9.23192e-21)
(0.382964 0.104575 2.49905e-19)
(0.929779 0.304974 -3.15392e-19)
(1.22069 0.415379 2.14305e-19)
(1.32084 0.439662 1.09991e-19)
(1.32905 0.420735 3.18941e-19)
(1.30651 0.388279 9.67398e-21)
(1.27933 0.354298 8.15316e-20)
(1.25467 0.32255 2.30321e-20)
(1.23345 0.293483 -1.5042e-19)
(1.21527 0.266952 5.37623e-20)
(1.19957 0.24287 4.00121e-20)
(1.18594 0.220876 6.06571e-20)
(1.17422 0.200593 -5.84587e-20)
(1.16355 0.182679 -1.57234e-20)
(1.1527 0.167558 -2.18804e-21)
(0.403343 0.125646 -3.3356e-20)
(0.947527 0.342406 3.67105e-19)
(1.22199 0.449429 2.78746e-19)
(1.30899 0.466562 4.84718e-20)
(1.31127 0.441528 -3.00313e-19)
(1.28746 0.40506 -1.84753e-19)
(1.26097 0.368367 6.07478e-20)
(1.23749 0.334592 -3.76152e-20)
(1.21759 0.303922 8.32901e-20)
(1.20056 0.276056 1.97819e-20)
(1.18592 0.250865 1.82588e-20)
(1.17332 0.227905 -3.33677e-20)
(1.16254 0.206814 1.59145e-20)
(1.15262 0.188417 6.22878e-20)
(1.14263 0.17254 6.31718e-20)
(0.421119 0.147743 2.78662e-19)
(0.959613 0.379533 -3.01338e-19)
(1.21798 0.482317 -4.64032e-19)
(1.2933 0.492173 3.62518e-20)
(1.291 0.46121 2.45451e-19)
(1.26675 0.42092 2.38046e-19)
(1.24141 0.381627 1.2414e-19)
(1.21942 0.345868 7.24125e-21)
(1.20092 0.313629 2.21329e-20)
(1.18515 0.284509 5.71212e-21)
(1.17168 0.258232 5.93571e-20)
(1.16019 0.234339 1.29026e-20)
(1.15041 0.212501 4.62087e-21)
(1.1413 0.193629 -1.73595e-20)
(1.13226 0.177008 -2.17271e-20)
(0.436031 0.17057 -3.59427e-19)
(0.96612 0.415932 2.77256e-19)
(1.20893 0.513741 2.42957e-19)
(1.27407 0.516302 -1.67323e-19)
(1.26842 0.479635 -3.52997e-19)
(1.24451 0.435731 -7.19628e-20)
(1.22073 0.393947 -1.74264e-19)
(1.20043 0.356304 6.84048e-20)
(1.18344 0.322555 -1.27905e-20)
(1.16909 0.292218 -5.92301e-20)
(1.1569 0.264915 -2.45166e-20)
(1.14659 0.240142 -3.90232e-21)
(1.13786 0.217613 -2.14187e-20)
(1.12963 0.198289 -1.05363e-20)
(1.12159 0.180945 -4.02198e-21)
(0.447881 0.193809 5.12479e-19)
(0.967188 0.451194 -3.29966e-19)
(1.19516 0.543417 1.78288e-19)
(1.25156 0.538767 1.71044e-19)
(1.24373 0.49665 3.00189e-19)
(1.22087 0.449358 -1.93106e-19)
(1.19896 0.405231 7.36556e-20)
(1.18052 0.3658 7.72344e-20)
(1.16523 0.33062 -6.83827e-20)
(1.15241 0.299131 -1.92455e-20)
(1.1416 0.270864 -1.46122e-21)
(1.13254 0.245273 -1.28282e-20)
(1.12491 0.222112 -3.70538e-20)
(1.11762 0.202365 2.20476e-20)
(1.11066 0.184341 -3.34796e-20)
(0.456527 0.217132 -2.83344e-19)
(0.963012 0.484928 1.7699e-20)
(1.17701 0.571078 1.18399e-19)
(1.22605 0.559388 -2.57885e-19)
(1.21712 0.51212 1.07147e-19)
(1.19588 0.461668 1.66352e-20)
(1.17614 0.415373 -9.41564e-20)
(1.15977 0.374266 -3.91705e-20)
(1.14632 0.337749 1.38677e-20)
(1.13516 0.305183 5.65269e-20)
(1.12582 0.276028 5.85513e-20)
(1.11808 0.249693 3.4457e-20)
(1.11161 0.225966 2.9719e-21)
(1.1053 0.205829 -3.31118e-20)
(1.09948 0.187183 2.78373e-21)
(0.461893 0.240207 5.4424e-20)
(0.953844 0.516766 -2.97817e-19)
(1.15478 0.596462 -3.90789e-19)
(1.19781 0.577979 3.09286e-19)
(1.18878 0.525918 -1.81082e-19)
(1.16962 0.472542 9.83159e-20)
(1.15234 0.42426 7.23138e-20)
(1.13824 0.381612 4.1607e-20)
(1.12678 0.343868 4.13859e-20)
(1.11737 0.310319 3.06015e-21)
(1.1096 0.28036 -3.41992e-20)
(1.10326 0.253363 -3.63789e-20)
(1.09799 0.229143 2.60386e-21)
(1.0927 0.208655 7.47852e-21)
(1.08809 0.189467 1.34385e-20)
(0.463972 0.262705 2.17839e-19)
(0.940022 0.5464 5.63161e-19)
(1.12871 0.619295 -1.02789e-19)
(1.1671 0.594364 -1.94798e-19)
(1.15883 0.537897 3.34477e-19)
(1.14222 0.481872 1.11163e-19)
(1.12766 0.431792 1.00006e-20)
(1.11598 0.387754 -3.41987e-20)
(1.10666 0.348909 8.73429e-21)
(1.09912 0.314483 -4.31288e-20)
(1.093 0.283814 1.49285e-20)
(1.08812 0.256249 3.39331e-21)
(1.08409 0.231612 -1.25079e-20)
(1.07987 0.210814 -3.17753e-21)
(1.07654 0.191183 -9.40728e-23)
(0.462844 0.284288 -9.63939e-20)
(0.921941 0.573621 2.2181e-19)
(1.099 0.639301 1.92903e-19)
(1.13417 0.608338 -8.83288e-20)
(1.12746 0.547931 -4.60744e-20)
(1.11381 0.489549 -1.00677e-19)
(1.10218 0.437875 1.95306e-20)
(1.0931 0.392613 -3.74344e-20)
(1.08602 0.352806 -7.1303e-21)
(1.08046 0.31762 2.08691e-20)
(1.07607 0.286347 -1.1769e-20)
(1.07271 0.258314 3.47729e-21)
(1.06996 0.233341 2.55393e-21)
(1.06686 0.212274 7.14956e-21)
(1.06486 0.192315 -6.73604e-21)
(0.45865 0.304584 -1.95892e-19)
(0.899872 0.598219 -7.34188e-19)
(1.06601 0.656365 2.59063e-20)
(1.09934 0.619665 -1.1794e-19)
(1.09486 0.555892 -2.42628e-19)
(1.08451 0.495473 7.60833e-20)
(1.07602 0.442422 -8.07724e-20)
(1.06967 0.396118 2.08559e-20)
(1.06496 0.3555 1.6382e-20)
(1.06145 0.319684 -1.4621e-20)
(1.05888 0.287921 3.07728e-21)
(1.05709 0.259529 -3.82374e-21)
(1.05565 0.234303 -4.07569e-21)
(1.0537 0.212999 -2.66483e-21)
(1.05305 0.192853 5.34653e-21)
(0.451524 0.323233 1.64875e-20)
(0.873766 0.619689 3.91569e-19)
(1.03047 0.670583 1.80856e-19)
(1.06292 0.628235 1.09991e-19)
(1.06122 0.561652 8.29027e-20)
(1.05446 0.499551 5.66354e-20)
(1.04927 0.445358 3.33697e-20)
(1.04578 0.398203 -2.07716e-20)
(1.04353 0.356938 4.66834e-22)
(1.04218 0.32063 -1.05354e-20)
(1.04149 0.288501 -2.09618e-21)
(1.04132 0.25987 2.80818e-21)
(1.0412 0.234475 2.88945e-20)
(1.04044 0.212955 1.0593e-20)
(1.04119 0.192796 -3.3708e-20)
(0.441523 0.34007 1.20184e-19)
(0.843852 0.637535 -4.2968e-19)
(0.992788 0.681676 -4.32943e-20)
(1.02515 0.634096 -9.19545e-20)
(1.02672 0.565129 -2.4319e-20)
(1.0238 0.501699 -2.08759e-20)
(1.02207 0.446614 -1.54134e-20)
(1.02153 0.398813 2.90799e-21)
(1.02184 0.357071 5.80833e-21)
(1.02271 0.320417 9.57721e-21)
(1.02397 0.288054 -2.01206e-20)
(1.02545 0.259312 2.89946e-20)
(1.02667 0.233846 -2.61283e-20)
(1.02722 0.212133 1.13648e-20)
(1.02953 0.192137 3.17966e-20)
(0.428781 0.354894 -3.40103e-19)
(0.810899 0.651748 5.19711e-19)
(0.953189 0.689374 -2.39016e-21)
(0.986298 0.637162 -5.49212e-20)
(0.991566 0.566252 4.58585e-20)
(0.992688 0.501844 -8.8263e-21)
(0.994524 0.446131 5.74498e-21)
(0.997042 0.397898 2.49987e-20)
(0.999977 0.35586 -6.68002e-20)
(1.00313 0.319011 2.46173e-20)
(1.00638 0.286547 4.21402e-21)
(1.00952 0.257819 -4.47662e-20)
(1.01216 0.232381 4.07699e-20)
(1.01429 0.210526 -1.28789e-20)
(1.01853 0.190923 1.73629e-20)
(0.413467 0.367403 4.32819e-19)
(0.775386 0.662159 -3.89188e-19)
(0.911996 0.693539 -8.94989e-20)
(0.946604 0.637353 3.95767e-20)
(0.955939 0.56496 -2.09464e-20)
(0.961264 0.499927 2.19481e-20)
(0.966768 0.443861 -3.48091e-20)
(0.972409 0.39542 3.95261e-20)
(0.978029 0.353273 4.63073e-20)
(0.983513 0.316386 -8.3613e-20)
(0.988772 0.283953 2.24544e-20)
(0.993573 0.25534 -1.00781e-20)
(0.997761 0.229978 -2.98325e-21)
(1.00196 0.208016 -4.99949e-20)
(1.00838 0.189334 -2.69785e-20)
(0.395891 0.377392 -1.48127e-19)
(0.737748 0.668626 8.68408e-20)
(0.869557 0.694084 1.0733e-20)
(0.906329 0.634598 2.89563e-20)
(0.92004 0.561204 1.97299e-20)
(0.929693 0.495902 -2.81752e-20)
(0.938936 0.439766 5.89606e-20)
(0.947753 0.391348 -5.21688e-20)
(0.956098 0.349287 7.26847e-20)