/*--------------------------------*- C++ -*----------------------------------*\
  =========                 |
  \\      /  F ield         | OpenFOAM: The Open Source CFD Toolbox
   \\    /   O peration     | Website:  https://openfoam.org
    \\  /    A nd           | Version:  7
     \\/     M anipulation  |
\*---------------------------------------------------------------------------*/
FoamFile
{
    version     2.0;
    format      ascii;
    class       volScalarField;
    location    "45";
    object      p;
}
// * * * * * * * * * * * * * * * * * * * * * * * * * * * * * * * * * * * * * //

dimensions      [0 2 -2 0 0 0 0];

internalField   nonuniform List<scalar> 
3500
(
-0.194658
-0.192171
-0.189632
-0.187039
-0.184393
-0.181695
-0.178945
-0.176144
-0.173293
-0.170394
-0.167447
-0.164454
-0.161418
-0.158339
-0.155221
-0.152064
-0.148873
-0.14565
-0.142397
-0.139119
-0.135817
-0.132496
-0.129158
-0.125809
-0.12245
-0.119088
-0.115725
-0.112365
-0.109012
-0.105671
-0.102345
-0.0990375
-0.0957532
-0.0924956
-0.0892683
-0.0860748
-0.0829188
-0.0798032
-0.0767314
-0.0737062
-0.0707303
-0.0678064
-0.0649369
-0.0621239
-0.0593695
-0.0566754
-0.0540433
-0.0514744
-0.04897
-0.0465311
-0.0441584
-0.0418526
-0.0396141
-0.0374432
-0.0353399
-0.0333044
-0.0313362
-0.0294353
-0.0276011
-0.025833
-0.0241306
-0.0224929
-0.0209193
-0.0194089
-0.0179607
-0.0165737
-0.015247
-0.0139795
-0.0127702
-0.011618
-0.0105218
-0.0094806
-0.00849337
-0.0075591
-0.00667682
-0.00584561
-0.00506461
-0.00433303
-0.00365016
-0.00301536
-0.00242814
-0.0018881
-0.00139501
-0.000948851
-0.000549704
-0.000198389
0.000105564
0.000355484
0.0005706
0.000652013
0.000933515
-0.195047
-0.192565
-0.19003
-0.187442
-0.1848
-0.182106
-0.17936
-0.176562
-0.173715
-0.170818
-0.167873
-0.164882
-0.161847
-0.158769
-0.155651
-0.152494
-0.149303
-0.146078
-0.142824
-0.139543
-0.136238
-0.132914
-0.129574
-0.12622
-0.122858
-0.119491
-0.116122
-0.112757
-0.109398
-0.106051
-0.102718
-0.0994047
-0.0961137
-0.0928492
-0.0896149
-0.0864148
-0.0832524
-0.0801265
-0.0770482
-0.0740162
-0.0710332
-0.0681022
-0.0652257
-0.0624058
-0.0596445
-0.0569437
-0.054305
-0.0517296
-0.0492189
-0.0467738
-0.0443951
-0.0420835
-0.0398393
-0.0376628
-0.0355543
-0.0335135
-0.0315403
-0.0296345
-0.0277956
-0.0260229
-0.024316
-0.0226741
-0.0210963
-0.0195818
-0.0181297
-0.0167389
-0.0154085
-0.0141374
-0.0129245
-0.0117688
-0.0106692
-0.00962472
-0.00863422
-0.00769671
-0.00681123
-0.00597685
-0.00519269
-0.00445793
-0.00377186
-0.00313382
-0.00254326
-0.00199977
-0.00150303
-0.001053
-0.000649502
-0.000293559
1.66783e-05
0.000271848
0.000499392
0.00058197
0.000855317
-0.195758
-0.193284
-0.190757
-0.188176
-0.185541
-0.182854
-0.180114
-0.177322
-0.17448
-0.171587
-0.168647
-0.165659
-0.162626
-0.15955
-0.156433
-0.153277
-0.150085
-0.146859
-0.143603
-0.140319
-0.137011
-0.133683
-0.130339
-0.126975
-0.1236
-0.120228
-0.116852
-0.113479
-0.110112
-0.106755
-0.103412
-0.100088
-0.0967863
-0.0935107
-0.0902649
-0.0870528
-0.0838777
-0.0807429
-0.0776519
-0.0746074
-0.0716123
-0.0686692
-0.0657807
-0.0629489
-0.0601759
-0.0574634
-0.0548132
-0.0522266
-0.0497048
-0.0472488
-0.0448595
-0.0425374
-0.0402829
-0.0380965
-0.0359781
-0.0339278
-0.0319453
-0.0300304
-0.0281826
-0.0264013
-0.0246859
-0.0230357
-0.0214498
-0.0199274
-0.0184675
-0.0170692
-0.0157313
-0.0144529
-0.0132329
-0.0120702
-0.0109636
-0.00991224
-0.00891494
-0.00797068
-0.00707849
-0.0062374
-0.00544651
-0.00470498
-0.00401202
-0.00336696
-0.00276917
-0.00221816
-0.00171344
-0.00125498
-0.000841949
-0.000476104
-0.000152575
0.000113605
0.00036369
0.000455436
0.000720955
-0.19419
-0.191675
-0.189105
-0.186482
-0.183804
-0.181074
-0.178291
-0.175456
-0.172571
-0.169636
-0.166654
-0.163625
-0.160553
-0.157438
-0.154284
-0.151092
-0.147866
-0.144608
-0.141322
-0.138011
-0.134678
-0.131328
-0.127962
-0.124587
-0.121205
-0.117821
-0.114438
-0.111061
-0.107694
-0.104341
-0.101006
-0.0976927
-0.0944054
-0.0911476
-0.087923
-0.0847352
-0.0815876
-0.0784834
-0.0754257
-0.0724174
-0.0694611
-0.0665592
-0.0637141
-0.0609278
-0.0582021
-0.0555387
-0.0529389
-0.0504041
-0.0479352
-0.045533
-0.0431983
-0.0409313
-0.0387325
-0.0366018
-0.0345394
-0.0325449
-0.0306182
-0.0287586
-0.0269658
-0.025239
-0.0235774
-0.0219804
-0.0204469
-0.018976
-0.0175668
-0.0162181
-0.0149289
-0.0136982
-0.0125248
-0.0114077
-0.0103457
-0.00933777
-0.00838285
-0.00747992
-0.00662799
-0.0058261
-0.00507338
-0.00436898
-0.00371213
-0.00310207
-0.00253829
-0.00201994
-0.00154713
-0.00111792
-0.000735522
-0.000390614
-0.000105703
0.000174555
0.000292099
0.000559605
-0.195152
-0.192649
-0.190092
-0.18748
-0.184814
-0.182094
-0.179322
-0.176497
-0.173621
-0.170695
-0.16772
-0.164699
-0.161633
-0.158524
-0.155374
-0.152186
-0.148963
-0.145708
-0.142424
-0.139114
-0.135781
-0.132429
-0.129062
-0.125683
-0.122298
-0.11891
-0.115523
-0.112141
-0.108769
-0.105409
-0.102068
-0.0987471
-0.0954519
-0.0921859
-0.0889526
-0.0857558
-0.0825987
-0.0794848
-0.076417
-0.0733982
-0.0704312
-0.0675184
-0.0646621
-0.0618644
-0.0591272
-0.056452
-0.0538403
-0.0512934
-0.0488123
-0.0463977
-0.0440505
-0.0417709
-0.0395593
-0.0374159
-0.0353405
-0.033333
-0.0313931
-0.0295203
-0.0277141
-0.0259739
-0.0242989
-0.0226882
-0.0211411
-0.0196564
-0.0182333
-0.0168706
-0.0155674
-0.0143224
-0.0131347
-0.012003
-0.0109263
-0.00990345
-0.0089334
-0.00801506
-0.00714742
-0.00632944
-0.0055602
-0.00483874
-0.00416423
-0.00353571
-0.00295263
-0.00241365
-0.00191924
-0.0014659
-0.0010588
-0.00068396
-0.000370115
-5.34869e-05
0.000110138
0.000394387
-0.19595
-0.193469
-0.190933
-0.188341
-0.185694
-0.182993
-0.180237
-0.177429
-0.174569
-0.171658
-0.168698
-0.16569
-0.162637
-0.15954
-0.156402
-0.153225
-0.150013
-0.146767
-0.143492
-0.14019
-0.136865
-0.13352
-0.130159
-0.126787
-0.123407
-0.120024
-0.116641
-0.113262
-0.109892
-0.106535
-0.103194
-0.0998743
-0.0965793
-0.0933128
-0.0900785
-0.08688
-0.0837207
-0.0806038
-0.0775325
-0.0745097
-0.071538
-0.0686199
-0.0657577
-0.0629535
-0.0602092
-0.0575264
-0.0549065
-0.0523508
-0.0498604
-0.047436
-0.0450783
-0.0427879
-0.0405649
-0.0384095
-0.0363217
-0.0343013
-0.032348
-0.0304615
-0.0286411
-0.0268861
-0.025196
-0.0235699
-0.0220068
-0.0205058
-0.019066
-0.0176862
-0.0163655
-0.0151026
-0.0138966
-0.0127462
-0.0116504
-0.0106079
-0.00961779
-0.00867882
-0.00778996
-0.00695011
-0.00615828
-0.00541336
-0.00471449
-0.00406042
-0.00345066
-0.00288322
-0.00235903
-0.00187308
-0.00143206
-0.00101896
-0.000664605
-0.000305628
-7.82353e-05
0.000238148
-0.19399
-0.191478
-0.188911
-0.186288
-0.18361
-0.180879
-0.178094
-0.175257
-0.172369
-0.169432
-0.166447
-0.163417
-0.160342
-0.157226
-0.154072
-0.150881
-0.147656
-0.144402
-0.141121
-0.137816
-0.134491
-0.13115
-0.127797
-0.124435
-0.121069
-0.117703
-0.11434
-0.110986
-0.107643
-0.104316
-0.10101
-0.0977267
-0.0944714
-0.0912473
-0.0880579
-0.0849068
-0.0817971
-0.0787319
-0.075714
-0.0727462
-0.0698308
-0.0669703
-0.0641666
-0.0614217
-0.0587371
-0.0561144
-0.0535548
-0.0510593
-0.0486287
-0.0462639
-0.0439652
-0.0417329
-0.0395673
-0.0374683
-0.0354358
-0.0334695
-0.031569
-0.0297337
-0.0279632
-0.0262566
-0.0246132
-0.0230321
-0.0215124
-0.0200531
-0.0186532
-0.0173115
-0.0160271
-0.0147987
-0.0136253
-0.0125058
-0.0114388
-0.0104234
-0.00945837
-0.00854255
-0.0076748
-0.00685404
-0.00607905
-0.00534888
-0.00466203
-0.004018
-0.0034143
-0.00285203
-0.00232535
-0.00184114
-0.00138216
-0.000976308
-0.000568775
-0.000265664
9.61758e-05
-0.191483
-0.188966
-0.186392
-0.183763
-0.181078
-0.178338
-0.175546
-0.172701
-0.169806
-0.166863
-0.163873
-0.160839
-0.157762
-0.154646
-0.151493
-0.148307
-0.14509
-0.141845
-0.138576
-0.135286
-0.13198
-0.128661
-0.125332
-0.121999
-0.118664
-0.115332
-0.112007
-0.108692
-0.105393
-0.102112
-0.0988536
-0.0956214
-0.0924192
-0.0892503
-0.0861181
-0.0830258
-0.0799764
-0.0769728
-0.0740175
-0.0711131
-0.0682619
-0.0654659
-0.062727
-0.0600468
-0.0574268
-0.0548682
-0.0523722
-0.0499396
-0.0475711
-0.0452672
-0.0430283
-0.0408545
-0.038746
-0.0367025
-0.0347239
-0.0328098
-0.0309597
-0.0291731
-0.0274493
-0.0257874
-0.0241868
-0.0226465
-0.0211655
-0.0197428
-0.0183775
-0.0170683
-0.0158142
-0.0146141
-0.0134667
-0.012371
-0.0113258
-0.0103298
-0.00938186
-0.0084808
-0.00762545
-0.00681444
-0.00604675
-0.00532068
-0.00463561
-0.00398884
-0.00338117
-0.00280688
-0.00227149
-0.00176019
-0.00129406
-0.000831705
-0.000446172
-2.84725e-05
-0.190856
-0.188396
-0.185879
-0.183305
-0.180677
-0.177994
-0.175258
-0.172471
-0.169633
-0.166748
-0.163816
-0.160839
-0.157821
-0.154762
-0.151668
-0.148539
-0.145379
-0.142191
-0.138979
-0.135745
-0.132494
-0.12923
-0.125955
-0.122675
-0.119392
-0.11611
-0.112834
-0.109568
-0.106314
-0.103078
-0.0998619
-0.0966705
-0.0935069
-0.0903746
-0.0872769
-0.0842168
-0.0811973
-0.0782212
-0.0752912
-0.0724096
-0.0695788
-0.0668008
-0.0640775
-0.0614105
-0.0588014
-0.0562514
-0.0537616
-0.051333
-0.0489662
-0.0466619
-0.0444205
-0.0422421
-0.0401269
-0.0380749
-0.0360859
-0.0341595
-0.0322954
-0.030493
-0.0287518
-0.027071
-0.0254499
-0.0238875
-0.0223831
-0.0209356
-0.0195441
-0.0182074
-0.0169244
-0.0156942
-0.0145154
-0.0133869
-0.0123076
-0.0112762
-0.0102915
-0.00935224
-0.00845713
-0.00760478
-0.00679401
-0.00602308
-0.00529108
-0.00459545
-0.00393622
-0.00330863
-0.00271574
-0.00214682
-0.00161429
-0.00109137
-0.000619729
-0.000136045
-0.187301
-0.184908
-0.182454
-0.179939
-0.177366
-0.174737
-0.172053
-0.169316
-0.166527
-0.16369
-0.160806
-0.157878
-0.154908
-0.151899
-0.148853
-0.145775
-0.142666
-0.139531
-0.136372
-0.133194
-0.13
-0.126793
-0.123577
-0.120356
-0.117135
-0.113916
-0.110704
-0.107502
-0.104314
-0.101144
-0.0979949
-0.094871
-0.0917755
-0.0887116
-0.0856823
-0.0826907
-0.0797394
-0.0768311
-0.0739683
-0.0711533
-0.0683883
-0.0656751
-0.0630156
-0.0604112
-0.0578633
-0.0553732
-0.0529417
-0.0505697
-0.048258
-0.0460069
-0.0438168
-0.0416879
-0.0396202
-0.0376136
-0.035668
-0.033783
-0.031958
-0.0301927
-0.0284864
-0.0268382
-0.0252476
-0.0237135
-0.022235
-0.0208113
-0.0194412
-0.0181236
-0.0168575
-0.0156417
-0.0144751
-0.0133563
-0.0122842
-0.0112575
-0.0102748
-0.0093348
-0.00843609
-0.00757725
-0.00675664
-0.00597288
-0.00522385
-0.00450845
-0.00382344
-0.00316887
-0.00253873
-0.00193669
-0.00134996
-0.000793153
-0.000237668
-0.184098
-0.18181
-0.17946
-0.177048
-0.174578
-0.172051
-0.169468
-0.166831
-0.164144
-0.161407
-0.158624
-0.155796
-0.152927
-0.150018
-0.147074
-0.144097
-0.141089
-0.138056
-0.134999
-0.131922
-0.128828
-0.125722
-0.122607
-0.119487
-0.116364
-0.113244
-0.110129
-0.107023
-0.10393
-0.100853
-0.0977951
-0.0947606
-0.0917522
-0.088773
-0.085826
-0.082914
-0.0800396
-0.0772054
-0.0744136
-0.0716666
-0.0689663
-0.0663145
-0.063713
-0.0611632
-0.0586664
-0.0562238
-0.0538363
-0.0515048
-0.0492299
-0.0470121
-0.0448518
-0.0427492
-0.0407043
-0.0387171
-0.0367874
-0.034915
-0.0330994
-0.0313403
-0.0296369
-0.0279887
-0.0263949
-0.0248547
-0.0233673
-0.0219318
-0.020547
-0.0192121
-0.0179259
-0.0166874
-0.0154953
-0.0143485
-0.0132458
-0.0121857
-0.0111671
-0.0101885
-0.00924852
-0.00834558
-0.00747824
-0.00664463
-0.00584326
-0.00507184
-0.00432893
-0.00361145
-0.00291829
-0.00224483
-0.00159095
-0.000948599
-0.000320153
-0.177745
-0.175637
-0.173464
-0.171228
-0.168931
-0.166575
-0.164163
-0.161697
-0.159179
-0.156611
-0.153996
-0.151337
-0.148637
-0.145897
-0.143122
-0.140313
-0.137475
-0.13461
-0.131721
-0.128812
-0.125886
-0.122947
-0.119998
-0.117042
-0.114083
-0.111124
-0.108169
-0.10522
-0.102282
-0.0993579
-0.0964501
-0.093562
-0.0906966
-0.0878567
-0.0850452
-0.0822645
-0.0795173
-0.0768058
-0.0741322
-0.0714986
-0.0689069
-0.0663588
-0.0638558
-0.0613994
-0.0589909
-0.0566314
-0.0543219
-0.052063
-0.0498557
-0.0477002
-0.0455972
-0.0435467
-0.0415491
-0.0396042
-0.037712
-0.0358723
-0.0340849
-0.0323492
-0.030665
-0.0290315
-0.0274483
-0.0259145
-0.0244294
-0.0229922
-0.021602
-0.0202578
-0.0189587
-0.0177036
-0.0164915
-0.0153211
-0.0141913
-0.0131009
-0.0120485
-0.0110328
-0.0100525
-0.00910584
-0.00819164
-0.00730766
-0.00645305
-0.00562453
-0.00482229
-0.00404078
-0.0032829
-0.00253785
-0.00181527
-0.00109129
-0.00039039
-0.171685
-0.169747
-0.167744
-0.165677
-0.16355
-0.161364
-0.159121
-0.156823
-0.154474
-0.152075
-0.149629
-0.147139
-0.144607
-0.142036
-0.139429
-0.136788
-0.134117
-0.131419
-0.128696
-0.125952
-0.123191
-0.120414
-0.117626
-0.11483
-0.112029
-0.109226
-0.106424
-0.103626
-0.100836
-0.0980562
-0.0952899
-0.09254
-0.0898091
-0.0870999
-0.0844151
-0.081757
-0.079128
-0.0765303
-0.073966
-0.071437
-0.0689452
-0.0664921
-0.0640793
-0.0617083
-0.0593801
-0.057096
-0.054857
-0.0526637
-0.050517
-0.0484174
-0.0463654
-0.0443612
-0.0424051
-0.0404972
-0.0386375
-0.0368258
-0.0350621
-0.0333459
-0.0316769
-0.0300546
-0.0284785
-0.026948
-0.0254625
-0.0240211
-0.0226231
-0.0212676
-0.0199537
-0.0186804
-0.0174467
-0.0162516
-0.0150938
-0.0139723
-0.0128857
-0.0118327
-0.0108121
-0.00982205
-0.00886166
-0.00792842
-0.00702198
-0.00613842
-0.0052791
-0.00443687
-0.00361743
-0.00280603
-0.00201872
-0.00122125
-0.000450569
-0.165521
-0.163759
-0.16193
-0.160037
-0.158082
-0.156068
-0.153995
-0.151868
-0.149689
-0.147459
-0.145182
-0.142859
-0.140495
-0.138091
-0.135651
-0.133176
-0.130671
-0.128137
-0.125578
-0.122997
-0.120397
-0.11778
-0.115151
-0.112511
-0.109865
-0.107214
-0.104562
-0.101912
-0.0992669
-0.0966292
-0.0940017
-0.0913873
-0.0887884
-0.0862075
-0.0836472
-0.0811097
-0.0785971
-0.0761117
-0.0736553
-0.0712297
-0.0688368
-0.0664781
-0.0641551
-0.061869
-0.0596213
-0.0574128
-0.0552446
-0.0531176
-0.0510324
-0.0489896
-0.0469897
-0.0450332
-0.0431202
-0.041251
-0.0394255
-0.0376438
-0.0359058
-0.0342111
-0.0325596
-0.0309509
-0.0293844
-0.0278597
-0.0263762
-0.0249333
-0.0235302
-0.0221661
-0.0208402
-0.0195516
-0.0182994
-0.0170825
-0.0159
-0.0147505
-0.0136331
-0.0125463
-0.011489
-0.0104595
-0.00945701
-0.00847886
-0.00752512
-0.00659151
-0.0056802
-0.0047831
-0.00390767
-0.00303676
-0.00219017
-0.00132759
-0.000493978
-0.159604
-0.158005
-0.156339
-0.154609
-0.152816
-0.150963
-0.149052
-0.147086
-0.145067
-0.142998
-0.140881
-0.138719
-0.136514
-0.13427
-0.131988
-0.129672
-0.127324
-0.124947
-0.122544
-0.120118
-0.117671
-0.115207
-0.112728
-0.110238
-0.107738
-0.105232
-0.102723
-0.100213
-0.0977055
-0.0952025
-0.0927068
-0.090221
-0.0877474
-0.0852884
-0.0828463
-0.0804233
-0.0780214
-0.0756426
-0.0732888
-0.0709617
-0.068663
-0.0663942
-0.0641568
-0.061952
-0.059781
-0.0576449
-0.0555447
-0.0534812
-0.0514552
-0.0494672
-0.0475177
-0.0456073
-0.0437362
-0.0419047
-0.0401127
-0.0383605
-0.0366479
-0.0349749
-0.0333411
-0.0317462
-0.03019
-0.028672
-0.0271916
-0.0257483
-0.0243415
-0.0229704
-0.0216343
-0.0203324
-0.0190637
-0.0178274
-0.0166225
-0.0154478
-0.0143025
-0.013185
-0.0120944
-0.011029
-0.00998823
-0.00896934
-0.00797269
-0.00699383
-0.00603549
-0.00508905
-0.0041631
-0.0032391
-0.00233931
-0.00141984
-0.000530574
-0.153927
-0.152485
-0.150975
-0.149399
-0.147761
-0.146062
-0.144305
-0.142492
-0.140626
-0.13871
-0.136746
-0.134735
-0.132682
-0.130589
-0.128458
-0.126291
-0.124092
-0.121864
-0.119608
-0.117328
-0.115026
-0.112705
-0.110368
-0.108018
-0.105656
-0.103287
-0.100912
-0.0985337
-0.0961553
-0.093779
-0.0914072
-0.0890423
-0.0866865
-0.0843422
-0.0820114
-0.0796962
-0.0773986
-0.0751204
-0.0728634
-0.0706294
-0.0684199
-0.0662363
-0.0640801
-0.0619524
-0.0598545
-0.0577875
-0.0557522
-0.0537495
-0.0517802
-0.0498449
-0.0479442
-0.0460784
-0.0442481
-0.0424533
-0.0406944
-0.0389713
-0.0372841
-0.0356328
-0.0340171
-0.0324369
-0.0308918
-0.0293815
-0.0279055
-0.0264634
-0.0250545
-0.0236783
-0.022334
-0.021021
-0.0197383
-0.0184852
-0.0172608
-0.016064
-0.0148938
-0.0137491
-0.0126289
-0.0115315
-0.0104566
-0.0094013
-0.00836635
-0.00734717
-0.00634691
-0.00535664
-0.00438578
-0.00341493
-0.00246803
-0.00149882
-0.000560526
-0.148526
-0.14723
-0.145867
-0.144437
-0.142945
-0.141391
-0.139779
-0.138111
-0.136389
-0.134617
-0.132796
-0.130929
-0.129018
-0.127066
-0.125076
-0.123051
-0.120992
-0.118902
-0.116784
-0.114641
-0.112474
-0.110288
-0.108084
-0.105865
-0.103633
-0.101391
-0.0991413
-0.0968866
-0.0946293
-0.0923715
-0.0901157
-0.087864
-0.0856187
-0.0833818
-0.0811554
-0.0789415
-0.0767418
-0.0745582
-0.0723924
-0.070246
-0.0681205
-0.0660173
-0.0639378
-0.0618832
-0.0598545
-0.057853
-0.0558794
-0.0539347
-0.0520196
-0.0501348
-0.0482808
-0.0464581
-0.044667
-0.042908
-0.0411812
-0.0394867
-0.0378247
-0.036195
-0.0345976
-0.0330324
-0.031499
-0.0299973
-0.0285267
-0.027087
-0.0256776
-0.0242979
-0.0229474
-0.0216253
-0.0203309
-0.0190635
-0.0178222
-0.016606
-0.0154142
-0.0142455
-0.0130992
-0.0119735
-0.0108683
-0.00978081
-0.00871191
-0.00765704
-0.00661967
-0.00559072
-0.00458023
-0.0035682
-0.00257988
-0.00156727
-0.000586179
-0.143402
-0.142244
-0.141018
-0.139725
-0.138369
-0.136951
-0.135475
-0.133943
-0.132356
-0.130719
-0.129032
-0.127299
-0.125522
-0.123703
-0.121846
-0.119952
-0.118024
-0.116064
-0.114075
-0.11206
-0.110021
-0.10796
-0.10588
-0.103784
-0.101673
-0.0995501
-0.0974179
-0.0952785
-0.0931343
-0.0909874
-0.08884
-0.0866943
-0.0845523
-0.082416
-0.0802873
-0.0781682
-0.0760603
-0.0739654
-0.0718852
-0.0698211
-0.0677746
-0.0657471
-0.0637399
-0.0617542
-0.059791
-0.0578515
-0.0559365
-0.0540468
-0.0521833
-0.0503466
-0.0485372
-0.0467558
-0.0450026
-0.0432781
-0.0415824
-0.0399158
-0.0382784
-0.0366702
-0.0350911
-0.0335411
-0.03202
-0.0305275
-0.0290634
-0.0276272
-0.0262185
-0.0248369
-0.0234817
-0.0221525
-0.0208485
-0.0195691
-0.0183134
-0.0170806
-0.01587
-0.0146804
-0.0135111
-0.0123607
-0.0112288
-0.010113
-0.00901427
-0.00792801
-0.006858
-0.00579507
-0.00474978
-0.00370169
-0.00267713
-0.00162667
-0.000608293
-0.13855
-0.13752
-0.136422
-0.135257
-0.134029
-0.132739
-0.13139
-0.129984
-0.128524
-0.127013
-0.125453
-0.123845
-0.122193
-0.120499
-0.118766
-0.116995
-0.115189
-0.113351
-0.111484
-0.109588
-0.107667
-0.105724
-0.10376
-0.101778
-0.0997802
-0.0977688
-0.0957462
-0.0937144
-0.0916758
-0.0896324
-0.0875863
-0.0855396
-0.0834941
-0.0814518
-0.0794146
-0.0773841
-0.0753622
-0.0733504
-0.0713504
-0.0693635
-0.0673913
-0.0654349
-0.0634958
-0.061575
-0.0596735
-0.0577926
-0.0559329
-0.0540954
-0.0522809
-0.05049
-0.0487232
-0.0469812
-0.0452644
-0.043573
-0.0419075
-0.040268
-0.0386546
-0.0370676
-0.0355067
-0.0339721
-0.0324635
-0.0309808
-0.0295237
-0.028092
-0.0266853
-0.025303
-0.0239449
-0.0226102
-0.0212985
-0.0200091
-0.0187414
-0.0174944
-0.0162676
-0.0150599
-0.0138708
-0.0126988
-0.0115437
-0.0104031
-0.00927823
-0.00816448
-0.0070659
-0.00597323
-0.00489752
-0.00381794
-0.00276174
-0.00167832
-0.00062751
-0.133966
-0.133055
-0.132076
-0.13103
-0.129921
-0.12875
-0.12752
-0.126233
-0.124892
-0.123498
-0.122056
-0.120565
-0.11903
-0.117453
-0.115835
-0.11418
-0.112488
-0.110764
-0.109009
-0.107225
-0.105415
-0.103581
-0.101726
-0.0998504
-0.097958
-0.0960504
-0.0941299
-0.0921986
-0.0902585
-0.0883116
-0.0863601
-0.0844056
-0.0824503
-0.0804958
-0.0785439
-0.0765964
-0.0746549
-0.0727209
-0.0707959
-0.0688815
-0.0669788
-0.0650893
-0.063214
-0.0613543
-0.059511
-0.0576852
-0.0558779
-0.0540898
-0.0523216
-0.0505742
-0.048848
-0.0471436
-0.0454614
-0.0438019
-0.0421654
-0.0405521
-0.0389622
-0.0373958
-0.035853
-0.0343337
-0.0328378
-0.0313653
-0.029916
-0.0284895
-0.0270856
-0.025704
-0.0243441
-0.0230056
-0.0216879
-0.0203905
-0.0191127
-0.0178538
-0.0166133
-0.0153901
-0.0141838
-0.0129931
-0.0118178
-0.0106558
-0.00950808
-0.00837038
-0.00724689
-0.00612831
-0.00502607
-0.00391905
-0.00283533
-0.00172322
-0.000644221
-0.129645
-0.128845
-0.127976
-0.127041
-0.126043
-0.124982
-0.123863
-0.122686
-0.121455
-0.120172
-0.118839
-0.117458
-0.116032
-0.114563
-0.113053
-0.111505
-0.10992
-0.108302
-0.106652
-0.104972
-0.103265
-0.101533
-0.0997786
-0.098003
-0.0962087
-0.0943979
-0.0925725
-0.0907347
-0.0888864
-0.0870296
-0.0851661
-0.0832977
-0.0814264
-0.0795538
-0.0776817
-0.0758116
-0.0739451
-0.0720838
-0.0702291
-0.0683823
-0.0665448
-0.0647179
-0.0629026
-0.0611002
-0.0593116
-0.0575378
-0.0557798
-0.0540382
-0.052314
-0.0506077
-0.0489199
-0.0472513
-0.0456023
-0.0439733
-0.0423646
-0.0407765
-0.0392093
-0.0376631
-0.0361379
-0.0346338
-0.0331508
-0.0316888
-0.0302476
-0.0288271
-0.0274269
-0.0260468
-0.0246865
-0.0233454
-0.0220232
-0.0207194
-0.0194335
-0.0181647
-0.0169126
-0.0156762
-0.0144553
-0.0132485
-0.0120558
-0.0108751
-0.00970772
-0.00854923
-0.0074041
-0.006263
-0.00513771
-0.00400686
-0.00289921
-0.0017622
-0.000658733
-0.125583
-0.124885
-0.124119
-0.123286
-0.12239
-0.121432
-0.120415
-0.119341
-0.118212
-0.117031
-0.1158
-0.114521
-0.113196
-0.111828
-0.110419
-0.10897
-0.107485
-0.105965
-0.104413
-0.10283
-0.101219
-0.0995821
-0.097921
-0.0962379
-0.0945349
-0.0928141
-0.0910772
-0.0893264
-0.0875635
-0.0857904
-0.0840089
-0.0822207
-0.0804276
-0.0786313
-0.0768335
-0.0750355
-0.0732391
-0.0714456
-0.0696564
-0.0678729
-0.0660964
-0.064328
-0.062569
-0.0608203
-0.059083
-0.057358
-0.0556463
-0.0539486
-0.0522657
-0.0505983
-0.048947
-0.0473123
-0.0456948
-0.0440948
-0.0425128
-0.0409489
-0.0394036
-0.0378769
-0.036369
-0.0348799
-0.0334097
-0.0319583
-0.0305256
-0.0291115
-0.0277157
-0.026338
-0.0249782
-0.0236358
-0.0223105
-0.0210018
-0.0197093
-0.0184324
-0.0171706
-0.0159232
-0.0146899
-0.0134693
-0.0122617
-0.011065
-0.00988059
-0.00870415
-0.0075403
-0.00637971
-0.00523445
-0.00408294
-0.00295456
-0.00179597
-0.000671302
-0.121776
-0.121171
-0.120499
-0.119761
-0.118959
-0.118096
-0.117174
-0.116194
-0.115161
-0.114074
-0.112938
-0.111753
-0.110522
-0.109248
-0.107931
-0.106576
-0.105182
-0.103754
-0.102292
-0.100799
-0.0992774
-0.0977284
-0.0961543
-0.0945572
-0.092939
-0.0913017
-0.089647
-0.087977
-0.0862934
-0.0845981
-0.0828927
-0.081179
-0.0794587
-0.0777333
-0.0760045
-0.0742737
-0.0725425
-0.0708121
-0.0690841
-0.0673596
-0.0656399
-0.0639262
-0.0622196
-0.0605212
-0.0588319
-0.0571527
-0.0554845
-0.053828
-0.0521841
-0.0505533
-0.0489363
-0.0473338
-0.0457461
-0.0441737
-0.0426171
-0.0410764
-0.0395521
-0.0380443
-0.0365531
-0.0350787
-0.0336212
-0.0321804
-0.0307564
-0.0293491
-0.0279582
-0.0265837
-0.0252252
-0.0238824
-0.0225552
-0.0212429
-0.0199453
-0.0186619
-0.0173922
-0.0161355
-0.0148917
-0.0136595
-0.0124393
-0.0112288
-0.0100298
-0.00883792
-0.00765795
-0.00648054
-0.00531804
-0.00414869
-0.00300239
-0.00182514
-0.000682153
-0.118217
-0.117699
-0.117113
-0.116461
-0.115746
-0.114971
-0.114136
-0.113244
-0.112298
-0.111299
-0.110249
-0.109152
-0.108008
-0.10682
-0.10559
-0.10432
-0.103012
-0.101668
-0.10029
-0.0988807
-0.0974411
-0.0959737
-0.0944802
-0.0929627
-0.091423
-0.089863
-0.0882845
-0.0866894
-0.0850793
-0.083456
-0.0818213
-0.0801767
-0.0785238
-0.0768643
-0.0751995
-0.0735311
-0.0718604
-0.0701888
-0.0685176
-0.066848
-0.0651812
-0.0635185
-0.0618608
-0.0602093
-0.0585648
-0.0569284
-0.0553009
-0.053683
-0.0520756
-0.0504792
-0.0488946
-0.0473223
-0.0457628
-0.0442166
-0.042684
-0.0411655
-0.0396613
-0.0381716
-0.0366966
-0.0352365
-0.0337913
-0.0323612
-0.030946
-0.0295456
-0.0281601
-0.0267892
-0.0254328
-0.0240906
-0.0227623
-0.0214476
-0.0201462
-0.0188576
-0.0175815
-0.0163173
-0.0150647
-0.0138227
-0.0125917
-0.0113696
-0.0101581
-0.00895304
-0.00775923
-0.00656738
-0.00539004
-0.00420534
-0.0030436
-0.00185027
-0.000691489
-0.114903
-0.114463
-0.113956
-0.113384
-0.112749
-0.112053
-0.111298
-0.110487
-0.109621
-0.108702
-0.107734
-0.106716
-0.105652
-0.104544
-0.103394
-0.102203
-0.100973
-0.0997077
-0.0984074
-0.0970746
-0.0957112
-0.094319
-0.0929
-0.091456
-0.0899889
-0.0885004
-0.0869922
-0.0854663
-0.0839241
-0.0823675
-0.0807981
-0.0792173
-0.0776269
-0.0760283
-0.0744229
-0.0728123
-0.0711977
-0.0695804
-0.0679619
-0.0663432
-0.0647256
-0.0631102
-0.0614981
-0.0598902
-0.0582875
-0.0566909
-0.0551013
-0.0535195
-0.0519462
-0.0503821
-0.0488278
-0.047284
-0.045751
-0.0442294
-0.0427197
-0.0412221
-0.039737
-0.0382646
-0.0368052
-0.0353589
-0.0339258
-0.0325061
-0.0310996
-0.0297065
-0.0283266
-0.0269598
-0.025606
-0.024265
-0.0229365
-0.0216203
-0.0203162
-0.0190236
-0.0177425
-0.016472
-0.0152123
-0.0139621
-0.0127221
-0.0114901
-0.0102681
-0.00905173
-0.00784611
-0.0066419
-0.00545185
-0.00425398
-0.00307898
-0.00187185
-0.00069949
-0.111828
-0.111459
-0.111024
-0.110524
-0.109962
-0.109339
-0.108657
-0.10792
-0.107128
-0.106283
-0.105388
-0.104444
-0.103454
-0.102419
-0.101342
-0.100224
-0.0990665
-0.0978726
-0.0966436
-0.0953815
-0.0940881
-0.0927653
-0.0914149
-0.0900386
-0.0886383
-0.0872156
-0.0857723
-0.0843101
-0.0828306
-0.0813354
-0.0798262
-0.0783044
-0.0767715
-0.0752291
-0.0736785
-0.0721212
-0.0705584
-0.0689915
-0.0674217
-0.0658502
-0.064278
-0.0627065
-0.0611365
-0.059569
-0.0580051
-0.0564456
-0.0548913
-0.053343
-0.0518015
-0.0502675
-0.0487416
-0.0472243
-0.0457162
-0.0442178
-0.0427295
-0.0412517
-0.0397847
-0.0383288
-0.0368842
-0.0354512
-0.0340298
-0.0326202
-0.0312224
-0.0298365
-0.0284623
-0.0270999
-0.0257492
-0.0244099
-0.023082
-0.0217651
-0.0204591
-0.0191636
-0.0178785
-0.0166031
-0.0153375
-0.0140806
-0.0128331
-0.0115928
-0.0103619
-0.00913598
-0.00792033
-0.0067056
-0.0055047
-0.00429558
-0.00310924
-0.0018903
-0.000706321
-0.108987
-0.108682
-0.108312
-0.107878
-0.107381
-0.106825
-0.106211
-0.10554
-0.104815
-0.104038
-0.10321
-0.102334
-0.101411
-0.100444
-0.099433
-0.0983814
-0.0972906
-0.0961625
-0.0949989
-0.0938017
-0.0925726
-0.0913134
-0.0900258
-0.0887117
-0.0873726
-0.0860104
-0.0846266
-0.083223
-0.081801
-0.0803623
-0.0789083
-0.0774407
-0.0759608
-0.0744701
-0.0729699
-0.0714617
-0.0699466
-0.068426
-0.0669011
-0.0653729
-0.0638428
-0.0623116
-0.0607806
-0.0592505
-0.0577224
-0.0561971
-0.0546755
-0.0531584
-0.0516464
-0.0501403
-0.0486408
-0.0471483
-0.0456634
-0.0441866
-0.0427184
-0.0412592
-0.0398092
-0.0383689
-0.0369384
-0.035518
-0.0341078
-0.0327081
-0.0313187
-0.0299399
-0.0285716
-0.0272138
-0.0258665
-0.0245294
-0.0232025
-0.0218856
-0.0205785
-0.019281
-0.0179928
-0.0167135
-0.0154432
-0.0141808
-0.012927
-0.01168
-0.0104415
-0.00920759
-0.00798346
-0.00675982
-0.00554971
-0.00433102
-0.00313502
-0.00190602
-0.000712128
-0.106374
-0.106127
-0.105816
-0.105441
-0.105004
-0.104508
-0.103955
-0.103345
-0.102681
-0.101965
-0.101199
-0.100384
-0.0995225
-0.098616
-0.0976664
-0.0966755
-0.0956452
-0.0945772
-0.0934733
-0.0923353
-0.0911648
-0.0899637
-0.0887336
-0.0874763
-0.0861933
-0.0848863
-0.083557
-0.0822069
-0.0808375
-0.0794504
-0.0780471
-0.076629
-0.0751976
-0.0737542
-0.0723003
-0.070837
-0.0693656
-0.0678875
-0.0664037
-0.0649155
-0.0634238
-0.0619298
-0.0604345
-0.0589388
-0.0574437
-0.05595
-0.0544585
-0.0529701
-0.0514854
-0.0500051
-0.04853
-0.0470604
-0.0455971
-0.0441405
-0.042691
-0.0412491
-0.0398151
-0.0383894
-0.0369721
-0.0355637
-0.0341642
-0.0327739
-0.0313927
-0.0300209
-0.0286584
-0.0273053
-0.0259614
-0.0246269
-0.0233014
-0.021985
-0.0206775
-0.0193786
-0.0180883
-0.016806
-0.0155319
-0.0142651
-0.0130062
-0.0117535
-0.0105088
-0.00926816
-0.0080369
-0.00680575
-0.00558785
-0.00436107
-0.00315688
-0.00191935
-0.000717041
-0.103985
-0.10379
-0.103531
-0.103209
-0.102827
-0.102385
-0.101886
-0.101331
-0.100723
-0.100062
-0.0993516
-0.0985923
-0.0977862
-0.0969352
-0.0960409
-0.0951052
-0.0941298
-0.0931163
-0.0920666
-0.0909824
-0.0898653
-0.0887169
-0.0875391
-0.0863334
-0.0851014
-0.0838447
-0.0825648
-0.0812634
-0.0799419
-0.0786019
-0.0772447
-0.0758717
-0.0744845
-0.0730842
-0.0716723
-0.07025
-0.0688186
-0.0673792
-0.065933
-0.0644811
-0.0630247
-0.0615647
-0.0601021
-0.0586379
-0.0571729
-0.0557081
-0.0542443
-0.0527822
-0.0513225
-0.049866
-0.0484133
-0.0469649
-0.0455214
-0.0440834
-0.0426513
-0.0412254
-0.0398063
-0.0383942
-0.0369894
-0.0355922
-0.0342028
-0.0328213
-0.031448
-0.0300829
-0.0287261
-0.0273776
-0.0260375
-0.0247056
-0.0233819
-0.0220664
-0.020759
-0.0194593
-0.0181675
-0.0168829
-0.0156059
-0.0143356
-0.0130726
-0.0118151
-0.0105653
-0.00931912
-0.00808191
-0.00684446
-0.00562002
-0.00438642
-0.00317532
-0.00193059
-0.000721178
-0.101813
-0.101665
-0.101453
-0.101179
-0.100845
-0.100452
-0.100002
-0.0994966
-0.0989378
-0.0983271
-0.0976663
-0.096957
-0.096201
-0.0953999
-0.0945555
-0.0936695
-0.0927436
-0.0917794
-0.0907786
-0.089743
-0.088674
-0.0875734
-0.0864428
-0.0852837
-0.0840978
-0.0828865
-0.0816515
-0.0803941
-0.079116
-0.0778185
-0.076503
-0.0751709
-0.0738237
-0.0724625
-0.0710887
-0.0697036
-0.0683083
-0.066904
-0.0654919
-0.0640731
-0.0626486
-0.0612194
-0.0597865
-0.0583509
-0.0569134
-0.055475
-0.0540363
-0.0525982
-0.0511614
-0.0497265
-0.0482943
-0.0468653
-0.0454401
-0.0440191
-0.0426029
-0.0411919
-0.0397865
-0.0383869
-0.0369937
-0.0356069
-0.0342269
-0.0328539
-0.0314879
-0.0301293
-0.0287779
-0.027434
-0.0260975
-0.0247684
-0.0234468
-0.0221324
-0.0208254
-0.0195254
-0.0182326
-0.0169465
-0.0156672
-0.0143941
-0.0131278
-0.0118666
-0.0106125
-0.00936173
-0.00811959
-0.0068769
-0.00564699
-0.0044077
-0.00319079
-0.00194003
-0.00072464
-0.0997485
-0.0995782
-0.0993466
-0.0990551
-0.0987055
-0.0982992
-0.097838
-0.0973235
-0.0967573
-0.0961411
-0.0954765
-0.0947652
-0.0940089
-0.0932091
-0.0923676
-0.0914861
-0.090566
-0.0896091
-0.0886169
-0.0875912
-0.0865334
-0.0854451
-0.0843279
-0.0831833
-0.0820129
-0.080818
-0.0796003
-0.078361
-0.0771017
-0.0758238
-0.0745284
-0.0732171
-0.0718911
-0.0705516
-0.0691999
-0.0678372
-0.0664645
-0.0650831
-0.063694
-0.0622983
-0.0608969
-0.0594909
-0.0580811
-0.0566684
-0.0552537
-0.0538378
-0.0524214
-0.0510052
-0.04959
-0.0481764
-0.046765
-0.0453563
-0.0439509
-0.0425492
-0.0411517
-0.0397588
-0.0383708
-0.0369881
-0.035611
-0.0342397
-0.0328745
-0.0315154
-0.0301628
-0.0288166
-0.0274771
-0.0261442
-0.0248179
-0.0234983
-0.0221854
-0.020879
-0.0195792
-0.0182858
-0.0169985
-0.0157176
-0.0144423
-0.0131734
-0.0119092
-0.0106517
-0.00939715
-0.00815094
-0.00690392
-0.00566947
-0.00442543
-0.0032037
-0.0019479
-0.00072752
-0.0980362