/*--------------------------------*- C++ -*----------------------------------*\
  =========                 |
  \\      /  F ield         | OpenFOAM: The Open Source CFD Toolbox
   \\    /   O peration     | Website:  https://openfoam.org
    \\  /    A nd           | Version:  7
     \\/     M anipulation  |
\*---------------------------------------------------------------------------*/
FoamFile
{
    version     2.0;
    format      ascii;
    class       surfaceScalarField;
    location    "45";
    object      phi;
}
// * * * * * * * * * * * * * * * * * * * * * * * * * * * * * * * * * * * * * //

dimensions      [0 3 -1 0 0 0 0];

internalField   nonuniform List<scalar> 
6868
(
-0.00248127
-2.02249e-05
-0.00245918
-2.198e-05
-0.00243531
-2.37618e-05
-0.00240965
-2.55695e-05
-0.00238216
-2.74022e-05
-0.00235283
-2.92586e-05
-0.00232164
-3.1137e-05
-0.00228856
-3.30353e-05
-0.00225358
-3.49511e-05
-0.00221669
-3.68817e-05
-0.00217787
-3.8824e-05
-0.00213713
-4.07748e-05
-0.00209444
-4.27304e-05
-0.00204982
-4.46873e-05
-0.00200327
-4.66413e-05
-0.00195479
-4.85885e-05
-0.0019044
-5.05248e-05
-0.0018521
-5.2446e-05
-0.00179792
-5.4348e-05
-0.00174188
-5.62268e-05
-0.00168401
-5.80781e-05
-0.00162433
-5.9898e-05
-0.00156288
-6.16845e-05
-0.00149969
-6.3437e-05
-0.00143481
-6.51337e-05
-0.00136831
-6.67614e-05
-0.00130024
-6.83361e-05
-0.00123065
-6.98567e-05
-0.00115961
-7.13185e-05
-0.00108716
-7.27179e-05
-0.00101337
-7.40519e-05
-0.000938315
-7.53178e-05
-0.000862052
-7.65136e-05
-0.000784653
-7.76373e-05
-0.00070619
-7.86877e-05
-0.000626736
-7.96628e-05
-0.000546363
-8.05633e-05
-0.000465124
-8.14088e-05
-0.000383121
-8.21516e-05
-0.000300427
-8.28183e-05
-0.000217115
-8.34129e-05
-0.000133256
-8.3934e-05
-4.89223e-05
-8.4382e-05
3.58145e-05
-8.47578e-05
0.000120884
-8.5063e-05
0.000206217
-8.52997e-05
0.000291748
-8.54694e-05
0.00037741
-8.55742e-05
0.000463142
-8.56163e-05
0.00054888
-8.55982e-05
0.000634568
-8.55224e-05
0.000720148
-8.53916e-05
0.000805567
-8.52085e-05
0.000890773
-8.49759e-05
0.000975719
-8.46965e-05
0.00106036
-8.43734e-05
0.00114465
-8.40093e-05
0.00122855
-8.36073e-05
0.00131202
-8.317e-05
0.00139504
-8.27005e-05
0.00147756
-8.22016e-05
0.00155955
-8.1676e-05
0.001641
-8.11266e-05
0.00172188
-8.05561e-05
0.00180217
-7.99671e-05
0.00188184
-7.93622e-05
0.00196089
-7.87441e-05
0.00203931
-7.81152e-05
0.00211707
-7.7478e-05
0.00219418
-7.6835e-05
0.00227062
-7.61885e-05
0.00234641
-7.5541e-05
0.00242152
-7.48946e-05
0.00249598
-7.42519e-05
0.00256978
-7.36152e-05
0.00264293
-7.29868e-05
0.00271544
-7.23692e-05
0.00278733
-7.17651e-05
0.0028586
-7.11773e-05
0.00292928
-7.06085e-05
0.0029994
-7.00623e-05
0.00306897
-6.95423e-05
0.00313802
-6.90532e-05
0.0032066
-6.85991e-05
0.00327475
-6.81898e-05
0.00334251
-6.78258e-05
0.00340997
-6.75383e-05
8.46221e-08
0.00347716
-6.72957e-05
1.04969e-07
0.00354424
-6.72121e-05
1.24403e-07
0.00361126
-6.71579e-05
1.42799e-07
-6.69929e-05
1.61535e-07
-0.00198871
-4.32102e-05
-0.001964
-4.66912e-05
-0.00193754
-5.02181e-05
-0.00190932
-5.37898e-05
-0.00187932
-5.74041e-05
-0.00184752
-6.10584e-05
-0.00181391
-6.47493e-05
-0.00177847
-6.84727e-05
-0.0017412
-7.2224e-05
-0.00170208
-7.5998e-05
-0.00166112
-7.97887e-05
-0.0016183
-8.35899e-05
-0.00157364
-8.73947e-05
-0.00152713
-9.11959e-05
-0.00147878
-9.49861e-05
-0.00142862
-9.87576e-05
-0.00137664
-0.000102502
-0.00132287
-0.000106212
-0.00126734
-0.00010988
-0.00121007
-0.000113497
-0.00115109
-0.000117056
-0.00109044
-0.00012055
-0.00102815
-0.000123973
-0.000964249
-0.00012734
-0.000898782
-0.000130601
-0.000831837
-0.000133706
-0.000763462
-0.000136711
-0.000693709
-0.000139609
-0.000622637
-0.000142391
-0.000550305
-0.00014505
-0.000476776
-0.000147581
-0.000402115
-0.000149978
-0.00032639
-0.000152239
-0.000249669
-0.000154358
-0.000172021
-0.000156336
-9.35119e-05
-0.000158172
-1.42116e-05
-0.000159864
6.57564e-05
-0.000161377
0.000146367
-0.000162762
0.00022755
-0.000164002
0.000309231
-0.000165094
0.000391338
-0.000166041
0.000473802
-0.000166845
0.000556553
-0.000167509
0.000639525
-0.000168035
0.000722653
-0.000168428
0.000805873
-0.00016869
0.000889125
-0.000168826
0.000972348
-0.00016884
0.00105549
-0.000168737
0.00113849
-0.000168523
0.0012213
-0.000168201
0.00130387
-0.000167778
0.00138615
-0.000167259
0.0014681
-0.000166649
0.00154968
-0.000165954
0.00163086
-0.00016518
0.00171158
-0.000164332
0.00179183
-0.000163416
0.00187156
-0.000162438
0.00195076
-0.000161402
0.0020294
-0.000160315
0.00210746
-0.000159183
0.00218491
-0.000158009
0.00226175
-0.000156801
0.00233795
-0.000155562
0.0024135
-0.000154298
0.0024884
-0.000153015
0.00256264
-0.000151716
0.00263621
-0.000150407
0.00270911
-0.000149093
0.00278135
-0.000147778
0.00285292
-0.000146467
0.00292384
-0.000145165
0.0029941
-0.000143876
0.00306372
-0.000142606
0.00313271
-0.000141359
0.00320108
-0.000140141
0.00326886
-0.000138957
0.00333607
-0.000137812
0.00340272
-0.000136715
0.00346885
-0.00013567
0.00353448
-0.000134689
0.00359966
-0.000133777
0.00366443
-0.000132955
0.00372882
-0.000132219
0.00379291
-0.00013163
0.00385674
-0.000131128
0.00392041
-0.000130881
0.00398403
-0.000130776
-0.000130551
-0.00106008
-0.00103131
-7.54632e-05
-0.00100083
-8.06939e-05
-0.000968642
-8.59775e-05
-0.000934736
-9.13109e-05
-0.000899104
-9.66898e-05
-0.000861744
-0.000102109
-0.000822654
-0.000107563
-0.000781833
-0.000113045
-0.000739285
-0.000118547
-0.000695014
-0.00012406
-0.000649028
-0.000129575
-0.000601339
-0.000135084
-0.00055196
-0.000140574
-0.00050091
-0.000146037
-0.000448207
-0.00015146
-0.000393877
-0.000156833
-0.000337946
-0.000162143
-0.000280444
-0.000167381
-0.000221406
-0.000172535
-0.000160868
-0.000177594
-9.8867e-05
-0.000182551
-3.54449e-05
-0.000187395
2.92813e-05
-0.000192066
9.52411e-05
-0.00019656
0.000162472
-0.000200938
0.000230917
-0.000205156
0.000300512
-0.000209204
0.000371193
-0.000213072
0.000442897
-0.000216754
0.000515557
-0.000220241
0.000589107
-0.000223528
0.000663479
-0.00022661
0.000738604
-0.000229484
0.000814415
-0.000232146
0.000890839
-0.000234596
0.000967805
-0.00023683
0.00104527
-0.000238839
0.00112314
-0.000240635
0.00120136
-0.000242218
0.00127985
-0.000243589
0.00135856
-0.00024475
0.00143742
-0.000245704
0.00151637
-0.000246457
0.00159534
-0.000247011
0.00167429
-0.000247374
0.00175315
-0.000247551
0.00183187
-0.000247547
0.0019104
-0.000247371
0.0019887
-0.000247028
0.0020667
-0.000246527
0.00214437
-0.000245875
0.00222168
-0.00024508
0.00229857
-0.000244151
0.00237501
-0.000243094
0.00245098
-0.000241919
0.00252643
-0.000240634
0.00260134
-0.000239247
0.00267569
-0.000237766
0.00274946
-0.000236201
0.00282261
-0.000234558
0.00289514
-0.000232846
0.00296704
-0.000231074
0.00303827
-0.000229248
0.00310885
-0.000227376
0.00317875
-0.000225467
0.00324798
-0.000223527
0.00331653
-0.000221564
0.0033844
-0.000219586
0.00345159
-0.000217598
0.00351811
-0.000215608
0.00358395
-0.000213624
0.00364914
-0.000211651
0.00371367
-0.000209697
0.00377756
-0.000207769
0.00384083
-0.000205873
0.00390349
-0.000204017
0.00396555
-0.000202208
0.00402705
-0.000200454
0.004088
-0.000198764
0.00414844
-0.000197147
0.00420838
-0.000195612
0.00426786
-0.000194174
0.00432692
-0.000192838
0.00438561
-0.000191636
0.00444394
-0.000190557
0.00450199
-0.000189678
0.00455981
-0.000188942
0.0046174
-0.00018847
0.00467493
-0.000188313
-0.000188131
0.000246612
-0.000107672
0.000280515
-0.000114597
0.000316104
-0.000121567
0.000353371
-0.000128577
0.000392304
-0.000135623
0.000432891
-0.000142696
0.000475118
-0.00014979
0.000518969
-0.000156896
0.000564427
-0.000164005
0.000611472
-0.000171104
0.00066008
-0.000178184
0.000710227
-0.000185231
0.000761886
-0.000192233
0.000815025
-0.000199176
0.000869612
-0.000206047
0.000925609
-0.00021283
0.000982979
-0.000219513
0.00104168
-0.000226081
0.00110166
-0.00023252
0.00116288
-0.000238815
0.00122529
-0.000244955
0.00128882
-0.000250925
0.00135344
-0.000256693
0.00141913
-0.000262247
0.00148579
-0.000267596
0.00155336
-0.000272727
0.00162178
-0.000277625
0.00169099
-0.000282282
0.00176093
-0.000286688
0.00183152
-0.000290837
0.00190271
-0.000294721
0.00197444
-0.000298335
0.00204663
-0.000301676
0.00211922
-0.000304739
0.00219215
-0.000307525
0.00226535
-0.000310032
0.00233877
-0.000312257
0.00241234
-0.000314205
0.002486
-0.000315878
0.00255969
-0.00031728
0.00263336
-0.000318414
0.00270694
-0.000319287
0.00278039
-0.000319904
0.00285365
-0.000320272
0.00292667
-0.000320399
0.00299941
-0.000320292
0.00307183
-0.000319962
0.00314387
-0.000319416
0.00321551
-0.000318665
0.0032867
-0.000317718
0.00335741
-0.000316586
0.00342761
-0.000315279
0.00349727
-0.000313808
0.00356636
-0.000312184
0.00363485
-0.000310417
0.00370274
-0.000308519
0.00376999
-0.0003065
0.0038366
-0.000304371
0.00390254
-0.000302142
0.00396781
-0.000299825
0.00403239
-0.00029743
0.00409628
-0.000294967
0.00415948
-0.000292445
0.00422198
-0.000289876
0.00428378
-0.000287268
0.00434489
-0.000284632
0.0044053
-0.000281976
0.00446502
-0.000279309
0.00452406
-0.000276641
0.00458244
-0.000273981
0.00464015
-0.000271337
0.00469721
-0.000268717
0.00475365
-0.000266132
0.00480947
-0.000263588
0.00486469
-0.000261096
0.00491934
-0.000258664
0.00497343
-0.000256302
0.005027
-0.000254019
0.00508006
-0.000251826
0.00513265
-0.000249734
0.00518479
-0.000247754
0.00523652
-0.000245905
0.00528787
-0.000244191
0.00533888
-0.000242648
0.0053896
-0.00024127
0.00544003
-0.000240115
0.00549027
-0.000239183
0.00554028
-0.000238473
0.00559019
-0.00023823
-0.000238091
0.00176721
-0.000140658
0.00180194
-0.000149328
0.00183839
-0.000158014
0.00187652
-0.000166712
0.00191631
-0.000175412
0.00195772
-0.000184109
0.00200073
-0.000192793
0.00204529
-0.000201455
0.00209136
-0.000210081
0.00213892
-0.000218661
0.00218792
-0.000227181
0.00223831
-0.000235627
0.00229006
-0.000243983
0.00234312
-0.000252235
0.00239744
-0.000260367
0.00245298
-0.000268363
0.00250967
-0.000276206
0.00256747
-0.000283881
0.00262632
-0.000291371
0.00268617
-0.00029866
0.00274694
-0.000305733
0.00280859
-0.000312575
0.00287107
-0.000319167
0.00293431
-0.000325493
0.00299826
-0.000331546
0.00306285
-0.000337314
0.00312801
-0.000342787
0.00319368
-0.000347954
0.0032598
-0.000352808
0.00332631
-0.000357341
0.00339313
-0.000361547
0.00346022
-0.000365422
0.00352751
-0.000368963
0.00359494
-0.000372167
0.00366244
-0.000375034
0.00372998
-0.000377564
0.00379748
-0.000379759
0.0038649
-0.000381622
0.00393218
-0.000383158
0.00399927
-0.000384372
0.00406613
-0.000385271
0.0041327
-0.000385862
0.00419895
-0.000386154
0.00426483
-0.000386155
0.00433031
-0.000385876
0.00439535
-0.000385327
0.0044599
-0.000384519
0.00452395
-0.000383464
0.00458746
-0.000382175
0.00465041
-0.000380664
0.00471276
-0.000378943
0.00477451
-0.000377025
0.00483562
-0.000374924
0.00489609
-0.000372652
0.0049559
-0.000370224
0.00501503
-0.000367651
0.00507348
-0.000364948
0.00513124
-0.000362127
0.0051883
-0.000359201
0.00524465
-0.000356182
0.00530031
-0.000353084
0.00535526
-0.000349918
0.00540951
-0.000346697
0.00546306
-0.000343431
0.00551593
-0.000340133
0.00556811
-0.000336813
0.00561962
-0.000333484
0.00567046
-0.000330155
0.00572066
-0.000326837
0.00577022
-0.00032354
0.00581916
-0.000320275
0.00586749
-0.000317053
0.00591524
-0.000313882
0.00596243
-0.000310774
0.00600907
-0.000307738
0.00605519
-0.000304785
0.00610082
-0.000301926
0.00614597
-0.000299173
0.00619068
-0.000296536
0.00623498
-0.000294029
0.00627889
-0.000291664
0.00632244
-0.000289459
0.00636567
-0.000287426
0.00640861
-0.000285588
0.00645131
-0.000283964
0.00649376
-0.000282562
0.00653604
-0.000281472
0.00657813
-0.000280557
0.00662009
-0.000280193
-0.00028004
0.00343301
0.00346399
-0.000180304
0.00349684
-0.000190868
0.00353151
-0.000201382
0.00356794
-0.000211837
0.00360606
-0.000222228
0.00364581
-0.000232545
0.00368713
-0.000242778
0.00372997
-0.000252916
0.00377425
-0.000262945
0.00381992
-0.000272851
0.00386691
-0.000282621
0.00391517
-0.000292238
0.00396462
-0.000301687
0.0040152
-0.000310952
0.00406686
-0.000320016
0.00411951
-0.000328862
0.00417311
-0.000337474
0.00422757
-0.000345835
0.00428284
-0.000353929
0.00433885
-0.00036174
0.00439552
-0.000369254
0.00445281
-0.000376455
0.00451065
-0.000383329
0.00456897
-0.000389864
0.0046277
-0.00039605
0.00468679
-0.000401877
0.00474618
-0.000407337
0.00480579
-0.000412421
0.00486557
-0.000417126
0.00492547
-0.000421446
0.00498543
-0.000425377
0.00504539
-0.00042892
0.00510529
-0.000432073
0.00516509
-0.000434837
0.00522475
-0.000437216
0.0052842
-0.000439213
0.00534341
-0.000440833
0.00540233
-0.000442082
0.00546093
-0.00044297
0.00551917
-0.000443504
0.005577
-0.000443695
0.0056344
-0.000443553
0.00569133
-0.000443089
0.00574777
-0.000442316
0.00580369
-0.000441247
0.00585907
-0.000439896
0.00591388
-0.000438276
0.00596811
-0.000436402
0.00602173
-0.000434289
0.00607474
-0.000431951
0.00612712
-0.000429404
0.00617886
-0.000426663
0.00622995
-0.000423743
0.00628039
-0.000420659
0.00633016
-0.000417427
0.00637928
-0.000414061
0.00642772
-0.000410576
0.00647551
-0.000406987
0.00652264
-0.000403308
0.00656911
-0.000399554
0.00661493
-0.000395737
0.0066601
-0.000391872
0.00670464
-0.000387971
0.00674856
-0.000384048
0.00679186
-0.000380114
0.00683456
-0.000376183
0.00687667
-0.000372267
0.00691821
-0.000368376
0.00695919
-0.000364524
0.00699964
-0.00036072
0.00703956
-0.000356977
0.00707898
-0.000353306
0.00711793
-0.000349717
0.00715641
-0.000346223
0.00719446
-0.000342835
0.0072321
-0.000339564
0.00726935
-0.000336423
0.00730624
-0.000333424
0.00734279
-0.000330581
0.00737904
-0.000327909
0.007415
-0.00032542
0.00745071
-0.000323139
0.00748619
-0.000321065
0.00752148
-0.000319257
0.00755658
-0.00031766
0.00759155
-0.000316443
0.00762637
-0.000315379
0.00766107
-0.00031489
-0.000314675
0.00515826
0.00518263
-0.000215231
0.00520903
-0.000227788
0.00523739
-0.000240191
0.00526759
-0.000252434
0.00529956
-0.000264511
0.00533319
-0.000276414
0.00536841
-0.000288131
0.00540512
-0.000299652
0.00544323
-0.000310963
0.00548266
-0.000322053
0.00552333
-0.000332907
0.00556515
-0.000343511
0.00560805
-0.000353849
0.00565194
-0.000363907
0.00569675
-0.00037367
0.0057424
-0.000383122
0.00578881
-0.000392248
0.00583592
-0.000401033
0.00588364
-0.000409465
0.00593191
-0.000417529
0.00598067
-0.000425212
0.00602984
-0.000432503
0.00607937
-0.000439391
0.00612919
-0.000445867
0.00617923
-0.000451923
0.00622945
-0.000457553
0.00627978
-0.000462752
0.00633017
-0.000467516
0.00638057
-0.000471844
0.00643093
-0.000475735
0.0064812
-0.000479189
0.00653133
-0.000482209
0.00658129
-0.000484798
0.00663104
-0.000486962
0.00668053
-0.000488706
0.00672974
-0.000490038
0.00677862
-0.000490968
0.00682716
-0.000491504
0.00687531
-0.00049166
0.00692306
-0.000491446
0.00697039
-0.000490875
0.00701726
-0.000489962
0.00706366
-0.00048872
0.00710958
-0.000487165
0.007155
-0.000485313
0.0071999
-0.000483178
0.00724428
-0.000480779
0.00728812
-0.00047813
0.00733142
-0.00047525
0.00737416
-0.000472154
0.00741636
-0.000468859
0.007458
-0.000465383
0.00749908
-0.000461742
0.00753961
-0.000457953
0.00757958
-0.000454032
0.007619
-0.000449994
0.00765787
-0.000445857
0.0076962
-0.000441635
0.00773399
-0.000437345
0.00777125
-0.000432999
0.00780799
-0.000428615
0.00784423
-0.000424204
0.00787996
-0.000419782
0.00791521
-0.000415362
0.00794998
-0.000410957
0.00798429
-0.00040658
0.00801816
-0.000402244
0.0080516
-0.000397961
0.00808462
-0.000393743
0.00811725
-0.000389602
0.00814949
-0.000385552
0.00818138
-0.000381602
0.00821292
-0.000377766
0.00824414
-0.000374056
0.00827506
-0.000370484
0.0083057
-0.000367062
0.00833608
-0.000363805
0.00836622
-0.000360723
0.00839615
-0.000357838
0.00842588
-0.000355151
0.00845545
-0.000352703
0.00848485
-0.000350469
0.00851413
-0.00034854
0.00854329
-0.000346816
0.00857236
-0.000345511
0.00860134
-0.000344362
0.00863022
-0.000343775
-0.000343481
0.00676873
-0.000227289
0.00678308
-0.000242147
0.00679961
-0.000256718
0.00681818
-0.000271002
0.00683867
-0.000284999
0.00686096
-0.000298702
0.00688493
-0.000312106
0.00691049
-0.000325204
0.00693751
-0.000337986
0.0069659
-0.000350443
0.00699555
-0.000362564
0.00702638
-0.00037434
0.00705829
-0.000385757
0.00709119
-0.000396805
0.00712499
-0.000407471
0.00715961
-0.000417744
0.00719497
-0.000427612
0.007231
-0.000437063
0.00726762
-0.000446087
0.00730477
-0.000454673
0.00734237
-0.000462812
0.00738036
-0.000470496
0.00741869
-0.000477717
0.00745729
-0.000484469
0.00749611
-0.000490746
0.00753511
-0.000496546
0.00757422
-0.000501866
0.00761341
-0.000506704
0.00765263
-0.000511063
0.00769184
-0.000514944
0.007731
-0.00051835
0.00777008
-0.000521286
0.00780904
-0.000523759
0.00784785
-0.000525774
0.00788649
-0.000527342
0.00792492
-0.000528471
0.00796312
-0.000529173
0.00800108
-0.000529461
0.00803877
-0.000529347
0.00807617
-0.000528846
0.00811327
-0.000527972
0.00815005
-0.000526741
0.0081865
-0.000525169
0.0082226
-0.000523273
0.00825836
-0.000521069
0.00829376
-0.000518575
0.00832879
-0.000515809
0.00836345
-0.000512789
0.00839773
-0.000509533
0.00843163
-0.000506058
0.00846516
-0.000502383
0.0084983
-0.000498525
0.00853106
-0.000494503
0.00856344
-0.000490334
0.00859544
-0.000486035
0.00862707
-0.000481624
0.00865833
-0.000477116
0.00868923
-0.000472529
0.00871976
-0.000467879
0.00874994
-0.00046318
0.00877978
-0.000458449
0.00880927
-0.000453701
0.00883844
-0.000448949
0.00886729
-0.000444209
0.00889583
-0.000439494
0.00892406
-0.000434818
0.00895201
-0.000430193
0.00897969
-0.000425634
0.0090071
-0.000421152
0.00903425
-0.000416761
0.00906118
-0.000412473
0.00908787
-0.0004083
0.00911436
-0.000404255
0.00914066
-0.00040035
0.00916677
-0.000396599
0.00919272
-0.000393013
0.00921853
-0.000389609
0.0092442
-0.000386392
0.00926975
-0.000383392
0.0092952
-0.000380599
0.00932056
-0.000378067
0.00934585
-0.000375753
0.00937107
-0.000373765
0.00939624
-0.000371983
0.00942136
-0.000370629
0.00944644
-0.000369451
0.00947148
-0.000368812
-0.000368464
0.00810647
0.00810816
-0.000243834
0.00811209
-0.000260648
0.00811812
-0.000277034
0.00812612
-0.000292998
0.00813596
-0.000308542
0.00814752
-0.000323665
0.00816068
-0.000338367
0.00817534
-0.000352643
0.00819139
-0.00036649
0.00820872
-0.000379903
0.00822726
-0.000392874
0.0082469
-0.000405396
0.00826756
-0.000417464
0.00828915
-0.000429068
0.00831161
-0.000440201
0.00833485
-0.000450855
0.00835881
-0.000461023
0.00838342
-0.000470697
0.00840862
-0.000479872
0.00843435
-0.000488542
0.00846056
-0.0004967
0.00848719
-0.000504344
0.00851419
-0.000511471
0.00854152
-0.000518077
0.00856914
-0.000524164
0.008597
-0.000529731
0.00862508
-0.000534781
0.00865333
-0.000539315
0.00868172
-0.000543339
0.00871023
-0.000546857
0.00873882
-0.000549877
0.00876747
-0.000552407
0.00879615
-0.000554455
0.00882484
-0.000556034
0.00885352
-0.000557153
0.00888218
-0.000557826
0.00891078
-0.000558068
0.00893933
-0.000557892
0.0089678
-0.000557314
0.00899617
-0.00055635
0.00902445
-0.000555018
0.00905262
-0.000553333
0.00908066
-0.000551315
0.00910857
-0.000548981
0.00913634
-0.000546349
0.00916397
-0.000543438
0.00919145
-0.000540267
0.00921877
-0.000536855
0.00924593
-0.00053322
0.00927293
-0.000529382
0.00929977
-0.000525358
0.00932643
-0.000521168
0.00935293
-0.00051683
0.00937925
-0.000512361
0.00940541
-0.00050778
0.00943139
-0.000503103
0.00945721
-0.000498348
0.00948287
-0.000493531
0.00950836
-0.00048867
0.00953368
-0.000483778
0.00955886
-0.000478873
0.00958387
-0.000473968
0.00960875
-0.00046908
0.00963347
-0.000464222
0.00965806
-0.000459408
0.00968252
-0.000454653
0.00970686
-0.000449969
0.00973108
-0.00044537
0.00975518
-0.000440869
0.00977919
-0.000436479
0.0098031
-0.000432212
0.00982693
-0.000428083
0.00985068
-0.000424101
0.00987437
-0.000420284
0.00989799
-0.000416639
0.00992157
-0.000413186
0.00994511
-0.000409929
0.00996861
-0.000406898
0.00999209
-0.00040408
0.0100156
-0.000401532
0.010039
-0.000399205
0.0100625
-0.000397211
0.0100859
-0.000395424
0.0101093
-0.00039406
0.0101328
-0.000392875
0.0101561
-0.00039221
-0.000391873
0.00905818
-0.000234689
0.00905119
-0.000253656
0.00904623
-0.000272081
0.00904321
-0.000289972
0.009042
-0.000307334
0.00904251
-0.000324171
0.00904463
-0.000340487
0.00904826
-0.000356282
0.00905333
-0.000371556
0.00905974
-0.000386309
0.0090674
-0.000400537
0.00907624
-0.000414239
0.00908619
-0.000427411
0.00909717
-0.000440049
0.00910912
-0.000452149
0.00912197
-0.000463707
0.00913567
-0.00047472
0.00915015
-0.000485183
0.00916538
-0.000495094
0.00918128
-0.00050445
0.00919783
-0.000513249
0.00921498
-0.000521489
0.00923268
-0.000529171
0.0092509
-0.000536295
0.00926959
-0.000542862
0.00928874
-0.000548876
0.0093083
-0.000554341
0.00932824
-0.000559261
0.00934855
-0.000563643
0.00936919
-0.000567493
0.00939013
-0.000570821
0.00941136
-0.000573637
0.00943285
-0.00057595
0.00945459
-0.000577773
0.00947656
-0.000579119
0.00949873
-0.000580001
0.0095211
-0.000580435
0.00954364
-0.000580435
0.00956635
-0.000580018
0.0095892
-0.0005792
0.00961218
-0.000577999
0.00963528
-0.000576434
0.00965849
-0.000574522
0.00968179
-0.000572283
0.00970518
-0.000569736
0.00972864
-0.000566899
0.00975216
-0.000563793
0.00977574
-0.000560436
0.00979937
-0.000556849
0.00982304
-0.000553051
0.00984674
-0.00054906
0.00987047
-0.000544896
0.00989422
-0.000540578
0.00991798
-0.000536125
0.00994176
-0.000531554
0.00996554
-0.000526883
0.00998932
-0.000522131
0.0100131
-0.000517314
0.0100369
-0.000512449
0.0100607
-0.000507552
0.0100844
-0.000502641
0.0101082
-0.000497729
0.0101319
-0.000492833
0.0101557
-0.000487967
0.0101794
-0.000483147
0.0102032
-0.000478385
0.0102269
-0.000473697
0.0102506
-0.000469096
0.0102743
-0.000464595
0.0102981
-0.000460207
0.0103218
-0.000455946
0.0103455
-0.000451825
0.0103693
-0.000447856
0.0103931
-0.000444054
0.0104169
-0.000440428
0.0104407
-0.000436998
0.0104645
-0.000433765
0.0104884
-0.000430762
0.0105123
-0.000427973
0.0105362
-0.000425455
0.0105601
-0.00042316
0.0105841
-0.000421189
0.0106081
-0.000419434
0.0106321
-0.000418077
0.0106562
-0.000416919
0.0106802
-0.000416234
-0.000415754
0.014726
-0.000204432
0.0146971
-0.000224769
0.0146695
-0.00024449
0.0146431
-0.000263601
0.0146179
-0.000282108
0.0145937
-0.000300017
0.0145706
-0.000317331
0.0145484
-0.000334055
0.014527
-0.000350188
0.0145064
-0.000365734
0.0144866
-0.000380693
0.0144674
-0.000395065
0.0144488
-0.000408849
0.0144308
-0.000422046
0.0144133
-0.000434655
0.0143963
-0.000446675
0.0143797
-0.000458107
0.0143635
-0.000468949
0.0143476
-0.000479204
0.014332
-0.000488871
0.0143167
-0.000497951
0.0143017
-0.000506449
0.0142868
-0.000514365
0.0142723
-0.000521705
0.0142579
-0.000528472
0.0142437
-0.000534673
0.0142296
-0.000540313
0.0142158
-0.000545401
0.0142021
-0.000549945
0.0141885
-0.000553954
0.0141752
-0.000557439
0.0141619
-0.00056041
0.0141489
-0.000562881
0.014136
-0.000564864
0.0141232
-0.000566374
0.0141106
-0.000567424
0.0140982
-0.000568031
0.014086
-0.00056821
0.014074
-0.000567979
0.0140621
-0.000567353
0.0140505
-0.000566352
0.014039
-0.000564993
0.0140278
-0.000563294
0.0140168
-0.000561275
0.014006
-0.000558953
0.0139955
-0.000556349
0.0139851
-0.000553481
0.0139751
-0.000550367
0.0139653
-0.000547029
0.0139557
-0.000543483
0.0139464
-0.000539749
0.0139373
-0.000535846
0.0139285
-0.000531791
0.01392
-0.000527604
0.0139118
-0.000523301
0.0139038
-0.0005189
0.0138961
-0.000514418
0.0138886
-0.000509873
0.0138815
-0.000505279
0.0138746
-0.000500655
0.0138679
-0.000496014
0.0138616
-0.000491373
0.0138555
-0.000486746
0.0138497
-0.000482147
0.0138441
-0.000477592
0.0138388
-0.000473094
0.0138338
-0.000468666
0.013829
-0.000464323
0.0138245
-0.000460076
0.0138202
-0.00045594
0.0138162
-0.000451925
0.0138124
-0.000448047
0.0138089
-0.000444315
0.0138056
-0.000440745
0.0138025
-0.000437344
0.0137996
-0.000434132
0.013797
-0.00043111
0.0137945
-0.000428306
0.0137923
-0.000425709
0.0137902
-0.000423364
0.0137882
-0.000421237
0.0137865
-0.000419404
0.0137848
-0.000417787
0.0137833
-0.000416518
0.0137818
-0.000415451
0.0137803
-0.000414783
-0.000414303
0.0157477
-0.000172553
0.0157162
-0.000193293
0.0156851
-0.000213409
0.0156544
-0.000232907
0.0156241
-0.00025179
0.0155941
-0.000270062
0.0155645
-0.000287726
0.0155353
-0.000304783
0.0155063
-0.000321234
0.0154777
-0.000337083
0.0154493
-0.000352328
0.0154212
-0.000366971
0.0153934
-0.000381013
0.0153658
-0.000394454
0.0153384
-0.000407296
0.0153113
-0.000419538
0.0152843
-0.000431183
0.0152576
-0.000442231
0.0152311
-0.000452685
0.0152048
-0.000462548
0.0151787
-0.000471823
0.0151527
-0.000480513
0.015127
-0.000488623
0.0151014
-0.000496158
0.0150761
-0.000503125
0.0150509
-0.000509529
0.015026
-0.00051538
0.0150013
-0.000520685
0.0149768
-0.000525454
0.0149525
-0.000529698
0.0149285
-0.000533426
0.0149048
-0.000536652
0.0148813
-0.000539387
0.0148581
-0.000541646
0.0148351
-0.000543441
0.0148125
-0.000544789
0.0147902
-0.000545704
0.0147682
-0.000546202
0.0147465
-0.0005463
0.0147251
-0.000546014
0.0147042
-0.000545362
0.0146835
-0.000544361
0.0146633
-0.000543029
0.0146434
-0.000541384
0.0146239
-0.000539445
0.0146047
-0.000537229
0.014586
-0.000534754
0.0145677
-0.00053204
0.0145498
-0.000529104
0.0145322
-0.000525965
0.0145151
-0.00052264
0.0144984
-0.000519148
0.0144821
-0.000515505
0.0144663
-0.00051173
0.0144508
-0.000507839
0.0144358
-0.000503849
0.0144211
-0.000499777
0.0144069
-0.000495638
0.0143931
-0.000491449
0.0143796
-0.000487224
0.0143666
-0.00048298
0.0143539
-0.000478731
0.0143417
-0.00047449
0.0143298
-0.000470273
0.0143183
-0.000466093
0.0143072
-0.000461964
0.0142964
-0.000457898
0.014286
-0.000453909
0.0142759
-0.000450009
0.0142662
-0.000446211
0.0142568
-0.000442526
0.0142477
-0.000438967
0.014239
-0.000435545
0.0142305
-0.000432274
0.0142223
-0.000429161
0.0142144
-0.000426223
0.0142068
-0.000423464
0.0141994
-0.000420905
0.0141922
-0.000418541
0.0141852
-0.000416407
0.0141785
-0.000414478
0.0141719
-0.000412813
0.0141654
-0.000411353
0.0141591
-0.000410198
0.0141529
-0.000409236
0.0141468
-0.000408631
-0.00040823
0.0162073
-0.000145418
0.0161798
-0.000165858
0.0161521
-0.000185697
0.0161241
-0.00020494
0.0160959
-0.000223588
0.0160675
-0.000241644
0.0160389
-0.000259109
0.0160101
-0.000275983
0.0159811
-0.000292268
0.015952
-0.000307965
0.0159228
-0.000323073
0.0158934
-0.000337594
0.0158639
-0.000351528
0.0158343
-0.000364877
0.0158047
-0.00037764
0.015775
-0.000389819
0.0157452
-0.000401417
0.0157154
-0.000412434
0.0156856
-0.000422874
0.0156558
-0.00043274
0.015626
-0.000442035
0.0155962
-0.000450764
0.0155665
-0.000458932
0.0155369
-0.000466544
0.0155074
-0.000473607
0.015478
-0.000480127
0.0154487
-0.000486114
0.0154196
-0.000491575
0.0153907
-0.000496519
0.015362
-0.000500958
0.0153334
-0.000504902
0.0153051
-0.000508363
0.0152771
-0.000511352
0.0152493
-0.000513883
0.0152219
-0.000515969
0.0151947
-0.000517625
0.0151679
-0.000518865
0.0151414
-0.000519704
0.0151152
-0.000520158
0.0150895
-0.000520242
0.0150641
-0.000519974
0.0150391
-0.000519369
0.0150145
-0.000518444
0.0149903
-0.000517217
0.0149666
-0.000515705
0.0149433
-0.000513924
0.0149204
-0.000511893
0.014898
-0.000509627
0.014876
-0.000507146
0.0148545
-0.000504464
0.0148335
-0.000501601
0.0148129
-0.000498572
0.0147928
-0.000495393
0.0147732
-0.000492083
0.014754
-0.000488656
0.0147353
-0.000485128
0.014717
-0.000481516
0.0146992
-0.000477835
0.0146819
-0.000474099
0.014665
-0.000470323
0.0146485
-0.000466522
0.0146325
-0.00046271
0.0146169
-0.000458901
0.0146017
-0.000455108
0.014587
-0.000451344
0.0145726
-0.000447622
0.0145587
-0.000443955
0.0145451
-0.000440356
0.014532
-0.000436835
0.0145192
-0.000433406
0.0145067
-0.000430079
0.0144946
-0.000426867
0.0144828
-0.000423778
0.0144714
-0.000420827
0.0144603
-0.00041802
0.0144494
-0.000415373
0.0144388
-0.000412889
0.0144285
-0.000410587
0.0144184
-0.000408465
0.0144086
-0.000406548
0.0143989
-0.000404822
0.0143894
-0.000403328
0.0143801
-0.000402029
0.0143709
-0.000400993
0.0143618
-0.000400147
0.0143528
-0.000399607
-0.000399218
0.0163533
-0.000123286
0.0163305
-0.00014307
0.0163071
-0.000162288
0.0162831
-0.000180942
0.0162585
-0.000199031
0.0162334
-0.000216558
0.0162078
-0.000233522
0.0161818
-0.000249924
0.0161553
-0.000265765
0.0161284
-0.000281045
0.016101
-0.000295763
0.0160734
-0.000309921
0.0160454
-0.000323519
0.016017
-0.000336558
0.0159884
-0.000349039
0.0159596
-0.000360963
0.0159305
-0.000372333
0.0159012
-0.00038315
0.0158718
-0.000393418
0.0158422
-0.000403138
0.0158124
-0.000412316
0.0157826
-0.000420955
0.0157528
-0.000429061
0.0157229
-0.000436639
0.0156929
-0.000443695
0.015663
-0.000450236
0.0156332
-0.00045627
0.0156034
-0.000461806
0.0155738
-0.000466851
0.0155442
-0.000471417
0.0155148
-0.000475513
0.0154856
-0.00047915
0.0154566
-0.000482339
0.0154278
-0.000485094
0.0153993
-0.000487425
0.015371
-0.000489348
0.015343
-0.000490875
0.0153153
-0.00049202
0.015288
-0.000492798
0.015261
-0.000493224
0.0152343
-0.000493313
0.015208
-0.000493081
0.0151821
-0.000492542
0.0151566
-0.000491713
0.0151315
-0.00049061
0.0151068
-0.000489248
0.0150826
-0.000487644
0.0150588
-0.000485814
0.0150354
-0.000483774
0.0150125
-0.00048154
0.01499
-0.000479128
0.014968
-0.000476553
0.0149464
-0.000473832
0.0149253
-0.000470979
0.0149047
-0.000468009
0.0148845
-0.000464938
0.0148647
-0.000461781
0.0148455
-0.000458551
0.0148266
-0.000455264
0.0148082
-0.000451933
0.0147903
-0.000448571
0.0147728
-0.000445193
0.0147557
-0.00044181
0.014739
-0.000438437
0.0147227
-0.000435085
0.0147069
-0.000431767
0.0146914
-0.000428494
0.0146764
-0.000425279
0.0146616
-0.000422133
0.0146473
-0.000419066
0.0146333
-0.00041609
0.0146197
-0.000413216
0.0146063
-0.000410453
0.0145933
-0.000407813
0.0145806
-0.000405303
0.0145682
-0.000402936
0.014556
-0.000400717
0.0145441
-0.00039866
0.0145324
-0.000396767
0.0145209
-0.000395056
0.0145096
-0.000393519
0.0144984
-0.000392187
0.0144874
-0.000391033
0.0144766
-0.000390111
0.0144658
-0.000389358
0.014455
-0.000388873
-0.000388532
0.0163559
-0.000104805
0.0163366
-0.000123807
0.0163166