/*--------------------------------*- C++ -*----------------------------------*\
  =========                 |
  \\      /  F ield         | OpenFOAM: The Open Source CFD Toolbox
   \\    /   O peration     | Website:  https://openfoam.org
    \\  /    A nd           | Version:  7
     \\/     M anipulation  |
\*---------------------------------------------------------------------------*/
FoamFile
{
    version     2.0;
    format      ascii;
    class       volVectorField;
    location    "45";
    object      U;
}
// * * * * * * * * * * * * * * * * * * * * * * * * * * * * * * * * * * * * * //

dimensions      [0 1 -1 0 0 0 0];

internalField   nonuniform List<vector> 
3500
(
(-0.216957 -0.00128307 1.78455e-20)
(-0.215288 -0.00141164 -1.85588e-20)
(-0.213462 -0.00154238 7.81376e-21)
(-0.211478 -0.00167525 9.58728e-21)
(-0.209332 -0.00181019 -1.72101e-20)
(-0.207022 -0.00194707 2.01007e-20)
(-0.204545 -0.00208579 -1.96556e-20)
(-0.201901 -0.00222616 2.34023e-20)
(-0.199086 -0.00236801 -1.06652e-20)
(-0.196099 -0.00251113 -4.12723e-21)
(-0.192938 -0.00265528 7.43182e-22)
(-0.189603 -0.00280022 6.24266e-21)
(-0.186092 -0.00294567 3.62981e-21)
(-0.182404 -0.00309134 8.29446e-23)
(-0.17854 -0.00323694 -9.606e-21)
(-0.174499 -0.00338216 -1.08804e-21)
(-0.170281 -0.00352668 -3.0749e-21)
(-0.165888 -0.00367019 6.4854e-21)
(-0.161319 -0.00381236 -5.53305e-22)
(-0.156578 -0.00395288 6.95478e-21)
(-0.151664 -0.00409138 -1.33051e-20)
(-0.146581 -0.00422742 6.726e-21)
(-0.141331 -0.00436062 5.18468e-22)
(-0.135915 -0.00449078 -1.13922e-20)
(-0.130338 -0.00461707 5.47791e-21)
(-0.124605 -0.00473901 2.48646e-21)
(-0.118719 -0.0048572 1.42577e-21)
(-0.112687 -0.00497133 -3.34873e-21)
(-0.106511 -0.00508103 1.97474e-22)
(-0.100197 -0.00518604 1.04528e-20)
(-0.0937491 -0.00528614 -1.52481e-20)
(-0.0871739 -0.00538116 1.05025e-20)
(-0.0804767 -0.00547094 1.43152e-21)
(-0.073663 -0.00555535 -1.44414e-21)
(-0.066739 -0.00563426 -1.09571e-21)
(-0.0597111 -0.00570762 1.1904e-21)
(-0.0525856 -0.00577595 -2.26124e-21)
(-0.0453671 -0.00584084 -2.12653e-22)
(-0.0380626 -0.00589734 -5.61426e-22)
(-0.0306804 -0.00594788 2.89092e-22)
(-0.0232266 -0.00599321 1.5269e-21)
(-0.0157072 -0.00603327 -2.86603e-21)
(-0.00812879 -0.00606806 -7.59123e-22)
(-0.000497542 -0.00609763 2.35541e-21)
(0.00718035 -0.0061221 1.64078e-21)
(0.0148986 -0.00614164 -1.95893e-21)
(0.0226511 -0.00615639 8.03908e-22)
(0.030432 -0.00616649 -2.13541e-21)
(0.0382356 -0.00617213 1.40556e-21)
(0.0460562 -0.0061735 1.04522e-21)
(0.0538886 -0.00617079 -7.9334e-22)
(0.0617274 -0.00616422 3.11076e-22)
(0.0695678 -0.00615397 5.30346e-22)
(0.0774048 -0.00614028 -1.66665e-21)
(0.0852341 -0.00612335 1.75626e-21)
(0.0930512 -0.00610341 -1.50776e-21)
(0.100852 -0.00608065 1.36256e-21)
(0.108633 -0.00605531 -1.01793e-21)
(0.11639 -0.00602759 2.26185e-23)
(0.124121 -0.00599771 3.04602e-22)
(0.131821 -0.00596586 -1.93752e-22)
(0.139488 -0.00593226 -1.30015e-22)
(0.14712 -0.0058971 5.77337e-23)
(0.154714 -0.00586057 -4.51892e-22)
(0.162267 -0.00582287 1.21751e-22)
(0.169779 -0.00578417 -1.6004e-23)
(0.177247 -0.00574467 4.44571e-22)
(0.18467 -0.00570452 -1.87669e-22)
(0.192047 -0.00566391 -3.77369e-22)
(0.199377 -0.005623 1.38129e-22)
(0.206659 -0.00558195 9.34642e-23)
(0.213893 -0.00554092 -1.28101e-22)
(0.221078 -0.00550008 1.14264e-22)
(0.228215 -0.00545957 7.87243e-23)
(0.235303 -0.00541956 -1.13525e-22)
(0.242343 -0.00538022 -2.32797e-23)
(0.249336 -0.0053417 8.04891e-23)
(0.256283 -0.00530419 -6.11381e-23)
(0.263184 -0.00526788 3.15305e-23)
(0.270042 -0.00523296 -1.47696e-23)
(0.276857 -0.00519967 -1.97072e-24)
(0.283633 -0.00516828 6.04083e-24)
(0.290372 -0.00513911 -3.57988e-24)
(0.297077 -0.00511249 -6.57813e-24)
(0.303752 -0.00508909 2.24725e-24)
(0.310397 -0.00506899 -1.04251e-24)
(0.317035 -0.00505445 -8.07527e-26)
(0.323602 -0.00504318 -3.51372e-25)
(0.33041 -0.00504384 -7.33467e-25)
(0.336247 -0.00504666 2.94271e-25)
(0.3467 -0.00504083 7.56364e-25)
(-0.174617 -0.00417875 -6.83632e-21)
(-0.172638 -0.00456237 5.19697e-20)
(-0.170503 -0.00495134 2.63065e-20)
(-0.168211 -0.00534556 -2.98338e-20)
(-0.165761 -0.00574486 4.87072e-20)
(-0.16315 -0.00614895 -5.43029e-20)
(-0.160376 -0.0065575 5.29077e-20)
(-0.157438 -0.00697007 -3.83345e-20)
(-0.154335 -0.00738617 -2.88339e-20)
(-0.151066 -0.00780521 -6.22178e-21)
(-0.147629 -0.00822656 -1.86998e-21)
(-0.144024 -0.00864951 3.63183e-20)
(-0.140251 -0.00907333 1.62951e-20)
(-0.136309 -0.0094972 -3.55835e-20)
(-0.132199 -0.00992031 3.07434e-20)
(-0.127921 -0.0103418 3.14658e-21)
(-0.123476 -0.0107608 -2.74332e-20)
(-0.118866 -0.0111763 2.48156e-21)
(-0.114092 -0.0115876 9.43207e-21)
(-0.109155 -0.0119938 3.8982e-21)
(-0.104059 -0.0123941 -1.25106e-22)
(-0.0988049 -0.0127875 -6.80793e-21)
(-0.0933969 -0.0131742 -1.79881e-20)
(-0.0878365 -0.013556 1.01482e-20)
(-0.0821256 -0.013926 -5.11222e-21)
(-0.0762718 -0.0142781 1.29265e-20)
(-0.0702807 -0.0146187 -3.3679e-22)
(-0.0641557 -0.014948 6.3284e-21)
(-0.0579014 -0.0152649 -1.85927e-20)
(-0.0515228 -0.0155687 1.06531e-20)
(-0.0450253 -0.0158586 4.21646e-21)
(-0.0384143 -0.0161342 -1.62989e-20)
(-0.0316954 -0.0163949 2.67239e-20)
(-0.0248744 -0.0166404 -1.28391e-20)
(-0.0179571 -0.0168704 -9.0568e-21)
(-0.010951 -0.0170848 1.67873e-20)
(-0.00386597 -0.0172836 -3.1539e-21)
(0.0033022 -0.0174656 -3.50823e-21)
(0.0105479 -0.0176308 -1.00166e-21)
(0.0178539 -0.0177803 5.85854e-21)
(0.0252172 -0.0179139 4.64097e-21)
(0.0326332 -0.0180318 -1.80123e-20)
(0.0400957 -0.0181342 2.80562e-21)
(0.0475985 -0.0182214 9.66847e-22)
(0.0551358 -0.0182935 -1.89748e-21)
(0.0627018 -0.0183511 9.66309e-21)
(0.0702906 -0.0183945 1.40812e-21)
(0.0778969 -0.0184242 -2.93121e-21)
(0.0855151 -0.0184407 -3.70975e-21)
(0.0931403 -0.0184444 5.51374e-21)
(0.100767 -0.0184359 -2.40569e-21)
(0.108391 -0.0184157 6.24527e-21)
(0.116008 -0.0183845 -5.73782e-21)
(0.123613 -0.0183428 -4.11414e-23)
(0.131202 -0.0182913 1.4762e-21)
(0.138771 -0.0182305 -1.10044e-21)
(0.146317 -0.018161 -1.27158e-22)
(0.153836 -0.0180835 1.04033e-21)
(0.161325 -0.0179986 7.07067e-22)
(0.168781 -0.0179069 1.16518e-22)
(0.176201 -0.017809 -5.33056e-22)
(0.183583 -0.0177054 4.93856e-22)
(0.190925 -0.0175968 -1.35574e-21)
(0.198225 -0.0174838 -2.09956e-22)
(0.20548 -0.017367 4.23485e-22)
(0.21269 -0.0172468 -3.13787e-22)
(0.219854 -0.0171238 1.69748e-21)
(0.226969 -0.0169987 -1.0453e-21)
(0.234036 -0.0168718 3.03303e-22)
(0.241053 -0.0167438 7.66649e-22)
(0.24802 -0.0166151 -7.4503e-22)
(0.254938 -0.0164863 -2.02198e-24)
(0.261806 -0.0163578 -3.66708e-22)
(0.268624 -0.0162303 3.1482e-22)
(0.275392 -0.0161041 -8.66374e-24)
(0.282113 -0.0159798 -3.0404e-22)
(0.288785 -0.015858 1.43733e-22)
(0.295412 -0.0157391 1.0612e-22)
(0.301993 -0.0156239 -9.40729e-23)
(0.308531 -0.0155129 1.18396e-22)
(0.315028 -0.0154069 -1.33486e-22)
(0.321486 -0.0153066 7.23894e-23)
(0.327907 -0.0152131 3.16027e-23)
(0.334295 -0.0151272 -1.62831e-23)
(0.340654 -0.0150511 1.69451e-23)
(0.346981 -0.0149846 9.60679e-25)
(0.353312 -0.0149344 -1.21699e-24)
(0.359539 -0.0148937 -2.50003e-24)
(0.366089 -0.0148841 5.20658e-24)
(0.371509 -0.0148873 -2.72698e-25)
(0.381542 -0.0148739 -2.51771e-24)
(-0.0935505 -0.00787754 4.24155e-21)
(-0.0910646 -0.00850821 -6.47471e-20)
(-0.088426 -0.0091467 3.01572e-20)
(-0.0856336 -0.00979277 4.79164e-21)
(-0.0826866 -0.010446 -4.74192e-20)
(-0.0795842 -0.011106 1.10405e-21)
(-0.0763258 -0.011772 4.73916e-20)
(-0.0729108 -0.0124434 -4.76621e-20)
(-0.0693392 -0.0131192 2.00834e-20)
(-0.0656107 -0.0137986 -4.48286e-20)
(-0.0617256 -0.0144804 8.69554e-20)
(-0.0576844 -0.0151636 7.77661e-21)
(-0.0534877 -0.015847 -7.30743e-20)
(-0.0491365 -0.0165292 2.864e-20)
(-0.044632 -0.0172089 -4.5005e-20)
(-0.0399759 -0.0178848 3.08819e-20)
(-0.0351699 -0.0185554 -2.85335e-21)
(-0.0302164 -0.0192194 3.90699e-20)
(-0.0251177 -0.0198754 -7.19472e-20)
(-0.0198768 -0.0205219 3.06986e-20)
(-0.0144969 -0.0211578 -2.51397e-20)
(-0.008983 -0.0217818 1.16201e-20)
(-0.00334576 -0.0223931 4.02079e-20)
(0.00242046 -0.0229879 -2.05545e-20)
(0.0083311 -0.0235617 2.28841e-20)
(0.0143654 -0.0241161 -2.32698e-20)
(0.0205036 -0.0246524 -1.44868e-20)
(0.0267493 -0.0251687 3.44034e-20)
(0.0330996 -0.0256638 -6.56792e-21)
(0.0395491 -0.0261366 4.5356e-21)
(0.0460925 -0.0265864 6.4211e-21)
(0.0527242 -0.0270122 -1.10011e-20)
(0.0594384 -0.0274134 -1.33002e-20)
(0.0662294 -0.0277896 1.62148e-20)
(0.0730913 -0.0281404 -2.14968e-20)
(0.0800179 -0.0284658 -6.5882e-22)
(0.0870029 -0.0287651 2.05487e-20)
(0.0940412 -0.0290348 7.85606e-21)
(0.101128 -0.0292803 -6.5339e-21)
(0.108256 -0.0295004 -1.63266e-20)
(0.115419 -0.0296947 2.41735e-20)
(0.122611 -0.0298633 -2.0162e-20)
(0.129828 -0.0300069 -4.85181e-21)
(0.137064 -0.0301258 1.90133e-20)
(0.144312 -0.0302206 -5.56993e-21)
(0.151569 -0.030292 5.56439e-21)
(0.158829 -0.0303406 -5.07961e-21)
(0.166088 -0.0303673 -5.68888e-21)
(0.17334 -0.0303728 -2.45189e-21)
(0.180581 -0.0303579 8.15365e-21)
(0.187808 -0.0303237 -5.99697e-21)
(0.195015 -0.0302709 -3.62021e-21)
(0.202199 -0.0302006 8.19087e-21)
(0.209357 -0.0301137 -6.81372e-21)
(0.216486 -0.0300113 -1.67207e-22)
(0.223581 -0.0298942 4.77099e-21)
(0.230641 -0.0297636 1.38622e-21)
(0.237662 -0.0296204 5.03189e-22)
(0.244643 -0.0294656 -1.7782e-21)
(0.25158 -0.0293002 5.12152e-22)
(0.258473 -0.0291253 -3.17718e-21)
(0.265319 -0.0289417 4.568e-21)
(0.272117 -0.0287504 -3.57238e-21)
(0.278865 -0.0285525 2.74844e-22)
(0.285563 -0.0283487 4.5961e-22)
(0.292209 -0.0281402 3.14282e-21)
(0.298803 -0.0279276 -1.07565e-21)
(0.305345 -0.027712 -2.62888e-22)
(0.311834 -0.0274941 -1.85264e-21)
(0.318269 -0.0272749 5.54372e-22)
(0.324653 -0.0270552 4.55402e-22)
(0.330983 -0.0268358 -4.16423e-23)
(0.337262 -0.0266176 -1.7213e-22)
(0.34349 -0.0264013 -8.43115e-23)
(0.349668 -0.0261878 -4.58036e-22)
(0.355796 -0.025978 3.10306e-22)
(0.361877 -0.0257728 -3.84805e-23)
(0.367912 -0.025573 4.30148e-22)
(0.373902 -0.0253796 -3.90419e-25)
(0.37985 -0.0251936 -2.06016e-22)
(0.385757 -0.0250163 -7.30889e-23)
(0.391627 -0.0248487 1.13343e-22)
(0.397462 -0.0246926 -8.93416e-23)
(0.403263 -0.0245489 -1.20721e-23)
(0.409042 -0.0244215 3.23254e-23)
(0.414778 -0.024309 -1.33926e-23)
(0.420547 -0.024222 1.94293e-25)
(0.426142 -0.0241511 -1.16431e-24)
(0.432209 -0.0241185 -2.01507e-24)
(0.4369 -0.0241187 5.27042e-24)
(0.446127 -0.0241135 -5.13827e-25)
(0.0236435 -0.0133636 1.45606e-20)
(0.0267821 -0.0142477 -1.46469e-19)
(0.0300727 -0.0151392 4.04689e-21)
(0.0335148 -0.0160377 4.91378e-20)
(0.0371074 -0.0169424 5.18729e-20)
(0.0408498 -0.0178525 4.23039e-21)
(0.0447406 -0.0187672 2.6844e-20)
(0.0487786 -0.0196851 -3.88616e-20)
(0.0529623 -0.0206052 6.5234e-21)
(0.05729 -0.0215259 2.02213e-20)
(0.0617596 -0.0224458 5.27616e-22)
(0.066369 -0.0233632 -6.24557e-20)
(0.0711158 -0.0242765 9.46311e-21)
(0.0759972 -0.025184 2.00285e-20)
(0.0810103 -0.0260837 2.66513e-21)
(0.086152 -0.0269739 6.33982e-21)
(0.0914188 -0.0278526 -2.11116e-20)
(0.096807 -0.0287182 5.24729e-20)
(0.102313 -0.0295686 -8.25488e-20)
(0.107931 -0.0304022 2.06247e-20)
(0.113659 -0.0312176 -4.46639e-20)
(0.11949 -0.0320125 1.20188e-19)
(0.125419 -0.032779 -6.95077e-20)
(0.131446 -0.0335169 -2.18831e-20)
(0.137564 -0.0342333 -3.24611e-20)
(0.143766 -0.0349232 4.26193e-20)
(0.150048 -0.0355842 -3.14454e-21)
(0.156403 -0.0362149 -2.00583e-20)
(0.162827 -0.036814 1.69034e-20)
(0.169313 -0.0373806 1.64981e-20)
(0.175856 -0.0379138 6.61744e-21)
(0.18245 -0.0384127 -5.46812e-20)
(0.189089 -0.0388769 2.88345e-20)
(0.195769 -0.039306 1.00224e-20)
(0.202483 -0.0396996 -2.46014e-21)
(0.209225 -0.0400578 -2.92925e-20)
(0.21599 -0.0403798 1.99303e-22)
(0.222774 -0.0406664 2.42598e-20)
(0.229571 -0.0409178 -9.56756e-21)
(0.236375 -0.0411344 2.21266e-20)
(0.243181 -0.0413166 3.2998e-22)
(0.249986 -0.0414652 -7.11452e-21)
(0.256783 -0.041581 1.02024e-20)
(0.263568 -0.0416647 -2.2853e-20)
(0.270338 -0.0417173 9.90327e-21)
(0.277088 -0.0417398 4.7581e-21)
(0.283815 -0.0417334 -2.80573e-21)
(0.290513 -0.0416991 -1.30608e-20)
(0.297181 -0.0416381 1.15373e-20)
(0.303815 -0.0415519 1.09762e-20)
(0.310411 -0.0414415 -7.85947e-21)
(0.316968 -0.0413085 -3.94341e-21)
(0.323481 -0.041154 -2.75692e-21)
(0.32995 -0.0409796 9.91391e-21)
(0.336372 -0.0407865 -1.08574e-20)
(0.342744 -0.0405761 2.88544e-21)
(0.349066 -0.0403499 -2.76643e-21)
(0.355335 -0.0401091 1.13395e-21)
(0.361551 -0.0398553 1.86293e-21)
(0.367713 -0.0395896 9.18698e-22)
(0.373818 -0.0393135 -5.32569e-22)
(0.379868 -0.0390282 -1.50585e-22)
(0.385861 -0.038735 9.87024e-22)
(0.391797 -0.0384352 1.93655e-21)
(0.397676 -0.03813 -1.80404e-21)
(0.403498 -0.0378207 8.28073e-22)
(0.409263 -0.0375084 -1.90626e-21)
(0.414972 -0.0371942 2.20338e-21)
(0.420625 -0.0368794 -1.47779e-21)
(0.426223 -0.0365651 -1.27828e-22)
(0.431767 -0.0362524 1.76263e-22)
(0.437259 -0.0359423 3.56111e-22)
(0.442698 -0.0356361 -1.37268e-21)
(0.448087 -0.0353348 5.36838e-22)
(0.453428 -0.0350396 7.21196e-23)
(0.458721 -0.0347515 -4.18469e-22)
(0.46397 -0.0344719 5.13677e-22)
(0.469175 -0.0342021 -1.0725e-23)
(0.47434 -0.0339432 5.76063e-23)
(0.479466 -0.0336969 -8.3747e-23)
(0.484556 -0.0334645 -1.66171e-22)
(0.489616 -0.0332486 5.45024e-23)
(0.494639 -0.0330497 -4.34244e-23)
(0.499652 -0.0328728 6.97579e-23)
(0.504601 -0.0327164 3.05501e-24)
(0.509633 -0.0325908 -1.193e-23)
(0.514394 -0.0324909 -6.85308e-25)
(0.519796 -0.0324266 -1.24511e-24)
(0.523607 -0.032415 7.81411e-25)
(0.531712 -0.0324214 -1.54402e-24)
(0.165445 -0.0189003 8.16794e-20)
(0.168852 -0.0200217 -8.55258e-20)
(0.172414 -0.0211487 1.73803e-19)
(0.176128 -0.0222805 -1.48716e-19)
(0.179991 -0.0234161 7.73572e-23)
(0.184 -0.0245545 1.0902e-19)
(0.188153 -0.0256944 4.27217e-20)
(0.192445 -0.0268343 -8.38309e-20)
(0.196873 -0.0279728 -2.31229e-20)
(0.201434 -0.029108 -6.2485e-22)
(0.206124 -0.0302381 -1.73333e-20)
(0.210938 -0.0313612 -8.57834e-21)
(0.215872 -0.0324752 7.33552e-20)
(0.220922 -0.033578 -7.30639e-20)
(0.226084 -0.0346674 2.2519e-21)
(0.231352 -0.0357411 4.87202e-20)
(0.236722 -0.0367969 1.03752e-20)
(0.242189 -0.0378326 2.32344e-20)
(0.247747 -0.0388459 -4.66427e-20)
(0.253391 -0.0398346 -6.83876e-21)
(0.259116 -0.0407967 4.06447e-20)
(0.264915 -0.0417301 1.58468e-20)
(0.270784 -0.0426319 -5.23152e-20)
(0.276717 -0.0434997 1.37872e-20)
(0.28271 -0.0443325 -3.07152e-20)
(0.288757 -0.0451287 4.26102e-20)
(0.29485 -0.0458868 -1.01469e-19)
(0.300985 -0.0466056 5.91582e-20)
(0.307156 -0.0472838 -1.69153e-20)
(0.313358 -0.0479204 4.01482e-20)
(0.319584 -0.0485144 -2.12004e-20)
(0.325829 -0.0490653 1.71723e-20)
(0.332089 -0.0495723 -6.5324e-20)
(0.338357 -0.0500352 9.01252e-20)
(0.344629 -0.0504539 -3.51653e-20)
(0.3509 -0.0508282 2.20613e-20)
(0.357165 -0.0511584 -2.40336e-20)
(0.363419 -0.0514447 1.21619e-20)
(0.369658 -0.0516877 -1.30964e-20)
(0.375878 -0.0518882 1.3409e-20)
(0.382075 -0.0520468 4.50583e-21)
(0.388244 -0.0521646 -1.99609e-20)
(0.394382 -0.0522426 -4.48543e-21)
(0.400486 -0.052282 9.47126e-21)
(0.406553 -0.052284 -7.43594e-21)
(0.412579 -0.05225 -5.69696e-21)
(0.418562 -0.0521815 1.40597e-20)
(0.424499 -0.05208 4.57398e-22)
(0.430387 -0.051947 -1.09107e-20)
(0.436225 -0.0517843 -5.68873e-21)
(0.442011 -0.0515934 1.43285e-20)
(0.447743 -0.051376 -2.62795e-21)
(0.453419 -0.0511339 -7.21674e-21)
(0.459038 -0.0508689 3.10306e-22)
(0.4646 -0.0505825 9.17707e-21)
(0.470102 -0.0502767 -1.45089e-21)
(0.475545 -0.049953 -3.252e-21)
(0.480928 -0.0496132 7.77083e-21)
(0.48625 -0.049259 -3.66465e-21)
(0.491512 -0.0488921 -3.38372e-21)
(0.496712 -0.048514 -7.3027e-22)
(0.501852 -0.0481264 -5.83595e-21)
(0.506932 -0.047731 6.41711e-21)
(0.511953 -0.0473291 -1.1313e-21)
(0.516913 -0.0469224 -1.00055e-22)
(0.521816 -0.0465123 9.20326e-22)
(0.526661 -0.0461002 7.76036e-22)
(0.531449 -0.0456877 -2.17687e-21)
(0.536182 -0.045276 1.57587e-21)
(0.54086 -0.0448665 7.27957e-22)
(0.545486 -0.0444607 -2.58144e-21)
(0.550061 -0.0440598 4.02872e-23)
(0.554586 -0.0436652 1.45542e-21)
(0.559063 -0.0432782 -3.02406e-22)
(0.563495 -0.0429002 -1.0433e-22)
(0.567882 -0.0425325 3.09306e-22)
(0.572228 -0.0421767 -2.99403e-22)
(0.576534 -0.0418342 2.56883e-23)
(0.580803 -0.0415066 1.52486e-22)
(0.585038 -0.0411957 -1.38124e-22)
(0.589238 -0.0409029 -1.03321e-22)
(0.593416 -0.0406311 1.35895e-23)
(0.597552 -0.0403812 1.75076e-22)
(0.601697 -0.0401577 -1.17721e-22)
(0.60575 -0.0399611 -4.98983e-24)
(0.609944 -0.0397967 1.54419e-24)
(0.613776 -0.0396698 -1.22113e-23)
(0.61837 -0.0395728 -3.05629e-24)
(0.621298 -0.0395408 1.58367e-24)
(0.628067 -0.039548 1.36645e-24)
(0.328627 -0.0243594 -3.79231e-20)
(0.331848 -0.0257349 -5.05961e-20)
(0.335237 -0.0271094 -4.6173e-20)
(0.338788 -0.028482 1.38988e-19)
(0.342495 -0.0298516 1.38717e-21)
(0.346352 -0.0312173 1.24838e-20)
(0.350354 -0.0325776 -7.78325e-20)
(0.354493 -0.033931 7.69641e-20)
(0.358763 -0.0352759 -4.72874e-21)
(0.36316 -0.0366103 6.98569e-21)
(0.367676 -0.0379321 -1.66806e-19)
(0.372305 -0.0392394 5.83703e-20)
(0.37704 -0.0405298 1.11699e-19)
(0.381876 -0.041801 -1.04346e-19)
(0.386805 -0.0430508 -7.12524e-20)
(0.391822 -0.0442766 3.71361e-20)
(0.39692 -0.0454762 2.76861e-20)
(0.402092 -0.046647 1.24307e-20)
(0.407332 -0.0477868 -3.055e-20)
(0.412634 -0.048893 1.2035e-19)
(0.41799 -0.0499635 -9.28982e-20)
(0.423395 -0.050996 3.94721e-20)
(0.428842 -0.0519882 -6.08866e-20)
(0.434325 -0.0529379 2.90715e-20)
(0.439839 -0.0538436 2.38087e-20)
(0.445378 -0.0547037 1.52282e-21)
(0.450934 -0.0555169 -1.36929e-20)
(0.456504 -0.0562817 -1.92072e-20)
(0.462081 -0.0569971 1.38334e-20)
(0.467661 -0.0576622 -3.7325e-20)
(0.473237 -0.0582761 3.46873e-20)
(0.478805 -0.0588385 2.53499e-21)
(0.48436 -0.0593488 -6.73137e-21)
(0.489898 -0.0598071 6.08254e-21)
(0.495415 -0.0602133 -3.88847e-20)
(0.500906 -0.0605677 -2.20325e-20)
(0.506367 -0.0608707 8.02874e-20)
(0.511795 -0.061123 -8.09404e-20)
(0.517186 -0.0613254 9.94181e-20)
(0.522538 -0.0614789 -3.17437e-20)
(0.527848 -0.0615845 2.24615e-20)
(0.533112 -0.0616437 -6.52747e-20)
(0.538328 -0.0616577 -1.83407e-21)
(0.543494 -0.0616282 1.36049e-20)
(0.548609 -0.0615566 7.52418e-21)
(0.553669 -0.0614449 4.34535e-23)
(0.558674 -0.0612946 2.35633e-20)
(0.563623 -0.0611078 -2.27374e-20)
(0.568513 -0.0608862 1.39944e-20)
(0.573345 -0.060632 1.34375e-21)
(0.578116 -0.0603471 -1.26071e-21)
(0.582827 -0.0600336 -1.67919e-20)
(0.587478 -0.0596934 9.41736e-21)
(0.592067 -0.0593286 4.5344e-21)
(0.596594 -0.0589413 5.81065e-21)
(0.601061 -0.0585335 -8.05502e-21)
(0.605466 -0.0581072 -1.36074e-20)
(0.609811 -0.0576643 3.54876e-21)
(0.614095 -0.057207 9.35428e-21)
(0.618319 -0.056737 -4.71017e-21)
(0.622484 -0.0562563 2.08677e-23)
(0.626591 -0.0557668 3.37498e-21)
(0.630641 -0.0552701 -1.74139e-21)
(0.634634 -0.0547682 -2.02734e-21)
(0.638571 -0.0542628 5.28696e-21)
(0.642455 -0.0537554 -4.26809e-21)
(0.646285 -0.0532479 2.92939e-21)
(0.650065 -0.0527417 -6.47082e-22)
(0.653794 -0.0522386 -1.92878e-21)
(0.657475 -0.05174 1.70345e-22)
(0.661109 -0.0512474 -5.33572e-22)
(0.664699 -0.0507624 1.26661e-21)
(0.668245 -0.0502866 1.0167e-21)
(0.67175 -0.0498213 -2.44263e-22)
(0.675215 -0.0493682 -7.49393e-22)
(0.678644 -0.0489288 -1.27924e-21)
(0.682037 -0.0485047 1.38419e-21)
(0.685398 -0.0480975 -6.40956e-22)
(0.688727 -0.0477089 2.23262e-22)
(0.69203 -0.0473409 1.07434e-22)
(0.695302 -0.0469953 1.82301e-22)
(0.698562 -0.0466744 -2.71019e-22)
(0.701776 -0.0463804 3.23852e-23)
(0.705021 -0.0461154 4.7496e-23)
(0.70815 -0.0458844 -1.06569e-23)
(0.711464 -0.0456846 -4.04983e-24)
(0.714369 -0.0455328 2.22016e-23)
(0.718063 -0.0454072 -1.77243e-23)
(0.720193 -0.045352 1.23484e-24)
(0.725532 -0.0453464 -1.5496e-24)
(0.508745 -0.0305145 -2.59338e-19)
(0.511404 -0.0321456 3.48172e-19)
(0.514243 -0.0337647 -3.433e-19)
(0.517253 -0.0353707 1.76679e-19)
(0.520423 -0.0369626 -2.10543e-19)
(0.523744 -0.0385392 8.67803e-20)
(0.527207 -0.0400991 2.02923e-19)
(0.530803 -0.0416406 8.78301e-21)
(0.534523 -0.0431616 -3.44519e-20)
(0.538357 -0.0446604 -2.63647e-19)
(0.542298 -0.0461347 8.26599e-20)
(0.546337 -0.0475823 1.52967e-19)
(0.550465 -0.0490009 -1.30624e-19)
(0.554673 -0.0503881 9.82955e-20)
(0.558954 -0.0517416 -9.67816e-20)
(0.5633 -0.053059 1.17539e-19)
(0.567703 -0.0543379 -9.51232e-20)
(0.572155 -0.0555759 -4.96981e-20)
(0.576649 -0.0567708 3.77492e-20)
(0.581177 -0.0579203 9.63162e-21)
(0.585734 -0.0590224 -7.4398e-22)
(0.590311 -0.060075 -5.51254e-20)
(0.594904 -0.0610763 7.09318e-20)
(0.599505 -0.0620245 1.04592e-21)
(0.604109 -0.0629183 8.68174e-21)
(0.608711 -0.0637564 -9.62223e-21)
(0.613304 -0.0645376 -1.36135e-20)
(0.617885 -0.0652612 2.6188e-20)
(0.622447 -0.0659265 -2.94986e-20)
(0.626988 -0.066533 -5.12669e-21)
(0.631502 -0.0670806 7.65776e-21)
(0.635986 -0.0675691 3.12888e-20)
(0.640437 -0.0679988 8.62055e-21)
(0.644851 -0.0683701 -3.97508e-20)
(0.649224 -0.0686834 5.45351e-20)
(0.653556 -0.0689396 -1.53086e-20)
(0.657842 -0.0691397 7.81982e-21)
(0.662081 -0.0692848 -5.27338e-20)
(0.666271 -0.0693763 -6.14046e-21)
(0.67041 -0.0694155 4.0117e-20)
(0.674497 -0.0694041 1.98283e-20)
(0.678531 -0.0693439 7.12156e-21)
(0.68251 -0.0692367 -2.96401e-20)
(0.686434 -0.0690845 -2.1004e-22)
(0.690302 -0.0688892 -1.56041e-20)
(0.694113 -0.068653 -1.37998e-20)
(0.697868 -0.0683781 3.0211e-21)
(0.701565 -0.0680667 4.58977e-20)
(0.705206 -0.0677211 -7.64017e-21)
(0.708791 -0.0673435 -3.97798e-20)
(0.712319 -0.0669363 2.93586e-20)
(0.715791 -0.0665017 -9.20529e-21)
(0.719207 -0.0660421 1.25556e-20)
(0.722569 -0.0655597 -1.12106e-20)
(0.725876 -0.0650568 2.4665e-21)
(0.72913 -0.0645356 1.26399e-20)
(0.732331 -0.0639984 -1.68357e-20)
(0.735481 -0.0634473 6.87729e-21)
(0.738581 -0.0628845 4.05843e-21)
(0.741631 -0.0623119 -6.33164e-21)
(0.744632 -0.0617317 5.88759e-22)
(0.747587 -0.0611459 -5.81055e-22)
(0.750496 -0.0605563 7.95607e-21)
(0.75336 -0.0599649 -5.09892e-21)
(0.756182 -0.0593734 -6.11949e-21)
(0.758962 -0.0587838 1.02035e-20)
(0.761702 -0.0581977 -6.85573e-21)
(0.764403 -0.0576169 -2.69163e-21)
(0.767067 -0.057043 6.79784e-21)
(0.769696 -0.0564777 -2.07281e-21)
(0.772291 -0.0559227 -6.91901e-22)
(0.774854 -0.0553796 2.05651e-21)
(0.777387 -0.0548499 -1.96103e-21)
(0.779891 -0.0543354 6.07471e-22)
(0.782368 -0.0538376 1.86383e-22)
(0.78482 -0.0533583 -1.62248e-22)
(0.787251 -0.0528992 -4.42338e-22)
(0.789657 -0.0524622 4.30595e-22)
(0.792049 -0.0520489 -2.42114e-22)
(0.794414 -0.0516619 4.88573e-22)
(0.796782 -0.0513021 1.70099e-22)
(0.799102 -0.0509741 1.07288e-22)
(0.801471 -0.0506762 -2.30978e-22)
(0.803718 -0.0504186 1.31677e-22)
(0.806164 -0.0501909 -3.50149e-23)
(0.808217 -0.0500182 4.74099e-23)
(0.810981 -0.0498708 2.73517e-24)
(0.812438 -0.0497954 -6.33036e-24)
(0.816363 -0.04977 5.8545e-25)
(0.691049 -0.0351088 -1.2219e-19)
(0.692661 -0.0370284 1.59061e-19)
(0.694458 -0.0389174 -4.00465e-19)
(0.696427 -0.0407753 4.5679e-19)
(0.698556 -0.0426012 -1.84144e-19)
(0.700831 -0.044394 -9.0536e-20)
(0.703242 -0.0461523 1.66579e-19)
(0.705777 -0.0478749 -2.38393e-19)
(0.708424 -0.0495601 3.94143e-19)
(0.711174 -0.0512062 -3.48288e-19)
(0.714015 -0.0528116 7.81364e-20)
(0.716939 -0.0543744 9.17454e-20)
(0.719935 -0.0558926 -1.4048e-19)
(0.722994 -0.0573643 -3.09126e-20)
(0.726107 -0.0587876 9.46053e-20)
(0.729265 -0.0601606 -1.50232e-19)
(0.732462 -0.0614813 2.54252e-19)
(0.735688 -0.0627479 -1.37517e-19)
(0.738937 -0.0639586 2.46979e-20)
(0.742202 -0.0651118 5.72341e-20)
(0.745477 -0.0662058 -8.00484e-20)
(0.748755 -0.0672393 -7.47722e-22)
(0.75203 -0.068211 7.49875e-20)
(0.755298 -0.0691199 -3.58769e-20)
(0.758553 -0.069965 -3.6769e-20)
(0.761792 -0.0707457 2.25607e-20)
(0.765009 -0.0714615 4.60477e-20)
(0.768201 -0.0721123 2.2878e-20)
(0.771365 -0.0726979 -2.16775e-20)
(0.774497 -0.0732186 -7.05482e-20)
(0.777595 -0.0736746 1.01124e-19)
(0.780657 -0.0740667 -6.46825e-20)
(0.783681 -0.0743954 4.91441e-20)
(0.786664 -0.0746619 -8.90666e-20)
(0.789605 -0.0748671 1.88301e-21)
(0.792503 -0.0750125 -8.4989e-21)
(0.795357 -0.0750996 9.67148e-20)
(0.798166 -0.0751299 -3.48038e-20)
(0.80093 -0.0751053 3.52788e-20)
(0.803647 -0.0750278 -1.22035e-20)
(0.806319 -0.0748993 -6.18066e-20)
(0.808945 -0.074722 3.87368e-20)
(0.811524 -0.0744981 4.78283e-21)
(0.814058 -0.0742299 -3.71633e-20)
(0.816547 -0.0739197 1.11325e-20)
(0.818991 -0.07357 2.87598e-20)
(0.821391 -0.0731832 -3.82631e-20)
(0.823747 -0.0727618 2.61306e-20)
(0.82606 -0.0723083 1.76608e-20)
(0.828331 -0.071825 -3.00512e-20)
(0.830562 -0.0713147 1.31814e-20)
(0.832752 -0.0707796 7.44963e-21)
(0.834903 -0.0702223 1.60511e-21)
(0.837015 -0.0696451 -7.72913e-21)
(0.839091 -0.0690505 2.73278e-21)
(0.841131 -0.0684407 -1.09696e-20)
(0.843135 -0.0678181 6.81605e-21)
(0.845106 -0.0671849 -3.75184e-21)
(0.847044 -0.0665434 6.91255e-21)
(0.848951 -0.0658956 -3.72266e-21)
(0.850828 -0.0652436 -2.32409e-21)
(0.852675 -0.0645895 7.97064e-21)
(0.854495 -0.0639352 -8.94359e-21)
(0.856288 -0.0632827 3.05153e-21)
(0.858055 -0.0626338 3.20591e-21)
(0.859798 -0.0619905 -3.60703e-21)
(0.861519 -0.0613544 -4.38151e-23)
(0.863218 -0.0607274 -1.24744e-22)
(0.864896 -0.0601111 -2.45564e-21)
(0.866555 -0.0595074 4.85963e-21)
(0.868197 -0.0589178 -1.98878e-21)
(0.869822 -0.058344 5.50674e-22)
(0.871432 -0.0577878 -1.40084e-21)
(0.873029 -0.0572507 -8.14217e-22)
(0.874612 -0.0567348 8.81593e-22)
(0.876186 -0.0562414 8.25676e-22)
(0.877747 -0.0557728 -1.33716e-21)
(0.879305 -0.0553302 8.20899e-22)
(0.880845 -0.0549168 -8.52478e-22)
(0.882397 -0.0545324 6.0402e-22)
(0.883912 -0.0541832 8.82634e-23)
(0.885479 -0.0538647 -2.32836e-22)
(0.886942 -0.0535904 1.89372e-22)
(0.888581 -0.0533456 -4.5767e-23)
(0.889904 -0.0531587 9.51828e-24)
(0.891778 -0.0529978 -3.48572e-23)
(0.892694 -0.0529083 -1.3482e-23)
(0.895324 -0.0528658 2.49769e-25)
(0.860701 -0.035456 -9.39174e-20)
(0.860814 -0.0376522 -9.84578e-21)
(0.86111 -0.0397988 -1.0128e-20)
(0.861574 -0.041897 -3.32671e-19)
(0.862193 -0.0439469 7.42387e-20)
(0.862954 -0.0459483 2.56445e-20)
(0.863846 -0.0479007 3.71077e-19)
(0.864855 -0.0498034 -5.05288e-20)
(0.865972 -0.0516553 -1.05076e-19)
(0.867184 -0.0534554 1.20254e-19)
(0.868481 -0.0552024 -8.57629e-20)
(0.869854 -0.056895 -8.5037e-20)
(0.871293 -0.0585317 -7.06541e-20)
(0.87279 -0.0601111 1.3298e-19)
(0.874335 -0.0616318 -2.81439e-19)
(0.875921 -0.0630922 2.68675e-19)
(0.877541 -0.0644909 6.38984e-21)
(0.879188 -0.0658266 -1.87713e-19)
(0.880855 -0.067098 -7.56477e-20)
(0.882536 -0.0683038 2.29388e-19)
(0.884225 -0.069443 -3.79037e-20)
(0.885918 -0.0705146 -1.11818e-19)
(0.887611 -0.0715178 1.32511e-19)
(0.889298 -0.0724519 -1.63919e-20)
(0.890976 -0.0733166 -1.35258e-20)
(0.892641 -0.0741114 3.41713e-20)
(0.894292 -0.0748365 -3.07927e-20)
(0.895924 -0.0754918 1.17411e-20)
(0.897536 -0.0760776 5.48722e-20)
(0.899125 -0.0765944 -6.17108e-20)
(0.900691 -0.0770429 2.65664e-20)
(0.902231 -0.0774238 -1.58837e-20)
(0.903745 -0.0777384 5.48303e-20)
(0.905233 -0.0779877 -2.79016e-21)
(0.906692 -0.0781732 -4.46907e-22)
(0.908123 -0.0782963 -8.40547e-20)
(0.909526 -0.0783589 3.9245e-21)
(0.910901 -0.0783629 2.05039e-20)
(0.912248 -0.0783102 -2.91158e-20)
(0.913567 -0.0782029 3.31832e-20)
(0.914859 -0.0780433 -1.32342e-21)
(0.916123 -0.0778337 1.73436e-20)
(0.917362 -0.0775764 1.87321e-20)
(0.918575 -0.077274 -2.52761e-20)
(0.919763 -0.0769288 -2.02906e-20)
(0.920927 -0.0765434 -1.72236e-20)
(0.922068 -0.0761204 4.9212e-20)
(0.923187 -0.0756623 -1.97079e-20)
(0.924284 -0.0751718 1.82399e-22)
(0.925361 -0.0746515 -3.52012e-20)
(0.926418 -0.0741039 3.33389e-20)
(0.927456 -0.0735315 -5.82711e-22)
(0.928477 -0.0729369 -2.67938e-20)
(0.92948 -0.0723227 4.27918e-20)
(0.930468 -0.0716912 -2.54572e-20)
(0.931441 -0.0710449 5.34985e-21)
(0.932399 -0.0703861 -6.06296e-21)
(0.933344 -0.0697172 5.19053e-21)
(0.934276 -0.0690404 5.50551e-21)
(0.935197 -0.068358 2.01181e-21)
(0.936107 -0.0676721 -5.46587e-21)
(0.937008 -0.0669848 -3.89861e-21)
(0.937899 -0.0662981 2.14378e-21)
(0.938781 -0.065614 4.2406e-21)
(0.939657 -0.0649346 2.56009e-21)
(0.940525 -0.0642616 -2.78641e-21)
(0.941388 -0.063597 4.11527e-21)
(0.942245 -0.0629426 -9.7184e-21)
(0.943098 -0.0623001 7.04147e-21)
(0.943948 -0.0616713 -4.72415e-21)
(0.944794 -0.061058 1.96299e-21)
(0.945638 -0.0604619 1.33083e-21)
(0.946481 -0.0598847 -8.29697e-22)
(0.947324 -0.0593281 5.59265e-22)
(0.948165 -0.0587941 -1.15012e-21)
(0.949009 -0.0582839 -1.0159e-21)
(0.949852 -0.0578003 1.05888e-21)
(0.950701 -0.0573436 -3.62756e-22)
(0.951544 -0.0569182 7.60449e-23)
(0.952404 -0.0565222 1.95575e-22)
(0.953242 -0.0561634 -4.25542e-24)
(0.954126 -0.0558354 1.404e-22)
(0.954941 -0.0555532 -1.2412e-22)
(0.955882 -0.0553003 8.2036e-23)
(0.956618 -0.0551056 5.80715e-23)
(0.957709 -0.0549371 6.09695e-23)
(0.95821 -0.0548384 -1.28872e-23)
(0.959731 -0.0547811 -4.47346e-24)
(1.00481 -0.0357258 1.27807e-19)
(1.00356 -0.0382309 -3.35874e-19)
(1.00247 -0.0406631 2.23629e-19)
(1.00151 -0.0430237 -1.04479e-19)
(1.00068 -0.0453137 1.92632e-19)
(0.999968 -0.0475337 -3.61212e-19)
(0.999364 -0.0496843 3.92839e-19)
(0.998858 -0.0517656 -2.91473e-19)
(0.998442 -0.0537775 2.35462e-19)
(0.998107 -0.0557198 -1.46035e-19)
(0.997846 -0.0575921 -9.10319e-20)
(0.99765 -0.0593938 2.64824e-19)
(0.997512 -0.0611242 -2.55005e-19)
(0.997425 -0.0627828 -1.5542e-19)
(0.997383 -0.0643686 2.4021e-19)
(0.99738 -0.0658811 -1.0477e-21)
(0.99741 -0.0673196 8.79113e-20)
(0.997469 -0.0686832 -6.37728e-20)
(0.997551 -0.0699715 8.06976e-20)
(0.997652 -0.071184 -1.74108e-19)
(0.997769 -0.0723201 -9.50842e-20)
(0.997897 -0.0733797 8.46897e-20)
(0.998035 -0.0743627 8.34831e-20)
(0.998178 -0.0752689 9.51216e-20)
(0.998325 -0.0760988 -7.12842e-20)
(0.998474 -0.0768525 -6.56925e-21)
(0.998623 -0.0775306 -4.6219e-20)
(0.99877 -0.0781337 -4.75065e-20)
(0.998914 -0.0786628 8.73914e-20)
(0.999054 -0.0791187 6.78906e-23)
(0.99919 -0.0795028 -4.79241e-20)
(0.99932 -0.0798164 1.66626e-20)
(0.999446 -0.080061 -3.34764e-20)
(0.999565 -0.0802384 1.34782e-20)
(0.99968 -0.0803503 3.76149e-20)
(0.999788 -0.0803989 -2.44187e-20)
(0.999892 -0.0803862 -2.80916e-20)
(0.99999 -0.0803145 2.60949e-20)
(1.00008 -0.0801861 4.29954e-20)
(1.00017 -0.0800034 -6.88659e-20)