/*--------------------------------*- C++ -*----------------------------------*\
  =========                 |
  \\      /  F ield         | OpenFOAM: The Open Source CFD Toolbox
   \\    /   O peration     | Website:  https://openfoam.org
    \\  /    A nd           | Version:  7
     \\/     M anipulation  |
\*---------------------------------------------------------------------------*/
FoamFile
{
    version     2.0;
    format      ascii;
    class       volScalarField;
    location    "15";
    object      p;
}
// * * * * * * * * * * * * * * * * * * * * * * * * * * * * * * * * * * * * * //

dimensions      [0 2 -2 0 0 0 0];

internalField   nonuniform List<scalar> 
1360
(
-0.323529
0.835946
0.786857
0.835946
0.786857
0.807352
0.759725
0.751458
0.706699
0.670788
0.630189
0.602732
0.568954
0.533651
0.511098
0.498312
0.450466
0.421395
0.404456
0.397294
0.320486
0.298352
0.287454
0.286165
0.289494
0.184541
0.169795
0.165084
0.169569
0.179124
0.190819
0.2026
0.0482298
0.0410367
0.0423958
0.0522427
0.0674718
0.0852802
0.103456
0.120434
0.135298
-0.083057
-0.0829029
-0.0757988
-0.0612452
-0.0411929
-0.0181805
0.00553962
0.0282727
0.0489399
0.0669984
0.0823011
-0.20492
-0.197352
-0.185155
-0.166785
-0.142935
-0.115903
-0.0878019
-0.060366
-0.0347959
-0.011782
0.00839823
0.0257531
0.0404682
0.0528181
-0.313005
-0.298852
-0.282168
-0.260829
-0.234455
-0.204712
-0.173579
-0.142735
-0.113418
-0.0864521
-0.0622344
-0.040874
-0.0222761
-0.0062244
0.00754293
0.0192892
0.0293557
-0.404584
-0.384663
-0.36426
-0.340875
-0.313084
-0.281992
-0.249275
-0.21645
-0.184736
-0.155001
-0.127767
-0.103264
-0.0815006
-0.0623432
-0.045582
-0.030984
-0.0182543
-0.00691975
0.00317245
0.00995571
-0.477949
-0.453249
-0.429938
-0.405341
-0.377163
-0.345966
-0.313048
-0.279677
-0.246952
-0.215744
-0.186648
-0.159998
-0.135916
-0.114362
-0.0952028
-0.0782522
-0.0632728
-0.0499138
-0.0379033
-0.0286054
-0.532557
-0.50422
-0.478829
-0.453731
-0.426004
-0.395729
-0.363807
-0.331193
-0.298797
-0.267415
-0.23766
-0.209939
-0.184472
-0.161321
-0.14044
-0.121714
-0.104971
-0.0899395
-0.0764057
-0.0651394
-0.568984
-0.538246
-0.511597
-0.486578
-0.459909
-0.431299
-0.401284
-0.370489
-0.339581
-0.309217
-0.279963
-0.25225
-0.226366
-0.202462
-0.18058
-0.160684
-0.142678
-0.126385
-0.111619
-0.0986886
-0.588756
-0.556881
-0.529772
-0.505296
-0.480071
-0.453574
-0.426042
-0.3978
-0.369258
-0.340887
-0.313149
-0.286444
-0.261082
-0.237274
-0.215135
-0.194706
-0.175968
-0.158842
-0.143184
-0.1289
-0.594114
-0.56232
-0.535511
-0.511951
-0.488383
-0.464184
-0.439387
-0.414078
-0.388433
-0.362729
-0.337285
-0.312421
-0.288418
-0.265506
-0.243848
-0.223543
-0.204639
-0.187153
-0.171014
-0.155828
-0.587735
-0.557118
-0.53131
-0.508985
-0.487177
-0.465272
-0.443196
-0.420877
-0.398314
-0.375607
-0.352927
-0.330483
-0.308491
-0.287152
-0.26664
-0.247085
-0.228581
-0.211215
-0.195005
-0.179352
-0.572443
-0.543921
-0.519729
-0.498924
-0.478929
-0.459216
-0.439681
-0.420171
-0.400577
-0.380871
-0.361097
-0.341352
-0.321765
-0.302483
-0.283651
-0.265399
-0.247834
-0.231088
-0.215266
-0.199593
-0.550948
-0.525218
-0.50315
-0.484123
-0.465993
-0.448349
-0.431105
-0.414096
-0.397165
-0.380211
-0.363193
-0.346119
-0.329038
-0.312032
-0.295202
-0.278651
-0.262476
-0.246831
-0.231916
-0.216752
-0.525643
-0.503173
-0.483611
-0.466587
-0.450383
-0.434712
-0.419528
-0.404687
-0.390033
-0.375444
-0.360835
-0.346162
-0.331421
-0.316645
-0.301899
-0.287263
-0.272829
-0.258787
-0.24555
-0.231988
-0.498471
-0.479513
-0.462709
-0.447866
-0.433658
-0.419905
-0.406601
-0.393642
-0.380898
-0.368253
-0.355614
-0.342918
-0.33013
-0.317256
-0.304339
-0.291455
-0.278697
-0.266339
-0.255298
-0.244822
-0.470883
-0.455519
-0.441599
-0.429049
-0.416889
-0.405025
-0.393482
-0.382195
-0.371069
-0.360011
-0.34894
-0.337791
-0.326525
-0.315135
-0.303659
-0.292189
-0.280851
-0.269885
-0.260523
-0.255078
-0.443884
-0.432076
-0.421054
-0.410827
-0.400723
-0.39071
-0.380833
-0.371061
-0.36133
-0.351569
-0.341709
-0.331682
-0.321425
-0.310879
-0.299992
-0.28874
-0.277089
-0.264524
-0.249673
-0.238114
-0.418166
-0.409779
-0.401581
-0.393626
-0.385519
-0.377285
-0.368979
-0.360599
-0.352113
-0.343477
-0.334644
-0.325562
-0.316177
-0.306432
-0.296275
-0.285699
-0.27475
-0.262999
-0.248898
-0.23787
-0.39427
-0.389115
-0.38357
-0.377742
-0.3715
-0.36491
-0.358043
-0.350921
-0.343542
-0.335892
-0.327949
-0.319688
-0.311076
-0.302082
-0.292677
-0.282887
-0.272794
-0.262046
-0.249451
-0.240161
-0.37273
-0.370536
-0.367394
-0.363473
-0.358885
-0.353747
-0.348137
-0.342103
-0.335673
-0.328861
-0.321671
-0.314103
-0.306152
-0.29781
-0.289077
-0.280005
-0.270681
-0.26082
-0.249642
-0.241628
-0.354174
-0.354573
-0.353503
-0.351194
-0.347992
-0.344056
-0.339481
-0.334338
-0.328681
-0.322551
-0.315977
-0.308985
-0.301596
-0.29383
-0.285719
-0.277333
-0.268763
-0.25982
-0.250086
-0.242904
-0.339324
-0.341828
-0.34241
-0.341365
-0.339234
-0.33622
-0.332431
-0.327961
-0.322888
-0.317275
-0.311173
-0.304632
-0.297696
-0.290414
-0.282842
-0.275063
-0.26717
-0.259085
-0.25066
-0.243946
-0.328908
-0.332906
-0.334643
-0.334465
-0.333061
-0.330668
-0.327406
-0.323385
-0.318701
-0.313434
-0.307653
-0.301423
-0.29481
-0.287881
-0.28071
-0.273388
-0.26601
-0.258593
-0.251154
-0.244655
-0.323529
-0.328304
-0.330635
-0.330899
-0.329863
-0.327782
-0.324783
-0.320986
-0.316496
-0.311402
-0.305782
-0.299713
-0.293268
-0.286526
-0.279571
-0.272495
-0.265395
-0.258344
-0.251434
-0.245007
0.0121926
0.0137082
0.0140832
0.0151351
0.0163587
0.0175804
0.0187855
0.0199441
0.0210191
0.021992
0.022857
0.0236132
0.0242623
0.0248071
0.0252507
0.0255959
0.0258459
0.0259992
0.0260446
0.0260226
-0.0218515
-0.0156312
-0.0110866
-0.00677982
-0.0029751
0.000272262
0.0031376
0.00568753
0.00791009
0.00983644
0.0114985
0.012922
0.0141289
0.0151374
0.0159626
0.0166165
0.0171094
0.0174462
0.0176195
0.0176593
-0.0542111
-0.0433672
-0.0350335
-0.027822
-0.0216421
-0.0166018
-0.012196
-0.00829589
-0.00498065
-0.00214372
0.000282437
0.00234756
0.00409242
0.00555004
0.0067468
0.00770353
0.00843707
0.00895886
0.00926709
0.00937787
-0.0842564
-0.0694953
-0.05775
-0.0479566
-0.039703
-0.0327285
-0.0267925
-0.0217455
-0.0174546
-0.0137878
-0.0106557
-0.00799117
-0.00573919
-0.00385507
-0.00230298
-0.00105452
-8.70446e-05
0.000615879
0.00105908
0.00125304
-0.111418
-0.0935431
-0.0789672
-0.0668762
-0.0567523
-0.0481962
-0.0409441
-0.0347969
-0.029566
-0.0251002
-0.0212902
-0.0180506
-0.0153119
-0.0130178
-0.0111235
-0.00959336
-0.00839912
-0.00751907
-0.00694295
-0.00667165
-0.135869
-0.115491
-0.0986317
-0.0846061
-0.0728434
-0.0629024
-0.0544731
-0.0473065
-0.0411944
-0.0359751
-0.0315239
-0.0277393
-0.0245386
-0.021855
-0.0196354
-0.0178375
-0.0164278
-0.0153795
-0.0146765
-0.0143318
-0.157385
-0.135211
-0.116748
-0.101172
-0.087951
-0.0767476
-0.0672508
-0.059159
-0.0522407
-0.0463262
-0.041279
-0.0369846
-0.0333499
-0.0303
-0.0277744
-0.0257251
-0.0241139
-0.0229094
-0.0220897
-0.0216761
-0.175793
-0.152831
-0.133708
-0.116905
-0.102287
-0.0898835
-0.0793753
-0.070392
-0.0626968
-0.0561196
-0.0505083
-0.0457334
-0.0416911
-0.0382983
-0.0354876
-0.0332052
-0.0314089
-0.0300632
-0.0291405
-0.028666
-0.190821
-0.168263
-0.14925
-0.131256
-0.115347
-0.101994
-0.0906597
-0.0808971
-0.0725076
-0.0653283
-0.0591941
-0.0539679
-0.0495413
-0.0458253
-0.0427471
-0.0402479
-0.0382817
-0.0368097
-0.035799
-0.0352735
-0.203891
-0.183853
-0.165323
-0.145706
-0.128356
-0.113889
-0.101499
-0.090814
-0.0816836
-0.0739006
-0.0672615
-0.0616117
-0.0568309
-0.0528208
-0.0495014
-0.0468092
-0.0446945
-0.0431161
-0.0420366
-0.0414734
-0.214798
-0.197236
-0.177532
-0.156772
-0.139223
-0.124386
-0.111368
-0.100055
-0.0903438
-0.0820177
-0.0748898
-0.068817
-0.0636781
-0.0593699
-0.055808
-0.0529244
-0.0506656
-0.0489882
-0.0478515
-0.0472607
-0.239248
-0.221077
-0.196476
-0.172726
-0.152755
-0.135636
-0.120964
-0.108578
-0.0981134
-0.0892184
-0.0816479
-0.0752207
-0.0697928
-0.06525
-0.0615013
-0.0584742
-0.0561116
-0.0543691
-0.0532048
-0.0526096
-0.2319
-0.21952
-0.200696
-0.181186
-0.162726
-0.145689
-0.130553
-0.117424
-0.106128
-0.0964475
-0.0881836
-0.0811593
-0.0752251
-0.0702591
-0.0661631
-0.062858
-0.060282
-0.0583884
-0.0571358
-0.0564988
-0.231801
-0.218635
-0.201336
-0.183537
-0.166048
-0.149555
-0.13466
-0.121534
-0.110114
-0.10026
-0.0918117
-0.0846081
-0.0785094
-0.073398
-0.0691772
-0.0657685
-0.0631098
-0.0611548
-0.0598644
-0.0592111
-0.231292
-0.216283
-0.198917
-0.18185
-0.165258
-0.149658
-0.135496
-0.12291
-0.111872
-0.102286
-0.0940187
-0.0869379
-0.0809217
-0.0758654
-0.0716807
-0.0682954
-0.0656514
-0.0637051
-0.0624217
-0.0617769
-0.228509
-0.212726
-0.195845
-0.179532
-0.163799
-0.149062
-0.135645
-0.123652
-0.113069
-0.103821
-0.0958034
-0.0889048
-0.0830217
-0.0780621
-0.0739476
-0.0706128
-0.0680045
-0.0660822
-0.0648148
-0.0641812
-0.224196
-0.208694
-0.192888
-0.177503
-0.162617
-0.148653
-0.135884
-0.124407
-0.114224
-0.105277
-0.097484
-0.0907511
-0.0849898
-0.0801193
-0.0760694
-0.072781
-0.0702055
-0.0683055
-0.0670525
-0.0664275
-0.219253
-0.204507
-0.189893
-0.175469
-0.161419
-0.148187
-0.136024
-0.125031
-0.115226
-0.106569
-0.0989956
-0.092428
-0.0867903
-0.0820116
-0.0780295
-0.0747903
-0.0722501
-0.0703742
-0.0691366
-0.0685201
-0.214067
-0.200203
-0.186709
-0.173204
-0.159972
-0.147457
-0.135892
-0.125385
-0.115966
-0.107612
-0.100274
-0.0938868
-0.0883871
-0.0837133
-0.0798101
-0.0766296
-0.074132
-0.0722858
-0.0710671
-0.0704605
-0.208747
-0.195793
-0.183339
-0.170711
-0.158273
-0.146459
-0.135487
-0.125469
-0.116446
-0.108409
-0.10132
-0.0951291
-0.0897818
-0.0852257
-0.0814125
-0.0783
-0.0758524
-0.0740413
-0.0728451
-0.0722499
-0.20336
-0.191318
-0.179837
-0.168053
-0.156385
-0.145251
-0.134859
-0.125326
-0.116702
-0.108988
-0.102158
-0.0961723
-0.0909875
-0.0865587
-0.0828442
-0.0798069
-0.0774152
-0.0756437
-0.0744728
-0.0738903
-0.197967
-0.186815
-0.176243
-0.165271
-0.154343
-0.143867
-0.13404
-0.124985
-0.116758
-0.109368
-0.102802
-0.0970298
-0.092015
-0.0877207
-0.0841116
-0.0811554
-0.0788244
-0.077096
-0.0759529
-0.0753842
-0.192613
-0.182313
-0.172584
-0.162385
-0.152169
-0.142327
-0.13305
-0.124463
-0.116628
-0.109564
-0.103266
-0.097711
-0.0928719
-0.0887182
-0.0852201
-0.08235
-0.0800838
-0.0784018
-0.0772886
-0.0767347
-0.187326
-0.177828
-0.168878
-0.159411
-0.149879
-0.140646
-0.131902
-0.123773
-0.116326
-0.109588
-0.103558
-0.0982247
-0.0935659
-0.0895576
-0.0861751
-0.0833953
-0.0811975
-0.0795645
-0.0784831
-0.0779448
-0.182119
-0.173373
-0.165144
-0.156368
-0.147488
-0.138841
-0.130613
-0.122931
-0.115866
-0.10945
-0.10369
-0.0985801
-0.0941047
-0.0902455
-0.0869824
-0.0842963
-0.0821698
-0.0805883
-0.0795402
-0.0790183
-0.177001
-0.168958
-0.161398
-0.153275
-0.145013
-0.136928
-0.129199
-0.121952
-0.115262
-0.109164
-0.103673
-0.0987866
-0.0944966
-0.0907889
-0.087648
-0.0850583
-0.0830055
-0.0814773
-0.0804637
-0.0799589
-0.171978
-0.164591
-0.157651
-0.150144
-0.14247
-0.134922
-0.127674
-0.12085
-0.114525
-0.108741
-0.103515
-0.098853
-0.0947492
-0.0911947
-0.0881779
-0.0856867
-0.0837094
-0.0822359
-0.081258
-0.0807708
-0.167054
-0.160279
-0.153915
-0.146988
-0.139871
-0.132837
-0.126051
-0.119636
-0.113668
-0.108191
-0.103228
-0.0987883
-0.0948705
-0.0914699
-0.0885784
-0.0861869
-0.0842864
-0.0828688
-0.0819274
-0.0814581
-0.162232
-0.156028
-0.1502
-0.143819
-0.13723
-0.130685
-0.124343
-0.118322
-0.112701
-0.107525
-0.102821
-0.0986008
-0.0948681
-0.0916212
-0.0888555
-0.0865646
-0.0847417
-0.0833807
-0.0824763
-0.0820253
-0.157513
-0.151843
-0.146513
-0.140645
-0.134556
-0.128477
-0.12256
-0.116921
-0.111636
-0.106753
-0.102302
-0.0982987
-0.0947492
-0.0916554
-0.0890153
-0.0868252
-0.0850804
-0.0837765
-0.0829094
-0.0824769
-0.152898
-0.147726
-0.142862
-0.137476
-0.131859
-0.126224
-0.120714
-0.115441
-0.110481
-0.105884
-0.101681
-0.0978899
-0.0945213
-0.0915791
-0.089064
-0.0869744
-0.0853078
-0.0840611
-0.0832315
-0.0828175
-0.148388
-0.143681
-0.139252
-0.13432
-0.129148
-0.123935
-0.118813
-0.113892
-0.109246
-0.104926
-0.100964
-0.097382
-0.0941912
-0.0913987
-0.0890074
-0.0870178
-0.0854289
-0.0842394
-0.0834473
-0.0830519
-0.143985
-0.139712
-0.135689
-0.131182
-0.126431
-0.121618
-0.116867
-0.112284
-0.10794
-0.103888
-0.100161
-0.0967823
-0.0937658
-0.0911206
-0.0888514
-0.0869607
-0.0854491
-0.0843163
-0.0835615
-0.0831846
-0.139688
-0.135821
-0.132176
-0.128069
-0.123715
-0.119281
-0.114884
-0.110623
-0.106571
-0.102778
-0.0992785
-0.0960978
-0.0932517
-0.0907509
-0.0886019
-0.0868088
-0.0853735
-0.0842969
-0.0835791
-0.0832205
-0.135497
-0.13201
-0.128719
-0.124986
-0.121006
-0.116931
-0.11287
-0.108919
-0.105146
-0.101602
-0.0983233
-0.0953351
-0.0926552
-0.0902955
-0.0882645
-0.0865673
-0.0852072
-0.0841861
-0.0835048
-0.0831643
-0.131414
-0.12828
-0.12532
-0.121939
-0.118311
-0.114574
-0.110833
-0.107176
-0.103671
-0.100368
-0.0973022
-0.0945007
-0.0919822
-0.0897604
-0.261795
-0.257899
-0.247226
-0.239379
-0.232671
-0.225872
-0.21919
-0.212777
-0.206586
-0.200575
-0.194733
-0.189053
-0.183522
-0.178133
-0.172878
-0.167753
-0.162753
-0.157876
-0.15312
-0.148483
-0.143964
-0.139562
-0.135276
-0.26309
-0.260808
-0.248807
-0.239747
-0.232679
-0.225676
-0.218685
-0.211956
-0.205492
-0.199237
-0.193169
-0.187279
-0.181557
-0.175994
-0.170581
-0.165314
-0.160189
-0.155202
-0.150351
-0.145633
-0.141048
-0.136592
-0.260773
-0.257623
-0.245989
-0.236756
-0.229497
-0.222511
-0.215578
-0.208879
-0.202442
-0.196217
-0.190174
-0.184303
-0.178594
-0.173041
-0.167636
-0.162377
-0.157259
-0.152281
-0.147441
-0.142738
-0.138169
-0.255838
-0.251628
-0.241263
-0.2327
-0.225644
-0.218883
-0.2122
-0.205698
-0.199401
-0.193282
-0.18732
-0.181509
-0.175845
-0.170324
-0.164946
-0.159709
-0.154612
-0.149654
-0.144835
-0.140154
-0.250265
-0.24514
-0.236195
-0.22846
-0.221699
-0.21517
-0.20873
-0.202432
-0.196292
-0.190297
-0.184437
-0.178711
-0.17312
-0.167662
-0.16234
-0.157154
-0.152105
-0.147193
-0.142418
-0.137781
-0.245266
-0.23953
-0.231817
-0.224793
-0.218304
-0.211972
-0.205727
-0.199596
-0.193589
-0.187704
-0.18194
-0.176297
-0.17078
-0.16539
-0.160129
-0.155001
-0.150006
-0.145146
-0.140421
-0.24157
-0.235528
-0.228689
-0.222147
-0.215849
-0.209653
-0.203537
-0.197518
-0.191603
-0.185797
-0.180102
-0.174523
-0.169063
-0.163727
-0.158517
-0.153437
-0.148487
-0.143671
-0.138988
-0.23962
-0.233469
-0.227076
-0.220769
-0.214566
-0.208437
-0.202385
-0.196421
-0.190552
-0.184786
-0.179128
-0.173582
-0.168154
-0.162847
-0.157666
-0.152612
-0.147689
-0.142897
-0.138238
)
;

boundaryField
{
    inlet
    {
        type            zeroGradient;
    }
    outlet
    {
        type            fixedValue;
        value           nonuniform 0();
    }
    cylinder
    {
        type            zeroGradient;
    }
    top
    {
        type            symmetryPlane;
    }
    bottom
    {
        type            symmetryPlane;
    }
    defaultFaces
    {
        type            empty;
    }
    procBoundary1to0
    {
        type            processor;
        value           nonuniform List<scalar> 
50
(
0.751296
0.72558
0.675306
0.675306
0.584924
0.584924
0.489082
0.394225
0.394225
0.294519
0.294519
0.299424
0.2131
0.2131
0.22159
0.147661
0.147661
0.157493
0.0949559
0.0949559
0.105211
0.113371
0.0630952
0.0630952
0.0715775
0.0786399
0.0383047
0.0383047
0.0461982
0.0502308
0.0475623
0.0440111
0.0400071
0.0376667
0.036211
0.0352896
0.0347431
0.0344467
0.0343111
0.0342755
0.0342988
0.0343531
0.0344189
0.0344823
0.0345331
0.0345643
0.0345708
0.0345448
0.0344731
0.0344013
)
;
    }
    procBoundary1to2
    {
        type            processor;
        value           nonuniform List<scalar> 
34
(
-0.0878446
-0.0862414
-0.0849551
-0.0839886
-0.0833433
-0.0830207
-0.127437
-0.131107
-0.124634
-0.121982
-0.11893
-0.115633
-0.112217
-0.108779
-0.105403
-0.102155
-0.0990819
-0.0962215
-0.0936005
-0.0912388
-0.0878446
-0.089151
-0.131107
-0.132266
-0.132266
-0.133735
-0.133735
-0.13561
-0.13561
-0.133281
-0.135833
-0.135833
-0.13444
-0.133713
)
;
    }
    procBoundary1to4
    {
        type            processor;
        value           uniform 0.751296;
    }
    procBoundary1to5
    {
        type            processor;
        value           nonuniform List<scalar> 
42
(
-0.328304
-0.328908
-0.328304
-0.330635
-0.330899
-0.329863
-0.327782
-0.324783
-0.320986
-0.316496
-0.311402
-0.305782
-0.299713
-0.293268
-0.286526
-0.279571
-0.272495
-0.265395
-0.258344
-0.251434
-0.245007
0.807352
0.759725
-0.23962
-0.233469
-0.227076
-0.220769
-0.214566
-0.208437
-0.202385
-0.196421
-0.190552
-0.184786
-0.179128
-0.173582
-0.168154
-0.162847
-0.157666
-0.152612
-0.147689
-0.142897
-0.138238
)
;
    }
}


// ************************************************************************* //
