/*--------------------------------*- C++ -*----------------------------------*\
  =========                 |
  \\      /  F ield         | OpenFOAM: The Open Source CFD Toolbox
   \\    /   O peration     | Website:  https://openfoam.org
    \\  /    A nd           | Version:  7
     \\/     M anipulation  |
\*---------------------------------------------------------------------------*/
FoamFile
{
    version     2.0;
    format      ascii;
    class       volVectorField;
    location    "20";
    object      U;
}
// * * * * * * * * * * * * * * * * * * * * * * * * * * * * * * * * * * * * * //

dimensions      [0 1 -1 0 0 0 0];

internalField   nonuniform List<vector> 
14000
(
(-0.00777248 0.00538995 -5.87613e-22)
(-0.0306149 0.00941754 1.16054e-21)
(-0.0632623 0.0104032 7.48907e-20)
(-0.0936243 0.0101911 1.30519e-20)
(-0.121101 0.009527 2.53889e-20)
(-0.14557 0.00873987 -1.46872e-20)
(-0.166821 0.00784101 -2.72398e-20)
(-0.184037 0.00648523 2.64555e-20)
(-0.200105 0.00637783 2.59588e-20)
(-0.208105 0.00362931 2.0399e-20)
(-0.00885872 0.0157069 -9.51247e-20)
(-0.0314725 0.0275763 6.28509e-20)
(-0.062324 0.0305347 -8.55144e-20)
(-0.0902313 0.0299275 4.54719e-21)
(-0.114626 0.0279528 -6.09165e-20)
(-0.135376 0.0255954 7.48222e-21)
(-0.152561 0.023057 3.91207e-20)
(-0.163332 0.0185559 -1.72226e-19)
(-0.175363 0.0189809 4.24714e-20)
(-0.173236 0.00936908 1.15686e-22)
(-0.0109067 0.024714 1.76855e-19)
(-0.0331581 0.0437761 -1.57552e-20)
(-0.0606094 0.0486739 1.18751e-19)
(-0.0837753 0.0477341 -1.11104e-20)
(-0.102171 0.0444989 -1.29759e-19)
(-0.115428 0.0405411 9.581e-20)
(-0.125171 0.0368398 -4.11943e-20)
(-0.122014 0.0283247 4.14626e-20)
(-0.127623 0.031151 -1.25904e-19)
(-0.104652 0.0118652 1.79312e-19)
(-0.0137053 0.0317858 2.05556e-20)
(-0.035609 0.0569375 -2.80735e-19)
(-0.0583766 0.0636068 -1.66886e-19)
(-0.0747758 0.0623594 8.77746e-20)
(-0.0845634 0.0579342 1.04397e-19)
(-0.0862877 0.0523568 -1.73582e-19)
(-0.0860069 0.0476734 7.42977e-20)
(-0.05989 0.0354679 4.95275e-20)
(-0.0575549 0.0409275 1.98451e-19)
(0.000676211 0.0151499 -2.58526e-19)
(-0.0170197 0.0366105 -8.8838e-20)
(-0.038713 0.0662935 1.38052e-19)
(-0.0558394 0.0743075 4.03844e-19)
(-0.0636287 0.0726446 -2.01425e-19)
(-0.0623836 0.0670134 1.86939e-19)
(-0.0483363 0.060237 3.1494e-19)
(-0.034424 0.052498 -9.11348e-21)
(0.0235316 0.0410834 8.78759e-21)
(0.0351806 0.0451422 -2.9172e-19)
(0.153048 0.024555 1.3979e-19)
(-0.0206562 0.0392123 -2.09713e-19)
(-0.0422624 0.0714569 1.24107e-19)
(-0.0529354 0.0800449 -5.62873e-19)
(-0.0501757 0.0776732 2.74052e-19)
(-0.0347514 0.0706024 3.84475e-20)
(-0.000836193 0.0635798 -3.55261e-19)
(0.0342174 0.0502716 -1.04311e-19)
(0.136995 0.0465897 1.04362e-19)
(0.153414 0.0387367 1.97745e-19)
(0.367011 0.0352845 -1.10652e-19)
(-0.0244991 0.0398935 -2.27181e-20)
(-0.0458467 0.0724219 -3.8978e-19)
(-0.0489371 0.0804953 3.85541e-19)
(-0.0330123 0.0769246 -2.77264e-19)
(0.00166571 0.0684083 6.88034e-20)
(0.0622913 0.062252 2.30668e-19)
(0.129891 0.0432985 -4.21973e-19)
(0.285823 0.0522059 -1.76843e-19)
(0.31837 0.0311336 1.5108e-19)
(0.629377 0.0456443 8.92314e-20)
(-0.0285018 0.0391137 2.28846e-19)
(-0.0486943 0.0695105 6.72271e-19)
(-0.04197 0.0758304 -6.49044e-19)
(-0.00825169 0.0706381 1.58977e-19)
(0.0538854 0.061329 3.98106e-19)
(0.151712 0.0568781 -2.02866e-19)
(0.271124 0.040286 -6.5065e-20)
(0.468001 0.0556094 -2.41029e-19)
(0.555397 0.0396066 2.85515e-19)
(0.890096 0.065621 -2.02957e-19)
(-0.0325698 0.0372869 -4.19451e-19)
(-0.0494956 0.0632941 1.15797e-19)
(-0.028501 0.0667648 2.42731e-19)
(0.0311945 0.0601509 -1.20663e-19)
(0.133585 0.0523064 -4.08663e-19)
(0.281684 0.0510605 4.84704e-19)
(0.464525 0.050711 3.07844e-19)
(0.677426 0.062734 2.79225e-19)
(0.835715 0.0685486 -2.26832e-19)
(1.09511 0.0917212 1.72532e-19)
(-0.0363452 0.034653 -1.02956e-19)
(-0.0461595 0.0544301 -3.38007e-19)
(-0.00311894 0.0545847 -2.00841e-19)
(0.0954774 0.0484208 2.36922e-19)
(0.253563 0.0470341 4.55507e-20)
(0.460722 0.0546363 -2.85783e-19)
(0.688476 0.073126 3.33973e-19)
(0.897956 0.0849443 -4.70183e-19)
(1.0701 0.108553 -2.66759e-19)
(1.20927 0.110584 9.39398e-20)
(-0.0391495 0.0313083 2.53088e-19)
(-0.0355728 0.0435104 3.55485e-19)
(0.0414327 0.0412923 1.48614e-19)
(0.195733 0.0403377 2.07108e-19)
(0.419223 0.0523304 -1.20174e-19)
(0.672868 0.0755124 -3.0902e-19)
(0.904138 0.10365 1.23883e-19)
(1.08322 0.119176 1.53084e-19)
(1.19955 0.139934 5.10146e-19)
(1.24232 0.113246 -3.02189e-19)
(-0.0400001 0.0271805 3.74175e-19)
(-0.0136764 0.0310754 -4.63171e-20)
(0.113431 0.0300498 3.40919e-19)
(0.338273 0.0425273 -1.51981e-19)
(0.617339 0.0731249 4.67235e-19)
(0.878436 0.109195 1.86562e-19)
(1.07293 0.137393 2.32039e-19)
(1.1932 0.150249 -3.80067e-19)
(1.24357 0.152044 -1.57462e-19)
(1.26666 0.136479 1.52571e-19)
(-0.0375365 0.0220727 2.43267e-20)
(0.0244353 0.0180221 -3.2996e-19)
(0.220008 0.0260259 -3.15726e-19)
(0.51555 0.0603379 -8.02147e-20)
(0.814667 0.107126 -1.26676e-19)
(1.04077 0.145633 1.4068e-19)
(1.17653 0.166592 -5.81908e-19)
(1.23927 0.168814 3.92446e-19)
(1.26117 0.166072 -3.52582e-21)
(1.26416 0.146531 -4.72701e-19)
(-0.0300163 0.0158536 -5.30284e-19)
(0.0842476 0.00653918 -1.07178e-19)
(0.362011 0.0354399 -1.14158e-20)
(0.702834 0.0929135 3.37085e-20)
(0.978535 0.145765 1.79117e-19)
(1.14753 0.177647 -5.65117e-19)
(1.22826 0.187568 5.58949e-19)
(1.25728 0.184504 -1.23302e-19)
(1.25928 0.174345 7.4262e-20)
(1.25279 0.156398 1.22096e-19)
(-0.0153073 0.00869821 1.44476e-20)
(0.17039 0.00139453 4.34819e-19)
(0.527435 0.0612905 1.11711e-19)
(0.871386 0.13354 -6.01166e-20)
(1.09644 0.182279 -5.10941e-20)
(1.20901 0.203448 3.30327e-19)
(1.25093 0.204952 -1.25006e-22)
(1.25751 0.196241 2.49195e-19)
(1.25091 0.182985 -7.9155e-20)
(1.2438 0.166772 -3.39642e-21)
(0.00943397 0.00141317 8.62588e-20)
(0.283357 0.0093555 -1.56243e-19)
(0.693684 0.100427 1.2519e-19)
(1.00549 0.175882 1.6645e-19)
(1.17328 0.214746 -1.09374e-19)
(1.24031 0.225332 -1.61266e-20)
(1.25545 0.21947 -3.27865e-19)
(1.25058 0.207392 -2.20377e-19)
(1.24057 0.191383 2.7342e-19)
(1.22996 0.17582 -1.78256e-19)
(0.0470885 -0.00373555 1.10947e-19)
(0.41603 0.0350452 1.97622e-19)
(0.841227 0.14707 1.39905e-19)
(1.10332 0.217096 -2.1418e-19)
(1.21871 0.243844 2.57122e-19)
(1.2517 0.244486 -1.39929e-19)
(1.25074 0.233161 -3.60339e-20)
(1.2397 0.217894 -1.37351e-20)
(1.22757 0.199972 -7.8068e-20)
(1.21749 0.185462 2.41084e-20)
(0.0989314 -0.00315067 2.77266e-19)
(0.554657 0.0772709 -1.55964e-19)
(0.961429 0.197057 9.80908e-20)
(1.16925 0.256306 1.16561e-19)
(1.24123 0.270288 -8.50726e-20)
(1.25085 0.262342 1.31624e-19)
(1.24032 0.246333 4.9588e-20)
(1.22638 0.228414 6.78814e-20)
(1.2142 0.209009 4.52525e-20)
(1.20295 0.194242 7.31297e-20)
(0.163642 0.00672486 -1.01556e-19)
(0.684896 0.131245 -1.50917e-19)
(1.0531 0.248131 -1.20065e-19)
(1.20909 0.293227 -1.16021e-19)
(1.24756 0.294867 -5.27049e-20)
(1.24194 0.279445 5.91469e-20)
(1.22641 0.259453 -2.99063e-20)
(1.21144 0.238896 6.84291e-22)
(1.199 0.217971 -2.89907e-20)
(1.18815 0.202601 6.14724e-21)
(0.237224 0.0278663 2.71406e-20)
(0.796826 0.192178 -5.89524e-21)
(1.118 0.298928 2.72224e-20)
(1.22834 0.327989 2.15903e-20)
(1.24226 0.31806 1.67109e-20)
(1.22755 0.296159 -4.60885e-20)
(1.20972 0.272393 2.235e-20)
(1.19462 0.249181 -2.25555e-20)
(1.18289 0.226733 -7.47886e-21)
(1.17232 0.210009 -1.23052e-20)
(0.314013 0.0601578 1.35662e-21)
(0.886068 0.25645 -9.15321e-22)
(1.15881 0.348428 -6.13026e-21)
(1.2314 0.360747 7.2889e-20)
(1.22841 0.34014 -2.04675e-20)
(1.20885 0.312389 -2.0839e-20)
(1.19054 0.284974 2.9438e-21)
(1.17612 0.259013 -2.95484e-21)
(1.1651 0.234749 -9.93791e-21)
(1.15547 0.216448 -2.30485e-20)
(0.387901 0.10194 -1.16477e-19)
(0.95179 0.32152 2.26931e-20)
(1.17858 0.395779 -1.95011e-19)
(1.22154 0.391428 -7.06506e-20)
(1.20784 0.361044 -2.23493e-20)
(1.18648 0.327883 -3.38466e-21)
(1.16891 0.296823 -1.76685e-20)
(1.15573 0.268049 -1.23493e-20)
(1.14598 0.24191 8.56629e-21)
(1.13705 0.221779 1.60453e-20)
(0.453344 0.150889 2.00793e-19)
(0.994474 0.385329 -1.05439e-19)
(1.18015 0.440065 1.49273e-19)
(1.20109 0.419753 6.35484e-20)
(1.18169 0.380477 -2.53061e-20)
(1.16073 0.342183 8.97848e-20)
(1.1449 0.307494 -2.14075e-20)
(1.13362 0.275983 3.17881e-20)
(1.12524 0.248155 4.245e-21)
(1.11699 0.225949 2.33603e-20)
(0.506096 0.204415 -1.23236e-19)
(1.01545 0.446098 4.78344e-19)
(1.16602 0.480432 -9.09751e-20)
(1.17178 0.445263 -5.6185e-20)
(1.15069 0.397904 1.28479e-19)
(1.13189 0.354747 -5.66013e-20)
(1.11867 0.316508 -2.3943e-20)
(1.10977 0.282469 -1.55628e-20)
(1.10285 0.253387 -2.75871e-20)
(1.09604 0.228899 -1.68402e-21)
(0.54351 0.259743 -2.2519e-19)
(1.01645 0.502175 -2.60752e-19)
(1.13824 0.515946 1.67084e-19)
(1.13499 0.467289 4.63489e-20)
(1.11554 0.412645 -7.24263e-20)
(1.10035 0.36502 -3.73801e-20)
(1.09041 0.323486 2.09146e-20)
(1.08409 0.287291 -1.56774e-20)
(1.07886 0.25699 2.06236e-20)
(1.07446 0.230463 -8.8531e-21)
(0.564496 0.313983 8.18687e-20)
(0.999381 0.551997 3.48222e-19)
(1.09861 0.545559 -6.47362e-20)
(1.09213 0.484993 6.87377e-21)
(1.07688 0.423971 -9.10835e-21)
(1.06626 0.372406 3.95958e-20)
(1.06018 0.328124 3.06946e-20)
(1.05673 0.290093 1.4877e-20)
(1.0538 0.258693 -8.45273e-21)
(1.05229 0.230557 -3.34922e-21)
(0.56929 0.364357 -6.04167e-19)
(0.966019 0.593926 5.20467e-20)
(1.04919 0.568269 -1.38004e-19)
(1.04428 0.497334 5.46994e-20)
(1.03505 0.431238 -1.23022e-20)
(1.02988 0.376382 -5.61673e-21)
(1.02829 0.329936 -1.14644e-20)
(1.0282 0.29056 1.1811e-20)
(1.02825 0.25821 -1.3764e-20)
(1.03026 0.22912 -4.44219e-20)
(0.558972 0.408581 3.02353e-19)
(0.917924 0.625858 -3.10724e-19)
(0.992304 0.583214 -2.56167e-20)
(0.992395 0.503517 -4.93091e-20)
(0.990664 0.433665 3.22058e-20)
(0.991767 0.376408 2.19491e-20)
(0.995148 0.328505 3.18644e-20)
(0.999058 0.288285 2.79345e-21)
(1.00308 0.255359 -1.02266e-21)
(1.00922 0.226243 6.80836e-20)
(0.534654 0.444936 1.86029e-19)
(0.857641 0.646235 -3.69649e-20)
(0.929952 0.589126 8.59471e-21)
(0.937575 0.503104 4.65512e-20)
(0.944456 0.430717 -5.75504e-21)
(0.952393 0.371991 -6.21197e-20)
(0.961239 0.323302 -4.13848e-20)
(0.969921 0.282683 6.31779e-21)
(0.978977 0.249617 6.14598e-20)
(0.989526 0.22228 -4.69196e-20)
(0.497565 0.470819 4.08556e-20)
(0.789171 0.654669 -9.09569e-21)
(0.863981 0.585104 -7.1481e-20)
(0.880964 0.49552 1.31275e-20)
(0.897222 0.421963 1.08051e-19)
(0.912408 0.362784 -3.52668e-20)
(0.927119 0.313991 1.29678e-19)
(0.941192 0.273182 -1.77093e-19)
(0.955849 0.239712 -1.24763e-19)
(0.970026 0.216036 -2.25894e-20)
(0.450113 0.483077 -3.83759e-20)
(0.715071 0.64966 3.52038e-20)
(0.795947 0.571028 1.2685e-20)
(0.82376 0.480327 -4.06308e-20)
(0.849843 0.407121 -1.74097e-19)
(0.872543 0.348606 1.71802e-19)
(0.893437 0.300594 6.41012e-20)
(0.913099 0.260197 8.33915e-20)
(0.93302 0.225199 2.27098e-19)
(0.948051 0.198872 -5.38165e-20)
(0.396419 0.481314 1.00291e-19)
(0.638333 0.630763 -1.6552e-20)
(0.727732 0.546705 -5.45155e-20)
(0.767224 0.457264 9.14826e-20)
(0.803289 0.386001 1.67621e-19)
(0.833641 0.329311 -3.87946e-19)
(0.860909 0.283094 -6.20902e-20)
(0.885868 0.244714 -1.53948e-19)
(0.908902 0.212307 3.18962e-20)
(0.923474 0.187348 -1.1066e-19)
(0.339655 0.465162 -2.11077e-19)
(0.561627 0.597649 -1.08039e-19)
(0.661136 0.512204 3.4232e-19)
(0.712649 0.426339 -1.97338e-19)
(0.758562 0.358611 -2.78476e-19)
(0.7965 0.304854 2.59315e-19)
(0.830096 0.261001 -2.41979e-19)
(0.860194 0.224341 1.17265e-19)
(0.886579 0.193288 -1.4196e-19)
(0.903303 0.169611 2.23354e-19)
(0.282957 0.43505 -9.76905e-20)
(0.487748 0.550695 5.1537e-19)
(0.597966 0.467795 -5.42518e-19)
(0.661328 0.387769 2.14615e-20)
(0.716672 0.325201 1.76753e-19)
(0.761822 0.275744 -1.33419e-20)
(0.801158 0.235649 3.69671e-19)
(0.835433 0.202358 -3.19606e-19)
(0.864575 0.174142 2.29179e-19)
(0.88443 0.151989 -1.53334e-19)
(0.229148 0.392004 -1.6129e-19)
(0.419213 0.490636 8.89152e-20)
(0.53995 0.413995 2.39614e-19)
(0.614531 0.341957 2.73564e-19)
(0.678664 0.285987 -6.29251e-20)
(0.730566 0.241791 2.54106e-19)
(0.775243 0.205975 2.33918e-20)
(0.813355 0.176285 2.59099e-20)
(0.845202 0.151316 -9.59194e-20)
(0.868131 0.131822 -5.65541e-21)
(0.180633 0.337603 4.88939e-19)
(0.358279 0.418676 -3.38665e-19)
(0.48875 0.351593 -4.50355e-19)
(0.57342 0.289615 2.58607e-20)
(0.645342 0.241716 -1.30894e-19)
(0.703142 0.204006 1.07999e-19)
(0.752371 0.173529 -3.90013e-19)
(0.793755 0.148267 1.13196e-19)
(0.828207 0.126924 3.18097e-19)
(0.854256 0.110086 -1.53353e-19)
(0.139292 0.273527 6.93185e-20)
(0.30697 0.336573 4.24889e-19)
(0.445952 0.281662 3.04485e-19)
(0.539143 0.231535 -2.83734e-19)
(0.617659 0.192884 1.73986e-19)
(0.680428 0.162495 -7.87941e-20)
(0.73343 0.137983 -5.045e-20)
(0.777499 0.117719 -2.40187e-20)
(0.814198 0.100599 -9.92225e-20)
(0.843042 0.0869661 1.80673e-19)
(0.106679 0.201418 -3.32623e-19)
(0.266947 0.246371 -3.85665e-19)
(0.412764 0.205662 -5.76318e-21)
(0.512581 0.168835 2.71864e-19)
(0.596229 0.14048 -5.03426e-20)
(0.662848 0.118211 -5.25045e-20)
(0.718744 0.100264 7.58956e-20)
(0.764882 0.0854278 -4.11652e-20)
(0.803396 0.072863 -3.1637e-20)
(0.834562 0.0627753 3.30963e-20)
(0.0841395 0.123315 4.84247e-20)
(0.239521 0.150241 -6.35194e-20)
(0.390121 0.125207 2.73285e-19)
(0.494471 0.102698 -6.67308e-20)
(0.581631 0.0853777 1.24115e-19)
(0.650879 0.0717852 -3.33167e-20)
(0.708736 0.0608418 -5.11727e-20)
(0.756274 0.0517993 8.08015e-20)
(0.796055 0.0441221 1.14789e-20)
(0.828895 0.0379123 -2.80921e-20)
(0.0726257 0.0415203 -1.32127e-21)
(0.225582 0.0504872 1.6884e-21)
(0.378643 0.0420397 1.27258e-19)
(0.485293 0.0344679 -6.30852e-20)
(0.574235 0.0286429 2.87353e-20)
(0.644815 0.0240729 -1.5123e-20)
(0.703661 0.0203948 1.78124e-20)
(0.751905 0.0173562 -2.29213e-20)
(0.792336 0.0147722 -1.38032e-20)
(0.826057 0.0126733 6.57482e-24)
(0.0726257 -0.0415203 1.32127e-21)
(0.225582 -0.0504872 -1.6884e-21)
(0.378643 -0.0420397 -1.27258e-19)
(0.485293 -0.0344679 -2.261e-20)
(0.574235 -0.0286429 -3.78857e-20)
(0.644815 -0.0240729 2.01256e-20)
(0.703661 -0.0203948 3.138e-20)
(0.751905 -0.0173562 -2.86424e-20)
(0.792336 -0.0147722 -2.47336e-20)
(0.826057 -0.0126733 -1.66004e-20)
(0.0841395 -0.123315 1.55347e-19)
(0.239521 -0.150241 -1.10044e-19)
(0.390121 -0.125207 1.56298e-19)
(0.494471 -0.102698 -1.70172e-21)
(0.581631 -0.0853776 8.96269e-20)
(0.650879 -0.0717852 -7.02855e-21)
(0.708736 -0.0608418 -4.42045e-20)
(0.756274 -0.0517993 1.76693e-19)
(0.796055 -0.0441221 -4.12041e-20)
(0.828895 -0.0379123 -1.23015e-21)
(0.106679 -0.201418 -3.31897e-19)
(0.266947 -0.246371 3.92964e-20)
(0.412764 -0.205662 -2.10069e-19)
(0.512581 -0.168835 1.94347e-20)
(0.596229 -0.14048 1.77377e-19)
(0.662848 -0.118211 -1.18787e-19)
(0.718744 -0.100264 4.67517e-20)
(0.764882 -0.0854278 -4.31847e-20)
(0.803396 -0.072863 1.1247e-19)
(0.834562 -0.0627753 -1.47707e-19)
(0.139292 -0.273527 -2.85428e-21)
(0.30697 -0.336573 4.71851e-19)
(0.445952 -0.281662 2.55348e-19)
(0.539143 -0.231535 -1.23375e-19)
(0.617659 -0.192884 -1.45013e-19)
(0.680428 -0.162495 2.1495e-19)
(0.73343 -0.137983 -8.14586e-20)
(0.777499 -0.117719 -5.04737e-20)
(0.814198 -0.100599 -1.64163e-19)
(0.843042 -0.0869661 2.07506e-19)
(0.180633 -0.337603 1.44147e-19)
(0.358279 -0.418676 -2.07412e-19)
(0.48875 -0.351593 -5.69216e-19)
(0.57342 -0.289615 2.69395e-19)
(0.645342 -0.241716 -2.39046e-19)
(0.703142 -0.204006 -3.30957e-19)
(0.752371 -0.173529 2.74781e-20)
(0.793755 -0.148267 -1.10953e-20)
(0.828207 -0.126924 2.33279e-19)
(0.854256 -0.110086 -1.07138e-19)
(0.229148 -0.392004 2.35961e-19)
(0.419213 -0.490636 -1.34543e-19)
(0.53995 -0.413995 6.93685e-19)
(0.614531 -0.341957 -3.22906e-19)
(0.678664 -0.285987 -2.99563e-20)
(0.730566 -0.241791 3.6151e-19)
(0.775243 -0.205975 1.12152e-19)
(0.813355 -0.176285 -9.08078e-20)
(0.845202 -0.151316 -1.49203e-19)
(0.868131 -0.131822 7.91051e-20)
(0.282957 -0.43505 -8.00418e-21)
(0.487748 -0.550695 3.50487e-19)
(0.597966 -0.467795 -3.89843e-19)
(0.661328 -0.387769 2.65788e-19)
(0.716672 -0.325201 -6.54022e-20)
(0.761822 -0.275744 -2.14121e-19)
(0.801158 -0.235649 3.46508e-19)
(0.835433 -0.202358 1.31532e-19)
(0.864575 -0.174142 -1.14259e-19)
(0.88443 -0.151989 -5.5208e-20)
(0.339655 -0.465162 -1.03762e-19)
(0.561627 -0.597649 -5.43847e-19)
(0.661136 -0.512204 5.28672e-19)
(0.712649 -0.426339 -1.42405e-19)
(0.758562 -0.358611 -3.0358e-19)
(0.7965 -0.304854 1.44219e-19)
(0.830096 -0.261 2.54921e-20)
(0.860194 -0.224341 1.54928e-19)
(0.886579 -0.193288 -1.7863e-19)
(0.903303 -0.169611 1.16597e-19)
(0.396419 -0.481314 1.76185e-19)
(0.638333 -0.630763 -3.27903e-20)
(0.727732 -0.546705 -1.85575e-19)
(0.767224 -0.457264 7.20542e-20)
(0.803289 -0.386001 2.85254e-19)
(0.833641 -0.329311 -3.10687e-19)
(0.860909 -0.283094 -2.00884e-19)
(0.885868 -0.244714 -1.57979e-19)
(0.908902 -0.212307 1.27476e-19)
(0.923474 -0.187348 -9.48578e-20)
(0.450113 -0.483077 -6.78123e-20)
(0.715071 -0.64966 4.49404e-20)
(0.795947 -0.571028 2.7287e-20)
(0.82376 -0.480327 -1.11668e-19)
(0.849843 -0.407121 -1.73127e-20)
(0.872543 -0.348606 1.70152e-19)
(0.893437 -0.300594 -1.69074e-19)
(0.913099 -0.260197 2.38648e-19)
(0.93302 -0.225199 1.1131e-19)
(0.948051 -0.198872 -3.7397e-20)
(0.497565 -0.470819 3.17475e-20)
(0.789171 -0.654669 2.16624e-20)
(0.863981 -0.585104 -6.86099e-20)
(0.880964 -0.49552 -3.14002e-20)
(0.897222 -0.421963 4.24452e-20)
(0.912408 -0.362784 1.10159e-19)
(0.927119 -0.313991 -4.82753e-20)
(0.941192 -0.273182 -5.68521e-20)
(0.955849 -0.239712 -2.16853e-19)
(0.970026 -0.216036 1.18624e-19)
(0.534654 -0.444936 2.38044e-19)
(0.857641 -0.646235 1.15754e-20)
(0.929952 -0.589126 1.95736e-20)
(0.937575 -0.503104 2.69495e-20)
(0.944456 -0.430717 -7.71191e-20)
(0.952393 -0.371991 -4.694e-20)
(0.961239 -0.323302 -6.00688e-20)
(0.969921 -0.282683 1.16289e-19)
(0.978977 -0.249617 4.49686e-20)
(0.989526 -0.22228 -4.1101e-20)
(0.558972 -0.408581 1.01205e-19)
(0.917924 -0.625858 -1.89194e-19)
(0.992304 -0.583214 -6.5148e-20)
(0.992395 -0.503517 -5.38713e-21)
(0.990664 -0.433665 1.75734e-20)
(0.991767 -0.376408 1.37807e-20)
(0.995148 -0.328505 8.23719e-20)
(0.999058 -0.288285 -7.84508e-20)
(1.00308 -0.255359 -1.12441e-20)
(1.00922 -0.226243 1.08562e-19)
(0.56929 -0.364357 -4.43135e-19)
(0.966019 -0.593926 -1.2198e-19)
(1.04919 -0.568269 -1.17754e-20)
(1.04428 -0.497334 3.67476e-21)
(1.03505 -0.431238 3.28555e-20)
(1.02988 -0.376382 -1.03835e-20)
(1.02829 -0.329936 -2.14001e-20)
(1.0282 -0.29056 5.90031e-21)
(1.02825 -0.25821 -1.85169e-20)
(1.03026 -0.22912 -3.00211e-20)
(0.564496 -0.313983 1.11642e-20)
(0.999381 -0.551997 3.52196e-19)
(1.09861 -0.545559 4.65946e-20)
(1.09213 -0.484993 -2.55241e-20)
(1.07688 -0.423971 -8.13933e-21)
(1.06626 -0.372406 5.69605e-20)
(1.06018 -0.328124 2.07329e-20)
(1.05673 -0.290093 1.94193e-20)
(1.0538 -0.258693 -1.24372e-20)
(1.05229 -0.230557 -2.2978e-21)
(0.54351 -0.259743 8.50059e-20)
(1.01645 -0.502175 -1.57568e-19)
(1.13824 -0.515946 6.59664e-20)
(1.13499 -0.467289 8.72948e-20)
(1.11554 -0.412645 -6.1667e-20)
(1.10035 -0.36502 -3.97977e-21)
(1.09041 -0.323486 -7.0513e-20)
(1.08409 -0.287291 -2.90228e-20)
(1.07886 -0.25699 3.66875e-20)
(1.07446 -0.230463 -2.21336e-20)
(0.506096 -0.204415 1.154e-19)
(1.01545 -0.446098 1.99348e-19)
(1.16602 -0.480432 1.17813e-19)
(1.17178 -0.445263 -1.37788e-19)
(1.15069 -0.397904 1.38424e-19)
(1.13189 -0.354747 -6.72085e-20)
(1.11867 -0.316508 -1.3186e-20)
(1.10977 -0.282469 -8.79125e-21)
(1.10285 -0.253387 -1.53955e-20)
(1.09604 -0.228899 -7.25673e-21)
(0.453344 -0.150889 2.92689e-19)
(0.994474 -0.385329 -1.56697e-19)
(1.18015 -0.440065 9.12127e-20)
(1.20109 -0.419752 8.90897e-20)
(1.18169 -0.380477 -4.56517e-20)
(1.16073 -0.342183 7.27791e-20)
(1.1449 -0.307494 2.53614e-20)
(1.13362 -0.275983 3.14751e-20)
(1.12524 -0.248155 2.08536e-20)
(1.11699 -0.225949 2.39138e-20)
(0.387901 -0.10194 -1.06628e-19)
(0.95179 -0.32152 -1.5115e-19)
(1.17858 -0.395779 -1.03862e-19)
(1.22154 -0.391428 -9.79958e-20)
(1.20784 -0.361044 -3.74936e-20)
(1.18648 -0.327883 4.82979e-20)
(1.16891 -0.296823 -2.1254e-20)
(1.15573 -0.268049 3.91985e-21)
(1.14598 -0.24191 -1.54315e-20)
(1.13705 -0.221779 7.06139e-21)
(0.314013 -0.0601578 2.76726e-20)
(0.886069 -0.25645 -6.03216e-21)
(1.15881 -0.348428 2.60127e-20)
(1.2314 -0.360747 1.78439e-20)
(1.22841 -0.34014 1.5742e-20)
(1.20885 -0.312389 -3.88582e-20)
(1.19054 -0.284974 1.85435e-20)
(1.17612 -0.259013 -1.82531e-20)
(1.1651 -0.234749 -5.1982e-21)
(1.15547 -0.216448 -7.66643e-21)
(0.237224 -0.0278663 1.13649e-21)
(0.796826 -0.192178 -9.67235e-22)
(1.118 -0.298928 -6.30319e-21)
(1.22834 -0.327989 7.92825e-20)
(1.24226 -0.31806 -2.22149e-20)
(1.22755 -0.296159 -2.64079e-20)
(1.20972 -0.272393 4.7809e-21)
(1.19462 -0.249181 -5.17094e-21)
(1.18289 -0.226733 -1.29369e-20)
(1.17232 -0.210009 -3.03937e-20)
(0.163642 -0.00672486 -1.11571e-19)
(0.684896 -0.131245 2.449e-20)
(1.0531 -0.248131 -2.12149e-19)
(1.20909 -0.293227 -8.19809e-20)
(1.24756 -0.294867 -3.04156e-20)
(1.24194 -0.279445 -8.82099e-21)
(1.22641 -0.259453 -2.55326e-20)
(1.21144 -0.238896 -2.47451e-20)
(1.199 -0.217971 8.26409e-21)
(1.18815 -0.202601 2.12359e-20)
(0.0989314 0.00315068 1.89058e-19)
(0.554657 -0.0772709 -1.08249e-19)
(0.961429 -0.197057 1.66806e-19)
(1.16925 -0.256306 8.72216e-20)
(1.24123 -0.270288 -5.14247e-20)
(1.25085 -0.262342 1.66004e-19)
(1.24032 -0.246333 -3.47775e-20)
(1.22638 -0.228414 6.66656e-20)
(1.2142 -0.209009 4.47262e-21)
(1.20295 -0.194242 6.90251e-20)
(0.0470885 0.00373555 -1.16896e-19)
(0.41603 -0.0350452 4.93067e-19)
(0.841227 -0.14707 -1.09159e-19)
(1.10332 -0.217096 -9.41716e-20)
(1.21871 -0.243844 2.44834e-19)
(1.2517 -0.244486 -1.10857e-19)
(1.25074 -0.233161 -5.8444e-20)
(1.2397 -0.217894 -3.28227e-20)
(1.22757 -0.199972 -1.25413e-19)
(1.21749 -0.185462 4.36832e-20)
(0.00943397 -0.00141317 -2.13566e-19)
(0.283357 -0.0093555 -2.94662e-19)
(0.693684 -0.100427 2.3423e-19)
(1.00549 -0.175882 6.59263e-20)
(1.17328 -0.214746 -1.75471e-19)
(1.24031 -0.225332 -1.80818e-19)
(1.25545 -0.21947 9.57835e-21)
(1.25058 -0.207392 -1.1924e-19)
(1.24057 -0.191383 1.88863e-19)
(1.22996 -0.17582 -2.75633e-20)
(-0.0153073 -0.00869821 9.67777e-20)
(0.17039 -0.00139453 4.63422e-19)
(0.527435 -0.0612905 -5.75227e-20)
(0.871386 -0.13354 1.66026e-20)
(1.09644 -0.182279 -3.93264e-20)
(1.20901 -0.203448 2.33673e-19)
(1.25093 -0.204952 8.14885e-20)
(1.25751 -0.196241 1.39329e-19)
(1.25091 -0.182985 -1.31085e-19)
(1.2438 -0.166772 7.81674e-20)
(-0.0300163 -0.0158536 -7.15105e-19)
(0.0842476 -0.00653918 1.84824e-19)
(0.362011 -0.0354399 -2.33837e-19)
(0.702834 -0.0929135 2.85438e-19)
(0.978535 -0.145765 -7.05428e-20)
(1.14753 -0.177647 -4.08156e-19)
(1.22826 -0.187568 2.20549e-19)
(1.25728 -0.184504 -8.49081e-20)
(1.25928 -0.174345 7.55402e-20)
(1.25279 -0.156398 2.32278e-19)
(-0.0375365 -0.0220727 3.34416e-19)
(0.0244353 -0.0180221 -5.06915e-19)
(0.220008 -0.0260259 -6.2834e-20)
(0.51555 -0.0603379 -3.166e-19)
(0.814667 -0.107126 -3.94276e-19)
(1.04077 -0.145633 1.95203e-19)
(1.17653 -0.166592 -2.45016e-19)
(1.23927 -0.168814 -3.01858e-20)
(1.26117 -0.166072 -2.57896e-20)
(1.26416 -0.146531 -2.96638e-19)
(-0.0400001 -0.0271805 3.13282e-19)
(-0.0136764 -0.0310754 -1.20582e-19)
(0.113431 -0.0300498 1.15416e-19)
(0.338273 -0.0425273 -1.72562e-19)
(0.617339 -0.0731249 1.69401e-19)
(0.878436 -0.109195 3.15855e-19)
(1.07293 -0.137393 1.88278e-19)
(1.1932 -0.150249 -8.68783e-21)
(1.24357 -0.152044 -2.13136e-19)
(1.26666 -0.136479 1.74756e-19)
(-0.0391495 -0.0313083 3.67443e-19)
(-0.0355728 -0.0435104 1.1805e-19)
(0.0414327 -0.0412923 1.98691e-19)
(0.195733 -0.0403377 5.81982e-20)
(0.419223 -0.0523304 -2.85523e-19)
(0.672868 -0.0755124 8.56831e-20)
(0.904138 -0.10365 -3.27577e-19)
(1.08322 -0.119176 4.55361e-19)
(1.19955 -0.139934 2.73519e-19)
(1.24232 -0.113246 7.48552e-20)
(-0.0363453 -0.034653 -5.2007e-19)
(-0.0461594 -0.0544301 -1.29918e-19)
(-0.00311893 -0.0545847 -1.51376e-19)
(0.0954775 -0.0484208 8.84118e-20)
(0.253563 -0.0470341 3.60365e-19)
(0.460722 -0.0546363 -2.90355e-19)
(0.688476 -0.073126 -1.2664e-19)
(0.897956 -0.0849442 -1.60458e-19)
(1.0701 -0.108553 -5.15483e-19)
(1.20927 -0.110584 1.31507e-19)
(-0.0325698 -0.0372869 -2.13382e-19)
(-0.0494956 -0.0632941 4.66396e-20)
(-0.028501 -0.0667648 2.35716e-20)
(0.0311945 -0.0601509 -1.43346e-19)
(0.133585 -0.0523063 -2.29698e-19)
(0.281684 -0.0510604 6.07643e-19)
(0.464525 -0.050711 8.53382e-20)
(0.677426 -0.062734 2.67176e-19)
(0.835715 -0.0685486 -5.20513e-20)
(1.09511 -0.0917212 2.0243e-19)
(-0.0285018 -0.0391137 3.80906e-19)
(-0.0486943 -0.0695105 8.55749e-20)
(-0.04197 -0.0758304 -4.03773e-19)
(-0.00825168 -0.0706381 2.25169e-19)
(0.0538854 -0.061329 3.6675e-19)
(0.151712 -0.0568781 -3.57626e-19)
(0.271124 -0.0402859 3.04978e-19)
(0.468001 -0.0556094 -1.66842e-19)
(0.555397 -0.0396066 2.41386e-19)
(0.890096 -0.065621 -3.82671e-19)
(-0.0244991 -0.0398935 7.37096e-20)
(-0.0458467 -0.0724219 -5.50585e-19)
(-0.0489371 -0.0804953 5.35631e-19)
(-0.0330123 -0.0769246 -3.06212e-20)
(0.00166571 -0.0684083 -1.78383e-19)
(0.0622913 -0.0622519 -5.99783e-21)
(0.129891 -0.0432984 -4.6959e-19)
(0.285823 -0.0522058 4.23546e-19)
(0.31837 -0.0311335 -3.38241e-19)
(0.629377 -0.0456442 2.37518e-19)
(-0.0206562 -0.0392123 1.10621e-19)
(-0.0422624 -0.0714569 -5.55844e-20)
(-0.0529354 -0.0800449 -1.89907e-19)
(-0.0501757 -0.0776731 -2.33143e-19)
(-0.0347514 -0.0706024 5.28067e-20)
(-0.000836202 -0.0635798 -2.59573e-19)
(0.0342174 -0.0502716 -8.68383e-21)
(0.136995 -0.0465897 -3.92397e-20)
(0.153414 -0.0387367 1.1608e-19)
(0.367011 -0.0352844 4.94043e-21)
(-0.0170197 -0.0366105 -3.17521e-19)
(-0.038713 -0.0662935 2.27044e-19)
(-0.0558394 -0.0743075 3.19329e-19)
(-0.0636287 -0.0726446 -1.38248e-20)
(-0.0623836 -0.0670134 1.05484e-19)
(-0.0483363 -0.0602369 -9.90243e-20)
(-0.0344241 -0.0524979 3.9583e-19)
(0.0235316 -0.0410833 -1.27936e-19)
(0.0351806 -0.0451421 -4.05145e-19)
(0.153048 -0.0245548 1.93338e-19)
(-0.0137053 -0.0317858 -2.2669e-20)
(-0.035609 -0.0569375 -2.55856e-19)
(-0.0583766 -0.0636068 -2.02195e-19)
(-0.0747759 -0.0623594 1.97032e-19)
(-0.0845634 -0.0579341 -1.45138e-19)
(-0.0862877 -0.0523568 6.61168e-20)
(-0.0860069 -0.0476733 4.95721e-20)
(-0.0598901 -0.0354678 2.32363e-20)
(-0.0575549 -0.0409274 1.19978e-19)
(0.000676173 -0.0151498 -2.29216e-19)
(-0.0109067 -0.024714 1.7565e-19)
(-0.0331581 -0.0437761 2.21313e-19)
(-0.0606094 -0.0486739 6.88026e-21)
(-0.0837753 -0.0477341 -1.77361e-19)
(-0.102171 -0.0444988 2.90501e-20)
(-0.115428 -0.0405411 4.54387e-20)
(-0.125171 -0.0368397 -6.90339e-20)
(-0.122014 -0.0283246 3.6092e-20)
(-0.127623 -0.0311508 3.71589e-20)
(-0.104652 -0.011865 -3.81466e-20)
(-0.00885872 -0.0157069 -2.50592e-20)
(-0.0314725 -0.0275763 3.45085e-20)
(-0.062324 -0.0305347 -1.5411e-19)
(-0.0902313 -0.0299274 4.00241e-20)
(-0.114626 -0.0279528 -8.81947e-20)
(-0.135376 -0.0255953 2.38926e-20)
(-0.152561 -0.0230569 4.30491e-20)
(-0.163332 -0.0185558 -7.71106e-20)
(-0.175363 -0.0189808 -8.96028e-21)
(-0.173236 -0.00936893 3.47133e-20)
(-0.00777248 -0.00538996 -1.72797e-20)
(-0.0306149 -0.00941753 3.68895e-21)
(-0.0632623 -0.0104032 8.21637e-20)
(-0.0936243 -0.0101911 3.25997e-20)
(-0.121101 -0.00952695 -1.91878e-20)
(-0.14557 -0.0087398 1.08913e-20)
(-0.166821 -0.00784093 -1.45858e-20)
(-0.184037 -0.00648512 2.25407e-20)
(-0.200105 -0.0063777 1.49476e-20)
(-0.208105 -0.00362916 8.58252e-24)
(-0.214499 0.0050059 -5.9838e-20)
(-0.220335 0.00486247 4.29647e-20)
(-0.225772 0.00466392 6.62117e-22)
(-0.230999 0.0045175 -7.40795e-21)
(-0.236085 0.00440946 -1.49399e-20)
(-0.241064 0.00433102 -1.72976e-20)
(-0.245965 0.00427485 -2.97824e-20)
(-0.25081 0.00423335 5.29038e-20)
(-0.255613 0.00419937 -3.01894e-20)
(-0.260379 0.00416649 6.21979e-20)
(-0.265106 0.00412902 -3.92148e-20)
(-0.269786 0.00408188 -5.70495e-21)
(-0.274406 0.00402045 -1.40848e-20)
(-0.278946 0.00394053 3.65817e-20)
(-0.283385 0.00383834 -2.41861e-20)
(-0.287693 0.00371043 2.48954e-20)
(-0.291838 0.00355375 -1.73125e-20)
(-0.295785 0.00336562 -1.47451e-20)
(-0.299495 0.00314381 9.49406e-21)
(-0.302924 0.00288668 -6.39896e-21)
(-0.306029 0.00259324 2.38856e-20)
(-0.308762 0.00226291 -1.08816e-20)
(-0.311078 0.00189526 -1.62632e-20)
(-0.312926 0.00149111 1.00878e-20)
(-0.314251 0.00105467 -1.37889e-20)
(-0.315005 0.000584604 1.62203e-20)
(-0.315165 7.1898e-05 4.51075e-21)
(-0.314701 -0.00048607 -1.29972e-20)
(-0.313571 -0.00108186 2.32893e-20)
(-0.311729 -0.00171068 2.37336e-20)
(-0.309135 -0.00236873 -2.45804e-20)
(-0.305754 -0.00305245 1.03658e-20)
(-0.301555 -0.00375822 1.25617e-20)
(-0.296511 -0.0044822 -2.23334e-20)
(-0.290602 -0.00522029 2.58981e-20)
(-0.28381 -0.00596814 -2.49622e-20)
(-0.276124 -0.00672107 2.93358e-20)
(-0.267538 -0.00747415 -1.32936e-20)
(-0.258052 -0.00822195 -4.97588e-21)
(-0.247672 -0.00895846 9.40762e-22)
(-0.236408 -0.00967874 7.17847e-21)
(-0.224273 -0.0103802 3.88543e-21)
(-0.211301 -0.0110545 -1.8171e-22)
(-0.197523 -0.0117032 -1.025e-20)
(-0.182973 -0.0123212 -1.02509e-21)
(-0.167687 -0.012904 -2.82829e-21)
(-0.151708 -0.013448 6.16787e-21)
(-0.135082 -0.01395 -5.05305e-22)
(-0.117859 -0.0144076 5.70257e-21)
(-0.100096 -0.014823 -1.06189e-20)
(-0.081837 -0.0152008 5.16089e-21)
(-0.0631438 -0.0155155 3.09371e-22)
(-0.0440895 -0.0157707 -7.14989e-21)
(-0.0247329 -0.0159775 3.64422e-21)
(-0.00512394 -0.0161342 1.52277e-21)
(0.0146804 -0.0162443 7.6613e-22)
(0.0346136 -0.0163092 -1.36812e-21)
(0.0546196 -0.0163289 2.67524e-22)
(0.0746476 -0.0163054 3.44487e-21)
(0.0946463 -0.016241 -4.33749e-21)
(0.114567 -0.0161386 2.62871e-21)
(0.134364 -0.0160008 1.12453e-22)
(0.153996 -0.0158308 -3.48575e-22)
(0.173423 -0.0156315 -1.8235e-22)
(0.192612 -0.0154061 -3.26902e-23)
(0.211531 -0.0151576 -4.69703e-23)
(0.230153 -0.0148891 6.09501e-24)
(0.248453 -0.0146034 6.66498e-23)
(0.266412 -0.0143035 -1.96642e-23)
(0.284012 -0.0139919 -2.92629e-22)
(0.301239 -0.0136711 6.49256e-22)
(0.318082 -0.0133435 2.81789e-22)
(0.334533 -0.0130112 -6.69168e-22)
(0.350586 -0.0126761 -5.98091e-22)
(0.366237 -0.01234 7.22345e-22)
(0.381486 -0.0120044 -3.43844e-22)
(0.396332 -0.0116709 9.97928e-22)
(0.410777 -0.0113406 -6.67917e-22)