/*--------------------------------*- C++ -*----------------------------------*\
  =========                 |
  \\      /  F ield         | OpenFOAM: The Open Source CFD Toolbox
   \\    /   O peration     | Website:  https://openfoam.org
    \\  /    A nd           | Version:  7
     \\/     M anipulation  |
\*---------------------------------------------------------------------------*/
FoamFile
{
    version     2.0;
    format      ascii;
    class       volScalarField;
    location    "5.001";
    object      p;
}
// * * * * * * * * * * * * * * * * * * * * * * * * * * * * * * * * * * * * * //

dimensions      [0 2 -2 0 0 0 0];

internalField   nonuniform List<scalar> 
14800
(
-0.33617
-0.345824
-0.351056
-0.359484
-0.370679
-0.384623
-0.400834
-0.418555
-0.436707
-0.453864
-0.468295
-0.478041
-0.480954
-0.474857
-0.458597
-0.337513
-0.34687
-0.352066
-0.360477
-0.371691
-0.385689
-0.402
-0.419876
-0.438248
-0.455704
-0.470516
-0.480723
-0.484211
-0.478747
-0.46276
-0.340103
-0.348879
-0.353999
-0.362366
-0.373601
-0.387685
-0.404162
-0.422304
-0.441061
-0.459039
-0.474525
-0.485545
-0.490017
-0.485814
-0.470154
-0.343766
-0.351701
-0.356692
-0.364967
-0.376195
-0.390355
-0.407008
-0.42545
-0.444656
-0.463254
-0.479553
-0.491573
-0.497141
-0.4948
-0.479209
-0.348259
-0.35513
-0.359925
-0.368035
-0.379189
-0.393359
-0.410126
-0.428808
-0.448407
-0.467574
-0.48464
-0.497698
-0.504131
-0.504218
-0.488359
-0.353304
-0.358936
-0.363451
-0.371293
-0.382261
-0.396318
-0.413061
-0.431831
-0.451652
-0.471201
-0.488802
-0.502847
-0.509588
-0.512587
-0.495675
-0.358611
-0.362887
-0.367022
-0.374461
-0.38509
-0.39886
-0.415378
-0.434006
-0.453788
-0.473449
-0.491214
-0.506143
-0.512549
-0.51808
-0.501127
-0.363909
-0.366771
-0.370415
-0.377295
-0.387394
-0.40066
-0.416711
-0.434924
-0.454358
-0.473833
-0.491385
-0.506697
-0.513015
-0.519827
-0.503143
-0.368962
-0.370421
-0.373458
-0.379605
-0.388962
-0.401484
-0.416807
-0.434328
-0.453121
-0.472089
-0.489146
-0.504513
-0.510368
-0.518148
-0.501573
-0.373584
-0.373711
-0.376048
-0.381279
-0.389675
-0.401216
-0.415555
-0.432124
-0.450018
-0.468251
-0.484573
-0.499743
-0.505014
-0.513197
-0.496748
-0.377657
-0.376593
-0.378124
-0.382283
-0.389512
-0.399848
-0.412988
-0.428409
-0.445223
-0.462568
-0.47802
-0.492807
-0.497553
-0.505308
-0.489075
-0.381125
-0.379052
-0.379707
-0.382662
-0.388551
-0.397502
-0.409287
-0.423438
-0.439088
-0.455461
-0.470074
-0.484185
-0.488515
-0.494894
-0.478836
-0.383992
-0.381119
-0.380861
-0.382525
-0.386954
-0.394405
-0.404748
-0.417585
-0.432075
-0.447462
-0.461255
-0.474404
-0.478243
-0.482381
-0.466165
-0.386316
-0.382861
-0.381687
-0.382027
-0.384942
-0.39085
-0.399744
-0.411297
-0.424672
-0.439092
-0.452013
-0.463864
-0.466843
-0.468183
-0.451255
-0.388206
-0.384369
-0.382308
-0.381347
-0.382767
-0.387166
-0.394671
-0.405
-0.417358
-0.430749
-0.442629
-0.452751
-0.454296
-0.452679
-0.43457
-0.389808
-0.385752
-0.382859
-0.380671
-0.380682
-0.383674
-0.3899
-0.399115
-0.410456
-0.422666
-0.433191
-0.441049
-0.440627
-0.436202
-0.416816
-0.391295
-0.38713
-0.383481
-0.380181
-0.378924
-0.380655
-0.385732
-0.39389
-0.404143
-0.41489
-0.42363
-0.428668
-0.425989
-0.419019
-0.398671
-0.392861
-0.388635
-0.384313
-0.380045
-0.37769
-0.378322
-0.382364
-0.389456
-0.398439
-0.40734
-0.413818
-0.415612
-0.410626
-0.401184
-0.380511
-0.394701
-0.390397
-0.38549
-0.380405
-0.377131
-0.376818
-0.379878
-0.385807
-0.393231
-0.399881
-0.40367
-0.402091
-0.394854
-0.382575
-0.36237
-0.397
-0.39254
-0.387128
-0.381371
-0.377336
-0.376182
-0.378241
-0.382823
-0.388339
-0.392395
-0.393213
-0.388488
-0.3791
-0.363591
-0.344214
-0.399911
-0.395172
-0.389318
-0.383005
-0.378324
-0.376368
-0.377331
-0.380317
-0.38358
-0.384807
-0.382582
-0.375154
-0.363826
-0.346114
-0.326397
-0.403544
-0.398382
-0.392118
-0.385325
-0.380053
-0.377263
-0.376972
-0.378088
-0.378805
-0.377099
-0.371965
-0.362272
-0.349236
-0.331009
-0.311585
-0.407976
-0.402223
-0.395549
-0.388306
-0.382434
-0.378719
-0.376971
-0.375939
-0.373909
-0.369302
-0.361529
-0.349951
-0.335737
-0.317377
-0.298349
-0.413256
-0.406715
-0.399613
-0.391895
-0.385357
-0.380581
-0.377139
-0.373706
-0.368837
-0.361475
-0.351381
-0.338291
-0.32321
-0.304959
-0.286773
-0.419397
-0.411867
-0.404295
-0.396031
-0.388716
-0.382699
-0.377295
-0.371262
-0.363573
-0.353671
-0.341586
-0.327273
-0.31158
-0.293546
-0.276016
-0.426389
-0.417683
-0.40958
-0.400655
-0.392422
-0.384926
-0.377279
-0.368525
-0.358121
-0.345932
-0.33215
-0.316854
-0.300699
-0.282886
-0.265951
-0.434209
-0.424167
-0.415452
-0.405725
-0.396391
-0.387109
-0.376964
-0.365447
-0.352494
-0.338274
-0.323053
-0.306949
-0.290429
-0.272836
-0.256337
-0.442832
-0.431321
-0.421895
-0.41121
-0.400521
-0.389099
-0.376253
-0.362008
-0.346703
-0.330693
-0.314243
-0.297463
-0.280641
-0.26324
-0.247085
-0.452227
-0.439145
-0.428892
-0.417074
-0.404685
-0.390761
-0.375078
-0.358197
-0.340747
-0.323161
-0.305656
-0.288298
-0.271217
-0.253989
-0.238091
-0.462355
-0.447621
-0.436413
-0.423249
-0.408727
-0.391974
-0.373393
-0.354006
-0.334613
-0.315639
-0.297219
-0.279359
-0.262054
-0.244979
-0.229281
-0.473161
-0.456706
-0.444414
-0.429615
-0.412482
-0.392635
-0.371161
-0.349422
-0.328277
-0.308075
-0.288858
-0.270558
-0.253059
-0.236128
-0.220585
-0.484564
-0.466326
-0.452824
-0.435994
-0.415782
-0.392657
-0.368349
-0.344425
-0.321701
-0.300412
-0.280496
-0.261811
-0.244153
-0.227359
-0.211941
-0.496451
-0.476372
-0.461522
-0.442167
-0.418462
-0.391961
-0.364923
-0.338983
-0.31484
-0.292589
-0.272061
-0.253043
-0.235263
-0.218606
-0.203297
-0.508664
-0.486704
-0.470323
-0.447892
-0.420369
-0.390471
-0.360841
-0.333057
-0.307643
-0.284541
-0.263485
-0.244185
-0.226323
-0.20981
-0.194605
-0.521
-0.49715
-0.478976
-0.452924
-0.421356
-0.388116
-0.356057
-0.326598
-0.300053
-0.276208
-0.254701
-0.235175
-0.217276
-0.200917
-0.185821
-0.53321
-0.507502
-0.487173
-0.457019
-0.421287
-0.384822
-0.350518
-0.319554
-0.292013
-0.26753
-0.245652
-0.225958
-0.208068
-0.191878
-0.176905
-0.545002
-0.517518
-0.494572
-0.459944
-0.420035
-0.380515
-0.344168
-0.311868
-0.283465
-0.258448
-0.236281
-0.216484
-0.198656
-0.18265
-0.167826
-0.556053
-0.526913
-0.50082
-0.461476
-0.41748
-0.375123
-0.336945
-0.303484
-0.274354
-0.24891
-0.22654
-0.20671
-0.188998
-0.173204
-0.15857
-0.566021
-0.535366
-0.505581
-0.461411
-0.413513
-0.368573
-0.32879
-0.294345
-0.264627
-0.238868
-0.216385
-0.196596
-0.179061
-0.163521
-0.149146
-0.574553
-0.542521
-0.508544
-0.459566
-0.408033
-0.360797
-0.319644
-0.284398
-0.254235
-0.228277
-0.205776
-0.186106
-0.16881
-0.153584
-0.139565
-0.581297
-0.548003
-0.509438
-0.455783
-0.40095
-0.35173
-0.309452
-0.273594
-0.243136
-0.217101
-0.19468
-0.175207
-0.158216
-0.143365
-0.129787
-0.585914
-0.551435
-0.508032
-0.449934
-0.392185
-0.341314
-0.298167
-0.261892
-0.231295
-0.205309
-0.18307
-0.163876
-0.147254
-0.13282
-0.119689
-0.588085
-0.552458
-0.504133
-0.441917
-0.381674
-0.329502
-0.285748
-0.249258
-0.218683
-0.192875
-0.170922
-0.152094
-0.135915
-0.121929
-0.109112
-0.587518
-0.550759
-0.497574
-0.431657
-0.369368
-0.316255
-0.272163
-0.235666
-0.205277
-0.179778
-0.15822
-0.139848
-0.124195
-0.110717
-0.0980376
-0.583954
-0.546073
-0.488218
-0.419099
-0.355235
-0.301547
-0.257387
-0.221091
-0.191058
-0.16601
-0.144962
-0.127145
-0.112092
-0.0991591
-0.0868044
-0.577173
-0.538186
-0.475969
-0.404212
-0.339256
-0.285359
-0.241402
-0.205518
-0.176013
-0.151588
-0.131164
-0.114017
-0.0996483
-0.0871566
-0.0754656
-0.566994
-0.52694
-0.460772
-0.386987
-0.321428
-0.267682
-0.224201
-0.188959
-0.160158
-0.136544
-0.116844
-0.100448
-0.0868075
-0.0748279
-0.0639365
-0.553281
-0.512236
-0.44261
-0.367434
-0.301755
-0.248518
-0.205816
-0.171463
-0.143582
-0.120815
-0.101994
-0.0864484
-0.0735853
-0.0622172
-0.0521839
-0.535943
-0.494026
-0.421502
-0.345586
-0.280254
-0.227915
-0.186321
-0.153044
-0.126228
-0.104463
-0.0866347
-0.0720358
-0.0600126
-0.0493416
-0.0402113
-0.514934
-0.472317
-0.397511
-0.321502
-0.256982
-0.205985
-0.165702
-0.133711
-0.108132
-0.0875236
-0.0707982
-0.0572362
-0.0461218
-0.0362169
-0.0280384
-0.490258
-0.447165
-0.370739
-0.29527
-0.232069
-0.182713
-0.144002
-0.113514
-0.0893408
-0.0700338
-0.0545219
-0.0420838
-0.0319464
-0.0228695
-0.0156948
-0.461965
-0.418684
-0.341308
-0.266984
-0.205588
-0.158155
-0.121289
-0.0925103
-0.0699082
-0.0520384
-0.0378482
-0.0266181
-0.0175235
-0.00933722
-0.00322197
-0.430165
-0.387078
-0.309271
-0.236751
-0.177617
-0.132413
-0.0976429
-0.0707697
-0.0498944
-0.0335896
-0.0208249
-0.0108827
-0.00289458
0.00433447
0.00933154
-0.395022
-0.352632
-0.274574
-0.204744
-0.14828
-0.1056
-0.0731528
-0.0483687
-0.0293667
-0.0147467
-0.00350547
0.00507432
0.0118975
0.0181014
0.0219291
-0.35673
-0.315502
-0.237567
-0.171033
-0.117712
-0.077836
-0.0479194
-0.0253926
-0.00839934
0.00442433
0.0140502
0.0212016
0.0268119
0.0319282
0.0345481
-0.315486
-0.275362
-0.199054
-0.135871
-0.0860586
-0.0492494
-0.0220523
-0.00193441
0.0129272
0.0238516
0.0317779
0.0374461
0.0418071
0.0457653
0.0470957
-0.271548
-0.232589
-0.159202
-0.0995349
-0.0534854
-0.0199758
0.00433101
0.0219061
0.0345268
0.0434597
0.0496146
0.05376
0.0568266
0.0594717
0.0592703
-0.225172
-0.187755
-0.118034
-0.0622474
-0.0201751
0.00983973
0.0311065
0.0460227
0.0563082
0.0631724
0.0675055
0.0701062
0.0717866
0.0727727
0.0706473
-0.176641
-0.141358
-0.0757307
-0.024214
0.0136841
0.0400431
0.0581436
0.0703033
0.0781755
0.082913
0.0854004
0.0864463
0.0865943
0.0854688
0.0811953
-0.126414
-0.0937058
-0.0325541
0.0143514
0.0479002
0.0704728
0.0853057
0.0946311
0.10003
0.102603
0.103237
0.102702
0.10116
0.097772
0.0919643
-0.0748938
-0.045131
0.0112045
0.0532209
0.0822762
0.100962
0.112451
0.118885
0.121769
0.122157
0.120928
0.118744
0.115369
0.10992
0.105663
-0.0224899
0.00401034
0.0552409
0.0921553
0.11661
0.13134
0.139435
0.142943
0.143291
0.141489
0.138377
0.134455
0.129269
0.122485
0.118943
0.0303738
0.053352
0.0992465
0.130908
0.150697
0.161431
0.16611
0.166678
0.164489
0.160504
0.155497
0.149823
0.143
0.135223
0.131363
0.0832692
0.102521
0.142911
0.16923
0.184327
0.191061
0.192326
0.189965
0.185256
0.179103
0.172203
0.164802
0.156494
0.147817
0.143183
0.135772
0.151139
0.185925
0.20687
0.217293
0.220054
0.217935
0.212677
0.205483
0.197191
0.188421
0.179348
0.169653
0.160043
0.15442
0.187461
0.198826
0.227982
0.24358
0.249387
0.248235
0.242789
0.23469
0.225061
0.214675
0.204076
0.193394
0.182385
0.171816
0.165113
0.237915
0.245214
0.268781
0.279113
0.280405
0.275432
0.266744
0.255879
0.243883
0.231463
0.219093
0.206869
0.194601
0.183061
0.175246
0.286722
0.289949
0.30803
0.313233
0.310148
0.301477
0.289657
0.276123
0.261847
0.247467
0.233397
0.219703
0.206231
0.193731
0.184795
0.333483
0.332688
0.345449
0.345708
0.338424
0.326211
0.311391
0.295307
0.278853
0.262603
0.246913
0.231825
0.217212
0.203776
0.193729
0.377817
0.373106
0.38077
0.37632
0.365049
0.349476
0.331817
0.313319
0.294806
0.276789
0.259572
0.243174
0.227488
0.213151
0.20202
0.419362
0.410895
0.41374
0.404859
0.389849
0.371129
0.35081
0.330054
0.309616
0.289949
0.271307
0.25369
0.237006
0.221815
0.209638
0.457778
0.445768
0.444124
0.431133
0.412661
0.39103
0.368254
0.345412
0.323198
0.30201
0.282055
0.263318
0.245719
0.229729
0.216558
0.492754
0.477463
0.471703
0.45496
0.433336
0.409054
0.384042
0.359305
0.335477
0.312905
0.291758
0.272009
0.253581
0.236857
0.222759
0.524004
0.505738
0.496282
0.476179
0.451736
0.425087
0.398078
0.371648
0.34638
0.322575
0.300366
0.279716
0.260553
0.243167
0.22822
0.551276
0.530381
0.517685
0.494645
0.467741
0.439025
0.410275
0.382369
0.355846
0.330966
0.307833
0.286399
0.266599
0.24863
0.232926
0.574347
0.551207
0.535759
0.51023
0.481244
0.45078
0.420556
0.391403
0.363819
0.338031
0.314117
0.292024
0.271687
0.25322
0.236865
0.593032
0.568058
0.550376
0.522829
0.492155
0.460275
0.428859
0.398697
0.370254
0.343732
0.319185
0.296561
0.27579
0.256918
0.240026
0.60718
0.580808
0.56143
0.532354
0.500403
0.467451
0.435132
0.404205
0.375113
0.348035
0.323011
0.299984
0.278887
0.259706
0.242402
0.616676
0.589362
0.568844
0.538741
0.505932
0.472261
0.439336
0.407896
0.378368
0.350917
0.325573
0.302277
0.280961
0.261571
0.243988
0.621443
0.593655
0.572564
0.541945
0.508706
0.474673
0.441445
0.409748
0.380001
0.352363
0.326857
0.303426
0.282001
0.262506
0.244782
0.621443
0.593655
0.572564
0.541945
0.508706
0.474673
0.441445
0.409748
0.380001
0.352363
0.326857
0.303426
0.282001
0.262506
0.244782
0.616676
0.589362
0.568844
0.538741
0.505932
0.472261
0.439336
0.407896
0.378368
0.350917
0.325573
0.302277
0.280961
0.261571
0.243988
0.60718
0.580808
0.56143
0.532354
0.500403
0.467451
0.435132
0.404205
0.375113
0.348035
0.323011
0.299984
0.278887
0.259706
0.242402
0.593032
0.568058
0.550376
0.522829
0.492155
0.460275
0.428859
0.398697
0.370254
0.343732
0.319185
0.296561
0.27579
0.256918
0.240026
0.574347
0.551207
0.535759
0.51023
0.481244
0.45078
0.420556
0.391403
0.363819
0.338031
0.314117
0.292024
0.271687
0.25322
0.236865
0.551276
0.530381
0.517685
0.494645
0.467741
0.439025
0.410275
0.382369
0.355846
0.330966
0.307833
0.286399
0.266599
0.24863
0.232926
0.524004
0.505738
0.496282
0.476179
0.451736
0.425087
0.398078
0.371648
0.34638
0.322575
0.300366
0.279716
0.260553
0.243167
0.22822
0.492754
0.477463
0.471703
0.45496
0.433336
0.409054
0.384042
0.359305
0.335477
0.312905
0.291758
0.272009
0.253581
0.236857
0.222759
0.457778
0.445768
0.444124
0.431133
0.412661
0.39103
0.368254
0.345412
0.323198
0.30201
0.282055
0.263318
0.245719
0.229729
0.216558
0.419362
0.410895
0.41374
0.404859
0.389849
0.371129
0.35081
0.330054
0.309616
0.289949
0.271307
0.25369
0.237006
0.221815
0.209638
0.377817
0.373106
0.38077
0.37632
0.365049
0.349476
0.331817
0.313319
0.294806
0.276789
0.259572
0.243174
0.227488
0.213151
0.20202
0.333483
0.332688
0.345449
0.345708
0.338424
0.326211
0.311392
0.295307
0.278853
0.262603
0.246913
0.231825
0.217212
0.203776
0.193729
0.286722
0.289949
0.30803
0.313233
0.310148
0.301477
0.289657
0.276123
0.261847
0.247467
0.233397
0.219703
0.206231
0.193731
0.184795
0.237915
0.245214
0.268781
0.279113
0.280405
0.275432
0.266744
0.255879
0.243883
0.231463
0.219093
0.206869
0.194601
0.183061
0.175246
0.187461
0.198826
0.227982
0.24358
0.249387
0.248235
0.242789
0.23469
0.225061
0.214675
0.204076
0.193394
0.182385
0.171816
0.165113
0.135772
0.151139
0.185925
0.20687
0.217293
0.220054
0.217935
0.212677
0.205483
0.197191
0.188421
0.179348
0.169653
0.160043
0.15442
0.0832692
0.102521
0.142911
0.16923
0.184328
0.191061
0.192326
0.189965
0.185256
0.179103
0.172203
0.164802
0.156494
0.147817
0.143183
0.0303738
0.053352
0.0992465
0.130908
0.150697
0.161431
0.16611
0.166678
0.164489
0.160504
0.155497
0.149823
0.143
0.135223
0.131363
-0.0224899
0.00401035
0.055241
0.0921553
0.11661
0.13134
0.139435
0.142943
0.143291
0.141489
0.138377
0.134455
0.129269
0.122485
0.118943
-0.0748938
-0.045131
0.0112045
0.0532209
0.0822763
0.100962
0.112451
0.118885
0.121769
0.122157
0.120928
0.118744
0.115369
0.10992
0.105663
-0.126414
-0.0937058
-0.0325541
0.0143514
0.0479002
0.0704728
0.0853057
0.0946311
0.10003
0.102603
0.103237
0.102702
0.10116
0.097772
0.0919643
-0.176641
-0.141358
-0.0757307
-0.024214
0.0136841
0.0400431
0.0581436
0.0703034
0.0781755
0.0829131
0.0854005
0.0864463
0.0865943
0.0854688
0.0811953
-0.225172
-0.187755
-0.118034
-0.0622474
-0.0201751
0.00983974
0.0311066
0.0460227
0.0563082
0.0631724
0.0675055
0.0701062
0.0717866
0.0727727
0.0706473
-0.271548
-0.232589
-0.159202
-0.0995349
-0.0534854
-0.0199758
0.00433102
0.0219061
0.0345268
0.0434598
0.0496146
0.05376
0.0568266
0.0594717
0.0592704
-0.315486
-0.275362
-0.199054
-0.135871
-0.0860586
-0.0492494
-0.0220523
-0.0019344
0.0129272
0.0238516
0.0317779
0.0374461
0.0418072
0.0457653
0.0470957
-0.35673
-0.315502
-0.237567
-0.171033
-0.117712
-0.077836
-0.0479194
-0.0253926
-0.00839933
0.00442434
0.0140502
0.0212016
0.0268119
0.0319282
0.0345481
-0.395022
-0.352632
-0.274574
-0.204744
-0.14828
-0.1056
-0.0731528
-0.0483687
-0.0293667
-0.0147467
-0.00350546
0.00507433
0.0118975
0.0181014
0.0219291
-0.430165
-0.387078
-0.309271
-0.236751
-0.177616
-0.132413
-0.0976429
-0.0707697
-0.0498944
-0.0335896
-0.0208249
-0.0108827
-0.00289457
0.00433448
0.00933155
-0.461965
-0.418684
-0.341308
-0.266984
-0.205588
-0.158155
-0.121289
-0.0925103
-0.0699082
-0.0520384
-0.0378482
-0.0266181
-0.0175235
-0.00933721
-0.00322196
-0.490258
-0.447165
-0.370739
-0.29527
-0.232069
-0.182713
-0.144001
-0.113514
-0.0893408
-0.0700338
-0.0545219
-0.0420838
-0.0319464
-0.0228695
-0.0156948
-0.514934
-0.472317
-0.397511
-0.321502
-0.256982
-0.205985
-0.165702
-0.133711
-0.108132
-0.0875235
-0.0707982
-0.0572362
-0.0461218
-0.0362169
-0.0280384
-0.535943
-0.494026
-0.421502
-0.345586
-0.280254
-0.227915
-0.186321
-0.153044
-0.126228
-0.104463
-0.0866347
-0.0720358
-0.0600126
-0.0493416
-0.0402113
-0.553281
-0.512236
-0.44261
-0.367434
-0.301755
-0.248518
-0.205816
-0.171463
-0.143582
-0.120815
-0.101994
-0.0864484
-0.0735853
-0.0622172
-0.0521839
-0.566994
-0.52694
-0.460772
-0.386987
-0.321428
-0.267682
-0.224201
-0.188959
-0.160158
-0.136544
-0.116844
-0.100448
-0.0868075
-0.0748279
-0.0639365
-0.577173
-0.538186
-0.475969
-0.404212
-0.339256
-0.285359
-0.241402
-0.205518
-0.176013
-0.151588
-0.131164
-0.114017
-0.0996483
-0.0871566
-0.0754656
-0.583954
-0.546073
-0.488218
-0.419099
-0.355235
-0.301547
-0.257387
-0.221091
-0.191058
-0.16601
-0.144962
-0.127145
-0.112092
-0.0991591
-0.0868044
-0.587518
-0.550759
-0.497574
-0.431657
-0.369368
-0.316255
-0.272163
-0.235666
-0.205277
-0.179778
-0.15822
-0.139848
-0.124195
-0.110717
-0.0980376
-0.588085
-0.552458
-0.504133
-0.441917
-0.381674
-0.329502
-0.285748
-0.249258
-0.218682
-0.192875
-0.170922
-0.152094
-0.135915
-0.121929
-0.109112
-0.585914
-0.551435
-0.508031
-0.449934
-0.392185
-0.341314
-0.298167
-0.261892
-0.231295
-0.205309
-0.18307
-0.163876
-0.147254
-0.13282
-0.119689
-0.581296
-0.548003
-0.509438
-0.455783
-0.40095
-0.35173
-0.309452
-0.273594
-0.243136
-0.217101
-0.19468
-0.175207
-0.158216
-0.143365
-0.129787
-0.574552
-0.542521
-0.508544
-0.459566
-0.408033
-0.360797
-0.319644
-0.284398
-0.254235
-0.228277
-0.205776
-0.186106
-0.16881
-0.153584
-0.139565
-0.566021
-0.535366
-0.505581
-0.461411
-0.413513
-0.368573
-0.32879
-0.294345
-0.264627
-0.238868
-0.216385
-0.196596
-0.179061
-0.163521
-0.149146
-0.556053
-0.526913
-0.50082
-0.461476
-0.41748
-0.375123
-0.336945
-0.303484
-0.274354
-0.24891
-0.22654
-0.20671
-0.188998
-0.173204
-0.15857
-0.545002
-0.517518
-0.494572
-0.459944
-0.420035
-0.380515
-0.344168
-0.311868
-0.283465
-0.258448
-0.236281
-0.216484
-0.198656
-0.18265
-0.167826
-0.53321
-0.507502
-0.487173
-0.457019
-0.421287
-0.384822
-0.350518
-0.319554
-0.292013
-0.26753
-0.245652
-0.225958
-0.208068
-0.191878
-0.176905
-0.521
-0.49715
-0.478976
-0.452924
-0.421356
-0.388116
-0.356057
-0.326598
-0.300053
-0.276208
-0.254701
-0.235175
-0.217276
-0.200917
-0.185821
-0.508664
-0.486704
-0.470323
-0.447892
-0.420369
-0.390471
-0.360841
-0.333057
-0.307643
-0.284541
-0.263485
-0.244185
-0.226323
-0.20981
-0.194605
-0.496451
-0.476372
-0.461522
-0.442167
-0.418462
-0.391961
-0.364923
-0.338983
-0.31484
-0.292589
-0.272061
-0.253043
-0.235263
-0.218606
-0.203297
-0.484564
-0.466326
-0.452824
-0.435994
-0.415782
-0.392657
-0.368349
-0.344425
-0.321701
-0.300412
-0.280496
-0.261811
-0.244153
-0.227359
-0.211941
-0.473161
-0.456706
-0.444414
-0.429615
-0.412482
-0.392635
-0.371161
-0.349422
-0.328277
-0.308075
-0.288858
-0.270558
-0.253059
-0.236128
-0.220585
-0.462355
-0.447621
-0.436413
-0.423249
-0.408727
-0.391974
-0.373393
-0.354006
-0.334613
-0.315639
-0.297219
-0.279359
-0.262054
-0.244979
-0.229281
-0.452227
-0.439145
-0.428892
-0.417074
-0.404685
-0.390761
-0.375078
-0.358197
-0.340747
-0.323161
-0.305656
-0.288298
-0.271217
-0.253989
-0.238091
-0.442832
-0.431321
-0.421895
-0.41121
-0.400521
-0.389099
-0.376253
-0.362008
-0.346703
-0.330693
-0.314243
-0.297463
-0.280641
-0.26324
-0.247085
-0.434209
-0.424167
-0.415452
-0.405725
-0.396391
-0.387109
-0.376964
-0.365447
-0.352494
-0.338274
-0.323053
-0.306949
-0.290429
-0.272836
-0.256337
-0.426389
-0.417683
-0.40958
-0.400655
-0.392422
-0.384926
-0.377279
-0.368525
-0.358121
-0.345932
-0.33215
-0.316854
-0.300699
-0.282886
-0.265951
-0.419397
-0.411867
-0.404295
-0.396031
-0.388716
-0.382699
-0.377295
-0.371262
-0.363573
-0.353671
-0.341585
-0.327273
-0.31158
-0.293546
-0.276016
-0.413256
-0.406715
-0.399613
-0.391895
-0.385357
-0.380581
-0.377139
-0.373706
-0.368837
-0.361475
-0.351381
-0.338291
-0.32321
-0.304959
-0.286773
-0.407976
-0.402223
-0.395549
-0.388306
-0.382434
-0.378719
-0.376971
-0.375939
-0.373909
-0.369302
-0.361529
-0.349951
-0.335737
-0.317377
-0.298349
-0.403544
-0.398382
-0.392118
-0.385325
-0.380053
-0.377263
-0.376972
-0.378088
-0.378805
-0.377099
-0.371965
-0.362272
-0.349236
-0.331009
-0.311585
-0.399911
-0.395172
-0.389318
-0.383005
-0.378324
-0.376368
-0.37733
-0.380317
-0.38358
-0.384807
-0.382582
-0.375154
-0.363826
-0.346114
-0.326397
-0.397
-0.39254
-0.387128
-0.381371
-0.377336
-0.376182
-0.378241
-0.382823
-0.388339
-0.392395
-0.393213
-0.388488
-0.3791
-0.363591
-0.344214
-0.394701
-0.390397
-0.38549
-0.380405
-0.377131
-0.376818
-0.379878
-0.385807
-0.393231
-0.399881
-0.40367
-0.402091
-0.394854
-0.382575
-0.36237
-0.392861
-0.388635
-0.384313
-0.380045
-0.37769
-0.378322
-0.382364
-0.389456
-0.398439
-0.40734
-0.413818
-0.415612
-0.410626
-0.401184
-0.380511
-0.391295
-0.38713
-0.383481
-0.380181
-0.378924
-0.380655
-0.385732
-0.39389
-0.404143
-0.41489
-0.42363
-0.428668
-0.425989
-0.419019
-0.398671
-0.389808
-0.385752
-0.382859
-0.380671
-0.380682
-0.383673
-0.3899
-0.399115
-0.410456
-0.422666
-0.433191
-0.441049
-0.440627
-0.436202
-0.416816
-0.388206
-0.384369
-0.382308
-0.381347
-0.382767
-0.387166
-0.394671
-0.405
-0.417358
-0.430749
-0.442629
-0.452751
-0.454296
-0.452679
-0.43457
-0.386316
-0.382861
-0.381687
-0.382027
-0.384942
-0.39085
-0.399744
-0.411297
-0.424672
-0.439092
-0.452013
-0.463864
-0.466843
-0.468183
-0.451255
-0.383992
-0.381119
-0.380861
-0.382525
-0.386954
-0.394405
-0.404748
-0.417585
-0.432075
-0.447462
-0.461255
-0.474404
-0.478243
-0.482381
-0.466165
-0.381125
-0.379052
-0.379707
-0.382662
-0.388551
-0.397502
-0.409287
-0.423438
-0.439088
-0.455461
-0.470074
-0.484185
-0.488515
-0.494894
-0.478836
-0.377657
-0.376593
-0.378124
-0.382283
-0.389512
-0.399848
-0.412988
-0.428409
-0.445223
-0.462568
-0.47802
-0.492807
-0.497553
-0.505308
-0.489075
-0.373584
-0.373711
-0.376047
-0.381279
-0.389675
-0.401216
-0.415555
-0.432124
-0.450018
-0.468251
-0.484573
-0.499743
-0.505014
-0.513197
-0.496748
-0.368962
-0.370421
-0.373458
-0.379605
-0.388962
-0.401484
-0.416807
-0.434328
-0.453121
-0.472089
-0.489146
-0.504513
-0.510367
-0.518148
-0.501573
-0.363909
-0.366771
-0.370415
-0.377295
-0.387394
-0.40066
-0.416711
-0.434924
-0.454358
-0.473833
-0.491385
-0.506697
-0.513015
-0.519827
-0.503143
-0.358611
-0.362887
-0.367022
-0.374461
-0.385089
-0.39886
-0.415378
-0.434006
-0.453788
-0.473449
-0.491214
-0.506143
-0.512549
-0.51808
-0.501127
-0.353304
-0.358936
-0.363451
-0.371293
-0.382261
-0.396318
-0.413061
-0.431831
-0.451652
-0.471201
-0.488802
-0.502847
-0.509588
-0.512587
-0.495675
-0.348259
-0.35513
-0.359925
-0.368035
-0.379189
-0.393359
-0.410126
-0.428808
-0.448407
-0.467574
-0.48464
-0.497698
-0.504131
-0.504218
-0.488359
-0.343766
-0.351701
-0.356692
-0.364967
-0.376195
-0.390355
-0.407008
-0.42545
-0.444656
-0.463254
-0.479553
-0.491573
-0.497141
-0.4948
-0.479209
-0.340103
-0.348879
-0.353999
-0.362366
-0.373601
-0.387685
-0.404162
-0.422304
-0.441061
-0.459039
-0.474525
-0.485545
-0.490017
-0.485814
-0.470154
-0.337513
-0.34687
-0.352066
-0.360477
-0.371691
-0.385689
-0.402
-0.419876
-0.438248
-0.455704
-0.470516
-0.480723
-0.484211
-0.478747
-0.46276
-0.33617
-0.345824
-0.351056
-0.359484
-0.370679
-0.384623
-0.400834
-0.418555
-0.436707
-0.453864
-0.468295
-0.478041
-0.480954
-0.474857
-0.458597
-0.430748
-0.384848
-0.329384
-0.265988
-0.200768
-0.137713
-0.080993
-0.0328611
0.00554291
0.0344139
0.0547123
0.0678383
0.075304
0.0785235
0.0787033
0.0768088
0.073591
0.0696
0.0652228
0.0607211
0.0562644
0.0519575
0.04786
0.0440024
0.0403965
0.0370423
0.0339334
0.0310595
0.0284085
0.0259676
0.0237239
0.0216647
0.0197777
0.0180512
0.0164738
0.0150347
0.0137231
0.0125287
0.0114418
0.010453
0.00955326
0.00873449
0.00798914
0.00731031
0.00669169
0.00612853
0.00561645
0.00514515
0.00471409
0.00431923
0.00395773
0.00362661
0.00332308
0.00304469
0.00278918
0.00255452
0.00233885
0.00214049
0.00195791
0.0017897
0.00163457
0.00149136
0.00135897
0.00123642
0.00112277
0.00101724
0.000918944
0.000827318
0.000741473
0.000661097
0.000585158
0.000513757
0.000445445
0.000381087
0.000318273
0.000259377
0.000199913
0.000145309
8.66004e-05
3.50183e-05
-0.436416
-0.390592
-0.33517
-0.271579
-0.205911
-0.142345
-0.0850587
-0.036279
0.00262499
0.0319424
0.0526223
0.0660658
0.0737977
0.0772418
0.0776133
0.0758813
0.0728007
0.0689262
0.064648
0.0602306
0.0558459
0.0516003
0.0475552
0.0437424
0.0401747
0.0368533
0.0337725
0.0309227
0.0282924
0.0258693
0.0236407
0.0215944
0.0197183
0.0180009
0.0164313
0.0149985
0.0136921
0.0125022
0.0114189
0.010433
0.00953585
0.00871919
0.00797559
0.00729824
0.00668087
0.00611858
0.00560705
0.00513676
0.00470679
0.00431272
0.00395184
0.00362126
0.00331822
0.00304027
0.00278515
0.00255083
0.00233548
0.00213741
0.00195509
0.00178712
0.00163221
0.0014892
0.00135699
0.00123462
0.00112113
0.00101575
0.000917596
0.000826101
0.00074038
0.000660122
0.000584293
0.000512998
0.000444786
0.000380524
0.000317802
0.000258994
0.000199617
0.000145095
8.64725e-05
3.49655e-05
-0.446526
-0.400975
-0.345755
-0.281923
-0.215573
-0.151205
-0.0927553
-0.0428969
-0.00307247
0.027071
0.0484671
0.0625244
0.07078
0.0746719
0.0754279
0.0740244
0.0712216
0.0675825
0.0635043
0.0592567
0.0550164
0.0508936
0.0469531
0.0432293
0.0397374
0.0364808
0.0334553
0.0306529
0.0280633
0.025675
0.0234762
0.0214552
0.0196006
0.0179013
0.0163467
0.0149265
0.0136306
0.0124493
0.0113732
0.0103933
0.00950112
0.00868864
0.00794855
0.00727416
0.00665929
0.00609874
0.00558788
0.0051201
0.00469223
0.00429972
0.00394007
0.00361057
0.00330851
0.00303143
0.00277708
0.00254347
0.00232874
0.00213124
0.00194945
0.00178196
0.00162749
0.00148489
0.00135305
0.00123102
0.00111786
0.00101277
0.0009149
0.000823669
0.000738196
0.000658171
0.000582564
0.000511478
0.000443467
0.000379396
0.00031686
0.000258228
0.000199027
0.000144666
8.62166e-05
3.48598e-05
-0.459019
-0.414128
-0.359512
-0.295725
-0.22876
-0.163147
-0.103414
-0.0523908
-0.0113206
0.0199384
0.0423242
0.0572515
0.066267
0.0708211
0.0721521
0.0712454
0.0688638
0.0655816
0.0618059
0.0578146
0.0537913
0.0498523
0.0460675
0.0424757
0.0390958
0.0359344
0.0329902
0.0302571
0.0277268
0.0253893
0.0232338
0.0212498
0.0194265
0.0177536
0.0162212
0.0148195
0.013539
0.0123705
0.0113051
0.010334
0.00944922
0.00864296
0.00790811
0.00723814
0.00662701
0.00606921
0.00556003
0.00509557
0.00467051
0.00428025
0.00392241
0.00359454
0.00329395
0.00301818
0.002765
0.00253242
0.00231864
0.002122
0.00194099
0.00177422
0.00162041
0.00147841
0.00134714
0.00122563
0.00111294
0.00100831
0.00091086
0.000820022
0.00073492
0.000655246
0.000579971
0.0005092
0.000441491
0.000377706
0.000315448
0.000257079
0.000198141
0.000144023
8.58327e-05
3.47012e-05
-0.471894
-0.427973
-0.374702
-0.311138
-0.243527
-0.177301
-0.116508
-0.0641782
-0.0217592
0.0107767
0.0343425
0.0503426
0.0603217
0.0657331
0.067819
0.0675735
0.0657552
0.0629503
0.0595786
0.0559285
0.0521932
0.048497
0.0449171
0.0414982
0.0382646
0.035227
0.0323878
0.0297443
0.0272904
0.025018
0.0229183
0.0209817
0.0191988
0.01756
0.0160563
0.0146786
0.0134181
0.0122664
0.0112148
0.0102554
0.00938039
0.00858234
0.00785441
0.00719029
0.00658414
0.00603025
0.00552421
0.00506396
0.00464173
0.00425431
0.00389889
0.00357319
0.00327456
0.00300053
0.0027489
0.00251771
0.00230519
0.0021097
0.00192973
0.00176391
0.00161098
0.00146979
0.00133926
0.00121845
0.0011064
0.00100237
0.000905476
0.000815164
0.000730556
0.000651348
0.000576516
0.000506165
0.000438856
0.000375453
0.000313566
0.000255547
0.00019696
0.000143166
8.53209e-05
3.44893e-05
-0.48365
-0.440535
-0.388948
-0.326473
-0.259414
-0.192721
-0.131091
-0.0776367
-0.0339337
-8.71513e-05
0.0247573
0.0419692
0.0530713
0.059504
0.0625042
0.0630688
0.0619477
0.0597337
0.0568615
0.0536327
0.0502518
0.0468537
0.0435244
0.0403164
0.0372604
0.0343726
0.0316603
0.0291244
0.0267621
0.0245679
0.0225349
0.0206551
0.0189205
0.0173228
0.0158536
0.014505
0.0132689
0.0121375
0.011103
0.0101579
0.00929489
0.00850697
0.00778762
0.00713076
0.00653082
0.00598205
0.0054803
0.00502716
0.00460586
0.00422185
0.00386949
0.00354652
0.00325036
0.00297851
0.00272881
0.00249935
0.00228839
0.00209433
0.00191566
0.00175104
0.00159921
0.00145903
0.00132943
0.00120948
0.00109823
0.000994946
0.000898752
0.000809096
0.000725106
0.00064648
0.0005722
0.000502373
0.000435566
0.000372638
0.000311214
0.000253633
0.000195485
0.000142094
8.4681e-05
3.4224e-05
-0.490405
-0.451269
-0.401392
-0.340767
-0.274706
-0.208318
-0.146353
-0.0921166
-0.0473367
-0.0122606
0.0138732
0.0323692
0.0447027
0.0522814
0.0563244
0.0578206
0.0575153
0.055994
0.0537064
0.0509701
0.0480031
0.0449523
0.0419143
0.0389509
0.0361005
0.0333859
0.0308198
0.0284076
0.0261504
0.0240457
0.0220889
0.0202743
0.0185951
0.0170445
0.0156152
0.0143002
0.0130924
0.0119848
0.0109703
0.0100419
0.00919305
0.00841711
0.00770793
0.00705972
0.00646718
0.00592481
0.00542791
0.00497963
0.00456102
0.00418267
0.00383424
0.00351456
0.00322136
0.00295212
0.00270473
0.00247734
0.00226826
0.00207591
0.00189881
0.00173562
0.0015851
0.00144613
0.00131764
0.00119873
0.00108844
0.000986051
0.000890694
0.000801822
0.000718572
0.000640645
0.000567027
0.000497826
0.00043162
0.000369262
0.000308394
0.000251337
0.000193715
0.000140808
8.3913e-05
3.39048e-05
-0.493197
-0.458338