/*--------------------------------*- C++ -*----------------------------------*\
  =========                 |
  \\      /  F ield         | OpenFOAM: The Open Source CFD Toolbox
   \\    /   O peration     | Website:  https://openfoam.org
    \\  /    A nd           | Version:  7
     \\/     M anipulation  |
\*---------------------------------------------------------------------------*/
FoamFile
{
    version     2.0;
    format      ascii;
    class       surfaceScalarField;
    location    "5.001";
    object      phi;
}
// * * * * * * * * * * * * * * * * * * * * * * * * * * * * * * * * * * * * * //

dimensions      [0 3 -1 0 0 0 0];

internalField   nonuniform List<scalar> 
29280
(
-6.00576e-05
6.00576e-05
-3.60916e-11
-0.000182566
0.000122508
-6.29288e-11
-0.000345641
0.000163075
-6.26541e-11
-0.000538071
0.00019243
-4.92709e-11
-0.000755498
0.000217427
-2.92861e-11
-0.00099616
0.000240662
-2.6134e-12
-0.00125823
0.000262072
3.04187e-11
-0.00153845
0.000280214
6.96516e-11
-0.00183152
0.000293076
1.13568e-10
-0.0021299
0.000298374
1.62774e-10
-0.00242352
0.000293625
2.16128e-10
-0.00269987
0.000276348
2.69408e-10
-0.00294446
0.000244586
3.20505e-10
-0.00313952
0.000195063
3.67865e-10
0.000124732
4.02803e-10
-0.00326425
-5.7417e-05
0.000117475
-0.000175457
0.000240548
-0.000333031
0.000320649
-0.000518875
0.000378274
-0.000728193
0.000426745
-0.0009587
0.000471169
-0.00120806
0.000511427
-0.00147249
0.000544644
-0.00174619
0.000566785
-0.00202108
0.000573256
-0.00228653
0.000559083
-0.00252929
0.000519104
-0.00273398
0.000449275
-0.00288448
0.000345562
0.000192881
-0.00295263
-5.23213e-05
0.000169796
-0.000161666
0.000349893
-0.000308494
0.000467477
-0.000481484
0.000551264
-0.000675028
0.00062029
-0.000885857
0.000681998
-0.00111067
0.000736243
-0.0013448
0.000778773
-0.00158158
0.000803559
-0.00181206
0.00080374
-0.00202496
0.000771984
-0.0022063
0.000700447
-0.00233886
0.000581833
-0.0024113
0.000418002
0.000162759
-0.00238118
-4.51269e-05
0.000214923
-0.000142019
0.000446785
-0.000273361
0.000598819
-0.000427841
0.000705744
-0.000598791
0.00079124
-0.000781609
0.000864817
-0.000971732
0.000926366
-0.00116335
0.000970392
-0.00134881
0.000989016
-0.00151837
0.000973306
-0.00166029
0.000913897
-0.00176112
0.000801283
-0.00180076
0.000621466
-0.00177683
0.00039408
1.64929e-05
-0.00163057
-3.6332e-05
0.000251255
-0.000117689
0.000528142
-0.00022953
0.000710661
-0.000360715
0.000836929
-0.000503416
0.00093394
-0.000651517
0.00101292
-0.000799034
0.00107388
-0.000938969
0.00111033
-0.00106277
0.00111282
-0.00116022
0.00107076
-0.00121934
0.000973015
-0.00122933
0.000811276
-0.00116634
0.000558477
-0.00103785
0.000265594
-0.000238539
-0.000782822
-2.6537e-05
0.000277792
-9.01234e-05
0.000591729
-0.000179366
0.000799903
-0.00028354
0.000941103
-0.000393737
0.00104414
-0.000502321
0.0011215
-0.000601904
0.00117347
-0.000684425
0.00119285
-0.000740681
0.00116907
-0.00076052
0.00109059
-0.000731838
0.000944333
-0.000647975
0.000727413
-0.000484368
0.00039487
-0.00024568
2.69066e-05
-0.000577982
9.37621e-05
-1.63955e-05
0.000294187
-6.09462e-05
0.000636279
-0.000125563
0.000864521
-0.000200232
0.00101577
-0.000275205
0.00111911
-0.000341504
0.0011878
-0.000390523
0.00122248
-0.000413421
0.00121575
-0.000400707
0.00115636
-0.000342992
0.00103288
-0.000228986
0.000830328
-4.9268e-05
0.000547695
0.000200368
0.000145234
0.000534131
-0.000306857
-0.0010242
0.000980351
-6.56188e-06
0.000300749
-3.18494e-05
0.000661567
-7.09959e-05
0.000903667
-0.000114982
0.00105976
-0.000153599
0.00115773
-0.000176859
0.00121106
-0.000175284
0.00122091
-0.000139663
0.00118012
-6.08428e-05
0.00107754
7.01432e-05
0.000901893
0.000261979
0.000638492
0.000521657
0.000288017
0.000861249
-0.000194358
0.00127079
-0.000716396
-0.00156602
0.0018126
2.38665e-06
0.000298362
-4.42817e-06
0.000668382
-1.85434e-05
0.000917782
-3.20406e-05
0.00107326
-3.47491e-05
0.00116043
-1.61773e-05
0.00119249
3.37317e-05
0.001171
0.000124186
0.00108967
0.000263725
0.000938
0.000459607
0.000706011
0.000718969
0.00037913
0.00104922
-4.22331e-05
0.00146054
-0.000605679
0.00194464
-0.0012005
-0.0021968
0.00257543
9.89144e-06
0.000288471
1.96482e-05
0.000658625
2.90906e-05
0.00090834
4.45566e-05
0.00105779
7.58662e-05
0.00112912
0.000133591
0.00113477
0.000227667
0.00107692
0.000366885
0.000950452
0.000558969
0.000745917
0.00081053
0.00045445
0.00112608
6.35761e-05
0.00151799
-0.000434138
0.00199295
-0.00108065
0.00255434
-0.00176189
-0.00291061
0.00326814
1.5639e-05
0.000272832
3.94274e-05
0.000634837
6.96103e-05
0.000878157
0.000111224
0.00101617
0.000173277
0.00106707
0.000265885
0.00104216
0.000398585
0.000944225
0.000579599
0.000769437
0.000815882
0.000509634
0.00111443
0.0001559
0.00147979
-0.00030178
0.00192933
-0.000883684
0.00246875
-0.00162006
0.00311736
-0.00241049
-0.00369513
0.00390188
1.94074e-05
0.000253425
5.39969e-05
0.000600247
0.000101293
0.000830862
0.000165183
0.000952285
0.000253651
0.000978604
0.000376042
0.000919766
0.000541309
0.000778957
0.000757369
0.000553377
0.00103125
0.000235749
0.00137219
-0.000185038
0.00178763
-0.000717222
0.00229957
-0.00139562
0.00291199
-0.00223248
0.00365362
-0.00315212
-0.00452433
0.00448282
2.11542e-05
0.00023227
6.30045e-05
0.000558397
0.000123196
0.00077067
0.000204798
0.000870683
0.000314773
0.000868628
0.000461667
0.000772873
0.000654104
0.00058652
0.000900541
0.000306941
0.00120991
-7.36231e-05
0.00159503
-0.00057015
0.00206948
-0.00119167
0.00265423
-0.00198038
0.00334755
-0.00292579
0.00416784
-0.00397241
-0.00535635
0.00499986
2.10009e-05
0.00021127
6.6591e-05
0.000512807
0.000135316
0.000701945
0.000229912
0.000776086
0.000356626
0.000741915
0.000523613
0.000605886
0.000740037
0.000370096
0.00101634
3.06416e-05
0.0013656
-0.000422884
0.0018043
-0.00100886
0.00235127
-0.00173864
0.003016
-0.00264511
0.00378326
-0.00369305
0.00464012
-0.00482926
-0.00614317
0.00542694
1.92195e-05
0.00019205
6.5394e-05
0.000466632
0.000138667
0.000628672
0.00024209
0.000672663
0.000381865
0.00060214
0.000566714
0.000421037
0.000807733
0.000129077
0.00111925
-0.000280879
0.00151901
-0.00082264
0.00202511
-0.00151496
0.00265346
-0.00236699
0.00339022
-0.00338188
0.00420041
-0.00450324
0.00503399
-0.00566285
-0.00684638
0.0057372
1.62114e-05
0.000175839
6.05126e-05
0.000422331
0.000135275
0.00055391
0.000244683
0.000563255
0.000395967
0.000450857
0.000599834
0.000217169
0.000871001
-0.00014209
0.00122818
-0.00063806
0.0016921
-0.00128656
0.0022754
-0.00209826
0.00297859
-0.00307018
0.00375802
-0.00416131
0.00456156
-0.00530678
0.00531663
-0.00641792
-0.00744815
0.0059184
1.24793e-05
0.000163359
5.34232e-05
0.000381387
0.000128027
0.000479306
0.000242597
0.000448684
0.000406765
0.000286689
0.000634783
-1.08489e-05
0.000945854
-0.000453161
0.00136153
-0.00105373
0.0018991
-0.00182413
0.00255608
-0.00275524
0.00330715
-0.00382125
0.00408417
-0.00493832
0.0048307
-0.00605331
0.00547503
-0.00706225
-0.00795149
0.00597838
8.5867e-06
0.000154773
4.58391e-05
0.000344135
0.00012037
0.000404776
0.000241701
0.000327353
0.000423278
0.000105111
0.000683955
-0.000271525
0.00104643
-0.000815635
0.00153018
-0.00153748
0.00213949
-0.00243345
0.00284877
-0.00346451
0.00360596
-0.00457844
0.00433502
-0.00566738
0.00498995
-0.00670825
0.00551788
-0.00759018
-0.00837238
0.00593876
5.10526e-06
0.000149667
3.95215e-05
0.000309719
0.000115861
0.000328436
0.000247922
0.000195292
0.00045402
-0.000100987
0.000757313
-0.000574818
0.00118042
-0.00123874
0.00173284
-0.00208991
0.00239702
-0.00309762
0.00312335
-0.00419085
0.00384371
-0.0052988
0.00449325
-0.00631692
0.0050428
-0.00725779
0.00546592
-0.0080133
-0.00873079
0.00582433
2.55037e-06
0.000147117
3.60481e-05
0.000276221
0.000117653
0.000246831
0.000266236
4.67092e-05
0.000505194
-0.000339945
0.000859811
-0.000929435
0.00134635
-0.00172528
0.00195594
-0.0026995
0.0026459
-0.00378758
0.00335069
-0.00489564
0.00400277
-0.00595087
0.00456052
-0.00687468
0.00500839
-0.00770565
0.0053394
-0.00834432
-0.00905092
0.00565953
1.29578e-06
0.000145821
3.66082e-05
0.000240908
0.000128036
0.000155403
0.000299843
-0.000125098
0.0005795
-0.000619602
0.000990102
-0.00134004
0.00153389
-0.00226906
0.00217832
-0.00334394
0.00286056
-0.00446981
0.00351249
-0.00554757
0.00408108
-0.00651946
0.00454945
-0.00734306
0.00491451
-0.00807071
0.00519569
-0.0086255
-0.00926053
0.0054053
1.48362e-06
0.000144338
4.18774e-05
0.000200515
0.000148194
4.90867e-05
0.000349799
-0.000326702
0.000675794
-0.000945597
0.00114099
-0.00180524
0.00172693
-0.002855
0.00237829
-0.0039953
0.00302333
-0.00511485
0.00360385
-0.0061281
0.00408762
-0.00700323
0.00447626
-0.0077317
0.00477528
-0.00836972
0.00502862
-0.00887885
-0.00945214
0.00522023
3.152e-06
0.000141186
5.20131e-05
0.000151653
0.000178199
-7.70993e-05
0.00041512
-0.000563623
0.000789564
-0.00132004
0.00130129
-0.00231696
0.00190817
-0.00346188
0.00253942
-0.00462656
0.003127
-0.00570242
0.00362992
-0.00663102
0.00403588
-0.00740919
0.00435813
-0.00805394
0.00461294
-0.00862453
0.00483139
-0.0090973
-0.00963129
0.00501054
6.25253e-06
0.000134933
6.67444e-05
9.11615e-05
0.000217235
-0.00022759
0.000493218
-0.000839605
0.000913907
-0.00174073
0.00145832
-0.00286137
0.00206313
-0.00406669
0.00265303
-0.00521646
0.003173
-0.00622239
0.00360088
-0.0070589
0.00393976
-0.00774807
0.00421027
-0.00832445
0.00442968
-0.00884394
0.00462743
-0.00929505
-0.00980713
0.00480327
1.05994e-05
0.000124334
8.55153e-05
1.62456e-05
0.000263911
-0.000405986
0.000580414
-0.00115611
0.00104069
-0.00220101
0.00160041
-0.00342109
0.00218245
-0.00464872
0.0027175
-0.00575152
0.00316794
-0.00667283
0.00352815
-0.00741911
0.00381178
-0.00803169
0.00404178
-0.00855445
0.00423573
-0.0090379
0.00441676
-0.00947608
-0.00997172
0.00458135
1.59665e-05
0.000108367
0.000107659
-7.54463e-05
0.000316533
-0.00061486
0.000672363
-0.00151194
0.00116172
-0.00269036
0.00171867
-0.00397804
0.00226214
-0.0051922
0.00273611
-0.00622549
0.00312052
-0.00705723
0.00342249
-0.00772109
0.00366153
-0.00827073
0.00386038
-0.0087533
0.00403412
-0.00921164
0.00420107
-0.00964302
-0.0101284
0.00435775
2.21525e-05
8.62146e-05
0.000132524
-0.000185818
0.00037326
-0.000855597
0.000764396
-0.00190307
0.00126973
-0.0031957
0.00180769
-0.004516
0.00230252
-0.00568703
0.00271475
-0.00663772
0.00303961
-0.0073821
0.00329286
-0.00797434
0.00349635
-0.00847422
0.00367058
-0.00892753
0.00382798
-0.00936904
0.00398257
-0.00979761
-0.0102751
0.00412927
2.90071e-05
5.72075e-05
0.000159524
-0.000316334
0.000432127
-0.0011282
0.000851845
-0.00232279
0.00135921
-0.00370306
0.00186542
-0.00502221
0.0023067
-0.00612831
0.00266024
-0.00699126
0.00293321
-0.00765507
0.00314636
-0.00818748
0.00332134
-0.00864921
0.00347562
-0.00908181
0.00361883
-0.00951225
0.00376138
-0.00994015
-0.0104122
0.00389845
3.64315e-05
2.0776e-05
0.00018811
-0.000468013
0.000491015
-0.0014311
0.000930422
-0.0027622
0.00142667
-0.00419931
0.00189243
-0.00548796
0.00227928
-0.00651517
0.00257928
-0.00729125
0.00280802
-0.00788382
0.0029883
-0.00836776
0.00314005
-0.00880096
0.00327741
-0.00921917
0.00340761
-0.00964245
0.0035384
-0.0100709
-0.0105387
0.00366496
4.43616e-05
-2.35856e-05
0.000217712
-0.000641363
0.000547677
-0.00176107
0.000996597
-0.00321112
0.00147068
-0.0046734
0.00189104
-0.00590833
0.0022254
-0.00684952
0.00247787
-0.00754372
0.00266935
-0.00807529
0.00282255
-0.00852096
0.0029548
-0.00893321
0.00307716
-0.00934153
0.00319492
-0.00976021
0.00331372
-0.0101898
-0.0106543
0.0034293
5.27438e-05
-7.63293e-05
0.000247661
-0.00083628
0.000599838
-0.00211325
0.00104788
-0.00365917
0.00149146
-0.00511697
0.00186459
-0.00628146
0.00215006
-0.00713499
0.00236112
-0.00775478
0.0025213
-0.00823547
0.00265182
-0.00865148
0.00276714
-0.00904853
0.00287561
-0.00945
0.00298107
-0.00986566
0.00308766
-0.0102963
-0.0107583
0.00319163
6.15114e-05
-0.000137841
0.00027716
-0.00105193
0.000645384
-0.00248147
0.00108295
-0.00409673
0.00149041
-0.00552443
0.00181677
-0.00660782
0.00205782
-0.00737604
0.00223315
-0.00793011
0.0023669
-0.00836923
0.00247798
-0.00876256
0.00257803
-0.00914858
0.00267322
-0.00954519
0.00276632
-0.00995877
0.00286037
-0.0103904
-0.0108501
0.00295218
7.05668e-05
-0.000208408
0.000305298
-0.00128666
0.000682561
-0.00285874
0.00110151
-0.00451568
0.0014697
-0.00589262
0.00175127
-0.00688938
0.00195263
-0.0075774
0.00209723
-0.00807472
0.00220839
-0.00848039
0.00230232
-0.00885649
0.00238814
-0.00923439
0.0024703
-0.00962735
0.00255087
-0.0100393
0.00263203
-0.0104716
-0.0109292
0.00271119
7.97698e-05
-0.000288177
0.000331114
-0.001538
0.00071013
-0.00323775
0.00110416
-0.00490971
0.00143186
-0.00622033
0.00167155
-0.00712907
0.00183778
-0.00774363
0.00195587
-0.00819281
0.00204735
-0.00857187
0.0021257
-0.00893484
0.00219788
-0.00930657
0.00226709
-0.00969656
0.00233488
-0.0101071
0.00240284
-0.0105395
-0.0109953
0.00246887
8.89339e-05
-0.000377111
0.000353684
-0.00180275
0.000727438
-0.0036115
0.00109203
-0.00527431
0.00137951
-0.0065078
0.00158067
-0.00733023
0.00171595
-0.00787891
0.00181098
-0.00828784
0.00188493
-0.00864581
0.00194872
-0.00899863
0.00200758
-0.00936543
0.00206378
-0.00975276
0.00211854
-0.0101619
0.00217299
-0.010594
-0.0110478
0.0022255
9.78311e-05
-0.000474942
0.000372196
-0.00207712
0.000734383
-0.00397369
0.00106667
-0.00560659
0.00131517
-0.0067563
0.00148128
-0.00749634
0.00158928
-0.00798691
0.00166396
-0.00836252
0.00172192
-0.00870377
0.0017718
-0.00904852
0.00181747
-0.00941109
0.00186055
-0.00979584
0.00190204
-0.0102034
0.00194269
-0.0106346
-0.0110864
0.00198133
0.000106206
-0.000581148
0.000386017
-0.00235693
0.00073132
-0.004319
0.00102975
-0.00590502
0.00124118
-0.00696773
0.00137559
-0.00763075
0.00145944
-0.00807076
0.00151586
-0.00841894
0.00155891
-0.00874681
0.00159527
-0.00908488
0.00162777
-0.0094436
0.0016576
-0.00982568
0.00168558
-0.0102314
0.0017122
-0.0106612
-0.0111109
0.00173667
0.000113793
-0.000694941
0.000394729
-0.00263786
0.000718926
-0.00464319
0.000983003
-0.0061691
0.00115961
-0.00714434
0.00126543
-0.00773657
0.00132771
-0.00813305
0.00136747
-0.00845871
0.00139633
-0.00877567
0.00141938
-0.00910794
0.00143868
-0.0094629
0.00145513
-0.00984212
0.0014694
-0.0102456
0.00148177
-0.0106736
-0.011121
0.00149183
0.000120339
-0.00081528
0.000398138
-0.00291566
0.000698087
-0.00494314
0.000928089
-0.0063991
0.00107229
-0.00728854
0.00115229
-0.00781657
0.0011951
-0.00817586
0.00121937
-0.00848297
0.00123451
-0.0087908
0.00124435
-0.00911779
0.00125039
-0.00946894
0.00125332
-0.00984505
0.00125371
-0.010246
0.00125171
-0.0106716
-0.0111165
0.00124721
0.000125614
-0.000940894
0.00039626
-0.00318631
0.000669792
-0.00521667
0.000866555
-0.00659587
0.00098074
-0.00740272
0.00103736
-0.0078732
0.00106238
-0.00820087
0.00107199
-0.00849259
0.00107372
-0.00879252
0.00107039
-0.00911446
0.00106309
-0.00946164
0.00105236
-0.00983433
0.00103872
-0.0102324
0.00102232
-0.0106552
-0.0110974
0.00100328
0.000129427
-0.00107032
0.00038929
-0.00344617
0.000635061
-0.00546244
0.000799799
-0.0067606
0.000886265
-0.00748919
0.000921588
-0.00790852
0.000930109
-0.00820939
0.000925681
-0.00848816
0.000914185
-0.00878103
0.000897689
-0.00909796
0.000876976
-0.00944093
0.000852466
-0.00980982
0.000824621
-0.0102045
0.00079373
-0.0106243
-0.0110637
0.000760006
0.000131632
-0.00120195
0.000377555
-0.0036921
0.000594896
-0.00567979
0.000729055
-0.00689476
0.00078994
-0.00755007
0.000805713
-0.00792429
0.000798758
-0.00820243
0.000780713
-0.00847012
0.000756115
-0.00875643
0.000726443
-0.00906829
0.000692264
-0.00940675
0.000653884
-0.00977144
0.000611678
-0.0101623
0.000565974
-0.0105786
-0.0110149
0.000517131
0.000132133
-0.00133409
0.000361468
-0.00392143
0.000550248
-0.00586856
0.000655402
-0.00699992
0.00069265
-0.00758732
0.000690329
-0.00792197
0.000668676
-0.00818078
0.000637318
-0.00843876
0.000599695
-0.00871881
0.000556849
-0.00902545
0.00050917
-0.00935907
0.000456901
-0.00971917
0.000400326
-0.0101057
0.000339269
-0.0105176
-0.0109503
0.000274679
0.000130898
-0.00146498
0.000341581
-0.00413211
0.00050201
-0.00602899
0.000579765
-0.00707767
0.000595114
-0.00760267
0.000575901
-0.00790276
0.000540144
-0.00814503
0.000495696
-0.00839431
0.000445108
-0.00866822
0.000389103
-0.00896944
0.000327905
-0.00929787
0.000261731
-0.00965299
0.000190943
-0.0100349
0.000115086
-0.0104417
-0.0108659
3.07535e-05
0.000127953
-0.00159294
0.00031846
-0.00432262
0.000451001
-0.00616154
0.000502931
-0.0071296
0.000497918
-0.00759765
0.000462793
-0.00786763
0.000413389
-0.00809562
0.00035602
-0.00833694
0.000292536
-0.00860473
0.000223384
-0.00890029
0.000148672
-0.00922316
6.84141e-05
-0.00957274
-1.71581e-05
-0.00994937
-0.000106833
-0.010352
-0.0107681
-0.00020468
0.000123371
-0.00171631
0.000292608
-0.00449186
0.000397949
-0.00626688
0.000425564
-0.00715722
0.000401531
-0.00757362
0.000351298
-0.0078174
0.000288606
-0.00803293
0.000218426
-0.00826676
0.00014214
-0.00852845
5.9715e-05
-0.00881787
-2.84218e-05
-0.00913502
-0.000122112
-0.00947905
-0.000221227
-0.00985026
-0.000327374
-0.0102459
-0.0106568
-0.00043864
0.000117266
-0.00183357
0.000264514
-0.00463911
0.000343492
-0.00634585
0.000348219
-0.00716194
0.00030633
-0.00753173
0.000241656
-0.00775273
0.000165954
-0.00795723
8.29634e-05
-0.00818377
-6.54216e-06
-0.00843894
-0.000101271
-0.00872314
-0.000202485
-0.00903381
-0.000309951
-0.00937158
-0.000423582
-0.00973663
-0.000544253
-0.0101252
-0.0105308
-0.000670322
0.000109783
-0.00194336
0.000234639
-0.00476396
0.000288189
-0.0063994
0.000271356
-0.00714511
0.000212617
-0.00747299
0.00013404
-0.00767415
4.53557e-05
-0.00786854
-4.99739e-05
-0.00808844
-0.000151358
-0.00833756
-0.000259501
-0.00861499
-0.000374014
-0.00891929
-0.000495099
-0.00925049
-0.000622986
-0.00960874
-0.000757932
-0.00999026
-0.0103897
-0.000898943
0.000101088
-0.00204444
0.000203414
-0.00486629
0.000232525
-0.00642851
0.00019535
-0.00710794
0.000120629
-0.00739827
2.83053e-05
-0.00758182
-7.24237e-05
-0.00776781
-0.000179991
-0.00798088
-0.000294123
-0.00822342
-0.000415
-0.00849412
-0.000542622
-0.00879167
-0.000677192
-0.00911592
-0.000819055
-0.00946688
-0.000968236
-0.00984108
-0.0102339
-0.00112403
9.13583e-05
-0.0021358
0.000171244
-0.00494617
0.000176918
-0.00643419
0.000120505
-0.00705153
3.03525e-05
-0.00730812
-7.44212e-05
-0.00747705
-0.000187557
-0.00765468
-0.000307491
-0.00786094
-0.00043408
-0.00809684
-0.00056754
-0.00836066
-0.000708068
-0.00865114
-0.000855939
-0.00896805
-0.00101155
-0.00931127
-0.00117486
-0.00967777
-0.0100636
-0.00134518
8.07734e-05
-0.00221658
0.000138507
-0.00500391
0.000121718
-0.0064174
4.7161e-05
-0.00697697
-5.7292e-05
-0.00720366
-0.00017479
-0.00735955
-0.000300142
-0.00752933
-0.000432208
-0.00772888
-0.000571044
-0.007958
-0.000716928
-0.00821477
-0.000870154
-0.00849792
-0.00103109
-0.00880712
-0.0012002
-0.00914215
-0.00137745
-0.00950052
-0.00987903
-0.00156204
6.95137e-05
-0.00228609
0.000105545
-0.00503994
6.72519e-05
-0.00637911
-2.44701e-05
-0.00688525
-0.000142662
-0.00708547
-0.000272684
-0.00722953
-0.000409993
-0.00739202
-0.00055399
-0.00758488
-0.000704877
-0.00780711
-0.000862985
-0.00805666
-0.00102868
-0.00833223
-0.00120241
-0.00863338
-0.00138477
-0.00895979
-0.00157572
-0.00930958
-0.00968048
-0.00177427
5.77772e-05
-0.00234387
7.26704e-05
-0.00505483
1.4122e-05
-0.00632056
-9.42576e-05
-0.00677687
-0.000225846
-0.00695388
-0.000367948
-0.00708743
-0.000516991
-0.00724297
-0.000672715
-0.00742915
-0.000835439
-0.00764439
-0.00100555
-0.00788655
-0.00118346
-0.00815431
-0.00136971
-0.00844713
-0.00156502
-0.00876449
-0.00176935
-0.00910524
-0.00946841
-0.00198142
4.57815e-05
-0.00238965
4.03378e-05
-0.00504939
-3.86917e-05
-0.00624153
-0.000162233
-0.00665333
-0.000306632
-0.00680949
-0.00046049
-0.00693357
-0.000621034
-0.00708243
-0.000788265
-0.00726192
-0.000962598
-0.00747006
-0.00114447
-0.00770468
-0.00133433
-0.00796445
-0.0015328
-0.00824867
-0.00174071
-0.00855657
-0.00195805
-0.0088879
-0.00924351
-0.00218295
3.36175e-05
-0.00242327
9.93347e-06
-0.0050257
-8.94635e-05
-0.00614213
-0.000228212
-0.00651458
-0.000384943
-0.00665275
-0.000550234
-0.00676828
-0.00072203
-0.00691063
-0.00090053
-0.00708342
-0.00108623
-0.00728436
-0.0012796
-0.00751131
-0.00148113
-0.00776292
-0.0016915
-0.0080383
-0.00191166
-0.00833641
-0.0021415
-0.00865807
-0.00900647
-0.00237854
2.10737e-05
-0.00244434
-2.36715e-05
-0.00498096
-0.0001391
-0.0060267
-0.000292047
-0.00636163
-0.0004607
-0.0064841
-0.000637109
-0.00659187
-0.00081989
-0.00672785
-0.0010094
-0.00689391
-0.0012062
-0.00708756
-0.0014108
-0.00730671
-0.0016237
-0.00755002
-0.00184565
-0.00781635
-0.00207768
-0.00810438
-0.00231961
-0.00841614
-0.0087574
-0.00256867
8.47395e-06
-0.00245281
-5.67357e-05
-0.00491575
-0.000187547
-0.00589589
-0.000353665
-0.00619551
-0.000533809
-0.00630396
-0.00072104
-0.00640464
-0.000914529
-0.00653436
-0.00111478
-0.00669365
-0.00132241
-0.00687993
-0.00153796
-0.00709117
-0.00176194
-0.00732604
-0.00199514
-0.00758315
-0.00223867
-0.00786084
-0.00249257
-0.00816224
-0.00849651
-0.00275347
-4.06955e-06
-0.00244874
-8.80078e-05
-0.00483181
-0.000234384
-0.00574951
-0.000413023
-0.00601687
-0.000604211
-0.00611277
-0.000801958
-0.00620689
-0.00100587
-0.00633046
-0.00121657
-0.00648295
-0.00143474
-0.00666176
-0.00166095
-0.00686496
-0.00189577
-0.00709121
-0.00214
-0.00733893
-0.00239458
-0.00760626
-0.00265959
-0.00789723
-0.00822531
-0.00293079
-1.70386e-05
-0.00243171
-0.000118058
-0.00473079
-0.000279421
-0.00558815
-0.000470051
-0.00582624
-0.000671857
-0.00591096
-0.000879795
-0.00599896
-0.00109382
-0.00611644
-0.00131467
-0.00626209
-0.00154306
-0.00643337
-0.00177965
-0.00662837
-0.00202512
-0.00684575
-0.00228031
-0.00708373
-0.00254561
-0.00734096
-0.00281897
-0.00762388
-0.00794314
-0.00310114
-2.94251e-05
-0.00240228
-0.000146966
-0.00461325
-0.000322582
-0.00541254
-0.000524684
-0.00562414
-0.0007367
-0.00569895
-0.000954493
-0.00578116
-0.0011783
-0.00589263
-0.00140897
-0.00603143
-0.00164726
-0.00619507
-0.00189392
-0.00638172
-0.00214978
-0.00658989
-0.00241574
-0.00681777
-0.00269217
-0.00706453
-0.00297987
-0.00733618
-0.00766809
-0.00325492
-4.13975e-05
-0.00236088
-0.000174718
-0.00447993
-0.000363831
-0.00522342
-0.000576875
-0.0054111
-0.000798699
-0.00547712
-0.00102599
-0.00555387
-0.00125925
-0.00565938
-0.00149938
-0.0057913
-0.00174722
-0.00594723
-0.0020036
-0.00612534
-0.00226945
-0.00632404
-0.00254553
-0.00654168
-0.00283089
-0.00677917
-0.00312333
-0.00704373
-0.00733063
-0.0034608
-5.29465e-05
-0.00230794
-0.000201277
-0.0043316
-0.000403136
-0.00502156
-0.000626589
-0.00518764
-0.000857813
-0.0052459
-0.00109424
-0.00531744
-0.00133658
-0.00541704
-0.00158581
-0.00554206
-0.00184285
-0.00569018
-0.0021086
-0.0058596
-0.00238392
-0.00604871
-0.00266907
-0.00625654
-0.00296332
-0.00648492
-0.00327082
-0.00673623
-0.00699663
-0.00360482
-6.40383e-05
-0.0022439
-0.000226601
-0.00416904
-0.000440472
-0.00480769
-0.000673798
-0.00495432
-0.000914007
-0.00500569
-0.00115919
-0.00507226
-0.00141022
-0.005166
-0.00166818
-0.0052841
-0.00193404
-0.00542433
-0.00220876
-0.00558488
-0.00249321
-0.00576427
-0.00278779
-0.00596196
-0.00309329
-0.00617942
-0.00341394
-0.00641558
-0.00665955
-0.00375102
-7.46302e-05
-0.00216927
-0.000250652
-0.00399302
-0.000475817
-0.00458253
-0.000718481
-0.00471165
-0.000967247
-0.00475693
-0.00122078
-0.00481873
-0.00148013
-0.00490666
-0.00174641
-0.00501782
-0.00202067
-0.00515007
-0.0023039
-0.00530165
-0.00259691
-0.00547125
-0.00290032
-0.00565855
-0.0032155
-0.00586424
-0.00354539
-0.00608569
-0.00631564
-0.0038893
-8.47233e-05
-0.00208454
-0.000273399
-0.00380434
-0.00050915
-0.00434678
-0.000760618
-0.00446018
-0.0010175
-0.00450004
-0.00127898
-0.00455725
-0.00154622
-0.00463942
-0.00182041
-0.00474362
-0.00210265
-0.00486783
-0.00239396
-0.00501034
-0.00269522
-0.00517
-0.00300725
-0.00534652
-0.00333154
-0.00553995
-0.00366988
-0.00574735
-0.00596409
-0.00402143
-9.43109e-05
-0.00199023
-0.000294818
-0.00360383
-0.000540457
-0.00410114
-0.000800194
-0.00420045
-0.00106475
-0.00423548
-0.00133374
-0.00428827
-0.00160844
-0.00436471
-0.00189011
-0.00446195
-0.00217989
-0.00457805
-0.00247882
-0.00471141
-0.00278783
-0.00486099
-0.00310789
-0.00502645
-0.00344041
-0.00520743
-0.00378662
-0.00540113
-0.00560464
-0.00414607
-0.000103356
-0.00188688
-0.000314888
-0.0033923
-0.000569722
-0.0038463
-0.000837193
-0.00393298
-0.00110896
-0.00396372
-0.00138501
-0.00401221
-0.00166675
-0.00408298
-0.00195545
-0.00417325
-0.00225231
-0.00428119
-0.0025584
-0.00440532
-0.00287472
-0.00454467
-0.0032023
-0.00469887
-0.00354242
-0.00486731
-0.00389611
-0.00504745
-0.00523757
-0.00426317
-0.000111832
-0.00177505
-0.000333587
-0.00317055
-0.000596935
-0.00358296
-0.000871601
-0.00365831
-0.00115011
-0.00368522
-0.00143278
-0.00372954
-0.00172108
-0.00379467
-0.00201636
-0.00387797
-0.00231983
-0.00397772
-0.00263261
-0.00409254
-0.00295574
-0.00422155
-0.00329029
-0.00436432
-0.00363745
-0.00452015
-0.00399815
-0.00468675
-0.00486327
-0.00437245
-0.000119717
-0.00165533
-0.000350899
-0.00293936
-0.000622086
-0.00331177
-0.000903408
-0.00337699
-0.00118817
-0.00340045
-0.00147699
-0.00344072
-0.0017714
-0.00350026
-0.00207279
-0.00357658
-0.0023824
-0.00366811
-0.00270139
-0.00377355
-0.00303083
-0.00389211
-0.0033718
-0.00402334
-0.00372547
-0.00416649
-0.00409272
-0.00431949
-0.0044822
-0.00447379
-0.000126993
-0.00152834
-0.000366808
-0.00269955
-0.000645165
-0.00303341
-0.000932601
-0.00308955
-0.00122313
-0.00310992
-0.00151762
-0.00314623
-0.00181767
-0.00320022
-0.00212468
-0.00326957
-0.00243995
-0.00335284
-0.00276465
-0.00344885
-0.00309989
-0.00355687
-0.00344677
-0.00367646
-0.00380641
-0.00380685
-0.00417971
-0.00394619
-0.00409487
-0.00456705
-0.000133647
-0.00139469
-0.000381302
-0.00245189
-0.000666165
-0.00274855
-0.000959171
-0.00279655
-0.00125497
-0.00281412
-0.00155465
-0.00284656
-0.00185984
-0.00289502
-0.00217199
-0.00295741
-0.00249243
-0.00303241
-0.00282234
-0.00311894
-0.00316287
-0.00321634
-0.00351513
-0.00332421
-0.00388021
-0.00344176
-0.00425904
-0.00356736
-0.0037018
-0.00465211
-0.000139665
-0.00125502
-0.000394371
-0.00219719
-0.000685081
-0.00245784
-0.000983108
-0.00249852
-0.00128368
-0.00251355
-0.00158804
-0.00254219
-0.00189788
-0.00258518
-0.00221469
-0.00264061
-0.00253979
-0.00270731
-0.00287441
-0.00278431
-0.00321971
-0.00287104
-0.00357681
-0.00296711
-0.00394682
-0.00307176
-0.00433063
-0.00318355
-0.00330354
-0.00472889
-0.000145038
-0.00110999
-0.000406006
-0.00193622
-0.000701907
-0.00216194
-0.00100441
-0.00219602
-0.00130923
-0.00220873
-0.00161778
-0.00223365
-0.00193177
-0.00227118
-0.00225272
-0.00231966
-0.00258198
-0.00237805
-0.0029208
-0.00244549
-0.00327035
-0.00252149
-0.00363177
-0.00260569
-0.00400616
-0.00269737
-0.00439441
-0.00279529
-0.00290067
-0.00479729
-0.000149757
-0.00096023
-0.000416201
-0.00166978
-0.000716638
-0.0018615
-0.00102306
-0.0018896
-0.00133161
-0.00190017
-0.00164384
-0.00192142
-0.00196148
-0.00195354
-0.00228607
-0.00199507
-0.00261898
-0.00204513
-0.00296148
-0.00210299
-0.00331476
-0.00216822
-0.00367996
-0.00224049
-0.00405818
-0.00231915
-0.00445032
-0.00240314
-0.00249375
-0.00485724
-0.000153814
-0.000806416
-0.000424949
-0.00139864
-0.000729271
-0.00155718
-0.00103905
-0.00157982
-0.00135082
-0.0015884
-0.00166621
-0.00160604
-0.00198699
-0.00163276
-0.0023147
-0.00166736
-0.00265075
-0.00170909
-0.00299641
-0.00175734
-0.00335289
-0.00181174
-0.00372133
-0.00187204
-0.00410284
-0.00193765
-0.00449831
-0.00200767
-0.00208338
-0.00490869
-0.000157203
-0.000649212
-0.000432246
-0.0011236
-0.000739803
-0.00124962
-0.00105239
-0.00126723
-0.00136684
-0.00127395
-0.00168487
-0.00128801
-0.00200827
-0.00130936
-0.0023386
-0.00133703
-0.00267727
-0.00137042
-0.00302556
-0.00140904
-0.00338471
-0.0014526
-0.00375586
-0.00150088
-0.00414011
-0.0015534
-0.00453834
-0.00160944
-0.00167013
-0.0049516
-0.000159921
-0.000489292
-0.000438088
-0.000845431
-0.000748231
-0.000939479
-0.00106307
-0.000952391
-0.00137967
-0.000957349
-0.00169982
-0.000967863
-0.00202532
-0.000983859
-0.00235774
-0.00100461
-0.0026985
-0.00102965
-0.00304891
-0.00105863
-0.00341019
-0.00109132
-0.00378351
-0.00112756
-0.00416995
-0.00116696
-0.00457039
-0.001209
-0.00125458
-0.00498593
-0.000161962
-0.00032733
-0.000442471
-0.000564922
-0.000754554
-0.000627396
-0.00107108
-0.000635866
-0.0013893
-0.000639132
-0.00171103
-0.000646127
-0.00203811
-0.000656783
-0.0023721
-0.000670611
-0.00271444
-0.000687311
-0.00306644
-0.000706635
-0.00342932
-0.000728438
-0.00380427
-0.000752608
-0.00419235
-0.000778885
-0.00459444
-0.000806913
-0.000837333
-0.00501169
-0.000163324
-0.000164006
-0.000445395
-0.000282851
-0.00075877
-0.000314021
-0.00107642
-0.000318214
-0.00139572
-0.000319836
-0.00171851
-0.000323329
-0.00204664
-0.000328655
-0.00238169
-0.000335568
-0.00272508
-0.000343918
-0.00307813
-0.000353582
-0.00344208
-0.000364486
-0.00381812
-0.000376575
-0.00420729
-0.000389716
-0.00461047
-0.00040373
-0.000418949
-0.00502885
-0.000164006
-6.68364e-12
-0.000446857
-9.55383e-12
-0.000760878
-9.68867e-12
-0.00107909
-9.36759e-12
-0.00139893
-8.75703e-12
-0.00172226
-8.3547e-12
-0.00205091
-8.11691e-12
-0.00238648
-7.71909e-12
-0.0027304
-7.17328e-12
-0.00308398
-6.67654e-12
-0.00344847
-6.19543e-12
-0.00382504
-5.76853e-12
-0.00421476
-5.37301e-12
-0.00461849
-5.03604e-12
-4.71172e-12
-0.00503744
-0.000164006
0.000164006
-0.000446857
0.000282851
-0.000760878
0.000314021
-0.00107909
0.000318214
-0.00139893
0.000319836
-0.00172226
0.000323329
-0.00205091
0.000328655
-0.00238648
0.000335568
-0.0027304
0.000343918
-0.00308398
0.000353582
-0.00344847
0.000364486
-0.00382504
0.000376575
-0.00421476
0.000389716
-0.00461849
0.00040373
0.000418949
-0.00503744
-0.000163324
0.00032733
-0.000445395
0.000564922
-0.00075877
0.000627396
-0.00107642
0.000635866
-0.00139572
0.000639132
-0.00171851
0.000646127
-0.00204664
0.000656783
-0.00238169
0.000670611
-0.00272508
0.000687311
-0.00307813
0.000706634
-0.00344208
0.000728438