/*--------------------------------*- C++ -*----------------------------------*\
  =========                 |
  \\      /  F ield         | OpenFOAM: The Open Source CFD Toolbox
   \\    /   O peration     | Website:  https://openfoam.org
    \\  /    A nd           | Version:  7
     \\/     M anipulation  |
\*---------------------------------------------------------------------------*/
FoamFile
{
    version     2.0;
    format      ascii;
    class       volVectorField;
    location    "5.001";
    object      U;
}
// * * * * * * * * * * * * * * * * * * * * * * * * * * * * * * * * * * * * * //

dimensions      [0 1 -1 0 0 0 0];

internalField   nonuniform List<vector> 
14800
(
(-0.0109009 0.00636474 -2.13029e-20)
(-0.0493714 0.0117822 2.84127e-21)
(-0.108121 0.0140143 1.24532e-20)
(-0.167784 0.0148219 -6.67774e-21)
(-0.227417 0.0150201 -2.24338e-20)
(-0.285384 0.0149344 2.20307e-20)
(-0.341059 0.0146043 9.78112e-22)
(-0.393625 0.013966 2.70351e-21)
(-0.442003 0.0129384 -1.36922e-20)
(-0.484884 0.0114508 -1.70782e-21)
(-0.520808 0.00944874 1.10477e-20)
(-0.54825 0.00690528 9.59146e-21)
(-0.56558 0.00384144 3.60045e-20)
(-0.571007 0.000228217 -3.95678e-20)
(-0.56392 -0.00389155 1.59543e-20)
(-0.0113482 0.0188069 4.47954e-20)
(-0.0492074 0.0349458 -2.83285e-20)
(-0.106419 0.041666 -1.0176e-20)
(-0.164354 0.0441203 2.18951e-21)
(-0.222014 0.0447265 2.1062e-20)
(-0.277704 0.044464 4.33868e-20)
(-0.330724 0.0434627 -3.84562e-20)
(-0.3802 0.0415393 7.23534e-21)
(-0.425013 0.0384552 3.63287e-20)
(-0.463829 0.0340007 4.057e-20)
(-0.495165 0.0280139 -5.17682e-20)
(-0.517477 0.0204057 5.74142e-20)
(-0.529178 0.0112396 -8.37731e-20)
(-0.528489 0.000552347 7.93558e-20)
(-0.513948 -0.0119252 1.61827e-20)
(-0.0122013 0.0304071 7.26286e-20)
(-0.0488847 0.0569251 1.31142e-19)
(-0.103105 0.068197 7.08746e-21)
(-0.157662 0.0723896 -3.73448e-20)
(-0.211467 0.0734394 -1.87752e-20)
(-0.262725 0.072986 -6.8729e-20)
(-0.310593 0.0712827 5.01538e-20)
(-0.354104 0.0680527 6.6154e-20)
(-0.39208 0.0629155 -7.68289e-20)
(-0.423164 0.0555327 -3.13902e-20)
(-0.445891 0.045643 1.09886e-19)
(-0.458738 0.0330829 -3.8473e-20)
(-0.460214 0.0179035 3.64261e-20)
(-0.449064 0.000624167 4.22726e-20)
(-0.421088 -0.0205677 6.49796e-20)
(-0.0133812 0.0406696 -6.10862e-20)
(-0.0484142 0.0769904 -2.18077e-19)
(-0.0983531 0.0928941 1.07708e-19)
(-0.148036 0.0989663 -1.10118e-20)
(-0.19628 0.10052 4.21198e-20)
(-0.241171 0.0998592 -1.2903e-19)
(-0.28169 0.0974102 4.88299e-21)
(-0.316757 0.0928473 2.308e-21)
(-0.345148 0.0856793 5.38919e-20)
(-0.365527 0.0754621 -6.56081e-20)
(-0.376532 0.0618572 -1.85021e-19)
(-0.376825 0.044655 -6.74828e-20)
(-0.364857 0.0236565 -9.02953e-21)
(-0.341575 0.000671274 2.02762e-20)
(-0.296326 -0.0294668 -7.18639e-20)
(-0.0147802 0.0491917 -1.38104e-19)
(-0.0478112 0.0944997 1.02767e-19)
(-0.0924094 0.115095 7.01555e-21)
(-0.135943 0.12322 1.15974e-20)
(-0.177166 0.125364 -9.24671e-20)
(-0.214065 0.124483 7.12758e-20)
(-0.245442 0.12124 -2.65132e-20)
(-0.270114 0.115322 4.5653e-20)
(-0.286851 0.106171 -2.61896e-20)
(-0.294405 0.0932789 1.67931e-19)
(-0.291606 0.0762596 1.34574e-19)
(-0.277644 0.0550024 9.20682e-20)
(-0.250062 0.0285601 -1.45634e-19)
(-0.215269 0.000989009 4.18788e-20)
(-0.150755 -0.038004 -3.70179e-20)
(-0.0162735 0.0556901 -6.26546e-23)
(-0.0470955 0.10893 1.81197e-19)
(-0.0855804 0.134207 -1.35872e-19)
(-0.121962 0.144565 1.15765e-19)
(-0.155005 0.147406 1.04049e-19)
(-0.182654 0.146307 -6.0507e-20)
(-0.203564 0.142228 4.31149e-20)
(-0.216493 0.134939 -1.83888e-19)
(-0.220263 0.123875 5.44564e-20)
(-0.213812 0.108522 -1.27764e-19)
(-0.196149 0.0884528 6.96444e-20)
(-0.167698 0.0638813 -1.65802e-19)
(-0.123232 0.0328096 -4.08405e-20)
(-0.0790971 0.0011247 -7.98815e-20)
(0.00535532 -0.0435776 9.64429e-20)
(-0.0177327 0.060018 -1.63157e-20)
(-0.0462905 0.119905 -1.86828e-19)
(-0.078213 0.149733 1.68456e-20)
(-0.106756 0.162471 2.21376e-21)
(-0.130797 0.166128 2.92719e-20)
(-0.148335 0.164831 2.6663e-19)
(-0.157951 0.15989 -2.17996e-20)
(-0.158411 0.151233 1.49695e-19)
(-0.148661 0.138347 1.84762e-20)
(-0.127967 0.120778 1.19025e-20)
(-0.0953423 0.098054 -5.17341e-20)
(-0.0533884 0.0705802 1.25359e-19)
(0.00777071 0.0367971 3.13578e-19)
(0.0595171 0.000257408 -3.52237e-19)
(0.163518 -0.0461929 -1.21877e-19)
(-0.0190401 0.0621704 1.06869e-19)
(-0.0454228 0.127213 1.85827e-19)
(-0.0706736 0.16129 -5.00502e-20)
(-0.0910335 0.176479 -8.90197e-20)
(-0.105608 0.181063 -9.11878e-20)
(-0.112579 0.179609 1.18626e-20)
(-0.110558 0.173805 8.83099e-20)
(-0.0984174 0.163806 -2.91809e-19)
(-0.0752907 0.149219 -4.96524e-21)
(-0.0409338 0.129667 -9.40948e-20)
(0.0057919 0.104762 -2.37558e-19)
(0.0597078 0.0745272 2.46207e-19)
(0.136553 0.0396422 -3.41166e-19)
(0.192577 -0.00149186 1.81701e-19)
(0.318532 -0.0489558 1.26915e-19)
(-0.0201016 0.0622761 -5.80273e-20)
(-0.0445216 0.130824 6.97933e-20)
(-0.0633247 0.168636 -1.25618e-19)
(-0.0755059 0.18622 1.0915e-19)
(-0.0805165 0.191802 1.50029e-19)
(-0.0768576 0.190244 1.83261e-19)
(-0.063304 0.183599 -7.75421e-20)
(-0.0389399 0.172309 -6.12007e-20)
(-0.00316205 0.15616 2.97907e-19)
(0.0436809 0.134858 2.21977e-19)
(0.10316 0.108324 2.15139e-19)
(0.166769 0.0754613 -3.23946e-19)
(0.258747 0.0402225 9.64976e-20)
(0.316638 -0.00461817 9.32445e-20)
(0.466036 -0.0530866 -3.65676e-21)
(-0.0208594 0.0605866 -2.58921e-19)
(-0.0436225 0.130901 -3.35501e-19)
(-0.0564955 0.171683 1.26182e-19)
(-0.0608448 0.191434 1.73333e-19)
(-0.0565439 0.198007 -3.64387e-19)
(-0.0425627 0.196384 -1.77715e-20)
(-0.0179699 0.188942 -1.51573e-19)
(0.0178365 0.176436 3.76554e-19)
(0.0651746 0.158883 -1.71964e-19)
(0.123027 0.136042 -2.22654e-20)
(0.193838 0.10845 1.42425e-19)
(0.265665 0.0730116 3.64792e-19)
(0.371814 0.0382977 1.65125e-19)
(0.432835 -0.0102681 -1.31576e-19)
(0.606347 -0.0589852 -2.57515e-20)
(-0.0212972 0.0574448 1.79919e-19)
(-0.0427707 0.127772 2.40825e-19)
(-0.0504656 0.17052 -1.66136e-19)
(-0.0476232 0.192008 -5.72466e-19)
(-0.0345861 0.19944 -6.36666e-20)
(-0.0109014 0.197747 3.34488e-22)
(0.0239452 0.189564 2.03375e-19)
(0.0701711 0.175946 -4.68087e-19)
(0.127858 0.157181 -2.20699e-20)
(0.195447 0.132966 -2.65417e-19)
(0.276511 0.104925 -3.60181e-19)
(0.35714 0.0671171 -2.40781e-19)
(0.476689 0.0334305 2.34838e-20)
(0.545997 -0.0186685 -7.74359e-20)
(0.74227 -0.0657642 -2.49269e-19)
(-0.0214451 0.0532474 9.98684e-20)
(-0.0420121 0.121909 1.7416e-19)
(-0.0454367 0.165435 -7.98707e-20)
(-0.0362631 0.18801 -7.20765e-20)
(-0.0153129 0.196017 4.73219e-19)
(0.017234 0.19418 -4.97095e-19)
(0.0614091 0.185298 2.60106e-20)
(0.117054 0.170691 1.24012e-19)
(0.184155 0.150947 9.2482e-20)
(0.261077 0.125615 6.81477e-20)
(0.352379 0.0975209 1.21725e-19)
(0.444816 0.0581143 -9.35534e-20)
(0.577853 0.0256206 2.8588e-19)
(0.662755 -0.028869 2.32617e-19)
(0.874998 -0.0714907 1.522e-19)
(-0.0213769 0.0484123 4.32381e-20)
(-0.0413963 0.113898 -3.52521e-19)
(-0.0415026 0.156898 5.15034e-19)
(-0.0269673 0.179716 6.42786e-19)
(0.000950661 0.18786 -2.18751e-19)
(0.041459 0.185719 8.12161e-20)
(0.09414 0.176164 -2.10191e-19)
(0.158609 0.160726 -3.40217e-20)
(0.235029 0.140305 -4.22724e-19)
(0.322362 0.114346 9.52886e-20)
(0.425727 0.0864123 3.77692e-19)
(0.534632 0.0469789 -5.28014e-20)
(0.681605 0.0158451 1.26558e-19)
(0.787209 -0.038591 -5.2541e-20)
(1.00145 -0.0740856 1.12846e-20)
(-0.0212 0.0433428 -2.11596e-19)
(-0.040967 0.104388 -2.35891e-19)
(-0.0386256 0.145531 -5.62369e-19)
(-0.0196519 0.167629 -4.04516e-19)
(0.0143573 0.175349 -3.20807e-19)
(0.0621208 0.17268 3.70951e-19)
(0.122947 0.162492 7.48586e-20)
(0.19655 0.14647 1.68266e-19)
(0.283612 0.125835 1.00231e-19)
(0.384256 0.100086 -2.68658e-19)
(0.503241 0.0727714 -1.49659e-19)
(0.6327 0.0354615 4.4591e-20)
(0.792445 0.00612901 -5.46145e-19)
(0.91662 -0.0450288 1.25825e-19)
(1.1149 -0.0723785 -3.13881e-19)
(-0.0210396 0.038394 1.08509e-19)
(-0.0407441 0.0940332 8.22492e-19)
(-0.0366103 0.132077 4.16515e-19)
(-0.0138848 0.152467 1.94561e-19)
(0.0256621 0.159157 4.98214e-19)
(0.0805094 0.155741 -4.41179e-19)
(0.150018 0.14504 -1.85507e-19)
(0.234429 0.128908 -1.83461e-19)
(0.335172 0.108763 9.16622e-19)
(0.453319 0.0844765 3.07457e-19)
(0.591578 0.0587449 -2.45692e-19)
(0.741978 0.025832 1.3583e-19)
(0.909273 -0.0011239 -1.80107e-19)
(1.0414 -0.0462765 1.90465e-19)
(1.20832 -0.0666368 8.61852e-20)
(-0.0210179 0.0338483 -1.04805e-20)
(-0.0406979 0.0834394 -4.38194e-19)
(-0.0350787 0.117337 -3.96999e-19)
(-0.00884343 0.135128 -1.37675e-19)
(0.0363014 0.140251 -2.44216e-19)
(0.0989644 0.13597 2.54238e-19)
(0.178978 0.125071 1.26734e-19)
(0.277382 0.109588 -1.92585e-19)
(0.396046 0.090983 -2.99771e-21)
(0.535492 0.0697625 -1.60133e-19)
(0.693869 0.0469457 3.67279e-20)
(0.859609 0.0201356 5.15833e-20)
(1.02457 -0.00429503 4.7628e-20)
(1.1501 -0.0421626 1.13294e-19)
(1.27785 -0.0582345 -3.05299e-19)
(-0.0212309 0.0298975 -2.15482e-19)
(-0.0407225 0.0731179 1.76509e-19)
(-0.0334564 0.102108 1.65791e-19)
(-0.0033127 0.11662 2.12028e-20)
(0.0483689 0.119825 1.66778e-19)
(0.120751 0.114775 -2.28792e-19)
(0.214445 0.104273 2.41841e-19)
(0.331063 0.090516 4.37533e-20)
(0.471564 0.0748655 -2.90564e-19)
(0.633209 0.0582665 8.95787e-21)
(0.807271 0.0395531 -3.02602e-19)
(0.977201 0.0193252 2.76682e-19)
(1.12799 -0.00324272 3.93678e-20)
(1.23508 -0.0338462 6.13705e-20)
(1.32405 -0.0488462 3.02218e-19)
(-0.0217263 0.0266346 6.01329e-19)
(-0.0406142 0.0634498 -2.3552e-19)
(-0.0309806 0.0871096 -1.24841e-19)
(0.00425202 0.0979671 -1.53004e-19)
(0.0644376 0.0991879 -4.17143e-19)
(0.149622 0.0937725 -1.38106e-19)
(0.261102 0.0845799 2.79301e-19)
(0.39991 0.0738934 -1.85392e-19)
(0.563705 0.0626687 -7.53464e-19)
(0.743567 0.0516439 2.83116e-19)
(0.923563 0.0375113 6.9463e-20)
(1.08442 0.0229175 -1.82767e-19)
(1.21167 0.00109655 1.04679e-19)
(1.29465 -0.0227424 -1.01315e-19)
(1.35065 -0.0398664 1.21842e-19)
(-0.0224866 0.0240542 -9.81084e-20)
(-0.0400641 0.0546664 3.09748e-19)
(-0.0267425 0.0729278 3.44773e-19)
(0.0155845 0.0801068 2.64876e-19)
(0.0872281 0.0796204 4.08842e-19)
(0.189137 0.0745711 3.66622e-19)
(0.322466 0.0678697 -4.18817e-19)
(0.485495 0.0616151 5.93189e-19)
(0.669791 0.0558745 4.7888e-19)
(0.858958 0.0503549 -4.5554e-19)
(1.03265 0.0403528 3.53161e-19)
(1.17349 0.0294625 -9.46123e-20)
(1.27301 0.00769817 -1.73788e-19)
(1.3316 -0.00988878 -2.33458e-19)
(1.36234 -0.0323829 -1.13135e-19)
(-0.023422 0.0220643 -2.68047e-19)
(-0.038671 0.0468468 5.29955e-19)
(-0.019763 0.0599699 -2.92345e-20)
(0.0324078 0.0637961 5.42042e-20)
(0.119182 0.0622206 -7.45524e-20)
(0.241897 0.0585609 -6.16067e-21)
(0.399817 0.0556472 3.54523e-19)
(0.585656 0.0548429 -2.77451e-19)
(0.783088 0.0547869 2.83991e-19)
(0.969978 0.0537077 3.65133e-19)
(1.12653 0.0466973 -2.38611e-19)
(1.24145 0.0374344 1.8975e-19)
(1.31402 0.016056 -7.21423e-20)
(1.35084 0.00360439 1.75038e-19)
(1.36328 -0.0275549 8.03098e-20)
(-0.024376 0.0205097 -3.74515e-19)
(-0.0359691 0.039933 4.03396e-20)
(-0.00908394 0.0484474 1.40656e-19)
(0.0562275 0.0495573 -2.27241e-19)
(0.162079 0.0478144 -2.59779e-19)
(0.308962 0.0467726 1.59734e-19)
(0.491681 0.0488034 -3.03296e-19)
(0.69492 0.0537884 2.41558e-19)
(0.895098 0.05863 -1.03105e-19)
(1.06877 0.060385 -3.9132e-19)
(1.2014 0.0549966 -2.27096e-19)
(1.28948 0.0458921 3.33165e-19)
(1.33883 0.0258886 -1.41292e-19)
(1.35808 0.0155605 -8.38319e-20)
(1.35681 -0.0264988 -1.40508e-19)
(-0.0251487 0.0192057 7.35031e-19)
(-0.0314606 0.0337578 -9.03085e-19)
(0.00615175 0.0383939 -2.06207e-19)
(0.088178 0.0376811 -1.21433e-19)
(0.216788 0.0369426 7.54701e-20)
(0.389597 0.0398119 -3.02482e-19)
(0.594065 0.0475177 1.76756e-19)
(0.806077 0.0577969 8.86382e-20)
(0.998257 0.0660572 -6.04415e-19)
(1.15092 0.0690352 5.02396e-19)
(1.25726 0.0640711 1.34354e-19)
(1.32092 0.0545354 -3.58598e-19)
(1.35156 0.0362405 2.06631e-19)
(1.35805 0.0237314 1.3235e-19)
(1.35267 -0.00554951 3.09619e-20)
(-0.0255209 0.0179629 -4.94692e-19)
(-0.0246515 0.0280898 8.20659e-19)
(0.0266527 0.029722 7.9882e-20)
(0.128955 0.0282899 -2.9388e-19)
(0.283191 0.0299203 3.63281e-19)
(0.481363 0.0378655 -2.21312e-19)
(0.701368 0.0513208 2.43827e-20)
(0.912173 0.0656998 -2.8864e-19)
(1.08764 0.0757057 5.30647e-19)
(1.21539 0.0786112 -2.38535e-19)
(1.29644 0.0732783 6.67617e-20)
(1.33957 0.0632535 -1.03016e-19)
(1.3559 0.0456453 -9.9765e-21)
(1.3547 0.0345366 1.43195e-20)
(1.34507 0.0059534 3.13755e-20)
(-0.025265 0.0166066 1.05924e-19)
(-0.0150811 0.0226963 -4.855e-19)
(0.0529684 0.0223029 -4.24562e-19)
(0.178817 0.0214425 1.128e-19)
(0.360207 0.0269163 -2.94617e-19)
(0.580497 0.0407343 -2.73952e-19)
(0.807653 0.0593044 8.68473e-20)
(1.008 0.0762374 4.12957e-19)
(1.16123 0.0865065 1.36698e-19)
(1.26347 0.0884522 -2.713e-19)
(1.32215 0.0823555 -7.44845e-20)
(1.34891 0.0716584 3.84907e-20)
(1.35513 0.055187 2.14808e-19)
(1.34864 0.0434539 -4.78549e-20)
(1.33711 0.0187024 -5.63619e-20)
(-0.0241546 0.0150018 -5.81189e-20)
(-0.00232933 0.0174002 6.3647e-19)
(0.0855033 0.016051 2.99132e-19)
(0.237609 0.0172373 1.05937e-19)
(0.445879 0.0279885 2.08955e-19)
(0.682529 0.0478946 4.06327e-19)
(0.907815 0.070399 1.91489e-19)
(1.09063 0.0883424 -4.26928e-19)
(1.2192 0.0977439 -2.72055e-19)
(1.29758 0.0982142 4.68324e-19)
(1.33756 0.0911477 -4.60201e-20)
(1.35192 0.0799398 -3.11932e-20)
(1.35106 0.0641091 -2.73034e-19)
(1.34147 0.0526951 -3.48389e-20)
(1.32903 0.029809 2.4436e-19)
(-0.0219771 0.0130728 -9.98289e-20)
(0.0139877 0.0121202 -8.0311e-19)
(0.124534 0.010997 -6.05609e-20)
(0.304754 0.0158688 -1.70478e-19)
(0.537518 0.0330577 -4.62468e-19)
(0.783015 0.0586105 1.55397e-19)
(0.998263 0.0836056 -3.8212e-19)
(1.15912 0.101233 1.74962e-19)
(1.26306 0.108996 -1.54827e-20)
(1.32042 0.10774 -2.64416e-19)
(1.34546 0.0996934 1.71225e-19)
(1.35071 0.0879981 -8.77453e-20)
(1.34515 0.0729142 1.11685e-19)
(1.33373 0.0613253 1.84561e-19)
(1.32079 0.0402845 -3.613e-20)
(-0.0185385 0.0108065 -1.85013e-22)
(0.0342201 0.00689405 1.33356e-19)
(0.170201 0.00733256 1.27848e-19)
(0.37921 0.0176043 -1.2174e-20)
(0.631965 0.041869 6.53054e-20)
(0.878175 0.0720778 -4.91057e-19)
(1.07703 0.0981136 1.16677e-19)
(1.21396 0.114392 -7.57085e-20)
(1.2949 0.120048 5.91602e-20)
(1.33457 0.117009 1.49397e-19)
(1.34807 0.108028 -1.81216e-19)
(1.34685 0.0959784 4.56848e-20)
(1.33823 0.0814456 4.02564e-20)
(1.32577 0.0698014 -4.95421e-20)
(1.31277 0.0503293 3.37429e-20)
(-0.0136625 0.00824688 2.30779e-19)
(0.0586787 0.00188582 4.08808e-19)
(0.22246 0.00541495 6.25525e-20)
(0.459434 0.0226895 -1.51415e-19)
(0.725969 0.0540001 4.43824e-19)
(0.965266 0.0875461 2.97589e-19)
(1.1435 0.113324 -1.07863e-19)
(1.25645 0.127507 4.2767e-21)
(1.31694 0.130822 -1.03828e-19)
(1.34223 0.126059 2.93488e-20)
(1.34708 0.116244 2.42144e-20)
(1.34136 0.1039 -1.03501e-19)
(1.3308 0.0898615 -2.13053e-19)
(1.31783 0.0780547 1.32534e-19)
(1.30483 0.059886 -1.97649e-19)
(-0.00718749 0.0054845 -2.51563e-19)
(0.0876175 -0.00262156 -1.32987e-19)
(0.281008 0.00572119 -3.56109e-19)
(0.543431 0.0312407 5.65475e-19)
(0.816585 0.0689279 -4.94163e-19)
(1.04264 0.104386 2.0239e-19)
(1.19803 0.128824 1.26723e-19)
(1.28827 0.140417 1.40909e-19)
(1.33123 0.141327 8.80938e-20)
(1.34517 0.134965 -1.76017e-20)
(1.34367 0.12441 -8.72971e-20)
(1.3349 0.111832 -2.05857e-19)
(1.32313 0.0981592 1.0747e-19)
(1.30992 0.0861602 1.00394e-19)
(1.29705 0.0691657 2.11399e-19)
(0.00103385 0.00264552 -2.23774e-19)
(0.121205 -0.00624353 1.09644e-19)
(0.345202 0.00876026 1.13729e-19)
(0.628923 0.0431885 -2.47047e-19)
(0.901461 0.0861116 9.64788e-20)
(1.10962 0.122105 -8.60315e-20)
(1.24156 0.144351 -1.31873e-19)
(1.31118 0.153063 -1.5044e-19)
(1.33954 0.151617 5.61242e-20)
(1.34473 0.143805 1.73166e-19)
(1.33868 0.132592 2.50853e-19)
(1.32787 0.1198 9.65518e-20)
(1.31536 0.106381 -6.37089e-20)
(1.30209 0.0941455 -6.78696e-20)
(1.28936 0.0781283 -5.5874e-20)
(0.0111333 -0.000116748 2.1579e-19)
(0.159487 -0.00851873 -1.08556e-19)
(0.41403 0.0149681 6.26187e-20)
(0.713603 0.0582968 3.57416e-19)
(0.978963 0.105054 3.43149e-19)
(1.16623 0.140341 -3.20561e-19)
(1.27535 0.159754 1.57673e-19)
(1.32682 0.165453 1.84075e-19)
(1.34334 0.161768 -3.15523e-19)
(1.34192 0.152649 6.52962e-20)
(1.33264 0.140832 -1.44772e-19)
(1.32048 0.127823 2.30342e-20)
(1.30754 0.114535 -7.30218e-20)
(1.2943 0.102022 1.30128e-19)
(1.28173 0.0868523 -1.40293e-19)
(0.0232217 -0.00262683 -1.94473e-19)
(0.202341 -0.00894142 1.33309e-19)
(0.486146 0.0246246 1.80468e-19)
(0.795377 0.0762252 -4.70627e-20)
(1.04814 0.125329 -4.32074e-19)
(1.21299 0.158837 -1.54024e-19)
(1.30074 0.174965 -2.42705e-19)
(1.33664 0.177634 1.04759e-19)
(1.34374 0.171854 -1.4622e-20)
(1.33741 0.16155 -1.68318e-19)
(1.3259 0.149156 -1.56081e-19)
(1.31286 0.135903 2.8967e-20)
(1.29966 0.122626 5.85712e-20)
(1.28651 0.109805 -1.20479e-19)
(1.2741 0.0953317 5.99243e-20)
(0.0373816 -0.0046894 8.31071e-20)
(0.249446 -0.00700293 1.77034e-21)
(0.559978 0.0378206 -5.41893e-19)
(0.872534 0.0965945 -3.91969e-20)
(1.10859 0.14659 3.08472e-19)
(1.2507 0.177421 3.13797e-19)
(1.31901 0.189968 2.16426e-19)
(1.34185 0.189666 -4.04503e-20)
(1.34161 0.181942 6.71947e-20)
(1.3317 0.170545 -2.51474e-21)
(1.31863 0.157575 1.24092e-19)
(1.30503 0.144033 4.87185e-20)
(1.2917 0.13065 1.05536e-19)
(1.27869 0.117492 -7.99474e-20)
(1.26643 0.103587 -6.00915e-20)
(0.0536574 -0.00609046 -1.44332e-20)
(0.300264 -0.0022391 1.51988e-19)
(0.633874 0.0544757 2.84078e-19)
(0.943813 0.119031 9.60096e-20)
(1.16037 0.168557 -2.76492e-19)
(1.28029 0.195985 -3.48581e-19)
(1.33134 0.204782 1.43708e-19)
(1.34345 0.201613 -8.81807e-20)
(1.33756 0.192082 2.52098e-19)
(1.32507 0.179648 7.20435e-21)
(1.31096 0.166083 -6.45958e-20)
(1.29701 0.152194 -2.50228e-20)
(1.28363 0.138597 1.20781e-19)
(1.27079 0.125082 1.06451e-19)
(1.25868 0.111612 1.1358e-19)
(0.0720435 -0.00660003 2.16558e-19)
(0.35405 0.00572411 -2.3485e-19)
(0.706244 0.0743837 1.48474e-19)
(1.00838 0.143185 2.10163e-19)
(1.2038 0.191007 1.82995e-19)
(1.30272 0.214463 7.43788e-20)
(1.33876 0.219439 4.00058e-20)
(1.34219 0.213531 -1.59924e-20)
(1.33204 0.202304 -1.15855e-19)
(1.31771 0.188862 4.42941e-20)
(1.30291 0.174665 1.07268e-19)
(1.28876 0.160364 4.39542e-20)
(1.27541 0.146455 -4.22891e-20)
(1.26277 0.132565 -4.46052e-20)
(1.2508 0.119407 -5.42674e-20)
(0.0924724 -0.00597891 -1.16699e-19)
(0.409891 0.0171376 8.45554e-20)
(0.775677 0.0972591 -9.89464e-21)
(1.06577 0.168742 -2.20757e-19)
(1.23938 0.213766 -5.85263e-20)
(1.3189 0.232823 1.31246e-19)
(1.34213 0.233979 -1.18664e-19)
(1.33865 0.225459 8.24088e-21)
(1.32534 0.212619 -7.424e-21)
(1.30974 0.198172 -4.04499e-20)
(1.2945 0.183295 -6.77265e-20)
(1.28026 0.168515 -9.77762e-20)
(1.26701 0.154207 -3.86609e-20)
(1.25458 0.139929 6.6349e-20)
(1.24277 0.126959 1.60808e-20)
(0.114805 -0.00399 -1.4908e-19)
(0.466763 0.0321153 -1.92148e-20)
(0.841 0.122774 -9.6701e-20)
(1.11581 0.195413 9.09824e-20)
(1.2677 0.236691 -1.07749e-19)
(1.32967 0.251043 -4.74856e-20)
(1.34214 0.248431 1.2516e-20)
(1.33326 0.237418 -1.8954e-20)
(1.31765 0.223021 3.89071e-20)
(1.3012 0.207552 5.49072e-22)
(1.28571 0.191943 2.82248e-20)
(1.27148 0.176617 4.91188e-20)
(1.25837 0.161834 5.76366e-20)
(1.24619 0.147157 -2.57057e-20)
(1.23455 0.134254 -1.95227e-20)
(0.138827 -0.000413166 8.91613e-20)
(0.523589 0.0506384 9.52068e-20)
(0.9013 0.15058 3.33648e-20)
(1.15853 0.222932 -5.32197e-20)
(1.28938 0.259663 1.19259e-20)
(1.33575 0.269113 8.29772e-20)
(1.33933 0.262814 -5.7552e-20)
(1.32632 0.249413 -5.09705e-20)
(1.30908 0.233488 -1.61714e-20)
(1.2921 0.216967 1.08999e-20)
(1.27652 0.200569 -6.04014e-20)
(1.26239 0.184633 1.33447e-20)
(1.24948 0.169315 3.54257e-20)
(1.23758 0.154227 -1.38102e-20)
(1.22614 0.141275 -1.1702e-20)
(0.164248 0.00493907 -5.86222e-20)
(0.579303 0.0725708 -4.05063e-20)
(0.955917 0.180323 -7.91134e-20)
(1.1941 0.251049 -1.28543e-20)
(1.30505 0.28258 -8.43156e-21)
(1.33778 0.287015 -9.01852e-20)
(1.33415 0.277131 2.89008e-20)
(1.31803 0.261426 1.76797e-20)
(1.29971 0.243986 -3.02007e-20)
(1.28245 0.226374 -1.85753e-20)
(1.2669 0.209133 -8.3938e-22)
(1.25294 0.192528 -1.83712e-20)
(1.2403 0.176624 -2.88642e-20)
(1.22872 0.161111 -2.61226e-20)
(1.21752 0.147999 1.87074e-20)
(0.190715 0.012208 -2.68468e-20)
(0.632903 0.0976792 9.88308e-21)
(1.00441 0.211649 1.3435e-20)
(1.22282 0.279532 1.39665e-20)
(1.31527 0.305343 2.40284e-20)
(1.33628 0.304729 1.71553e-20)
(1.3269 0.291368 -4.86577e-21)
(1.30855 0.273426 1.72028e-20)
(1.28956 0.254467 -8.88949e-22)
(1.27222 0.235722 -5.79851e-23)
(1.25682 0.217588 7.3999e-21)
(1.24312 0.200261 -3.46708e-21)
(1.2308 0.183729 2.46315e-21)
(1.21959 0.167767 1.02187e-20)
(1.20873 0.154402 -8.47121e-21)
(0.217818 0.0214799 -1.6972e-20)
(0.683484 0.125653 -4.4287e-21)
(1.04653 0.244209 1.97364e-20)
(1.245 0.308158 8.67673e-21)
(1.32059 0.327861 2.43732e-20)
(1.33167 0.32222 1.66215e-20)
(1.31783 0.305493 -5.84441e-22)
(1.29796 0.285365 2.0278e-20)
(1.27864 0.264875 -1.02283e-20)
(1.26141 0.244958 1.09399e-21)
(1.24626 0.225885 6.8829e-21)
(1.23289 0.207793 -3.24875e-21)
(1.22097 0.190592 3.12004e-21)
(1.21019 0.174146 1.15096e-20)
(1.19974 0.160456 -4.29773e-21)
(0.24511 0.0327819 -2.43279e-20)
(0.730265 0.15612 -6.97806e-20)
(1.08216 0.277654 -7.8566e-20)
(1.26104 0.336713 -2.9208e-21)
(1.32147 0.350037 -1.17042e-20)
(1.32431 0.33944 -8.21857e-20)
(1.30713 0.319457 4.11466e-20)
(1.2863 0.297183 4.62805e-21)
(1.26695 0.275148 -2.69054e-20)
(1.24998 0.254022 -2.41341e-20)
(1.2352 0.233975 3.60886e-21)
(1.22223 0.215081 -1.43966e-20)
(1.21077 0.197177 -1.57533e-20)
(1.20047 0.180203 -2.20623e-20)
(1.19047 0.166142 1.3746e-20)
(0.27212 0.046084 9.18622e-20)
(0.7726 0.188665 6.75307e-20)
(1.11133 0.311639 2.84885e-20)
(1.27132 0.364995 -4.04949e-20)
(1.31834 0.37177 1.89154e-20)
(1.31448 0.356329 4.34741e-20)
(1.29491 0.333196 -3.46211e-20)
(1.27363 0.30881 -6.7922e-20)
(1.25449 0.285216 -6.13642e-21)
(1.23792 0.262855 3.98945e-20)
(1.2236 0.241806 -4.82664e-20)
(1.21113 0.222084 2.06045e-20)
(1.20019 0.203454 9.60642e-21)
(1.19042 0.18593 1.101e-21)
(1.18078 0.17145 6.71586e-22)
(0.298373 0.0613024 -1.10995e-19)
(0.809993 0.22284 -7.03767e-20)
(1.13412 0.345823 -1.10584e-19)
(1.2762 0.392809 9.78026e-20)
(1.31156 0.392958 -1.03924e-19)
(1.3024 0.372811 -2.51579e-20)
(1.28127 0.346634 -2.18118e-21)
(1.25996 0.320165 1.189e-21)
(1.24125 0.295005 5.13079e-20)
(1.22522 0.271392 -5.66199e-20)
(1.21147 0.249325 4.5427e-20)
(1.19957 0.228756 1.89196e-20)
(1.18925 0.209391 4.75314e-20)
(1.18004 0.191362 -2.37079e-21)
(1.17063 0.176389 -1.45284e-20)
(0.323404 0.0783019 1.61887e-20)
(0.84209 0.258187 2.0533e-20)
(1.15069 0.379869 -3.79227e-20)
(1.27608 0.419962 -1.48409e-19)
(1.30146 0.413488 -3.72255e-20)
(1.28827 0.388799 9.89292e-20)
(1.26629 0.359681 -7.76515e-20)
(1.2453 0.331163 -3.86669e-20)
(1.22723 0.304441 1.18833e-20)
(1.21187 0.27957 -1.32349e-20)
(1.19879 0.256477 -7.06255e-20)
(1.18755 0.235049 -3.55842e-20)
(1.17792 0.214942 -2.83265e-21)
(1.16934 0.196525 1.01451e-20)
(1.16021 0.180996 7.97856e-21)
(0.346774 0.0968998 2.12736e-19)
(0.868664 0.294246 -2.67734e-19)
(1.16125 0.413448 1.81371e-19)
(1.27129 0.446265 9.27805e-20)
(1.28832 0.433242 2.67274e-19)
(1.27223 0.404193 7.83311e-21)
(1.25001 0.372242 6.75839e-20)
(1.22966 0.341713 1.91083e-20)
(1.2124 0.313441 -1.22859e-19)
(1.19787 0.28732 4.41379e-20)
(1.18558 0.263206 3.32048e-20)
(1.17511 0.240924 4.9821e-20)
(1.16624 0.220079 -4.8531e-20)
(1.15824 0.201308 -1.31562e-20)
(1.14967 0.1852 -1.74861e-21)
(0.368084 0.116871 -2.83525e-20)
(0.889593 0.330563 3.12179e-19)
(1.16603 0.446239 2.36898e-19)
(1.26218 0.471525 4.06672e-20)
(1.27239 0.452095 -2.51514e-19)
(1.25441 0.418886 -1.53315e-19)
(1.23249 0.384214 4.97788e-20)
(1.21306 0.351722 -3.03222e-20)
(1.1968 0.321915 6.79085e-20)
(1.18327 0.294574 1.59068e-20)
(1.17186 0.269454 1.51168e-20)
(1.16224 0.246323 -2.71302e-20)
(1.15418 0.224803 1.28161e-20)
(1.14678 0.205677 5.08435e-20)
(1.13895 0.188961 5.22011e-20)
(0.386984 0.137955 2.39076e-19)
(0.904845 0.366693 -2.57432e-19)
(1.16533 0.477934 -3.94788e-19)
(1.24908 0.495556 3.03412e-20)
(1.25389 0.469918 2.04724e-19)
(1.23491 0.432764 1.96492e-19)
(1.21376 0.395488 1.00813e-19)
(1.19554 0.361097 6.55584e-21)
(1.18048 0.329783 1.72644e-20)
(1.16804 0.301249 4.23669e-21)
(1.15761 0.275175 4.69734e-20)
(1.14893 0.251215 1.00312e-20)
(1.14174 0.229058 2.92008e-21)
(1.13502 0.209584 -1.44425e-20)
(1.12802 0.192255 -1.82591e-20)
(0.403178 0.159863 -3.08604e-19)
(0.914472 0.402206 2.37368e-19)
(1.15942 0.508235 2.06834e-19)
(1.23227 0.518174 -1.40989e-19)
(1.23302 0.486577 -2.93368e-19)
(1.21383 0.445702 -5.93309e-20)
(1.19393 0.405951 -1.41509e-19)
(1.17715 0.369728 5.55308e-20)
(1.16343 0.336981 -1.05449e-20)
(1.15219 0.307295 -4.57971e-20)
(1.14287 0.280296 -1.90793e-20)
(1.13521 0.255556 -3.53445e-21)
(1.12894 0.232812 -1.76571e-20)
(1.12298 0.212998 -7.94216e-21)
(1.11688 0.195065 -3.93123e-21)
(0.416434 0.182283 4.41024e-19)
(0.918589 0.436688 -2.82913e-19)
(1.14864 0.536858 1.51598e-19)
(1.21207 0.5392 1.43611e-19)
(1.20995 0.501931 2.49378e-19)
(1.19134 0.457573 -1.56791e-19)
(1.17304 0.415486 5.87071e-20)
(1.15789 0.377533 6.05766e-20)
(1.14568 0.343419 -5.23507e-20)
(1.13577 0.312644 -1.35295e-20)
(1.12766 0.28477 -2.13308e-22)
(1.1211 0.259303 -1.01708e-20)
(1.11581 0.236023 -2.77779e-20)
(1.11068 0.215888 1.57007e-20)
(1.10554 0.197383 -2.38393e-20)
(0.42658 0.204889 -2.44031e-19)
(0.917373 0.469743 1.522e-20)
(1.1333 0.563538 1.0062e-19)
(1.18875 0.558462 -2.15968e-19)
(1.18491 0.515836 8.78194e-20)
(1.16752 0.468249 1.50949e-20)
(1.1511 0.423992 -7.45089e-20)
(1.13781 0.384411 -3.06661e-20)
(1.12726 0.349019 1.18138e-20)
(1.11881 0.31723 4.13167e-20)
(1.11201 0.288543 4.12241e-20)
(1.10664 0.262416 2.14757e-20)
(1.10238 0.238657 1.3861e-21)
(1.09812 0.218225 -2.08736e-20)
(1.09403 0.199201 3.71874e-21)
(0.433507 0.227348 4.67286e-20)
(0.911055 0.500997 -2.55146e-19)
(1.11377 0.588023 -3.31366e-19)
(1.16259 0.575781 2.57503e-19)
(1.15807 0.528167 -1.46662e-19)
(1.14242 0.4776 7.95117e-20)
(1.12821 0.431357 5.47765e-20)
(1.11697 0.390273 2.99359e-20)
(1.10823 0.353706 3.03157e-20)
(1.10137 0.320991 8.10077e-22)
(1.09598 0.291568 -2.29753e-20)
(1.09186 0.264855 -2.36337e-20)
(1.08867 0.240681 2.4303e-22)
(1.08535 0.219983 4.47087e-21)
(1.08238 0.200514 3.86795e-21)
(0.437174 0.249329 1.87271e-19)
(0.899941 0.530112 4.81123e-19)
(1.09032 0.610061 -8.60651e-20)
(1.13386 0.590987 -1.61785e-19)
(1.12961 0.538784 2.68244e-19)
(1.11618 0.485514 8.62737e-20)
(1.10444 0.437475 5.68348e-21)
(1.09544 0.395032 -2.59262e-20)
(1.08864 0.357406 6.12762e-21)
(1.08349 0.323867 -2.5733e-20)
(1.0796 0.293796 7.43524e-21)
(1.0768 0.266582 1.53407e-21)
(1.07473 0.242063 -2.45696e-21)
(1.07239 0.221135 -2.82362e-22)
(1.07062 0.201316 5.94605e-21)
(0.437621 0.270498 -8.29617e-20)
(0.884406 0.556831 1.87498e-19)
(1.06317 0.629373 1.61602e-19)
(1.10284 0.60391 -7.42535e-20)
(1.09969 0.547555 -3.95959e-20)
(1.08892 0.49188 -7.40695e-20)
(1.07989 0.442248 9.49334e-21)
(1.07329 0.398604 -2.50776e-20)
(1.06857 0.360053 -2.08573e-21)
(1.06523 0.325802 7.3305e-21)
(1.06292 0.295182 -1.47951e-22)
(1.06151 0.267561 -1.87855e-21)
(1.0606 0.242772 -8.02966e-21)
(1.05929 0.221648 1.79989e-20)
(1.05878 0.201592 -1.30367e-20)
(0.434961 0.290505 -1.67303e-19)
(0.864792 0.580965 -6.21262e-19)
(1.03262 0.645762 2.14645e-20)
(1.06982 0.614327 -9.51227e-20)
(1.0685 0.554363 -1.83807e-19)
(1.06075 0.496595 5.7084e-20)
(1.05466 0.445585 -5.04271e-20)
(1.0506 0.400915 8.86487e-21)
(1.04808 0.361584 5.51422e-21)
(1.04665 0.326744 4.42758e-22)
(1.04602 0.295684 -2.41391e-21)
(1.04604 0.26776 -5.16669e-21)
(1.04632 0.242779 -3.83243e-21)
(1.04608 0.221488 -5.54969e-21)
(1.04686 0.201332 6.82201e-21)
(0.429333 0.30898 1.43604e-20)
(0.841205 0.602143 3.29726e-19)
(0.999265 0.659265 1.47055e-19)
(1.03512 0.622072 8.49816e-20)
(1.03623 0.55908 5.9895e-20)
(1.03183 0.499563 3.22967e-20)
(1.02884 0.447404 1.62734e-20)
(1.02747 0.401896 -2.97566e-22)
(1.02726 0.361942 2.53966e-20)
(1.02782 0.326646 -3.23999e-20)
(1.02894 0.295265 -4.71658e-21)
(1.03045 0.267152 4.41225e-21)
(1.03195 0.242058 3.86541e-20)
(1.0328 0.220622 1.29508e-20)
(1.03493 0.200529 -3.91992e-20)
(0.420829 0.325678 1.00751e-19)
(0.813787 0.619873 -3.53115e-19)
(0.963618 0.669739 -3.62053e-20)
(0.999006 0.627134 -6.95792e-20)
(1.00307 0.561605 -1.10791e-20)
(1.00228 0.500696 -1.84706e-20)
(1.00256 0.447634 -8.03573e-21)
(1.00399 0.401486 -1.74596e-20)
(1.00618 0.361076 -9.4175e-21)
(1.00883 0.325465 2.46135e-20)
(1.01176 0.293891 -2.66644e-20)
(1.0148 0.265712 3.74718e-20)
(1.01752 0.240597 -3.35119e-20)
(1.01957 0.219032 1.24325e-20)
(1.02322 0.199172 3.7008e-20)
(0.40958 0.340406 -2.77262e-19)
(0.783092 0.633963 4.19348e-19)
(0.925983 0.676941 -2.95529e-21)
(0.961741 0.62947 -3.35451e-20)
(0.969218 0.561863 1.97248e-20)
(0.972261 0.499916 -1.61408e-21)
(0.97594 0.446211 2.26093e-20)
(0.98026 0.399633 4.15517e-20)
(0.984934 0.358942 -9.57026e-20)
(0.989739 0.323163 3.10142e-20)
(0.994539 0.291526 6.29326e-21)
(0.99912 0.263404 -5.49585e-20)
(1.00314 0.238365 4.7056e-20)
(1.00665 0.216716 -1.48122e-20)
(1.01211 0.197285 1.94156e-20)
(0.39575 0.352922 3.47348e-19)
(0.749695 0.644316 -3.02519e-19)
(0.886674 0.680693 -5.86697e-20)
(0.923579 0.629004 2.72575e-20)
(0.934861 0.559789 -1.55292e-20)
(0.941915 0.49716 3.43741e-20)
(0.9491 0.443082 -4.9513e-20)
(0.956395 0.396293 4.89092e-20)
(0.963617 0.355504 6.2137e-20)
(0.970628 0.319711 -9.92372e-20)
(0.977322 0.288139 2.77113e-20)
(0.983464 0.260176 -1.30249e-20)
(0.988926 0.235269 -3.30305e-21)
(0.994319 0.213581 -5.38587e-20)
(1.00172 0.195076 -2.83928e-20)
(0.379582 0.362965 -1.14952e-19)
(0.714052 0.650777 7.21717e-20)
(0.846031 0.680897 1.60002e-20)
(0.88478 0.625668 2.37173e-20)
(0.900199 0.555329 4.38491e-20)
(0.911404 0.492378 -4.739e-20)
(0.922174 0.438205 7.73274e-20)
(0.932505 0.391433 -6.43892e-20)
(0.942323 0.350736 8.27962e-20)
(0.951572 0.31509 8.8502e-20)
(0.960164 0.283718 -1.7998e-20)
(0.96789 0.255999 1.38768e-20)
(0.974974 0.231211 -1.91454e-20)
(0.982579 0.209265 1.06667e-20)
(0.991418 0.192272 2.06186e-20)
(0.361406 0.370381 -1.70531e-20)