/*--------------------------------*- C++ -*----------------------------------*\
  =========                 |
  \\      /  F ield         | OpenFOAM: The Open Source CFD Toolbox
   \\    /   O peration     | Website:  https://openfoam.org
    \\  /    A nd           | Version:  7
     \\/     M anipulation  |
\*---------------------------------------------------------------------------*/
FoamFile
{
    version     2.0;
    format      ascii;
    class       volVectorField;
    location    "84.999";
    object      U;
}
// * * * * * * * * * * * * * * * * * * * * * * * * * * * * * * * * * * * * * //

dimensions      [0 1 -1 0 0 0 0];

internalField   nonuniform List<vector> 
3700
(
(1.24386 -0.0172476 0)
(1.27387 -0.0221104 0)
(1.28276 -0.0281944 0)
(1.28226 -0.032077 0)
(1.27827 -0.0345867 0)
(1.27309 -0.0362726 0)
(1.26759 -0.037336 0)
(1.26216 -0.0378664 0)
(1.25699 -0.0379436 0)
(1.25214 -0.0376401 0)
(1.24759 -0.0370148 0)
(1.24331 -0.0361149 0)
(1.23926 -0.0349806 0)
(1.23543 -0.0336466 0)
(1.2318 -0.0321436 0)
(1.22838 -0.0304985 0)
(1.22516 -0.028735 0)
(1.22216 -0.0268732 0)
(1.21937 -0.0249304 0)
(1.2168 -0.0229214 0)
(1.21445 -0.0208585 0)
(1.21233 -0.0187521 0)
(1.21044 -0.0166109 0)
(1.20877 -0.014442 0)
(1.20735 -0.0122514 0)
(1.20615 -0.010044 0)
(1.2052 -0.00782431 0)
(1.20448 -0.00559492 0)
(1.204 -0.00335784 0)
(1.20377 -0.00112265 0)
(1.2321 -0.00985493 0)
(1.26561 -0.0147324 0)
(1.27724 -0.021886 0)
(1.27847 -0.0261756 0)
(1.27565 -0.0290717 0)
(1.27134 -0.0311218 0)
(1.26654 -0.0325104 0)
(1.26169 -0.0333331 0)
(1.257 -0.0336784 0)
(1.25255 -0.0336253 0)
(1.24834 -0.033237 0)
(1.24436 -0.0325641 0)
(1.24056 -0.031649 0)
(1.23694 -0.030528 0)
(1.23349 -0.0292332 0)
(1.23022 -0.0277922 0)
(1.22712 -0.0262292 0)
(1.22422 -0.0245648 0)
(1.22152 -0.0228168 0)
(1.21901 -0.0209999 0)
(1.21672 -0.0191269 0)
(1.21465 -0.0172083 0)
(1.21279 -0.0152531 0)
(1.21116 -0.0132686 0)
(1.20975 -0.0112609 0)
(1.20858 -0.00923525 0)
(1.20763 -0.00719622 0)
(1.20692 -0.00514681 0)
(1.20645 -0.00308951 0)
(1.20622 -0.00103235 0)
(1.21965 -0.00360016 0)
(1.25675 -0.00900412 0)
(1.27111 -0.0168846 0)
(1.27415 -0.0213647 0)
(1.27257 -0.02451 0)
(1.26919 -0.0267996 0)
(1.26514 -0.0283965 0)
(1.2609 -0.0294082 0)
(1.25672 -0.0299326 0)
(1.25269 -0.0300532 0)
(1.24884 -0.0298358 0)
(1.24515 -0.0293328 0)
(1.24161 -0.0285875 0)
(1.23821 -0.0276373 0)
(1.23494 -0.026514 0)
(1.23182 -0.0252458 0)
(1.22886 -0.0238565 0)
(1.22606 -0.0223668 0)
(1.22345 -0.020794 0)
(1.22102 -0.0191529 0)
(1.21878 -0.017456 0)
(1.21675 -0.0157137 0)
(1.21494 -0.0139347 0)
(1.21333 -0.0121264 0)
(1.21195 -0.0102948 0)
(1.21079 -0.00844513 0)
(1.20986 -0.00658181 0)
(1.20916 -0.00470805 0)
(1.2087 -0.00282655 0)
(1.20847 -0.000944086 0)
(1.20695 0.00105096 0)
(1.2476 -0.00484757 0)
(1.26467 -0.013195 0)
(1.26955 -0.0176786 0)
(1.26927 -0.020942 0)
(1.26685 -0.0233348 0)
(1.26356 -0.0250155 0)
(1.25993 -0.0261081 0)
(1.25626 -0.0267187 0)
(1.25265 -0.0269329 0)
(1.24916 -0.0268173 0)
(1.24578 -0.0264249 0)
(1.24249 -0.0257988 0)
(1.2393 -0.0249757 0)
(1.23621 -0.0239871 0)
(1.23324 -0.0228599 0)
(1.23041 -0.0216175 0)
(1.22771 -0.0202795 0)
(1.22518 -0.0188627 0)
(1.22282 -0.0173811 0)
(1.22065 -0.0158465 0)
(1.21866 -0.0142689 0)
(1.21688 -0.0126564 0)
(1.21531 -0.0110162 0)
(1.21395 -0.00935378 0)
(1.21281 -0.00767414 0)
(1.2119 -0.0059815 0)
(1.21121 -0.00427894 0)
(1.21075 -0.00256918 0)
(1.21052 -0.00085784 0)
(1.19404 0.00393794 0)
(1.23841 -0.00236329 0)
(1.25811 -0.0107901 0)
(1.26491 -0.0151346 0)
(1.26596 -0.0183749 0)
(1.26451 -0.0207237 0)
(1.26195 -0.0223591 0)
(1.25893 -0.0234232 0)
(1.25575 -0.024026 0)
(1.25255 -0.0242533 0)
(1.2494 -0.0241708 0)
(1.2463 -0.0238301 0)
(1.24325 -0.023273 0)
(1.24026 -0.0225344 0)
(1.23735 -0.021644 0)
(1.23452 -0.0206273 0)
(1.2318 -0.0195058 0)
(1.2292 -0.0182976 0)
(1.22675 -0.0170183 0)
(1.22445 -0.0156806 0)
(1.22233 -0.0142953 0)
(1.22039 -0.0128713 0)
(1.21864 -0.0114163 0)
(1.2171 -0.00993625 0)
(1.21576 -0.00843652 0)
(1.21464 -0.00692139 0)
(1.21374 -0.00539463 0)
(1.21306 -0.00385905 0)
(1.2126 -0.00231713 0)
(1.21238 -0.000773479 0)
(1.18125 0.00496362 0)
(1.22931 -0.0015698 0)
(1.25167 -0.00963267 0)
(1.26043 -0.013741 0)
(1.26281 -0.0167872 0)
(1.26231 -0.0189361 0)
(1.26047 -0.0203963 0)
(1.25801 -0.0213224 0)
(1.25529 -0.0218249 0)
(1.25247 -0.0219867 0)
(1.24963 -0.0218706 0)
(1.24679 -0.0215251 0)
(1.24395 -0.0209891 0)
(1.24115 -0.0202948 0)
(1.23838 -0.0194688 0)
(1.23567 -0.0185339 0)
(1.23306 -0.0175092 0)
(1.23054 -0.0164108 0)
(1.22816 -0.015252 0)
(1.22592 -0.014044 0)
(1.22385 -0.0127962 0)
(1.22195 -0.011516 0)
(1.22023 -0.01021 0)
(1.21871 -0.00888336 0)
(1.21739 -0.00754043 0)
(1.21628 -0.00618483 0)
(1.21539 -0.00481968 0)
(1.21472 -0.00344731 0)
(1.21427 -0.00206981 0)
(1.21405 -0.000690759 0)
(1.16883 0.00421789 0)
(1.22054 -0.0023403 0)
(1.24559 -0.00973116 0)
(1.25632 -0.0134621 0)
(1.26001 -0.016124 0)
(1.26041 -0.0179162 0)
(1.25923 -0.0190736 0)
(1.25729 -0.0197554 0)
(1.25498 -0.0200684 0)
(1.25249 -0.02009 0)
(1.24991 -0.0198777 0)
(1.24729 -0.0194753 0)
(1.24465 -0.0189169 0)
(1.24199 -0.0182303 0)
(1.23935 -0.0174382 0)
(1.23675 -0.0165598 0)
(1.23421 -0.0156108 0)
(1.23177 -0.0146044 0)
(1.22944 -0.0135515 0)
(1.22725 -0.0124611 0)
(1.22521 -0.0113405 0)
(1.22334 -0.0101958 0)
(1.22164 -0.00903186 0)
(1.22014 -0.00785274 0)
(1.21884 -0.00666174 0)
(1.21774 -0.00546156 0)
(1.21686 -0.00425449 0)
(1.21619 -0.00304224 0)
(1.21575 -0.00182634 0)
(1.21553 -0.000609365 0)
(1.15706 0.00184748 0)
(1.21235 -0.00458519 0)
(1.24013 -0.0109682 0)
(1.2528 -0.0141888 0)
(1.25773 -0.0162874 0)
(1.25895 -0.0175766 0)
(1.25837 -0.0183118 0)
(1.25687 -0.0186501 0)
(1.2549 -0.0186914 0)
(1.25268 -0.0185051 0)
(1.25032 -0.0181409 0)
(1.24787 -0.0176355 0)
(1.24536 -0.0170168 0)
(1.24282 -0.0163067 0)
(1.24028 -0.0155228 0)
(1.23775 -0.0146796 0)
(1.23528 -0.0137888 0)
(1.23289 -0.0128601 0)
(1.2306 -0.0119013 0)
(1.22844 -0.0109188 0)
(1.22643 -0.00991755 0)
(1.22458 -0.00890171 0)
(1.2229 -0.00787449 0)
(1.22141 -0.00683848 0)
(1.22012 -0.00579574 0)
(1.21903 -0.00474791 0)
(1.21815 -0.00369634 0)
(1.21749 -0.00264196 0)
(1.21704 -0.00158561 0)
(1.21682 -0.000528917 0)
(1.14627 -0.0018802 0)
(1.20493 -0.00807162 0)
(1.23552 -0.0132503 0)
(1.25004 -0.015767 0)
(1.25614 -0.0171408 0)
(1.25809 -0.0177973 0)
(1.25799 -0.0180039 0)
(1.25684 -0.0179115 0)
(1.25512 -0.0176103 0)
(1.2531 -0.0171587 0)
(1.25089 -0.0165961 0)
(1.24856 -0.0159502 0)
(1.24615 -0.0152408 0)
(1.24368 -0.0144827 0)
(1.24119 -0.0136872 0)
(1.23871 -0.0128632 0)
(1.23628 -0.0120177 0)
(1.23391 -0.0111563 0)
(1.23165 -0.0102833 0)
(1.22951 -0.00940193 0)
(1.22751 -0.00851467 0)
(1.22566 -0.00762337 0)
(1.224 -0.00672939 0)
(1.22251 -0.00583369 0)
(1.22122 -0.00493697 0)
(1.22014 -0.00403966 0)
(1.21926 -0.00314208 0)
(1.2186 -0.00224429 0)
(1.21816 -0.00134638 0)
(1.21794 -0.000448986 0)
(1.13659 -0.00674047 0)
(1.1986 -0.0125191 0)
(1.23196 -0.016422 0)
(1.24825 -0.0180113 0)
(1.25538 -0.018515 0)
(1.25794 -0.0184269 0)
(1.2582 -0.0180159 0)
(1.25728 -0.0174226 0)
(1.25573 -0.0167235 0)
(1.25381 -0.0159628 0)
(1.25167 -0.0151675 0)
(1.2494 -0.0143542 0)
(1.24702 -0.0135333 0)
(1.24458 -0.0127109 0)
(1.24211 -0.011891 0)
(1.23964 -0.0110764 0)
(1.23722 -0.0102687 0)
(1.23486 -0.00946887 0)
(1.2326 -0.00867719 0)
(1.23045 -0.00789364 0)
(1.22845 -0.00711784 0)
(1.22661 -0.00634924 0)
(1.22494 -0.00558714 0)
(1.22345 -0.00483078 0)
(1.22216 -0.00407939 0)
(1.22107 -0.00333213 0)
(1.22019 -0.00258824 0)
(1.21953 -0.00184685 0)
(1.21909 -0.00110724 0)
(1.21887 -0.000369104 0)
(1.1284 -0.0129788 0)
(1.19372 -0.0177056 0)
(1.22968 -0.0201898 0)
(1.24759 -0.0206769 0)
(1.25561 -0.0201978 0)
(1.25861 -0.0192801 0)
(1.25909 -0.0181881 0)
(1.25827 -0.0170462 0)
(1.25675 -0.015913 0)
(1.25484 -0.0148165 0)
(1.2527 -0.013769 0)
(1.2504 -0.0127746 0)
(1.248 -0.0118321 0)
(1.24554 -0.0109385 0)
(1.24304 -0.0100899 0)
(1.24055 -0.00928197 0)
(1.2381 -0.00851051 0)
(1.23572 -0.0077715 0)
(1.23344 -0.00706113 0)
(1.23128 -0.00637579 0)
(1.22926 -0.00571213 0)
(1.22741 -0.00506705 0)
(1.22572 -0.00443777 0)
(1.22423 -0.00382174 0)
(1.22293 -0.00321666 0)
(1.22184 -0.00262044 0)
(1.22095 -0.00203119 0)
(1.22029 -0.00144714 0)
(1.21984 -0.000866742 0)
(1.21962 -0.000288785 0)
(1.12212 -0.0197377 0)
(1.19052 -0.0231294 0)
(1.22887 -0.0241658 0)
(1.2482 -0.0234547 0)
(1.25691 -0.0219278 0)
(1.26017 -0.0201384 0)
(1.2607 -0.0183371 0)
(1.25983 -0.0166269 0)
(1.25823 -0.0150474 0)
(1.25622 -0.0136089 0)
(1.25397 -0.0123074 0)
(1.25158 -0.0111323 0)
(1.24909 -0.010071 0)
(1.24655 -0.00911011 0)
(1.24398 -0.00823719 0)
(1.24143 -0.0074407 0)
(1.23893 -0.0067104 0)
(1.2365 -0.0060371 0)
(1.23418 -0.00541266 0)
(1.23198 -0.00482986 0)
(1.22994 -0.00428231 0)
(1.22806 -0.00376441 0)
(1.22635 -0.00327124 0)
(1.22484 -0.0027985 0)
(1.22353 -0.00234242 0)
(1.22242 -0.00189968 0)
(1.22153 -0.00146732 0)
(1.22086 -0.00104267 0)
(1.22041 -0.000623421 0)
(1.22019 -0.000207542 0)
(1.1177 -0.0263535 -1.59114e-11)
(1.18904 -0.0283169 -1.63956e-11)
(1.22959 -0.0279493 0)
(1.25012 -0.0260008 -1.69722e-11)
(1.25931 -0.0234188 -1.70805e-11)
(1.26263 -0.0207654 -4.92813e-28)
(1.26304 -0.0182645 1.70402e-11)
(1.26197 -0.015998 1.69247e-11)
(1.26015 -0.0139873 0)
(1.25793 -0.0122235 0)
(1.25549 -0.0106847 0)
(1.25293 -0.00934572 0)
(1.25029 -0.0081815 0)
(1.24761 -0.00716849 0)
(1.24493 -0.00628542 0)
(1.24228 -0.0055134 0)
(1.23969 -0.00483596 0)
(1.23719 -0.00423886 0)
(1.23481 -0.00370972 0)
(1.23256 -0.00323775 0)
(1.23047 -0.00281362 1.40787e-11)
(1.22855 -0.00242928 2.78196e-11)
(1.22682 -0.00207784 1.37579e-11)
(1.22528 -0.00175334 0)
(1.22395 -0.00145062 -1.35079e-11)
(1.22283 -0.00116521 -1.34107e-11)
(1.22193 -0.000893197 0)
(1.22125 -0.000631103 -1.32739e-11)
(1.22079 -0.000375922 -1.32346e-11)
(1.22057 -0.000124932 -3.81265e-28)
(1.11517 -0.0323804 1.59107e-11)
(1.18931 -0.0329688 1.63956e-11)
(1.23181 -0.0311773 0)
(1.25331 -0.0279838 1.69722e-11)
(1.26278 -0.0243915 1.70805e-11)
(1.26598 -0.0209229 4.92813e-28)
(1.26608 -0.0177678 -1.70402e-11)
(1.26465 -0.0149901 -1.69247e-11)
(1.26249 -0.0125917 0)
(1.25995 -0.0105425 0)
(1.25722 -0.0088031 0)
(1.25441 -0.0073336 0)
(1.25155 -0.00609665 0)
(1.24869 -0.00505846 0)
(1.24586 -0.00418905 0)
(1.24307 -0.00346232 0)
(1.24037 -0.00285605 0)
(1.23778 -0.00235117 0)
(1.23531 -0.00193133 0)
(1.233 -0.00158245 0)
(1.23086 -0.00129229 -1.40787e-11)
(1.22889 -0.00105063 -2.78196e-11)
(1.22712 -0.000848794 -1.37579e-11)
(1.22555 -0.000679314 0)
(1.2242 -0.000535844 1.35079e-11)
(1.22306 -0.000412918 1.34107e-11)
(1.22214 -0.000305811 0)
(1.22145 -0.000210378 1.32739e-11)
(1.22099 -0.000123038 1.32346e-11)
(1.22076 -4.05434e-05 3.81265e-28)
(1.11483 -0.0375513 0)
(1.1914 -0.036699 0)
(1.23551 -0.0334674 0)
(1.25773 -0.0290838 0)
(1.26724 -0.0245716 0)
(1.27012 -0.0203748 0)
(1.26974 -0.0166489 0)
(1.26782 -0.0134386 0)
(1.26518 -0.0107237 0)
(1.26221 -0.00845319 0)
(1.25912 -0.0065698 0)
(1.25599 -0.00501949 0)
(1.25286 -0.00375325 0)
(1.24977 -0.00272768 0)
(1.24674 -0.00190508 0)
(1.24379 -0.0012527 0)
(1.24095 -0.000742369 0)
(1.23824 -0.000351012 0)
(1.23568 -5.93796e-05 0)
(1.23329 0.000150504 0)
(1.23107 0.000293372 0)
(1.22906 0.000380886 0)
(1.22724 0.000423333 0)
(1.22564 0.000429386 0)
(1.22425 0.000406385 0)
(1.22309 0.000360571 0)
(1.22216 0.000297284 0)
(1.22145 0.000221159 0)
(1.22099 0.000136164 0)
(1.22075 4.59149e-05 0)
(1.11689 -0.0414352 0)
(1.19532 -0.0390418 0)
(1.24063 -0.0344256 0)
(1.26326 -0.0289778 0)
(1.27259 -0.0236847 0)
(1.27494 -0.0188914 0)
(1.27392 -0.0147186 0)
(1.27135 -0.0111886 0)
(1.26813 -0.00825677 0)
(1.26465 -0.00585127 0)
(1.26111 -0.00389901 0)
(1.2576 -0.00233335 0)
(1.25415 -0.00109401 0)
(1.25079 -0.000130762 0)
(1.24753 0.00060192 0)
(1.24439 0.00114445 0)
(1.24139 0.0015279 0)
(1.23855 0.00177922 0)
(1.23588 0.00192118 0)
(1.2334 0.00197371 0)
(1.23111 0.00195305 0)
(1.22904 0.00187273 0)
(1.22717 0.00174422 0)
(1.22553 0.00157706 0)
(1.22412 0.00137928 0)
(1.22293 0.00115761 0)
(1.22198 0.000917764 0)
(1.22126 0.000664619 0)
(1.22079 0.000402319 0)
(1.22055 0.000134651 0)
(1.12138 -0.0435502 0)
(1.20099 -0.0395598 0)
(1.24702 -0.0336815 0)
(1.26973 -0.0273566 0)
(1.27863 -0.0214725 0)
(1.28027 -0.0162624 0)
(1.27846 -0.0118064 0)
(1.27513 -0.00810136 0)
(1.27122 -0.0050785 0)
(1.26715 -0.00264561 0)
(1.2631 -0.000718301 0)
(1.25916 0.000780805 0)
(1.25536 0.00192312 0)
(1.25169 0.00276698 0)
(1.24818 0.00336243 0)
(1.24484 0.00375281 0)
(1.24166 0.00397351 0)
(1.23868 0.00405466 0)
(1.2359 0.00402134 0)
(1.23332 0.00389477 0)
(1.23096 0.00369254 0)
(1.22882 0.00342925 0)
(1.2269 0.00311707 0)
(1.22522 0.00276603 0)
(1.22377 0.00238448 0)
(1.22256 0.00197932 0)
(1.22159 0.00155636 0)
(1.22087 0.00112045 0)
(1.22038 0.000675683 0)
(1.22014 0.000225754 0)
(1.12829 -0.0434704 0)
(1.20829 -0.0378836 0)
(1.25449 -0.0309163 0)
(1.27691 -0.0239559 0)
(1.28513 -0.0177183 0)
(1.28589 -0.0123105 0)
(1.28316 -0.00777039 0)
(1.27898 -0.00406513 0)
(1.27431 -0.00110024 0)
(1.26959 0.00122983 0)
(1.265 0.00302302 0)
(1.2606 0.0043661 0)
(1.2564 0.00533509 0)
(1.25242 0.00599334 0)
(1.24864 0.00639521 0)
(1.24508 0.00658638 0)
(1.24173 0.00660493 0)
(1.2386 0.00648271 0)
(1.2357 0.00624613 0)
(1.23302 0.00591717 0)
(1.23058 0.00551404 0)
(1.22838 0.00505169 0)
(1.22642 0.00454246 0)
(1.2247 0.00399642 0)
(1.22322 0.00342182 0)
(1.22199 0.00282542 0)
(1.221 0.00221275 0)
(1.22026 0.00158838 0)
(1.21977 0.000956063 0)
(1.21952 0.000319156 0)
(1.13753 -0.040816 0)
(1.21702 -0.0336889 0)
(1.26276 -0.0258708 0)
(1.28451 -0.0185657 0)
(1.29181 -0.0122536 0)
(1.29154 -0.00690513 0)
(1.2878 -0.00251247 0)
(1.2827 0.000996087 0)
(1.27724 0.00373492 0)
(1.27184 0.00582149 0)
(1.26667 0.00736205 0)
(1.26179 0.00844789 0)
(1.2572 0.00915819 0)
(1.25289 0.00955937 0)
(1.24885 0.00970753 0)
(1.24507 0.00964948 0)
(1.24154 0.00942413 0)
(1.23827 0.00906373 0)
(1.23525 0.00859488 0)
(1.23248 0.0080395 0)
(1.22997 0.0074156 0)
(1.22771 0.0067378 0)
(1.2257 0.00601805 0)
(1.22394 0.00526594 0)
(1.22244 0.00448922 0)
(1.22119 0.00369406 0)
(1.22018 0.00288544 0)
(1.21943 0.0020673 0)
(1.21893 0.00124278 0)
(1.21869 0.000414628 0)
(1.14886 -0.0351821 0)
(1.22693 -0.0266802 0)
(1.2715 -0.0183175 0)
(1.29217 -0.0110335 0)
(1.29835 -0.00497334 0)
(1.29694 2.8057e-05 0)
(1.29213 0.00402209 0)
(1.28608 0.00712213 0)
(1.27981 0.00945388 0)
(1.27372 0.0111458 0)
(1.26799 0.0123062 0)
(1.26264 0.0130282 0)
(1.25767 0.0133912 0)
(1.25304 0.0134614 0)
(1.24875 0.0132944 0)
(1.24476 0.012936 0)
(1.24106 0.0124243 0)
(1.23765 0.0117906 0)
(1.23453 0.0110605 0)
(1.23168 0.0102549 0)
(1.2291 0.00939066 0)
(1.22679 0.00848151 0)
(1.22474 0.00753832 0)
(1.22295 0.00656972 0)
(1.22143 0.00558247 0)
(1.22016 0.00458179 0)
(1.21915 0.00357171 0)
(1.21839 0.00255526 0)
(1.21788 0.00153467 0)
(1.21763 0.000511777 0)
(1.16195 -0.026226 0)
(1.23747 -0.0166434 0)
(1.28026 -0.00811795 0)
(1.29953 -0.00132513 0)
(1.30439 0.00413853 0)
(1.30176 0.00850569 0)
(1.29586 0.0118439 0)
(1.28889 0.0143042 0)
(1.28183 0.0160423 0)
(1.27509 0.0171843 0)
(1.26882 0.0178356 0)
(1.26303 0.0180868 0)
(1.2577 0.0180141 0)
(1.25279 0.0176801 0)
(1.24826 0.0171372 0)
(1.24408 0.0164284 0)
(1.24024 0.0155891 0)
(1.23672 0.0146482 0)
(1.2335 0.0136291 0)
(1.23058 0.0125506 0)
(1.22795 0.0114279 0)
(1.2256 0.0102728 0)
(1.22352 0.00909449 0)
(1.22172 0.00790021 0)
(1.22017 0.00669523 0)
(1.2189 0.00548344 0)
(1.21788 0.00426756 0)
(1.21711 0.00304941 0)
(1.21661 0.00183001 0)
(1.21635 0.000610038 0)
(1.17626 -0.0138338 0)
(1.24813 -0.00350193 0)
(1.28866 0.00455324 0)
(1.30615 0.0104941 0)
(1.30952 0.015072 0)
(1.30565 0.0184761 0)
(1.29872 0.0208762 0)
(1.29088 0.0224793 0)
(1.2831 0.0234428 0)
(1.27578 0.0238836 0)
(1.26903 0.0239014 0)
(1.26286 0.0235798 0)
(1.25721 0.0229869 0)
(1.25205 0.0221792 0)
(1.24733 0.0212032 0)
(1.243 0.0200972 0)
(1.23904 0.0188921 0)
(1.23542 0.017613 0)
(1.23214 0.0162798 0)
(1.22917 0.0149084 0)
(1.2265 0.0135112 0)
(1.22413 0.0120975 0)
(1.22204 0.0106745 0)
(1.22022 0.00924718 0)
(1.21867 0.00781902 0)
(1.21739 0.00639218 0)
(1.21637 0.00496777 0)
(1.21561 0.00354606 0)
(1.2151 0.00212661 0)
(1.21485 0.000708677 0)
(1.19103 0.00178294 0)
(1.25854 0.0125463 0)
(1.29618 0.0195594 0)
(1.31153 0.0243613 0)
(1.31334 0.0276635 0)
(1.3083 0.0297767 0)
(1.30044 0.0309901 0)
(1.29184 0.0315349 0)
(1.28345 0.0315542 0)
(1.27564 0.0311551 0)
(1.2685 0.0304262 0)
(1.26201 0.0294386 0)
(1.25612 0.0282494 0)
(1.25077 0.0269058 0)
(1.24589 0.0254461 0)
(1.24146 0.0239018 0)
(1.23742 0.0222977 0)
(1.23375 0.0206537 0)
(1.23042 0.0189853 0)
(1.22743 0.0173045 0)
(1.22475 0.0156199 0)
(1.22237 0.0139381 0)
(1.22027 0.0122632 0)
(1.21846 0.0105979 0)
(1.21692 0.00894335 0)
(1.21565 0.00729963 0)
(1.21463 0.00566591 0)
(1.21388 0.00404068 0)
(1.21337 0.00242177 0)
(1.21312 0.0008068 0)
(1.20539 0.0209997 0)
(1.26803 0.0312979 0)
(1.30219 0.0367917 0)
(1.31523 0.0400027 0)
(1.31551 0.0416448 0)
(1.30941 0.0421875 0)
(1.30077 0.0420004 0)
(1.29157 0.0413069 0)
(1.28271 0.0402346 0)
(1.27453 0.0388768 0)
(1.26711 0.0373048 0)
(1.2604 0.0355725 0)
(1.25435 0.0337231 0)
(1.24887 0.0317918 0)
(1.24392 0.0298068 0)
(1.23942 0.0277908 0)
(1.23534 0.0257613 0)
(1.23166 0.0237317 0)
(1.22833 0.0217122 0)
(1.22534 0.0197098 0)
(1.22267 0.0177293 0)
(1.22031 0.0157732 0)
(1.21823 0.0138427 0)
(1.21644 0.0119374 0)
(1.21492 0.0100559 0)
(1.21366 0.00819594 0)
(1.21266 0.0063545 0)
(1.21191 0.004528 0)
(1.21142 0.00271237 0)
(1.21117 0.000903371 0)
(1.21837 0.0436779 0)
(1.27569 0.0522821 0)
(1.30611 0.0558269 0)
(1.31682 0.0570107 0)
(1.3157 0.0566717 0)
(1.30872 0.0554239 0)
(1.29949 0.0536608 0)
(1.28988 0.051584 0)
(1.28074 0.0493054 0)
(1.27235 0.0468974 0)
(1.26477 0.0444077 0)
(1.25796 0.0418706 0)
(1.25184 0.0393129 0)
(1.24632 0.0367556 0)
(1.24135 0.0342151 0)
(1.23686 0.0317037 0)
(1.2328 0.0292307 0)
(1.22914 0.0268021 0)
(1.22585 0.0244218 0)
(1.2229 0.0220913 0)
(1.22027 0.0198107 0)
(1.21794 0.0175787 0)
(1.21591 0.0153924 0)
(1.21415 0.0132486 0)
(1.21266 0.0111428 0)
(1.21143 0.00907008 0)
(1.21045 0.00702513 0)
(1.20973 0.00500212 0)
(1.20924 0.00299491 0)
(1.209 0.00099723 0)
(1.22921 0.0683436 0)
(1.28082 0.0748594 0)
(1.30745 0.0760576 0)
(1.31595 0.074856 0)
(1.31363 0.0723202 0)
(1.30601 0.0691346 0)
(1.29644 0.0656731 0)
(1.28666 0.0621173 0)
(1.27743 0.0585583 0)
(1.269 0.0550405 0)
(1.26142 0.0515855 0)
(1.25463 0.048206 0)
(1.24855 0.0449106 0)
(1.24309 0.0417048 0)
(1.23818 0.0385916 0)
(1.23375 0.0355727 0)
(1.22977 0.0326477 0)
(1.22619 0.0298148 0)
(1.22297 0.027071 0)
(1.22009 0.0244121 0)
(1.21753 0.0218331 0)
(1.21527 0.0193279 0)
(1.2133 0.0168902 0)
(1.2116 0.0145129 0)
(1.21016 0.0121888 0)
(1.20897 0.00991 0)
(1.20802 0.00766867 0)
(1.20732 0.00545665 0)
(1.20685 0.00326559 0)
(1.20662 0.00108712 0)
(1.23712 0.0941072 0)
(1.28289 0.0983662 0)
(1.30587 0.0967927 0)
(1.31239 0.0929682 0)
(1.30914 0.0881268 0)
(1.30117 0.0829274 0)
(1.29155 0.0777088 0)
(1.28184 0.0726337 0)
(1.27273 0.0677646 0)
(1.26445 0.0631135 0)
(1.25702 0.0586754 0)
(1.25039 0.0544408 0)
(1.24446 0.0503989 0)
(1.23915 0.0465391 0)
(1.23438 0.042851 0)
(1.2301 0.0393244 0)
(1.22625 0.0359495 0)
(1.22279 0.0327161 0)
(1.2197 0.0296141 0)
(1.21693 0.0266331 0)
(1.21448 0.0237628 0)
(1.21231 0.0209927 0)
(1.21042 0.0183122 0)
(1.20879 0.0157108 0)
(1.20741 0.0131779 0)
(1.20628 0.010703 0)
(1.20538 0.0082755 0)
(1.20471 0.00588483 0)
(1.20426 0.00352041 0)
(1.20404 0.00117172 0)
(1.24129 0.120272 0)
(1.28148 0.121981 0)
(1.30115 0.117306 0)
(1.306 0.110769 0)
(1.30214 0.10361 0)
(1.29415 0.0963941 0)
(1.28478 0.0894283 0)
(1.2754 0.0828504 0)
(1.26664 0.0766863 0)
(1.25869 0.0709158 0)
(1.25158 0.065508 0)
(1.24523 0.0604312 0)
(1.23957 0.0556557 0)
(1.23451 0.0511547 0)
(1.22997 0.0469043 0)
(1.2259 0.042883 0)
(1.22225 0.0390712 0)
(1.21897 0.0354505 0)
(1.21604 0.0320034 0)
(1.21343 0.0287137 0)
(1.21111 0.0255656 0)
(1.20907 0.0225439 0)
(1.20728 0.0196341 0)
(1.20575 0.016822 0)
(1.20445 0.0140938 0)
(1.20338 0.0114361 0)
(1.20253 0.00883573 0)
(1.2019 0.00627975 0)
(1.20148 0.00375528 0)
(1.20127 0.00124966 0)
(1.24117 0.145842 0)
(1.27636 0.144773 0)
(1.29317 0.136862 0)
(1.29677 0.127682 0)
(1.29269 0.118287 0)
(1.28502 0.109131 0)
(1.27618 0.100497 0)
(1.26739 0.0924867 0)
(1.25919 0.085087 0)
(1.25176 0.0782477 0)
(1.24511 0.0719142 0)
(1.23919 0.0660337 0)
(1.23391 0.0605585 0)
(1.22919 0.055447 0)
(1.22497 0.0506623 0)
(1.22118 0.0461722 0)
(1.21779 0.0419475 0)
(1.21475 0.037962 0)
(1.21203 0.0341914 0)
(1.2096 0.0306133 0)
(1.20745 0.0272069 0)
(1.20555 0.0239524 0)
(1.2039 0.0208314 0)
(1.20248 0.0178261 0)
(1.20128 0.0149198 0)
(1.20029 0.0120962 0)
(1.1995 0.00933951 0)
(1.19892 0.00663449 0)
(1.19853 0.00396611 0)
(1.19834 0.00131961 0)
(1.2366 0.169792 0)
(1.26749 0.165858 0)
(1.28201 0.154782 0)
(1.28482 0.143163 0)
(1.28092 0.131701 0)
(1.2739 0.120761 0)
(1.26587 0.110601 0)
(1.2579 0.101278 0)
(1.25046 0.0927422 0)
(1.24372 0.0849192 0)
(1.23769 0.0777322 0)
(1.23232 0.0711102 0)
(1.22753 0.0649897 0)
(1.22325 0.0593152 0)
(1.21941 0.0540388 0)
(1.21598 0.0491179 0)
(1.2129 0.0445151 0)
(1.21014 0.0401965 0)
(1.20767 0.0361316 0)
(1.20547 0.0322924 0)
(1.20352 0.028653 0)
(1.2018 0.0251898 0)
(1.2003 0.0218803 0)
(1.19901 0.0187037 0)
(1.19792 0.0156401 0)
(1.19702 0.0126706 0)
(1.19631 0.00977723 0)
(1.19578 0.00694236 0)
(1.19543 0.00414893 0)
(1.19525 0.00138023 0)
(1.22772 0.191213 0)
(1.25508 0.184476 0)
(1.2679 0.170489 0)
(1.2704 0.156739 0)
(1.26706 0.143456 0)
(1.261 0.130954 0)
(1.25402 0.11946 0)
(1.24708 0.108986 0)
(1.24058 0.0994495 0)
(1.23469 0.0907568 0)
(1.22941 0.0828137 0)
(1.22469 0.0755335 0)
(1.22049 0.0688397 0)
(1.21673 0.0626655 0)
(1.21336 0.0569529 0)
(1.21034 0.0516509 0)
(1.20763 0.0467144 0)
(1.2052 0.0421029 0)
(1.20302 0.0377803 0)
(1.20108 0.0337134 0)
(1.19936 0.0298723 0)
(1.19784 0.0262292 0)
(1.19651 0.0227584 0)
(1.19537 0.0194359 0)
(1.1944 0.0162394 0)
(1.1936 0.0131475 0)
(1.19297 0.0101398 0)
(1.1925 0.00719701 0)
(1.19219 0.00429999 0)
(1.19204 0.0014303 0)
(1.21492 0.20938 0)
(1.23951 0.200026 0)
(1.25122 0.183536 0)
(1.25386 0.168036 0)
(1.25142 0.153235 0)
(1.24657 0.139442 0)
(1.24087 0.126845 0)
(1.23512 0.11541 0)
(1.22972 0.105035 0)
(1.22479 0.0956106 0)
(1.22036 0.0870286 0)
(1.21641 0.0791911 0)
(1.21287 0.0720114 0)
(1.20971 0.0654138 0)
(1.20687 0.0593322 0)
(1.20432 0.0537086 0)
(1.20203 0.0484914 0)
(1.19996 0.0436348 0)
(1.19811 0.0390977 0)
(1.19646 0.0348426 0)
(1.19499 0.0308358 0)
(1.19369 0.0270462 0)
(1.19256 0.0234451 0)
(1.19158 0.020006 0)
(1.19075 0.016704 0)
(1.19007 0.0135158 0)
(1.18952 0.0104191 0)
(1.18912 0.00739267 0)
(1.18885 0.00441588 0)
(1.18872 0.00146868 0)
(1.19879 0.223795 0)
(1.22129 0.212103 0)
(1.23243 0.193625 0)
(1.23562 0.176788 0)
(1.23437 0.160808 0)
(1.23094 0.146024 0)
(1.22665 0.132576 0)
(1.22224 0.120393 0)
(1.21804 0.10936 0)
(1.21418 0.0993574 0)
(1.21071 0.0902689 0)
(1.20759 0.0819883 0)
(1.20479 0.0744221 0)
(1.20228 0.067488 0)
(1.20003 0.0611141 0)
(1.19799 0.0552366 0)
(1.19615 0.0497992 0)
(1.19449 0.0447517 0)
(1.193 0.040049 0)
(1.19166 0.0356501 0)
(1.19047 0.0315182 0)
(1.18941 0.0276193 0)
(1.18849 0.0239225 0)
(1.18768 0.0203989 0)
(1.187 0.0170218 0)
(1.18644 0.013766 0)
(1.18599 0.0106078 0)
(1.18566 0.00752427 0)
(1.18544 0.00449359 0)
(1.18533 0.00149438 0)
(1.17998 0.234184 0)
(1.20101 0.220494 0)
(1.21206 0.200597 0)
(1.21614 0.182839 0)
(1.21629 0.166033 0)
(1.21441 0.150569 0)
(1.21166 0.13653 0)
(1.20867 0.123821 0)
(1.20575 0.11232 0)
(1.20304 0.101904 0)
(1.20058 0.0924508 0)
(1.19835 0.0838507 0)
(1.19635 0.076006 0)
(1.19455 0.0688303 0)
(1.19291 0.0622476 0)
(1.19143 0.0561906 0)
(1.19008 0.0505993 0)
(1.18885 0.0454203 0)
(1.18774 0.0406054 0)
(1.18674 0.0361112 0)
(1.18584 0.0318983 0)
(1.18504 0.0279308 0)
(1.18433 0.0241756 0)
(1.18371 0.0206023 0)
(1.18319 0.0171827 0)
(1.18276 0.0138902 0)
(1.18241 0.0106998 0)
(1.18215 0.00758763 0)
(1.18198 0.00453065 0)
(1.18189 0.00150657 0)
(1.15919 0.240475 0)
(1.17927 0.225163 0)
(1.19063 0.204418 0)
(1.19586 0.186133 0)
(1.19755 0.168849 0)
(1.19731 0.153008 0)
(1.19615 0.138636 0)
(1.19464 0.125622 0)
(1.19306 0.113848 0)
(1.19154 0.103186 0)
(1.19013 0.0935151 0)
(1.18885 0.0847243 0)
(1.18767 0.0767144 0)
(1.1866 0.0693971 0)
(1.18562 0.0626944 0)
(1.18471 0.0565368 0)
(1.18388 0.050862 0)
(1.1831 0.0456147 0)
(1.18239 0.0407447 0)
(1.18174 0.0362068 0)
(1.18114 0.0319599 0)
(1.18061 0.0279667 0)
(1.18013 0.0241928 0)
(1.17971 0.0206067 0)
(1.17935 0.017179 0)
(1.17905 0.0138823 0)
(1.17881 0.0106906 0)
(1.17862 0.00757949 0)
(1.1785 0.00452515 0)
(1.17844 0.00150463 0)
(1.13707 0.242757 0)
(1.15666 0.226214 0)
(1.16866 0.205154 0)
(1.1752 0.186695 0)
(1.17852 0.169264 0)
(1.17996 0.15333 0)
(1.18042 0.138869 0)
(1.1804 0.125767 0)
(1.18017 0.113908 0)
(1.17986 0.103168 0)
(1.17953 0.0934271 0)
(1.1792 0.084576 0)
(1.17888 0.0765165 0)
(1.17856 0.0691603 0)
(1.17825 0.062429 0)
(1.17794 0.0562524 0)
(1.17763 0.0505674 0)
(1.17732 0.0453175 0)
(1.17702 0.0404517 0)
(1.17672 0.0359238 0)
(1.17644 0.0316919 0)
(1.17618 0.0277178 0)
(1.17594 0.0239664 0)
(1.17572 0.0204056 0)
(1.17552 0.0170054 0)
(1.17536 0.0137381 0)
(1.17522 0.0105772 0)
(1.17512 0.00749774 0)
(1.17505 0.00447583 0)
(1.17502 0.00148815 0)
(1.1142 0.241235 0)
(1.13372 0.223853 0)
(1.14658 0.202939 0)
(1.15456 0.184615 0)
(1.15953 0.167335 0)
(1.16265 0.151567 0)
(1.16472 0.137244 0)
(1.16618 0.124258 0)
(1.16729 0.112497 0)
(1.16819 0.101841 0)
(1.16893 0.0921741 0)
(1.16957 0.0833919 0)
(1.1701 0.0753981 0)
(1.17054 0.0681062 0)
(1.1709 0.0614387 0)
(1.17119 0.0553259 0)
(1.17141 0.049705 0)
(1.17157 0.0445196 0)
(1.17168 0.0397185 0)
(1.17175 0.0352555 0)
(1.17179 0.0310885 0)
(1.1718 0.0271791 0)
(1.17179 0.0234923 0)
(1.17177 0.0199958 0)
(1.17175 0.0166595 0)
(1.17172 0.0134556 0)
(1.17169 0.0103579 0)
(1.17167 0.00734136 0)
(1.17165 0.00438209 0)
(1.17164 0.00145692 0)
(1.0911 0.23619 0)
(1.11089 0.218338 0)
(1.12481 0.197948 0)
(1.13428 0.180025 0)
(1.14087 0.163161 0)
(1.14564 0.147788 0)
(1.14927 0.133811 0)
(1.15218 0.121129 0)
(1.15461 0.109636 0)
(1.15669 0.0992174 0)
(1.15849 0.0897647 0)
(1.16007 0.0811769 0)
(1.16145 0.0733618 0)
(1.16265 0.0662358 0)
(1.16368 0.0597235 0)
(1.16456 0.0537569 0)
(1.1653 0.0482744 0)
(1.16593 0.0432205 0)
(1.16645 0.0385448 0)
(1.16688 0.0342017 0)
(1.16723 0.0301497 0)
(1.16752 0.026351 0)
(1.16775 0.0227709 0)
(1.16792 0.0193775 0)
(1.16806 0.0161415 0)
(1.16817 0.0130353 0)
(1.16825 0.0100332 0)
(1.1683 0.00711057 0)
(1.16834 0.00424408 0)
(1.16836 0.00141099 0)
(1.06818 0.227937 0)
(1.08857 0.209955 0)
(1.10366 0.190379 0)
(1.11462 0.173084 0)
(1.12282 0.156863 0)
(1.12917 0.142084 0)
(1.13431 0.128638 0)
(1.13861 0.116433 0)
(1.1423 0.105366 0)
(1.14552 0.0953312 0)
(1.14836 0.0862246 0)
(1.15086 0.0779515 0)
(1.15306 0.0704241 0)
(1.15499 0.0635628 0)
(1.15667 0.0572951 0)
(1.15813 0.0515553 0)
(1.15939 0.0462842 0)
(1.16047 0.0414278 0)
(1.16139 0.0369373 0)
(1.16218 0.0327684 0)
(1.16283 0.0288809 0)
(1.16338 0.025238 0)
(1.16384 0.0218062 0)
(1.16421 0.0185545 0)
(1.16451 0.0154545 0)
(1.16475 0.0124796 0)
(1.16493 0.0096049 0)
(1.16506 0.00680678 0)
(1.16515 0.00406265 0)
(1.16519 0.00135066 0)
(1.04579 0.216797 0)
(1.06707 0.198983 0)
(1.08339 0.180438 0)
(1.09584 0.163965 0)
(1.10558 0.148575 0)
(1.11345 0.134564 0)
(1.12002 0.121816 0)
(1.12564 0.110244 0)
(1.13054 0.0997497 0)
(1.13486 0.0902325 0)
(1.13867 0.0815964 0)
(1.14205 0.0737518 0)
(1.14504 0.0666162 0)
(1.14767 0.0601141 0)
(1.14998 0.0541768 0)
(1.152 0.0487418 0)
(1.15375 0.0437526 0)
(1.15527 0.0391576 0)
(1.15657 0.0349102 0)
(1.15769 0.0309683 0)
(1.15864 0.0272932 0)
(1.15945 0.0238501 0)
(1.16012 0.0206068 0)
(1.16068 0.017534 0)
(1.16113 0.0146046 0)
(1.1615 0.0117934 0)
(1.16178 0.00907692 0)
(1.16198 0.00643269 0)
(1.16211 0.00383941 0)
(1.16218 0.00127644 0)
(1.02418 0.203071 0)
(1.04659 0.18568 0)
(1.06422 0.168325 0)
(1.07813 0.152835 0)
(1.08935 0.138437 0)
(1.09866 0.125346 0)
(1.10658 0.113444 0)
(1.11345 0.102646 0)
(1.11948 0.0928578 0)
(1.12482 0.0839838 0)
(1.12956 0.0759343 0)
(1.13377 0.0686255 0)
(1.1375 0.06198 0)
(1.1408 0.0559268 0)
(1.1437 0.0504017 0)
(1.14624 0.0453457 0)
(1.14846 0.0407056 0)
(1.15039 0.0364331 0)
(1.15205 0.0324843 0)
(1.15349 0.0288195 0)
(1.15471 0.0254027 0)
(1.15576 0.0222011 0)
(1.15663 0.0191847 0)
(1.15737 0.0163262 0)
(1.15796 0.0136004 0)
(1.15845 0.0109838 0)
(1.15882 0.00845461 0)
(1.15909 0.00599213 0)
(1.15927 0.00357664 0)
(1.15935 0.00118912 0)
(1.00356 0.187034 0)
(1.02733 0.170276 0)
(1.04631 0.154227 0)
(1.06165 0.139859 0)
(1.0743 0.126589 0)
(1.08496 0.114552 0)
(1.09415 0.10363 0)
(1.10217 0.093736 0)
(1.10926 0.0847765 0)
(1.11556 0.0766616 0)
(1.12116 0.0693068 0)
(1.12614 0.0626336 0)
(1.13056 0.0565701 0)
(1.13447 0.0510501 0)
(1.13791 0.0460136 0)
(1.14094 0.0414063 0)
(1.14359 0.0371786 0)
(1.14589 0.0332858 0)
(1.14789 0.0296875 0)
(1.14961 0.0263471 0)
(1.15109 0.0232314 0)
(1.15235 0.0203103 0)
(1.15342 0.0175566 0)
(1.15431 0.0149454 0)
(1.15504 0.0124536 0)
(1.15563 0.0100601 0)
(1.15608 0.00774522 0)
(1.15642 0.00549022 0)
(1.15664 0.00327741 0)
(1.15674 0.00108969 0)
(0.984056 0.168934 0)
(1.00939 0.15298 0)
(1.02979 0.138314 0)
(1.04656 0.12519 0)
(1.06056 0.113167 0)
(1.0725 0.102306 0)
(1.08286 0.0924859 0)
(1.09196 0.0836138 0)
(1.10001 0.0755971 0)
(1.10718 0.0683488 0)
(1.11357 0.0617892 0)
(1.11925 0.055845 0)
(1.12429 0.0504489 0)
(1.12876 0.0455402 0)
(1.1327 0.0410638 0)
(1.13616 0.0369698 0)
(1.13919 0.033213 0)
(1.14184 0.029753 0)
(1.14414 0.0265531 0)
(1.14612 0.0235803 0)
(1.14783 0.020805 0)
(1.14928 0.0182004 0)
(1.15051 0.015742 0)
(1.15154 0.013408 0)
(1.15239 0.011178 0)
(1.15307 0.00903356 0)
(1.1536 0.00695731 0)
(1.15399 0.00493304 0)
(1.15425 0.00294533 0)
(1.15437 0.000979371 0)
(0.965766 0.148999 0)
(0.992878 0.133981 0)
(1.01479 0.12075 0)