/*--------------------------------*- C++ -*----------------------------------*\
  =========                 |
  \\      /  F ield         | OpenFOAM: The Open Source CFD Toolbox
   \\    /   O peration     | Website:  https://openfoam.org
    \\  /    A nd           | Version:  7
     \\/     M anipulation  |
\*---------------------------------------------------------------------------*/
FoamFile
{
    version     2.0;
    format      ascii;
    class       surfaceScalarField;
    location    "85";
    object      phi;
}
// * * * * * * * * * * * * * * * * * * * * * * * * * * * * * * * * * * * * * //

dimensions      [0 3 -1 0 0 0 0];

internalField   nonuniform List<scalar> 
6869
(
-0.000218975
0.0147823
0.000246717
-0.000186715
0.0158041
-0.000157846
0.0162606
-0.000133537
0.0164002
-0.000112882
0.0163958
-9.49531e-05
0.0163368
-7.91714e-05
0.0162616
-6.52044e-05
0.0161844
-5.28544e-05
0.0161096
-4.19902e-05
0.016038
-3.25062e-05
0.0159692
-2.43033e-05
0.0159033
-1.72835e-05
0.0158399
-1.135e-05
0.0157793
-6.41309e-06
0.0157215
-2.37804e-06
0.0156667
8.4288e-07
0.0156151
3.33466e-06
0.0155668
5.168e-06
0.0155219
6.41786e-06
0.0154804
7.14888e-06
0.0154426
7.42926e-06
0.0154084
7.31798e-06
0.0153779
6.8716e-06
0.0153511
6.14393e-06
0.0153281
5.18598e-06
0.0153088
4.04593e-06
0.0152934
2.77117e-06
0.0152819
1.40731e-06
0.0152742
0.0152703
-0.000244997
0.0147549
0.000272417
-0.000212134
0.0157712
-0.00018205
0.0162305
-0.000156299
0.0163745
-0.000134207
0.0163737
-0.000114924
0.0163175
-9.78837e-05
0.0162446
-8.27434e-05
0.0161693
-6.92927e-05
0.0160962
-5.73886e-05
0.0160261
-4.69147e-05
0.0159588
-3.77638e-05
0.0158941
-2.98327e-05
0.015832
-2.30209e-05
0.0157725
-1.72306e-05
0.0157157
-1.23674e-05
0.0156619
-8.34254e-06
0.0156111
-5.07316e-06
0.0155635
-2.4791e-06
0.0155193
-4.87102e-07
0.0154785
9.80189e-07
0.0154411
1.98097e-06
0.0154074
2.57705e-06
0.0153773
2.82743e-06
0.0153508
2.78744e-06
0.0153281
2.50998e-06
0.0153091
2.04389e-06
0.0152939
1.43907e-06
0.0152825
7.42008e-07
0.0152749
0.0152711
-0.000270375
0.0147276
0.000297649
-0.000236851
0.0157377
-0.000205553
0.0161992
-0.000178386
0.0163473
-0.00015489
0.0163502
-0.000134289
0.0162969
-0.000116025
0.0162263
-9.97478e-05
0.016153
-8.52335e-05
0.0160817
-7.2326e-05
0.0160132
-6.08976e-05
0.0159473
-5.08335e-05
0.015884
-4.20246e-05
0.0158232
-3.43654e-05
0.0157648
-2.77538e-05
0.0157091
-2.20933e-05
0.0156562
-1.72923e-05
0.0156063
-1.32644e-05
0.0155595
-9.92855e-06
0.0155159
-7.20761e-06
0.0154757
-5.03333e-06
0.0154389
-3.3357e-06
0.0154057
-2.05251e-06
0.015376
-1.12412e-06
0.0153499
-4.9427e-07
0.0153275
-1.09182e-07
0.0153087
8.52831e-08
0.0152937
1.35758e-07
0.0152824
9.1266e-08
0.0152749
0.0152712
-0.000295016
0.0147003
0.000322309
-0.000260787
0.0157035
-0.00022829
0.0161667
-0.000199745
0.0163188
-0.000174887
0.0163253
-0.00015301
0.0162751
-0.000133566
0.0162069
-0.000116194
0.0161357
-0.000100658
0.0160661
-8.67859e-05
0.0159993
-7.44413e-05
0.015935
-6.35007e-05
0.0158731
-5.38487e-05
0.0158135
-4.53747e-05
0.0157563
-3.79735e-05
0.0157017
-3.15451e-05
0.0156498
-2.59953e-05
0.0156007
-2.12357e-05
0.0155547
-1.71834e-05
0.0155119
-1.37612e-05
0.0154723
-1.08958e-05
0.0154361
-8.51921e-06
0.0154033
-6.56661e-06
0.015374
-4.97712e-06
0.0153483
-3.69296e-06
0.0153262
-2.65938e-06
0.0153077
-1.82403e-06
0.0152929
-1.13543e-06
0.0152817
-5.43929e-07
0.0152743
0.0152706
-0.000318825
0.0146729
0.000346284
-0.000283862
0.0156685
-0.000250195
0.016133
-0.000220321
0.0162889
-0.000194154
0.0162992
-0.000171053
0.016252
-0.000150478
0.0161863
-0.00013206
0.0161172
-0.000115546
0.0160496
-0.000100753
0.0159845
-8.75329e-05
0.0159218
-7.57543e-05
0.0158613
-6.52955e-05
0.0158031
-5.60411e-05
0.0157471
-4.78824e-05
0.0156935
-4.0716e-05
0.0156426
-3.44457e-05
0.0155945
-2.89811e-05
0.0155493
-2.42376e-05
0.0155071
-2.01365e-05
0.0154682
-1.66028e-05
0.0154326
-1.35677e-05
0.0154003
-1.09653e-05
0.0153714
-8.73353e-06
0.0153461
-6.81357e-06
0.0153243
-5.1497e-06
0.015306
-3.68776e-06
0.0152914
-2.37616e-06
0.0152804
-1.16372e-06
0.0152731
0.0152695
-0.000341707
0.0146451
0.000369457
-0.000305995
0.0156328
-0.0002712
0.0160982
-0.000240059
0.0162577
-0.000212646
0.0162718
-0.000188382
0.0162277
-0.000166734
0.0161647
-0.000147321
0.0160978
-0.000129879
0.0160322
-0.000114212
0.0159688
-0.00010016
0.0159077
-8.75841e-05
0.0158487
-7.63564e-05
0.0157918
-6.63572e-05
0.0157371
-5.74739e-05
0.0156847
-4.96007e-05
0.0156347
-4.26388e-05
0.0155875
-3.64962e-05
0.0155431
-3.10867e-05
0.0155017
-2.63301e-05
0.0154635
-2.21506e-05
0.0154284
-1.84781e-05
0.0153966
-1.52456e-05
0.0153682
-1.23903e-05
0.0153432
-9.85256e-06
0.0153217
-7.57527e-06
0.0153038
-5.50373e-06
0.0152893
-3.58522e-06
0.0152785
-1.76774e-06
0.0152713
0.0152677
-0.000363563
0.014617
0.000391707
-0.000327106
0.0155963
-0.00029124
0.0160624
-0.000258905
0.0162254
-0.000230322
0.0162432
-0.000204963
0.0162023
-0.000182305
0.016142
-0.000161957
0.0160775
-0.000143642
0.0160139
-0.000127149
0.0159523
-0.000112311
0.0158929
-9.89805e-05
0.0158354
-8.70236e-05
0.0157799
-7.63163e-05
0.0157264
-6.67426e-05
0.0156751
-5.81942e-05
0.0156262
-5.05703e-05
0.0155799
-4.37772e-05
0.0155363
-3.77274e-05
0.0154957
-3.23392e-05
0.0154581
-2.75366e-05
0.0154236
-2.32479e-05
0.0153923
-1.94054e-05
0.0153643
-1.59457e-05
0.0153397
-1.28083e-05
0.0153186
-9.93506e-06
0.0153009
-7.2709e-06
0.0152867
-4.76198e-06
0.015276
-2.3557e-06
0.0152689
0.0152653
-0.0003843
0.0145883
0.000412915
-0.000347118
0.0155591
-0.000310251
0.0160255
-0.00027681
0.016192
-0.00024714
0.0162135
-0.000220765
0.016176
-0.000197168
0.0161184
-0.000175948
0.0160563
-0.000156816
0.0159947
-0.000139552
0.0159351
-0.000123976
0.0158773
-0.000109935
0.0158214
-9.72902e-05
0.0157672
-8.59126e-05
0.015715
-7.56835e-05
0.0156649
-6.64923e-05
0.015617
-5.82364e-05
0.0155716
-5.08208e-05
0.0155289
-4.41567e-05
0.015489
-3.81616e-05
0.0154521
-3.27586e-05
0.0154182
-2.78751e-05
0.0153874
-2.34431e-05
0.0153599
-1.93983e-05
0.0153357
-1.56795e-05
0.0153149
-1.22282e-05
0.0152974
-8.98852e-06
0.0152834
-5.90596e-06
0.0152729
-2.92735e-06
0.0152659
0.0152624
-0.000403824
0.0145592
0.000432962
-0.000365956
0.0155213
-0.000328174
0.0159877
-0.000293725
0.0161575
-0.000263063
0.0161828
-0.000235758
0.0161487
-0.000211297
0.0160939
-0.000189275
0.0160342
-0.000169389
0.0159748
-0.000151409
0.0159171
-0.000135146
0.0158611
-0.000120441
0.0158067
-0.00010715
0.0157539
-9.51412e-05
0.015703
-8.42925e-05
0.015654
-7.44916e-05
0.0156072
-6.56344e-05
0.0155628
-5.76246e-05
0.0155209
-5.03726e-05
0.0154818
-4.37952e-05
0.0154455
-3.78148e-05
0.0154122
-3.23583e-05
0.015382
-2.73573e-05
0.0153549
-2.27468e-05
0.0153311
-1.84653e-05
0.0153106
-1.44539e-05
0.0152934
-1.0656e-05
0.0152796
-7.01677e-06
0.0152693
-3.48249e-06
0.0152624
0.0152589
-0.000422049
0.0145295
0.000451735
-0.000383552
0.0154828
-0.000344953
0.0159491
-0.000309607
0.0161222
-0.000278057
0.0161513
-0.000249915
0.0161205
-0.000224674
0.0160687
-0.000201922
0.0160115
-0.000181348
0.0159543
-0.000162709
0.0158984
-0.000145813
0.0158442
-0.000130492
0.0157913
-0.000116599
0.01574
-0.000103998
0.0156904
-9.25665e-05
0.0156426
-8.21895e-05
0.0155968
-7.27618e-05
0.0155533
-6.41865e-05
0.0155123
-5.63733e-05
0.015474
-4.92384e-05
0.0154384
-4.27039e-05
0.0154057
-3.66964e-05
0.015376
-3.11469e-05
0.0153494
-2.59905e-05
0.0153259
-2.11651e-05
0.0153058
-1.66116e-05
0.0152889
-1.2273e-05
0.0152753
-8.09413e-06
0.0152651
-4.02097e-06
0.0152583
0.0152549
-0.000438896
0.0144993
0.000469129
-0.000399844
0.0154437
-0.000360542
0.0159098
-0.000324417
0.0160861
-0.000292092
0.016119
-0.000263213
0.0160916
-0.00023728
0.0160428
-0.000213877
0.0159881
-0.000192682
0.0159331
-0.000173447
0.0158792
-0.000155971
0.0158267
-0.000140083
0.0157755
-0.000125633
0.0157256
-0.000112481
0.0156772
-0.000100503
0.0156306
-8.95841e-05
0.0155859
-7.96174e-05
0.0155434
-7.05055e-05
0.0155032
-6.21578e-05
0.0154656
-5.44905e-05
0.0154307
-4.74252e-05
0.0153986
-4.08885e-05
0.0153694
-3.48115e-05
0.0153433
-2.91288e-05
0.0153203
-2.37783e-05
0.0153004
-1.87008e-05
0.0152838
-1.38391e-05
0.0152704
-9.13783e-06
0.0152604
-4.54269e-06
0.0152537
0.0152504
-0.000454295
0.0144685
0.000485048
-0.000414779
0.0154042
-0.000374897
0.0158699
-0.000338124
0.0160493
-0.000305144
0.016086
-0.000275633
0.0160621
-0.000249101
0.0160162
-0.000225127
0.0159641
-0.000203383
0.0159113
-0.000183615
0.0158594
-0.000165616
0.0158087
-0.000149212
0.0157591
-0.000134249
0.0157106
-0.000120588
0.0156636
-0.000108102
0.0156181
-9.66746e-05
0.0155745
-8.62002e-05
0.0155329
-7.65808e-05
0.0154936
-6.77256e-05
0.0154568
-5.95508e-05
0.0154225
-5.19782e-05
0.015391
-4.49344e-05
0.0153624
-3.83505e-05
0.0153367
-3.21613e-05
0.0153141
-2.63048e-05
0.0152945
-2.07215e-05
0.0152782
-1.53543e-05
0.0152651
-1.01478e-05
0.0152552
-5.0476e-06
0.0152486
0.0152453
-0.000468185
0.0144373
0.000499407
-0.000428312
0.0153643
-0.000387987
0.0158296
-0.000350703
0.016012
-0.000317193
0.0160525
-0.000287162
0.0160321
-0.000260127
0.0159892
-0.000235666
0.0159396
-0.000213447
0.0158891
-0.00019321
0.0158392
-0.000174746
0.0157902
-0.000157877
0.0157422
-0.000142448
0.0156952
-0.000128318
0.0156494
-0.000115361
0.0156051
-0.000103461
0.0155626
-9.25105e-05
0.015522
-8.24125e-05
0.0154835
-7.30767e-05
0.0154474
-6.44195e-05
0.0154139
-5.6363e-05
0.015383
-4.88341e-05
0.0153548
-4.17641e-05
0.0153296
-3.50882e-05
0.0153074
-2.87443e-05
0.0152882
-2.26734e-05
0.0152721
-1.68184e-05
0.0152592
-1.11239e-05
0.0152495
-5.53569e-06
0.015243
0.0152398
-0.000480519
0.0144057
0.000512137
-0.00044041
0.0153242
-0.000399785
0.015789
-0.000362135
0.0159743
-0.000328227
0.0160186
-0.00029779
0.0160017
-0.000270352
0.0159618
-0.00024549
0.0159148
-0.00022287
0.0158665
-0.000202231
0.0158186
-0.00018336
0.0157713
-0.000166078
0.0157249
-0.000150229
0.0156794
-0.000135673
0.0156349
-0.000122283
0.0155918
-0.000109944
0.0155502
-9.85489e-05
0.0155106
-8.80015e-05
0.015473
-7.82119e-05
0.0154376
-6.90972e-05
0.0154047
-6.058e-05
0.0153744
-5.25879e-05
0.0153469
-4.50526e-05
0.0153221
-3.79095e-05
0.0153002
-3.10973e-05
0.0152814
-2.45569e-05
0.0152656
-1.82316e-05
0.0152529
-1.20664e-05
0.0152433
-6.00698e-06
0.015237
0.0152338
-0.000491263
0.0143738
0.000523183
-0.000451051
0.015284
-0.000410278
0.0157482
-0.000372409
0.0159365
-0.000338237
0.0159844
-0.000307513
0.0159709
-0.000279773
0.015934
-0.000254598
0.0158896
-0.000231655
0.0158435
-0.000210679
0.0157976
-0.00019146
0.0157521
-0.000173817
0.0157073
-0.000157595
0.0156631
-0.000142655
0.0156199
-0.00012887
0.015578
-0.000116125
0.0155375
-0.000104317
0.0154988
-9.33492e-05
0.015462
-8.31325e-05
0.0154274
-7.3585e-05
0.0153952
-6.46303e-05
0.0153655
-5.61967e-05
0.0153384
-4.82165e-05
0.0153141
-4.0626e-05
0.0152927
-3.3364e-05
0.0152741
-2.63722e-05
0.0152586
-1.95942e-05
0.0152461
-1.29752e-05
0.0152367
-6.46154e-06
0.0152304
0.0152273
-0.000500396
0.0143417
0.000532505
-0.000460224
0.0152439
-0.00041946
0.0157074
-0.000381525
0.0158985
-0.000347226
0.0159501
-0.000316333
0.01594
-0.000288393
0.0159061
-0.000262994
0.0158642
-0.000239803
0.0158204
-0.000218559
0.0157763
-0.00019905
0.0157326
-0.000181098
0.0156893
-0.000164549
0.0156466
-0.000149266
0.0156047
-0.000135123
0.0155638
-0.000122008
0.0155244
-0.000109818
0.0154866
-9.84578e-05
0.0154506
-8.78403e-05
0.0154168
-7.78846e-05
0.0153852
-6.85153e-05
0.0153561
-5.96616e-05
0.0153296
-5.1257e-05
0.0153057
-4.32382e-05
0.0152846
-3.55451e-05
0.0152664
-2.81197e-05
0.0152512
-2.09064e-05
0.0152389
-1.38507e-05
0.0152297
-6.89949e-06
0.0152235
0.0152204
-0.000507913
0.0143095
0.000540083
-0.000467931
0.0152039
-0.000427336
0.0156669
-0.000389489
0.0158607
-0.0003552
0.0159158
-0.000324256
0.0159091
-0.00029622
0.015878
-0.000270685
0.0158387
-0.000247323
0.015797
-0.000225876
0.0157549
-0.000206136
0.0157129
-0.000187927
0.0156711
-0.000171097
0.0156298
-0.000155511
0.0155891
-0.000141048
0.0155494
-0.000127596
0.0155109
-0.000115055
0.015474
-0.00010333
0.0154389
-9.23379e-05
0.0154058
-8.19981e-05
0.0153749
-7.22367e-05
0.0153464
-6.29842e-05
0.0153203
-5.41752e-05
0.0152969
-4.57474e-05
0.0152762
-3.76414e-05
0.0152583
-2.98002e-05
0.0152433
-2.21687e-05
0.0152313
-1.46932e-05
0.0152222
-7.32099e-06
0.0152161
0.0152131
-0.000513822
0.0142774
0.000545913
-0.000474186
0.0151642
-0.000433922
0.0156266
-0.000396315
0.0158231
-0.000362172
0.0158817
-0.000331297
0.0158782
-0.000303265
0.01585
-0.000277682
0.0158131
-0.000254224
0.0157735
-0.000232641
0.0157333
-0.000212727
0.015693
-0.000194311
0.0156527
-0.000177245
0.0156127
-0.000161398
0.0155732
-0.00014665
0.0155346
-0.000132894
0.0154972
-0.000120031
0.0154612
-0.00010797
0.0154268
-9.66284e-05
0.0153945
-8.59281e-05
0.0153642
-7.57968e-05
0.0153362
-6.61665e-05
0.0153107
-5.69728e-05
0.0152877
-4.81548e-05
0.0152674
-3.96541e-05
0.0152498
-3.14145e-05
0.0152351
-2.33818e-05
0.0152232
-1.5503e-05
0.0152143
-7.72621e-06
0.0152083
0.0152054
-0.000518148
0.0142455
0.000550009
-0.000479016
0.0151251
-0.000439245
0.0155868
-0.000402028
0.0157859
-0.000368165
0.0158478
-0.000337473
0.0158475
-0.000309546
0.0158221
-0.000283999
0.0157875
-0.000260521
0.0157501
-0.000238864
0.0157117
-0.000218832
0.0156729
-0.000200259
0.0156341
-0.000183002
0.0155954
-0.000166932
0.0155572
-0.000151935
0.0155196
-0.000137907
0.0154831
-0.000124752
0.015448
-0.000112382
0.0154145
-0.000100715
0.0153828
-8.96779e-05
0.0153532
-7.91984e-05
0.0153257
-6.92106e-05
0.0153007
-5.96517e-05
0.0152781
-5.0462e-05
0.0152582
-4.15843e-05
0.015241
-3.29635e-05
0.0152265
-2.45463e-05
0.0152148
-1.62806e-05
0.015206
-8.1154e-06
0.0152002
0.0151972
-0.000520929
0.0142141
0.000552404
-0.000482461
0.0150866
-0.000443339
0.0155477
-0.00040666
0.0157492
-0.000373205
0.0158144
-0.00034281
0.0158171
-0.000315084
0.0157944
-0.000289657
0.0157621
-0.000266228
0.0157266
-0.000244561
0.01569
-0.000224466
0.0156528
-0.000205784
0.0156154
-0.000188377
0.015578
-0.000172123
0.0155409
-0.000156911
0.0155044
-0.000142642
0.0154689
-0.000129223
0.0154346
-0.00011657
0.0154018
-0.000104603
0.0153708
-9.3251e-05
0.0153418
-8.24445e-05
0.0153149
-7.21192e-05
0.0152904
-6.2214e-05
0.0152682
-5.26707e-05
0.0152487
-4.34334e-05
0.0152317
-3.44483e-05
0.0152175
-2.5663e-05
0.015206
-1.70266e-05
0.0151974
-8.48881e-06
0.0151916
0.0151888
-0.00052222
0.0141831
0.000553149
-0.000484572
0.015049
-0.000446252
0.0155094
-0.00041025
0.0157132
-0.000377329
0.0157814
-0.000347338
0.0157871
-0.000319905
0.0157669
-0.000294677
0.0157369
-0.000271367
0.0157033
-0.000249749
0.0156684
-0.000229642
0.0156327
-0.000210897
0.0155967
-0.000193382
0.0155605
-0.00017698
0.0155245
-0.000161587
0.015489
-0.000147107
0.0154544
-0.000133451
0.0154209
-0.00012054
0.0153889
-0.000108297
0.0153586
-9.66516e-05
0.0153302
-8.55385e-05
0.0153038
-7.48952e-05
0.0152797
-6.46622e-05
0.015258
-5.4783e-05
0.0152388
-4.52032e-05
0.0152221
-3.58702e-05
0.0152082
-2.67329e-05
0.0151969
-1.77415e-05
0.0151884
-8.84674e-06
0.0151827
0.0151799
-0.000522087
0.0141529
0.00055231
-0.000485411
0.0150123
-0.000448039
0.015472
-0.000412847
0.015678
-0.000380577
0.0157492
-0.000351092
0.0157577
-0.000324039
0.0157399
-0.000299085
0.0157119
-0.000275959
0.0156802
-0.000254446
0.0156469
-0.000234379
0.0156127
-0.000215614
0.0155779
-0.000198029
0.0155429
-0.000181514
0.015508
-0.000165971
0.0154735
-0.000151309
0.0154397
-0.000137444
0.0154071
-0.000124298
0.0153758
-0.000111801
0.0153461
-9.98841e-05
0.0153182
-8.84844e-05
0.0152924
-7.75418e-05
0.0152688
-6.6999e-05
0.0152475
-5.68011e-05
0.0152286
-4.68953e-05
0.0152122
-3.72305e-05
0.0151985
-2.7757e-05
0.0151874
-1.8426e-05
0.0151791
-9.18952e-06
0.0151735
0.0151707
-0.000520611
0.0141236
0.000549969
-0.000485051
0.0149767
-0.000448764
0.0154357
-0.000414506
0.0156437
-0.000382997
0.0157177
-0.000354111
0.0157288
-0.000327521
0.0157133
-0.000302912
0.0156873
-0.000280029
0.0156573
-0.000258676
0.0156255
-0.000238693
0.0155927
-0.00021995
0.0155592
-0.000202332
0.0155253
-0.000185738
0.0154914
-0.000170075
0.0154578
-0.000155258
0.0154249
-0.000141208
0.015393
-0.000127852
0.0153624
-0.000115122
0.0153334
-0.000102953
0.0153061
-9.12863e-05
0.0152808
-8.00626e-05
0.0152576
-6.92273e-05
0.0152366
-5.87274e-05
0.0152181
-4.85117e-05
0.015202
-3.85308e-05
0.0151885
-2.87363e-05
0.0151776
-1.90808e-05
0.0151694
-9.51751e-06
0.0151639
0.0151612
-0.000517882
0.0140952
0.000546223
-0.000483576
0.0149424
-0.0004485
0.0154006
-0.00041529
0.0156105
-0.00038464
0.015687
-0.000356442
0.0157006
-0.000330389
0.0156872
-0.000306189
0.0156631
-0.000283607
0.0156347
-0.000262461
0.0156044
-0.000242606
0.0155728
-0.000223923
0.0155405
-0.000206307
0.0155077
-0.000189664
0.0154748
-0.000173909
0.0154421
-0.000158963
0.01541
-0.000144752
0.0153788
-0.000131207
0.0153489
-0.000118265
0.0153204
-0.000105865
0.0152937
-9.39487e-05
0.0152688
-8.24614e-05
0.0152461
-7.13503e-05
0.0152255
-6.05644e-05
0.0152073
-5.00546e-05
0.0151915
-3.97728e-05
0.0151782
-2.96722e-05
0.0151675
-1.97068e-05
0.0151595
-9.83109e-06
0.0151541
0.0151514
-0.000514003
0.014068
0.000541182
-0.000481077
0.0149095
-0.000447326
0.0153669
-0.000415266
0.0155785
-0.000385566
0.0156573
-0.000358132
0.0156731
-0.000332684
0.0156618
-0.000308951
0.0156394
-0.000286721
0.0156125
-0.000265827
0.0155835
-0.000246141
0.0155531
-0.000227553
0.0155219
-0.00020997
0.0154901
-0.000193307
0.0154581
-0.000177486
0.0154262
-0.000162435
0.0153949
-0.000148085
0.0153645
-0.000134372
0.0153352
-0.000121238
0.0153073
-0.000108624
0.0152811
-9.64763e-05
0.0152567
-8.47421e-05
0.0152343
-7.33713e-05
0.0152141
-6.2315e-05
0.0151962
-5.1526e-05
0.0151807
-4.0958e-05
0.0151677
-3.05657e-05
0.0151571
-2.03047e-05
0.0151492
-1.01307e-05
0.0151439
0.0151412
-0.000509086
0.0140422
0.000534965
-0.000477653
0.0148781
-0.000445328
0.0153346
-0.000414507
0.0155476
-0.000385835
0.0156286
-0.000359235
0.0156465
-0.000334451
0.015637
-0.000311238
0.0156162
-0.000289404
0.0155907
-0.000268803
0.0155629
-0.00024932
0.0155337
-0.000230859
0.0155034
-0.000213338
0.0154726
-0.000196682
0.0154414
-0.000180819
0.0154104
-0.000165684
0.0153798
-0.000151216
0.01535
-0.000137356
0.0153213
-0.000124047
0.015294
-0.000111237
0.0152683
-9.88741e-05
0.0152443
-8.6909e-05
0.0152224
-7.52938e-05
0.0152025
-6.39821e-05
0.0151849
-5.29284e-05
0.0151697
-4.20883e-05
0.0151568
-3.14183e-05
0.0151465
-2.08753e-05
0.0151387
-1.04167e-05
0.0151334
0.0151308
-0.00050325
0.0140177
0.000527702
-0.000473411
0.0148482
-0.000442598
0.0153038
-0.000413092
0.0155181
-0.000385515
0.0156011
-0.000359806
0.0156208
-0.000335737
0.0156129
-0.000313088
0.0155935
-0.00029169
0.0155693
-0.000271417
0.0155426
-0.000252168
0.0155144
-0.000233863
0.0154851
-0.00021643
0.0154551
-0.000199803
0.0154248
-0.00018392
0.0153945
-0.000168723
0.0153646
-0.000154156
0.0153354
-0.000140165
0.0153073
-0.0001267
0.0152805
-0.00011371
0.0152553
-0.000101147
0.0152318
-8.89665e-05
0.0152102
-7.71216e-05
0.0151907
-6.55686e-05
0.0151734
-5.42642e-05
0.0151584
-4.31657e-05
0.0151457
-3.22314e-05
0.0151355
-2.14197e-05
0.0151278
-1.06896e-05
0.0151227
0.0151201
-0.000496621
0.0139948
0.000519531
-0.000468461
0.0148201
-0.000439231
0.0152745
-0.000411101
0.01549
-0.000384673
0.0155746
-0.000359904
0.0155961
-0.000336591
0.0155896
-0.000314543
0.0155715
-0.000293615
0.0155483
-0.000273698
0.0155227
-0.000254711
0.0154954
-0.000236586
0.015467
-0.000219263
0.0154378
-0.000202687
0.0154082
-0.000186804
0.0153786
-0.000171563
0.0153493
-0.000156914
0.0153208
-0.00014281
0.0152932
-0.000129203
0.0152669
-0.000116048
0.0152421
-0.000103302
0.015219
-9.09192e-05
0.0151978
-7.88585e-05
0.0151786
-6.70778e-05
0.0151616
-5.55358e-05
0.0151468
-4.41921e-05
0.0151344
-3.30063e-05
0.0151243
-2.19388e-05
0.0151168
-1.09498e-05
0.0151117
0.0151092
-0.000489328
0.0139735
0.000510595
-0.000462918
0.0147937
-0.000435327
0.0152469
-0.000408619
0.0154633
-0.000383381
0.0155494
-0.000359588
0.0155723
-0.000337064
0.0155671
-0.000315647
0.0155501
-0.000295215
0.0155279
-0.000275679
0.0155031
-0.000256976
0.0154767
-0.000239052
0.0154491
-0.000221859
0.0154206
-0.000205351
0.0153917
-0.000189485
0.0153627
-0.000174216
0.0153341
-0.000159501
0.0153061
-0.000145298
0.015279
-0.000131565
0.0152532
-0.00011826
0.0152288
-0.000105342
0.0152061
-9.27717e-05
0.0151852
-8.05083e-05
0.0151664
-6.85127e-05
0.0151496
-5.6746e-05
0.015135
-4.51694e-05
0.0151228
-3.37446e-05
0.0151129
-2.24335e-05
0.0151055
-1.11979e-05
0.0151005
0.015098
-0.000481506
0.013954
0.000501045
-0.000456899
0.0147691
-0.000430985
0.015221
-0.000405733
0.0154381
-0.000381712
0.0155254
-0.00035892
0.0155495
-0.000337209
0.0155454
-0.000316444
0.0155293
-0.000296527
0.015508
-0.000277391
0.015484
-0.000258989
0.0154583
-0.000241282
0.0154314
-0.000224235
0.0154036
-0.000207812
0.0153753
-0.000191977
0.0153469
-0.000176695
0.0153188
-0.000161928
0.0152913
-0.00014764
0.0152647
-0.000133794
0.0152393
-0.000120351
0.0152154
-0.000107275
0.015193
-9.45288e-05
0.0151725
-8.2075e-05
0.0151539
-6.98768e-05
0.0151374
-5.78973e-05
0.0151231
-4.60998e-05
0.015111
-3.44478e-05
0.0151013
-2.29048e-05
0.0150939
-1.14343e-05
0.015089
0.0150866
-0.00047329
0.0139363
0.00049103
-0.000450524
0.0147463
-0.00042631
0.0151968
-0.000402528
0.0154143
-0.00037974
0.0155026
-0.000357962
0.0155277
-0.000337077
0.0155245
-0.000316977
0.0155092
-0.000297589
0.0154886
-0.000278866
0.0154653
-0.000260779
0.0154402
-0.000243302
0.0154139
-0.000226412
0.0153867
-0.000210086
0.015359
-0.000194295
0.0153311
-0.000179012
0.0153035
-0.000164205
0.0152765
-0.000149844
0.0152503
-0.000135896
0.0152254
-0.000122328
0.0152018
-0.000109106
0.0151798
-9.61954e-05
0.0151596
-8.35628e-05
0.0151413
-7.11733e-05
0.015125
-5.89924e-05
0.0151109
-4.69853e-05
0.015099
-3.51173e-05
0.0150894
-2.33537e-05
0.0150822
-1.16595e-05
0.0150773
0.0150749
-0.000464817
0.0139204
0.000480705
-0.000443911
0.0147254
-0.000421402
0.0151743
-0.000399092
0.015392
-0.000377537
0.015481
-0.000356776
0.0155069
-0.000336721
0.0155044
-0.000317292
0.0154898
-0.000298439
0.0154697
-0.000280136
0.015447
-0.000262371
0.0154225
-0.000245133
0.0153967
-0.000228411
0.01537
-0.000212191
0.0153428
-0.000196454
0.0153154
-0.00018118
0.0152882
-0.000166344
0.0152616
-0.00015192
0.0152359
-0.000137881
0.0152113
-0.000124198
0.0151881
-0.00011084
0.0151664
-9.77763e-05
0.0151465
-8.49756e-05
0.0151285
-7.24056e-05
0.0151124
-6.0034e-05
0.0150985
-4.7828e-05
0.0150868
-3.57548e-05
0.0150773
-2.37812e-05
0.0150702
-1.1874e-05
0.0150654
0.015063
-0.000456222
0.0139064
0.00047022
-0.000437179
0.0147064
-0.000416363
0.0151535
-0.000395511
0.0153711
-0.000375177
0.0154607
-0.000355424
0.0154872
-0.000336194
0.0154852
-0.000317432
0.015471
-0.000299114
0.0154514
-0.000281233
0.0154291
-0.000263794
0.015405
-0.000246799
0.0153797
-0.000230251
0.0153534
-0.000214143
0.0153266
-0.000198468
0.0152997
-0.000183211
0.015273
-0.000168354
0.0152468
-0.000153877
0.0152214
-0.000139757
0.0151972
-0.000125968
0.0151743
-0.000112483
0.015153
-9.92764e-05
0.0151333
-8.63175e-05
0.0151155
-7.3577e-05
0.0150997
-6.10248e-05
0.015086
-4.86301e-05
0.0150744
-3.63617e-05
0.0150651
-2.41884e-05
0.015058
-1.20784e-05
0.0150533
0.0150509
-0.000447637
0.0138943
0.000459726
-0.000430442
0.0146892
-0.000411293
0.0151343
-0.00039187
0.0153517
-0.000372732
0.0154416
-0.000353967
0.0154684
-0.000335546
0.0154668
-0.000317441
0.0154529
-0.000299651
0.0154336
-0.000282189
0.0154116
-0.000265074
0.0153879
-0.000248324
0.0153629
-0.000231951
0.0153371
-0.000215961
0.0153107
-0.000200352
0.0152841
-0.000185118
0.0152577
-0.000170247
0.0152319
-0.000155724
0.0152069
-0.00014153
0.015183
-0.000127644
0.0151604
-0.000114042
0.0151394
-0.0001007
0.01512
-8.75925e-05
0.0151024
-7.46909e-05
0.0150868
-6.19675e-05
0.0150732
-4.93935e-05
0.0150618
-3.69397e-05
0.0150526
-2.45762e-05
0.0150457
-1.2273e-05
0.015041
0.0150387
-0.000439191
0.0138841
0.000449369
-0.000423814
0.0146738
-0.000406287
0.0151168
-0.00038825
0.0153336
-0.00037027
0.0154236
-0.000352463
0.0154506
-0.000334827
0.0154492
-0.000317362
0.0154354
-0.000300086
0.0154164
-0.000283033
0.0153946
-0.000266237
0.0153711
-0.000249728
0.0153464
-0.000233531
0.0153209
-0.000217659
0.0152948
-0.000202119
0.0152686
-0.000186913
0.0152425
-0.000172033
0.015217
-0.00015747
0.0151924
-0.000143209
0.0151688
-0.000129232
0.0151465
-0.000115521
0.0151256
-0.000102053
0.0151065
-8.88047e-05
0.0150892
-7.57505e-05
0.0150737
-6.28648e-05
0.0150604
-5.01205e-05
0.0150491
-3.74901e-05
0.01504
-2.49456e-05
0.0150331
-1.24585e-05
0.0150285
0.0150262
-0.000431008
0.0138758
0.000439288
-0.0004174
0.0146602
-0.000401438
0.0151008
-0.000384729
0.0153169
-0.000367858
0.0154067
-0.000350968
0.0154337
-0.000334085
0.0154323
-0.000317234
0.0154186
-0.000300454
0.0153996
-0.000283796
0.0153779
-0.000267309
0.0153546
-0.000251035
0.0153301
-0.000235009
0.0153048
-0.000219254
0.015279
-0.000203785
0.0152531
-0.000188607
0.0152274
-0.000173722
0.0152022
-0.000159123
0.0151778
-0.000144801
0.0151544
-0.000130741
0.0151324
-0.000116927
0.0151118
-0.00010334
0.0150929
-8.99579e-05
0.0150758
-7.67591e-05
0.0150605
-6.37192e-05
0.0150473
-5.0813e-05
0.0150362
-3.80146e-05
0.0150272
-2.52977e-05
0.0150204
-1.26353e-05
0.0150158
0.0150136
-0.000423204
0.0138694
0.000429617
-0.000411302
0.0146483
-0.000396831
0.0150864
-0.000381382
0.0153015
-0.000365559
0.0153909
-0.000349535
0.0154177
-0.000333365
0.0154161
-0.000317096
0.0154023
-0.000300787
0.0153833
-0.000284505
0.0153616
-0.000268313
0.0153384
-0.000252264
0.0153141
-0.000236403
0.015289
-0.000220761
0.0152634
-0.00020536
0.0152377
-0.000190213
0.0152122
-0.000175324
0.0151873
-0.000160693
0.0151631
-0.000146313
0.0151401
-0.000132175
0.0151183
-0.000118264
0.0150979
-0.000104564
0.0150792
-9.1056e-05
0.0150623
-7.77199e-05
0.0150472
-6.45333e-05
0.0150341
-5.14729e-05
0.0150231
-3.85146e-05
0.0150142
-2.56334e-05
0.0150075
-1.28038e-05
0.015003
0.0150008
-0.000415888
0.0138648
0.000420482
-0.000405615
0.014638
-0.000392548
0.0150733
-0.000378277
0.0152872
-0.000363432
0.015376
-0.000348216
0.0154025
-0.00033271
0.0154006
-0.000316984
0.0153866
-0.000301116
0.0153674
-0.000285187
0.0153457
-0.000269272
0.0153225
-0.000253435
0.0152983
-0.00023773
0.0152733
-0.000222195
0.0152478
-0.000206859
0.0152224
-0.00019174
0.0151971
-0.000176849
0.0151724
-0.000162187
0.0151485
-0.000147753
0.0151256
-0.00013354
0.015104
-0.000119537
0.0150839
-0.00010573
0.0150654
-9.21026e-05
0.0150486
-7.86358e-05
0.0150337
-6.53096e-05
0.0150208
-5.21023e-05
0.0150099
-3.89915e-05
0.0150011
-2.59536e-05
0.0149945
-1.29646e-05
0.01499
0.0149878
-0.00040916
0.013862
0.000411998
-0.000400424
0.0146293
-0.000388663
0.0150615
-0.000375477
0.015274
-0.00036153
0.0153621
-0.000347054
0.015388
-0.000332158
0.0153857
-0.000316932
0.0153714
-0.00030147
0.0153519
-0.000285867
0.0153301
-0.000270207
0.0153069
-0.000254567
0.0152826
-0.000239005
0.0152577
-0.000223569
0.0152324
-0.000208293
0.0152071
-0.0001932
0.015182
-0.000178304
0.0151575
-0.000163613
0.0151338
-0.000149128
0.0151111
-0.000134844
0.0150898
-0.000120753
0.0150698
-0.000106843
0.0150515
-9.31013e-05
0.0150349
-7.95098e-05
0.0150202
-6.60504e-05
0.0150073
-5.2703e-05
0.0149966
-3.94467e-05
0.0149879
-2.62592e-05
0.0149813
-1.3118e-05
0.0149769
0.0149747
-0.000403111
0.0138608
0.000404271
-0.000395807
0.014622
-0.000385242
0.015051
-0.00037304
0.0152618
-0.000359901
0.015349
-0.000346092
0.0153742
-0.000331746
0.0153714
-0.000316971
0.0153566
-0.000301876
0.0153369
-0.000286566
0.0153148
-0.000271139
0.0152914
-0.000255675
0.0152672
-0.000240244
0.0152423
-0.000224897
0.0152171
-0.000209673
0.0151919
-0.000194602
0.0151669
-0.0001797
0.0151426
-0.000164979
0.0151191
-0.000150443
0.0150966
-0.00013609
0.0150754
-0.000121914
0.0150557
-0.000107907
0.0150375
-9.40554e-05
0.0150211
-8.03448e-05
0.0150064
-6.6758e-05
0.0149938
-5.32768e-05
0.0149831
-3.98814e-05
0.0149745
-2.65511e-05
0.014968
-1.32646e-05
0.0149636
0.0149614
-0.00039782
0.0138612
0.000397393
-0.000391831
0.014616
-0.000382343
0.0150415
-0.000371015
0.0152505
-0.00035859
0.0153365
-0.000345368
0.015361
-0.000331505
0.0153575
-0.000317127
0.0153422
-0.000302356
0.0153221
-0.000287306
0.0152998
-0.000272084
0.0152762
-0.000256777
0.0152518
-0.000241459
0.015227
-0.000226189
0.0152018
-0.00021101
0.0151767
-0.000195954
0.0151519
-0.000181043
0.0151277
-0.000166291
0.0151043
-0.000151704
0.015082
-0.000137284
0.015061
-0.000123026
0.0150414
-0.000108925
0.0150234
-9.49682e-05
0.0150071
-8.11433e-05
0.0149926
-6.74347e-05
0.01498
-5.38254e-05
0.0149695
-4.0297e-05
0.0149609
-2.68302e-05
0.0149545
-1.34047e-05
0.0149502
0.014948
-0.000393354
0.0138631
0.000391448
-0.000388555
0.0146112
-0.000380016
0.0150329
-0.000369445
0.0152399
-0.000357632
0.0153247
-0.000344911
0.0153483
-0.000331462
0.015344
-0.000317425
0.0153282
-0.000302931
0.0153076
-0.000288105
0.0152849
-0.000273058
0.0152612
-0.000257885
0.0152367
-0.000242663
0.0152117
-0.000227457
0.0151866
-0.000212312
0.0151615
-0.000197265
0.0151368
-0.00018234
0.0151127
-0.000167555
0.0150895
-0.000152917
0.0150674
-0.00013843
0.0150465
-0.000124094
0.0150271
-0.000109901
0.0150092
-9.58427e-05
0.014993
-8.19079e-05
0.0149787
-6.80823e-05
0.0149662
-5.43503e-05
0.0149557
-4.06946e-05
0.0149473
-2.70971e-05
0.0149409
-1.35387e-05
0.0149366
0.0149345
-0.000389771
0.0138664
0.000386502
-0.000386026
0.0146074
-0.000378301
0.0150252
-0.000368365
0.01523
-0.000357058
0.0153134
-0.00034475
0.0153359
-0.000331641
0.0153309
-0.000317884
0.0153144
-0.00030362
0.0152933
-0.000288978
0.0152703
-0.000274075
0.0152463
-0.000259011
0.0152216
-0.000243867
0.0151966
-0.000228709
0.0151714
-0.000213588
0.0151464
-0.000198543
0.0151218
-0.000183599
0.0150978
-0.000168777
0.0150747
-0.000154087
0.0150527
-0.000139534
0.0150319
-0.000125119
0.0150126
-0.000110838
0.0149949
-9.66816e-05
0.0149789
-8.26409e-05
0.0149646
-6.8703e-05
0.0149523
-5.48531e-05
0.0149419
-4.10754e-05
0.0149335
-2.73527e-05
0.0149272
-1.3667e-05
0.0149229