/*--------------------------------*- C++ -*----------------------------------*\
  =========                 |
  \\      /  F ield         | OpenFOAM: The Open Source CFD Toolbox
   \\    /   O peration     | Website:  https://openfoam.org
    \\  /    A nd           | Version:  7
     \\/     M anipulation  |
\*---------------------------------------------------------------------------*/
FoamFile
{
    version     2.0;
    format      ascii;
    class       volScalarField;
    location    "30";
    object      p;
}
// * * * * * * * * * * * * * * * * * * * * * * * * * * * * * * * * * * * * * //

dimensions      [0 2 -2 0 0 0 0];

internalField   nonuniform List<scalar> 
49200
(
-0.217852
-0.219748
-0.220624
-0.221376
-0.222009
-0.222567
-0.22309
-0.223594
-0.224085
-0.22456
-0.225015
-0.225442
-0.225833
-0.226177
-0.226468
-0.226695
-0.226852
-0.226932
-0.226933
-0.226854
-0.226698
-0.226477
-0.226203
-0.22589
-0.225581
-0.217959
-0.219842
-0.220711
-0.221458
-0.222087
-0.222642
-0.223162
-0.223663
-0.224152
-0.224625
-0.225079
-0.225505
-0.225894
-0.226238
-0.226527
-0.226753
-0.226909
-0.226988
-0.226985
-0.226902
-0.22674
-0.226511
-0.226229
-0.225901
-0.225581
-0.218173
-0.220028
-0.220885
-0.221622
-0.222242
-0.22279
-0.223304
-0.2238
-0.224284
-0.224754
-0.225205
-0.225628
-0.226015
-0.226357
-0.226645
-0.22687
-0.227023
-0.227098
-0.227091
-0.226999
-0.226826
-0.226582
-0.226281
-0.225926
-0.225584
-0.218491
-0.220304
-0.221144
-0.221865
-0.222472
-0.223009
-0.223515
-0.224003
-0.224481
-0.224945
-0.225391
-0.22581
-0.226194
-0.226534
-0.226819
-0.227041
-0.227191
-0.227261
-0.227246
-0.227143
-0.226952
-0.226686
-0.226359
-0.225962
-0.225584
-0.21891
-0.220668
-0.221484
-0.222184
-0.222775
-0.223298
-0.223791
-0.224269
-0.224737
-0.225193
-0.225633
-0.226047
-0.226426
-0.226762
-0.227044
-0.227263
-0.227409
-0.227473
-0.227448
-0.227329
-0.227116
-0.226821
-0.226459
-0.226006
-0.225575
-0.219423
-0.221116
-0.221902
-0.222577
-0.223146
-0.223651
-0.224128
-0.224592
-0.225049
-0.225495
-0.225926
-0.226332
-0.226706
-0.227037
-0.227315
-0.227529
-0.22767
-0.227726
-0.22769
-0.227553
-0.227314
-0.226982
-0.226577
-0.226055
-0.225547
-0.220027
-0.221643
-0.222394
-0.223039
-0.223581
-0.224064
-0.224522
-0.224969
-0.22541
-0.225843
-0.226263
-0.22666
-0.227026
-0.227351
-0.227623
-0.227832
-0.227967
-0.228015
-0.227966
-0.227809
-0.227539
-0.227165
-0.226708
-0.226104
-0.225489
-0.220714
-0.222243
-0.222955
-0.223564
-0.224076
-0.224532
-0.224966
-0.225392
-0.225815
-0.226232
-0.226638
-0.227024
-0.22738
-0.227696
-0.227961
-0.228163
-0.228291
-0.22833
-0.228267
-0.22809
-0.227786
-0.227364
-0.226848
-0.226151
-0.225385
-0.221476
-0.222912
-0.223579
-0.224148
-0.224625
-0.22505
-0.225456
-0.225856
-0.226257
-0.226654
-0.227042
-0.227413
-0.227757
-0.228062
-0.228318
-0.228513
-0.228632
-0.228661
-0.228584
-0.228385
-0.228047
-0.227571
-0.226989
-0.226196
-0.225212
-0.222308
-0.223643
-0.224261
-0.224785
-0.225222
-0.22561
-0.225983
-0.226354
-0.226727
-0.227101
-0.227468
-0.227821
-0.228148
-0.228441
-0.228686
-0.22887
-0.228979
-0.228997
-0.228906
-0.228684
-0.228312
-0.22778
-0.227127
-0.226248
-0.224915
-0.2232
-0.22443
-0.224995
-0.225469
-0.22586
-0.226207
-0.226542
-0.226877
-0.227219
-0.227564
-0.227905
-0.228236
-0.228544
-0.22882
-0.229051
-0.229223
-0.229321
-0.229326
-0.229219
-0.228977
-0.22857
-0.227981
-0.227256
-0.226324
-0.224461
-0.224146
-0.225267
-0.225775
-0.226195
-0.226536
-0.226835
-0.227125
-0.22742
-0.227724
-0.228035
-0.228346
-0.22865
-0.228935
-0.22919
-0.229403
-0.22956
-0.229643
-0.229635
-0.229512
-0.229247
-0.228808
-0.228166
-0.227353
-0.226294
-0.224179
-0.225138
-0.226149
-0.226597
-0.226957
-0.227242
-0.227488
-0.227727
-0.227974
-0.228234
-0.228505
-0.228781
-0.229052
-0.229309
-0.22954
-0.229731
-0.229868
-0.229934
-0.229909
-0.229768
-0.229481
-0.229011
-0.22832
-0.227416
-0.226258
-0.223745
-0.22617
-0.22707
-0.227455
-0.227751
-0.227973
-0.228159
-0.228341
-0.228534
-0.228743
-0.228968
-0.229201
-0.229435
-0.229658
-0.229859
-0.230023
-0.230137
-0.230182
-0.230136
-0.229974
-0.229663
-0.229161
-0.228425
-0.227423
-0.226229
-0.223148
-0.227236
-0.228027
-0.228345
-0.228572
-0.228726
-0.228845
-0.228961
-0.229092
-0.229244
-0.229415
-0.2296
-0.229789
-0.229973
-0.230138
-0.230271
-0.230356
-0.230375
-0.230304
-0.230116
-0.229777
-0.22924
-0.228465
-0.227346
-0.226193
-0.222406
-0.228331
-0.229016
-0.229264
-0.229417
-0.229495
-0.229539
-0.229583
-0.229644
-0.22973
-0.229841
-0.22997
-0.230108
-0.230246
-0.23037
-0.230465
-0.230516
-0.230503
-0.230401
-0.230182
-0.229811
-0.229231
-0.228423
-0.227155
-0.226134
-0.221521
-0.229452
-0.230033
-0.23021
-0.230283
-0.230279
-0.230241
-0.230203
-0.230186
-0.230198
-0.23024
-0.230305
-0.230387
-0.230472
-0.230548
-0.2306
-0.23061
-0.230558
-0.23042
-0.230162
-0.229751
-0.229117
-0.228286
-0.226822
-0.226028
-0.220502
-0.230597
-0.231079
-0.23118
-0.231169
-0.231075
-0.230946
-0.230818
-0.230714
-0.230643
-0.230608
-0.230604
-0.23062
-0.230646
-0.230668
-0.23067
-0.230634
-0.230537
-0.230354
-0.23005
-0.229592
-0.228886
-0.228042
-0.226323
-0.225844
-0.219367
-0.231766
-0.232152
-0.232175
-0.232073
-0.231882
-0.231653
-0.231426
-0.231226
-0.231065
-0.230945
-0.230862
-0.230807
-0.230767
-0.230729
-0.230675
-0.230585
-0.230437
-0.230201
-0.229841
-0.229327
-0.228529
-0.22768
-0.22565
-0.225536
-0.218152
-0.232959
-0.233254
-0.233195
-0.232996
-0.232701
-0.232363
-0.232029
-0.231724
-0.231463
-0.23125
-0.231081
-0.230947
-0.230835
-0.23073
-0.230614
-0.230464
-0.230257
-0.22996
-0.229532
-0.228954
-0.22804
-0.227188
-0.224806
-0.225051
-0.216899
-0.234181
-0.234388
-0.234243
-0.233941
-0.233532
-0.233078
-0.232626
-0.232207
-0.231838
-0.231524
-0.231262
-0.231043
-0.230853
-0.230675
-0.23049
-0.230274
-0.229999
-0.229633
-0.229124
-0.228468
-0.227418
-0.226549
-0.223807
-0.224325
-0.215644
-0.235436
-0.235558
-0.235322
-0.23491
-0.234379
-0.233799
-0.233221
-0.23268
-0.232195
-0.231772
-0.231411
-0.231099
-0.230825
-0.230569
-0.230309
-0.230019
-0.229667
-0.229219
-0.228615
-0.227864
-0.226659
-0.225737
-0.22267
-0.223303
-0.214396
-0.236731
-0.236769
-0.236438
-0.235907
-0.235247
-0.234532
-0.233818
-0.233146
-0.232538
-0.232
-0.231532
-0.231123
-0.230759
-0.230418
-0.230076
-0.229703
-0.229264
-0.228719
-0.228003
-0.227133
-0.225759
-0.224725
-0.221406
-0.221945
-0.213133
-0.238075
-0.238029
-0.237596
-0.23694
-0.236141
-0.235281
-0.234424
-0.233614
-0.232874
-0.232215
-0.231635
-0.231123
-0.230663
-0.230231
-0.229799
-0.229332
-0.228791
-0.228131
-0.22728
-0.22626
-0.224707
-0.223485
-0.220005
-0.220238
-0.211797
-0.239479
-0.239346
-0.238804
-0.238014
-0.237068
-0.236055
-0.235047
-0.23409
-0.233213
-0.232427
-0.23173
-0.231109
-0.230547
-0.230016
-0.229483
-0.228909
-0.228248
-0.227449
-0.226438
-0.225228
-0.223484
-0.221997
-0.218442
-0.218198
-0.210321
-0.240955
-0.240729
-0.240071
-0.239138
-0.238035
-0.236861
-0.235694
-0.234585
-0.233565
-0.232646
-0.231827
-0.231092
-0.230421
-0.229781
-0.229135
-0.228436
-0.227631
-0.226664
-0.225461
-0.22402
-0.222068
-0.220245
-0.216677
-0.21585
-0.208636
-0.242517
-0.24219
-0.241407
-0.240321
-0.239052
-0.23771
-0.236376
-0.235109
-0.233941
-0.232885
-0.231938
-0.231083
-0.230294
-0.229534
-0.228757
-0.227909
-0.226931
-0.225762
-0.22433
-0.222615
-0.220432
-0.218223
-0.214668
-0.213211
-0.206674
-0.244179
-0.24374
-0.242823
-0.241573
-0.24013
-0.238611
-0.237105
-0.235674
-0.234354
-0.233156
-0.232075
-0.231093
-0.230175
-0.229278
-0.228348
-0.227323
-0.226139
-0.224727
-0.223026
-0.221
-0.218551
-0.215925
-0.21238
-0.210253
-0.204361
-0.245959
-0.245392
-0.244329
-0.242906
-0.24128
-0.239576
-0.237892
-0.236293
-0.234815
-0.233471
-0.232251
-0.23113
-0.230069
-0.229014
-0.227904
-0.226668
-0.225237
-0.223543
-0.221532
-0.219162
-0.216415
-0.213366
-0.209793
-0.206903
-0.201679
-0.247873
-0.247159
-0.245939
-0.244332
-0.242512
-0.240618
-0.238751
-0.236979
-0.23534
-0.233842
-0.232474
-0.231203
-0.229979
-0.228741
-0.227417
-0.225931
-0.224212
-0.222193
-0.219835
-0.217101
-0.214025
-0.210581
-0.206912
-0.203171
-0.19883
-0.249935
-0.249056
-0.247664
-0.245861
-0.24384
-0.241748
-0.239693
-0.237744
-0.235938
-0.234282
-0.232754
-0.231315
-0.229905
-0.228451
-0.226875
-0.225097
-0.223046
-0.220666
-0.217933
-0.214822
-0.2114
-0.207611
-0.203759
-0.199408
-0.195922
-0.252165
-0.251097
-0.249519
-0.247508
-0.245276
-0.24298
-0.240731
-0.238601
-0.236623
-0.234798
-0.233096
-0.231468
-0.229841
-0.228135
-0.226265
-0.224149
-0.221728
-0.218956
-0.215827
-0.212338
-0.208571
-0.20448
-0.200356
-0.195802
-0.191941
-0.254579
-0.253294
-0.251516
-0.249284
-0.246833
-0.244327
-0.24188
-0.239563
-0.237405
-0.235398
-0.233504
-0.231659
-0.22978
-0.22778
-0.225569
-0.223075
-0.220248
-0.217062
-0.213531
-0.20967
-0.205573
-0.201204
-0.19684
-0.192085
-0.187894
-0.257194
-0.255662
-0.253667
-0.251203
-0.248523
-0.2458
-0.24315
-0.24064
-0.238291
-0.236087
-0.233976
-0.231881
-0.22971
-0.227369
-0.224774
-0.221862
-0.218602
-0.21499
-0.211061
-0.206844
-0.202441
-0.197824
-0.193243
-0.188333
-0.183936
-0.260025
-0.258214
-0.255987
-0.253277
-0.25036
-0.247413
-0.244553
-0.241841
-0.23929
-0.236867
-0.234509
-0.232124
-0.229615
-0.226886
-0.223864
-0.220503
-0.216793
-0.212754
-0.208436
-0.203886
-0.199203
-0.194366
-0.189602
-0.184568
-0.180027
-0.263087
-0.260963
-0.258487
-0.255519
-0.252355
-0.249179
-0.246101
-0.243177
-0.240404
-0.237737
-0.235094
-0.232375
-0.229478
-0.226315
-0.222828
-0.218993
-0.214826
-0.210366
-0.205679
-0.20082
-0.195884
-0.190855
-0.185934
-0.180799
-0.176171
-0.266394
-0.263922
-0.26118
-0.257941
-0.254521
-0.251107
-0.247804
-0.244652
-0.241635
-0.238689
-0.235719
-0.232617
-0.229282
-0.225641
-0.221657
-0.217335
-0.21271
-0.207844
-0.20281
-0.197668
-0.192505
-0.187305
-0.182249
-0.17703
-0.172335
-0.269957
-0.267101
-0.264078
-0.260556
-0.256871
-0.253211
-0.249669
-0.246271
-0.24298
-0.239716
-0.236369
-0.23283
-0.229008
-0.22485
-0.220347
-0.21553
-0.210458
-0.205204
-0.199847
-0.194446
-0.189077
-0.183725
-0.178549
-0.173258
-0.168509
-0.273789
-0.270513
-0.267192
-0.263374
-0.259415
-0.255499
-0.251703
-0.248034
-0.244434
-0.240803
-0.237025
-0.232994
-0.228638
-0.223931
-0.218895
-0.213584
-0.208079
-0.202459
-0.196802
-0.191164
-0.185609
-0.18012
-0.174833
-0.169477
-0.164675
-0.277897
-0.274165
-0.270532
-0.266407
-0.262164
-0.257979
-0.25391
-0.249938
-0.245985
-0.241934
-0.237666
-0.233089
-0.228157
-0.222877
-0.2173
-0.211506
-0.205584
-0.19962
-0.193686
-0.18783
-0.182102
-0.176487
-0.171098
-0.165682
-0.160828
-0.282291
-0.278068
-0.274108
-0.269665
-0.265128
-0.260658
-0.256289
-0.251977
-0.247618
-0.243085
-0.238267
-0.233092
-0.227549
-0.22168
-0.215564
-0.2093
-0.202984
-0.196697
-0.190504
-0.184445
-0.178558
-0.172825
-0.167338
-0.161865
-0.156957
-0.286974
-0.282226
-0.277928
-0.273157
-0.268313
-0.263539
-0.258839
-0.254138
-0.249313
-0.244233
-0.238803
-0.232984
-0.226803
-0.220337
-0.213691
-0.206973
-0.200282
-0.193693
-0.187258
-0.18101
-0.174973
-0.169128
-0.163547
-0.158021
-0.153056
-0.29195
-0.286646
-0.281999
-0.27689
-0.271724
-0.266622
-0.261549
-0.256403
-0.251045
-0.24535
-0.239249
-0.232746
-0.225908
-0.218845
-0.21168
-0.204529
-0.197483
-0.190609
-0.183948
-0.177522
-0.171342
-0.16539
-0.159719
-0.154142
-0.149119
-0.297219
-0.29133
-0.286324
-0.280867
-0.275362
-0.2699
-0.264406
-0.25875
-0.252785
-0.246406
-0.239581
-0.23236
-0.224855
-0.217201
-0.209535
-0.201969
-0.194588
-0.187445
-0.18057
-0.173974
-0.167659
-0.161605
-0.155847
-0.150221
-0.14514
-0.302777
-0.296277
-0.290906
-0.285089
-0.279225
-0.273363
-0.267389
-0.26115
-0.254501
-0.247369
-0.239772
-0.231812
-0.223636
-0.215403
-0.207253
-0.199293
-0.191594
-0.184197
-0.177118
-0.170361
-0.163916
-0.157764
-0.151923
-0.146252
-0.141113
-0.308617
-0.301484
-0.295742
-0.289555
-0.283303
-0.276995
-0.270473
-0.263569
-0.256157
-0.248209
-0.239801
-0.231086
-0.222244
-0.213447
-0.204833
-0.196497
-0.188497
-0.180858
-0.173586
-0.166674
-0.160107
-0.153861
-0.147941
-0.142228
-0.137032
-0.314729
-0.306943
-0.300827
-0.294254
-0.287582
-0.28077
-0.273623
-0.265968
-0.257715
-0.248894
-0.239646
-0.230169
-0.220672
-0.211329
-0.202271
-0.193578
-0.185291
-0.177422
-0.169966
-0.162906
-0.156222
-0.149887
-0.143893
-0.138143
-0.132892
-0.321094
-0.312644
-0.306149
-0.299174
-0.292041
-0.284659
-0.276801
-0.268306
-0.259137
-0.249395
-0.239286
-0.22905
-0.218911
-0.209043
-0.199561
-0.190527
-0.181967
-0.17388
-0.166248
-0.159049
-0.152254
-0.145835
-0.139772
-0.13399
-0.128687
-0.327691
-0.318569
-0.311692
-0.304294
-0.296651
-0.288623
-0.27996
-0.270537
-0.260383
-0.249683
-0.238702
-0.227715
-0.216954
-0.206582
-0.196694
-0.187337
-0.178518
-0.170222
-0.162424
-0.155093
-0.148194
-0.141697
-0.135572
-0.129763
-0.124411
-0.334493
-0.324695
-0.317435
-0.309586
-0.301376
-0.292616
-0.283052
-0.272613
-0.261416
-0.249729
-0.237875
-0.226153
-0.214791
-0.203935
-0.193663
-0.183998
-0.174933
-0.16644
-0.158484
-0.151029
-0.144033
-0.137466
-0.131287
-0.125455
-0.120059
-0.341464
-0.330994
-0.323346
-0.315015
-0.306171
-0.296585
-0.286022
-0.274486
-0.262198
-0.249508
-0.236788
-0.224349
-0.21241
-0.201094
-0.190456
-0.1805
-0.171201
-0.162522
-0.154419
-0.146848
-0.139765
-0.133134
-0.126908
-0.12106
-0.115627
-0.348565
-0.337431
-0.32939
-0.320538
-0.310983
-0.300473
-0.288813
-0.276109
-0.262692
-0.248994
-0.235422
-0.222292
-0.2098
-0.198047
-0.187062
-0.17683
-0.167312
-0.158458
-0.150219
-0.142542
-0.135381
-0.128694
-0.12243
-0.116573
-0.111109
-0.355748
-0.343965
-0.335522
-0.326103
-0.315754
-0.304217
-0.291367
-0.277434
-0.262864
-0.248162
-0.233761
-0.219965
-0.206948
-0.194781
-0.183469
-0.172978
-0.163254
-0.154239
-0.145874
-0.138102
-0.130873
-0.124139
-0.117847
-0.111988
-0.1065
-0.362957
-0.350545
-0.341691
-0.331652
-0.320418
-0.30775
-0.293625
-0.278414
-0.262681
-0.24699
-0.231786
-0.217355
-0.20384
-0.191284
-0.179665
-0.168931
-0.159017
-0.149853
-0.141375
-0.13352
-0.126233
-0.119462
-0.113153
-0.107299
-0.101796
-0.370132
-0.357116
-0.347836
-0.337116
-0.324901
-0.311001
-0.295527
-0.279005
-0.262109
-0.245453
-0.229479
-0.214446
-0.200463
-0.18754
-0.175635
-0.164677
-0.154589
-0.145292
-0.136714
-0.128788
-0.121455
-0.114658
-0.108343
-0.102502
-0.096993
-0.377204
-0.363616
-0.35389
-0.342423
-0.329128
-0.313901
-0.297017
-0.279164
-0.261121
-0.24353
-0.226823
-0.211222
-0.1968
-0.183538
-0.171368
-0.160205
-0.149959
-0.140544
-0.131881
-0.123898
-0.116532
-0.109721
-0.10341
-0.0975904
-0.0920874
-0.3841
-0.369973
-0.359779
-0.347493
-0.333019
-0.31638
-0.298038
-0.278852
-0.259685
-0.241199
-0.223799
-0.207667
-0.192838
-0.179262
-0.166851
-0.155503
-0.145118
-0.135602
-0.126869
-0.118843
-0.111457
-0.104644
-0.098351
-0.0925615
-0.0870758
-0.390738
-0.376112
-0.365423
-0.352241
-0.336493
-0.318366
-0.298539
-0.278028
-0.257774
-0.238438
-0.220388
-0.203763
-0.18856
-0.174699
-0.162071
-0.15056
-0.140055
-0.130455
-0.12167
-0.113617
-0.106224
-0.099423
-0.0931604
-0.0874108
-0.0819556
-0.397035
-0.381952
-0.370736
-0.356579
-0.339467
-0.319794
-0.298467
-0.276659
-0.255363
-0.235226
-0.216573
-0.199496
-0.183953
-0.169835
-0.157015
-0.145364
-0.134761
-0.125097
-0.116276
-0.108211
-0.100828
-0.0940528
-0.0878341
-0.0821348
-0.0767242
-0.4029
-0.387405
-0.375627
-0.360416
-0.34186
-0.320598
-0.297777
-0.274709
-0.252425
-0.231543
-0.212337
-0.194849
-0.179001
-0.164658
-0.151674
-0.139907
-0.129227
-0.119519
-0.110681
-0.102622
-0.0952635
-0.088529
-0.0823683
-0.0767299
-0.0713793
-0.408242
-0.392382
-0.380002
-0.363662
-0.343593
-0.320718
-0.296423
-0.272149
-0.248938
-0.227369
-0.207661
-0.189807
-0.173692
-0.159156
-0.146036
-0.134178
-0.123445
-0.113714
-0.104879
-0.0968443
-0.0895265
-0.082848
-0.0767593
-0.0711931
-0.0659189
-0.412965
-0.396788
-0.383768
-0.366226
-0.344591
-0.320095
-0.294367
-0.268947
-0.244878
-0.222686
-0.20253
-0.184355
-0.168012
-0.153317
-0.140091
-0.12817
-0.117408
-0.107677
-0.0988648
-0.0908726
-0.0836128
-0.0770063
-0.0710041
-0.0655224
-0.0603425
-0.416974
-0.40053
-0.386827
-0.368019
-0.344781
-0.318679
-0.291571
-0.265079
-0.240225
-0.217476
-0.196928
-0.178481
-0.161949
-0.14713
-0.133831
-0.121875
-0.111111
-0.101403
-0.0926341
-0.0847033
-0.0775191
-0.0710007
-0.0650999
-0.0597169
-0.054652
-0.420174
-0.403512
-0.389085
-0.368957
-0.344097
-0.316421
-0.288002
-0.260521
-0.234961
-0.211723
-0.190842
-0.17217
-0.155493
-0.140588
-0.127248
-0.115287
-0.104547
-0.0948858
-0.0861832
-0.0783334
-0.0712421
-0.0648275
-0.0590431
-0.0537758
-0.0488483
-0.422469
-0.405639
-0.39045
-0.36896
-0.342478
-0.313279
-0.283632
-0.25525
-0.229068
-0.205413
-0.184258
-0.165413
-0.148635
-0.133683
-0.120336
-0.108401
-0.0977123
-0.0881236
-0.0795093
-0.0717606
-0.0647796
-0.0584836
-0.0528293
-0.0476934
-0.0429188
-0.423769
-0.406819
-0.390833
-0.367953
-0.339869
-0.309216
-0.278435
-0.24925
-0.222532
-0.198533
-0.177167
-0.158201
-0.141367
-0.126407
-0.113089
-0.101213
-0.0906047
-0.0811139
-0.0726111
-0.0649839
-0.0581307
-0.0519681
-0.0464563
-0.0414556
-0.0368196
-0.423986
-0.406965
-0.390152
-0.365868
-0.336223
-0.3042
-0.272389
-0.242503
-0.215339
-0.191073
-0.169558
-0.150526
-0.133683
-0.118757
-0.105505
-0.0937201
-0.0832218
-0.0738556
-0.0654881
-0.0580035
-0.0512964
-0.0452848
-0.0399292
-0.0350512
-0.0304839
-0.423037
-0.405991
-0.388329
-0.362646
-0.331497
-0.298205
-0.265478
-0.234998
-0.207481
-0.183023
-0.161425
-0.142381
-0.125578
-0.110728
-0.0975809
-0.0859209
-0.0755631
-0.0663487
-0.0581409
-0.0508204
-0.0442792
-0.0384385
-0.0332564
-0.0284969
-0.023933
-0.420845
-0.403821
-0.385294
-0.358233
-0.325659
-0.291211
-0.257688
-0.226726
-0.198948
-0.174378
-0.152762
-0.133764
-0.11705
-0.10232
-0.0893158
-0.0778155
-0.0676292
-0.0585944
-0.050571
-0.0434372
-0.0370823
-0.0314315
-0.0264331
-0.0217953
-0.017473
-0.417339
-0.400383
-0.380987
-0.352586
-0.31868
-0.283202
-0.249011
-0.217679
-0.189737
-0.165134
-0.143567
-0.124672
-0.108097
-0.0935321
-0.0807105
-0.0694052
-0.059422
-0.0505948
-0.0427807
-0.0358573
-0.0297095
-0.0242673
-0.0194629
-0.014983
-0.0109378
-0.412459
-0.395614
-0.375355
-0.345671
-0.310543
-0.274169
-0.239443
-0.207855
-0.179846
-0.155289
-0.13384
-0.115106
-0.0987217
-0.0843663
-0.0717675
-0.060693
-0.0509448
-0.042354
-0.0347755
-0.0280832
-0.0221641
-0.0169484
-0.0123561
-0.00806065
-0.00428762
-0.406151
-0.389461
-0.368354
-0.33746
-0.301235
-0.264108
-0.228981
-0.197256
-0.169275
-0.144846
-0.123582
-0.105069
-0.088926
-0.0748266
-0.0624909
-0.0516835
-0.0422022
-0.0338762
-0.0265587
-0.020121
-0.0144507
-0.00948003
-0.00511778
-0.00102263
0.00248099
-0.39837
-0.381878
-0.359953
-0.327936
-0.290751
-0.25302
-0.217631
-0.185885
-0.15803
-0.133808
-0.112798
-0.0945642
-0.0787151
-0.064919
-0.0528866
-0.0423817
-0.0331998
-0.0251674
-0.0181365
-0.0119763
-0.00657525
-0.00186799
0.00224787
0.00613126
0.00935949
-0.389083
-0.372831
-0.350128
-0.317092
-0.279093
-0.240912
-0.2054
-0.17375
-0.146116
-0.122182
-0.101495
-0.0836008
-0.0680984
-0.0546484
-0.0429611
-0.0327951
-0.0239446
-0.0162347
-0.00951574
-0.00365594
0.00145554
0.00588115
0.00973592
0.013397
0.01634
-0.378265
-0.362296
-0.338866
-0.304928
-0.26627
-0.227797
-0.192301
-0.160862
-0.133544
-0.10998
-0.0896847
-0.0721877
-0.0570831
-0.0440254
-0.0327233
-0.0229323
-0.0144452
-0.00708611
-0.000704604
0.00483222
0.00963387
0.01376
0.0173398
0.0207677
0.0234145
-0.365902
-0.350259
-0.326166
-0.291453
-0.252298
-0.213693
-0.17835
-0.147236
-0.120328
-0.0972166
-0.0773765
-0.0603361
-0.0456806
-0.0330609
-0.0221838
-0.0128033
-0.00471126
0.00226881
0.00828778
0.0134792
0.0179509
0.02176
0.0250512
0.0282347
0.0305744
-0.351992
-0.336716
-0.312034
-0.276685
-0.237199
-0.198621
-0.163569
-0.132889
-0.106492
-0.083901
-0.0645861
-0.0480602
-0.0339044
-0.0217672
-0.0113546
-0.00241955
0.00524637
0.0118196
0.0174512
0.0222751
0.0263969
0.0298717
0.0328608
0.0357877
0.0378094
-0.336541
-0.321676
-0.296489
-0.260649
-0.221002
-0.18261
-0.147981
-0.117851
-0.0920459
-0.0700557
-0.051331
-0.0353762
-0.0217697
-0.0101588
-0.000249187
0.0082062
0.0154155
0.0215546
0.0267746
0.031209
0.034961
0.0380844
0.0407574
0.0434149
0.0451077
-0.319568
-0.305157
-0.279557
-0.243379
-0.203743
-0.165691
-0.131617
-0.102142
-0.0770179
-0.0557024
-0.0376311
-0.0223027
-0.00929378
0.00174823
0.0111174
0.0190598
0.0257828
0.0314613
0.0362457
0.040269
0.0436315
0.0463864
0.0487291
0.0511029
0.0524568
-0.301101
-0.287187
-0.261273
-0.224918
-0.185462
-0.147901
-0.11451
-0.085792
-0.0614341
-0.0408653
-0.0235089
-0.00886029
0.00350415
0.0139362
0.0227285
0.0301259
0.0363339
0.0415261
0.0458517
0.0494427
0.052396
0.0547651
0.0567627
0.0588372
0.0598438
-0.281177
-0.267803
-0.241682
-0.205317
-0.166204
-0.129279
-0.0966944
-0.0688335
-0.0453243
-0.0255711
-0.00898908
0.00492818
0.0166031
0.0263857
0.0345664
0.0413878
0.0470533
0.0517345
0.0555789
0.0587166
0.0612413
0.0632073
0.0648438
0.0666012
0.0672496
-0.259843
-0.247055
-0.220842
-0.184629
-0.146006
-0.109877
-0.0782126
-0.0513031
-0.0287209
-0.0098496
0.00590135
0.019038
0.0299804
0.0390758
0.0466117
0.0528279
0.0579248
0.0620713
0.0654131
0.0680773
0.070154
0.0716993
0.0729571
0.0743734
0.0746432
-0.237154
-0.225002
-0.198832
-0.162878
-0.124943
-0.0897409
-0.0591083
-0.03324
-0.0116593
0.00626731
0.0211332
0.0334423
0.0436115
0.0519841
0.0588439
0.0644272
0.0689309
0.0725207
0.0753396
0.0775111
0.079121
0.0802279
0.0810865
0.0821289
0.0819896
-0.213173
-0.201717
-0.175724
-0.140121
-0.103066
-0.0689243
-0.0394293
-0.0146867
0.00582257
0.0227452
0.0366751
0.0481127
0.0574703
0.0650867
0.0712412
0.0761658
0.0800535
0.0830663
0.0853435
0.0870042
0.0881293
0.0887804
0.0892175
0.0898489
0.0892825
-0.187978
-0.177285
-0.151445
-0.116544
-0.0804462
-0.0474846
-0.0192261
0.00431171
0.0236842
0.0395474
0.0524938
0.0630188
0.0715292
0.0783584
0.0837806
0.0880229
0.0912737
0.0936909
0.0954096
0.0965429
0.097166
0.097345
0.0973423
0.097534
0.0965409
-0.161646
-0.15181
-0.126145
-0.0921382
-0.0571512
-0.0254831
0.00144787
0.0237077
0.0418828
0.0566353
0.0685541
0.0781287
0.0857591
0.0917727
0.096438
0.0999766
0.102572
0.104377
0.105522
0.106113
0.106217
0.105913
0.105462
0.105184
0.103701
-0.134237
-0.125238
-0.100093
-0.0669918
-0.0332518
-0.00298364
0.0225366
0.0434512
0.0603733
0.0739681
0.0848193
0.0934088
0.10013
0.105302
0.109188
0.112004
0.113927
0.115107
0.115666
0.115699
0.115273
0.11448
0.113572
0.112732
0.110519
-0.105852
-0.0978218
-0.0732609
-0.0411913
-0.00882193
0.0199483
0.0439816
0.0634902
0.0791089
0.0915036
0.101251
0.108824
0.114609
0.118917
0.122005
0.124081
0.125319
0.125861
0.125824
0.125291
0.12433
0.123057
0.121656
0.120033
0.116808
-0.0767152
-0.0695397
-0.0457263
-0.0148247
0.0160615
0.0432446
0.0657225
0.0837704
0.098041
0.109198
0.117809
0.124339
0.129164
0.132588
0.134861
0.136184
0.136725
0.136621
0.135981
0.134879
0.133395
0.131663
0.129713
0.12707
0.122872
-0.0468425
-0.0405392
-0.0175881
0.0120193
0.0413189
0.0668352
0.0876969
0.104236
0.117119
0.127005
0.134453
0.139916
0.143761
0.146285
0.147728
0.148287
0.148122
0.147365
0.146117
0.14445
0.142465
0.140299
0.137777
0.134171
0.129545
-0.0163237
-0.0109492
0.0110504
0.0392488
0.0668687
0.090648
0.109841
0.12483
0.136292
0.144879
0.15114
0.155516
0.158365
0.159975
0.160577
0.160362
0.159484
0.158069
0.156211
0.153985
0.151512
0.148907
0.145803
0.141486
0.138545
0.014719
0.0191195
0.040083
0.0667696
0.0926274
0.114609
0.132088
0.145494
0.155507
0.162773
0.167827
0.171101
0.172941
0.173626
0.173379
0.172384
0.170788
0.168711
0.166242
0.163461
0.160493
0.157402
0.153752
0.149232
0.147122
0.0461644
0.0495551
0.0694021
0.0944859
0.118511
0.138645
0.154374
0.166167
0.17471
0.180637
0.184471
0.186631
0.187452
0.187205
0.186103
0.184323
0.182006
0.179266
0.176188
0.172854
0.169384
0.165798
0.161684
0.157034
0.154959
0.0778918
0.0802427
0.0988988
0.1223
0.144433
0.162678
0.176629
0.18679
0.193847
0.198423
0.201026
0.202065
0.201862
0.200678
0.198719
0.196152
0.193114
0.18971
0.186024
0.182137
0.178159
0.174083
0.16956
0.164734
0.162403
0.109779
0.111066
0.128463
0.150116
0.170307
0.186633
0.198787
0.207303
0.212864
0.216081
0.217449
0.217363
0.216134
0.214012
0.211195
0.207843
0.204084
0.200019
0.195728
0.191288
0.186799
0.182243
0.177321
0.172243
0.169548
0.141703
0.141907
0.157987
0.177834
0.196048
0.210434
0.220778
0.227642
0.231705
0.233562
0.233694
0.232484
0.230231
0.227174
0.223502
0.219367
0.214891
0.210169
0.205275
0.200285
0.195286
0.190259
0.184936
0.179557
0.176454
0.173539
0.172647
0.187359
0.205358
0.221569
0.234003
0.242536
0.247749
0.250315
0.250815
0.249717
0.247387
0.244115
0.240128
0.235607
0.230696
0.225509
0.220134
0.214643
0.209106
0.203602
0.198107
0.192379
0.186673
0.183146
0.205164
0.203167
0.21647
0.23259
0.246784
0.257266
0.263991
0.267561
0.268639
0.267792
0.265472
0.262033
0.25775
0.252843
0.247481
0.241801
0.235911
0.229892
0.223811
0.217732
0.211729
0.205771
0.199637
0.19359
0.189632
0.236456
0.233351
0.245214
0.259434
0.271609
0.280146
0.285077
0.287019
0.286623
0.284444
0.280916
0.276379
0.271099
0.265283
0.259093
0.252656
0.246072
0.239419
0.232756
0.226144
0.219647
0.213233
0.206694
0.200303
0.195911
0.267292
0.263081
0.273483
0.285796
0.29596
0.30257
0.305728
0.306062
0.304214
0.300721
0.296004
0.290388
0.284127
0.277417
0.270412
0.263231
0.255967
0.248691
0.241457
0.234321
0.22734
0.220477
0.213541
0.206806
0.201979
0.297552
0.292244
0.301173
0.311583
0.319755
0.324464
0.325878
0.324632
0.321358
0.316577
0.310692
0.304019
0.296797
0.289212
0.28141
0.273501
0.265572
0.257686
0.249894
0.242245
0.23479
0.227488
0.220163
0.213089
0.20783
0.327119
0.320725
0.328181
0.336704
0.342913
0.345757
0.345462
0.342672
0.338004
0.331963
0.32494
0.317234
0.309074
0.300637
0.292058
0.28344
0.274862
0.266383
0.258047
0.249899
0.241981
0.234252
0.226549
0.219142
0.213454
0.355876
0.348417
0.354409
0.36107
0.365356
0.366378
0.364419
0.360125
0.354101
0.346836
0.338705
0.329996
0.320925
0.31166
0.302327
0.29302
0.283814
0.27476
0.265897
0.257264
0.248898
0.240754
0.232686
0.224955
0.218845
0.383714
0.375211
0.379758
0.384596
0.387008
0.386262
0.382689
0.376937
0.3696
0.36115
0.351948
0.342268
0.332317
0.322252
0.31219
0.302219
0.292405
0.282795
0.273423
0.264323
0.255524
0.246981
0.238562
0.230516
0.223991
0.410522
0.401006
0.404136
0.4072
0.407796
0.405341
0.400211
0.393056
0.384454
0.374862
0.364629
0.354016
0.343218
0.332383
0.32162
0.311011
0.300614
0.29047
0.28061
0.27106
0.261845
0.25292
0.244165
0.235814
0.228886
0.436197
0.425702
0.427454
0.428801
0.427649
0.423554
0.416931
0.40843
0.398616
0.387932
0.376712
0.365205
0.353597
0.342026
0.330594
0.319374
0.308419
0.297766
0.287438
0.277459
0.267847
0.258556
0.249483
0.240839
0.233519
0.460639
0.449204
0.449625
0.449324
0.4465
0.440839
0.432794
0.423011
0.412044
0.40032
0.38816
0.375803
0.363425
0.351154
0.339085
0.327285
0.315801
0.304663
0.293891
0.283505
0.273515
0.263879
0.254503
0.245581
0.237884
0.483754
0.471423
0.470569
0.468697
0.464286
0.457142
0.447749
0.436754
0.424696
0.411988
0.398941
0.38578
0.372674
0.359742
0.347072
0.334724
0.322739
0.311144
0.299954
0.289183
0.278837
0.268875
0.259216
0.250028
0.241971
0.505451
0.492275
0.490209
0.486852
0.480945
0.472406
0.461749
0.449615
0.436532
0.422902
0.409021
0.395107
0.381318
0.367766
0.354532
0.34167
0.329217
0.317193
0.305611
0.294479
0.2838
0.273534
0.263609
0.254173
0.245774
0.525648
0.511678
0.508474
0.503726
0.496423
0.486583
0.474747
0.461553
0.447516
0.433027
0.418371
0.403756
0.389331
0.375203
0.361445
0.348106
0.335217
0.322795
0.310849
0.299382
0.288393
0.277844
0.267674
0.258005
0.249285
0.544265
0.529561
0.525296
0.519259
0.510665
0.499625
0.486702
0.47253
0.457614
0.442333
0.426963
0.411702
0.396692
0.382033
0.367792
0.354013
0.340723
0.327935
0.315653
0.303878
0.292604
0.281796
0.271401
0.261516
0.252497
0.561231
0.545853
0.540615
0.533398
0.523624
0.511488
0.497574
0.482511
0.466795
0.450792
0.434771
0.418922
0.403379
0.388236
0.373556
0.359377
0.345722
0.3326
0.320013
0.307957
0.296424
0.28538
0.274781
0.264699
0.255406
0.576481
0.560495
0.554376
0.546093
0.535256
0.522135
0.50733
0.491466
0.475029
0.458378
0.441772
0.425394
0.409372
0.393795
0.37872
0.364182
0.350199
0.336777
0.323916
0.311609
0.299843
0.288588
0.277805
0.267547
0.258005
0.589955
0.57343
0.566527
0.557299
0.545522
0.531529
0.515936
0.499364
0.482291
0.465068
0.447945
0.431099
0.414655
0.398695
0.383271
0.368415
0.354142
0.340457
0.327354
0.314824
0.302853
0.291412
0.280468
0.270053
0.26029
0.601602
0.584609
0.577025
0.566978
0.554386
0.53964
0.523366
0.506182
0.488559
0.47084
0.45327
0.436022
0.419212
0.40292
0.387195
0.372065
0.357543
0.343629
0.330317
0.317595
0.305447
0.293845
0.282762
0.272211
0.262257
0.611378
0.593991
0.585832
0.575096
0.56182
0.54644
0.529594
0.511896
0.493812
0.475678
0.457733
0.440146
0.42303
0.40646
0.390482
0.375122
0.36039
0.346285
0.332798
0.319915
0.307618
0.295882
0.284683
0.274017
0.263901
0.619243
0.601538
0.592916
0.581624
0.567797
0.551908
0.534601
0.51649
0.498034
0.479566
0.46132
0.44346
0.426097
0.409304
0.393123
0.377578
0.362677
0.348418
0.33479
0.321778
0.309361
0.297517
0.286224
0.275467
0.26522
0.625169
0.607224
0.598252
0.58654
0.572298
0.556025
0.538371
0.519949
0.501213
0.482492
0.464019
0.445955
0.428406
0.411444
0.39511
0.379426
0.364398
0.350023
0.336289
0.323179
0.310672
0.298747
0.287384
0.276557
0.266212
0.629132
0.611027
0.60182
0.589827
0.575307
0.558776
0.540891
0.52226
0.503337
0.484448
0.465824
0.447621
0.429949
0.412874
0.396438
0.380661
0.365548
0.351095
0.33729
0.324115
0.311548
0.299568
0.288159
0.277285
0.266873
0.631117
0.612932
0.603607
0.591473
0.576814
0.560155
0.542153
0.523418
0.504401
0.485428
0.466727
0.448456
0.430721
0.41359
0.397103
0.381279
0.366124
0.351632
0.337792
0.324584
0.311987
0.29998
0.288546
0.27765
0.267205
0.631117
0.612932
0.603607
0.591473
0.576813
0.560154
0.542153
0.523418
0.504401
0.485428
0.466727
0.448456
0.430721
0.41359
0.397102
0.381279
0.366124
0.351632