/*--------------------------------*- C++ -*----------------------------------*\
  =========                 |
  \\      /  F ield         | OpenFOAM: The Open Source CFD Toolbox
   \\    /   O peration     | Website:  https://openfoam.org
    \\  /    A nd           | Version:  7
     \\/     M anipulation  |
\*---------------------------------------------------------------------------*/
FoamFile
{
    version     2.0;
    format      ascii;
    class       volScalarField;
    location    "70";
    object      p;
}
// * * * * * * * * * * * * * * * * * * * * * * * * * * * * * * * * * * * * * //

dimensions      [0 2 -2 0 0 0 0];

internalField   nonuniform List<scalar> 
3500
(
-0.179543
-0.173233
-0.167218
-0.161101
-0.155233
-0.149606
-0.144255
-0.139182
-0.134379
-0.129841
-0.125565
-0.121546
-0.117778
-0.114257
-0.110978
-0.107935
-0.105123
-0.102537
-0.100172
-0.0980226
-0.0960849
-0.0943542
-0.0928265
-0.0914981
-0.0903658
-0.0894266
-0.0886781
-0.0881185
-0.0877462
-0.0875604
-0.177292
-0.171161
-0.165314
-0.159373
-0.15367
-0.148199
-0.142996
-0.138061
-0.133386
-0.128968
-0.124803
-0.120886
-0.117213
-0.113778
-0.110577
-0.107605
-0.104858
-0.10233
-0.100017
-0.0979142
-0.0960175
-0.0943229
-0.0928264
-0.0915248
-0.090415
-0.0894943
-0.0887604
-0.0882116
-0.0878465
-0.0876642
-0.174974
-0.16902
-0.163343
-0.157578
-0.152038
-0.146724
-0.141668
-0.136871
-0.132325
-0.128027
-0.123973
-0.120159
-0.116579
-0.113231
-0.110109
-0.10721
-0.104527
-0.102058
-0.0997982
-0.0977427
-0.0958878
-0.0942298
-0.0927653
-0.091491
-0.0904042
-0.0895024
-0.0887834
-0.0882457
-0.087888
-0.0877093
-0.172591
-0.166812
-0.161306
-0.155716
-0.15034
-0.145183
-0.140275
-0.135615
-0.131197
-0.12702
-0.123077
-0.119365
-0.115881
-0.11262
-0.109578
-0.10675
-0.104134
-0.101724
-0.0995177
-0.0975099
-0.0956973
-0.0940766
-0.0926445
-0.0913981
-0.0903347
-0.0894521
-0.0887485
-0.0882221
-0.0878718
-0.0876969
-0.170145
-0.16454
-0.159206
-0.153791
-0.148579
-0.143578
-0.138817
-0.134295
-0.130006
-0.125948
-0.122117
-0.118509
-0.11512
-0.111946
-0.108983
-0.106229
-0.103679
-0.10133
-0.0991769
-0.0972173
-0.0954477
-0.0938647
-0.0924656
-0.0912474
-0.0902079
-0.0893449
-0.0886567
-0.0881419
-0.0877992
-0.0876281
-0.167637
-0.162207
-0.157045
-0.151804
-0.146756
-0.141912
-0.137298
-0.132914
-0.128754
-0.124816
-0.121097
-0.117591
-0.114297
-0.111211
-0.108329
-0.105648
-0.103165
-0.100876
-0.0987776
-0.0968667
-0.0951404
-0.0935957
-0.0922298
-0.0910404
-0.090025
-0.089182
-0.0885095
-0.0880064
-0.0876715
-0.0875043
-0.165069
-0.159813
-0.154825
-0.149759
-0.144875
-0.140188
-0.135721
-0.131474
-0.127443
-0.123625
-0.120017
-0.116615
-0.113416
-0.110418
-0.107617
-0.10501
-0.102593
-0.100365
-0.0983215
-0.0964598
-0.0947772
-0.0932711
-0.0919389
-0.0907784
-0.0897876
-0.0889647
-0.0883082
-0.0878169
-0.0874899
-0.0873266
-0.162445
-0.157363
-0.152549
-0.147657
-0.142938
-0.138407
-0.134088
-0.129978
-0.126076
-0.122378
-0.118881
-0.115583
-0.112479
-0.109569
-0.106848
-0.104315
-0.101966
-0.0997988
-0.0978104
-0.0959982
-0.0943596
-0.0928924
-0.0915942
-0.090463
-0.0894969
-0.0886944
-0.0880541
-0.0875748
-0.0872558
-0.0870964
-0.159766
-0.154859
-0.150219
-0.145502
-0.140948
-0.136574
-0.132401
-0.128429
-0.124655
-0.121077
-0.117691
-0.114496
-0.111488
-0.108666
-0.106026
-0.103567
-0.101285
-0.0991792
-0.0972461
-0.0954836
-0.0938893
-0.0924612
-0.0911973
-0.0900956
-0.0891545
-0.0883725
-0.0877485
-0.0872813
-0.0869703
-0.086815
-0.157035
-0.152303
-0.147839
-0.143296
-0.138907
-0.13469
-0.130664
-0.126829
-0.123183
-0.119725
-0.11645
-0.113358
-0.110445
-0.107711
-0.105152
-0.102767
-0.100553
-0.098508
-0.0966304
-0.0949177
-0.093368
-0.0919792
-0.0907497
-0.0896776
-0.0887616
-0.0880004
-0.0873928
-0.0869379
-0.086635
-0.0864837
-0.154255
-0.149699
-0.145411
-0.141042
-0.136819
-0.132758
-0.128878
-0.12518
-0.121663
-0.118323
-0.11516
-0.11217
-0.109353
-0.106706
-0.104228
-0.101917
-0.0997704
-0.0977871
-0.095965
-0.0943023
-0.0927972
-0.0914479
-0.0902529
-0.0892107
-0.0883199
-0.0875795
-0.0869884
-0.0865458
-0.0862511
-0.0861038
-0.151429
-0.14705
-0.142938
-0.138744
-0.134686
-0.13078
-0.127047
-0.123486
-0.120096
-0.116875
-0.113822
-0.110935
-0.108213
-0.105654
-0.103256
-0.101019
-0.0989401
-0.0970183
-0.0952518
-0.0936391
-0.0921786
-0.0908689
-0.0897085
-0.0886962
-0.0878308
-0.0871113
-0.0865367
-0.0861065
-0.0858199
-0.0856768
-0.148561
-0.144359
-0.140423
-0.136403
-0.13251
-0.128761
-0.125173
-0.121749
-0.118486
-0.115383
-0.11244
-0.109656
-0.107028
-0.104556
-0.102239
-0.100075
-0.0980639
-0.0962034
-0.0944924
-0.0929297
-0.0915139
-0.0902438
-0.0891181
-0.0881357
-0.0872957
-0.0865971
-0.0860392
-0.0856213
-0.085343
-0.0852039
-0.145655
-0.14163
-0.13787
-0.134025
-0.130296
-0.126702
-0.12326
-0.119971
-0.116834
-0.11385
-0.111017
-0.108333
-0.1058
-0.103415
-0.101178
-0.0990878
-0.0971436
-0.0953442
-0.0936887
-0.0921759
-0.0908047
-0.0895741
-0.0884831
-0.0875307
-0.0867161
-0.0860385
-0.0854972
-0.0850918
-0.0848217
-0.0846867
-0.142713
-0.138866
-0.135282
-0.13161
-0.128046
-0.124607
-0.121309
-0.118155
-0.115144
-0.112277
-0.109553
-0.106971
-0.104531
-0.102233
-0.100075
-0.0980584
-0.0961811
-0.0944427
-0.0928424
-0.0913794
-0.0900527
-0.0888616
-0.0878052
-0.0868828
-0.0860935
-0.0854369
-0.0849122
-0.0845192
-0.0842573
-0.0841264
-0.13974
-0.136072
-0.132663
-0.129164
-0.125763
-0.122478
-0.119324
-0.116304
-0.113419
-0.110668
-0.108052
-0.105571
-0.103224
-0.101011
-0.0989332
-0.096989
-0.0951782
-0.0935005
-0.0919553
-0.0905418
-0.0892595
-0.0881078
-0.0870859
-0.0861933
-0.0854294
-0.0847937
-0.0842856
-0.0839049
-0.0836513
-0.0835246
-0.13674
-0.133249
-0.130016
-0.126688
-0.123451
-0.120318
-0.117307
-0.114421
-0.111659
-0.109024
-0.106516
-0.104134
-0.10188
-0.0997529
-0.0977535
-0.0958815
-0.094137
-0.0925196
-0.091029
-0.0896649
-0.0884268
-0.0873142
-0.0863268
-0.0854639
-0.0847252
-0.0841103
-0.0836189
-0.0832505
-0.0830051
-0.0828824
-0.133717
-0.130404
-0.127344
-0.124188
-0.121112
-0.118131
-0.115262
-0.112507
-0.109869
-0.107349
-0.104947
-0.102665
-0.100502
-0.0984595
-0.0965382
-0.094738
-0.0930591
-0.0915016
-0.0900654
-0.0887503
-0.0875561
-0.0864825
-0.0855293
-0.084696
-0.0839824
-0.0833883
-0.0829133
-0.0825573
-0.0823201
-0.0822015
-0.130675
-0.127539
-0.124652
-0.121665
-0.118749
-0.115919
-0.113191
-0.110567
-0.108051
-0.105644
-0.103348
-0.101164
-0.0990916
-0.0971332
-0.0952892
-0.0935602
-0.0919465
-0.0904484
-0.0890662
-0.0877997
-0.0866491
-0.0856142
-0.084695
-0.0838911
-0.0832026
-0.0826291
-0.0821705
-0.0818267
-0.0815976
-0.081483
-0.127618
-0.124659
-0.121943
-0.119124
-0.116367
-0.113686
-0.111096
-0.108602
-0.106207
-0.103913
-0.101721
-0.0996333
-0.0976513
-0.095776
-0.0940087
-0.0923501
-0.0908009
-0.0893617
-0.0880329
-0.0868148
-0.0857074
-0.0847109
-0.0838254
-0.0830508
-0.082387
-0.081834
-0.0813918
-0.0810601
-0.0808391
-0.0807285
-0.124551
-0.121767
-0.119221
-0.116567
-0.113967
-0.111434
-0.108981
-0.106615
-0.10434
-0.102156
-0.100068
-0.0980762
-0.096183
-0.0943899
-0.0926983
-0.0911094
-0.0896242
-0.0882433
-0.0869674
-0.0857971
-0.0847326
-0.0837742
-0.0829221
-0.0821764
-0.0815372
-0.0810046
-0.0805785
-0.0802589
-0.0800459
-0.0799394
-0.121478
-0.118867
-0.116489
-0.113999
-0.111554
-0.109166
-0.106849
-0.104609
-0.102451
-0.100378
-0.0983914
-0.0964943
-0.0946888
-0.0929769
-0.0913602
-0.0898402
-0.088418
-0.0870948
-0.0858713
-0.0847483
-0.0837262
-0.0828055
-0.0819865
-0.0812695
-0.0806547
-0.0801422
-0.0797321
-0.0794245
-0.0792194
-0.0791169
-0.118404
-0.115964
-0.11375
-0.111422
-0.10913
-0.106885
-0.104702
-0.102587
-0.100545
-0.0985794
-0.0966934
-0.0948896
-0.0931707
-0.0915389
-0.0899961
-0.0885441
-0.0871843
-0.085918
-0.0847462
-0.0836699
-0.0826897
-0.0818063
-0.0810201
-0.0803315
-0.0797408
-0.0792483
-0.0788541
-0.0785583
-0.078361
-0.0782624
-0.115331
-0.113061
-0.11101
-0.10884
-0.106698
-0.104594
-0.102542
-0.10055
-0.0986222
-0.0967632
-0.0949761
-0.0932644
-0.0916307
-0.0900778
-0.0886079
-0.0872229
-0.0859246
-0.0847145
-0.0835938
-0.0825636
-0.0816248
-0.0807782
-0.0800244
-0.0793638
-0.078797
-0.0783242
-0.0779456
-0.0776616
-0.0774721
-0.0773774
-0.112266
-0.110162
-0.10827
-0.106255
-0.104261
-0.102295
-0.100373
-0.0985011
-0.0966859
-0.0949315
-0.0932418
-0.0916205
-0.0900708
-0.0885956
-0.0871973
-0.0858784
-0.0846407
-0.0834859
-0.0824156
-0.0814309
-0.080533
-0.0797227
-0.0790008
-0.0783679
-0.0778246
-0.0773712
-0.0770082
-0.0767357
-0.0765539
-0.076463
-0.109211
-0.10727
-0.105534
-0.103672
-0.101822
-0.0999923
-0.0981966
-0.0964432
-0.0947382
-0.0930866
-0.0914925
-0.0899601
-0.0884929
-0.087094
-0.0857663
-0.0845123
-0.0833342
-0.082234
-0.0812132
-0.0802733
-0.0794156
-0.0786411
-0.0779507
-0.0773451
-0.076825
-0.0763909
-0.0760431
-0.075782
-0.0756078
-0.0755207
-0.10617
-0.10439
-0.102806
-0.101093
-0.0993849
-0.0976875
-0.0960159
-0.0943784
-0.0927815
-0.0912305
-0.0897303
-0.0882851
-0.0868988
-0.0855748
-0.0843164
-0.0831263
-0.0820068
-0.0809601
-0.0799881
-0.0790923
-0.0782742
-0.077535
-0.0768755
-0.0762968
-0.0757996
-0.0753844
-0.0750516
-0.0748018
-0.0746351
-0.0745517
-0.103147
-0.101524
-0.100088
-0.0985216
-0.0969512
-0.0953834
-0.0938331
-0.0923089
-0.0908178
-0.0893655
-0.0879571
-0.0865973
-0.0852904
-0.08404
-0.0828495
-0.081722
-0.0806601
-0.079666
-0.0787419
-0.0778895
-0.0771103
-0.0764056
-0.0757767
-0.0752244
-0.0747497
-0.0743531
-0.0740352
-0.0737964
-0.073637
-0.0735573
-0.100146
-0.0986761
-0.0973849
-0.0959599
-0.0945239
-0.0930826
-0.0916506
-0.0902371
-0.0888493
-0.0874934
-0.0861748
-0.0848987
-0.0836694
-0.0824911
-0.0813672
-0.0803011
-0.0792956
-0.0783531
-0.077476
-0.0766661
-0.0759251
-0.0752545
-0.0746555
-0.0741292
-0.0736766
-0.0732983
-0.0729949
-0.072767
-0.0726149
-0.0725388
-0.0971703
-0.095849
-0.0946981
-0.0934108
-0.0921056
-0.0907873
-0.0894707
-0.088165
-0.086878
-0.0856162
-0.0843855
-0.083191
-0.0820377
-0.0809298
-0.0798711
-0.0788651
-0.0779148
-0.077023
-0.0761919
-0.0754236
-0.0747201
-0.0740829
-0.0735133
-0.0730125
-0.0725815
-0.0722212
-0.0719322
-0.0717149
-0.0715699
-0.0714973
-0.0942227
-0.0930459
-0.0920307
-0.090877
-0.0896988
-0.0885001
-0.0872955
-0.0860949
-0.0849061
-0.083736
-0.0825908
-0.0814761
-0.0803969
-0.0793578
-0.0783628
-0.0774156
-0.0765193
-0.0756769
-0.0748909
-0.0741635
-0.0734967
-0.0728921
-0.0723513
-0.0718756
-0.0714659
-0.0711232
-0.0708481
-0.0706414
-0.0705033
-0.0704342
-0.0913063
-0.0902695
-0.0893855
-0.0883611
-0.0873058
-0.0862229
-0.0851272
-0.0840286
-0.0829352
-0.0818544
-0.0807925
-0.0797555
-0.0787487
-0.0777767
-0.0768438
-0.075954
-0.0751105
-0.0743165
-0.0735745
-0.072887
-0.0722561
-0.0716836
-0.071171
-0.0707196
-0.0703308
-0.0700053
-0.069744
-0.0695476
-0.0694163
-0.0693506
-0.088424
-0.0875223
-0.0867648
-0.0858652
-0.0849287
-0.083958
-0.0829678
-0.0819681
-0.0809674
-0.0799733
-0.0789925
-0.078031
-0.0770945
-0.0761879
-0.0753157
-0.0744818
-0.0736898
-0.0729429
-0.072244
-0.0715955
-0.0709997
-0.0704584
-0.0699733
-0.069546
-0.0691775
-0.0688689
-0.0686211
-0.0684346
-0.0683101
-0.0682477
-0.0855782
-0.0848069
-0.084171
-0.0833916
-0.0825698
-0.0817074
-0.0808191
-0.0799152
-0.0790043
-0.0780943
-0.0771921
-0.0763042
-0.0754361
-0.0745931
-0.0737798
-0.0730003
-0.0722585
-0.0715577
-0.0709007
-0.0702902
-0.0697286
-0.0692179
-0.0687597
-0.0683557
-0.0680071
-0.067715
-0.0674803
-0.0673037
-0.0671857
-0.0671266
-0.0827714
-0.0821254
-0.0816061
-0.0809424
-0.0802308
-0.0794729
-0.078683
-0.0778716
-0.0770477
-0.0762191
-0.0753932
-0.0745764
-0.0737747
-0.0729935
-0.0722375
-0.071511
-0.070818
-0.0701619
-0.0695458
-0.0689724
-0.0684442
-0.0679632
-0.0675313
-0.0671501
-0.0668209
-0.0665449
-0.066323
-0.066156
-0.0660443
-0.0659884
-0.0800057
-0.0794798
-0.0790722
-0.0785193
-0.0779138
-0.0772563
-0.0765612
-0.0758391
-0.075099
-0.0743492
-0.0735971
-0.0728493
-0.0721119
-0.0713906
-0.0706902
-0.0700152
-0.0693696
-0.068757
-0.0681806
-0.0676433
-0.0671475
-0.0666955
-0.0662891
-0.0659301
-0.0656199
-0.0653596
-0.0651502
-0.0649925
-0.0648871
-0.0648343
-0.0772829
-0.076872
-0.076571
-0.0761243
-0.0756202
-0.0750592
-0.0744553
-0.0738192
-0.07316
-0.0724861
-0.0718052
-0.0711241
-0.070449
-0.0697857
-0.0691392
-0.068514
-0.0679145
-0.0673441
-0.0668063
-0.066304
-0.0658398
-0.0654159
-0.0650344
-0.064697
-0.0644052
-0.0641601
-0.0639629
-0.0638143
-0.0637149
-0.0636652
-0.0746049
-0.0743036
-0.0741042
-0.0737588
-0.0733518
-0.0728832
-0.0723668
-0.0718132
-0.0712319
-0.0706312
-0.070019
-0.0694022
-0.0687873
-0.0681801
-0.0675857
-0.0670088
-0.0664538
-0.0659244
-0.065424
-0.0649557
-0.0645221
-0.0641255
-0.0637682
-0.0634518
-0.0631778
-0.0629476
-0.0627623
-0.0626225
-0.062529
-0.0624822
-0.0719731
-0.0717761
-0.0716732
-0.0714243
-0.07111
-0.0707297
-0.0702971
-0.0698227
-0.069316
-0.0687857
-0.0682397
-0.0676849
-0.067128
-0.0665749
-0.0660308
-0.0655007
-0.0649887
-0.064499
-0.0640348
-0.0635994
-0.0631954
-0.0628254
-0.0624915
-0.0621954
-0.0619389
-0.0617231
-0.0615492
-0.061418
-0.0613302
-0.0612863
-0.0693888
-0.0692909
-0.0692794
-0.0691222
-0.0688961
-0.0686
-0.0682474
-0.0678488
-0.0674138
-0.066951
-0.0664685
-0.0659734
-0.0654723
-0.0649713
-0.0644758
-0.0639907
-0.0635204
-0.0630689
-0.0626398
-0.0622362
-0.061861
-0.0615166
-0.0612054
-0.060929
-0.0606893
-0.0604875
-0.0603247
-0.0602019
-0.0601196
-0.0600784
-0.0668531
-0.0668489
-0.0669238
-0.0668536
-0.0667112
-0.0664952
-0.066219
-0.0658928
-0.0655263
-0.0651282
-0.0647065
-0.0642687
-0.0638213
-0.0633705
-0.0629217
-0.06248
-0.0620498
-0.0616352
-0.0612399
-0.0608671
-0.0605196
-0.0602001
-0.0599108
-0.0596535
-0.0594301
-0.0592418
-0.0590898
-0.058975
-0.0588981
-0.0588596
-0.0643669
-0.0644512
-0.0646076
-0.0646195
-0.0645564
-0.0644166
-0.0642129
-0.0639557
-0.0636546
-0.0633183
-0.062955
-0.062572
-0.0621761
-0.0617734
-0.0613695
-0.0609695
-0.0605779
-0.0601989
-0.0598362
-0.059493
-0.0591723
-0.0588768
-0.0586086
-0.0583698
-0.0581621
-0.0579869
-0.0578453
-0.0577383
-0.0576666
-0.0576307
-0.0619311
-0.0620986
-0.0623315
-0.0624209
-0.0624328
-0.062365
-0.0622302
-0.0620386
-0.0617997
-0.0615224
-0.0612147
-0.0608842
-0.0605375
-0.060181
-0.0598202
-0.0594603
-0.0591058
-0.058761
-0.0584296
-0.0581149
-0.05782
-0.0575476
-0.0572998
-0.0570788
-0.0568863
-0.0567236
-0.0565921
-0.0564927
-0.056426
-0.0563925
-0.0595461
-0.0597918
-0.0600962
-0.0602585
-0.060341
-0.0603413
-0.0602717
-0.0601423
-0.0599626
-0.0597413
-0.0594868
-0.0592063
-0.0589067
-0.0585943
-0.0582747
-0.0579531
-0.0576342
-0.0573222
-0.0570209
-0.0567337
-0.0564636
-0.0562134
-0.0559852
-0.0557813
-0.0556034
-0.0554529
-0.0553311
-0.0552389
-0.0551771
-0.055146
-0.0572123
-0.0575311
-0.0579025
-0.0581331
-0.058282
-0.0583463
-0.0583383
-0.0582677
-0.0581441
-0.0579761
-0.0577719
-0.0575391
-0.0572844
-0.057014
-0.0567339
-0.056449
-0.0561641
-0.0558836
-0.0556111
-0.0553502
-0.0551039
-0.054875
-0.0546657
-0.0544783
-0.0543144
-0.0541756
-0.0540631
-0.0539779
-0.0539207
-0.053892
-0.0549301
-0.055317
-0.0557507
-0.0560451
-0.0562561
-0.0563807
-0.0564307
-0.0564156
-0.0563449
-0.0562273
-0.056071
-0.0558834
-0.0556714
-0.0554411
-0.0551985
-0.0549486
-0.0546963
-0.0544458
-0.0542009
-0.0539652
-0.0537417
-0.0535332
-0.0533421
-0.0531704
-0.05302
-0.0528924
-0.0527889
-0.0527104
-0.0526577
-0.0526312
-0.0526996
-0.0531498
-0.0536412
-0.0539951
-0.0542641
-0.0544451
-0.0545494
-0.0545866
-0.0545658
-0.0544959
-0.0543848
-0.05424
-0.0540685
-0.0538763
-0.0536694
-0.0534528
-0.0532315
-0.0530096
-0.0527911
-0.0525795
-0.0523778
-0.0521888
-0.052015
-0.0518584
-0.051721
-0.0516042
-0.0515092
-0.0514372
-0.0513887
-0.0513643
-0.0505208
-0.0510296
-0.0515743
-0.0519833
-0.0523063
-0.0525399
-0.0526951
-0.0527812
-0.0528074
-0.0527823
-0.0527139
-0.0526096
-0.0524763
-0.0523203
-0.0521472
-0.0519623
-0.0517704
-0.0515758
-0.0513824
-0.0511937
-0.0510128
-0.0508425
-0.0506852
-0.0505431
-0.0504181
-0.0503115
-0.0502248
-0.0501589
-0.0501145
-0.0500922
-0.0483937
-0.0489564
-0.0495501
-0.0500101
-0.0503831
-0.0506656
-0.0508682
-0.0510001
-0.0510702
-0.0510872
-0.0510589
-0.0509928
-0.0508956
-0.0507736
-0.0506326
-0.0504777
-0.0503138
-0.050145
-0.0499755
-0.0498086
-0.0496475
-0.049495
-0.0493535
-0.0492252
-0.0491119
-0.0490152
-0.0489363
-0.0488762
-0.0488358
-0.0488154
-0.046318
-0.0469302
-0.0475687
-0.0480756
-0.0484948
-0.0488225
-0.0490692
-0.0492436
-0.0493548
-0.0494111
-0.0494204
-0.0493901
-0.0493269
-0.049237
-0.0491262
-0.0489996
-0.0488621
-0.0487179
-0.048571
-0.0484248
-0.0482825
-0.0481469
-0.0480204
-0.0479052
-0.0478031
-0.0477157
-0.0476443
-0.0475899
-0.0475532
-0.0475347
-0.0442934
-0.0449509
-0.0456301
-0.0461799
-0.0466414
-0.0470109
-0.0472982
-0.0475122
-0.0476614
-0.0477544
-0.0477988
-0.047802
-0.0477707
-0.0477109
-0.0476286
-0.0475287
-0.0474161
-0.047295
-0.0471695
-0.0470429
-0.0469184
-0.0467988
-0.0466865
-0.0465838
-0.0464924
-0.0464139
-0.0463496
-0.0463005
-0.0462674
-0.0462507
-0.0423197
-0.0430182
-0.0437342
-0.044323
-0.0448232
-0.0452309
-0.0455557
-0.045806
-0.0459906
-0.0461175
-0.0461946
-0.046229
-0.0462274
-0.0461959
-0.0461402
-0.0460654
-0.0459762
-0.0458769
-0.0457715
-0.0456634
-0.0455557
-0.0454513
-0.0453525
-0.0452616
-0.0451803
-0.0451102
-0.0450527
-0.0450086
-0.0449788
-0.0449638
-0.0403965
-0.0411318
-0.0418808
-0.0425048
-0.0430402
-0.0434827
-0.0438417
-0.0441255
-0.0443425
-0.0445009
-0.0446082
-0.0446715
-0.0446976
-0.0446924
-0.0446615
-0.0446101
-0.0445429
-0.0444641
-0.0443776
-0.0442869
-0.0441951
-0.0441049
-0.0440189
-0.0439391
-0.0438674
-0.0438053
-0.0437541
-0.0437148
-0.0436882
-0.0436748
-0.0385231
-0.0392915
-0.0400698
-0.0407254
-0.0412923
-0.0417663
-0.0421564
-0.0424707
-0.0427174
-0.0429046
-0.0430397
-0.0431299
-0.0431815
-0.0432007
-0.043193
-0.0431634
-0.0431167
-0.0430571
-0.0429883
-0.0429139
-0.042837
-0.0427602
-0.0426861
-0.0426168
-0.0425541
-0.0424995
-0.0424544
-0.0424196
-0.0423961
-0.0423841
-0.0366992
-0.0374968
-0.0383007
-0.0389844
-0.0395795
-0.0400817
-0.0404999
-0.0408418
-0.0411155
-0.041329
-0.0414896
-0.0416043
-0.0416795
-0.0417212
-0.0417349
-0.0417256
-0.041698
-0.0416561
-0.0416039
-0.0415448
-0.0414817
-0.0414176
-0.0413547
-0.0412953
-0.041241
-0.0411935
-0.041154
-0.0411235
-0.0411028
-0.0410923
-0.0349242
-0.0357473
-0.0365734
-0.0372817
-0.0379016
-0.038429
-0.0388722
-0.0392388
-0.0395369
-0.0397742
-0.039958
-0.0400951
-0.0401919
-0.0402543
-0.0402877
-0.0402971
-0.0402871
-0.0402617
-0.0402249
-0.0401799
-0.0401299
-0.0400775
-0.0400251
-0.0399749
-0.0399285
-0.0398877
-0.0398535
-0.039827
-0.0398089
-0.0397998
-0.0331975
-0.0340425
-0.0348875
-0.035617
-0.0362585
-0.0368079
-0.0372732
-0.0376618
-0.0379817
-0.0382403
-0.038445
-0.0386024
-0.0387188
-0.0388001
-0.0388515
-0.0388781
-0.0388843
-0.0388742
-0.0388516
-0.0388198
-0.0387818
-0.0387403
-0.0386977
-0.038656
-0.0386171
-0.0385824
-0.0385532
-0.0385304
-0.0385149
-0.0385069
-0.0315184
-0.0323819
-0.0332426
-0.03399
-0.03465
-0.0352183
-0.0357028
-0.0361108
-0.0364498
-0.0367275
-0.0369508
-0.0371264
-0.0372605
-0.0373588
-0.0374267
-0.0374689
-0.03749
-0.0374939
-0.0374843
-0.0374646
-0.0374378
-0.0374064
-0.0373728
-0.0373392
-0.0373071
-0.0372782
-0.0372536
-0.0372343
-0.037221
-0.0372143
-0.0298863
-0.0307651
-0.0316381
-0.0324004
-0.0330757
-0.0336601
-0.034161
-0.0345856
-0.0349413
-0.0352356
-0.0354753
-0.0356671
-0.035817
-0.0359307
-0.0360133
-0.0360697
-0.0361043
-0.0361209
-0.0361233
-0.0361148
-0.0360981
-0.0360761
-0.0360509
-0.0360246
-0.0359989
-0.0359753
-0.035955
-0.0359389
-0.0359278
-0.0359221
-0.0283007
-0.0291914
-0.0300737
-0.0308477
-0.0315354
-0.0321329
-0.0326475
-0.0330861
-0.0334561
-0.0337647
-0.0340187
-0.0342247
-0.0343885
-0.0345158
-0.0346116
-0.0346808
-0.0347274
-0.0347556
-0.0347689
-0.0347705
-0.0347632
-0.0347497
-0.0347321
-0.0347126
-0.0346928
-0.0346741
-0.0346577
-0.0346447
-0.0346356
-0.0346309
-0.0267608
-0.0276602
-0.0285489
-0.0293315
-0.0300287
-0.0306365
-0.0311621
-0.0316121
-0.031994
-0.0323146
-0.0325809
-0.032799
-0.032975
-0.0331142
-0.0332217
-0.0333021
-0.0333596
-0.0333982
-0.0334212
-0.033432
-0.0334332
-0.0334274
-0.0334169
-0.0334035
-0.0333891
-0.0333749
-0.0333622
-0.0333519
-0.0333446
-0.0333408
-0.0252659
-0.0261711
-0.0270632
-0.0278515
-0.0285552
-0.0291706
-0.0297045
-0.0301635
-0.0305548
-0.0308853
-0.0311617
-0.0313902
-0.0315765
-0.0317259
-0.0318436
-0.0319339
-0.032001
-0.0320487
-0.0320805
-0.0320994
-0.0321083
-0.0321095
-0.0321053
-0.0320976
-0.0320881
-0.032078
-0.0320686
-0.0320608
-0.0320552
-0.0320523
-0.0238154
-0.0247233
-0.0256159
-0.026407
-0.0271145
-0.0277347
-0.0282744
-0.0287399
-0.0291384
-0.0294767
-0.0297611
-0.029998
-0.0301929
-0.030351
-0.0304773
-0.0305761
-0.0306516
-0.0307073
-0.0307468
-0.0307731
-0.0307887
-0.0307962
-0.0307977
-0.0307951
-0.03079
-0.0307836
-0.0307773
-0.0307717
-0.0307676
-0.0307655
-0.0224086
-0.0233163
-0.0242066
-0.0249977
-0.0257062
-0.0263286
-0.0268714
-0.0273411
-0.0277445
-0.0280883
-0.028379
-0.0286224
-0.0288241
-0.0289893
-0.0291228
-0.0292288
-0.0293114
-0.0293741
-0.0294203
-0.0294529
-0.0294746
-0.0294877
-0.0294943
-0.0294962
-0.029495
-0.029492
-0.0294884
-0.0294849
-0.0294822
-0.0294807
-0.0210448
-0.0219494
-0.0228346
-0.0236229
-0.0243297
-0.0249516
-0.0254952
-0.0259667
-0.0263728
-0.0267201
-0.0270149
-0.0272631
-0.0274701
-0.0276409
-0.0277801
-0.027892
-0.0279806
-0.0280492
-0.0281011
-0.0281392
-0.0281661
-0.0281841
-0.0281951
-0.028201
-0.0282034
-0.0282034
-0.0282021
-0.0282005
-0.028199
-0.0281982
-0.0197233
-0.020622
-0.0214994
-0.0222821
-0.0229845
-0.0236035
-0.0241454
-0.0246163
-0.0250229
-0.0253717
-0.0256689
-0.0259201
-0.0261306
-0.0263055
-0.0264491
-0.0265657
-0.026659
-0.0267324
-0.0267891
-0.0268319
-0.0268633
-0.0268854
-0.0269004
-0.0269098
-0.0269152
-0.0269178
-0.0269187
-0.0269187
-0.0269183
-0.0269181
-0.0184435
-0.0193334
-0.0202003
-0.0209748
-0.0216701
-0.0222836
-0.0228213
-0.0232895
-0.0236945
-0.0240428
-0.0243404
-0.0245929
-0.0248055
-0.0249829
-0.0251297
-0.0252497
-0.0253466
-0.0254239
-0.0254845
-0.0255311
-0.0255662
-0.0255919
-0.0256102
-0.0256226
-0.0256307
-0.0256356
-0.0256384
-0.0256398
-0.0256404
-0.0256406
-0.0172046
-0.018083
-0.0189367
-0.0197002
-0.0203858
-0.0209913
-0.0215226
-0.0219857
-0.0223871
-0.022733
-0.0230293
-0.0232814
-0.0234945
-0.0236731
-0.0238216
-0.0239439
-0.0240435
-0.0241236
-0.0241871
-0.0242368
-0.0242749
-0.0243035
-0.0243246
-0.0243395
-0.0243499
-0.0243568
-0.0243611
-0.0243637
-0.0243652
-0.0243658
-0.016006
-0.0168701
-0.0177079
-0.0184577
-0.0191312
-0.0197262
-0.0202487
-0.0207046
-0.0211003
-0.0214419
-0.0217351
-0.0219852
-0.0221973
-0.0223758
-0.0225248
-0.0226482
-0.0227493
-0.0228313
-0.022897
-0.022949
-0.0229894
-0.0230204
-0.0230436
-0.0230607
-0.0230729
-0.0230814
-0.0230872
-0.0230908
-0.0230929
-0.0230939
-0.014847
-0.015694
-0.0165132
-0.0172466
-0.0179053
-0.0184874
-0.0189989
-0.0194455
-0.0198335
-0.0201689
-0.0204573
-0.020704
-0.0209136
-0.0210906
-0.021239
-0.0213623
-0.021464
-0.021547
-0.0216141
-0.0216676
-0.0217097
-0.0217424
-0.0217674
-0.0217861
-0.0217998
-0.0218097
-0.0218165
-0.021821
-0.0218238
-0.021825
-0.0137269
-0.0145539
-0.0153519
-0.0160663
-0.0167077
-0.0172745
-0.0177726
-0.0182078
-0.0185862
-0.0189137
-0.0191957
-0.0194373
-0.0196431
-0.0198174
-0.0199639
-0.0200862
-0.0201875
-0.0202707
-0.0203382
-0.0203926
-0.0204358
-0.0204697
-0.0204959
-0.0205158
-0.0205307
-0.0205416
-0.0205493
-0.0205545
-0.0205577
-0.0205592
-0.0126449
-0.0134492
-0.0142231
-0.0149158
-0.0155373
-0.0160865
-0.016569
-0.0169908
-0.0173577
-0.0176755
-0.0179496
-0.0181847
-0.0183853
-0.0185556
-0.0186992
-0.0188195
-0.0189195
-0.0190019
-0.0190693
-0.0191238
-0.0191675
-0.019202
-0.019229
-0.0192498
-0.0192655
-0.0192772
-0.0192856
-0.0192913
-0.0192949
-0.0192966
-0.0116003
-0.0123789
-0.0131262
-0.0137945
-0.0143937
-0.0149228
-0.0153877
-0.015794
-0.0161476
-0.016454
-0.0167185
-0.0169458
-0.01714
-0.0173052
-0.0174448
-0.017562
-0.0176598
-0.0177408
-0.0178072
-0.0178613
-0.0179049
-0.0179396
-0.0179669
-0.0179882
-0.0180044
-0.0180166
-0.0180254
-0.0180315
-0.0180353
-0.0180372
-0.0105923
-0.0113423
-0.01206
-0.0127013
-0.0132756
-0.0137823
-0.0142274
-0.0146163
-0.0149548
-0.0152483
-0.0155018
-0.0157198
-0.0159064
-0.0160653
-0.0161999
-0.0163132
-0.016408
-0.0164868
-0.0165516
-0.0166047
-0.0166476
-0.016682
-0.0167093
-0.0167307
-0.0167471
-0.0167595
-0.0167686
-0.0167749
-0.0167789
-0.0167808
-0.00962023
-0.0103386
-0.011024
-0.0116356
-0.0121825
-0.0126646
-0.0130877
-0.0134573
-0.013779
-0.014058
-0.0142991
-0.0145066
-0.0146844
-0.014836
-0.0149647
-0.0150733
-0.0151643
-0.0152401
-0.0153027
-0.0153542
-0.015396
-0.0154297
-0.0154565
-0.0154776
-0.015494
-0.0155064
-0.0155156
-0.015522
-0.0155261
-0.015528
-0.00868302
-0.00936669
-0.0100168
-0.0105959
-0.0111129
-0.0115681
-0.0119672
-0.0123156
-0.0126189
-0.0128819
-0.0131092
-0.013305
-0.0134729
-0.0136163
-0.0137381
-0.0138411
-0.0139276
-0.0139998
-0.0140597
-0.014109
-0.0141492
-0.0141817
-0.0142078
-0.0142284
-0.0142444
-0.0142566
-0.0142657
-0.0142721
-0.0142761
-0.0142781
-0.00777996
-0.00842585
-0.00903789
-0.0095818
-0.0100664
-0.0104925
-0.0108657
-0.0111912
-0.0114744
-0.01172
-0.0119323
-0.0121153
-0.0122723
-0.0124065
-0.0125207
-0.0126173
-0.0126986
-0.0127667
-0.0128232
-0.0128699
-0.0129081
-0.0129391
-0.012964
-0.0129838
-0.0129992
-0.0130111
-0.0130199
-0.0130261
-0.01303
-0.013032
-0.00690981
-0.00751441
-0.00808522
-0.0085911
-0.00904088
-0.00943559
-0.00978085
-0.0100818
-0.0103434
-0.0105702
-0.0107663
-0.0109354
-0.0110805
-0.0112047
-0.0113105
-0.0114001
-0.0114756
-0.0115389
-0.0115916
-0.0116352
-0.011671
-0.0117001
-0.0117236
-0.0117423
-0.0117569
-0.0117682
-0.0117766
-0.0117826
-0.0117864
-0.0117882
-0.00607186
-0.00663214
-0.00715891
-0.00762416
-0.00803675
-0.00839804
-0.00871358
-0.00898829
-0.00922694
-0.00943379
-0.00961263
-0.00976679
-0.00989924
-0.0100126
-0.0101092
-0.0101912
-0.0102604
-0.0103184
-0.0103668
-0.010407
-0.01044
-0.0104669
-0.0104886
-0.010506
-0.0105197
-0.0105302
-0.0105381
-0.0105437
-0.0105473
-0.010549
-0.00526434
-0.00577623
-0.00625548
-0.00667709
-0.00704994
-0.00737564
-0.0076596
-0.00790652
-0.00812084
-0.00830653
-0.00846704
-0.00860542
-0.00872434
-0.00882617
-0.00891303
-0.00898677
-0.00904907
-0.00910142
-0.00914515
-0.00918145
-0.00921135
-0.00923579
-0.00925558
-0.00927142
-0.00928391
-0.00929356
-0.00930079
-0.00930594
-0.00930924
-0.00931088
-0.00448677
-0.00494753
-0.00537671
-0.00575231
-0.00608331
-0.00637158
-0.00662239
-0.00684017
-0.00702902
-0.00719254
-0.00733386
-0.00745569
-0.00756041
-0.00765012
-0.00772666
-0.0077917
-0.00784669
-0.00789294
-0.00793162
-0.00796376
-0.00799028
-0.00801199
-0.0080296
-0.00804372
-0.00805487
-0.0080635
-0.00806998
-0.0080746
-0.00807756
-0.00807898
-0.00373631
-0.00414078
-0.00451578
-0.00484209
-0.0051286
-0.00537733
-0.00559327
-0.00578047
-0.00594264
-0.00608299
-0.00620423
-0.00630875
-0.0063986
-0.00647559
-0.00654131
-0.00659718
-0.00664445
-0.00668424
-0.00671755
-0.00674526
-0.00676815
-0.00678691
-0.00680215
-0.00681439
-0.00682407
-0.00683157
-0.00683721
-0.00684123
-0.00684383
-0.00684518
-0.0030132
-0.00335969
-0.00367881
-0.00395404
-0.00419439
-0.00440213
-0.00458199
-0.00473764
-0.00487234
-0.00498882
-0.00508942
-0.00517612
-0.00525065
-0.00531453
-0.00536906
-0.00541544
-0.0054547
-0.00548776
-0.00551545
-0.0055385
-0.00555756
-0.0055732
-0.00558591
-0.00559612
-0.00560421
-0.00561049
-0.00561521
-0.00561858
-0.00562074
-0.00562173
-0.0023123
-0.00259331
-0.00285113
-0.00307127
-0.00326255
-0.00342716
-0.00356928
-0.00369205
-0.00379818
-0.00388989
-0.00396907
-0.00403731
-0.00409596
-0.00414623
-0.00418916
-0.00422567
-0.00425659
-0.00428265
-0.00430448
-0.00432266
-0.00433771
-0.00435006
-0.0043601
-0.00436818
-0.00437459
-0.00437957
-0.00438331
-0.00438597
-0.0043877
-0.00438875
-0.0016357
-0.00185247
-0.00204931
-0.00221363
-0.00235504
-0.00247576
-0.00257958
-0.00266904
-0.0027463
-0.00281302
-0.00287061
-0.00292022
-0.00296286
-0.0029994
-0.00303059
-0.00305712
-0.00307958
-0.00309851
-0.00311437
-0.00312757
-0.0031385
-0.00314747
-0.00315477
-0.00316064
-0.00316529
-0.00316891
-0.00317162
-0.00317355
-0.00317475
-0.00317513
-0.000972958
-0.00111195
-0.00123855
-0.0013409
-0.00142863
-0.00150283
-0.0015664
-0.00162107
-0.00166821
-0.00170892
-0.00174403
-0.00177428
-0.00180026
-0.00182253
-0.00184153
-0.00185769
-0.00187137
-0.00188289
-0.00189254
-0.00190058
-0.00190723
-0.00191269
-0.00191713
-0.0019207
-0.00192353
-0.00192573
-0.00192738
-0.00192854
-0.00192927
-0.00192996
-0.000330357
-0.000398406
-0.000456723
-0.000498086
-0.000532503
-0.00056028
-0.000583796
-0.000603896
-0.000621235
-0.000636218
-0.000649149
-0.000660283
-0.000669837
-0.000678006
-0.000684963
-0.000690862
-0.000695841
-0.000700021
-0.000703511
-0.000706407
-0.000708793
-0.000710742
-0.000712321
-0.000713586
-0.000714583
-0.000715354
-0.000715933
-0.000716341
-0.000716484
-0.000715779
-0.182717
-0.180363
-0.177942
-0.175456
-0.172906
-0.170295
-0.167625
-0.164897
-0.162114
-0.159279
-0.156394
-0.153463
-0.15049
-0.147477
-0.144428
-0.141349
-0.138242
-0.135112
-0.131963
-0.1288
-0.125628
-0.12245
-0.119272
-0.116098
-0.112931
-0.109777
-0.106639
-0.103521
-0.100427
-0.0973615
-0.0943265
-0.0913257
-0.088362
-0.0854382
-0.0825566
-0.0797194
-0.0769286
-0.074186
-0.0714932
-0.0688514
-0.0662618
-0.0637252
-0.0612425
-0.0588142
-0.0564405
-0.0541218
-0.0518581
-0.0496493
-0.0474954
-0.0453959
-0.0433507
-0.0413591
-0.0394208
-0.0375351
-0.0357015
-0.0339193
-0.0321878
-0.0305064
-0.0288743
-0.0272909
-0.0257553
-0.024267
-0.022825
-0.0214288
-0.0200777
-0.0187709
-0.0175077
-0.0162874
-0.0151094
-0.0139731
-0.0128776
-0.0118224
-0.0108068
-0.00983011
-0.00889155
-0.00799044
-0.00712592
-0.00629727
-0.00550336
-0.00474355
-0.00401599
-0.00332069
-0.00265384
-0.00201787
-0.00140383
-0.000822083
-0.00025102
-0.186248
-0.183828
-0.181346