/*--------------------------------*- C++ -*----------------------------------*\
  =========                 |
  \\      /  F ield         | OpenFOAM: The Open Source CFD Toolbox
   \\    /   O peration     | Website:  https://openfoam.org
    \\  /    A nd           | Version:  7
     \\/     M anipulation  |
\*---------------------------------------------------------------------------*/
FoamFile
{
    version     2.0;
    format      ascii;
    class       surfaceScalarField;
    location    "70";
    object      phi;
}
// * * * * * * * * * * * * * * * * * * * * * * * * * * * * * * * * * * * * * //

dimensions      [0 3 -1 0 0 0 0];

internalField   nonuniform List<scalar> 
6869
(
-0.000192457
0.0146939
0.000223651
-0.000159992
0.0157332
-0.000132622
0.0162044
-0.000110517
0.0163567
-9.22164e-05
0.0163624
-7.65778e-05
0.0163115
-6.2934e-05
0.0162426
-5.09218e-05
0.0161703
-4.0341e-05
0.0160994
-3.10678e-05
0.0160307
-2.30056e-05
0.0159644
-1.60665e-05
0.0159002
-1.01663e-05
0.0158383
-5.22201e-06
0.0157787
-1.15203e-06
0.0157217
2.12683e-06
0.0156675
4.6864e-06
0.0156163
6.59696e-06
0.0155683
7.92679e-06
0.0155235
8.73647e-06
0.0154822
9.08888e-06
0.0154444
9.03908e-06
0.0154102
8.64015e-06
0.0153797
7.94226e-06
0.0153529
6.99232e-06
0.0153298
5.83632e-06
0.0153106
4.51768e-06
0.0152951
3.07809e-06
0.0152835
1.5585e-06
0.0152758
0.0152719
-0.00021273
0.014664
0.000242624
-0.000180611
0.0157011
-0.000152897
0.0161766
-0.000130098
0.0163339
-0.000110992
0.0163433
-9.45194e-05
0.016295
-8.00369e-05
0.0162281
-6.71908e-05
0.0161575
-5.57833e-05
0.016088
-4.56898e-05
0.0160207
-3.68132e-05
0.0159555
-2.90672e-05
0.0158925
-2.23676e-05
0.0158316
-1.66317e-05
0.015773
-1.1778e-05
0.0157169
-7.73002e-06
0.0156635
-4.41208e-06
0.015613
-1.75368e-06
0.0155656
3.11996e-07
0.0155215
1.85486e-06
0.0154807
2.9277e-06
0.0154433
3.58834e-06
0.0154096
3.89096e-06
0.0153794
3.88726e-06
0.0153529
3.62375e-06
0.0153301
3.14879e-06
0.015311
2.5063e-06
0.0152958
1.73923e-06
0.0152843
8.89706e-07
0.0152766
0.0152728
-0.000232367
0.0146353
0.000261036
-0.000200588
0.0156693
-0.000172551
0.0161486
-0.000149096
0.0163105
-0.00012922
0.0163235
-0.000111944
0.0162777
-9.66546e-05
0.0162128
-8.30059e-05
0.0161438
-7.08024e-05
0.0160758
-5.99185e-05
0.0160098
-5.02573e-05
0.0159459
-4.17327e-05
0.015884
-3.42612e-05
0.0158241
-2.77608e-05
0.0157665
-2.21514e-05
0.0157113
-1.73555e-05
0.0156587
-1.32988e-05
0.015609
-9.91013e-06
0.0155622
-7.12204e-06
0.0155187
-4.873e-06
0.0154784
-3.10039e-06
0.0154416
-1.74771e-06
0.0154082
-7.60974e-07
0.0153784
-8.90903e-08
0.0153522
3.2167e-07
0.0153297
5.1419e-07
0.0153108
5.34407e-07
0.0152957
4.26518e-07
0.0152844
2.34027e-07
0.0152768
0.0152731
-0.000251367
0.0146078
0.00027889
-0.000219919
0.0156379
-0.000191584
0.0161203
-0.00016751
0.0162864
-0.000146896
0.0163028
-0.00012885
0.0162597
-0.000112786
0.0161967
-9.83656e-05
0.0161294
-8.53966e-05
0.0160628
-7.37522e-05
0.0159981
-6.33355e-05
0.0159355
-5.40604e-05
0.0158747
-4.58442e-05
0.0158159
-3.86056e-05
0.0157593
-3.22652e-05
0.0157049
-2.67456e-05
0.0156532
-2.19731e-05
0.0156042
-1.7877e-05
0.0155582
-1.43903e-05
0.0155152
-1.14493e-05
0.0154755
-8.99336e-06
0.0154391
-6.96466e-06
0.0154062
-5.30839e-06
0.0153767
-3.9719e-06
0.0153509
-2.90671e-06
0.0153286
-2.06324e-06
0.01531
-1.39545e-06
0.0152951
-8.58441e-07
0.0152839
-4.07991e-07
0.0152764
0.0152727
-0.00026973
0.0145814
0.000296183
-0.000238604
0.0156067
-0.000209995
0.0160917
-0.000185335
0.0162617
-0.000164019
0.0162815
-0.000145236
0.0162409
-0.000128428
0.0161799
-0.000113269
0.0161142
-9.95646e-05
0.0160491
-8.71895e-05
0.0159858
-7.60462e-05
0.0159243
-6.60486e-05
0.0158647
-5.71147e-05
0.015807
-4.91638e-05
0.0157513
-4.21169e-05
0.0156979
-3.58974e-05
0.015647
-3.04318e-05
0.0155987
-2.56497e-05
0.0155534
-2.14842e-05
0.015511
-1.78714e-05
0.0154719
-1.47505e-05
0.015436
-1.20636e-05
0.0154035
-9.75522e-06
0.0153744
-7.77278e-06
0.0153489
-6.0657e-06
0.0153269
-4.58509e-06
0.0153085
-3.28372e-06
0.0152938
-2.11577e-06
0.0152827
-1.0362e-06
0.0152753
0.0152716
-0.000287454
0.0145559
0.000312911
-0.000256641
0.0155759
-0.000227782
0.0160628
-0.000202571
0.0162365
-0.000180587
0.0162595
-0.0001611
0.0162214
-0.000143581
0.0161624
-0.000127713
0.0160984
-0.000113305
0.0160347
-0.000100229
0.0159727
-8.83878e-05
0.0159125
-7.76957e-05
0.015854
-6.8071e-05
0.0157974
-5.94335e-05
0.0157427
-5.17047e-05
0.0156902
-4.48088e-05
0.0156401
-3.86726e-05
0.0155926
-3.32259e-05
0.0155479
-2.84018e-05
0.0155062
-2.41366e-05
0.0154676
-2.03694e-05
0.0154322
-1.70418e-05
0.0154002
-1.40983e-05
0.0153715
-1.14857e-05
0.0153463
-9.15262e-06
0.0153246
-7.04989e-06
0.0153064
-5.12953e-06
0.0152919
-3.34498e-06
0.0152809
-1.65037e-06
0.0152736
0.01527
-0.000304538
0.0145314
0.000329069
-0.000274029
0.0155454
-0.000244942
0.0160337
-0.000219213
0.0162108
-0.000196596
0.0162369
-0.000176439
0.0162012
-0.000158243
0.0161442
-0.000141699
0.0160818
-0.000126617
0.0160196
-0.00011287
0.0159589
-0.000100359
0.0159
-8.90004e-05
0.0158426
-7.87115e-05
0.0157871
-6.9413e-05
0.0157334
-6.1027e-05
0.0156818
-5.34782e-05
0.0156325
-4.66936e-05
0.0155858
-4.06036e-05
0.0155418
-3.51414e-05
0.0155008
-3.02432e-05
0.0154627
-2.58481e-05
0.0154278
-2.18976e-05
0.0153962
-1.83359e-05
0.0153679
-1.51093e-05
0.015343
-1.21661e-05
0.0153216
-9.45657e-06
0.0153037
-6.93209e-06
0.0152893
-4.5455e-06
0.0152785
-2.25026e-06
0.0152713
0.0152677
-0.000320978
0.0145077
0.00034465
-0.000290763
0.0155152
-0.000261472
0.0160044
-0.000235261
0.0161846
-0.000212047
0.0162137
-0.000191254
0.0161804
-0.000172414
0.0161254
-0.000155225
0.0160646
-0.0001395
0.0160039
-0.000125111
0.0159445
-0.00011196
0.0158868
-9.99618e-05
0.0158307
-8.90352e-05
0.0157761
-7.91012e-05
0.0157234
-7.00825e-05
0.0156728
-6.1904e-05
0.0156243
-5.44935e-05
0.0155784
-4.77815e-05
0.0155351
-4.17014e-05
0.0154947
-3.61897e-05
0.0154572
-3.11852e-05
0.0154228
-2.66296e-05
0.0153916
-2.24667e-05
0.0153638
-1.86426e-05
0.0153392
-1.51053e-05
0.0153181
-1.18043e-05
0.0153004
-8.69077e-06
0.0152862
-5.71693e-06
0.0152756
-2.83565e-06
0.0152684
0.0152649
-0.000336772
0.0144848
0.000359648
-0.000306843
0.0154853
-0.00027737
0.015975
-0.000250712
0.0161579
-0.000226936
0.0161899
-0.000205543
0.016159
-0.000186092
0.0161059
-0.00016829
0.0160468
-0.000151953
0.0159875
-0.000136952
0.0159295
-0.000123189
0.015873
-0.000110579
0.015818
-9.90416e-05
0.0157646
-8.84975e-05
0.0157129
-7.88702e-05
0.0156631
-7.00853e-05
0.0156156
-6.20711e-05
0.0155704
-5.47582e-05
0.0155278
-4.80806e-05
0.015488
-4.19747e-05
0.0154511
-3.63796e-05
0.0154172
-3.12367e-05
0.0153865
-2.64898e-05
0.015359
-2.20847e-05
0.0153348
-1.79692e-05
0.015314
-1.40924e-05
0.0152965
-1.0405e-05
0.0152825
-6.85891e-06
0.015272
-3.40636e-06
0.015265
0.0152615
-0.000351916
0.0144627
0.000374055
-0.000322265
0.0154556
-0.000292635
0.0159453
-0.000265564
0.0161308
-0.000241264
0.0161656
-0.000219306
0.0161371
-0.000199277
0.0160859
-0.000180895
0.0160285
-0.000163976
0.0159706
-0.000148393
0.015914
-0.000134047
0.0158587
-0.000120853
0.0158048
-0.00010873
0.0157525
-9.76011e-05
0.0157018
-8.73895e-05
0.0156529
-7.80214e-05
0.0156062
-6.94255e-05
0.0155618
-6.1533e-05
0.0155199
-5.42782e-05
0.0154807
-4.75975e-05
0.0154444
-4.14303e-05
0.0154111
-3.57179e-05
0.0153808
-3.04042e-05
0.0153537
-2.54348e-05
0.0153298
-2.07572e-05
0.0153093
-1.63203e-05
0.0152921
-1.20745e-05
0.0152783
-7.97114e-06
0.0152679
-3.96225e-06
0.015261
0.0152575
-0.000366407
0.0144412
0.000387865
-0.000337029
0.0154263
-0.000307265
0.0159156
-0.000279817
0.0161034
-0.00025503
0.0161408
-0.000232542
0.0161146
-0.000211969
0.0160653
-0.000193039
0.0160095
-0.00017557
0.0159532
-0.000159434
0.0158978
-0.000144533
0.0158438
-0.000130782
0.0157911
-0.000118101
0.0157398
-0.000106412
0.0156901
-9.56402e-05
0.0156421
-8.57118e-05
0.0155963
-7.65563e-05
0.0155526
-6.81053e-05
0.0155115
-6.02933e-05
0.0154729
-5.30573e-05
0.0154372
-4.63365e-05
0.0154043
-4.00727e-05
0.0153745
-3.42094e-05
0.0153478
-2.86923e-05
0.0153243
-2.34688e-05
0.0153041
-1.84876e-05
0.0152871
-1.36987e-05
0.0152735
-9.05339e-06
0.0152633
-4.50318e-06
0.0152564
0.015253
-0.000380243
0.0144204
0.000401069
-0.000351132
0.0153971
-0.000321259
0.0158857
-0.00029347
0.0160756
-0.000268232
0.0161156
-0.000245251
0.0160916
-0.00022417
0.0160442
-0.000204724
0.0159901
-0.000186736
0.0159352
-0.000170077
0.0158812
-0.000154649
0.0158284
-0.000140368
0.0157768
-0.000127154
0.0157266
-0.000114931
0.0156778
-0.000103622
0.0156308
-9.31565e-05
0.0155858
-8.34632e-05
0.0155429
-7.44747e-05
0.0155025
-6.61257e-05
0.0154646
-5.83536e-05
0.0154294
-5.10979e-05
0.0153971
-4.43004e-05
0.0153677
-3.79048e-05
0.0153414
-3.18568e-05
0.0153183
-2.61036e-05
0.0152983
-2.05939e-05
0.0152816
-1.52776e-05
0.0152682
-1.01055e-05
0.0152581
-5.02908e-06
0.0152514
0.015248
-0.00039342
0.0144002
0.000413661
-0.000364575
0.0153683
-0.000334617
0.0158557
-0.000306523
0.0160475
-0.000280873
0.01609
-0.000257435
0.0160682
-0.000235879
0.0160227
-0.000215951
0.0159702
-0.000197474
0.0159167
-0.000180322
0.015864
-0.000164396
0.0158124
-0.000149612
0.015762
-0.000135891
0.0157129
-0.000123157
0.0156651
-0.000111336
0.015619
-0.000100356
0.0155748
-9.01464e-05
0.0155327
-8.06412e-05
0.015493
-7.17753e-05
0.0154557
-6.34863e-05
0.0154211
-5.57141e-05
0.0153893
-4.84008e-05
0.0153604
-4.14901e-05
0.0153345
-3.49279e-05
0.0153117
-2.86613e-05
0.015292
-2.2639e-05
0.0152756
-1.68107e-05
0.0152623
-1.11273e-05
0.0152524
-5.53986e-06
0.0152458
0.0152424
-0.000405939
0.0143805
0.000425636
-0.000377357
0.0153397
-0.00034734
0.0158257
-0.000318978
0.0160192
-0.000292953
0.0160639
-0.000269095
0.0160443
-0.000247099
0.0160007
-0.000226721
0.0159498
-0.000207787
0.0158978
-0.00019017
0.0158464
-0.000173774
0.015796
-0.000158514
0.0157468
-0.000144312
0.0156987
-0.000131093
0.0156519
-0.000118782
0.0156067
-0.00010731
0.0155633
-9.66062e-05
0.015522
-8.6605e-05
0.015483
-7.7242e-05
0.0154464
-6.84553e-05
0.0154123
-6.01851e-05
0.015381
-5.23737e-05
0.0153526
-4.49652e-05
0.0153271
-3.79055e-05
0.0153046
-3.11418e-05
0.0152853
-2.46227e-05
0.0152691
-1.82982e-05
0.015256
-1.21187e-05
0.0152462
-6.0355e-06
0.0152397
0.0152364
-0.000417798
0.0143613
0.000436988
-0.00038948
0.0153114
-0.000359431
0.0157957
-0.000330836
0.0159906
-0.000304475
0.0160376
-0.000280234
0.0160201
-0.000257833
0.0159783
-0.000237037
0.015929
-0.000217676
0.0158784
-0.000199625
0.0158283
-0.000182786
0.0157792
-0.000167077
0.0157311
-0.000152419
0.015684
-0.000138738
0.0156382
-0.000125962
0.0155939
-0.00011402
0.0155514
-0.000102843
0.0155108
-9.23666e-05
0.0154725
-8.25263e-05
0.0154365
-7.32609e-05
0.0154031
-6.4511e-05
0.0153723
-5.62193e-05
0.0153443
-4.83301e-05
0.0153192
-4.07895e-05
0.0152971
-3.35449e-05
0.015278
-2.65451e-05
0.0152621
-1.97398e-05
0.0152492
-1.30797e-05
0.0152396
-6.51597e-06
0.0152331
0.0152299
-0.000428999
0.0143426
0.000447714
-0.000400947
0.0152833
-0.000370891
0.0157656
-0.0003421
0.0159618
-0.000315442
0.0160109
-0.000290854
0.0159955
-0.000268082
0.0159555
-0.000246901
0.0159078
-0.000227144
0.0158586
-0.000208687
0.0158099
-0.000191434
0.015762
-0.000175302
0.0157149
-0.000160214
0.0156689
-0.000146096
0.0156241
-0.000132877
0.0155807
-0.000120487
0.015539
-0.000108858
0.0154992
-9.79267e-05
0.0154616
-8.76287e-05
0.0154262
-7.79035e-05
0.0153933
-6.86922e-05
0.0153631
-5.99378e-05
0.0153356
-5.1585e-05
0.0153109
-4.35802e-05
0.0152891
-3.58709e-05
0.0152703
-2.84061e-05
0.0152546
-2.11356e-05
0.0152419
-1.40103e-05
0.0152324
-6.98127e-06
0.0152261
0.0152229
-0.000439543
0.0143243
0.000457812
-0.000411761
0.0152556
-0.000381725
0.0157356
-0.000352775
0.0159328
-0.000325856
0.015984
-0.000300958
0.0159706
-0.00027785
0.0159324
-0.000256317
0.0158863
-0.000236195
0.0158385
-0.000217361
0.015791
-0.000199721
0.0157443
-0.000183192
0.0156984
-0.000167698
0.0156534
-0.000153167
0.0156096
-0.000139528
0.0155671
-0.000126712
0.0155262
-0.000114653
0.0154872
-0.000103286
0.0154502
-9.25501e-05
0.0154155
-8.23838e-05
0.0153832
-7.27291e-05
0.0153534
-6.35296e-05
0.0153264
-5.47302e-05
0.0153021
-4.62776e-05
0.0152806
-3.81198e-05
0.0152622
-3.02058e-05
0.0152467
-2.24858e-05
0.0152342
-1.49105e-05
0.0152249
-7.43143e-06
0.0152186
0.0152155
-0.000449434
0.0143065
0.000467281
-0.000421928
0.0152281
-0.000391939
0.0157056
-0.000362864
0.0159037
-0.000335724
0.0159569
-0.000310552
0.0159454
-0.000287143
0.015909
-0.000265289
0.0158644
-0.000244831
0.0158181
-0.000225649
0.0157719
-0.000207649
0.0157263
-0.000190749
0.0156815
-0.000174874
0.0156375
-0.000159953
0.0155946
-0.000145917
0.015553
-0.000132697
0.015513
-0.000120228
0.0154747
-0.000108447
0.0154384
-9.72915e-05
0.0154043
-8.67027e-05
0.0153726
-7.66226e-05
0.0153434
-6.69952e-05
0.0153167
-5.77661e-05
0.0152928
-4.88823e-05
0.0152718
-4.02919e-05
0.0152536
-3.19445e-05
0.0152383
-2.37904e-05
0.0152261
-1.57805e-05
0.0152169
-7.86649e-06
0.0152107
0.0152076
-0.000458678
0.014289
0.000476124
-0.000431453
0.0152008
-0.000401538
0.0156757
-0.000372376
0.0158746
-0.000345051
0.0159295
-0.000319641
0.01592
-0.000295963
0.0158853
-0.000273821
0.0158423
-0.000253058
0.0157973
-0.000233556
0.0157524
-0.000215223
0.015708
-0.000197977
0.0156643
-0.000181746
0.0156213
-0.000166458
0.0155794
-0.000152047
0.0155386
-0.000138444
0.0154994
-0.000125586
0.0154618
-0.000113409
0.0154262
-0.000101854
0.0153928
-9.08612e-05
0.0153616
-8.03734e-05
0.0153329
-7.03355e-05
0.0153067
-6.06934e-05
0.0152832
-5.13946e-05
0.0152625
-4.23877e-05
0.0152446
-3.36225e-05
0.0152296
-2.50497e-05
0.0152175
-1.66204e-05
0.0152084
-8.28653e-06
0.0152024
0.0151993
-0.00046728
0.0142719
0.000484342
-0.000440345
0.0151739
-0.00041053
0.0156458
-0.000381315
0.0158454
-0.000353842
0.0159021
-0.000328231
0.0158944
-0.000304318
0.0158614
-0.000281918
0.0158199
-0.000260879
0.0157763
-0.000241086
0.0157326
-0.000222445
0.0156893
-0.000204879
0.0156467
-0.000188315
0.0156047
-0.000172684
0.0155637
-0.00015792
0.0155239
-0.000143955
0.0154854
-0.000130728
0.0154486
-0.000118176
0.0154137
-0.00010624
0.0153808
-9.48605e-05
0.0153502
-8.39827e-05
0.015322
-7.35512e-05
0.0152963
-6.35127e-05
0.0152732
-5.38151e-05
0.0152528
-4.44076e-05
0.0152352
-3.52402e-05
0.0152204
-2.62639e-05
0.0152085
-1.74303e-05
0.0151996
-8.69162e-06
0.0151936
0.0151906
-0.00047525
0.0142553
0.000491942
-0.000448613
0.0151473
-0.000418925
0.0156162
-0.000389692
0.0158161
-0.000362107
0.0158745
-0.000336328
0.0158686
-0.000312214
0.0158373
-0.000289587
0.0157972
-0.000268301
0.015755
-0.000248243
0.0157125
-0.000229321
0.0156704
-0.000211459
0.0156288
-0.000194587
0.0155879
-0.000178635
0.0155478
-0.000163539
0.0155088
-0.000149233
0.0154711
-0.000135657
0.015435
-0.000122748
0.0154008
-0.000110449
0.0153685
-9.87022e-05
0.0153385
-8.74516e-05
0.0153107
-7.66435e-05
0.0152855
-6.6225e-05
0.0152627
-5.61447e-05
0.0152427
-4.63521e-05
0.0152254
-3.67978e-05
0.0152108
-2.74333e-05
0.0151992
-1.82105e-05
0.0151904
-9.08187e-06
0.0151845
0.0151816
-0.000482596
0.0142389
0.00049893
-0.000456267
0.0151209
-0.000426732
0.0155866
-0.000397514
0.0157869
-0.000369852
0.0158468
-0.00034394
0.0158427
-0.000319656
0.015813
-0.000296833
0.0157744
-0.000275329
0.0157335
-0.000255033
0.0156922
-0.000235855
0.0156512
-0.000217722
0.0156107
-0.000200564
0.0155707
-0.000184313
0.0155315
-0.000168906
0.0154934
-0.000154281
0.0154565
-0.000140374
0.0154211
-0.000127129
0.0153875
-0.000114485
0.0153559
-0.000102388
0.0153264
-9.07816e-05
0.0152991
-7.96135e-05
0.0152743
-6.88312e-05
0.015252
-5.8384e-05
0.0152322
-4.82219e-05
0.0152152
-3.82961e-05
0.0152009
-2.85584e-05
0.0151894
-1.89612e-05
0.0151808
-9.45741e-06
0.015175
0.0151721
-0.00048933
0.0142229
0.000505315
-0.000463318
0.0150949
-0.000433962
0.0155573
-0.000404792
0.0157577
-0.000377088
0.0158191
-0.000351076
0.0158167
-0.000326654
0.0157886
-0.000303664
0.0157514
-0.000281969
0.0157118
-0.000261461
0.0156717
-0.000242053
0.0156318
-0.000223672
0.0155923
-0.00020625
0.0155533
-0.000189723
0.015515
-0.000174026
0.0154777
-0.0001591
0.0154415
-0.000144884
0.0154069
-0.000131319
0.015374
-0.000118349
0.0153429
-0.000105919
0.0153139
-9.39741e-05
0.0152872
-8.24625e-05
0.0152628
-7.13325e-05
0.0152408
-6.05341e-05
0.0152214
-5.00179e-05
0.0152047
-3.97356e-05
0.0151906
-2.96395e-05
0.0151793
-1.96827e-05
0.0151708
-9.81836e-06
0.0151651
0.0151623
-0.000495465
0.0142073
0.000511108
-0.000469782
0.0150692
-0.000440628
0.0155281
-0.000411538
0.0157287
-0.000383824
0.0157914
-0.000357745
0.0157906
-0.000333215
0.015764
-0.000310087
0.0157283
-0.000288228
0.0156899
-0.000267534
0.015651
-0.00024792
0.0156122
-0.000229314
0.0155737
-0.000211651
0.0155356
-0.000194868
0.0154982
-0.000178903
0.0154617
-0.000163695
0.0154263
-0.000149188
0.0153924
-0.000135322
0.0153601
-0.000122044
0.0153296
-0.000109298
0.0153012
-9.70309e-05
0.0152749
-8.51919e-05
0.0152509
-7.373e-05
0.0152294
-6.25958e-05
0.0152103
-5.17406e-05
0.0151938
-4.11168e-05
0.01518
-3.06772e-05
0.0151689
-2.03753e-05
0.0151605
-1.01649e-05
0.0151549
0.0151521
-0.000501016
0.014192
0.000516321
-0.000475671
0.0150439
-0.000446744
0.0154992
-0.000417764
0.0156997
-0.000390072
0.0157637
-0.000363956
0.0157645
-0.000339348
0.0157394
-0.000316109
0.0157051
-0.000294113
0.0156679
-0.000273258
0.0156302
-0.000253461
0.0155924
-0.000234654
0.0155549
-0.000216771
0.0155178
-0.000199753
0.0154812
-0.000183538
0.0154455
-0.00016807
0.0154109
-0.000153289
0.0153776
-0.000139141
0.015346
-0.000125571
0.0153161
-0.000112526
0.0152881
-9.99537e-05
0.0152623
-8.78033e-05
0.0152388
-7.60251e-05
0.0152176
-6.45704e-05
0.0151989
-5.33912e-05
0.0151827
-4.24405e-05
0.0151691
-3.16719e-05
0.0151581
-2.10393e-05
0.0151499
-1.04972e-05
0.0151444
0.0151416
-0.000505997
0.014177
0.000520969
-0.000481001
0.0150189
-0.000452323
0.0154705
-0.000423482
0.0156708
-0.000395843
0.0157361
-0.00036972
0.0157384
-0.000345062
0.0157148
-0.00032174
0.0156817
-0.000299632
0.0156458
-0.000278639
0.0156092
-0.000258683
0.0155725
-0.000239696
0.0155359
-0.000221615
0.0154997
-0.000204382
0.015464
-0.000187938
0.015429
-0.000172227
0.0153952
-0.000157191
0.0153626
-0.000142778
0.0153315
-0.000128934
0.0153022
-0.000115607
0.0152748
-0.000102745
0.0152495
-9.02984e-05
0.0152263
-7.82192e-05
0.0152055
-6.6459e-05
0.0151871
-5.49705e-05
0.0151712
-4.37076e-05
0.0151578
-3.26242e-05
0.015147
-2.16752e-05
0.0151389
-1.08154e-05
0.0151335
0.0151308
-0.000510427
0.0141624
0.000525067
-0.000485789
0.0149943
-0.000457382
0.0154421
-0.000428706
0.0156422
-0.00040115
0.0157085
-0.000375049
0.0157123
-0.000350368
0.0156901
-0.000326989
0.0156584
-0.000304793
0.0156236
-0.000283687
0.0155881
-0.000263593
0.0155524
-0.000244448
0.0155168
-0.000226189
0.0154814
-0.000208761
0.0154465
-0.000192106
0.0154124
-0.00017617
0.0153792
-0.000160898
0.0153473
-0.000146237
0.0153169
-0.000132135
0.0152881
-0.000118541
0.0152612
-0.000105405
0.0152363
-9.2679e-05
0.0152136
-8.03138e-05
0.0151931
-6.82628e-05
0.015175
-5.64797e-05
0.0151594
-4.49187e-05
0.0151462
-3.35347e-05
0.0151357
-2.22832e-05
0.0151277
-1.11197e-05
0.0151223
0.0151197
-0.000514322
0.0141481
0.000528632
-0.000490052
0.01497
-0.000461935
0.015414
-0.000433452
0.0156137
-0.000406005
0.0156811
-0.000379953
0.0156862
-0.000355276
0.0156654
-0.000331864
0.0156349
-0.000309604
0.0156013
-0.000288407
0.0155669
-0.000268198
0.0155322
-0.000248914
0.0154975
-0.000230498
0.015463
-0.000212894
0.0154289
-0.000196047
0.0153955
-0.000179904
0.0153631
-0.000164412
0.0153318
-0.00014952
0.015302
-0.000135177
0.0152738
-0.000121333
0.0152474
-0.000107939
0.015223
-9.4947e-05
0.0152006
-8.23106e-05
0.0151805
-6.99834e-05
0.0151627
-5.79197e-05
0.0151473
-4.60747e-05
0.0151344
-3.44041e-05
0.015124
-2.28639e-05
0.0151161
-1.14104e-05
0.0151109
0.0151083
-0.000517702
0.0141341
0.000531684
-0.000493809
0.0149461
-0.000466002
0.0153862
-0.000437734
0.0155854
-0.000410423
0.0156538
-0.000384446
0.0156603
-0.000359797
0.0156408
-0.000336376
0.0156115
-0.000314075
0.015579
-0.000292808
0.0155456
-0.000272504
0.0155119
-0.000253102
0.0154781
-0.000234548
0.0154444
-0.000216786
0.0154112
-0.000199765
0.0153785
-0.000183433
0.0153467
-0.000167739
0.0153161
-0.000152632
0.0152869
-0.000138063
0.0152592
-0.000123984
0.0152333
-0.000110346
0.0152093
-9.71043e-05
0.0151874
-8.42112e-05
0.0151676
-7.16219e-05
0.0151501
-5.92918e-05
0.015135
-4.71767e-05
0.0151223
-3.52331e-05
0.015112
-2.34177e-05
0.0151043
-1.16876e-05
0.0150992
0.0150966
-0.000520586
0.0141204
0.000534241
-0.000497078
0.0149226
-0.000469597
0.0153587
-0.000441568
0.0155574
-0.000414417
0.0156266
-0.000388539
0.0156344
-0.000363942
0.0156162
-0.000340534
0.0155881
-0.000318214
0.0155567
-0.000296898
0.0155243
-0.000276519
0.0154915
-0.000257019
0.0154586
-0.000238344
0.0154258
-0.000220443
0.0153933
-0.000203265
0.0153613
-0.000186761
0.0153302
-0.00017088
0.0153002
-0.000155575
0.0152716
-0.000140796
0.0152444
-0.000126497
0.015219
-0.000112631
0.0151955
-9.9153e-05
0.0151739
-8.60174e-05
0.0151545
-7.31801e-05
0.0151373
-6.05972e-05
0.0151224
-4.82255e-05
0.0151099
-3.60223e-05
0.0150998
-2.39451e-05
0.0150922
-1.19517e-05
0.0150872
0.0150846
-0.000522996
0.0141071
0.000536323
-0.000499879
0.0148995
-0.000472741
0.0153316
-0.000444971
0.0155296
-0.000418001
0.0155996
-0.000392245
0.0156086
-0.000367723
0.0155916
-0.00034435
0.0155647
-0.000322031
0.0155344
-0.000300686
0.0155029
-0.000280252
0.015471
-0.000260671
0.015439
-0.000241894
0.015407
-0.000223871
0.0153752
-0.000206553
0.015344
-0.000189893
0.0153136
-0.000173842
0.0152842
-0.000158353
0.0152561
-0.000143379
0.0152295
-0.000128875
0.0152045
-0.000114795
0.0151814
-0.000101095
0.0151602
-8.77312e-05
0.0151411
-7.46594e-05
0.0151242
-6.18371e-05
0.0151096
-4.92221e-05
0.0150973
-3.67725e-05
0.0150874
-2.44465e-05
0.0150799
-1.22028e-05
0.0150749
0.0150724
-0.000524951
0.0140941
0.000537953
-0.000502233
0.0148767
-0.000475451
0.0153048
-0.000447958
0.0155021
-0.000421192
0.0155729
-0.000395579
0.015583
-0.000371152
0.0155672
-0.000347834
0.0155414
-0.000325535
0.0155121
-0.000304181
0.0154816
-0.000283709
0.0154506
-0.000264066
0.0154194
-0.000245204
0.0153881
-0.000227075
0.0153571
-0.000209634
0.0153266
-0.000192833
0.0152968
-0.000176627
0.015268
-0.00016097
0.0152404
-0.000145816
0.0152143
-0.000131121
0.0151898
-0.000116842
0.0151671
-0.000102934
0.0151463
-8.93543e-05
0.0151275
-7.60614e-05
0.0151109
-6.3013e-05
0.0150965
-5.01677e-05
0.0150844
-3.74845e-05
0.0150747
-2.49225e-05
0.0150674
-1.24411e-05
0.0150624
0.01506
-0.000526475
0.0140814
0.000539152
-0.00050416
0.0148544
-0.000477745
0.0152784
-0.000450547
0.0154749
-0.000424003
0.0155463
-0.000398553
0.0155576
-0.00037424
0.0155429
-0.000350996
0.0155182
-0.000328737
0.0154899
-0.000307391
0.0154602
-0.000286898
0.0154301
-0.00026721
0.0153997
-0.00024828
0.0153692
-0.000230062
0.0153389
-0.000212513
0.015309
-0.000195587
0.0152799
-0.000179241
0.0152516
-0.00016343
0.0152246
-0.00014811
0.015199
-0.000133238
0.0151749
-0.000118773
0.0151526
-0.00010467
0.0151322
-9.08888e-05
0.0151138
-7.73879e-05
0.0150974
-6.41262e-05
0.0150833
-5.10633e-05
0.0150714
-3.81591e-05
0.0150618
-2.53736e-05
0.0150546
-1.26671e-05
0.0150497
0.0150473
-0.000527588
0.0140691
0.000539942
-0.000505679
0.0148325
-0.000479643
0.0152523
-0.000452754
0.015448
-0.00042645
0.01552
-0.000401181
0.0155323
-0.000377001
0.0155187
-0.000353849
0.015495
-0.000331646
0.0154676
-0.000310325
0.0154389
-0.000289829
0.0154096
-0.000270112
0.01538
-0.000251129
0.0153502
-0.000232837
0.0153206
-0.000215195
0.0152914
-0.000198159
0.0152628
-0.000181687
0.0152352
-0.000165736
0.0152087
-0.000150264
0.0151835
-0.00013523
0.0151599
-0.000120591
0.015138
-0.000106307
0.0151179
-9.23368e-05
0.0150998
-7.86405e-05
0.0150837
-6.5178e-05
0.0150698
-5.191e-05
0.0150581
-3.87971e-05
0.0150487
-2.58004e-05
0.0150416
-1.28809e-05
0.0150368
0.0150344
-0.000528311
0.014057
0.000540345
-0.000506812
0.014811
-0.000481164
0.0152267
-0.000454598
0.0154215
-0.000428549
0.015494
-0.000403477
0.0155072
-0.000379446
0.0154947
-0.000356403
0.015472
-0.000334273
0.0154455
-0.000312992
0.0154176
-0.000292509
0.0153891
-0.000272778
0.0153602
-0.000253757
0.0153312
-0.000235407
0.0153023
-0.000217686
0.0152737
-0.000200554
0.0152457
-0.000183971
0.0152186
-0.000167894
0.0151926
-0.000152283
0.0151679
-0.000137099
0.0151447
-0.0001223
0.0151232
-0.000107847
0.0151035
-9.37004e-05
0.0150856
-7.98211e-05
0.0150698
-6.61701e-05
0.0150562
-5.2709e-05
0.0150446
-3.93994e-05
0.0150354
-2.62034e-05
0.0150284
-1.30829e-05
0.0150237
0.0150214
-0.000528668
0.0140453
0.000540384
-0.000507579
0.0147899
-0.000482326
0.0152014
-0.000456094
0.0153952
-0.000430315
0.0154682
-0.000405455
0.0154824
-0.000381589
0.0154708
-0.000358669
0.0154491
-0.000336628
0.0154235
-0.000315403
0.0153964
-0.000294947
0.0153686
-0.000275217
0.0153405
-0.000256173
0.0153121
-0.000237778
0.0152839
-0.000219992
0.0152559
-0.000202778
0.0152285
-0.000186096
0.0152019
-0.000169906
0.0151764
-0.00015417
0.0151522
-0.000138848
0.0151294
-0.000123902
0.0151082
-0.000109293
0.0150888
-9.49817e-05
0.0150713
-8.09314e-05
0.0150558
-6.71038e-05
0.0150423
-5.34614e-05
0.015031
-3.9967e-05
0.0150219
-2.65833e-05
0.015015
-1.32732e-05
0.0150104
0.0150081
-0.000528679
0.0140339
0.000540081
-0.000508001
0.0147693
-0.000483148
0.0151766
-0.000457261
0.0153693
-0.000431763
0.0154427
-0.000407129
0.0154577
-0.000383442
0.0154471
-0.00036066
0.0154263
-0.00033872
0.0154015
-0.000317566
0.0153753
-0.000297151
0.0153482
-0.000277435
0.0153208
-0.000258382
0.0152931
-0.000239956
0.0152654
-0.000222119
0.015238
-0.000204836
0.0152112
-0.000188068
0.0151851
-0.000171778
0.0151601
-0.000155929
0.0151363
-0.000140482
0.0151139
-0.0001254
0.0150932
-0.000110646
0.0150741
-9.6183e-05
0.0150569
-8.19734e-05
0.0150416
-6.79807e-05
0.0150283
-5.41685e-05
0.0150172
-4.05005e-05
0.0150082
-2.69405e-05
0.0150014
-1.34523e-05
0.0149969
0.0149946
-0.000528365
0.0140228
0.000539457
-0.000508097
0.014749
-0.000483648
0.0151521
-0.000458114
0.0153438
-0.000432908
0.0154175
-0.000408512
0.0154333
-0.000385016
0.0154236
-0.000362386
0.0154037
-0.000340562
0.0153797
-0.000319491
0.0153542
-0.00029913
0.0153279
-0.000279442
0.0153011
-0.000260393
0.015274
-0.000241948
0.015247
-0.000224073
0.0152202
-0.000206732
0.0151938
-0.000189891
0.0151683
-0.000173514
0.0151437
-0.000157563
0.0151204
-0.000142003
0.0150984
-0.000126798
0.015078
-0.000111911
0.0150592
-9.73065e-05
0.0150423
-8.29489e-05
0.0150272
-6.88024e-05
0.0150142
-5.48316e-05
0.0150032
-4.10011e-05
0.0149944
-2.72758e-05
0.0149877
-1.36204e-05
0.0149832
0.014981
-0.000527747
0.014012
0.000538535
-0.000507887
0.0147291
-0.000483846
0.0151281
-0.000458671
0.0153186
-0.000433766
0.0153926
-0.000409619
0.0154092
-0.000386326
0.0154004
-0.000363859
0.0153812
-0.000342162
0.015358
-0.000321187
0.0153332
-0.000300893
0.0153076
-0.000281245
0.0152814
-0.000262211
0.015255
-0.00024376
0.0152285
-0.000225858
0.0152023
-0.000208473
0.0151765
-0.000191571
0.0151514
-0.000175117
0.0151273
-0.000159077
0.0151043
-0.000143415
0.0150827
-0.000128097
0.0150626
-0.000113089
0.0150442
-9.83544e-05
0.0150275
-8.38598e-05
0.0150127
-6.95704e-05
0.0149999
-5.54518e-05
0.0149891
-4.14696e-05
0.0149804
-2.75897e-05
0.0149738
-1.37779e-05
0.0149694
0.0149672
-0.000526846
0.0140015
0.000537334
-0.00050739
0.0147097
-0.000483757
0.0151045
-0.000458947
0.0152938
-0.000434352
0.015368
-0.000410463
0.0153853
-0.000387383
0.0153773
-0.00036509
0.0153589
-0.000343532
0.0153365
-0.000322664
0.0153123
-0.000302448
0.0152874
-0.000282851
0.0152618
-0.000263845
0.015236
-0.000245399
0.0152101
-0.000227482
0.0151843
-0.000210064
0.015159
-0.000193112
0.0151344
-0.000176593
0.0151108
-0.000160474
0.0150882
-0.000144721
0.015067
-0.000129302
0.0150472
-0.000114183
0.0150291
-9.93291e-05
0.0150127
-8.47082e-05
0.0149981
-7.02864e-05
0.0149855
-5.60304e-05
0.0149748
-4.1907e-05
0.0149663
-2.78829e-05
0.0149598
-1.3925e-05
0.0149555
0.0149533
-0.00052568
0.0139913
0.000535876
-0.000506624
0.0146906
-0.000483401
0.0150812
-0.000458959
0.0152694
-0.00043468
0.0153437
-0.000411057
0.0153617
-0.0003882
0.0153544
-0.00036609
0.0153368
-0.000344681
0.015315
-0.000323931
0.0152916
-0.000303803
0.0152672
-0.000284269
0.0152423
-0.000265301
0.015217
-0.000246871
0.0151917
-0.00022895
0.0151664
-0.000211509
0.0151416
-0.000194518
0.0151174
-0.000177945
0.0150942
-0.000161758
0.015072
-0.000145925
0.0150511
-0.000130415
0.0150317
-0.000115195
0.0150139
-0.000100233
0.0149977
-8.54959e-05
0.0149834
-7.09519e-05
0.0149709
-5.65688e-05
0.0149605
-4.23142e-05
0.014952
-2.8156e-05
0.0149456
-1.4062e-05
0.0149414
0.0149392
-0.000524269
0.0139814
0.00053418
-0.000505609
0.014672
-0.000482793
0.0150584
-0.000458722
0.0152453
-0.000434765
0.0153197
-0.000411415
0.0153383
-0.000388788
0.0153318
-0.000366871
0.0153149
-0.00034562
0.0152938
-0.000324997
0.015271
-0.000304968
0.0152472
-0.000285506
0.0152228
-0.000266587
0.0151981
-0.000248183
0.0151733
-0.000230269
0.0151485
-0.000212816
0.0151242
-0.000195795
0.0151004
-0.000179178
0.0150776
-0.000162933
0.0150558
-0.000147031
0.0150352
-0.00013144
0.0150161
-0.000116129
0.0149985
-0.000101068
0.0149827
-8.62249e-05
0.0149685
-7.15687e-05
0.0149563
-5.70682e-05
0.014946
-4.26923e-05
0.0149376
-2.84097e-05
0.0149314
-1.41893e-05
0.0149272
0.0149251
-0.000522631
0.0139718
0.000532265
-0.00050436
0.0146537
-0.00048195
0.015036
-0.000458251
0.0152216
-0.000434619
0.0152961
-0.000411549
0.0153152
-0.00038916
0.0153094
-0.000367443
0.0152931
-0.000346359
0.0152727
-0.000325871
0.0152505
-0.00030595
0.0152273
-0.000286571
0.0152035
-0.000267709
0.0151793
-0.000249341
0.0151549
-0.000231443
0.0151306
-0.000213988
0.0151067
-0.000196948
0.0150834
-0.000180296
0.0150609
-0.000164004
0.0150395
-0.000148041
0.0150193
-0.000132379
0.0150005
-0.000116988
0.0149832
-0.000101837
0.0149675
-8.68974e-05
0.0149536
-7.21384e-05
0.0149415
-5.753e-05
0.0149314
-4.30421e-05
0.0149232
-2.86446e-05
0.014917