/*--------------------------------*- C++ -*----------------------------------*\
  =========                 |
  \\      /  F ield         | OpenFOAM: The Open Source CFD Toolbox
   \\    /   O peration     | Website:  https://openfoam.org
    \\  /    A nd           | Version:  7
     \\/     M anipulation  |
\*---------------------------------------------------------------------------*/
FoamFile
{
    version     2.0;
    format      ascii;
    class       volScalarField;
    location    "60";
    object      p;
}
// * * * * * * * * * * * * * * * * * * * * * * * * * * * * * * * * * * * * * //

dimensions      [0 2 -2 0 0 0 0];

internalField   nonuniform List<scalar> 
3500
(
-0.179689
-0.173466
-0.16753
-0.161478
-0.155664
-0.150079
-0.144761
-0.139713
-0.13493
-0.130407
-0.126143
-0.122132
-0.118371
-0.114854
-0.111578
-0.108537
-0.105726
-0.10314
-0.100775
-0.098626
-0.0966879
-0.0949565
-0.0934281
-0.092099
-0.090966
-0.0900263
-0.0892773
-0.0887173
-0.0883448
-0.0881588
-0.177425
-0.171386
-0.165621
-0.159747
-0.154098
-0.14867
-0.1435
-0.13859
-0.133936
-0.129533
-0.125379
-0.12147
-0.117803
-0.114372
-0.111174
-0.108204
-0.105457
-0.10293
-0.100616
-0.0985135
-0.0966162
-0.0949208
-0.0934235
-0.0921211
-0.0910105
-0.0900892
-0.0893548
-0.0888055
-0.0884402
-0.0882577
-0.175102
-0.169244
-0.16365
-0.157953
-0.152467
-0.147196
-0.142173
-0.137401
-0.132874
-0.128591
-0.124548
-0.120741
-0.117168
-0.113823
-0.110704
-0.107805
-0.105124
-0.102655
-0.100394
-0.098338
-0.0964823
-0.0948234
-0.0933579
-0.0920827
-0.090995
-0.0900925
-0.089373
-0.0888347
-0.0884767
-0.0882978
-0.172722
-0.167042
-0.161619
-0.156096
-0.150774
-0.145659
-0.140783
-0.136147
-0.131748
-0.127584
-0.123652
-0.119947
-0.116468
-0.11321
-0.11017
-0.107343
-0.104727
-0.102317
-0.10011
-0.0981012
-0.0962876
-0.0946658
-0.0932326
-0.0919851
-0.0909208
-0.0900374
-0.089333
-0.0888061
-0.0884555
-0.0882804
-0.170287
-0.164782
-0.15953
-0.154181
-0.149021
-0.144061
-0.13933
-0.134831
-0.13056
-0.126515
-0.122693
-0.119091
-0.115706
-0.112535
-0.109574
-0.10682
-0.10427
-0.101919
-0.0997656
-0.0978048
-0.0960338
-0.0944496
-0.0930491
-0.0918298
-0.0907892
-0.0899253
-0.0892363
-0.0887209
-0.0883779
-0.0882066
-0.167799
-0.162468
-0.157386
-0.152209
-0.147211
-0.142404
-0.137819
-0.133456
-0.129312
-0.125386
-0.121674
-0.118174
-0.114883
-0.111799
-0.108918
-0.106237
-0.103753
-0.101463
-0.0993628
-0.0974504
-0.0957225
-0.0941762
-0.0928089
-0.0916181
-0.0906015
-0.0897574
-0.0890841
-0.0885803
-0.088245
-0.0880776
-0.165259
-0.160101
-0.155188
-0.150182
-0.145345
-0.140692
-0.136252
-0.132024
-0.128007
-0.124199
-0.120597
-0.117199
-0.114003
-0.111006
-0.108204
-0.105596
-0.103179
-0.100949
-0.0989032
-0.0970397
-0.0953552
-0.0938473
-0.0925134
-0.0913514
-0.0903592
-0.0895352
-0.0888777
-0.0883857
-0.0880583
-0.0878947
-0.162671
-0.157684
-0.15294
-0.148103
-0.143427
-0.138927
-0.134631
-0.130538
-0.126647
-0.122957
-0.119465
-0.116169
-0.113067
-0.110156
-0.107435
-0.1049
-0.102549
-0.10038
-0.0983888
-0.0965743
-0.0949336
-0.0934642
-0.0921641
-0.0910312
-0.0900636
-0.0892598
-0.0886185
-0.0881384
-0.0878188
-0.0876592
-0.160037
-0.155218
-0.150643
-0.145975
-0.141458
-0.137111
-0.132958
-0.128999
-0.125235
-0.121662
-0.118279
-0.115085
-0.112077
-0.109253
-0.106612
-0.10415
-0.101866
-0.0997571
-0.0978212
-0.096056
-0.0944592
-0.0930287
-0.0917626
-0.0906589
-0.0897162
-0.0889328
-0.0883076
-0.0878397
-0.0875281
-0.0873724
-0.157358
-0.152708
-0.1483
-0.1438
-0.139442
-0.135247
-0.131236
-0.127412
-0.123772
-0.120316
-0.117043
-0.11395
-0.111036
-0.108299
-0.105737
-0.103348
-0.101131
-0.0990831
-0.0972021
-0.0954863
-0.0939337
-0.0925422
-0.0913103
-0.0902361
-0.0893183
-0.0885555
-0.0879467
-0.0874908
-0.0871873
-0.0870357
-0.154636
-0.150154
-0.145913
-0.14158
-0.137382
-0.133337
-0.129468
-0.125776
-0.122262
-0.118923
-0.115758
-0.112766
-0.109945
-0.107295
-0.104813
-0.102497
-0.100347
-0.0983593
-0.0965334
-0.0948672
-0.0933587
-0.0920064
-0.0908088
-0.0897642
-0.0888715
-0.0881294
-0.0875369
-0.0870933
-0.0867979
-0.0866503
-0.151876
-0.147561
-0.143486
-0.139319
-0.135278
-0.131383
-0.127656
-0.124097
-0.120706
-0.117483
-0.114426
-0.111535
-0.108808
-0.106243
-0.10384
-0.101598
-0.0995142
-0.0975877
-0.0958168
-0.0942001
-0.0927359
-0.0914229
-0.0902596
-0.0892447
-0.0883771
-0.0876558
-0.0870798
-0.0866484
-0.0863612
-0.0862176
-0.149078
-0.144929
-0.14102
-0.137018
-0.133134
-0.129389
-0.125802
-0.122375
-0.119107
-0.116
-0.113051
-0.110259
-0.107625
-0.105146
-0.102823
-0.100653
-0.0986358
-0.0967699
-0.095054
-0.0934868
-0.0920669
-0.0907931
-0.0896642
-0.0886791
-0.0878367
-0.0871362
-0.0865767
-0.0861576
-0.0858785
-0.0857391
-0.146246
-0.142263
-0.138518
-0.134681
-0.130954
-0.127357
-0.123909
-0.120613
-0.117468
-0.114475
-0.111633
-0.108941
-0.106399
-0.104006
-0.101761
-0.0996642
-0.0977133
-0.0959079
-0.0942468
-0.092729
-0.0913533
-0.0901187
-0.0890242
-0.0880688
-0.0872517
-0.086572
-0.086029
-0.0856223
-0.0853514
-0.085216
-0.143382
-0.139564
-0.135984
-0.132309
-0.128738
-0.125288
-0.12198
-0.118813
-0.115791
-0.112912
-0.110176
-0.107583
-0.105133
-0.102825
-0.100658
-0.0986333
-0.0967485
-0.0950033
-0.0933968
-0.0919283
-0.0905968
-0.0894013
-0.0883412
-0.0874155
-0.0866235
-0.0859646
-0.0854382
-0.0850438
-0.0847811
-0.0846498
-0.14049
-0.136836
-0.133419
-0.129907
-0.12649
-0.123187
-0.120016
-0.116979
-0.114077
-0.111312
-0.108681
-0.106187
-0.103828
-0.101604
-0.0995158
-0.0975623
-0.0957432
-0.0940579
-0.0925059
-0.0910865
-0.0897989
-0.0886425
-0.0876166
-0.0867205
-0.0859537
-0.0853156
-0.0848057
-0.0844236
-0.084169
-0.0840418
-0.137571
-0.134082
-0.130827
-0.127475
-0.124212
-0.121055
-0.118021
-0.115112
-0.112331
-0.109677
-0.107152
-0.104754
-0.102486
-0.100346
-0.0983353
-0.096453
-0.0946992
-0.0930736
-0.0915757
-0.0902051
-0.0889613
-0.0878438
-0.086852
-0.0859855
-0.0852437
-0.0846263
-0.0841328
-0.083763
-0.0835166
-0.0833935
-0.13463
-0.131304
-0.12821
-0.125019
-0.121908
-0.118895
-0.115996
-0.113215
-0.110552
-0.10801
-0.105589
-0.103288
-0.10111
-0.099053
-0.0971189
-0.0953074
-0.0936184
-0.092052
-0.0906079
-0.0892859
-0.0880856
-0.0870067
-0.0860489
-0.0852117
-0.084495
-0.0838982
-0.0834211
-0.0830636
-0.0828253
-0.0827062
-0.131669
-0.128505
-0.125572
-0.122539
-0.119579
-0.11671
-0.113945
-0.11129
-0.108745
-0.106314
-0.103995
-0.10179
-0.0997005
-0.0977265
-0.0958686
-0.0941272
-0.0925026
-0.0909949
-0.0896042
-0.0883304
-0.0871733
-0.0861329
-0.0852088
-0.0844009
-0.0837089
-0.0831327
-0.0826719
-0.0823265
-0.0820963
-0.0819813
-0.128692
-0.125689
-0.122914
-0.120038
-0.117229
-0.114501
-0.11187
-0.109339
-0.106912
-0.104589
-0.102372
-0.100263
-0.098261
-0.0963686
-0.0945862
-0.0929143
-0.0913535
-0.0899041
-0.0885663
-0.0873403
-0.0862261
-0.0852238
-0.0843333
-0.0835544
-0.0828871
-0.0823312
-0.0818867
-0.0815534
-0.0813312
-0.0812202
-0.1257
-0.122858
-0.120241
-0.117521
-0.11486
-0.112272
-0.109773
-0.107366
-0.105054
-0.102839
-0.100723
-0.0987072
-0.0967929
-0.0949813
-0.0932736
-0.0916705
-0.0901728
-0.0887811
-0.0874958
-0.0863172
-0.0852456
-0.0842811
-0.0834238
-0.0826737
-0.0820308
-0.0814952
-0.0810668
-0.0807455
-0.0805313
-0.0804242
-0.122699
-0.120016
-0.117555
-0.114988
-0.112474
-0.110026
-0.107656
-0.105371
-0.103174
-0.101066
-0.0990494
-0.0971263
-0.0952982
-0.0935665
-0.0919326
-0.0903976
-0.0889624
-0.0876278
-0.0863944
-0.0852627
-0.0842332
-0.0833062
-0.0824818
-0.0817602
-0.0811416
-0.0806261
-0.0802136
-0.0799042
-0.0796979
-0.0795948
-0.11969
-0.117165
-0.114858
-0.112444
-0.110075
-0.107763
-0.105523
-0.103358
-0.101274
-0.0992713
-0.0973533
-0.0955218
-0.0937788
-0.0921261
-0.0905651
-0.0890973
-0.0877239
-0.0864457
-0.0852636
-0.0841784
-0.0831906
-0.0823006
-0.0815088
-0.0808155
-0.0802209
-0.0797252
-0.0793285
-0.0790309
-0.0788325
-0.0787333
-0.116677
-0.114309
-0.112154
-0.10989
-0.107665
-0.105489
-0.103375
-0.10133
-0.0993562
-0.0974577
-0.0956367
-0.0938956
-0.0922367
-0.0906618
-0.0891729
-0.0877715
-0.0864589
-0.0852365
-0.0841052
-0.0830658
-0.0821191
-0.0812658
-0.0805062
-0.0798408
-0.07927
-0.0787939
-0.0784129
-0.078127
-0.0779363
-0.077841
-0.113664
-0.111451
-0.109446
-0.107331
-0.105247
-0.103204
-0.101215
-0.0992868
-0.0974232
-0.0956272
-0.0939018
-0.0922498
-0.0906736
-0.0891756
-0.0877576
-0.0864217
-0.0851693
-0.0840018
-0.0829205
-0.0819264
-0.0810204
-0.0802032
-0.0794755
-0.0788377
-0.0782903
-0.0778337
-0.0774681
-0.0771937
-0.0770107
-0.0769192
-0.110653
-0.108593
-0.106737
-0.104767
-0.102822
-0.100911
-0.0990452
-0.0972325
-0.0954768
-0.0937818
-0.0921506
-0.0905863
-0.0890916
-0.0876691
-0.0863212
-0.0850497
-0.0838565
-0.0827433
-0.0817113
-0.0807618
-0.0798959
-0.0791144
-0.078418
-0.0778075
-0.0772833
-0.0768458
-0.0764955
-0.0762325
-0.0760571
-0.0759693
-0.107648
-0.105739
-0.104029
-0.102203
-0.100395
-0.0986121
-0.096868
-0.0951688
-0.0935193
-0.0919235
-0.0903849
-0.0889069
-0.0874924
-0.0861443
-0.0848651
-0.0836571
-0.0825223
-0.0814624
-0.080479
-0.0795735
-0.0787471
-0.0780007
-0.0773353
-0.0767516
-0.0762502
-0.0758317
-0.0754964
-0.0752446
-0.0750766
-0.0749926
-0.104652
-0.102892
-0.101325
-0.0996401
-0.0979666
-0.0963107
-0.0946856
-0.0930979
-0.0915527
-0.0900544
-0.0886068
-0.0872134
-0.0858778
-0.0846028
-0.0833913
-0.0822456
-0.0811681
-0.0801607
-0.0792251
-0.0783629
-0.0775753
-0.0768635
-0.0762286
-0.0756713
-0.0751924
-0.0747925
-0.074472
-0.0742313
-0.0740707
-0.0739904
-0.101668
-0.100055
-0.0986282
-0.0970817
-0.0955401
-0.0940087
-0.0925003
-0.0910219
-0.0895791
-0.0881764
-0.086818
-0.0855078
-0.0842495
-0.0830463
-0.0819012
-0.0808168
-0.0797956
-0.0788398
-0.0779511
-0.0771314
-0.076382
-0.0757043
-0.0750993
-0.074568
-0.0741113
-0.0737296
-0.0734237
-0.0731939
-0.0730405
-0.0729638
-0.0986997
-0.0972306
-0.0959412
-0.0945303
-0.0931178
-0.0917082
-0.0903142
-0.088943
-0.0876004
-0.0862914
-0.0850205
-0.0837918
-0.0826093
-0.0814765
-0.0803965
-0.0793722
-0.0784063
-0.077501
-0.0766585
-0.0758805
-0.0751686
-0.0745243
-0.0739488
-0.073443
-0.073008
-0.0726443
-0.0723528
-0.0721337
-0.0719874
-0.0719142
-0.0957494
-0.0944215
-0.0932666
-0.0919883
-0.0907022
-0.0894117
-0.0881295
-0.0868631
-0.0856186
-0.0844013
-0.083216
-0.0820672
-0.0809589
-0.0798949
-0.0788787
-0.0779134
-0.0770016
-0.0761459
-0.0753486
-0.0746115
-0.0739364
-0.0733249
-0.0727782
-0.0722975
-0.0718838
-0.0715379
-0.0712603
-0.0710518
-0.0709125
-0.0708428
-0.0928202
-0.0916306
-0.090607
-0.0894582
-0.0882954
-0.0871212
-0.0859483
-0.0847843
-0.0836357
-0.082508
-0.0814064
-0.0803355
-0.0792999
-0.0783033
-0.0773495
-0.0764418
-0.075583
-0.0747759
-0.0740228
-0.0733258
-0.0726868
-0.0721074
-0.071589
-0.0711329
-0.0707401
-0.0704114
-0.0701477
-0.0699494
-0.069817
-0.0697507
-0.0899151
-0.0888606
-0.087965
-0.0869423
-0.0858997
-0.084839
-0.0837726
-0.0827085
-0.0816534
-0.0806132
-0.0795932
-0.0785986
-0.0776338
-0.0767031
-0.0758103
-0.0749588
-0.0741519
-0.0733923
-0.0726824
-0.0720247
-0.0714209
-0.070873
-0.0703823
-0.0699502
-0.0695779
-0.0692662
-0.069016
-0.0688278
-0.0687021
-0.0686392
-0.0870369
-0.0861142
-0.0853429
-0.084443
-0.0835174
-0.0825671
-0.0816044
-0.0806376
-0.0796736
-0.0787186
-0.0777783
-0.0768579
-0.0759623
-0.0750958
-0.0742625
-0.0734661
-0.0727097
-0.0719964
-0.0713289
-0.0707094
-0.0701402
-0.0696229
-0.0691594
-0.0687508
-0.0683985
-0.0681035
-0.0678665
-0.0676882
-0.067569
-0.0675094
-0.0841882
-0.0833936
-0.0827431
-0.0819625
-0.0811505
-0.0803074
-0.0794456
-0.0785734
-0.077698
-0.076826
-0.0759632
-0.0751151
-0.0742868
-0.0734829
-0.0727076
-0.0719648
-0.0712577
-0.0705897
-0.0699634
-0.0693813
-0.0688457
-0.0683585
-0.0679214
-0.0675358
-0.0672031
-0.0669243
-0.0667002
-0.0665315
-0.0664188
-0.0663623
-0.0813715
-0.0807015
-0.0801679
-0.0795028
-0.078801
-0.078062
-0.077298
-0.0765176
-0.0757283
-0.0749368
-0.0741494
-0.0733716
-0.0726088
-0.0718658
-0.071147
-0.0704563
-0.0697973
-0.0691733
-0.0685872
-0.0680416
-0.0675388
-0.0670808
-0.0666695
-0.0663064
-0.0659927
-0.0657297
-0.0655182
-0.065359
-0.0652525
-0.0651992
-0.0785893
-0.07804
-0.0776195
-0.0770662
-0.0764709
-0.0758326
-0.0751634
-0.074472
-0.0737661
-0.0730528
-0.0723384
-0.0716289
-0.0709297
-0.0702459
-0.0695819
-0.0689419
-0.0683297
-0.0677485
-0.0672015
-0.0666914
-0.0662205
-0.0657911
-0.0654049
-0.0650636
-0.0647685
-0.0645209
-0.0643217
-0.0641717
-0.0640713
-0.0640211
-0.0758439
-0.0754113
-0.0750998
-0.0746544
-0.0741621
-0.073621
-0.0730434
-0.0724381
-0.071813
-0.0711754
-0.0705318
-0.0698884
-0.0692509
-0.0686244
-0.0680137
-0.0674229
-0.066856
-0.0663165
-0.0658075
-0.0653319
-0.0648921
-0.0644903
-0.0641285
-0.0638085
-0.0635315
-0.063299
-0.0631117
-0.0629706
-0.0628762
-0.0628289
-0.0731375
-0.0728175
-0.0726108
-0.0722694
-0.0718762
-0.071429
-0.0709398
-0.0704176
-0.0698705
-0.069306
-0.0687308
-0.0681515
-0.0675737
-0.0670027
-0.0664435
-0.0659005
-0.0653776
-0.0648784
-0.0644063
-0.0639641
-0.0635545
-0.0631796
-0.0628416
-0.0625422
-0.0622828
-0.0620648
-0.0618892
-0.0617568
-0.0616682
-0.0616238
-0.0704721
-0.0702604
-0.0701544
-0.0699129
-0.069615
-0.069258
-0.0688539
-0.0684118
-0.0679399
-0.0674459
-0.0669369
-0.0664194
-0.0658992
-0.065382
-0.0648727
-0.0643758
-0.0638954
-0.0634354
-0.062999
-0.0625892
-0.0622088
-0.0618601
-0.0615451
-0.0612657
-0.0610234
-0.0608196
-0.0606552
-0.0605313
-0.0604483
-0.0604067
-0.0678496
-0.0677419
-0.0677323
-0.0675865
-0.06738
-0.0671097
-0.0667873
-0.0664222
-0.0660227
-0.0655966
-0.0651513
-0.0646933
-0.0642288
-0.0637634
-0.0633022
-0.0628499
-0.0624107
-0.0619885
-0.0615866
-0.0612083
-0.0608561
-0.0605326
-0.06024
-0.05998
-0.0597542
-0.0595641
-0.0594107
-0.0592949
-0.0592174
-0.0591785
-0.0652719
-0.0652637
-0.065346
-0.0652917
-0.0651727
-0.0649853
-0.0647414
-0.0644501
-0.0641201
-0.0637593
-0.0633751
-0.0629745
-0.0625635
-0.062148
-0.0617333
-0.061324
-0.0609245
-0.0605387
-0.0601702
-0.0598222
-0.0594973
-0.0591983
-0.0589272
-0.058686
-0.0584762
-0.0582994
-0.0581566
-0.0580487
-0.0579764
-0.0579402
-0.0627405
-0.0628272
-0.0629971
-0.0630301
-0.0629945
-0.0628864
-0.0627174
-0.0624968
-0.0622333
-0.061935
-0.0616096
-0.061264
-0.0609045
-0.060537
-0.0601668
-0.0597989
-0.0594377
-0.0590871
-0.0587507
-0.0584319
-0.0581335
-0.057858
-0.0576077
-0.0573846
-0.0571903
-0.0570263
-0.0568937
-0.0567935
-0.0567263
-0.0566926
-0.0602569
-0.060434
-0.0606869
-0.0608029
-0.0608467
-0.060814
-0.0607165
-0.0605633
-0.0603634
-0.060125
-0.0598558
-0.0595629
-0.0592527
-0.0589312
-0.0586039
-0.0582758
-0.0579513
-0.0576345
-0.0573291
-0.0570384
-0.0567654
-0.0565126
-0.0562824
-0.0560768
-0.0558974
-0.0557458
-0.0556231
-0.0555302
-0.0554679
-0.0554367
-0.0578225
-0.0580852
-0.0584166
-0.0586113
-0.0587304
-0.0587694
-0.0587398
-0.0586509
-0.0585116
-0.0583302
-0.0581147
-0.0578721
-0.0576091
-0.0573318
-0.0570455
-0.0567555
-0.0564662
-0.0561819
-0.0559062
-0.0556425
-0.0553939
-0.055163
-0.0549521
-0.0547633
-0.0545983
-0.0544586
-0.0543454
-0.0542596
-0.0542021
-0.0541732
-0.0554383
-0.055782
-0.0561875
-0.0564564
-0.0566466
-0.0567536
-0.0567884
-0.0567604
-0.0566787
-0.0565517
-0.0563873
-0.0561927
-0.0559747
-0.0557394
-0.0554924
-0.0552389
-0.0549833
-0.0547301
-0.0544829
-0.0542451
-0.05402
-0.05381
-0.0536176
-0.053445
-0.0532938
-0.0531655
-0.0530615
-0.0529826
-0.0529296
-0.052903
-0.0531055
-0.0535254
-0.0540003
-0.0543391
-0.0545965
-0.0547675
-0.0548632
-0.0548929
-0.0548657
-0.0547902
-0.0546744
-0.0545255
-0.0543504
-0.0541552
-0.0539456
-0.0537268
-0.0535034
-0.0532799
-0.0530599
-0.052847
-0.0526443
-0.0524544
-0.0522798
-0.0521226
-0.0519846
-0.0518674
-0.0517721
-0.0516998
-0.0516512
-0.0516267
-0.050825
-0.0513163
-0.0518562
-0.0522605
-0.0525808
-0.052812
-0.052965
-0.0530492
-0.0530735
-0.0530467
-0.0529769
-0.0528713
-0.0527368
-0.0525797
-0.0524057
-0.05222
-0.0520273
-0.0518321
-0.0516381
-0.0514489
-0.0512676
-0.0510969
-0.0509393
-0.050797
-0.0506716
-0.0505649
-0.050478
-0.050412
-0.0503676
-0.0503452
-0.0485975
-0.0491555
-0.0497557
-0.0502212
-0.0506003
-0.0508878
-0.0510947
-0.0512299
-0.0513028
-0.051322
-0.0512955
-0.0512308
-0.0511348
-0.0510137
-0.0508734
-0.0507192
-0.0505557
-0.0503874
-0.0502182
-0.0500515
-0.0498906
-0.0497383
-0.0495969
-0.0494687
-0.0493555
-0.0492588
-0.0491799
-0.0491199
-0.0490795
-0.0490592
-0.0464236
-0.0470436
-0.0476997
-0.0482219
-0.0486556
-0.0489958
-0.0492528
-0.0494359
-0.0495543
-0.0496165
-0.0496308
-0.0496047
-0.0495449
-0.049458
-0.0493496
-0.0492251
-0.0490893
-0.0489465
-0.0488007
-0.0486555
-0.0485141
-0.0483791
-0.0482532
-0.0481385
-0.0480368
-0.0479497
-0.0478785
-0.0478243
-0.0477877
-0.0477692
-0.0443038
-0.044981
-0.0456885
-0.0462631
-0.0467475
-0.0471364
-0.0474401
-0.0476678
-0.0478285
-0.0479311
-0.0479836
-0.0479936
-0.047968
-0.0479131
-0.0478348
-0.0477383
-0.0476286
-0.04751
-0.0473865
-0.0472616
-0.0471385
-0.0470201
-0.0469089
-0.046807
-0.0467162
-0.0466383
-0.0465744
-0.0465256
-0.0464926
-0.046476
-0.0422385
-0.0429682
-0.0437226
-0.0443453
-0.0448763
-0.0453101
-0.045657
-0.045926
-0.0461261
-0.0462663
-0.0463544
-0.0463982
-0.0464045
-0.0463796
-0.0463295
-0.0462595
-0.0461743
-0.0460785
-0.045976
-0.0458703
-0.0457646
-0.0456619
-0.0455645
-0.0454748
-0.0453944
-0.0453251
-0.0452681
-0.0452245
-0.045195
-0.0451801
-0.0402279
-0.0410055
-0.0418024
-0.0424689
-0.0430424
-0.0435174
-0.0439039
-0.044211
-0.0444475
-0.0446224
-0.0447437
-0.0448188
-0.0448549
-0.0448581
-0.0448344
-0.0447891
-0.044727
-0.0446526
-0.0445697
-0.0444821
-0.0443929
-0.0443049
-0.0442207
-0.0441424
-0.0440719
-0.0440108
-0.0439604
-0.0439217
-0.0438954
-0.0438822
-0.0382722
-0.0390929
-0.039928
-0.0406342
-0.0412461
-0.0417585
-0.0421813
-0.0425231
-0.0427932
-0.043
-0.0431518
-0.043256
-0.0433196
-0.043349
-0.0433498
-0.0433276
-0.043287
-0.0432326
-0.0431683
-0.0430977
-0.0430239
-0.0429498
-0.0428779
-0.0428104
-0.0427492
-0.0426958
-0.0426516
-0.0426175
-0.0425944
-0.0425827
-0.0363712
-0.0372307
-0.0380996
-0.0388412
-0.0394876
-0.0400338
-0.0404893
-0.0408628
-0.0411633
-0.0413994
-0.0415792
-0.0417102
-0.0417992
-0.0418526
-0.0418763
-0.0418754
-0.0418549
-0.0418192
-0.0417722
-0.0417174
-0.041658
-0.041597
-0.0415367
-0.0414794
-0.0414269
-0.0413807
-0.0413423
-0.0413126
-0.0412924
-0.0412821
-0.034525
-0.0354186
-0.0363172
-0.03709
-0.0377671
-0.0383434
-0.0388282
-0.0392302
-0.0395582
-0.0398208
-0.0400261
-0.0401815
-0.0402939
-0.0403695
-0.0404141
-0.040433
-0.0404311
-0.0404127
-0.0403817
-0.0403417
-0.0402958
-0.0402469
-0.0401975
-0.0401496
-0.0401053
-0.040066
-0.040033
-0.0400074
-0.0399899
-0.039981
-0.0327333
-0.0336567
-0.0345807
-0.0353807
-0.0360846
-0.0366873
-0.0371981
-0.0376254
-0.0379781
-0.0382646
-0.0384929
-0.0386704
-0.0388039
-0.0388998
-0.0389636
-0.0390007
-0.0390159
-0.0390134
-0.0389973
-0.0389709
-0.0389376
-0.0389
-0.0388606
-0.0388217
-0.0387849
-0.038752
-0.0387241
-0.0387024
-0.0386874
-0.0386798
-0.0309959
-0.0319446
-0.0328899
-0.0337131
-0.03444
-0.0350656
-0.0355991
-0.0360486
-0.036423
-0.0367307
-0.0369796
-0.037177
-0.0373297
-0.0374438
-0.0375251
-0.0375788
-0.0376095
-0.0376218
-0.0376192
-0.0376055
-0.0375837
-0.0375566
-0.0375266
-0.0374959
-0.0374662
-0.0374392
-0.0374161
-0.0373979
-0.0373853
-0.0373789
-0.0293122
-0.0302821
-0.0312447
-0.0320871
-0.0328332
-0.0334783
-0.0340311
-0.0344998
-0.0348932
-0.0352194
-0.0354864
-0.0357015
-0.0358712
-0.0360017
-0.0360988
-0.0361674
-0.0362124
-0.036238
-0.0362479
-0.0362458
-0.0362346
-0.0362171
-0.0361957
-0.0361726
-0.0361495
-0.036128
-0.0361093
-0.0360944
-0.036084
-0.0360787
-0.0276819
-0.0286687
-0.0296446
-0.0305024
-0.031264
-0.031925
-0.032494
-0.0329789
-0.0333884
-0.0337307
-0.0340134
-0.0342439
-0.0344286
-0.0345737
-0.0346848
-0.0347669
-0.0348247
-0.0348623
-0.0348836
-0.034892
-0.0348905
-0.0348818
-0.0348683
-0.0348522
-0.0348351
-0.0348186
-0.034804
-0.0347921
-0.0347839
-0.0347796
-0.0261043
-0.0271039
-0.0280893
-0.0289586
-0.0297322
-0.0304057
-0.0309876
-0.0314858
-0.0319087
-0.0322644
-0.0325606
-0.0328043
-0.0330021
-0.0331599
-0.0332834
-0.0333774
-0.0334465
-0.033495
-0.0335265
-0.0335443
-0.0335516
-0.033551
-0.0335447
-0.0335349
-0.0335234
-0.0335115
-0.0335006
-0.0334916
-0.0334851
-0.0334818
-0.0245789
-0.0255873
-0.0265783
-0.0274554
-0.0282373
-0.0289201
-0.0295118
-0.0300203
-0.0304539
-0.0308206
-0.0311278
-0.0313827
-0.0315916
-0.0317604
-0.0318945
-0.0319989
-0.0320781
-0.0321361
-0.0321767
-0.0322031
-0.0322182
-0.0322248
-0.0322251
-0.0322211
-0.0322145
-0.0322069
-0.0321994
-0.0321929
-0.0321882
-0.0321857
-0.023105
-0.0241181
-0.025111
-0.0259922
-0.026779
-0.0274678
-0.0280663
-0.0285822
-0.0290239
-0.029399
-0.0297151
-0.029979
-0.0301971
-0.0303751
-0.0305183
-0.0306317
-0.0307195
-0.0307859
-0.0308345
-0.0308684
-0.0308905
-0.0309036
-0.0309097
-0.0309109
-0.0309089
-0.030905
-0.0309006
-0.0308964
-0.0308933
-0.0308916
-0.0216817
-0.0226957
-0.0236868
-0.0245685
-0.0253569
-0.0260483
-0.0266506
-0.0271712
-0.0276183
-0.0279995
-0.0283222
-0.0285931
-0.0288185
-0.0290039
-0.0291547
-0.0292756
-0.0293708
-0.0294444
-0.0294999
-0.0295403
-0.0295687
-0.0295874
-0.0295987
-0.0296045
-0.0296066
-0.0296062
-0.0296045
-0.0296024
-0.0296007
-0.0295997
-0.0203083
-0.0213194
-0.0223051
-0.0231838
-0.0239703
-0.0246612
-0.0252643
-0.0257869
-0.0262368
-0.0266218
-0.026949
-0.0272249
-0.0274557
-0.0276469
-0.0278037
-0.0279307
-0.028032
-0.0281117
-0.028173
-0.0282191
-0.0282528
-0.0282765
-0.0282923
-0.0283023
-0.0283078
-0.0283105
-0.0283112
-0.0283111
-0.0283106
-0.0283102
-0.0189838
-0.0199883
-0.0209651
-0.0218373
-0.0226186
-0.023306
-0.023907
-0.0244288
-0.0248792
-0.0252656
-0.0255951
-0.0258741
-0.0261085
-0.0263039
-0.0264652
-0.0265969
-0.0267031
-0.0267877
-0.0268539
-0.0269047
-0.0269429
-0.0269709
-0.0269907
-0.0270041
-0.0270129
-0.0270181
-0.0270211
-0.0270225
-0.0270232
-0.0270234
-0.0177074
-0.0187015
-0.0196659
-0.0205282
-0.0213011
-0.021982
-0.0225781
-0.0230965
-0.0235449
-0.0239305
-0.0242602
-0.0245404
-0.0247768
-0.0249747
-0.025139
-0.0252741
-0.0253841
-0.0254725
-0.0255425
-0.0255972
-0.0256392
-0.0256707
-0.0256939
-0.0257104
-0.0257218
-0.0257293
-0.0257342
-0.025737
-0.0257386
-0.0257393
-0.0164779
-0.0174582
-0.0184068
-0.0192559
-0.0200172
-0.0206886
-0.021277
-0.0217894
-0.0222334
-0.0226161
-0.022944
-0.0232235
-0.0234601
-0.0236591
-0.023825
-0.0239623
-0.0240748
-0.0241659
-0.0242389
-0.0242967
-0.0243416
-0.0243761
-0.0244019
-0.024421
-0.0244346
-0.0244441
-0.0244506
-0.0244547
-0.0244571
-0.0244582
-0.0152945
-0.0162573
-0.0171868
-0.0180193
-0.0187661
-0.019425
-0.020003
-0.020507
-0.0209443
-0.0213219
-0.0216461
-0.0219231
-0.0221584
-0.0223568
-0.0225231
-0.0226612
-0.0227751
-0.022868
-0.0229431
-0.023003
-0.0230502
-0.0230869
-0.023115
-0.0231361
-0.0231516
-0.0231627
-0.0231705
-0.0231756
-0.0231787
-0.0231802
-0.014156
-0.0150978
-0.0160048
-0.0168177
-0.0175467
-0.0181904
-0.0187554
-0.0192485
-0.0196769
-0.0200473
-0.020366
-0.0206388
-0.0208711
-0.0210676
-0.0212328
-0.0213707
-0.0214848
-0.0215786
-0.0216548
-0.0217161
-0.0217649
-0.0218033
-0.021833
-0.0218557
-0.0218726
-0.0218851
-0.0218939
-0.0218999
-0.0219036
-0.0219054
-0.0130613
-0.0139787
-0.01486
-0.01565
-0.0163584
-0.016984
-0.0175334
-0.0180134
-0.0184306
-0.0187919
-0.0191031
-0.0193701
-0.0195979
-0.0197911
-0.019954
-0.0200905
-0.0202039
-0.0202975
-0.0203741
-0.0204361
-0.0204858
-0.0205252
-0.0205561
-0.0205799
-0.0205979
-0.0206114
-0.020621
-0.0206277
-0.0206318
-0.0206338
-0.0120092
-0.0128987
-0.0137511
-0.0145151
-0.0151999
-0.0158048
-0.0163362
-0.0168006
-0.0172047
-0.0175548
-0.0178569
-0.0181165
-0.0183383
-0.0185269
-0.0186863
-0.0188202
-0.018932
-0.0190246
-0.0191006
-0.0191626
-0.0192126
-0.0192525
-0.019284
-0.0193086
-0.0193274
-0.0193415
-0.0193518
-0.0193589
-0.0193634
-0.0193655
-0.0109984
-0.0118567
-0.0126771
-0.013412
-0.0140705
-0.014652
-0.0151629
-0.0156095
-0.0159984
-0.0163357
-0.016627
-0.0168775
-0.017092
-0.0172747
-0.0174295
-0.0175598
-0.017669
-0.0177597
-0.0178345
-0.0178957
-0.0179454
-0.0179853
-0.018017
-0.0180419
-0.0180611
-0.0180756
-0.0180863
-0.0180938
-0.0180985
-0.0181007
-0.0100277
-0.0108514
-0.0116365
-0.0123394
-0.0129687
-0.0135243
-0.0140124
-0.0144391
-0.0148108
-0.0151334
-0.0154123
-0.0156524
-0.0158582
-0.0160338
-0.0161829
-0.0163087
-0.0164143
-0.0165024
-0.0165753
-0.0166351
-0.0166839
-0.0167233
-0.0167548
-0.0167796
-0.0167989
-0.0168136
-0.0168244
-0.016832
-0.0168369
-0.0168392
-0.00909585
-0.00988152
-0.0106284
-0.0112962
-0.0118937
-0.0124209
-0.0128839
-0.0132888
-0.0136414
-0.0139477
-0.0142126
-0.0144408
-0.0146368
-0.0148042
-0.0149465
-0.0150669
-0.0151681
-0.0152528
-0.015323
-0.015381
-0.0154283
-0.0154667
-0.0154975
-0.0155219
-0.015541
-0.0155556
-0.0155665
-0.0155741
-0.015579
-0.0155813
-0.00820123
-0.0089455
-0.00965092
-0.0102809
-0.0108438
-0.0113401
-0.0117759
-0.0121569
-0.0124888
-0.012777
-0.0130265
-0.0132417
-0.0134266
-0.0135847
-0.0137193
-0.0138334
-0.0139295
-0.01401
-0.014077
-0.0141324
-0.0141779
-0.0142148
-0.0142446
-0.0142683
-0.0142869
-0.0143012
-0.0143118
-0.0143194
-0.0143242
-0.0143265
-0.00734255
-0.00804219
-0.00870322
-0.00929248
-0.00981834
-0.0102816
-0.010688
-0.0110432
-0.0113527
-0.0116215
-0.0118543
-0.0120551
-0.0122278
-0.0123757
-0.0125018
-0.0126087
-0.012699
-0.0127747
-0.0128379
-0.0128903
-0.0129333
-0.0129685
-0.0129968
-0.0130195
-0.0130374
-0.0130511
-0.0130614
-0.0130687
-0.0130734
-0.0130757
-0.00651803
-0.00716944
-0.0077829
-0.00832859
-0.00881483
-0.00924265
-0.00961779
-0.00994548
-0.0102309
-0.0104789
-0.0106936
-0.010879
-0.0110385
-0.0111752
-0.0112919
-0.011391
-0.0114747
-0.0115451
-0.011604
-0.0116528
-0.0116931
-0.011726
-0.0117527
-0.011774
-0.0117909
-0.011804
-0.0118137
-0.0118207
-0.0118252
-0.0118273
-0.00572628
-0.00632645
-0.00688961
-0.00738918
-0.0078335
-0.00822389
-0.00856587
-0.00886442
-0.00912439
-0.00935021
-0.00954582
-0.00971476
-0.00986019
-0.0099849
-0.0100914
-0.010182
-0.0102586
-0.0103231
-0.0103771
-0.010422
-0.0104591
-0.0104895
-0.0105142
-0.010534
-0.0105497
-0.0105618
-0.0105709
-0.0105774
-0.0105816
-0.0105836
-0.0049651
-0.00551008
-0.00601959
-0.00647016
-0.0068701
-0.00722093
-0.00752794
-0.00779575
-0.00802886
-0.00823132
-0.00840672
-0.00855823
-0.00868871
-0.00880067
-0.00889635
-0.00897779
-0.00904677
-0.0091049
-0.00915361
-0.00919418
-0.00922775
-0.0092553
-0.00927771
-0.00929574
-0.00931003
-0.00932113
-0.00932949
-0.00933545
-0.00933929
-0.0093412
-0.00423315
-0.00472045
-0.00517406
-0.00557349
-0.00592711
-0.00623666
-0.00650716
-0.00674293
-0.00694805
-0.00712615
-0.00728044
-0.00741375
-0.00752857
-0.00762715
-0.00771144
-0.00778323
-0.00784409
-0.00789542
-0.00793848
-0.00797439
-0.00800413
-0.00802858
-0.0080485
-0.00806455
-0.00807729
-0.0080872
-0.00809467
-0.00810001
-0.00810345
-0.0081051
-0.00352746
-0.00395229
-0.00434622
-0.00469148
-0.00499635
-0.00526261
-0.00549495
-0.00569727
-0.00587318
-0.00602588
-0.00615816
-0.00627246
-0.00637093
-0.0064555
-0.00652785
-0.0065895
-0.0066418
-0.00668594
-0.00672301
-0.00675395
-0.00677961
-0.00680072
-0.00681795
-0.00683184
-0.00684288
-0.00685148
-0.00685797
-0.00686262
-0.00686562
-0.00686718
-0.00284698
-0.00320824
-0.00354129
-0.003831
-0.00408574
-0.00430747
-0.0045006
-0.00466857
-0.00481453
-0.00494119
-0.00505089
-0.00514568
-0.00522736
-0.00529752
-0.00535756
-0.00540874
-0.00545218
-0.00548886
-0.00551968
-0.00554542
-0.00556679
-0.00558438
-0.00559874
-0.00561034
-0.00561957
-0.00562676
-0.00563219
-0.00563607
-0.00563858
-0.00563974
-0.00218726
-0.00247803
-0.00274532
-0.00297587
-0.0031778
-0.00335301
-0.00350533
-0.00363764
-0.00375254
-0.00385222
-0.00393854
-0.00401312
-0.0040774
-0.00413262
-0.00417988
-0.00422019
-0.0042544
-0.00428331
-0.00430761
-0.00432792
-0.00434479
-0.00435869
-0.00437004
-0.00437922
-0.00438652
-0.00439222
-0.00439653
-0.0043996
-0.0044016
-0.00440278
-0.00154813
-0.00177059
-0.00197317
-0.0021444
-0.00229315
-0.00242138
-0.00253252
-0.00262892
-0.00271257
-0.00278512
-0.00284795
-0.00290223
-0.00294901
-0.00298919
-0.00302358
-0.00305291
-0.00307781
-0.00309884
-0.00311653
-0.00313131
-0.00314358
-0.0031537
-0.00316197
-0.00316865
-0.00317397
-0.00317812
-0.00318125
-0.00318348
-0.00318489
-0.00318536
-0.000921834
-0.00106333
-0.00119264
-0.0012988
-0.00139075
-0.0014694
-0.0015374
-0.00159628
-0.00164735
-0.00169163
-0.00172997
-0.00176309
-0.00179163
-0.00181614
-0.00183713
-0.00185501
-0.0018702
-0.00188303
-0.00189381
-0.00190283
-0.00191031
-0.00191648
-0.00192152
-0.00192559
-0.00192884
-0.00193137
-0.00193328
-0.00193463
-0.00193548
-0.00193624
-0.000310483
-0.00037906
-0.000438012
-0.000480757
-0.000516779
-0.000546349
-0.000571673
-0.00059351
-0.000612469
-0.000628931
-0.000643198
-0.000655526
-0.000666141
-0.000675247
-0.000683028
-0.00068965
-0.00069526
-0.00069999
-0.000703956
-0.000707264
-0.000710003
-0.000712255
-0.000714089
-0.000715568
-0.000716741
-0.000717654
-0.000718344
-0.000718833
-0.000719029
-0.000718344
-0.182802
-0.180432
-0.178004
-0.17552
-0.172982
-0.170392
-0.167752
-0.165063
-0.162328
-0.15955
-0.156729
-0.15387
-0.150974
-0.148043
-0.145082
-0.142092
-0.139076
-0.136037
-0.13298
-0.129906
-0.126818
-0.123721
-0.120618
-0.117511
-0.114405
-0.111302
-0.108206
-0.105121
-0.102049
-0.0989933
-0.0959579
-0.0929456
-0.0899594
-0.0870021
-0.0840766
-0.0811855
-0.0783313
-0.0755165
-0.0727433
-0.0700139
-0.0673303
-0.0646943
-0.0621077
-0.0595719
-0.0570885
-0.0546584
-0.052283
-0.049963
-0.0476992
-0.0454923
-0.0433428
-0.0412509
-0.039217
-0.037241
-0.0353231
-0.0334629
-0.0316604
-0.0299151
-0.0282266
-0.0265944
-0.0250179
-0.0234964
-0.0220292
-0.0206154
-0.0192541
-0.0179446
-0.0166857
-0.0154765
-0.0143159
-0.0132029
-0.0121363
-0.0111148
-0.0101374
-0.0092028
-0.00830959
-0.00745651
-0.00664203
-0.00586485
-0.005123
-0.00441543
-0.00373918
-0.00309417
-0.00247495
-0.00188473
-0.00131174
-0.000769325
-0.000230783
-0.186275
-0.183834
-0.181339
-0.178793
-0.176196