/*--------------------------------*- C++ -*----------------------------------*\
  =========                 |
  \\      /  F ield         | OpenFOAM: The Open Source CFD Toolbox
   \\    /   O peration     | Website:  https://openfoam.org
    \\  /    A nd           | Version:  7
     \\/     M anipulation  |
\*---------------------------------------------------------------------------*/
FoamFile
{
    version     2.0;
    format      ascii;
    class       surfaceScalarField;
    location    "60";
    object      phi;
}
// * * * * * * * * * * * * * * * * * * * * * * * * * * * * * * * * * * * * * //

dimensions      [0 3 -1 0 0 0 0];

internalField   nonuniform List<scalar> 
6869
(
-0.000191793
0.014691
0.00022312
-0.000159418
0.0157294
-0.000132237
0.0162001
-0.000110331
0.0163526
-9.22212e-05
0.0163588
-7.67509e-05
0.0163082
-6.32512e-05
0.0162397
-5.13601e-05
0.0161677
-4.08788e-05
0.016097
-3.16848e-05
0.0160285
-2.36828e-05
0.0159623
-1.67869e-05
0.0158982
-1.0914e-05
0.0158362
-5.98319e-06
0.0157766
-1.91364e-06
0.0157196
1.3735e-06
0.0156654
3.95317e-06
0.0156142
5.89222e-06
0.0155661
7.25807e-06
0.0155213
8.11066e-06
0.0154799
8.51117e-06
0.015442
8.51449e-06
0.0154078
8.17271e-06
0.0153772
7.53539e-06
0.0153504
6.64955e-06
0.0153273
5.55937e-06
0.015308
4.30834e-06
0.0152925
2.93781e-06
0.0152809
1.48815e-06
0.0152732
0.0152693
-0.000211597
0.0146611
0.000241531
-0.000179656
0.0156974
-0.000152208
0.0161727
-0.000129678
0.0163301
-0.000110819
0.0163399
-9.45595e-05
0.016292
-8.02573e-05
0.0162254
-6.7561e-05
0.016155
-5.62754e-05
0.0160857
-4.62785e-05
0.0160185
-3.74758e-05
0.0159535
-2.97832e-05
0.0158905
-2.31189e-05
0.0158296
-1.74023e-05
0.0157709
-1.2554e-05
0.0157148
-8.49804e-06
0.0156614
-5.16189e-06
0.0156108
-2.47548e-06
0.0155634
-3.74003e-07
0.0155192
1.21094e-06
0.0154783
2.33311e-06
0.0154409
3.04825e-06
0.0154071
3.40966e-06
0.0153769
3.46774e-06
0.0153503
3.27095e-06
0.0153275
2.86332e-06
0.0153084
2.29055e-06
0.0152931
1.59466e-06
0.0152816
8.17191e-07
0.015274
0.0152702
-0.00023077
0.0146325
0.000259379
-0.000199261
0.0156659
-0.00017157
0.016145
-0.000148453
0.016307
-0.000128879
0.0163203
-0.000111862
0.0162749
-9.67879e-05
0.0162103
-8.33168e-05
0.0161416
-7.1257e-05
0.0160737
-6.04864e-05
0.0160078
-5.09118e-05
0.0159439
-4.24502e-05
0.015882
-3.50211e-05
0.0158221
-2.85451e-05
0.0157645
-2.29442e-05
0.0157092
-1.81431e-05
0.0156565
-1.40692e-05
0.0156067
-1.06532e-05
0.01556
-7.82884e-06
0.0155163
-5.53565e-06
0.015476
-3.71273e-06
0.0154391
-2.30409e-06
0.0154057
-1.25651e-06
0.0153758
-5.19295e-07
0.0153496
-4.43366e-08
0.015327
2.18915e-07
0.0153081
3.11519e-07
0.015293
2.77187e-07
0.0152817
1.59172e-07
0.0152741
0.0152703
-0.000249321
0.0146051
0.000276676
-0.000218237
0.0156348
-0.000190329
0.0161171
-0.00016666
0.0162833
-0.000146403
0.0163001
-0.000128659
0.0162572
-0.000112844
0.0161945
-9.86283e-05
0.0161274
-8.58233e-05
0.0160609
-7.43079e-05
0.0159962
-6.39895e-05
0.0159336
-5.47861e-05
0.0158728
-4.66186e-05
0.015814
-3.94086e-05
0.0157572
-3.30794e-05
0.0157029
-2.75562e-05
0.015651
-2.27672e-05
0.015602
-1.86435e-05
0.0155558
-1.51199e-05
0.0155128
-1.21338e-05
0.015473
-9.62604e-06
0.0154366
-7.53975e-06
0.0154036
-5.8211e-06
0.0153741
-4.41864e-06
0.0153482
-3.28275e-06
0.0153259
-2.36729e-06
0.0153072
-1.62526e-06
0.0152923
-1.01245e-06
0.0152811
-4.85249e-07
0.0152736
0.0152698
-0.000267257
0.0145789
0.000293428
-0.000236591
0.0156042
-0.000208488
0.016089
-0.000184299
0.0162591
-0.000163393
0.0162792
-0.000144952
0.0162388
-0.000128427
0.016178
-0.000113496
0.0161124
-9.99747e-05
0.0160473
-8.77427e-05
0.015984
-7.67082e-05
0.0159225
-6.679e-05
0.0158629
-5.791e-05
0.0158051
-4.99911e-05
0.0157493
-4.29575e-05
0.0156958
-3.67352e-05
0.0156448
-3.12531e-05
0.0155965
-2.64429e-05
0.015551
-2.22393e-05
0.0155086
-1.85799e-05
0.0154694
-1.54053e-05
0.0154334
-1.26587e-05
0.0154008
-1.02857e-05
0.0153717
-8.23446e-06
0.0153461
-6.45508e-06
0.0153241
-4.89958e-06
0.0153057
-3.52135e-06
0.0152909
-2.27503e-06
0.0152798
-1.11607e-06
0.0152724
0.0152687
-0.000284586
0.0145539
0.000309643
-0.000254329
0.0155739
-0.000226052
0.0160607
-0.000201375
0.0162345
-0.000179849
0.0162576
-0.000160743
0.0162196
-0.000143537
0.0161608
-0.00012792
0.0160968
-0.000113711
0.0160331
-0.000100791
0.0159711
-8.90674e-05
0.0159108
-7.84609e-05
0.0158523
-6.88941e-05
0.0157955
-6.02911e-05
0.0157407
-5.25769e-05
0.0156881
-4.56783e-05
0.0156379
-3.9525e-05
0.0155903
-3.40489e-05
0.0155456
-2.91851e-05
0.0155038
-2.48714e-05
0.0154651
-2.10482e-05
0.0154296
-1.76585e-05
0.0153975
-1.46478e-05
0.0153687
-1.19637e-05
0.0153434
-9.55588e-06
0.0153217
-7.37551e-06
0.0153035
-5.3755e-06
0.0152889
-3.50979e-06
0.0152779
-1.73303e-06
0.0152706
0.015267
-0.000301315
0.0145299
0.000325325
-0.000271455
0.015544
-0.000243024
0.0160322
-0.000217888
0.0162093
-0.000195774
0.0162355
-0.000176033
0.0161999
-0.000158175
0.0161429
-0.000141902
0.0160805
-0.000127034
0.0160183
-0.000113452
0.0159575
-0.000101067
0.0158984
-8.97984e-05
0.015841
-7.95702e-05
0.0157853
-7.03075e-05
0.0157315
-6.19362e-05
0.0156797
-5.43841e-05
0.0156304
-4.75811e-05
0.0155835
-4.14599e-05
0.0155394
-3.59558e-05
0.0154983
-3.10066e-05
0.0154601
-2.6553e-05
0.0154251
-2.25377e-05
0.0153934
-1.89059e-05
0.0153651
-1.5605e-05
0.0153401
-1.25841e-05
0.0153187
-9.794e-06
0.0153007
-7.18692e-06
0.0152863
-4.71621e-06
0.0152755
-2.33586e-06
0.0152682
0.0152646
-0.00031745
0.0145068
0.00034048
-0.000287974
0.0155146
-0.000259407
0.0160037
-0.000233841
0.0161838
-0.00021117
0.0162129
-0.000190824
0.0161796
-0.000172344
0.0161244
-0.000155442
0.0160636
-0.000139943
0.0160028
-0.000125728
0.0159433
-0.000112707
0.0158854
-0.000100802
0.0158291
-8.99377e-05
0.0157744
-8.00396e-05
0.0157216
-7.10346e-05
0.0156707
-6.28513e-05
0.0156222
-5.54203e-05
0.0155761
-4.86746e-05
0.0155327
-4.25498e-05
0.0154921
-3.69842e-05
0.0154545
-3.19182e-05
0.0154201
-2.72947e-05
0.0153888
-2.30587e-05
0.0153608
-1.91571e-05
0.0153362
-1.55388e-05
0.015315
-1.21542e-05
0.0152973
-8.95496e-06
0.0152831
-5.89387e-06
0.0152724
-2.92437e-06
0.0152653
0.0152617
-0.000332994
0.0144847
0.000355109
-0.000303889
0.0154855
-0.000275204
0.015975
-0.000249236
0.0161578
-0.000226039
0.0161897
-0.000205117
0.0161586
-0.000186043
0.0161053
-0.000168542
0.0160461
-0.000152438
0.0159867
-0.000137617
0.0159285
-0.000123987
0.0158718
-0.000111472
0.0158166
-9.99963e-05
0.0157629
-8.94868e-05
0.0157111
-7.98713e-05
0.0156611
-7.10791e-05
0.0156134
-6.30414e-05
0.0155681
-5.56918e-05
0.0155253
-4.89662e-05
0.0154854
-4.2803e-05
0.0154484
-3.71429e-05
0.0154144
-3.19286e-05
0.0153836
-2.71051e-05
0.015356
-2.26191e-05
0.0153317
-1.84193e-05
0.0153108
-1.44555e-05
0.0152934
-1.06791e-05
0.0152793
-7.04241e-06
0.0152688
-3.49835e-06
0.0152617
0.0152582
-0.000347954
0.0144635
0.000369217
-0.000319206
0.0154567
-0.000290417
0.0159462
-0.000264076
0.0161314
-0.000240381
0.016166
-0.000218913
0.0161372
-0.000199275
0.0160857
-0.000181202
0.0160281
-0.000164523
0.01597
-0.000149121
0.0159131
-0.000134909
0.0158576
-0.000121809
0.0158035
-0.000109746
0.0157509
-9.86489e-05
0.0157
-8.84459e-05
0.0156509
-7.90669e-05
0.015604
-7.04438e-05
0.0155594
-6.25107e-05
0.0155174
-5.52039e-05
0.0154781
-4.84621e-05
0.0154416
-4.22259e-05
0.0154082
-3.64384e-05
0.0153778
-3.10443e-05
0.0153506
-2.59903e-05
0.0153267
-2.12247e-05
0.0153061
-1.66973e-05
0.0152888
-1.23589e-05
0.015275
-8.16153e-06
0.0152646
-4.05767e-06
0.0152576
0.0152542
-0.000362332
0.014443
0.000382803
-0.000333927
0.0154283
-0.00030505
0.0159173
-0.000278362
0.0161048
-0.000254199
0.0161418
-0.000232215
0.0161152
-0.000212042
0.0160655
-0.000193424
0.0160094
-0.000176196
0.0159527
-0.000160242
0.0158971
-0.000145473
0.0158428
-0.000131812
0.0157898
-0.000119187
0.0157383
-0.000107526
0.0156883
-9.67582e-05
0.0156401
-8.68143e-05
0.0155941
-7.7627e-05
0.0155502
-6.91307e-05
0.0155089
-6.12623e-05
0.0154702
-5.39606e-05
0.0154343
-4.71667e-05
0.0154014
-4.08234e-05
0.0153715
-3.48757e-05
0.0153447
-2.92701e-05
0.0153211
-2.39547e-05
0.0153008
-1.88791e-05
0.0152838
-1.3994e-05
0.0152701
-9.25099e-06
0.0152598
-4.6022e-06
0.015253
0.0152496
-0.000376132
0.0144232
0.000395869
-0.000348056
0.0154002
-0.000319106
0.0158884
-0.000292097
0.0160778
-0.000267496
0.0161172
-0.000245024
0.0160927
-0.000224344
0.0160449
-0.000205211
0.0159903
-0.000187461
0.015935
-0.000170979
0.0158806
-0.000155679
0.0158275
-0.000141483
0.0157756
-0.00012832
0.0157251
-0.000116118
0.0156761
-0.000104808
0.0156288
-9.43214e-05
0.0155836
-8.45908e-05
0.0155405
-7.55516e-05
0.0154999
-6.7141e-05
0.0154618
-5.92983e-05
0.0154265
-5.19646e-05
0.0153941
-4.50831e-05
0.0153646
-3.85986e-05
0.0153382
-3.24578e-05
0.0153149
-2.66087e-05
0.0152949
-2.10007e-05
0.0152781
-1.55842e-05
0.0152647
-1.03106e-05
0.0152546
-5.13184e-06
0.0152478
0.0152444
-0.000389357
0.0144042
0.000408416
-0.000361596
0.0153725
-0.000332586
0.0158594
-0.000305283
0.0160504
-0.000280273
0.0160922
-0.000257343
0.0160698
-0.000236184
0.0160237
-0.000216563
0.0159707
-0.000198318
0.0159168
-0.000181336
0.0158636
-0.000165529
0.0158117
-0.000150823
0.0157609
-0.000137146
0.0157114
-0.000124426
0.0156634
-0.000112597
0.015617
-0.000101588
0.0155726
-9.13352e-05
0.0155303
-8.17732e-05
0.0154903
-7.28398e-05
0.0154529
-6.44747e-05
0.0154181
-5.66194e-05
0.0153862
-4.9217e-05
0.0153572
-4.22128e-05
0.0153312
-3.55533e-05
0.0153083
-2.91865e-05
0.0152885
-2.30616e-05
0.015272
-1.71291e-05
0.0152587
-1.13402e-05
0.0152488
-5.64651e-06
0.0152421
0.0152388
-0.000402009
0.0143858
0.000420442
-0.000374549
0.015345
-0.000345495
0.0158303
-0.000317923
0.0160229
-0.000292533
0.0160668
-0.000269174
0.0160464
-0.000247565
0.0160021
-0.000227482
0.0159506
-0.000208769
0.015898
-0.000191312
0.0158462
-0.000175025
0.0157954
-0.000159833
0.0157457
-0.000145665
0.0156973
-0.000132451
0.0156502
-0.000120124
0.0156047
-0.000108615
0.0155611
-9.78605e-05
0.0155195
-8.77956e-05
0.0154802
-7.83587e-05
0.0154434
-6.94899e-05
0.0154093
-6.11308e-05
0.0153778
-5.32252e-05
0.0153493
-4.57181e-05
0.0153237
-3.85562e-05
0.0153011
-3.16877e-05
0.0152817
-2.50618e-05
0.0152654
-1.86287e-05
0.0152523
-1.23397e-05
0.0152425
-6.14617e-06
0.0152359
0.0152326
-0.000414091
0.0143679
0.000431948
-0.000386921
0.0153178
-0.000357835
0.0158012
-0.00033002
0.0159951
-0.000304278
0.0160411
-0.000280519
0.0160227
-0.000258488
0.0159801
-0.000237972
0.0159301
-0.000218817
0.0158789
-0.000200911
0.0158283
-0.000184168
0.0157787
-0.000168514
0.0157301
-0.000153879
0.0156826
-0.000140193
0.0156365
-0.00012739
0.0155919
-0.000115403
0.0155491
-0.000104167
0.0155083
-9.36192e-05
0.0154697
-8.3698e-05
0.0154335
-7.43439e-05
0.0153999
-6.54991e-05
0.015369
-5.71074e-05
0.0153409
-4.91143e-05
0.0153157
-4.14666e-05
0.0152935
-3.41124e-05
0.0152743
-2.70011e-05
0.0152583
-2.0083e-05
0.0152454
-1.3309e-05
0.0152357
-6.63078e-06
0.0152292
0.015226
-0.000425605
0.0143506
0.000442933
-0.000398713
0.0152909
-0.000369609
0.0157721
-0.000341577
0.015967
-0.000315512
0.016015
-0.000291381
0.0159985
-0.000268957
0.0159576
-0.000248034
0.0159092
-0.000228463
0.0158593
-0.000210134
0.01581
-0.000192961
0.0157615
-0.000176869
0.015714
-0.00016179
0.0156675
-0.000147655
0.0156223
-0.000134398
0.0155786
-0.000121953
0.0155366
-0.000110256
0.0154966
-9.92445e-05
0.0154587
-8.88579e-05
0.0154231
-7.9037e-05
0.0153901
-6.97242e-05
0.0153597
-6.08639e-05
0.015332
-5.24016e-05
0.0153072
-4.42844e-05
0.0152854
-3.64606e-05
0.0152665
-2.88796e-05
0.0152507
-2.14918e-05
0.015238
-1.42482e-05
0.0152285
-7.10034e-06
0.0152221
0.0152189
-0.000436555
0.0143337
0.000453397
-0.00040993
0.0152643
-0.000380821
0.015743
-0.000352596
0.0159388
-0.000326237
0.0159886
-0.000301764
0.0159741
-0.000278973
0.0159348
-0.000257672
0.0158879
-0.000237711
0.0158394
-0.000218984
0.0157912
-0.000201404
0.0157439
-0.000184899
0.0156975
-0.000169398
0.015652
-0.000154836
0.0156078
-0.000141147
0.0155649
-0.000128265
0.0155237
-0.000116128
0.0154844
-0.000104672
0.0154472
-9.38393e-05
0.0154123
-8.35697e-05
0.0153798
-7.38067e-05
0.0153499
-6.44949e-05
0.0153227
-5.55801e-05
0.0152983
-4.70097e-05
0.0152768
-3.87323e-05
0.0152582
-3.06973e-05
0.0152427
-2.28552e-05
0.0152302
-1.51572e-05
0.0152208
-7.55485e-06
0.0152145
0.0152113
-0.000446941
0.0143173
0.000463338
-0.000420574
0.015238
-0.000391475
0.0157139
-0.000363082
0.0159104
-0.000336457
0.015962
-0.00031167
0.0159493
-0.000288542
0.0159117
-0.000266887
0.0158662
-0.000246564
0.015819
-0.000227463
0.0157721
-0.000209502
0.0157259
-0.000192605
0.0156806
-0.000176707
0.0156361
-0.00016174
0.0155928
-0.00014764
0.0155508
-0.000134342
0.0155104
-0.000121783
0.0154719
-0.000109904
0.0154353
-9.86428e-05
0.015401
-8.79428e-05
0.0153691
-7.77471e-05
0.0153397
-6.80008e-05
0.015313
-5.86502e-05
0.015289
-4.96429e-05
0.0152678
-4.09277e-05
0.0152495
-3.24543e-05
0.0152342
-2.41733e-05
0.0152219
-1.60361e-05
0.0152126
-7.99435e-06
0.0152064
0.0152034
-0.000456767
0.0143013
0.000472758
-0.00043065
0.0152118
-0.000401574
0.0156848
-0.000373038
0.0158819
-0.000346175
0.0159351
-0.000321103
0.0159242
-0.000297664
0.0158883
-0.000275685
0.0158442
-0.000255024
0.0157984
-0.000235575
0.0157527
-0.000217255
0.0157076
-0.000199992
0.0156633
-0.000183718
0.0156199
-0.000168368
0.0155775
-0.000153878
0.0155363
-0.000140184
0.0154967
-0.000127225
0.0154589
-0.00011494
0.0154231
-0.000103269
0.0153894
-9.21569e-05
0.015358
-8.1546e-05
0.0153291
-7.13823e-05
0.0153028
-6.16124e-05
0.0152792
-5.21844e-05
0.0152584
-4.30471e-05
0.0152404
-3.41508e-05
0.0152253
-2.54463e-05
0.0152132
-1.6885e-05
0.0152041
-8.41888e-06
0.015198
0.0151949
-0.000466037
0.0142857
0.000481654
-0.000440162
0.015186
-0.000411124
0.0156558
-0.000382469
0.0158532
-0.000355397
0.0159081
-0.000330067
0.0158989
-0.000306346
0.0158646
-0.000284067
0.0158219
-0.000263094
0.0157774
-0.000243322
0.0157329
-0.000224669
0.015689
-0.000207061
0.0156457
-0.000190434
0.0156032
-0.000174723
0.0155617
-0.000159863
0.0155215
-0.000145794
0.0154827
-0.000132453
0.0154456
-0.000119781
0.0154104
-0.00010772
0.0153773
-9.62131e-05
0.0153465
-8.52044e-05
0.0153181
-7.464e-05
0.0152922
-6.44672e-05
0.015269
-5.46344e-05
0.0152485
-4.5091e-05
0.0152308
-3.57872e-05
0.015216
-2.66744e-05
0.0152041
-1.77041e-05
0.0151951
-8.82851e-06
0.0151891
0.0151861
-0.000474752
0.0142704
0.000490029
-0.000449114
0.0151603
-0.000420128
0.0156268
-0.000391379
0.0158245
-0.000364125
0.0158808
-0.000338567
0.0158733
-0.00031459
0.0158406
-0.000292039
0.0157994
-0.00027078
0.0157561
-0.000250709
0.0157128
-0.000231744
0.01567
-0.000213816
0.0156278
-0.000196858
0.0155863
-0.000180806
0.0155457
-0.000165598
0.0155063
-0.000151173
0.0154683
-0.00013747
0.0154319
-0.000124431
0.0153974
-0.000111997
0.0153649
-0.000100113
0.0153346
-8.87231e-05
0.0153067
-7.77748e-05
0.0152813
-6.72154e-05
0.0152585
-5.69938e-05
0.0152383
-4.70597e-05
0.0152209
-3.73639e-05
0.0152063
-2.78578e-05
0.0151946
-1.84935e-05
0.0151857
-9.22332e-06
0.0151798
0.0151769
-0.000482917
0.0142555
0.000497882
-0.000457512
0.0151349
-0.000428592
0.0155979
-0.000399774
0.0157957
-0.000372366
0.0158534
-0.000346606
0.0158476
-0.000322402
0.0158164
-0.000299604
0.0157766
-0.000278083
0.0157346
-0.000257738
0.0156925
-0.000238486
0.0156508
-0.000220259
0.0156096
-0.000202992
0.015569
-0.000186621
0.0155293
-0.000171085
0.0154907
-0.000156324
0.0154535
-0.000142278
0.0154178
-0.000128889
0.015384
-0.000116101
0.0153521
-0.000103857
0.0153224
-9.21033e-05
0.015295
-8.07875e-05
0.01527
-6.98577e-05
0.0152475
-5.9263e-05
0.0152277
-4.89538e-05
0.0152106
-3.88811e-05
0.0151962
-2.89968e-05
0.0151847
-1.92534e-05
0.015176
-9.60342e-06
0.0151702
0.0151673
-0.000490536
0.0142408
0.000505214
-0.000465361
0.0151097
-0.000436522
0.0155691
-0.000407659
0.0157668
-0.000380123
0.0158259
-0.000354191
0.0158216
-0.000329785
0.015792
-0.000306767
0.0157536
-0.00028501
0.0157129
-0.000264414
0.0156719
-0.000244898
0.0156312
-0.000226395
0.015591
-0.000208839
0.0155515
-0.00019217
0.0155127
-0.000176327
0.0154749
-0.000161249
0.0154384
-0.000146879
0.0154035
-0.000133159
0.0153702
-0.000120033
0.015339
-0.000107447
0.0153098
-9.53462e-05
0.0152829
-8.36794e-05
0.0152583
-7.2395e-05
0.0152362
-6.1443e-05
0.0152168
-5.07739e-05
0.0151999
-4.03394e-05
0.0151858
-3.00919e-05
0.0151744
-1.9984e-05
0.0151659
-9.96892e-06
0.0151602
0.0151573
-0.000497614
0.0142264
0.000512028
-0.000472665
0.0150848
-0.000443924
0.0155403
-0.000415039
0.0157379
-0.000387404
0.0157982
-0.000361326
0.0157955
-0.000336746
0.0157674
-0.000313533
0.0157304
-0.000291564
0.0156909
-0.00027074
0.0156511
-0.000250984
0.0156115
-0.000232226
0.0155723
-0.000214404
0.0155336
-0.000197457
0.0154957
-0.000181325
0.0154588
-0.00016595
0.015423
-0.000151275
0.0153888
-0.000137242
0.0153562
-0.000123796
0.0153255
-0.000110884
0.0152969
-9.84533e-05
0.0152704
-8.64516e-05
0.0152463
-7.48285e-05
0.0152246
-6.35344e-05
0.0152055
-5.25207e-05
0.0151889
-4.17394e-05
0.015175
-3.11433e-05
0.0151638
-2.06857e-05
0.0151554
-1.032e-05
0.0151498
0.015147
-0.000504155
0.0142122
0.000518326
-0.000479433
0.0150601
-0.000450803
0.0155117
-0.000421921
0.015709
-0.000394214
0.0157705
-0.000368017
0.0157693
-0.00034329
0.0157427
-0.000319907
0.015707
-0.00029775
0.0156687
-0.000276723
0.01563
-0.000256747
0.0155915
-0.000237757
0.0155533
-0.000219689
0.0155156
-0.000202484
0.0154785
-0.000186084
0.0154424
-0.000170431
0.0154074
-0.000155468
0.0153738
-0.000141139
0.0153419
-0.000127392
0.0153118
-0.000114171
0.0152837
-0.000101426
0.0152577
-8.91054e-05
0.015234
-7.71591e-05
0.0152127
-6.55384e-05
0.0151938
-5.4195e-05
0.0151776
-4.30817e-05
0.0151639
-3.21517e-05
0.0151529
-2.13586e-05
0.0151446
-1.06567e-05
0.0151391
0.0151363
-0.000510165
0.0141983
0.000524111
-0.00048567
0.0150356
-0.000457168
0.0154832
-0.000428313
0.0156802
-0.00040056
0.0157428
-0.000374271
0.0157431
-0.000349421
0.0157178
-0.000325894
0.0156835
-0.000303574
0.0156464
-0.000282366
0.0156088
-0.000262194
0.0155713
-0.000242992
0.0155341
-0.000224699
0.0154973
-0.000207256
0.0154611
-0.000190607
0.0154257
-0.000174694
0.0153915
-0.000159461
0.0153586
-0.000144855
0.0153273
-0.000130822
0.0152977
-0.000117309
0.0152701
-0.000104266
0.0152446
-9.16422e-05
0.0152214
-7.93881e-05
0.0152004
-6.74558e-05
0.0151819
-5.57976e-05
0.0151659
-4.43669e-05
0.0151525
-3.31173e-05
0.0151417
-2.20032e-05
0.0151335
-1.09792e-05
0.0151281
0.0151254
-0.000515651
0.0141845
0.000529388
-0.000491385
0.0150113
-0.000463026
0.0154548
-0.00043422
0.0156514
-0.000406448
0.015715
-0.000380094
0.0157167
-0.000355148
0.0156929
-0.000331501
0.0156598
-0.00030904
0.0156239
-0.000287674
0.0155875
-0.000267327
0.015551
-0.000247935
0.0155147
-0.000229437
0.0154788
-0.000211776
0.0154434
-0.000194896
0.0154088
-0.000178742
0.0153753
-0.000163258
0.0153431
-0.000148391
0.0153124
-0.000134089
0.0152834
-0.000120301
0.0152564
-0.000106975
0.0152313
-9.40635e-05
0.0152085
-8.15169e-05
0.0151879
-6.92878e-05
0.0151697
-5.73295e-05
0.0151539
-4.55956e-05
0.0151407
-3.40408e-05
0.0151301
-2.26198e-05
0.0151221
-1.12878e-05
0.0151167
0.0151141
-0.000520619
0.014171
0.000534159
-0.000496584
0.0149873
-0.000468385
0.0154266
-0.000439652
0.0156226
-0.000411886
0.0156872
-0.000385493
0.0156903
-0.000360476
0.0156679
-0.000336733
0.0156361
-0.000314155
0.0156014
-0.000292654
0.015566
-0.000272153
0.0155305
-0.000252591
0.0154951
-0.000233908
0.0154601
-0.000216048
0.0154255
-0.000198956
0.0153917
-0.000182578
0.0153589
-0.00016686
0.0153274
-0.00015175
0.0152973
-0.000137196
0.0152689
-0.000123148
0.0152423
-0.000109555
0.0152177
-9.63711e-05
0.0151953
-8.35468e-05
0.015175
-7.10356e-05
0.0151572
-5.87915e-05
0.0151417
-4.67688e-05
0.0151287
-3.49228e-05
0.0151183
-2.32088e-05
0.0151104
-1.15825e-05
0.0151051
0.0151025
-0.000525077
0.0141576
0.000538432
-0.000501277
0.0149635
-0.000473253
0.0153986
-0.000444617
0.015594
-0.000416882
0.0156595
-0.000390475
0.0156639
-0.000365412
0.0156428
-0.000341597
0.0156123
-0.000318926
0.0155787
-0.00029731
0.0155444
-0.000276677
0.0155099
-0.000256965
0.0154754
-0.000238116
0.0154412
-0.000220076
0.0154075
-0.000202791
0.0153745
-0.000186207
0.0153424
-0.000170272
0.0153114
-0.000154934
0.015282
-0.000140144
0.0152541
-0.000125852
0.015228
-0.000112009
0.0152039
-9.85666e-05
0.0151818
-8.54793e-05
0.015162
-7.27005e-05
0.0151444
-6.01847e-05
0.0151292
-4.78872e-05
0.0151164
-3.57637e-05
0.0151061
-2.37705e-05
0.0150984
-1.18637e-05
0.0150932
0.0150906
-0.000529034
0.0141445
0.000542211
-0.000505472
0.0149399
-0.00047764
0.0153708
-0.000449122
0.0155655
-0.000421444
0.0156318
-0.000395049
0.0156375
-0.000369964
0.0156177
-0.0003461
0.0155884
-0.000323357
0.015556
-0.000301649
0.0155226
-0.000280904
0.0154891
-0.000261062
0.0154556
-0.000242067
0.0154222
-0.000223865
0.0153893
-0.000206404
0.015357
-0.000189631
0.0153256
-0.000173496
0.0152953
-0.000157948
0.0152664
-0.000142937
0.0152391
-0.000128416
0.0152135
-0.000114337
0.0151898
-0.000100652
0.0151681
-8.7316e-05
0.0151486
-7.42837e-05
0.0151314
-6.15102e-05
0.0151164
-4.89517e-05
0.0151039
-3.65644e-05
0.0150937
-2.43053e-05
0.0150861
-1.21314e-05
0.015081
0.0150785
-0.000532497
0.0141315
0.000545505
-0.00050918
0.0149166
-0.000481555
0.0153431
-0.000453178
0.0155371
-0.000425582
0.0156042
-0.000399222
0.0156111
-0.000374139
0.0155926
-0.00035025
0.0155645
-0.000327457
0.0155332
-0.000305676
0.0155009
-0.00028484
0.0154683
-0.000264887
0.0154356
-0.000245765
0.0154031
-0.000227419
0.015371
-0.000209799
0.0153394
-0.000192855
0.0153086
-0.000176536
0.015279
-0.000160793
0.0152507
-0.000145578
0.0152239
-0.000130843
0.0151988
-0.000116542
0.0151755
-0.000102629
0.0151542
-8.90585e-05
0.0151351
-7.57866e-05
0.0151181
-6.27692e-05
0.0151034
-4.99631e-05
0.015091
-3.73255e-05
0.0150811
-2.48139e-05
0.0150736
-1.23861e-05
0.0150686
0.0150661
-0.000535477
0.0141186
0.00054832
-0.000512411
0.0148935
-0.000485009
0.0153157
-0.000456795
0.0155089
-0.000429303
0.0155767
-0.000403004
0.0155848
-0.000377946
0.0155676
-0.000354053
0.0155406
-0.000331231
0.0155103
-0.0003094
0.015479
-0.000288491
0.0154474
-0.000268447
0.0154156
-0.000249214
0.0153839
-0.000230743
0.0153525
-0.000212982
0.0153216
-0.000195882
0.0152915
-0.000179395
0.0152625
-0.000163473
0.0152347
-0.000148068
0.0152085
-0.000133135
0.0151838
-0.000118627
0.015161
-0.000104499
0.0151401
-9.07086e-05
0.0151213
-7.72108e-05
0.0151046
-6.39628e-05
0.0150901
-5.09224e-05
0.015078
-3.80476e-05
0.0150682
-2.52965e-05
0.0150609
-1.26277e-05
0.0150559
0.0150535
-0.000537985
0.0141059
0.000550666
-0.000515175
0.0148707
-0.000488013
0.0152886
-0.000459983
0.0154809
-0.000432618
0.0155494
-0.000406402
0.0155586
-0.000381392
0.0155426
-0.000357517
0.0155167
-0.000334688
0.0154875
-0.000312825
0.0154572
-0.000291863
0.0154264
-0.000271746
0.0153955
-0.000252422
0.0153646
-0.000233841
0.0153339
-0.000215956
0.0153037
-0.000198717
0.0152743
-0.000182078
0.0152459
-0.000165991
0.0152187
-0.000150412
0.0151929
-0.000135294
0.0151687
-0.000120593
0.0151463
-0.000106266
0.0151258
-9.22681e-05
0.0151073
-7.85577e-05
0.0150909
-6.50924e-05
0.0150767
-5.18307e-05
0.0150647
-3.87315e-05
0.0150551
-2.57537e-05
0.0150479
-1.28567e-05
0.015043
0.0150406
-0.00054003
0.0140934
0.000552552
-0.000517484
0.0148482
-0.000490578
0.0152617
-0.000462751
0.015453
-0.000435538
0.0155222
-0.000409427
0.0155325
-0.000384487
0.0155176
-0.000360651
0.0154929
-0.000337834
0.0154647
-0.00031596
0.0154353
-0.000294964
0.0154054
-0.000274791
0.0153753
-0.000255392
0.0153452
-0.00023672
0.0153152
-0.000218725
0.0152857
-0.000201363
0.0152569
-0.000184587
0.0152291
-0.000168352
0.0152024
-0.000152612
0.0151771
-0.000137324
0.0151534
-0.000122445
0.0151314
-0.00010793
0.0151113
-9.37388e-05
0.0150931
-7.98289e-05
0.015077
-6.61592e-05
0.015063
-5.2689e-05
0.0150513
-3.93779e-05
0.0150418
-2.6186e-05
0.0150347
-1.30733e-05
0.0150299
0.0150275
-0.000541625
0.014081
0.000553989
-0.000519351
0.0148259
-0.000492715
0.015235
-0.000465113
0.0154254
-0.000438071
0.0154951
-0.000412089
0.0155065
-0.000387239
0.0154928
-0.000363464
0.0154691
-0.000340679
0.0154419
-0.000318811
0.0154134
-0.000297798
0.0153844
-0.000277588
0.0153551
-0.000258132
0.0153257
-0.000239383
0.0152965
-0.000221296
0.0152676
-0.000203826
0.0152395
-0.000186928
0.0152122
-0.000170558
0.0151861
-0.000154672
0.0151613
-0.000139228
0.015138
-0.000124183
0.0151164
-0.000109495
0.0150966
-9.51227e-05
0.0150787
-8.10261e-05
0.0150629
-6.71645e-05
0.0150491
-5.34983e-05
0.0150376
-3.99878e-05
0.0150283
-2.6594e-05
0.0150213
-1.32776e-05
0.0150166
0.0150143
-0.000542781
0.0140688
0.000554987
-0.000520787
0.0148039
-0.000494436
0.0152087
-0.000467078
0.0153981
-0.00044023
0.0154683
-0.000414397
0.0154807
-0.000389659
0.015468
-0.000365963
0.0154454
-0.000343229
0.0154192
-0.000321386
0.0153916
-0.000300375
0.0153634
-0.000280144
0.0153349
-0.000260646
0.0153062
-0.000241837
0.0152777
-0.000223673
0.0152495
-0.00020611
0.0152219
-0.000189104
0.0151952
-0.000172613
0.0151696
-0.000156595
0.0151452
-0.000141008
0.0151224
-0.00012581
0.0151012
-0.000110962
0.0150817
-9.64218e-05
0.0150642
-8.21509e-05
0.0150486
-6.81099e-05
0.0150351
-5.42597e-05
0.0150238
-4.05619e-05
0.0150146
-2.69781e-05
0.0150077
-1.34701e-05
0.0150031
0.0150008
-0.000543513
0.0140568
0.000555558
-0.000521806
0.0147822
-0.000495756
0.0151826
-0.00046866
0.015371
-0.000442026
0.0154416
-0.000416361
0.015455
-0.000391755
0.0154434
-0.000368158
0.0154218
-0.000345493
0.0153965
-0.000323693
0.0153698
-0.0003027
0.0153424
-0.000282464
0.0153146
-0.000262941
0.0152867
-0.000244088
0.0152588
-0.000225861
0.0152313
-0.000208219
0.0152043
-0.00019112
0.0151781
-0.000174522
0.015153
-0.000158385
0.0151291
-0.000142668
0.0151067
-0.00012733
0.0150858
-0.000112334
0.0150667
-9.76381e-05
0.0150495
-8.32052e-05
0.0150342
-6.89966e-05
0.0150209
-5.49744e-05
0.0150097
-4.1101e-05
0.0150007
-2.7339e-05
0.014994
-1.3651e-05
0.0149894
0.0149871
-0.000543832
0.0140449
0.000555715
-0.000522421
0.0147608
-0.000496686
0.0151569
-0.00046987
0.0153442
-0.000443469
0.0154152
-0.000417994
0.0154296
-0.000393538
0.015419
-0.000370058
0.0153983
-0.00034748
0.0153739
-0.00032574
0.015348
-0.000304781
0.0153214
-0.000284557
0.0152944
-0.000265024
0.0152672
-0.00024614
0.0152399
-0.000227865
0.015213
-0.000210158
0.0151866
-0.000192979
0.0151609
-0.000176288
0.0151363
-0.000160044
0.0151129
-0.00014421
0.0150908
-0.000128746
0.0150704
-0.000113613
0.0150516
-9.87738e-05
0.0150346
-8.41907e-05
0.0150196
-6.98262e-05
0.0150065
-5.56436e-05
0.0149956
-4.16061e-05
0.0149867
-2.76772e-05
0.01498
-1.38206e-05
0.0149756
0.0149733
-0.000543754
0.0140332
0.00055547
-0.000522647
0.0147397
-0.00049724
0.0151315
-0.000470722
0.0153176
-0.000444572
0.0153891
-0.000419305
0.0154043
-0.000395018
0.0153947
-0.000371672
0.015375
-0.000349199
0.0153515
-0.000327534
0.0153264
-0.000306626
0.0153005
-0.000286428
0.0152742
-0.000266899
0.0152476
-0.000248
0.015221
-0.000229691
0.0151947
-0.000211932
0.0151688
-0.000194687
0.0151437
-0.000177914
0.0151195
-0.000161578
0.0150965
-0.000145638
0.0150749
-0.000130059
0.0150548
-0.000114802
0.0150363
-9.98311e-05
0.0150197
-8.51092e-05
0.0150049
-7.06003e-05
0.014992
-5.62684e-05
0.0149812
-4.2078e-05
0.0149725
-2.79933e-05
0.0149659
-1.39791e-05
0.0149615
0.0149593
-0.000543292
0.0140216
0.000554838
-0.000522498
0.0147189
-0.000497432
0.0151064
-0.000471228
0.0152914
-0.000445348
0.0153632
-0.000420306
0.0153793
-0.000396205
0.0153706
-0.000373011
0.0153518
-0.000350658
0.0153291
-0.000329085
0.0153048
-0.000308242
0.0152797
-0.000288085
0.015254
-0.000268575
0.0152281
-0.000249674
0.0152021
-0.000231343
0.0151763
-0.000213547
0.015151
-0.000196247
0.0151264
-0.000179407
0.0151027
-0.000162988
0.0150801
-0.000146956
0.0150589
-0.000131273
0.0150391
-0.000115904
0.015021
-0.000100812
0.0150046
-8.59626e-05
0.01499
-7.13203e-05
0.0149774
-5.68502e-05
0.0149667
-4.25176e-05
0.0149582
-2.8288e-05
0.0149517
-1.41269e-05
0.0149474
0.0149452
-0.000542461
0.0140103
0.000553833
-0.000521988
0.0146984
-0.000497277
0.0150817
-0.000471402
0.0152656
-0.000445808
0.0153376
-0.000421009
0.0153545
-0.000397111
0.0153467
-0.000374084
0.0153288
-0.000351867
0.0153069
-0.000330401
0.0152833
-0.000309637
0.0152589
-0.000289536
0.0152339
-0.000270058
0.0152086
-0.000251167
0.0151832
-0.000232829
0.015158
-0.000215007
0.0151332
-0.000197665
0.015109
-0.000180768
0.0150858
-0.00016428
0.0150636
-0.000148166
0.0150427
-0.000132391
0.0150233
-0.00011692
0.0150055
-0.000101719
0.0149894
-8.67529e-05
0.014975
-7.19878e-05
0.0149626
-5.73901e-05
0.0149522
-4.29259e-05
0.0149437
-2.85618e-05
0.0149373
-1.42643e-05
0.0149331
0.014931
-0.000541278
0.0139991
0.00055247
-0.000521134
0.0146783
-0.000496789
0.0150574
-0.000471258
0.01524
-0.000445966
0.0153123
-0.000421425
0.0153299
-0.000397746
0.015323
-0.000374902
0.0153059
-0.000352835
0.0152848
-0.00033149
0.015262
-0.00031082
0.0152382
-0.000290786
0.0152139
-0.000271354
0.0151892
-0.000252487
0.0151644
-0.000234153
0.0151397
-0.000216317
0.0151153
-0.000198945
0.0150917
-0.000182003
0.0150688
-0.000165457
0.0150471
-0.000149273
0.0150266
-0.000133417
0.0150075
-0.000117855
0.0149899
-0.000102554
0.0149741
-8.7482e-05
0.01496
-7.26046e-05
0.0149477
-5.78894e-05
0.0149374
-4.33039e-05
0.0149291
-2.88154e-05
0.0149229
-1.43916e-05
0.0149187
0.0149166
-0.000539757
0.0139881
0.000550764
-0.00051995
0.0146585
-0.000495982
0.0150334
-0.000470809
0.0152149
-0.000445834
0.0152873
-0.000421566
0.0153056
-0.000398121
0.0152996
-0.000375474
0.0152833
-0.000353572
0.0152629
-0.000332361
0.0152408
-0.000311798
0.0152177
-0.000291845
0.015194
-0.00027247
0.0151698
-0.00025364
0.0151455
-0.000235321
0.0151213
-0.000217483
0.0150975
-0.000200093
0.0150743
-0.000183117
0.0150519
-0.000166523
0.0150305
-0.000150279
0.0150103
-0.000134352
0.0149915
-0.00011871
0.0149743
-0.000103321
0.0149587
-8.81519e-05
0.0149448
-7.31721e-05
0.0149328
-5.83495e-05
0.0149226
-4.36524e-05
0.0149144
-2.90495e-05
0.0149083