/*--------------------------------*- C++ -*----------------------------------*\
  =========                 |
  \\      /  F ield         | OpenFOAM: The Open Source CFD Toolbox
   \\    /   O peration     | Website:  https://openfoam.org
    \\  /    A nd           | Version:  7
     \\/     M anipulation  |
\*---------------------------------------------------------------------------*/
FoamFile
{
    version     2.0;
    format      ascii;
    class       volVectorField;
    location    "60";
    object      U;
}
// * * * * * * * * * * * * * * * * * * * * * * * * * * * * * * * * * * * * * //

dimensions      [0 1 -1 0 0 0 0];

internalField   nonuniform List<vector> 
3500
(
(1.11996 0.026318 0)
(1.19909 0.023973 0)
(1.23476 0.0191001 0)
(1.24618 0.016165 0)
(1.24651 0.0134643 0)
(1.24256 0.0112624 0)
(1.23726 0.00934151 0)
(1.23172 0.00764447 0)
(1.22628 0.00614732 0)
(1.22102 0.00483061 0)
(1.21593 0.00367952 0)
(1.211 0.00268246 0)
(1.20625 0.00182823 0)
(1.20167 0.00110584 0)
(1.1973 0.000504284 0)
(1.19314 1.28665e-05 0)
(1.18921 -0.000378425 0)
(1.18552 -0.000679294 0)
(1.18209 -0.000898932 0)
(1.17892 -0.00104587 0)
(1.17602 -0.00112819 0)
(1.17339 -0.00115361 0)
(1.17105 -0.00112933 0)
(1.169 -0.00106216 0)
(1.16723 -0.000958573 0)
(1.16575 -0.000824649 0)
(1.16457 -0.000666279 0)
(1.16368 -0.000489251 0)
(1.16309 -0.000298609 0)
(1.16279 -0.00010067 0)
(1.11763 0.0289147 0)
(1.19665 0.0266735 0)
(1.23268 0.0218275 0)
(1.24449 0.0188044 0)
(1.2451 0.0160139 0)
(1.24135 0.0137075 0)
(1.2362 0.0116781 0)
(1.23079 0.00987304 0)
(1.22545 0.00826804 0)
(1.22029 0.0068434 0)
(1.21529 0.00558458 0)
(1.21045 0.00448026 0)
(1.20577 0.0035194 0)
(1.20127 0.00269117 0)
(1.19696 0.00198473 0)
(1.19286 0.00138956 0)
(1.18898 0.000895742 0)
(1.18535 0.000493639 0)
(1.18196 0.000174019 0)
(1.17882 -7.1529e-05 0)
(1.17596 -0.000251113 0)
(1.17337 -0.000372589 0)
(1.17105 -0.000443205 0)
(1.16902 -0.000469852 0)
(1.16727 -0.000459111 0)
(1.16581 -0.00041719 0)
(1.16464 -0.00035011 0)
(1.16376 -0.000263806 0)
(1.16317 -0.000163532 0)
(1.16288 -5.56386e-05 0)
(1.1154 0.0314306 0)
(1.19423 0.0292896 0)
(1.23058 0.0244707 0)
(1.24275 0.0213653 0)
(1.24363 0.0184892 0)
(1.24008 0.0160823 0)
(1.23508 0.0139489 0)
(1.22979 0.0120399 0)
(1.22456 0.0103311 0)
(1.2195 0.00880244 0)
(1.21459 0.0074398 0)
(1.20983 0.006232 0)
(1.20523 0.00516816 0)
(1.2008 0.0042376 0)
(1.19656 0.00342965 0)
(1.19252 0.00273393 0)
(1.1887 0.00214062 0)
(1.18511 0.00164015 0)
(1.18177 0.00122333 0)
(1.17868 0.000881768 0)
(1.17585 0.000607336 0)
(1.17329 0.000392119 0)
(1.171 0.00022882 0)
(1.16899 0.000110468 0)
(1.16726 3.03404e-05 0)
(1.16581 -1.78151e-05 0)
(1.16466 -4.01337e-05 0)
(1.16379 -4.27554e-05 0)
(1.16321 -3.10758e-05 0)
(1.16292 -1.14815e-05 0)
(1.11327 0.0338667 0)
(1.19185 0.031822 0)
(1.22846 0.0270301 0)
(1.24097 0.0238482 0)
(1.24212 0.0208905 0)
(1.23876 0.0183872 0)
(1.23391 0.0161539 0)
(1.22873 0.0141451 0)
(1.22362 0.0123364 0)
(1.21865 0.0107077 0)
(1.21383 0.00924507 0)
(1.20916 0.00793751 0)
(1.20464 0.00677428 0)
(1.20028 0.00574485 0)
(1.19611 0.00483872 0)
(1.19213 0.00404564 0)
(1.18836 0.00335586 0)
(1.18483 0.0027599 0)
(1.18153 0.00224865 0)
(1.17848 0.00181367 0)
(1.17568 0.00144682 0)
(1.17315 0.0011402 0)
(1.17089 0.00088645 0)
(1.16891 0.00067852 0)
(1.1672 0.000509594 0)
(1.16577 0.000373325 0)
(1.16462 0.000263475 0)
(1.16376 0.000173782 0)
(1.16319 9.8691e-05 0)
(1.1629 3.17766e-05 0)
(1.11123 0.0362243 0)
(1.18949 0.0342715 0)
(1.22633 0.0295063 0)
(1.23915 0.0262533 0)
(1.24055 0.023218 0)
(1.23738 0.0206223 0)
(1.23268 0.0182933 0)
(1.22762 0.0161888 0)
(1.22261 0.0142841 0)
(1.21774 0.0125592 0)
(1.21301 0.0110003 0)
(1.20843 0.00959667 0)
(1.20399 0.00833761 0)
(1.1997 0.00721273 0)
(1.1956 0.00621171 0)
(1.19168 0.00532441 0)
(1.18797 0.00454117 0)
(1.18448 0.0038526 0)
(1.18123 0.00324964 0)
(1.17822 0.00272385 0)
(1.17547 0.00226706 0)
(1.17297 0.00187139 0)
(1.17074 0.00152943 0)
(1.16877 0.00123408 0)
(1.16709 0.000978438 0)
(1.16567 0.000756052 0)
(1.16454 0.000560587 0)
(1.16369 0.000385712 0)
(1.16313 0.000225709 0)
(1.16284 7.41164e-05 0)
(1.10928 0.0385043 0)
(1.18717 0.0366388 0)
(1.22418 0.0319 0)
(1.23728 0.0285811 0)
(1.23893 0.025472 0)
(1.23595 0.0227879 0)
(1.23139 0.0203674 0)
(1.22646 0.0181711 0)
(1.22156 0.0161742 0)
(1.21678 0.0143569 0)
(1.21215 0.0127055 0)
(1.20765 0.0112094 0)
(1.20328 0.009858 0)
(1.19907 0.00864107 0)
(1.19503 0.00754841 0)
(1.19118 0.00657002 0)
(1.18753 0.00569632 0)
(1.18409 0.00491799 0)
(1.18089 0.00422604 0)
(1.17792 0.00361203 0)
(1.1752 0.00306779 0)
(1.17273 0.00258544 0)
(1.17053 0.00215755 0)
(1.16859 0.00177694 0)
(1.16693 0.00143668 0)
(1.16553 0.0011302 0)
(1.16441 0.000851089 0)
(1.16357 0.000592952 0)
(1.16301 0.000349928 0)
(1.16273 0.000115522 0)
(1.10742 0.0407073 0)
(1.18489 0.0389244 0)
(1.22202 0.0342116 0)
(1.23539 0.0308319 0)
(1.23727 0.0276527 0)
(1.23447 0.0248842 0)
(1.23005 0.0223761 0)
(1.22524 0.020092 0)
(1.22045 0.0180068 0)
(1.21577 0.0161008 0)
(1.21123 0.0143606 0)
(1.20681 0.0127756 0)
(1.20253 0.0113354 0)
(1.19839 0.0100297 0)
(1.19442 0.00884866 0)
(1.19063 0.00778228 0)
(1.18703 0.00682109 0)
(1.18365 0.00595585 0)
(1.18049 0.00517763 0)
(1.17757 0.00447799 0)
(1.17488 0.0038488 0)
(1.17245 0.00328215 0)
(1.17028 0.0027706 0)
(1.16836 0.00230693 0)
(1.16672 0.00188416 0)
(1.16534 0.00149564 0)
(1.16424 0.00113487 0)
(1.16341 0.000795425 0)
(1.16285 0.000471302 0)
(1.16258 0.000155979 0)
(1.10563 0.0428343 0)
(1.18263 0.041129 0)
(1.21985 0.0364418 0)
(1.23346 0.0330059 0)
(1.23556 0.0297603 0)
(1.23294 0.0269113 0)
(1.22867 0.0243199 0)
(1.22398 0.0219518 0)
(1.21929 0.0197821 0)
(1.21471 0.0177911 0)
(1.21026 0.0159657 0)
(1.20593 0.0142953 0)
(1.20173 0.0127696 0)
(1.19766 0.0113786 0)
(1.19376 0.0101123 0)
(1.19003 0.00896104 0)
(1.18649 0.00791532 0)
(1.18316 0.00696599 0)
(1.18005 0.00610421 0)
(1.17716 0.00532155 0)
(1.17452 0.00460988 0)
(1.17212 0.00396133 0)
(1.16998 0.00336841 0)
(1.16809 0.00282388 0)
(1.16647 0.00232073 0)
(1.16511 0.00185224 0)
(1.16402 0.00141185 0)
(1.1632 0.000993064 0)
(1.16265 0.000589788 0)
(1.16238 0.000195473 0)
(1.10391 0.0448857 0)
(1.1804 0.043253 0)
(1.21767 0.0385909 0)
(1.23149 0.0351034 0)
(1.23382 0.031795 0)
(1.23137 0.0288695 0)
(1.22724 0.0261987 0)
(1.22267 0.0237506 0)
(1.21809 0.0215 0)
(1.21361 0.0194278 0)
(1.20925 0.0175208 0)
(1.205 0.0157686 0)
(1.20088 0.0141608 0)
(1.19689 0.0126877 0)
(1.19305 0.0113394 0)
(1.18938 0.0101062 0)
(1.1859 0.00897888 0)
(1.18262 0.00794829 0)
(1.17956 0.00700564 0)
(1.17672 0.00614255 0)
(1.17411 0.00535089 0)
(1.17175 0.00462282 0)
(1.16963 0.00395084 0)
(1.16777 0.00332768 0)
(1.16617 0.00274629 0)
(1.16483 0.00219991 0)
(1.16375 0.00168193 0)
(1.16294 0.00118581 0)
(1.1624 0.000705352 0)
(1.16213 0.000233994 0)
(1.10226 0.0468622 0)
(1.17819 0.045297 0)
(1.21548 0.0406595 0)
(1.2295 0.0371246 0)
(1.23203 0.0337571 0)
(1.22975 0.0307591 0)
(1.22577 0.028013 0)
(1.22132 0.0254885 0)
(1.21684 0.0231609 0)
(1.21246 0.021011 0)
(1.20818 0.019026 0)
(1.20402 0.0171953 0)
(1.19998 0.0155089 0)
(1.19606 0.0139569 0)
(1.19229 0.0125297 0)
(1.18869 0.0112177 0)
(1.18527 0.0100117 0)
(1.18204 0.00890262 0)
(1.17902 0.0078818 0)
(1.17623 0.00694086 0)
(1.17366 0.00607171 0)
(1.17133 0.00526651 0)
(1.16924 0.00451776 0)
(1.16741 0.00381819 0)
(1.16583 0.00316073 0)
(1.1645 0.00253857 0)
(1.16344 0.00194505 0)
(1.16264 0.00137361 0)
(1.16211 0.000817963 0)
(1.16184 0.00027153 0)
(1.10067 0.0487642 0)
(1.17602 0.0472613 0)
(1.21329 0.0426481 0)
(1.22748 0.0390699 0)
(1.23021 0.0356468 0)
(1.2281 0.0325804 0)
(1.22425 0.0297628 0)
(1.21992 0.0271659 0)
(1.21555 0.0247649 0)
(1.21126 0.0225409 0)
(1.20708 0.0204814 0)
(1.203 0.0185758 0)
(1.19904 0.0168139 0)
(1.1952 0.0151863 0)
(1.1915 0.0136833 0)
(1.18795 0.0122955 0)
(1.18459 0.0110137 0)
(1.18141 0.00982893 0)
(1.17844 0.00873261 0)
(1.17569 0.00771639 0)
(1.17316 0.00677223 0)
(1.17087 0.00589229 0)
(1.16881 0.00506909 0)
(1.167 0.00429535 0)
(1.16544 0.00356398 0)
(1.16414 0.00286815 0)
(1.16309 0.00220117 0)
(1.1623 0.00155643 0)
(1.16178 0.000927595 0)
(1.16151 0.000308074 0)
(1.09914 0.050592 0)
(1.17387 0.0491464 0)
(1.21108 0.0445571 0)
(1.22544 0.0409396 0)
(1.22835 0.0374645 0)
(1.22641 0.0343335 0)
(1.22269 0.0314484 0)
(1.21848 0.0287828 0)
(1.21422 0.0263121 0)
(1.21003 0.0240177 0)
(1.20594 0.0218872 0)
(1.20194 0.0199099 0)
(1.19806 0.018076 0)
(1.19429 0.016376 0)
(1.19065 0.0148003 0)
(1.18718 0.0133396 0)
(1.18387 0.0119848 0)
(1.18075 0.0107272 0)
(1.17782 0.00955801 0)
(1.17511 0.00846909 0)
(1.17262 0.00745238 0)
(1.17036 0.0065001 0)
(1.16834 0.00560476 0)
(1.16655 0.00475908 0)
(1.16502 0.00395598 0)
(1.16373 0.00318859 0)
(1.1627 0.00245022 0)
(1.16192 0.00173423 0)
(1.1614 0.00103423 0)
(1.16114 0.000343619 0)
(1.09766 0.052346 0)
(1.17174 0.0509525 0)
(1.20888 0.0463869 0)
(1.22337 0.042734 0)
(1.22646 0.0392104 0)
(1.22468 0.0360188 0)
(1.2211 0.0330702 0)
(1.217 0.0303396 0)
(1.21284 0.0278028 0)
(1.20875 0.0254416 0)
(1.20475 0.0232435 0)
(1.20084 0.021198 0)
(1.19703 0.0192953 0)
(1.19334 0.0175259 0)
(1.18977 0.0158806 0)
(1.18636 0.01435 0)
(1.18311 0.0129252 0)
(1.18004 0.0115973 0)
(1.17716 0.010358 0)
(1.1745 0.00919892 0)
(1.17204 0.00811213 0)
(1.16982 0.00708988 0)
(1.16782 0.00612471 0)
(1.16607 0.00520933 0)
(1.16455 0.00433668 0)
(1.16328 0.00349987 0)
(1.16227 0.00269219 0)
(1.1615 0.001907 0)
(1.16099 0.00113785 0)
(1.16073 0.00037816 0)
(1.09624 0.0540264 0)
(1.16964 0.05268 0)
(1.20667 0.048138 0)
(1.22128 0.0444533 0)
(1.22454 0.0408848 0)
(1.22291 0.0376367 0)
(1.21947 0.0346284 0)
(1.21549 0.0318366 0)
(1.21144 0.0292373 0)
(1.20744 0.0268128 0)
(1.20353 0.0245505 0)
(1.1997 0.0224401 0)
(1.19597 0.0204719 0)
(1.19235 0.0186364 0)
(1.18885 0.0169244 0)
(1.1855 0.0153268 0)
(1.18231 0.0138347 0)
(1.17929 0.0124394 0)
(1.17646 0.0111326 0)
(1.17384 0.00990587 0)
(1.17143 0.00875146 0)
(1.16923 0.00766162 0)
(1.16727 0.00662891 0)
(1.16554 0.00564608 0)
(1.16405 0.00470605 0)
(1.1628 0.00380194 0)
(1.16179 0.00292704 0)
(1.16104 0.0020747 0)
(1.16054 0.00123845 0)
(1.16028 0.000411695 0)
(1.09486 0.0556335 0)
(1.16756 0.0543293 0)
(1.20445 0.049811 0)
(1.21917 0.046098 0)
(1.22259 0.0424881 0)
(1.22112 0.0391874 0)
(1.21781 0.0361233 0)
(1.21394 0.033274 0)
(1.20999 0.0306159 0)
(1.20609 0.0281315 0)
(1.20227 0.0258085 0)
(1.19853 0.0236366 0)
(1.19488 0.0216059 0)
(1.19133 0.0197074 0)
(1.1879 0.0179318 0)
(1.1846 0.0162701 0)
(1.18147 0.0147136 0)
(1.17851 0.0132536 0)
(1.17573 0.0118817 0)
(1.17315 0.01059 0)
(1.17077 0.00937037 0)
(1.16861 0.00821532 0)
(1.16668 0.00711737 0)
(1.16497 0.0060693 0)
(1.1635 0.00506407 0)
(1.16227 0.0040948 0)
(1.16129 0.00315477 0)
(1.16054 0.00223734 0)
(1.16005 0.00133601 0)
(1.1598 0.00044422 0)
(1.09352 0.0571674 0)
(1.1655 0.0559007 0)
(1.20223 0.0514061 0)
(1.21704 0.0476685 0)
(1.22062 0.0440208 0)
(1.21929 0.0406713 0)
(1.21611 0.0375553 0)
(1.21237 0.0346522 0)
(1.20852 0.0319389 0)
(1.20471 0.0293982 0)
(1.20098 0.0270178 0)
(1.19732 0.0247875 0)
(1.19374 0.0226977 0)
(1.19027 0.0207392 0)
(1.1869 0.0189029 0)
(1.18367 0.01718 0)
(1.1806 0.0155618 0)
(1.17768 0.0140398 0)
(1.17495 0.0126056 0)
(1.17241 0.0112513 0)
(1.17008 0.00996891 0)
(1.16796 0.00875099 0)
(1.16605 0.00759009 0)
(1.16437 0.00647902 0)
(1.16293 0.00541076 0)
(1.16171 0.00437845 0)
(1.16074 0.00337538 0)
(1.16001 0.00239491 0)
(1.15952 0.00143055 0)
(1.15927 0.000475735 0)
(1.09222 0.0586285 0)
(1.16346 0.0573946 0)
(1.20002 0.0529241 0)
(1.2149 0.0491652 0)
(1.21862 0.0454832 0)
(1.21744 0.042089 0)
(1.21439 0.0389248 0)
(1.21076 0.0359716 0)
(1.20701 0.0332067 0)
(1.2033 0.0306131 0)
(1.19965 0.0281787 0)
(1.19608 0.0258933 0)
(1.19258 0.0237474 0)
(1.18917 0.021732 0)
(1.18588 0.019838 0)
(1.18271 0.0180568 0)
(1.17969 0.0163797 0)
(1.17683 0.0147982 0)
(1.17414 0.0133042 0)
(1.17165 0.0118898 0)
(1.16935 0.0105471 0)
(1.16726 0.00926868 0)
(1.16539 0.0080471 0)
(1.16374 0.00687525 0)
(1.16231 0.00574613 0)
(1.16112 0.0046529 0)
(1.16016 0.00358887 0)
(1.15944 0.00254742 0)
(1.15896 0.00152205 0)
(1.15872 0.000506241 0)
(1.09095 0.0600168 0)
(1.16145 0.0588114 0)
(1.1978 0.0543654 0)
(1.21274 0.0505885 0)
(1.21661 0.0468758 0)
(1.21557 0.0434407 0)
(1.21264 0.0402323 0)
(1.20912 0.0372326 0)
(1.20548 0.0344196 0)
(1.20186 0.0317765 0)
(1.1983 0.0292915 0)
(1.1948 0.0269542 0)
(1.19138 0.0247554 0)
(1.18805 0.022686 0)
(1.18482 0.0207373 0)
(1.18171 0.0189005 0)
(1.17875 0.0171672 0)
(1.17594 0.015529 0)
(1.1733 0.0139778 0)
(1.17085 0.0125057 0)
(1.16859 0.0111051 0)
(1.16654 0.00976846 0)
(1.16469 0.00848847 0)
(1.16307 0.00725804 0)
(1.16167 0.0060702 0)
(1.16049 0.00491816 0)
(1.15955 0.00379525 0)
(1.15884 0.00269487 0)
(1.15836 0.00161054 0)
(1.15812 0.000535741 0)
(1.08972 0.0613326 0)
(1.15945 0.0601515 0)
(1.19559 0.0557306 0)
(1.21057 0.051939 0)
(1.21457 0.0481991 0)
(1.21367 0.0447271 0)
(1.21087 0.0414782 0)
(1.20746 0.0384357 0)
(1.20392 0.0355781 0)
(1.20039 0.032889 0)
(1.19692 0.0303566 0)
(1.1935 0.0279706 0)
(1.19016 0.0257219 0)
(1.18689 0.0236016 0)
(1.18373 0.021601 0)
(1.18068 0.0197114 0)
(1.17777 0.0179246 0)
(1.17502 0.0162322 0)
(1.17243 0.0146264 0)
(1.17002 0.0130991 0)
(1.1678 0.011643 0)
(1.16578 0.0102504 0)
(1.16397 0.00891425 0)
(1.16237 0.00762743 0)
(1.16099 0.00638303 0)
(1.15983 0.00517428 0)
(1.1589 0.00399456 0)
(1.1582 0.00283729 0)
(1.15773 0.001696 0)
(1.1575 0.000564236 0)
(1.08852 0.0625763 0)
(1.15747 0.0614154 0)
(1.19337 0.0570203 0)
(1.2084 0.0532172 0)
(1.21251 0.0494537 0)
(1.21175 0.0459486 0)
(1.20907 0.0426631 0)
(1.20577 0.0395814 0)
(1.20233 0.0366827 0)
(1.1989 0.0339509 0)
(1.19551 0.0313744 0)
(1.19218 0.0289429 0)
(1.1889 0.0266474 0)
(1.18571 0.024479 0)
(1.18261 0.0224293 0)
(1.17963 0.0204898 0)
(1.17677 0.0186521 0)
(1.17407 0.0169082 0)
(1.17153 0.0152501 0)
(1.16916 0.0136702 0)
(1.16698 0.0121608 0)
(1.16499 0.0107146 0)
(1.16321 0.00932453 0)
(1.16163 0.00798349 0)
(1.16027 0.00668466 0)
(1.15914 0.0054213 0)
(1.15822 0.00418682 0)
(1.15753 0.00297469 0)
(1.15707 0.00177847 0)
(1.15684 0.000591732 0)
(1.08734 0.0637479 0)
(1.15551 0.0626036 0)
(1.19116 0.0582351 0)
(1.20621 0.0544238 0)
(1.21045 0.0506402 0)
(1.20981 0.0471059 0)
(1.20726 0.0437874 0)
(1.20407 0.0406702 0)
(1.20072 0.0377338 0)
(1.19738 0.0349628 0)
(1.19408 0.0323453 0)
(1.19082 0.0298714 0)
(1.18762 0.0275321 0)
(1.1845 0.0253187 0)
(1.18147 0.0232227 0)
(1.17854 0.0212359 0)
(1.17574 0.01935 0)
(1.17309 0.0175571 0)
(1.17059 0.0158493 0)
(1.16827 0.014219 0)
(1.16612 0.0126587 0)
(1.16417 0.0111612 0)
(1.16242 0.00971941 0)
(1.16087 0.00832632 0)
(1.15953 0.00697517 0)
(1.15841 0.00565927 0)
(1.15751 0.00437207 0)
(1.15683 0.00310711 0)
(1.15638 0.00185795 0)
(1.15615 0.000618235 0)
(1.08619 0.064848 0)
(1.15356 0.0637167 0)
(1.18896 0.0593759 0)
(1.20402 0.0555595 0)
(1.20836 0.0517592 0)
(1.20786 0.0481995 0)
(1.20542 0.0448519 0)
(1.20234 0.0417026 0)
(1.19909 0.0387321 0)
(1.19584 0.035925 0)
(1.19262 0.0332699 0)
(1.18944 0.0307566 0)
(1.18632 0.0283765 0)
(1.18326 0.0261209 0)
(1.18029 0.0239815 0)
(1.17743 0.02195 0)
(1.17469 0.0200186 0)
(1.17208 0.0181792 0)
(1.16963 0.0164241 0)
(1.16735 0.0147458 0)
(1.16524 0.013137 0)
(1.16332 0.0115904 0)
(1.1616 0.010099 0)
(1.16008 0.00865602 0)
(1.15876 0.00725463 0)
(1.15766 0.00588825 0)
(1.15677 0.00455038 0)
(1.1561 0.00323457 0)
(1.15566 0.00193447 0)
(1.15544 0.000643751 0)
(1.08506 0.0658768 0)
(1.15164 0.0647554 0)
(1.18676 0.0604434 0)
(1.20182 0.0566249 0)
(1.20627 0.0528115 0)
(1.20589 0.0492303 0)
(1.20357 0.0458571 0)
(1.20059 0.0426794 0)
(1.19745 0.0396781 0)
(1.19428 0.0368383 0)
(1.19114 0.0341486 0)
(1.18805 0.0315991 0)
(1.18499 0.029181 0)
(1.18201 0.026886 0)
(1.1791 0.0247059 0)
(1.17629 0.0226326 0)
(1.1736 0.0206581 0)
(1.17105 0.0187747 0)
(1.16864 0.0169747 0)
(1.1664 0.0152508 0)
(1.16433 0.0135957 0)
(1.16245 0.0120022 0)
(1.16075 0.0104635 0)
(1.15925 0.00897268 0)
(1.15796 0.00752315 0)
(1.15688 0.00610833 0)
(1.15601 0.00472178 0)
(1.15535 0.00335713 0)
(1.15491 0.00200805 0)
(1.15469 0.000668287 0)
(1.08396 0.0668348 0)
(1.14973 0.0657203 0)
(1.18457 0.0614383 0)
(1.19962 0.0576209 0)
(1.20417 0.0537979 0)
(1.20391 0.0501989 0)
(1.2017 0.0468038 0)
(1.19883 0.0436012 0)
(1.19578 0.0405725 0)
(1.1927 0.0377032 0)
(1.18965 0.034982 0)
(1.18663 0.0323992 0)
(1.18365 0.0299462 0)
(1.18073 0.0276146 0)
(1.17788 0.0253965 0)
(1.17513 0.0232838 0)
(1.1725 0.0212688 0)
(1.16999 0.0193439 0)
(1.16763 0.0175014 0)
(1.16543 0.0157342 0)
(1.1634 0.014035 0)
(1.16155 0.0123969 0)
(1.15988 0.0108129 0)
(1.15841 0.00927644 0)
(1.15714 0.00778082 0)
(1.15607 0.00631957 0)
(1.15521 0.00488634 0)
(1.15457 0.00347481 0)
(1.15413 0.00207872 0)
(1.15392 0.000691853 0)
(1.08287 0.0677225 0)
(1.14784 0.0666122 0)
(1.18238 0.0623617 0)
(1.19742 0.0585483 0)
(1.20206 0.0547192 0)
(1.20191 0.0511061 0)
(1.19983 0.0476928 0)
(1.19706 0.0444687 0)
(1.1941 0.0414159 0)
(1.19111 0.0385203 0)
(1.18814 0.0357708 0)
(1.18519 0.0331576 0)
(1.18228 0.0306724 0)
(1.17942 0.0283071 0)
(1.17664 0.0260536 0)
(1.17395 0.0239042 0)
(1.17137 0.0218512 0)
(1.16891 0.0198871 0)
(1.1666 0.0180046 0)
(1.16444 0.0161963 0)
(1.16244 0.0144553 0)
(1.16062 0.0127746 0)
(1.15898 0.0111476 0)
(1.15753 0.00956744 0)
(1.15628 0.00802775 0)
(1.15524 0.00652209 0)
(1.15439 0.00504414 0)
(1.15376 0.00358768 0)
(1.15333 0.0021465 0)
(1.15312 0.000714459 0)
(1.0818 0.0685406 0)
(1.14596 0.067432 0)
(1.1802 0.0632145 0)
(1.19522 0.059408 0)
(1.19995 0.0555763 0)
(1.19992 0.0519528 0)
(1.19794 0.0485248 0)
(1.19527 0.0452826 0)
(1.19241 0.0422091 0)
(1.1895 0.0392904 0)
(1.18661 0.0365154 0)
(1.18373 0.0338749 0)
(1.1809 0.0313604 0)
(1.17811 0.0289639 0)
(1.17538 0.0266777 0)
(1.17275 0.0244941 0)
(1.17022 0.0224056 0)
(1.16781 0.0204048 0)
(1.16554 0.0184844 0)
(1.16342 0.0166373 0)
(1.16146 0.0148567 0)
(1.15967 0.0131356 0)
(1.15806 0.0114675 0)
(1.15664 0.00984583 0)
(1.15541 0.00826407 0)
(1.15438 0.00671596 0)
(1.15355 0.00519525 0)
(1.15292 0.00369579 0)
(1.1525 0.00221143 0)
(1.15229 0.000736115 0)
(1.08074 0.0692897 0)
(1.14411 0.0681807 0)
(1.17804 0.0639977 0)
(1.19303 0.0602012 0)
(1.19783 0.0563702 0)
(1.19791 0.0527399 0)
(1.19604 0.0493007 0)
(1.19348 0.0460438 0)
(1.1907 0.0429528 0)
(1.18788 0.040014 0)
(1.18506 0.0372167 0)
(1.18226 0.0345516 0)
(1.17949 0.0320105 0)
(1.17677 0.0295856 0)
(1.17411 0.0272693 0)
(1.17153 0.025054 0)
(1.16905 0.0229323 0)
(1.16669 0.0208971 0)
(1.16446 0.0189412 0)
(1.16238 0.0170576 0)
(1.16045 0.0152394 0)
(1.1587 0.0134801 0)
(1.15711 0.011773 0)
(1.15572 0.0101118 0)
(1.15451 0.00848993 0)
(1.15349 0.00690131 0)
(1.15268 0.00533976 0)
(1.15206 0.00379919 0)
(1.15165 0.00227354 0)
(1.15145 0.000756833 0)
(1.0797 0.0699704 0)
(1.14227 0.0688593 0)
(1.17589 0.0647125 0)
(1.19083 0.0609287 0)
(1.19572 0.0571019 0)
(1.1959 0.0534684 0)
(1.19414 0.0500215 0)
(1.19167 0.0467532 0)
(1.18898 0.0436478 0)
(1.18625 0.0406921 0)
(1.18351 0.0378753 0)
(1.18078 0.0351885 0)
(1.17808 0.0326235 0)
(1.17542 0.0301728 0)
(1.17281 0.0278288 0)
(1.17029 0.0255843 0)
(1.16786 0.0234319 0)
(1.16555 0.0213646 0)
(1.16336 0.0193753 0)
(1.16132 0.0174573 0)
(1.15943 0.0156038 0)
(1.1577 0.0138083 0)
(1.15615 0.0120643 0)
(1.15477 0.0103654 0)
(1.15359 0.00870545 0)
(1.15259 0.00707824 0)
(1.15179 0.00547775 0)
(1.15118 0.00389795 0)
(1.15078 0.00233288 0)
(1.15058 0.000776625 0)
(1.07868 0.0705838 0)
(1.14045 0.0694688 0)
(1.17374 0.0653599 0)
(1.18865 0.0615919 0)
(1.19361 0.0577724 0)
(1.19389 0.0541392 0)
(1.19223 0.050688 0)
(1.18986 0.0474116 0)
(1.18726 0.044295 0)
(1.1846 0.0413253 0)
(1.18194 0.0384919 0)
(1.17928 0.0357861 0)
(1.17665 0.0332 0)
(1.17405 0.030726 0)
(1.1715 0.0283569 0)
(1.16903 0.0260855 0)
(1.16665 0.0239047 0)
(1.16439 0.0218075 0)
(1.16224 0.0197872 0)
(1.16024 0.0178369 0)
(1.15838 0.0159502 0)
(1.15669 0.0141205 0)
(1.15516 0.0123415 0)
(1.15381 0.010607 0)
(1.15264 0.00891079 0)
(1.15166 0.00724689 0)
(1.15087 0.00560931 0)
(1.15028 0.00399214 0)
(1.14988 0.00238947 0)
(1.14968 0.000795505 0)
(1.07767 0.0711307 0)
(1.13864 0.0700106 0)
(1.17162 0.0659414 0)
(1.18647 0.0621918 0)
(1.19149 0.0583831 0)
(1.19188 0.0547536 0)
(1.19032 0.0513013 0)
(1.18804 0.0480201 0)
(1.18553 0.0448953 0)
(1.18295 0.0419145 0)
(1.18036 0.0390673 0)
(1.17778 0.0363453 0)
(1.17521 0.0337406 0)
(1.17267 0.0312459 0)
(1.17018 0.0288541 0)
(1.16776 0.0265582 0)
(1.16543 0.0243512 0)
(1.16321 0.0222264 0)
(1.16111 0.0201771 0)
(1.15914 0.0181967 0)
(1.15732 0.0162787 0)
(1.15565 0.0144169 0)
(1.15416 0.0126049 0)
(1.15283 0.0108366 0)
(1.15168 0.00910612 0)
(1.15072 0.00740738 0)
(1.14994 0.00573456 0)
(1.14936 0.00408182 0)
(1.14896 0.00244337 0)
(1.14877 0.000813487 0)
(1.07667 0.0716122 0)
(1.13686 0.0704858 0)
(1.16951 0.0664582 0)
(1.18431 0.0627297 0)
(1.18939 0.0589349 0)
(1.18987 0.0553126 0)
(1.18841 0.0518626 0)
(1.18622 0.0485795 0)
(1.1838 0.0454496 0)
(1.1813 0.0424605 0)
(1.17878 0.0396024 0)
(1.17626 0.0368667 0)
(1.17375 0.034246 0)
(1.17128 0.031733 0)
(1.16884 0.0293209 0)
(1.16648 0.0270028 0)
(1.1642 0.024772 0)
(1.16202 0.0226217 0)
(1.15996 0.0205456 0)
(1.15803 0.018537 0)
(1.15624 0.0165898 0)
(1.1546 0.0146977 0)
(1.15313 0.0128547 0)
(1.15183 0.0110546 0)
(1.1507 0.0092916 0)
(1.14975 0.00755986 0)
(1.14899 0.00585359 0)
(1.14841 0.00416708 0)
(1.14803 0.00249462 0)
(1.14783 0.000830586 0)
(1.07569 0.0720294 0)
(1.13509 0.0708959 0)
(1.16741 0.0669117 0)
(1.18215 0.0632071 0)
(1.18729 0.0594294 0)
(1.18786 0.0558173 0)
(1.1865 0.0523728 0)
(1.1844 0.049091 0)
(1.18206 0.0459588 0)
(1.17964 0.0429644 0)
(1.17719 0.0400979 0)
(1.17474 0.0373512 0)
(1.17229 0.0347169 0)
(1.16987 0.0321881 0)
(1.1675 0.029758 0)
(1.16518 0.0274199 0)
(1.16295 0.0251674 0)
(1.16081 0.0229938 0)
(1.15879 0.0208929 0)
(1.1569 0.0188583 0)
(1.15514 0.0168838 0)
(1.15354 0.0149634 0)
(1.15209 0.0130911 0)
(1.15081 0.0112611 0)
(1.1497 0.00946742 0)
(1.14877 0.00770446 0)
(1.14802 0.00596652 0)
(1.14745 0.00424799 0)
(1.14707 0.00254326 0)
(1.14688 0.000846818 0)
(1.07472 0.0723835 0)
(1.13334 0.0712423 0)
(1.16533 0.0673034 0)
(1.18001 0.0636252 0)
(1.1852 0.0598677 0)
(1.18586 0.0562692 0)
(1.18459 0.0528332 0)
(1.18258 0.0495556 0)
(1.18032 0.046424 0)
(1.17797 0.0434269 0)
(1.1756 0.0405548 0)
(1.17321 0.0377995 0)
(1.17083 0.0351541 0)
(1.16846 0.0326118 0)
(1.16614 0.030166 0)
(1.16387 0.0278102 0)
(1.16168 0.0255381 0)
(1.15959 0.0233432 0)
(1.15761 0.0212195 0)
(1.15575 0.0191608 0)
(1.15403 0.017161 0)
(1.15245 0.0152142 0)
(1.15103 0.0133145 0)
(1.14977 0.0114563 0)
(1.14868 0.00963376 0)
(1.14776 0.00784133 0)
(1.14703 0.00607346 0)
(1.14647 0.00432463 0)
(1.1461 0.00258935 0)
(1.14591 0.000862198 0)
(1.07376 0.0726759 0)
(1.13162 0.0715266 0)
(1.16327 0.0676349 0)
(1.17788 0.0639857 0)
(1.18312 0.0602512 0)
(1.18387 0.0566694 0)
(1.18269 0.0532449 0)
(1.18077 0.0499746 0)
(1.17858 0.0468463 0)
(1.17631 0.0438492 0)
(1.174 0.0409739 0)
(1.17167 0.0382126 0)
(1.16935 0.0355584 0)
(1.16704 0.0330049 0)
(1.16477 0.0305455 0)
(1.16255 0.0281742 0)
(1.16041 0.0258845 0)
(1.15836 0.0236705 0)
(1.15642 0.0215259 0)
(1.15459 0.019445 0)
(1.1529 0.0174217 0)
(1.15135 0.0154503 0)
(1.14996 0.0135251 0)
(1.14872 0.0116405 0)
(1.14765 0.00979081 0)
(1.14675 0.00797064 0)
(1.14602 0.00617453 0)
(1.14547 0.0043971 0)
(1.14511 0.00263294 0)
(1.14492 0.000876745 0)
(1.07281 0.0729079 0)
(1.12991 0.0717503 0)
(1.16123 0.0679077 0)
(1.17577 0.06429 0)
(1.18106 0.0605816 0)
(1.18189 0.0570194 0)
(1.1808 0.0536093 0)
(1.17895 0.0503489 0)
(1.17685 0.0472268 0)
(1.17464 0.0442322 0)
(1.1724 0.0413562 0)
(1.17014 0.0385912 0)
(1.16787 0.0359306 0)
(1.16562 0.033368 0)
(1.1634 0.0308973 0)
(1.16123 0.0285124 0)
(1.15913 0.0262073 0)
(1.15712 0.023976 0)
(1.15521 0.0218126 0)
(1.15342 0.0197113 0)
(1.15176 0.0176664 0)
(1.15024 0.0156722 0)
(1.14887 0.0137232 0)
(1.14765 0.0118139 0)
(1.1466 0.00993877 0)
(1.14571 0.00809254 0)
(1.145 0.00626987 0)
(1.14446 0.00446547 0)
(1.1441 0.00267407 0)
(1.14392 0.000890476 0)
(1.07187 0.0730812 0)
(1.12822 0.0719153 0)
(1.15922 0.0681236 0)
(1.17368 0.0645397 0)
(1.179 0.0608601 0)
(1.17991 0.0573205 0)
(1.17891 0.0539277 0)
(1.17715 0.0506799 0)
(1.17511 0.0475664 0)
(1.17298 0.0445769 0)
(1.1708 0.0417026 0)
(1.1686 0.0389363 0)
(1.16639 0.0362714 0)
(1.16419 0.033702 0)
(1.16202 0.0312221 0)
(1.15989 0.0288257 0)
(1.15784 0.026507 0)
(1.15587 0.0242604 0)
(1.154 0.02208 0)
(1.15224 0.0199601 0)
(1.15061 0.0178954 0)
(1.14912 0.0158802 0)
(1.14777 0.0139091 0)
(1.14657 0.0119767 0)
(1.14554 0.0100779 0)
(1.14466 0.00820721 0)
(1.14396 0.00635959 0)
(1.14343 0.00452984 0)
(1.14308 0.00271281 0)
(1.1429 0.000903409 0)
(1.07095 0.0731973 0)
(1.12656 0.0720233 0)
(1.15722 0.0682843 0)
(1.1716 0.0647365 0)
(1.17697 0.0610885 0)
(1.17795 0.0575742 0)
(1.17703 0.0542013 0)
(1.17535 0.0509689 0)
(1.17338 0.0478666 0)
(1.17131 0.0448845 0)
(1.1692 0.0420142 0)
(1.16706 0.0392488 0)
(1.1649 0.0365818 0)
(1.16275 0.0340077 0)
(1.16063 0.0315204 0)
(1.15855 0.0291145 0)
(1.15654 0.0267843 0)
(1.15461 0.0245241 0)
(1.15277 0.0223285 0)
(1.15105 0.020192 0)
(1.14945 0.0181091 0)
(1.14798 0.0160745 0)
(1.14665 0.014083 0)
(1.14548 0.0121293 0)
(1.14446 0.0102083 0)
(1.1436 0.00831482 0)
(1.14291 0.00644384 0)
(1.14239 0.00459032 0)
(1.14204 0.00274921 0)
(1.14187 0.000915563 0)
(1.07004 0.0732578 0)
(1.12492 0.0720762 0)
(1.15525 0.0683916 0)
(1.16955 0.0648822 0)
(1.17495 0.0612683 0)
(1.176 0.057782 0)
(1.17516 0.0544317 0)
(1.17355 0.051217 0)
(1.17166 0.0481283 0)
(1.16966 0.045156 0)
(1.1676 0.042292 0)
(1.16551 0.0395296 0)
(1.16341 0.0368627 0)
(1.16132 0.0342857 0)
(1.15924 0.0317932 0)
(1.15721 0.0293797 0)
(1.15523 0.0270397 0)
(1.15334 0.0247678 0)
(1.15154 0.0225588 0)
(1.14985 0.0204072 0)
(1.14827 0.0183079 0)
(1.14683 0.0162556 0)
(1.14553 0.0142453 0)
(1.14437 0.0122719 0)
(1.14337 0.0103303 0)
(1.14253 0.00841554 0)
(1.14185 0.00652275 0)
(1.14134 0.00464698 0)
(1.14099 0.00278333 0)
(1.14082 0.000926957 0)
(1.06914 0.0732645 0)
(1.1233 0.0720758 0)
(1.1533 0.0684474 0)
(1.16752 0.0649784 0)
(1.17295 0.0614012 0)
(1.17407 0.0579454 0)
(1.1733 0.0546201 0)
(1.17177 0.0514257 0)
(1.16994 0.0483529 0)
(1.168 0.0453926 0)
(1.16601 0.042537 0)
(1.16397 0.0397797 0)
(1.16193 0.0371148 0)
(1.15988 0.034537 0)
(1.15785 0.0320411 0)
(1.15586 0.0296218 0)
(1.15392 0.0272738 0)
(1.15207 0.024992 0)
(1.1503 0.0227712 0)
(1.14864 0.0206063 0)
(1.14709 0.0184922 0)
(1.14567 0.0164238 0)
(1.14439 0.0143963 0)
(1.14326 0.0124047 0)
(1.14227 0.010444 0)
(1.14144 0.00850956 0)
(1.14077 0.00659646 0)
(1.14027 0.00469994 0)
(1.13993 0.00281523 0)
(1.13976 0.000937612 0)
(1.06825 0.0732192 0)
(1.1217 0.0720241 0)
(1.15138 0.0684535 0)
(1.16551 0.0650271 0)
(1.17096 0.0614888 0)
(1.17216 0.058066 0)
(1.17146 0.0547682 0)
(1.17 0.0515962 0)
(1.16824 0.0485416 0)
(1.16636 0.0455955 0)
(1.16442 0.0427504 0)
(1.16244 0.0400001 0)
(1.16044 0.0373392 0)
(1.15844 0.0347625 0)
(1.15645 0.032265 0)
(1.1545 0.0298416 0)
(1.15261 0.0274874 0)
(1.15079 0.0251973 0)
(1.14905 0.0229664 0)
(1.14742 0.0207897 0)
(1.1459 0.0186624 0)
(1.14451 0.0165795 0)
(1.14325 0.0145363 0)
(1.14213 0.012528 0)
(1.14116 0.0105498 0)
(1.14035 0.00859706 0)
(1.13969 0.00666511 0)
(1.13919 0.0047493 0)
(1.13886 0.00284498 0)
(1.13869 0.000947548 0)
(1.06738 0.073124 0)
(1.12013 0.0719233 0)
(1.14948 0.0684121 0)
(1.16353 0.06503 0)
(1.169 0.061533 0)
(1.17026 0.0581454 0)
(1.16963 0.0548773 0)
(1.16824 0.0517301 0)
(1.16654 0.0486957 0)
(1.16472 0.0457658 0)
(1.16283 0.0429331 0)
(1.1609 0.0401918 0)
(1.15895 0.0375367 0)
(1.157 0.0349629 0)
(1.15505 0.0324655 0)
(1.15315 0.0300398 0)
(1.15129 0.027681 0)
(1.1495 0.0253843 0)
(1.1478 0.0231449 0)
(1.14619 0.020958 0)
(1.1447 0.018819 0)
(1.14333 0.0167231 0)
(1.14209 0.0146657 0)
(1.141 0.0126421 0)
(1.14004 0.0106478 0)
(1.13924 0.00867824 0)
(1.13859 0.00672886 0)
(1.1381 0.00479516 0)
(1.13778 0.00287262 0)
(1.13761 0.000956785 0)
(1.06652 0.0729806 0)
(1.11858 0.0717754 0)
(1.14761 0.068325 0)
(1.16157 0.0649891 0)
(1.16707 0.0615355 0)
(1.16838 0.0581853 0)
(1.16782 0.054949 0)
(1.16649 0.0518286 0)
(1.16485 0.0488165 0)
(1.16309 0.0459047 0)
(1.16125 0.0430864 0)
(1.15938 0.0403559 0)
(1.15747 0.0377083 0)
(1.15556 0.0351391 0)
(1.15366 0.0326435 0)
(1.15179 0.0302172 0)
(1.14997 0.0278554 0)
(1.14821 0.0255536 0)
(1.14654 0.0233072 0)
(1.14496 0.0211116 0)
(1.1435 0.0189624 0)
(1.14215 0.0168549 0)
(1.14093 0.0147847 0)
(1.13985 0.0127473 0)
(1.13891 0.0107383 0)
(1.13812 0.00875329 0)
(1.13748 0.00678785 0)
(1.137 0.00483762 0)
(1.13668 0.00289823 0)
(1.13652 0.000965345 0)
(1.06568 0.0727912 0)
(1.11706 0.0715825 0)
(1.14577 0.0681943 0)
(1.15964 0.0649063 0)
(1.16515 0.0614981 0)
(1.16652 0.0581874 0)
(1.16602 0.054985 0)
(1.16476 0.0518933 0)
(1.16318 0.0489054 0)
(1.16147 0.0460135 0)
(1.15968 0.0432113 0)
(1.15785 0.0404933 0)
(1.15599 0.037855 0)
(1.15412 0.035292 0)
(1.15226 0.0327999 0)
(1.15043 0.0303744 0)
(1.14864 0.0280112 0)
(1.14692 0.0257058 0)
(1.14528 0.0234539 0)
(1.14373 0.021251 0)
(1.14229 0.019093 0)
(1.14096 0.0169753 0)
(1.13976 0.0148937 0)
(1.1387 0.0128439 0)
(1.13778 0.0108215 0)
(1.137 0.0088224 0)
(1.13637 0.00684223 0)
(1.1359 0.00487681 0)
(1.13558 0.00292188 0)
(1.13542 0.000973249 0)
(1.06485 0.0725579 0)
(1.11557 0.071347 0)
(1.14396 0.0680221 0)
(1.15773 0.0647836 0)
(1.16326 0.0614227 0)
(1.16468 0.0581533 0)
(1.16425 0.0549866 0)
(1.16304 0.0519256 0)
(1.16152 0.0489636 0)
(1.15986 0.0460935 0)
(1.15812 0.043309 0)
(1.15634 0.0406053 0)
(1.15452 0.0379778 0)
(1.15269 0.0354226 0)
(1.15087 0.0329354 0)
(1.14907 0.0305123 0)
(1.14732 0.028149 0)
(1.14563 0.0258415 0)
(1.14401 0.0235855 0)
(1.14249 0.0213768 0)
(1.14107 0.0192113 0)
(1.13977 0.0170848 0)
(1.13859 0.0149931 0)
(1.13754 0.0129322 0)
(1.13663 0.0108977 0)
(1.13586 0.00888578 0)
(1.13525 0.00689217 0)
(1.13478 0.00491281 0)
(1.13447 0.00294362 0)
(1.13431 0.000980519 0)
(1.06403 0.0722828 0)