/*--------------------------------*- C++ -*----------------------------------*\
  =========                 |
  \\      /  F ield         | OpenFOAM: The Open Source CFD Toolbox
   \\    /   O peration     | Website:  https://openfoam.org
    \\  /    A nd           | Version:  7
     \\/     M anipulation  |
\*---------------------------------------------------------------------------*/
FoamFile
{
    version     2.0;
    format      ascii;
    class       volVectorField;
    location    "24.999";
    object      U;
}
// * * * * * * * * * * * * * * * * * * * * * * * * * * * * * * * * * * * * * //

dimensions      [0 1 -1 0 0 0 0];

internalField   nonuniform List<vector> 
3700
(
(0.0317923 -0.0166958 3.92193e-20)
(0.127399 -0.0260691 -4.91035e-21)
(0.248209 -0.0254215 -2.0203e-20)
(0.345666 -0.0224957 1.03258e-20)
(0.42938 -0.0196237 3.13938e-20)
(0.50021 -0.0172117 -2.72492e-20)
(0.561101 -0.0151774 -9.79171e-22)
(0.61363 -0.0134486 -2.93302e-21)
(0.659296 -0.0119671 1.21939e-20)
(0.699176 -0.0106886 1.72048e-21)
(0.734196 -0.00957789 -7.7064e-21)
(0.765077 -0.00860708 -6.10813e-21)
(0.792389 -0.00774829 -2.1776e-20)
(0.816562 -0.00697604 2.27761e-20)
(0.838047 -0.00629441 -8.93333e-21)
(0.0342776 -0.0499436 -8.20276e-20)
(0.131143 -0.0780282 4.70976e-20)
(0.251797 -0.0761127 1.61966e-20)
(0.348792 -0.0673633 -3.45119e-21)
(0.43206 -0.0587677 -2.90964e-20)
(0.502521 -0.0515473 -5.30529e-20)
(0.563106 -0.0454576 4.28809e-20)
(0.615381 -0.0402821 -6.9301e-21)
(0.660833 -0.0358466 -3.19946e-20)
(0.700534 -0.0320185 -3.11303e-20)
(0.7354 -0.0286929 3.68693e-20)
(0.766154 -0.0257859 -3.7556e-20)
(0.793364 -0.0232138 5.04687e-20)
(0.817444 -0.0209014 -4.54618e-20)
(0.838795 -0.0188626 -8.7883e-21)
(0.0392188 -0.0827613 -1.26506e-19)
(0.138599 -0.129451 -2.17744e-19)
(0.258944 -0.12635 -1.1759e-20)
(0.355023 -0.11186 5.36514e-20)
(0.437401 -0.0976019 2.52789e-20)
(0.507128 -0.0856205 8.49039e-20)
(0.567104 -0.0755145 -5.59348e-20)
(0.618873 -0.0669246 -6.30227e-20)
(0.6639 -0.0595621 6.82648e-20)
(0.703241 -0.0532072 2.55423e-20)
(0.737801 -0.0476861 -7.59476e-20)
(0.7683 -0.0428587 2.5257e-20)
(0.795308 -0.0385865 -2.14089e-20)
(0.819202 -0.0347469 -2.23404e-20)
(0.84029 -0.0313686 -3.38045e-20)
(0.0465575 -0.114867 1.10795e-19)
(0.149697 -0.179985 3.52166e-19)
(0.269597 -0.175833 -1.65082e-19)
(0.364316 -0.155742 1.29527e-20)
(0.445369 -0.135922 -5.67154e-20)
(0.514001 -0.119258 1.54229e-19)
(0.57307 -0.105201 -4.37543e-21)
(0.624083 -0.0932503 -5.99139e-22)
(0.668476 -0.0830057 -4.64868e-20)
(0.707282 -0.0741616 4.94629e-20)
(0.741386 -0.0664769 1.27763e-19)
(0.771504 -0.0597559 4.29459e-20)
(0.79821 -0.053805 6.16688e-21)
(0.821828 -0.0484594 -9.70925e-21)
(0.842528 -0.0437703 3.90742e-20)
(0.0562066 -0.145984 2.29137e-19)
(0.164339 -0.229284 -1.66603e-19)
(0.283676 -0.224269 -4.07212e-21)
(0.376607 -0.198768 -1.74224e-20)
(0.455911 -0.173529 1.17944e-19)
(0.523096 -0.152292 -8.6426e-20)
(0.580965 -0.134373 2.97021e-20)
(0.630979 -0.119136 -3.8981e-20)
(0.674535 -0.106071 2.28663e-20)
(0.712633 -0.0947905 -1.25253e-19)
(0.746133 -0.0849866 -9.03999e-20)
(0.775747 -0.0764088 -5.52658e-20)
(0.802052 -0.0688093 8.02813e-20)
(0.825307 -0.0619863 -2.08301e-20)
(0.845501 -0.0560251 1.8593e-20)
(0.0680509 -0.175846 -2.74457e-21)
(0.182392 -0.27701 -2.65997e-19)
(0.301072 -0.271371 1.99682e-19)
(0.39181 -0.240707 -1.55963e-19)
(0.468957 -0.210227 -1.25984e-19)
(0.534353 -0.184555 6.5673e-20)
(0.59074 -0.162889 -4.40797e-20)
(0.63952 -0.144461 1.63808e-19)
(0.682041 -0.128655 -4.63554e-20)
(0.719263 -0.115005 9.57772e-20)
(0.752017 -0.103138 -4.45187e-20)
(0.781004 -0.0927507 9.77168e-20)
(0.806812 -0.0835406 1.95934e-20)
(0.82962 -0.0752761 4.19607e-20)
(0.849202 -0.0680893 -4.77809e-20)
(0.0819481 -0.204199 1.99794e-20)
(0.203689 -0.32284 2.65906e-19)
(0.321654 -0.316863 -2.53751e-20)
(0.409822 -0.281331 -4.88373e-21)
(0.48442 -0.245829 -3.12027e-20)
(0.5477 -0.21589 -2.94298e-19)
(0.602333 -0.190615 2.15086e-20)
(0.649652 -0.169109 -1.29239e-19)
(0.690947 -0.150659 -1.73333e-20)
(0.727133 -0.134718 -7.95261e-21)
(0.759002 -0.120857 3.44245e-20)
(0.787247 -0.108717 -7.46694e-20)
(0.812461 -0.0979425 -1.65873e-19)
(0.834744 -0.088278 1.75157e-19)
(0.853619 -0.0799189 5.9584e-20)
(0.0977301 -0.230802 -1.42282e-19)
(0.228038 -0.366461 -2.44831e-19)
(0.345265 -0.360477 6.4715e-20)
(0.430517 -0.320426 1.05921e-19)
(0.502199 -0.280155 1.05216e-19)
(0.563052 -0.246145 -7.16986e-21)
(0.615671 -0.21742 -8.48973e-20)
(0.661313 -0.19297 2.47061e-19)
(0.701201 -0.171985 1.00534e-21)
(0.736197 -0.153848 6.28089e-20)
(0.767051 -0.138071 1.43847e-19)
(0.794439 -0.124245 -1.3764e-19)
(0.818968 -0.111961 1.78425e-19)
(0.840654 -0.100943 -8.78115e-20)
(0.858737 -0.0914701 -5.76347e-20)
(0.115204 -0.255431 8.36342e-20)
(0.255211 -0.407581 -7.34648e-20)
(0.371722 -0.401963 1.42072e-19)
(0.453753 -0.357787 -1.234e-19)
(0.522176 -0.313036 -1.54094e-19)
(0.580308 -0.275174 -1.74672e-19)
(0.630671 -0.243182 7.1223e-20)
(0.674433 -0.215938 4.5701e-20)
(0.712742 -0.192544 -2.17434e-19)
(0.746404 -0.172315 -1.4515e-19)
(0.776117 -0.154713 -1.28639e-19)
(0.802542 -0.139278 1.7776e-19)
(0.826295 -0.125544 -5.16103e-20)
(0.847318 -0.113225 -4.25684e-20)
(0.864539 -0.1027 3.1502e-21)
(0.134153 -0.277881 2.87804e-19)
(0.284957 -0.445925 3.77592e-19)
(0.400822 -0.441083 -1.55618e-19)
(0.479369 -0.393222 -1.7779e-19)
(0.54422 -0.344311 3.81707e-19)
(0.59936 -0.302844 2.97675e-20)
(0.647239 -0.267786 1.31072e-19)
(0.688931 -0.237915 -2.9792e-19)
(0.725502 -0.21225 1.27793e-19)
(0.757694 -0.190048 2.06073e-20)
(0.78615 -0.170719 -7.9693e-20)
(0.811509 -0.153758 -1.93162e-19)
(0.834404 -0.138646 -8.52849e-20)
(0.854703 -0.125079 5.92769e-20)
(0.871007 -0.113565 1.28339e-20)
(0.154341 -0.297968 -1.9993e-19)
(0.316995 -0.481239 -2.53908e-19)
(0.432339 -0.477616 1.57946e-19)
(0.507188 -0.426553 5.739e-19)
(0.568187 -0.373834 5.25258e-20)
(0.620086 -0.329029 1.28859e-20)
(0.665273 -0.291125 -1.72258e-19)
(0.704721 -0.258809 3.52941e-19)
(0.739406 -0.231025 1.20638e-20)
(0.770003 -0.206975 1.66696e-19)
(0.797095 -0.186029 2.05712e-19)
(0.821293 -0.167636 1.28534e-19)
(0.843249 -0.151221 -1.11659e-20)
(0.862772 -0.136466 3.32986e-20)
(0.878116 -0.124027 1.10333e-19)
(0.175511 -0.315533 -8.93923e-20)
(0.35102 -0.513294 -1.46051e-19)
(0.466026 -0.511361 5.09842e-20)
(0.537017 -0.457618 3.85923e-20)
(0.59392 -0.401472 -4.25807e-19)
(0.642354 -0.353618 4.31108e-19)
(0.684662 -0.313102 -1.55597e-20)
(0.721708 -0.278535 -9.84855e-20)
(0.754374 -0.248796 -6.3617e-20)
(0.783262 -0.223035 -4.30628e-20)
(0.808891 -0.200587 -6.84497e-20)
(0.83184 -0.180864 4.66343e-20)
(0.852782 -0.163229 -1.3424e-19)
(0.871486 -0.147348 -1.02492e-19)
(0.88584 -0.134046 -6.55415e-20)
(0.197389 -0.330439 -2.05903e-20)
(0.386705 -0.541885 2.81857e-19)
(0.501617 -0.542135 -4.42951e-19)
(0.56865 -0.486272 -5.56593e-19)
(0.621253 -0.427105 1.91816e-19)
(0.666025 -0.376508 -7.23276e-20)
(0.705287 -0.333631 1.61125e-19)
(0.739791 -0.297021 2.12998e-20)
(0.770319 -0.265498 2.65416e-19)
(0.797397 -0.238172 -5.55324e-20)
(0.821474 -0.214345 -1.99047e-19)
(0.843092 -0.193399 2.57295e-20)
(0.862954 -0.174638 -5.56717e-20)
(0.880802 -0.157694 2.36129e-20)
(0.894153 -0.143589 -3.77564e-21)
(0.219688 -0.342579 1.43773e-19)
(0.423701 -0.566835 1.26515e-19)
(0.53883 -0.569779 4.05511e-19)
(0.601868 -0.512385 3.13642e-19)
(0.650007 -0.450629 2.36062e-19)
(0.690951 -0.397612 -2.70586e-19)
(0.727023 -0.352635 -5.66791e-20)
(0.758864 -0.314199 -1.14776e-19)
(0.787151 -0.281074 -7.3604e-20)
(0.81233 -0.252332 1.50447e-19)
(0.834776 -0.227255 8.34183e-20)
(0.854989 -0.2052 -1.83961e-20)
(0.873706 -0.185411 2.45643e-19)
(0.890675 -0.167475 -5.58844e-20)
(0.903025 -0.152622 1.32544e-19)
(0.242107 -0.351873 -6.07345e-20)
(0.46164 -0.587996 -4.69906e-19)
(0.577364 -0.594154 -2.90388e-19)
(0.636438 -0.535851 -1.37276e-19)
(0.68 -0.471955 -3.5119e-19)
(0.716977 -0.416854 3.02278e-19)
(0.749741 -0.370051 1.1923e-19)
(0.778816 -0.330013 1.11448e-19)
(0.804773 -0.295474 -5.24879e-19)
(0.82798 -0.265475 -1.63042e-19)
(0.848728 -0.239282 1.2337e-19)
(0.867466 -0.216239 -6.29393e-20)
(0.884981 -0.195535 7.74887e-20)
(0.901059 -0.176686 -7.92949e-20)
(0.912429 -0.161128 -3.59991e-20)
(0.264338 -0.358273 1.09314e-20)
(0.500137 -0.605248 2.0489e-19)
(0.616905 -0.615144 1.9767e-19)
(0.67212 -0.556577 7.77468e-20)
(0.711037 -0.491011 1.56634e-19)
(0.743945 -0.434174 -1.63379e-19)
(0.773305 -0.385824 -8.30647e-20)
(0.799533 -0.344417 9.90862e-20)
(0.82309 -0.308656 1.82119e-20)
(0.844264 -0.277561 8.38673e-20)
(0.863259 -0.250385 -1.82172e-20)
(0.880459 -0.226467 -2.26232e-20)
(0.896708 -0.204951 -2.11049e-20)
(0.9119 -0.185269 -4.50133e-20)
(0.922344 -0.169064 1.21661e-19)
(0.28607 -0.361761 6.19622e-20)
(0.538793 -0.618503 -7.96531e-20)
(0.657126 -0.63266 -9.36489e-20)
(0.708665 -0.574496 -2.15522e-20)
(0.742924 -0.507743 -8.25036e-20)
(0.771691 -0.449526 1.23409e-19)
(0.797579 -0.399914 -1.35534e-19)
(0.820898 -0.357374 -3.27779e-20)
(0.841999 -0.320589 1.56685e-19)
(0.861094 -0.288564 -3.4965e-21)
(0.878296 -0.260548 1.32331e-19)
(0.893896 -0.235892 -1.16505e-19)
(0.908802 -0.21372 -1.63744e-20)
(0.923125 -0.193354 -2.2504e-20)
(0.93276 -0.176546 -1.2269e-19)
(0.30699 -0.362352 -6.83336e-20)
(0.577197 -0.627705 6.47513e-21)
(0.697688 -0.646636 2.61808e-20)
(0.745816 -0.589557 4.64098e-20)
(0.775457 -0.522114 1.91726e-19)
(0.800049 -0.462878 5.23135e-20)
(0.822421 -0.412293 -1.3527e-19)
(0.842791 -0.368858 7.53369e-20)
(0.8614 -0.331248 3.38633e-19)
(0.878384 -0.298457 -1.21525e-19)
(0.893777 -0.26973 -3.07444e-20)
(0.90774 -0.244423 7.71127e-20)
(0.921208 -0.221637 -3.95501e-20)
(0.934667 -0.200595 3.92849e-20)
(0.943736 -0.183252 -4.779e-20)
(0.326784 -0.360089 4.82606e-20)
(0.614932 -0.632831 -6.14198e-20)
(0.738242 -0.657035 -6.99483e-20)
(0.783311 -0.601734 -8.32184e-20)
(0.808436 -0.534103 -1.46883e-19)
(0.828851 -0.474213 -1.60385e-19)
(0.847691 -0.422945 1.70845e-19)
(0.865095 -0.378853 -2.53649e-19)
(0.881189 -0.340618 -2.05999e-19)
(0.896042 -0.307231 1.77503e-19)
(0.909617 -0.277941 -1.35407e-19)
(0.921915 -0.25214 3.5461e-20)
(0.933778 -0.228987 6.47903e-20)
(0.946219 -0.20773 8.35158e-20)
(0.955216 -0.190404 4.15413e-20)
(0.34514 -0.355046 -5.63967e-21)
(0.651577 -0.633895 2.05114e-20)
(0.77843 -0.663843 1.08595e-20)
(0.820884 -0.61102 4.62008e-21)
(0.841656 -0.543708 3.42803e-20)
(0.857933 -0.48353 4.0173e-21)
(0.87325 -0.431867 -1.24922e-19)
(0.887689 -0.387356 1.05317e-19)
(0.901266 -0.348693 -9.49455e-20)
(0.913979 -0.314875 -1.35921e-19)
(0.925747 -0.285146 8.68997e-20)
(0.93643 -0.258901 -6.6018e-20)
(0.946624 -0.23527 2.50809e-20)
(0.957813 -0.213358 -6.18588e-20)
(0.967776 -0.195291 -2.95627e-20)
(0.361748 -0.34733 -9.58733e-20)
(0.686708 -0.63095 4.81295e-20)
(0.817893 -0.667075 1.54972e-20)
(0.858267 -0.617429 4.44384e-20)
(0.874913 -0.550943 5.22709e-20)
(0.887128 -0.49084 -2.56454e-20)
(0.898958 -0.439066 8.74211e-20)
(0.910458 -0.394371 -6.84661e-20)
(0.921532 -0.355476 4.0638e-20)
(0.932108 -0.321391 1.18149e-19)
(0.942082 -0.291361 6.84888e-20)
(0.951233 -0.264791 -1.01608e-19)
(0.959769 -0.240977 4.55983e-20)
(0.968877 -0.219778 2.57317e-20)
(0.979242 -0.203365 4.47287e-20)
(0.376298 -0.33708 2.50597e-19)
(0.719904 -0.624085 -2.32795e-19)
(0.856267 -0.66677 -1.92462e-20)
(0.895195 -0.620999 1.88975e-20)
(0.908007 -0.555838 -1.86224e-20)
(0.916273 -0.49617 6.61187e-20)
(0.924677 -0.444566 -4.05777e-20)
(0.933284 -0.399914 -1.06208e-20)
(0.94189 -0.360979 1.48983e-19)
(0.950346 -0.32679 -1.39778e-19)
(0.95853 -0.296598 -4.35833e-20)
(0.966198 -0.269818 1.0835e-19)
(0.97322 -0.245908 -5.93082e-20)
(0.980244 -0.224976 -4.0957e-20)
(0.989306 -0.207134 -1.09263e-20)
(0.388474 -0.324462 -1.96664e-19)
(0.750736 -0.613417 2.9033e-19)
(0.893198 -0.663 9.36957e-21)
(0.931404 -0.621785 -1.88006e-20)
(0.94074 -0.558434 -8.07813e-21)
(0.945211 -0.49956 1.90187e-20)
(0.950276 -0.4484 -5.1165e-21)
(0.956054 -0.404013 4.99317e-20)
(0.962246 -0.365221 -1.19359e-19)
(0.968619 -0.331085 5.59674e-20)
(0.975021 -0.30086 -2.03113e-20)
(0.981232 -0.273949 3.04613e-20)
(0.986929 -0.249921 4.7287e-21)
(0.992191 -0.229041 -1.6163e-21)
(0.999409 -0.210352 -1.01519e-20)
(0.39808 -0.309754 5.5909e-20)
(0.778734 -0.5991 -2.19572e-19)
(0.928355 -0.655878 -1.43142e-19)
(0.966635 -0.619854 9.81094e-21)
(0.972915 -0.558786 -1.5516e-20)
(0.973786 -0.501063 -5.30796e-21)
(0.975627 -0.450611 -8.83867e-21)
(0.978659 -0.406703 -4.96837e-20)
(0.982506 -0.368232 -7.5097e-21)
(0.986851 -0.334296 4.01342e-20)
(0.991503 -0.304162 1.44405e-20)
(0.996279 -0.277219 -4.73493e-21)
(1.0008 -0.253126 -4.60039e-20)
(1.00472 -0.232342 1.40534e-20)
(1.01019 -0.213276 1.06626e-20)
(0.404968 -0.293155 -3.16006e-20)
(0.803154 -0.581124 3.49484e-19)
(0.961493 -0.645647 9.25888e-20)
(1.00063 -0.615278 1.7166e-20)
(1.00434 -0.556958 3.50832e-20)
(1.00185 -0.500748 1.35363e-20)
(1.00061 -0.451256 -2.37012e-21)
(1.00099 -0.408029 3.00622e-20)
(1.00258 -0.370049 3.75101e-20)
(1.00497 -0.336457 -6.7092e-20)
(1.00793 -0.30654 5.88176e-21)
(1.0113 -0.279681 5.27994e-21)
(1.01471 -0.255618 5.43054e-20)
(1.01755 -0.23497 7.80316e-21)
(1.02158 -0.215703 -5.79384e-20)
(0.409071 -0.274845 -7.22668e-20)
(0.823761 -0.559965 -5.0539e-19)
(0.992192 -0.632543 -2.69852e-20)
(1.03315 -0.608006 -5.73375e-20)
(1.03482 -0.553026 -1.0357e-19)
(1.02926 -0.498692 2.67624e-20)
(1.0251 -0.450398 -2.42544e-20)
(1.02296 -0.408046 -5.90235e-21)
(1.02238 -0.370719 3.21917e-21)
(1.0229 -0.337606 2.21104e-20)
(1.02424 -0.308029 -1.41553e-20)
(1.02624 -0.281375 1.09878e-20)
(1.02857 -0.25743 -1.7554e-20)
(1.03043 -0.23693 -2.93872e-20)
(1.03319 -0.217616 6.74164e-21)
(0.410246 -0.255176 -9.36901e-21)
(0.84055 -0.536085 7.04228e-20)
(1.01972 -0.616426 8.2633e-20)
(1.06386 -0.598156 -1.11609e-20)
(1.06416 -0.547109 -4.81338e-21)
(1.05588 -0.494985 -8.50585e-20)
(1.04899 -0.448113 5.79835e-21)
(1.04446 -0.406816 -3.77944e-21)
(1.04183 -0.370294 4.31124e-21)
(1.04058 -0.33779 -7.46525e-21)
(1.04037 -0.308669 1.14878e-20)
(1.04106 -0.28233 -4.11618e-21)
(1.04232 -0.258581 -6.12009e-22)
(1.04325 -0.238242 9.10443e-21)
(1.0448 -0.219034 -3.96299e-21)
(0.40835 -0.2345 1.87525e-19)
(0.853217 -0.509656 3.11779e-19)
(1.04373 -0.597435 4.93943e-20)
(1.09247 -0.585946 -9.89461e-20)
(1.09218 -0.539311 1.41737e-19)
(1.08157 -0.489718 7.30567e-20)
(1.07218 -0.444481 -2.65867e-20)
(1.06542 -0.404411 -4.63165e-21)
(1.06085 -0.368834 -2.92372e-21)
(1.05793 -0.337058 2.43658e-22)
(1.05626 -0.308498 -3.0911e-21)
(1.0557 -0.282575 4.26873e-21)
(1.05593 -0.259096 1.40218e-20)
(1.05596 -0.238942 -1.14607e-20)
(1.05635 -0.219965 1.93282e-20)
(0.403314 -0.213142 -2.15832e-19)
(0.86136 -0.480885 -9.83041e-20)
(1.06406 -0.57584 -2.40655e-19)
(1.11866 -0.571535 2.78327e-19)
(1.11866 -0.529749 -2.05276e-19)
(1.10621 -0.483003 7.34271e-20)
(1.09456 -0.439595 2.47285e-20)
(1.08574 -0.400905 2.10948e-20)
(1.07937 -0.366402 1.63043e-20)
(1.07488 -0.335463 -3.51068e-21)
(1.07186 -0.307561 -6.08177e-21)
(1.0701 -0.282145 -8.90425e-21)
(1.06935 -0.259011 -2.85075e-21)
(1.06852 -0.239071 -1.68892e-21)
(1.06783 -0.220429 -1.06088e-20)
(0.39515 -0.191425 -2.05979e-19)
(0.864645 -0.450078 9.36531e-20)
(1.0804 -0.551884 7.0013e-20)
(1.14219 -0.555074 -1.5051e-19)
(1.14349 -0.518575 3.31238e-20)
(1.12963 -0.474924 -1.60069e-20)
(1.11607 -0.433549 -3.933e-20)
(1.10536 -0.396382 -3.69746e-20)
(1.09733 -0.363066 1.98813e-20)
(1.0914 -0.333062 2.60751e-20)
(1.0871 -0.305905 2.62202e-20)
(1.08423 -0.281081 5.00538e-22)
(1.08253 -0.25836 -2.16628e-21)
(1.0809 -0.238666 -2.48597e-23)
(1.07921 -0.220449 5.28351e-21)
(0.38394 -0.169677 1.99997e-19)
(0.86282 -0.417588 -9.33309e-20)
(1.09243 -0.5258 4.81435e-20)
(1.16276 -0.536748 2.21091e-19)
(1.16649 -0.505882 1.77856e-19)
(1.15178 -0.465598 -1.29701e-19)
(1.13655 -0.426462 5.19142e-20)
(1.12421 -0.390926 5.04603e-20)
(1.11467 -0.3589 -7.15062e-20)
(1.10741 -0.329918 2.03544e-20)
(1.10194 -0.30358 -1.80808e-20)
(1.09803 -0.279423 6.12663e-22)
(1.09544 -0.25718 -1.16793e-20)
(1.09307 -0.237761 9.28851e-21)
(1.09046 -0.220041 -8.05899e-21)
(0.36983 -0.148223 -1.85128e-19)
(0.855694 -0.383795 1.18364e-19)
(1.09978 -0.49783 1.45925e-19)
(1.18007 -0.516699 -3.23244e-20)
(1.18738 -0.491794 -2.41786e-19)
(1.17264 -0.455161 -8.15499e-20)
(1.15602 -0.418423 -1.03822e-19)
(1.14222 -0.384645 4.07955e-20)
(1.13134 -0.353976 -9.92872e-21)
(1.12288 -0.326093 -4.10518e-20)
(1.11635 -0.30064 -3.43755e-20)
(1.11147 -0.277214 3.40023e-21)
(1.10804 -0.255509 2.32439e-21)
(1.105 -0.236387 -1.60665e-20)
(1.10155 -0.219217 2.75227e-21)
(0.353024 -0.127376 7.98721e-20)
(0.843131 -0.349096 8.51513e-22)
(1.10214 -0.468232 -4.4214e-19)
(1.19384 -0.495083 -2.54052e-20)
(1.20596 -0.476448 1.88747e-19)
(1.19199 -0.443729 1.65831e-19)
(1.17447 -0.409543 9.36454e-20)
(1.15937 -0.37761 -6.26017e-21)
(1.1473 -0.348387 2.16704e-20)
(1.13777 -0.321655 -1.85916e-21)
(1.13028 -0.297136 3.53647e-20)
(1.12451 -0.274497 1.15564e-20)
(1.12031 -0.253389 1.85569e-20)
(1.11666 -0.234581 -2.00666e-20)
(1.11245 -0.217987 -1.59153e-20)
(0.33379 -0.107434 -1.35274e-20)
(0.825065 -0.31391 1.42124e-19)
(1.09921 -0.437282 2.38439e-19)
(1.20375 -0.472063 7.08467e-20)
(1.22206 -0.459968 -1.76659e-19)
(1.2097 -0.43142 -1.94866e-19)
(1.19176 -0.399925 7.45674e-20)
(1.17565 -0.36992 -3.32906e-20)
(1.16254 -0.342196 1.07468e-19)
(1.15205 -0.316669 3.99265e-22)
(1.14371 -0.293129 -1.88343e-20)
(1.13714 -0.271314 -8.78855e-21)
(1.13221 -0.25086 3.4021e-20)
(1.12805 -0.232375 2.62215e-20)
(1.12316 -0.216379 2.49035e-20)
(0.31245 -0.0886684 2.03316e-19)
(0.801505 -0.278672 -2.15912e-19)
(1.09071 -0.405271 1.2496e-19)
(1.20949 -0.447808 1.57952e-19)
(1.23546 -0.44247 1.21965e-19)
(1.22566 -0.418342 4.16763e-20)
(1.20781 -0.389678 2.71267e-20)
(1.191 -0.361666 -3.06995e-21)
(1.17703 -0.335486 -4.94525e-20)
(1.16572 -0.3112 2.12069e-20)
(1.15661 -0.288665 4.84094e-20)
(1.14933 -0.267714 1.61029e-20)
(1.14371 -0.247974 -1.57916e-20)
(1.1391 -0.22982 -1.42031e-20)
(1.13369 -0.214416 -1.62114e-20)
(0.289377 -0.0713197 -1.0993e-19)
(0.772553 -0.243829 7.81655e-20)
(1.07637 -0.372499 -6.84634e-21)
(1.21072 -0.422487 -1.6875e-19)
(1.2459 -0.424059 -3.6877e-20)
(1.23976 -0.404591 8.59831e-20)
(1.22259 -0.378899 -6.77328e-20)
(1.20538 -0.352942 8.10014e-21)
(1.19074 -0.328334 -4.52468e-21)
(1.17874 -0.305312 -1.68698e-20)
(1.16898 -0.28381 -2.83648e-20)
(1.16109 -0.263737 -4.45408e-20)
(1.15484 -0.244748 -2.08962e-20)
(1.14975 -0.226951 2.91659e-20)
(1.14414 -0.212173 7.03785e-21)
(0.264986 -0.0555894 -1.36536e-19)
(0.738414 -0.209839 -1.69773e-20)
(1.056 -0.339276 -8.23394e-20)
(1.20707 -0.396269 7.14814e-20)
(1.2531 -0.404837 -7.86492e-20)
(1.25183 -0.390252 -3.16744e-20)
(1.23602 -0.367677 8.68077e-21)
(1.21876 -0.343835 -9.60721e-21)
(1.20365 -0.32082 2.48459e-20)
(1.1911 -0.299074 1.13552e-21)
(1.1808 -0.278619 1.72982e-20)
(1.17239 -0.259427 2.42849e-20)
(1.16559 -0.241207 2.6328e-20)
(1.16004 -0.223921 -1.01168e-20)
(1.15442 -0.209678 -9.05233e-21)
(0.239719 -0.0416342 7.92705e-20)
(0.699416 -0.177161 8.35016e-20)
(1.02943 -0.305923 2.77483e-20)
(1.19817 -0.369321 -4.28687e-20)
(1.25674 -0.384893 8.5621e-21)
(1.26169 -0.3754 6.20515e-20)
(1.24805 -0.356093 -4.14059e-20)
(1.23113 -0.334424 -3.48639e-20)
(1.21577 -0.313016 -8.11834e-21)
(1.2028 -0.292552 7.38992e-21)
(1.19205 -0.273147 -3.57567e-20)
(1.1832 -0.254834 9.1618e-21)
(1.17594 -0.237397 2.20032e-20)
(1.16997 -0.220709 -6.37676e-21)
(1.16418 -0.206912 -7.75157e-21)
(0.214033 -0.0295615 -5.19687e-20)
(0.656027 -0.146249 -3.53549e-20)
(0.996561 -0.272766 -6.68369e-20)
(1.18366 -0.341814 -1.06127e-20)
(1.25643 -0.364309 -7.18073e-21)
(1.26909 -0.360091 -6.88062e-20)
(1.25855 -0.344211 2.10858e-20)
(1.24246 -0.324783 1.16005e-20)
(1.22707 -0.304994 -2.03486e-20)
(1.21383 -0.285806 -1.23596e-20)
(1.20274 -0.267446 -1.33365e-21)
(1.19353 -0.250006 -1.1586e-20)
(1.18589 -0.233349 -1.89945e-20)
(1.17953 -0.217263 -1.78083e-20)
(1.17345 -0.20389 1.26336e-20)
(0.188384 -0.0194263 -2.30373e-20)
(0.608856 -0.117532 8.35849e-21)
(0.95738 -0.240142 1.12851e-20)
(1.16314 -0.313925 1.15165e-20)
(1.25176 -0.343157 1.94011e-20)
(1.27376 -0.344368 1.36026e-20)
(1.26739 -0.332083 -3.86028e-21)
(1.2527 -0.314976 1.31638e-20)
(1.23758 -0.296817 -4.8969e-22)
(1.22421 -0.278894 -7.53021e-23)
(1.21288 -0.261567 5.49821e-21)
(1.20338 -0.244987 -2.55918e-21)
(1.19542 -0.229092 1.79544e-21)
(1.18873 -0.213586 7.48476e-21)
(1.18238 -0.20063 -6.43156e-21)
(0.16321 -0.011226 -1.3809e-20)
(0.558645 -0.0913995 -3.69631e-21)
(0.91199 -0.208392 1.63567e-20)
(1.13627 -0.28584 7.35558e-21)
(1.24226 -0.3215 2.10482e-20)
(1.27533 -0.32825 1.45875e-20)
(1.27438 -0.319741 -5.82014e-22)
(1.26179 -0.305052 1.82052e-20)
(1.24726 -0.288544 -9.13778e-21)
(1.23394 -0.271871 9.69939e-22)
(1.22247 -0.255557 6.43827e-21)
(1.21276 -0.239817 -3.10716e-21)
(1.20455 -0.224666 2.98641e-21)
(1.1976 -0.209716 1.13195e-20)
(1.19105 -0.197151 -4.45547e-21)
(0.138915 -0.00489976 -1.87413e-20)
(0.506254 -0.0681893 -5.58616e-20)
(0.860646 -0.177868 -6.49252e-20)
(1.1027 -0.257757 -2.40639e-21)
(1.22741 -0.299399 -9.72429e-21)
(1.27338 -0.311742 -7.5024e-20)
(1.27928 -0.307193 3.87951e-20)
(1.26962 -0.295045 6.14383e-21)
(1.2561 -0.280222 -2.73128e-20)
(1.24302 -0.264788 -2.44958e-20)
(1.23152 -0.249462 4.39313e-21)
(1.22169 -0.234536 -1.5988e-20)
(1.21329 -0.220111 -1.73928e-20)
(1.20614 -0.205708 -2.36166e-20)
(1.1995 -0.19348 1.541e-20)
(0.115854 -0.000331282 7.26666e-20)
(0.452641 -0.0481666 5.34157e-20)
(0.803785 -0.148936 2.32229e-20)
(1.06218 -0.229888 -3.57114e-20)
(1.20665 -0.276911 1.76265e-20)
(1.26739 -0.294828 3.94692e-20)
(1.28175 -0.294426 -3.37835e-20)
(1.27604 -0.284967 -6.9443e-20)
(1.26405 -0.271887 -1.04556e-20)
(1.25147 -0.257686 4.2237e-20)
(1.24006 -0.243324 -5.60144e-20)
(1.23017 -0.229183 2.25041e-20)
(1.22166 -0.215464 1.02722e-20)
(1.21436 -0.201613 -1.14736e-21)
(1.20771 -0.189652 2.26856e-21)
(0.0943199 0.00264269 -8.48211e-20)
(0.398824 -0.031505 -5.4737e-20)
(0.74206 -0.121969 -9.10766e-20)
(1.01455 -0.202463 8.59836e-20)
(1.17937 -0.254101 -9.9377e-20)
(1.25672 -0.27748 -2.69145e-20)
(1.28136 -0.2814 -3.12529e-21)
(1.28082 -0.27481 -1.66986e-21)
(1.27103 -0.263558 5.74712e-20)
(1.25925 -0.250602 -6.96863e-20)
(1.24809 -0.237183 5.34047e-20)
(1.23823 -0.223796 2.65647e-20)
(1.22966 -0.210756 6.96589e-20)
(1.22226 -0.197471 -7.53321e-21)
(1.21564 -0.185699 -2.25632e-20)
(0.0745362 0.00421963 1.40645e-20)
(0.345832 -0.0182666 1.54313e-20)
(0.676369 -0.0973462 -3.29909e-20)
(0.959811 -0.175741 -1.34998e-19)
(1.14498 -0.231047 -3.87603e-20)
(1.24067 -0.259658 1.06543e-19)
(1.27754 -0.268049 -9.11272e-20)
(1.28364 -0.264537 -5.07974e-20)
(1.2769 -0.255234 1.51832e-20)
(1.26635 -0.243557 -2.28357e-20)
(1.25562 -0.231069 -1.07697e-19)
(1.24589 -0.218406 -5.43497e-20)
(1.23732 -0.206012 3.19256e-21)
(1.22984 -0.193311 1.44388e-20)
(1.22329 -0.181653 1.27111e-20)
(0.0566534 0.00461623 1.5912e-19)
(0.294649 -0.00838616 -2.04029e-19)
(0.607852 -0.0754377 1.49053e-19)
(0.898178 -0.150013 8.19835e-20)
(1.10294 -0.207852 2.72561e-19)
(1.2184 -0.241324 1.50706e-20)
(1.26959 -0.254285 7.71019e-20)
(1.28406 -0.254078 2.14603e-20)
(1.28145 -0.246893 -1.81088e-19)
(1.27267 -0.23656 6.35311e-20)
(1.26263 -0.225006 4.45677e-20)
(1.25314 -0.213043 8.77098e-20)
(1.24463 -0.201252 -9.06522e-20)
(1.23711 -0.189155 -3.07674e-20)
(1.23066 -0.177538 -7.2357e-21)
(0.040752 0.0040536 -2.11898e-20)
(0.246156 -0.00166855 2.39384e-19)
(0.537874 -0.0565806 2.05009e-19)
(0.830159 -0.125618 4.35877e-20)
(1.05279 -0.18466 -2.69364e-19)
(1.18905 -0.222449 -1.84486e-19)
(1.25665 -0.240002 6.91981e-20)
(1.28146 -0.243337 -5.21094e-20)
(1.28434 -0.238479 1.01751e-19)
(1.27809 -0.229598 2.79442e-20)
(1.26909 -0.219005 2.20684e-20)
(1.25999 -0.207729 -5.20438e-20)
(1.25163 -0.196494 2.89421e-20)
(1.24411 -0.185021 1.27121e-19)
(1.23776 -0.17338 1.49035e-19)
(0.0268498 0.00274532 1.77759e-19)
(0.201075 0.00219737 -1.97868e-19)
(0.467959 -0.0410415 -3.38623e-19)
(0.756627 -0.102945 3.53137e-20)
(0.994301 -0.161674 2.38578e-19)
(1.15171 -0.203032 2.58474e-19)
(1.23771 -0.225083 1.60088e-19)
(1.27506 -0.232182 -1.99805e-21)
(1.28509 -0.229905 4.06901e-20)
(1.28237 -0.222634 1.53724e-20)
(1.27492 -0.213062 1.08432e-19)
(1.26643 -0.20248 3.04537e-20)
(1.25832 -0.191753 2.31444e-20)
(1.25083 -0.180924 -3.26184e-20)
(1.2446 -0.169202 -4.37212e-20)
(0.0149116 0.000889142 -2.29719e-19)
(0.159938 0.00360715 1.82974e-19)
(0.399677 -0.0289688 1.7996e-19)
(0.678872 -0.0824287 -1.47615e-19)
(0.927526 -0.139171 -3.67288e-19)
(1.10551 -0.18312 -7.8741e-20)
(1.21161 -0.209418 -2.24106e-19)
(1.26385 -0.220455 8.7863e-20)
(1.28303 -0.221045 -1.45846e-20)
(1.28516 -0.215599 -1.17465e-19)
(1.27996 -0.207152 -4.81448e-20)
(1.27242 -0.1973 2.1668e-21)
(1.26469 -0.18704 -3.52672e-20)
(1.2573 -0.176872 -3.55495e-20)
(1.25122 -0.165023 3.6131e-21)
(0.00485872 -0.00133765 3.36103e-19)
(0.123075 0.00299955 -2.2275e-19)
(0.33452 -0.0203471 1.43544e-19)
(0.598606 -0.0645279 1.62539e-19)
(0.852979 -0.117527 3.17198e-19)
(1.04979 -0.162833 -2.53813e-19)
(1.1771 -0.192921 1.12088e-19)
(1.24659 -0.207982 1.32139e-19)
(1.27724 -0.211735 -1.37693e-19)
(1.28589 -0.208386 -5.84023e-20)
(1.28396 -0.201222 -1.66783e-20)
(1.27785 -0.192177 -2.29412e-20)
(1.27073 -0.182358 -1.0935e-19)
(1.26352 -0.172872 8.8083e-20)
(1.25761 -0.160857 -1.6716e-19)
(-0.00341908 -0.00377927 -1.8483e-19)
(0.0906228 0.000816553 9.12896e-21)
(0.273758 -0.0149771 1.01309e-19)
(0.517874 -0.0496662 -2.54163e-19)
(0.771743 -0.0972203 1.32217e-19)
(0.984186 -0.142398 -9.26753e-22)
(1.13294 -0.175562 -1.51316e-19)
(1.22182 -0.194585 -6.7776e-20)
(1.26652 -0.201771 1.07822e-20)
(1.28378 -0.200841 1.48431e-19)
(1.28646 -0.195184 1.86302e-19)
(1.28254 -0.187077 1.65106e-19)
(1.27636 -0.177699 2.94774e-20)
(1.26949 -0.16892 -1.83272e-19)
(1.2638 -0.156718 -2.2759e-20)
(-0.0100597 -0.00630268 3.8698e-20)
(0.062556 -0.00252637 -2.22653e-19)
(0.218346 -0.0124963 -3.40494e-19)
(0.438878 -0.0381518 3.31684e-19)
(0.685559 -0.0788271 -2.45798e-19)
(0.90888 -0.122181 1.34824e-19)
(1.07803 -0.157402 1.50435e-19)
(1.18794 -0.180113 1.09938e-19)
(1.24933 -0.190925 1.04404e-19)
(1.27772 -0.192765 3.06612e-20)
(1.28682 -0.188902 -1.24634e-19)
(1.28615 -0.181931 -1.55691e-19)
(1.28147 -0.173039 3.85368e-20)
(1.27515 -0.165004 4.50997e-20)
(1.26979 -0.152606 1.86956e-19)
(-0.0152204 -0.00879978 1.5965e-19)
(0.038718 -0.0066612 4.42678e-19)
(0.168878 -0.0124375 -1.08139e-19)
(0.363725 -0.0300925 -2.12861e-19)
(0.596803 -0.0629642 4.90911e-19)
(0.82481 -0.102712 2.0109e-19)
(1.01167 -0.138645 4.63913e-20)
(1.14329 -0.164482 -7.17118e-20)
(1.22387 -0.178963 2.69115e-20)
(1.2662 -0.18391 -1.99776e-19)
(1.28402 -0.182187 9.3396e-20)
(1.28813 -0.176628 2.66244e-20)
(1.28577 -0.168323 -1.56168e-19)
(1.28044 -0.161099 -5.14135e-20)
(1.27553 -0.148515 -1.38119e-19)
(-0.0190677 -0.0111855 -6.85833e-20)
(0.0188566 -0.0112753 2.0805e-19)
(0.1256 -0.0142988 1.9987e-19)
(0.294183 -0.0253528 -8.70002e-20)
(0.508292 -0.050185 -3.46107e-20)
(0.733833 -0.0846838 -2.34093e-19)
(0.933841 -0.119683 1.11364e-19)
(1.0864 -0.147726 -1.23243e-19)
(1.18809 -0.165684 -6.2667e-20)
(1.24731 -0.173996 1.71105e-19)
(1.27665 -0.17479 -1.64285e-19)
(1.28759 -0.170998 8.30807e-20)
(1.28884 -0.163464 1.88619e-19)
(1.28509 -0.157148 -2.2061e-19)
(1.28105 -0.144425 1.5432e-19)
(-0.0217738 -0.0133989 -1.61777e-19)
(0.00265273 -0.016114 -6.73729e-19)
(0.0884725 -0.0176021 2.99179e-20)
(0.231505 -0.0235808 -1.6791e-19)
(0.422932 -0.0408471 -4.92247e-19)
(0.638747 -0.0688799 1.62941e-19)
(0.845536 -0.101144 -3.09559e-19)
(1.01633 -0.130075 1.37232e-19)
(1.1399 -0.150975 1.33541e-19)
(1.21875 -0.16274 -1.99991e-19)
(1.26277 -0.166406 8.269e-20)
(1.2832 -0.164802 3.07282e-20)
(1.28987 -0.158311 5.40003e-21)
(1.28884 -0.153081 6.01543e-20)
(1.28593 -0.140255 -4.60999e-20)
(-0.0235104 -0.0154026 1.01237e-20)
(-0.0102543 -0.0209793 3.83987e-19)
(0.0572371 -0.0219251 2.44813e-19)
(0.176389 -0.0242891 2.02599e-19)
(0.343299 -0.0350134 2.03883e-19)
(0.543049 -0.0560387 2.48373e-19)
(0.749014 -0.0838686 1.85807e-19)
(0.933117 -0.112023 -2.50631e-19)
(1.07755 -0.134899 -3.48706e-19)
(1.17796 -0.149913 3.31976e-19)
(1.23988 -0.156695 4.21208e-20)
(1.27303 -0.157734 -3.07553e-20)
(1.28763 -0.152644 -2.19108e-19)
(1.2908 -0.148738 -6.47086e-20)
(1.29036 -0.135982 1.78675e-19)
(-0.0244439 -0.0171805 1.23964e-19)
(-0.0202467 -0.0257248 -5.35298e-19)
(0.0314834 -0.0269128 -4.70594e-20)
(0.129025 -0.0269457 -1.87383e-19)
(0.271315 -0.0324429 -1.38157e-19)
(0.450426 -0.0466683 -9.43754e-21)
(0.647787 -0.0688118 -7.78763e-20)
(0.838208 -0.0943713 2.68212e-19)
(1.00011 -0.117799 2.06473e-19)
(1.12243 -0.135433 -2.31418e-19)
(1.20505 -0.145345 1.32287e-19)
(1.25443 -0.149408 -1.78678e-19)
(1.28026 -0.14618 1.71814e-19)
(1.29004 -0.143937 -4.06785e-20)
(1.2927 -0.131265 -1.76784e-19)
(-0.0247306 -0.0187345 -4.44611e-19)
(-0.0277111 -0.0302484 7.40753e-19)
(0.010703 -0.0322742 8.49751e-21)
(0.0892041 -0.0310392 -2.06107e-19)
(0.208108 -0.0326682 2.73117e-19)
(0.364154 -0.0409117 -8.02295e-20)
(0.546208 -0.0568279 -2.21737e-19)
(0.734755 -0.0781633 -2.50016e-19)
(0.908144 -0.100384 4.74719e-19)
(1.05038 -0.119497 -1.25653e-19)
(1.15513 -0.132139 -4.21747e-20)
(1.22419 -0.139485 2.32918e-19)
(1.26483 -0.138434 -1.7186e-19)
(1.28464 -0.138505 6.13154e-20)
(1.29328 -0.126035 -7.6193e-20)
(-0.0245138 -0.0200804 6.27928e-19)
(-0.0330255 -0.0344827 -6.89538e-19)
(-0.00566805 -0.0377724 -2.86287e-19)
(0.0564324 -0.0361082 1.1301e-19)
(0.154049 -0.0351068 -4.70144e-20)
(0.286621 -0.0385299 -1.70358e-19)
(0.448711 -0.0484411 2.21987e-19)
(0.627379 -0.0644855 -1.64243e-19)
(0.804257 -0.0837242 -2.72373e-19)
(0.961475 -0.102704 3.33192e-19)
(1.08753 -0.117175 -1.13967e-19)
(1.17842 -0.127566 6.33893e-20)
(1.23822 -0.129245 1.40443e-20)
(1.2711 -0.131641 1.63462e-19)
(1.28872 -0.120066 8.56097e-20)
(-0.0239207 -0.0212438 -2.59206e-19)
(-0.0365466 -0.0383842 1.01247e-19)
(-0.0182161 -0.0432125 -6.87655e-20)