/*--------------------------------*- C++ -*----------------------------------*\
  =========                 |
  \\      /  F ield         | OpenFOAM: The Open Source CFD Toolbox
   \\    /   O peration     | Website:  https://openfoam.org
    \\  /    A nd           | Version:  7
     \\/     M anipulation  |
\*---------------------------------------------------------------------------*/
FoamFile
{
    version     2.0;
    format      ascii;
    class       volScalarField;
    location    "45";
    object      p;
}
// * * * * * * * * * * * * * * * * * * * * * * * * * * * * * * * * * * * * * //

dimensions      [0 2 -2 0 0 0 0];

internalField   nonuniform List<scalar> 
1360
(
-0.315433
-0.317761
-0.318026
-0.316992
-0.314916
-0.311923
-0.308134
-0.303654
-0.298571
-0.292965
-0.28691
-0.280482
-0.273758
-0.266823
-0.259769
-0.252692
-0.245666
-0.23878
-0.232379
-0.316034
-0.320027
-0.321761
-0.321585
-0.320184
-0.317796
-0.31454
-0.310528
-0.305853
-0.300597
-0.294828
-0.288613
-0.282016
-0.275105
-0.267953
-0.260653
-0.253297
-0.245905
-0.238492
-0.232019
-0.326431
-0.328933
-0.329515
-0.328473
-0.326345
-0.323337
-0.319554
-0.315092
-0.310029
-0.304426
-0.298336
-0.291808
-0.284888
-0.277623
-0.270069
-0.26231
-0.254439
-0.246379
-0.237981
-0.231292
-0.341256
-0.341656
-0.34059
-0.338286
-0.335088
-0.331159
-0.32659
-0.321455
-0.315808
-0.309687
-0.303124
-0.296144
-0.288769
-0.281019
-0.272924
-0.264557
-0.256008
-0.247088
-0.237381
-0.230224
-0.359783
-0.357595
-0.354461
-0.350545
-0.345964
-0.340833
-0.33523
-0.329204
-0.322783
-0.31598
-0.308801
-0.301244
-0.293305
-0.284976
-0.276259
-0.267204
-0.257899
-0.248059
-0.236905
-0.228917
-0.381295
-0.37615
-0.370614
-0.364794
-0.35856
-0.351979
-0.34512
-0.338006
-0.330635
-0.322994
-0.315061
-0.306809
-0.298209
-0.289227
-0.279836
-0.270062
-0.259986
-0.249257
-0.236683
-0.227418
-0.405163
-0.396789
-0.388603
-0.380658
-0.372561
-0.364335
-0.356038
-0.347666
-0.339188
-0.330561
-0.321737
-0.312665
-0.303291
-0.293558
-0.283415
-0.272855
-0.261922
-0.25019
-0.236105
-0.225097
-0.430855
-0.419063
-0.408054
-0.397838
-0.387744
-0.377741
-0.367873
-0.35811
-0.348387
-0.338636
-0.328786
-0.31877
-0.308525
-0.297993
-0.287122
-0.275888
-0.264257
-0.251714
-0.236884
-0.225357
-0.45783
-0.442483
-0.428577
-0.416039
-0.40389
-0.392036
-0.380502
-0.369226
-0.35811
-0.347062
-0.336003
-0.324867
-0.313616
-0.302243
-0.290787
-0.279341
-0.268029
-0.257092
-0.247766
-0.242364
-0.485398
-0.466457
-0.449667
-0.434836
-0.420639
-0.406897
-0.393603
-0.380656
-0.367923
-0.355291
-0.342668
-0.329988
-0.317219
-0.304367
-0.291476
-0.278619
-0.265892
-0.253568
-0.242566
-0.232132
-0.512552
-0.490099
-0.470551
-0.453539
-0.437346
-0.421687
-0.406514
-0.391687
-0.377048
-0.362475
-0.347886
-0.333235
-0.318518
-0.303769
-0.289051
-0.274448
-0.260047
-0.246041
-0.232842
-0.219319
-0.537844
-0.512131
-0.490076
-0.471061
-0.452942
-0.435311
-0.418081
-0.401089
-0.384176
-0.367243
-0.350249
-0.333202
-0.31615
-0.299174
-0.282377
-0.26586
-0.249721
-0.23411
-0.219231
-0.204104
-0.559333
-0.530826
-0.506646
-0.485852
-0.465871
-0.446172
-0.426654
-0.407165
-0.387593
-0.367913
-0.348168
-0.328453
-0.308899
-0.28965
-0.270852
-0.252634
-0.235104
-0.218392
-0.202603
-0.186963
-0.574628
-0.544024
-0.518226
-0.495913
-0.474118
-0.45223
-0.430175
-0.407881
-0.385344
-0.362667
-0.340019
-0.317609
-0.29565
-0.274346
-0.253868
-0.234347
-0.215875
-0.19854
-0.18236
-0.166737
-0.581019
-0.549234
-0.522435
-0.498887
-0.475334
-0.451154
-0.426382
-0.4011
-0.375486
-0.349815
-0.324405
-0.299575
-0.275607
-0.252728
-0.231102
-0.210828
-0.191954
-0.174497
-0.158384
-0.143225
-0.575683
-0.543815
-0.516713
-0.492249
-0.467041
-0.440566
-0.413062
-0.38485
-0.356341
-0.328004
-0.3003
-0.27363
-0.2483
-0.224523
-0.202414
-0.182013
-0.163301
-0.1462
-0.130566
-0.116305
-0.555942
-0.525208
-0.498565
-0.473559
-0.446908
-0.418323
-0.388337
-0.357573
-0.326699
-0.296369
-0.267148
-0.239467
-0.213613
-0.189737
-0.167881
-0.14801
-0.130027
-0.113756
-0.099011
-0.0860999
-0.519555
-0.491218
-0.465833
-0.440748
-0.413041
-0.382791
-0.350898
-0.318316
-0.285953
-0.254603
-0.224878
-0.197186
-0.171745
-0.14862
-0.127761
-0.109056
-0.0923342
-0.0773218
-0.0638068
-0.052557
-0.464994
-0.440291
-0.416986
-0.392401
-0.364243
-0.333072
-0.300183
-0.266841
-0.234147
-0.202968
-0.173899
-0.147274
-0.123215
-0.101683
-0.0825429
-0.0656118
-0.0506533
-0.0373001
-0.0253082
-0.0160241
-0.391681
-0.371756
-0.351356
-0.327984
-0.300212
-0.269144
-0.236454
-0.203657
-0.17197
-0.14226
-0.115049
-0.0905672
-0.0688236
-0.0496839
-0.032939
-0.0183563
-0.00564069
0.00568162
0.0157612
0.0225341
-0.300156
-0.285997
-0.269316
-0.247989
-0.221633
-0.191912
-0.160803
-0.129983
-0.100688
-0.0737443
-0.0495459
-0.028203
-0.0096208
0.00641651
0.0201707
0.0319048
0.04196
-0.192127
-0.184551
-0.172357
-0.153995
-0.130164
-0.10315
-0.0750693
-0.0476534
-0.022102
0.000894865
0.0210597
0.0384009
0.0531036
0.0654423
-0.0703169
-0.0701567
-0.0630527
-0.0485075
-0.0284687
-0.00547215
0.0182315
0.0409488
0.0616015
0.0796469
0.0949381
0.0609176
0.0537327
0.0550924
0.0649327
0.0801513
0.0979474
0.11611
0.133077
0.14793
0.197181
0.182445
0.177735
0.182215
0.191763
0.203449
0.215222
0.333085
0.310959
0.300065
0.298773
0.302098
0.463029
0.433967
0.417031
0.409868
0.581486
0.546193
0.523644
0.510859
0.683297
0.642707
0.615255
0.76395
0.719199
0.819832
0.772213
-0.227014
-0.220891
-0.214527
-0.20825
-0.202078
-0.195982
-0.189964
-0.184035
-0.178203
-0.172474
-0.166854
-0.161349
-0.155962
-0.150697
-0.145559
-0.140549
-0.135671
-0.130926
-0.126315
-0.228949
-0.222934
-0.216125
-0.209612
-0.203345
-0.197182
-0.1911
-0.185115
-0.179236
-0.173467
-0.16781
-0.16227
-0.156851
-0.151557
-0.146389
-0.141353
-0.136448
-0.131678
-0.127042
-0.232619
-0.226906
-0.219224
-0.212231
-0.205773
-0.199472
-0.193259
-0.187162
-0.181191
-0.175342
-0.169614
-0.16401
-0.158532
-0.153182
-0.147963
-0.142878
-0.137927
-0.133111
-0.128433
-0.237586
-0.232481
-0.223567
-0.215863
-0.209132
-0.202633
-0.196224
-0.189959
-0.183853
-0.177892
-0.172068
-0.166379
-0.160825
-0.155407
-0.150125
-0.14498
-0.139973
-0.135105
-0.130374
-0.125783
-0.243129
-0.238936
-0.228601
-0.220068
-0.21304
-0.206308
-0.199655
-0.193184
-0.18692
-0.180834
-0.174906
-0.16913
-0.163502
-0.158019
-0.152679
-0.147481
-0.142424
-0.137508
-0.132731
-0.128094
-0.248047
-0.244912
-0.233303
-0.224099
-0.216866
-0.209907
-0.203002
-0.196333
-0.189926
-0.183732
-0.177721
-0.171883
-0.166209
-0.160691
-0.155322
-0.1501
-0.14502
-0.140082
-0.135282
-0.13062
-0.126094
-0.250353
-0.248083
-0.2361
-0.227067
-0.220026
-0.213049
-0.206085
-0.199385
-0.19295
-0.186725
-0.180687
-0.174829
-0.169139
-0.163609
-0.158231
-0.153
-0.147911
-0.142961
-0.138148
-0.13347
-0.128924
-0.12451
-0.249129
-0.24522
-0.234549
-0.226719
-0.22003
-0.213253
-0.206593
-0.200204
-0.194039
-0.188055
-0.182242
-0.17659
-0.17109
-0.165732
-0.160509
-0.155417
-0.150451
-0.145609
-0.140889
-0.136289
-0.131808
-0.127445
-0.123199
-0.219132
-0.21907
-0.218602
-0.215843
-0.211548
-0.206624
-0.20146
-0.196163
-0.190799
-0.185431
-0.180103
-0.174842
-0.169663
-0.164573
-0.15958
-0.154687
-0.149896
-0.145209
-0.140628
-0.136153
-0.131785
-0.127524
-0.123371
-0.119326
-0.206896
-0.206003
-0.203678
-0.200146
-0.196135
-0.191966
-0.187681
-0.183293
-0.178839
-0.174359
-0.169881
-0.165422
-0.160993
-0.156605
-0.152267
-0.147985
-0.143764
-0.139609
-0.135525
-0.131513
-0.127578
-0.123722
-0.119947
-0.116255
-0.188166
-0.188792
-0.186394
-0.183346
-0.180408
-0.177432
-0.174267
-0.170919
-0.167443
-0.163865
-0.160227
-0.156546
-0.152838
-0.149117
-0.145398
-0.14169
-0.138004
-0.134347
-0.130727
-0.127149
-0.123619
-0.120141
-0.116719
-0.113356
-0.168735
-0.171076
-0.169406
-0.16711
-0.1651
-0.163084
-0.160837
-0.158363
-0.155723
-0.15297
-0.150109
-0.147158
-0.14414
-0.141073
-0.137969
-0.134841
-0.131701
-0.128557
-0.125419
-0.122294
-0.119189
-0.11611
-0.113062
-0.11005
-0.150346
-0.153662
-0.152889
-0.15145
-0.150287
-0.149109
-0.147681
-0.146003
-0.144137
-0.14212
-0.139969
-0.137704
-0.135339
-0.132889
-0.130373
-0.127803
-0.125191
-0.122547
-0.119882
-0.117203
-0.114519
-0.111837
-0.109163
-0.106503
-0.133369
-0.137234
-0.137354
-0.136779
-0.136389
-0.135943
-0.135233
-0.134258
-0.133072
-0.131712
-0.130197
-0.128541
-0.126762
-0.124878
-0.1229
-0.120845
-0.118723
-0.116546
-0.114325
-0.112068
-0.109785
-0.107483
-0.105168
-0.102849
-0.118283
-0.122394
-0.123247
-0.123418
-0.123678
-0.123838
-0.123728
-0.123346
-0.122742
-0.121949
-0.120984
-0.119863
-0.118602
-0.117216
-0.11572
-0.114128
-0.112451
-0.110701
-0.108887
-0.107021
-0.10511
-0.103162
-0.101185
-0.0991861
-0.105196
-0.109314
-0.110709
-0.111473
-0.112251
-0.112897
-0.113274
-0.113382
-0.113265
-0.112949
-0.112454
-0.111792
-0.110979
-0.11003
-0.108958
-0.107776
-0.106495
-0.105127
-0.103681
-0.102168
-0.100595
-0.098972
-0.0973054
-0.0956023
-0.0939366
-0.097934
-0.0997135
-0.100933
-0.102111
-0.103136
-0.103901
-0.104407
-0.104689
-0.104771
-0.10467
-0.104397
-0.103967
-0.103394
-0.102689
-0.101864
-0.100931
-0.0999003
-0.0987813
-0.0975832
-0.0963146
-0.0949836
-0.0935977
-0.0921638
-0.0842881
-0.0881154
-0.0901625
-0.0917219
-0.0932022
-0.0945184
-0.0955871
-0.0964104
-0.0970163
-0.0974253
-0.0976505
-0.0977038
-0.0975975
-0.0973434
-0.0969531
-0.0964373
-0.0958064
-0.0950701
-0.0942376
-0.0933175
-0.0923182
-0.0912474
-0.0901124
-0.08892
-0.0760519
-0.0796966
-0.0819265
-0.0837359
-0.0854413
-0.0869784
-0.0882829
-0.089357
-0.0902227
-0.0908967
-0.0913904
-0.091714
-0.0918782
-0.0918936
-0.0917704
-0.0915184
-0.091147
-0.0906652
-0.0900815
-0.0894041
-0.0886407
-0.0877988
-0.0868855
-0.0859073
-0.0690515
-0.0725188
-0.0748723
-0.0768646
-0.0787366
-0.0804398
-0.0819259
-0.0831965
-0.084269
-0.0851566
-0.0858689
-0.0864147
-0.0868031
-0.0870436
-0.0871451
-0.0871163
-0.0869657
-0.0867016
-0.0863317
-0.0858637
-0.085305
-0.0846624
-0.0839427
-0.0831522
-0.0631376
-0.0664422
-0.068879
-0.0710048
-0.0729992
-0.0748269
-0.0764518
-0.0778755
-0.0791112
-0.0801696
-0.0810584
-0.0817853
-0.082358
-0.0827846
-0.0830732
-0.0832313
-0.0832666
-0.0831866
-0.0829985
-0.0827093
-0.0823258
-0.0818546
-0.081302
-0.0806741
-0.058189
-0.0613496
-0.0638419
-0.066065
-0.0681491
-0.0700692
-0.0717996
-0.0733416
-0.0747053
-0.0758989
-0.076929
-0.0778019
-0.0785244
-0.0791033
-0.0795457
-0.0798585
-0.0800484
-0.0801222
-0.0800865
-0.0799478
-0.0797124
-0.0793865
-0.078976
-0.0784868
-0.0541075
-0.0571444
-0.0596734
-0.061967
-0.0641162
-0.0661045
-0.0679144
-0.069547
-0.0710099
-0.0723094
-0.0734511
-0.0744402
-0.0752827
-0.0759844
-0.0765516
-0.0769903
-0.0773066
-0.0775067
-0.0775967
-0.0775825
-0.07747
-0.077265
-0.0769731
-0.0765999
-0.0508142
-0.0537485
-0.0563012
-0.0586456
-0.0608416
-0.0628796
-0.0647485
-0.0664495
-0.0679881
-0.0693692
-0.0705974
-0.0716773
-0.072614
-0.0734127
-0.0740788
-0.0746177
-0.0750352
-0.0753366
-0.0755278
-0.0756141
-0.0756011
-0.0754943
-0.0752989
-0.0750204
-0.0482474
-0.0510998
-0.0536675
-0.0560478
-0.0582769
-0.0603505
-0.0622624
-0.0640138
-0.0656085
-0.0670507
-0.0683441
-0.0694928
-0.0705012
-0.0713739
-0.0721159
-0.0727321
-0.0732276
-0.0736076
-0.0738773
-0.0740419
-0.0741066
-0.0740766
-0.073957
-0.0737527
-0.0463607
-0.0491521
-0.0517288
-0.0541333
-0.0563849
-0.0584828
-0.0604246
-0.0622114
-0.063846
-0.0653316
-0.0666716
-0.0678697
-0.0689297
-0.0698561
-0.0706531
-0.0713255
-0.071878
-0.0723154
-0.0726427
-0.0728647
-0.0729866
-0.0730131
-0.0729493
-0.0728
-0.0451125
-0.0478665
-0.0504504
-0.0528711
-0.0551371
-0.0572506
-0.0592115
-0.0610209
-0.0626811
-0.0641946
-0.0655647
-0.0667947
-0.0678883
-0.0688494
-0.0696823
-0.0703913
-0.070981
-0.071456
-0.071821
-0.0720808
-0.0722401
-0.0723039
-0.0722769
-0.0721639
-0.0444777
-0.0472156
-0.0498081
-0.05224
-0.0545148
-0.0566368
-0.0586077
-0.0604286
-0.0621015
-0.0636289
-0.0650139
-0.0662596
-0.0673697
-0.068348
-0.0691986
-0.0699257
-0.0705338
-0.0710273
-0.0714109
-0.0716894
-0.0718674
-0.0719496
-0.0719409
-0.0718458
-0.226574
-0.208524
-0.18401
-0.160322
-0.140405
-0.123334
-0.108702
-0.0963507
-0.0859165
-0.0770481
-0.0695008
-0.0630938
-0.0576831
-0.0531549
-0.0494183
-0.046401
-0.0440462
-0.0423092
-0.0411486
-0.040555
-0.20215
-0.184685
-0.165062
-0.144358
-0.126858
-0.112066
-0.099085
-0.0878046
-0.0781217
-0.06982
-0.0627131
-0.0566585
-0.0515351
-0.0472401
-0.0436891
-0.0408142
-0.0385622
-0.0368898
-0.0357561
-0.0351665
-0.191268
-0.171312
-0.152856
-0.133293
-0.115986
-0.101558
-0.089201
-0.0785438
-0.069438
-0.0616767
-0.0550563
-0.0494228
-0.044656
-0.0406576
-0.0373481
-0.0346638
-0.0325553
-0.0309812
-0.0299043
-0.0293423
-0.17822
-0.155731
-0.13678
-0.118833
-0.102963
-0.0896437
-0.0783398
-0.0686032
-0.0602364
-0.053077
-0.0469601
-0.0417489
-0.0373352
-0.0336301
-0.0305609
-0.0280691
-0.0261085
-0.0246406
-0.0236322
-0.0231079
-0.16321
-0.140305
-0.121232
-0.104472
-0.0898892
-0.0775165
-0.0670354
-0.0580756
-0.0504011
-0.043842
-0.0382467
-0.0334856
-0.0294553
-0.0260726
-0.0232704
-0.0209949
-0.0192039
-0.0178621
-0.0169417
-0.0164682
-0.144813
-0.122686
-0.104266
-0.0887268
-0.075538
-0.0643623
-0.05489
-0.0468199
-0.0399207
-0.0340232
-0.0289908
-0.0247094
-0.021086
-0.0180456
-0.0155281
-0.0134853
-0.0118792
-0.0106784
-0.00986106
-0.00944856
-0.123302
-0.102965
-0.0861423
-0.072149
-0.0604154
-0.0505
-0.0420928
-0.0349456
-0.0288513
-0.0236478
-0.0192106
-0.0154382
-0.0122482
-0.00957379
-0.00736194
-0.00557038
-0.00416565
-0.00312092
-0.00242036
-0.00207682
-0.0988528
-0.0810131
-0.0664688
-0.0544062
-0.0443097
-0.0357787
-0.0285458
-0.0224151
-0.0172006
-0.0127499
-0.00895321
-0.00572538
-0.0029969
-0.000711662
0.00117516
0.00269912
0.00388848
0.0047649
0.00533862
0.0056087
-0.0716917
-0.0569606
-0.0452424
-0.0354742
-0.0272473
-0.0202919
-0.0143776
-0.00934449
-0.00506882
-0.00141643
0.00170291
0.00435621
0.00659831
0.00847388
0.0100187
0.0112611
0.0122238
0.0129231
0.0133639
0.0135566
-0.0416475
-0.0308291
-0.0225185
-0.0153305
-0.00917984
-0.00412451
0.000230668
0.00412105
0.00742244
0.010246
0.0126603
0.0147147
0.0164502
0.0178996
0.0190893
0.0200402
0.0207691
0.0212873
0.0215931
0.0217025
-0.0092841
-0.00308815
0.0014355
0.00572149
0.00950688
0.0127458
0.0155866
0.018121
0.02033
0.0222437
0.0238942
0.0253075
0.0265053
0.0275058
0.0283241
0.0289723
0.0294606
0.0297939
0.0299648
0.0300032
0.0247615
0.026256
0.0266121
0.0276459
0.0288533
0.0300607
0.031249
0.0323925
0.0334541
0.0344149
0.0352689
0.0360151
0.0366554
0.0371925
0.0376293
0.037969
0.0382144
0.0383643
0.0384073
0.0383839
)
;

boundaryField
{
    inlet
    {
        type            zeroGradient;
    }
    outlet
    {
        type            fixedValue;
        value           nonuniform 0();
    }
    cylinder
    {
        type            zeroGradient;
    }
    top
    {
        type            symmetryPlane;
    }
    bottom
    {
        type            symmetryPlane;
    }
    defaultFaces
    {
        type            empty;
    }
    procBoundary5to1
    {
        type            processor;
        value           nonuniform List<scalar> 
42
(
-0.310665
-0.310665
-0.315433
-0.317761
-0.318026
-0.316992
-0.314916
-0.311923
-0.308134
-0.303654
-0.298571
-0.292965
-0.28691
-0.280482
-0.273758
-0.266823
-0.259769
-0.252692
-0.245666
-0.23878
-0.232379
0.84842
0.79934
-0.227014
-0.220891
-0.214527
-0.20825
-0.202078
-0.195982
-0.189964
-0.184035
-0.178203
-0.172474
-0.166854
-0.161349
-0.155962
-0.150697
-0.145559
-0.140549
-0.135671
-0.130926
-0.126315
)
;
    }
    procBoundary5to4
    {
        type            processor;
        value           nonuniform List<scalar> 
49
(
0.0508982
0.0587815
0.0628063
0.075709
0.0841818
0.0508982
0.0912352
0.107583
0.117828
0.075709
0.12598
0.160284
0.107583
0.170108
0.225713
0.160284
0.234197
0.307117
0.225713
0.312017
0.307117
0.406798
0.406798
0.501629
0.597449
0.597449
0.687811
0.687811
0.738074
0.0601316
0.0565627
0.0525422
0.0501858
0.0487151
0.0477792
0.0472183
0.046908
0.0467598
0.0467125
0.0467252
0.0467699
0.046827
0.0468829
0.0469272
0.0469529
0.046955
0.0469256
0.0468515
0.0467784
)
;
    }
    procBoundary5to6
    {
        type            processor;
        value           nonuniform List<scalar> 
33
(
-0.121838
-0.122542
-0.123891
-0.123891
-0.121329
-0.123595
-0.123595
-0.121703
-0.121703
-0.120226
-0.120226
-0.11907
-0.11907
-0.115389
-0.112646
-0.110055
-0.107077
-0.103862
-0.100529
-0.0971709
-0.0938694
-0.0906885
-0.0876767
-0.0848705
-0.0822971
-0.0799768
-0.0779243
-0.0761507
-0.0746637
-0.0734689
-0.07257
-0.0719695
-0.0716691
)
;
    }
}


// ************************************************************************* //
