/*--------------------------------*- C++ -*----------------------------------*\
  =========                 |
  \\      /  F ield         | OpenFOAM: The Open Source CFD Toolbox
   \\    /   O peration     | Website:  https://openfoam.org
    \\  /    A nd           | Version:  7
     \\/     M anipulation  |
\*---------------------------------------------------------------------------*/
FoamFile
{
    version     2.0;
    format      ascii;
    class       volVectorField;
    location    "45";
    object      U;
}
// * * * * * * * * * * * * * * * * * * * * * * * * * * * * * * * * * * * * * //

dimensions      [0 1 -1 0 0 0 0];

internalField   nonuniform List<vector> 
1360
(
(-0.00433239 0.00353701 2.33381e-21)
(-0.00954496 0.00443853 -6.53065e-20)
(-0.015298 0.00465666 -3.70267e-20)
(-0.0207188 0.00439579 2.32733e-20)
(-0.0253717 0.003795 -3.98426e-21)
(-0.0289877 0.00295459 2.58968e-20)
(-0.0313923 0.00194719 -5.03261e-21)
(-0.032484 0.000825198 -4.2968e-20)
(-0.0322134 -0.000373072 1.14152e-19)
(-0.0305662 -0.00161818 1.48762e-20)
(-0.0275538 -0.00288518 -2.52362e-20)
(-0.0232088 -0.00414933 -5.09685e-20)
(-0.0175857 -0.00538204 5.28397e-21)
(-0.0107666 -0.00654635 4.92275e-20)
(-0.00287223 -0.00759293 -4.30067e-20)
(0.00592672 -0.00845792 6.45733e-20)
(0.0154139 -0.00906081 -4.99396e-20)
(0.0253102 -0.00928849 -5.31824e-20)
(0.0350456 -0.00898566 6.414e-20)
(-0.00157565 0.0046891 -1.15192e-19)
(-0.00513677 0.0100401 1.41539e-19)
(-0.00988578 0.0125523 2.37522e-20)
(-0.0146501 0.0131041 8.99176e-20)
(-0.0187028 0.0122815 9.75523e-20)
(-0.021692 0.0104859 -2.00478e-19)
(-0.0234085 0.00800727 -5.63205e-20)
(-0.0237225 0.00505575 4.76894e-20)
(-0.0225657 0.00178284 -2.09033e-19)
(-0.0199131 -0.00170086 8.75535e-21)
(-0.0157694 -0.00531084 2.15211e-19)
(-0.0101605 -0.00897599 -2.81557e-20)
(-0.00313024 -0.0126268 -4.19477e-20)
(0.00525812 -0.0161829 -1.13818e-21)
(0.0149159 -0.0195401 4.64893e-20)
(0.0257132 -0.0225568 1.21645e-19)
(0.037464 -0.0250452 4.20376e-20)
(0.0499669 -0.0267547 -2.43179e-21)
(0.0630453 -0.027312 -2.23298e-19)
(0.0758745 -0.0262424 -1.49255e-19)
(-0.00244749 0.00704009 -6.1478e-20)
(-0.00638659 0.0149177 6.88234e-20)
(-0.0100967 0.0184887 -8.31258e-20)
(-0.0128286 0.0190787 -1.76441e-19)
(-0.0141263 0.0175794 1.68279e-19)
(-0.0137953 0.0146098 1.87484e-19)
(-0.0117394 0.0106185 6.32925e-20)
(-0.00791427 0.00593091 -9.35118e-20)
(-0.0023157 0.000781434 -9.69925e-21)
(0.00503264 -0.00465908 1.28968e-19)
(0.0140885 -0.0102612 -1.14836e-19)
(0.0247954 -0.0159183 9.09742e-20)
(0.037084 -0.0215283 -3.69186e-20)
(0.0508704 -0.0269749 3.28846e-19)
(0.0660483 -0.0321053 -4.82282e-19)
(0.0824658 -0.0367074 -1.23193e-19)
(0.0999007 -0.0404858 4.42957e-19)
(0.118162 -0.0430034 -3.98923e-19)
(0.137263 -0.0435319 -3.20493e-21)
(0.155971 -0.0412236 -7.44168e-20)
(-0.00339501 0.00835768 3.66642e-20)
(-0.00741457 0.0173586 3.49508e-19)
(-0.00928982 0.021151 -3.98599e-19)
(-0.00882838 0.0213311 9.874e-20)
(-0.00593569 0.0189853 -1.23676e-20)
(-0.000630626 0.0148837 3.85388e-20)
(0.00702808 0.00958701 2.36021e-19)
(0.0169647 0.00350182 -2.70591e-19)
(0.0290919 -0.00307861 -7.57931e-21)
(0.0433144 -0.00994095 -4.62328e-19)
(0.0595313 -0.0169255 -5.05907e-20)
(0.0776362 -0.0239043 6.13026e-20)
(0.0975152 -0.0307592 2.45643e-19)
(0.119044 -0.0373596 -1.37013e-19)
(0.142081 -0.0435335 4.22559e-19)
(0.166431 -0.0490355 -6.06384e-19)
(0.191808 -0.0535046 7.28082e-19)
(0.217995 -0.0563264 -5.03204e-19)
(0.245248 -0.056295 3.14369e-19)
(0.271944 -0.0520367 1.61077e-19)
(-0.0040502 0.0084546 1.20287e-19)
(-0.00733142 0.0169026 4.62415e-20)
(-0.00625569 0.0199139 2.48799e-19)
(-0.00125452 0.0191579 -1.44253e-19)
(0.00735445 0.0157866 -6.63761e-20)
(0.0193035 0.0106424 5.55583e-19)
(0.0343483 0.00434153 -8.75744e-19)
(0.0522662 -0.00266983 7.04394e-19)
(0.0728527 -0.0100697 3.22613e-19)
(0.0959163 -0.0176246 -6.8581e-19)
(0.121273 -0.0251616 1.76611e-19)
(0.14874 -0.0325464 7.11191e-20)
(0.178131 -0.0396617 7.78403e-19)
(0.209254 -0.0463848 -8.46801e-19)
(0.241898 -0.0525573 -2.50244e-19)
(0.2758 -0.0579506 6.49962e-19)
(0.310579 -0.0622106 -5.39495e-19)
(0.345925 -0.0646204 3.6774e-19)
(0.382324 -0.0634276 3.18293e-19)
(0.417986 -0.0564684 -1.08783e-18)
(-0.0040061 0.00730703 -3.80035e-19)
(-0.00512518 0.0134847 1.207e-19)
(0.000415106 0.0147073 -1.693e-19)
(0.0115493 0.0125229 4.90424e-22)
(0.0275316 0.00801841 4.6093e-19)
(0.0478277 0.00202512 -8.97528e-19)
(0.0719871 -0.00484644 8.03594e-19)
(0.099616 -0.0121577 -7.22496e-19)
(0.130366 -0.0195931 7.39696e-19)
(0.163921 -0.0269251 -6.48243e-19)
(0.19998 -0.0339879 3.57596e-19)
(0.238249 -0.0406574 -8.68789e-19)
(0.278431 -0.0468333 1.08671e-18)
(0.320222 -0.0524199 8.88256e-20)
(0.363304 -0.0573013 -2.76009e-19)
(0.407307 -0.0613136 -5.34957e-19)
(0.451729 -0.064199 -2.91357e-20)
(0.496111 -0.0652872 5.94407e-19)
(0.541087 -0.0623647 2.92354e-19)
(0.585093 -0.0522297 -6.33548e-19)
(-0.00285385 0.00503916 -1.24121e-19)
(0.000244462 0.00742493 -5.50065e-20)
(0.0121978 0.00602967 -8.46269e-20)
(0.0313341 0.00210305 4.48624e-20)
(0.0564889 -0.00345869 -6.13104e-19)
(0.0868538 -0.00991794 1.17413e-18)
(0.121755 -0.016734 -1.40295e-20)
(0.160604 -0.0235265 -4.26399e-20)
(0.202876 -0.0300272 -4.20878e-19)
(0.24809 -0.0360465 -8.03612e-20)
(0.295786 -0.0414525 -1.25885e-19)
(0.345513 -0.0461535 -7.08588e-19)
(0.396816 -0.0500842 6.70621e-19)
(0.449229 -0.0531917 -5.82662e-19)
(0.502277 -0.0554185 3.48966e-19)
(0.555443 -0.0566914 -3.03514e-19)
(0.608086 -0.0569036 5.57558e-19)
(0.659593 -0.0555709 -4.12038e-19)
(0.71064 -0.0502924 1.48003e-19)
(0.760409 -0.0371007 7.52283e-19)
(-0.000204977 0.00189469 1.46669e-19)
(0.00976692 -0.000619727 -1.43724e-20)
(0.0304906 -0.00509476 -2.42801e-19)
(0.0597399 -0.0107428 3.28761e-20)
(0.0959527 -0.016979 5.2103e-19)
(0.138043 -0.0232409 -1.00454e-18)
(0.185095 -0.0291232 5.84401e-19)
(0.236294 -0.0343608 -3.14953e-20)
(0.290899 -0.038781 4.26527e-19)
(0.348221 -0.0422766 -4.74689e-19)
(0.407595 -0.0447882 3.87125e-19)
(0.468367 -0.046291 -1.01678e-18)
(0.529887 -0.0467836 -5.63494e-19)
(0.591504 -0.0462761 1.16785e-18)
(0.652568 -0.0447788 -4.67602e-19)
(0.712414 -0.0423011 -3.00718e-19)
(0.770303 -0.038842 4.07627e-19)
(0.825529 -0.0340731 8.81713e-19)
(0.878488 -0.0260204 -5.28947e-19)
(0.929198 -0.0122674 -1.4278e-19)
(0.00428942 -0.00178745 2.98834e-19)
(0.0243007 -0.00970454 -2.85554e-19)
(0.0564597 -0.017186 -2.29178e-19)
(0.098051 -0.0240679 -6.52713e-19)
(0.147145 -0.0301924 5.71799e-19)
(0.202372 -0.0352552 7.94257e-19)
(0.26255 -0.039058 -4.00671e-19)
(0.3266 -0.0415164 4.66438e-19)
(0.393524 -0.0426156 -1.63854e-19)
(0.46238 -0.0423891 4.99462e-20)
(0.532263 -0.0409076 8.22319e-19)
(0.602299 -0.0382688 -1.11685e-18)
(0.671649 -0.0345871 -3.98793e-20)
(0.739519 -0.0299822 2.28692e-19)
(0.805178 -0.024569 8.36855e-20)
(0.867975 -0.0184436 -8.46801e-20)
(0.927385 -0.0116241 2.42626e-19)
(0.983082 -0.00390804 -1.33621e-19)
(1.03472 0.00469278 -7.50999e-19)
(1.08126 0.0114662 6.81945e-19)
(0.0109194 -0.00558341 2.34818e-19)
(0.0444826 -0.018646 7.69566e-20)
(0.090858 -0.0284088 -2.31876e-19)
(0.146927 -0.0354909 2.71936e-19)
(0.210427 -0.0402798 -6.18297e-19)
(0.279696 -0.0428168 1.30869e-18)
(0.35326 -0.0431894 -8.9102e-19)
(0.429743 -0.0415683 -4.84231e-19)
(0.507854 -0.0381674 1.2808e-18)
(0.586375 -0.0332286 -1.0089e-18)
(0.664153 -0.0270165 1.23709e-18)
(0.740106 -0.0198112 -1.5123e-18)
(0.813243 -0.0119003 5.08635e-19)
(0.882681 -0.00357091 5.95645e-19)
(0.947667 0.00489599 -5.13023e-19)
(1.0076 0.0132344 -1.04277e-20)
(1.06208 0.0212248 -7.9363e-20)
(1.11089 0.0286545 -5.85797e-19)
(1.15362 0.0346395 4.26928e-19)
(1.18944 0.0373228 -1.18412e-19)
(0.0198803 -0.00899348 -3.1181e-19)
(0.0706218 -0.026075 1.17701e-19)
(0.133848 -0.0366908 -5.25299e-21)
(0.206157 -0.0424006 -4.64374e-19)
(0.285003 -0.0442535 6.23555e-19)
(0.368439 -0.0427278 -8.55959e-19)
(0.454686 -0.0382789 7.83845e-20)
(0.542067 -0.031407 2.50471e-19)
(0.629014 -0.0226197 -3.44782e-19)
(0.714072 -0.0124184 6.35428e-19)
(0.795912 -0.00129516 1.75029e-19)
(0.873357 0.0102763 7.26577e-20)
(0.945407 0.0218514 -7.21152e-19)
(1.01126 0.0330262 7.31023e-19)
(1.07033 0.0434457 -3.90719e-19)
(1.12227 0.0528152 2.88058e-19)
(1.16692 0.0609185 -6.03132e-19)
(1.20433 0.0675647 -3.40952e-19)
(1.23442 0.0722286 4.05169e-19)
(1.25672 0.0746045 1.05206e-19)
(0.0312229 -0.0114506 -3.03892e-19)
(0.102575 -0.0305039 4.19282e-19)
(0.184832 -0.0398792 8.82253e-20)
(0.274472 -0.0422131 -7.67543e-20)
(0.368755 -0.0393212 2.07543e-19)
(0.46548 -0.0322064 5.10619e-19)
(0.562606 -0.0217666 -2.6363e-19)
(0.658216 -0.00889247 -1.98321e-19)
(0.75056 0.00557441 -5.17171e-19)
(0.838081 0.0208563 4.54068e-19)
(0.919458 0.0362456 -2.38924e-19)
(0.993634 0.0511158 1.01398e-20)
(1.05984 0.0649357 1.10419e-18)
(1.11762 0.0772797 -7.70892e-19)
(1.1668 0.0878344 6.79127e-19)
(1.20751 0.0964033 -7.01013e-20)
(1.2401 0.10291 9.52322e-20)
(1.26508 0.107346 -2.21126e-19)
(1.28292 0.109577 -7.6718e-20)
(1.29395 0.110019 -4.0305e-19)
(0.0447983 -0.0123481 1.74842e-19)
(0.13964 -0.030435 1.12236e-19)
(0.242336 -0.0359402 -7.28227e-20)
(0.349476 -0.0326624 -9.71301e-19)
(0.458255 -0.0232549 2.93557e-19)
(0.566321 -0.00930848 -7.10433e-20)
(0.671484 0.00779134 -3.97652e-20)
(0.771744 0.0267457 -5.0999e-20)
(0.865361 0.0463931 8.35697e-20)
(0.950919 0.0657288 -6.15134e-19)
(1.02737 0.0839127 3.27814e-19)
(1.09405 0.100279 -5.00424e-19)
(1.15069 0.114343 6.46963e-20)
(1.19741 0.125802 -2.63574e-19)
(1.23465 0.134524 -9.73485e-20)
(1.26312 0.140537 4.99982e-19)
(1.2837 0.144001 -5.37918e-19)
(1.29738 0.145152 8.23561e-20)
(1.30501 0.144181 2.11291e-19)
(1.30732 0.141843 -2.24119e-19)
(0.060214 -0.0110931 2.7074e-19)
(0.180488 -0.0245154 -4.20489e-20)
(0.304 -0.0231995 -3.46671e-19)
(0.427728 -0.0121033 -4.7655e-20)
(0.54901 0.00527513 6.08728e-19)
(0.665519 0.0267476 -2.53521e-19)
(0.775129 0.0504592 2.39344e-19)
(0.876003 0.0747594 -2.67783e-19)
(0.9667 0.0982627 1.26521e-19)
(1.04624 0.119869 -1.20529e-19)
(1.11413 0.138764 5.34987e-19)
(1.17037 0.154412 -3.29091e-19)
(1.21539 0.166542 -3.66903e-20)
(1.25 0.175122 -4.28588e-20)
(1.27527 0.180315 7.11401e-20)
(1.29246 0.182439 -1.08836e-19)
(1.30284 0.181914 2.44856e-19)
(1.30769 0.179192 7.4143e-21)
(1.30805 0.174689 -3.64774e-19)
(1.3047 0.169236 -1.1076e-19)
(0.0768177 -0.00718088 -2.1072e-19)
(0.223191 -0.0117232 1.66929e-19)
(0.366687 -0.000594221 5.85901e-20)
(0.505004 0.0202159 -7.40865e-20)
(0.635889 0.0464558 -2.00661e-20)
(0.757306 0.0754189 8.5463e-20)
(0.867483 0.104893 -6.72486e-20)
(0.965062 0.133029 2.90566e-19)
(1.04921 0.158403 -2.00515e-19)
(1.11968 0.180028 9.5803e-20)
(1.17677 0.19732 -2.15583e-19)
(1.22128 0.210064 2.08408e-19)
(1.25439 0.218354 8.44999e-20)
(1.27758 0.222528 -2.33034e-19)
(1.29242 0.223093 2.36046e-19)
(1.3005 0.220651 -9.47746e-20)
(1.3033 0.215834 4.14137e-20)
(1.30211 0.209236 3.71271e-20)
(1.29794 0.201392 1.97983e-21)
(1.29143 0.193013 3.71024e-20)
(0.0937203 -0.000279852 -9.70173e-20)
(0.265329 0.00844393 1.61174e-19)
(0.426731 0.0321063 -9.90927e-20)
(0.576686 0.0639608 7.96174e-20)
(0.71367 0.0992226 -1.02199e-19)
(0.836253 0.134859 -1.51223e-20)
(0.94335 0.168521 4.37078e-20)
(1.0344 0.198409 -1.65111e-20)
(1.10945 0.22332 -1.73514e-20)
(1.16917 0.242619 8.63322e-20)
(1.21477 0.256164 -1.29971e-20)
(1.24783 0.264208 -4.69157e-20)
(1.27023 0.267301 9.39064e-20)
(1.28388 0.266174 -7.0611e-20)
(1.29066 0.261645 1.60039e-20)
(1.29228 0.254526 -2.11151e-20)
(1.29016 0.245566 5.9241e-20)
(1.28546 0.235413 -4.65183e-20)
(1.27898 0.224629 -6.71616e-21)
(1.27118 0.213646 -1.10461e-20)
(0.109858 0.00969048 5.63371e-20)
(0.304197 0.0358189 -1.71502e-19)
(0.480278 0.0741591 1.03817e-19)
(0.638237 0.117642 -1.59815e-20)
(0.777596 0.161308 2.9827e-20)
(0.897856 0.202108 -5.03595e-20)
(0.998913 0.237872 -3.26144e-20)
(1.08125 0.267166 6.76916e-21)
(1.14595 0.289289 7.85776e-20)
(1.19468 0.304186 -1.11519e-19)
(1.22947 0.312307 1.61177e-20)
(1.25259 0.314455 2.34992e-20)
(1.26636 0.311634 -3.35284e-20)
(1.27293 0.304919 8.8867e-20)
(1.27425 0.295344 -3.0823e-20)
(1.27192 0.283828 2.32502e-20)
(1.26719 0.271134 -4.96175e-20)
(1.26096 0.257889 1.28725e-20)
(1.25381 0.244615 2.04902e-20)
(1.24602 0.231359 1.16416e-20)
(0.12409 0.0225047 1.1143e-19)
(0.337062 0.0694861 9.82515e-20)
(0.523674 0.123819 -3.39828e-20)
(0.685666 0.178687 -1.18806e-19)
(0.823856 0.229433 -6.31136e-20)
(0.938931 0.273397 1.49371e-19)
(1.03197 0.308965 6.09457e-20)
(1.10462 0.335391 -1.21738e-19)
(1.15901 0.352727 4.85704e-20)
(1.19769 0.361661 -4.20956e-22)
(1.22337 0.363306 1.60976e-19)
(1.23876 0.359 -6.29245e-20)
(1.24637 0.350134 -1.42852e-19)
(1.24839 0.338017 1.64626e-19)
(1.24664 0.323789 -6.67448e-20)
(1.2425 0.308369 9.57779e-20)
(1.23697 0.292451 -3.20377e-20)
(1.2307 0.276591 8.09302e-21)
(1.22401 0.261234 -1.58634e-20)
(1.21709 0.246027 -1.13868e-20)
(0.135315 0.0376115 -1.12967e-19)
(0.361459 0.107792 -2.31045e-19)
(0.553853 0.178433 3.6572e-19)
(0.715921 0.243636 2.02487e-19)
(0.849909 0.299604 -5.86675e-19)
(0.957813 0.344514 3.4475e-19)
(1.04195 0.377676 7.95961e-20)
(1.10507 0.399314 1.33593e-19)
(1.15023 0.41041 -1.07879e-21)
(1.18066 0.412459 -1.02525e-20)
(1.19949 0.407218 -2.63714e-19)
(1.20961 0.396477 1.76328e-19)
(1.21354 0.381897 6.05881e-20)
(1.21332 0.364901 -3.11823e-20)
(1.21052 0.346624 -7.7485e-20)
(1.20626 0.327905 9.38383e-21)
(1.20129 0.309324 -2.01761e-20)
(1.19602 0.291341 -1.44107e-21)
(1.19055 0.274319 5.50407e-20)
(1.18508 0.257506 -8.70972e-22)
(0.142592 0.0541548 -2.57697e-19)
(0.375445 0.14845 -1.12837e-19)
(0.56864 0.23464 -1.14875e-19)
(0.727166 0.308439 2.97167e-19)
(0.854651 0.367464 2.59926e-20)
(0.954349 0.411151 -1.06259e-19)
(1.02971 0.440043 -1.83112e-19)
(1.08439 0.455522 -1.57235e-20)
(1.12213 0.459569 9.68848e-22)
(1.14656 0.454461 2.10944e-19)
(1.16099 0.442502 -2.06503e-19)
(1.16827 0.425807 4.25875e-20)
(1.17075 0.406176 -9.61994e-20)
(1.17021 0.385035 3.6094e-20)
(1.16796 0.363431 8.42022e-22)
(1.16488 0.342071 -4.80755e-20)
(1.16148 0.321406 1.34138e-20)
(1.15798 0.301823 -1.35986e-20)
(1.15432 0.283586 2.30863e-20)
(1.15084 0.26546 -1.369e-20)
(0.145248 0.0710338 1.08368e-19)
(0.377818 0.188718 1.29294e-19)
(0.566966 0.288658 -1.58707e-19)
(0.718912 0.36879 2.24206e-19)
(0.838413 0.428636 5.56821e-20)
(0.929763 0.469213 -2.71457e-19)
(0.997273 0.492491 6.57204e-20)
(1.04523 0.501079 5.74798e-20)
(1.07775 0.497922 7.53266e-20)
(1.09858 0.485971 -4.7197e-20)
(1.11097 0.467932 7.30303e-20)
(1.11758 0.446105 1.76145e-20)
(1.12047 0.422307 1.19713e-20)
(1.12116 0.397874 2.23355e-21)
(1.12068 0.373719 1.16598e-20)
(1.11971 0.350392 1.02688e-20)
(1.11861 0.328219 -6.05509e-21)
(0.142961 0.0870011 3.16451e-19)
(0.368238 0.225641 -2.25774e-19)
(0.548959 0.336594 1.04893e-20)
(0.692011 0.420477 -1.80267e-19)
(0.802842 0.479038 -1.60975e-19)
(0.88643 0.515065 2.42222e-19)
(0.947587 0.531993 -2.6255e-20)
(0.990874 0.533606 -8.3498e-21)
(1.02046 0.52368 1.52859e-20)
(1.03997 0.505678 -2.959e-20)
(1.05241 0.482555 -2.4059e-21)
(1.06016 0.456654 4.03107e-20)
(1.06495 0.429711 -9.84525e-20)
(1.06802 0.402917 1.60535e-19)
(0.13577 0.100757 -2.46865e-20)
(0.347286 0.256306 -2.28116e-20)
(0.51593 0.374763 1.19175e-19)
(0.648534 0.459703 5.50398e-20)
(0.750702 0.515171 1.79085e-20)
(0.827638 0.545717 1.07677e-20)
(0.884225 0.556166 9.84592e-21)
(0.924941 0.551303 7.53801e-20)
(0.953732 0.535534 -5.52428e-20)
(0.973921 0.512648 -1.60479e-20)
(0.988162 0.485684 3.23835e-19)
(0.124183 0.111023 1.005e-19)
(0.31643 0.278013 -2.78961e-20)
(0.470209 0.399991 1.37384e-20)
(0.591574 0.483325 -1.79782e-19)
(0.685639 0.534273 3.84014e-20)
(0.757312 0.558959 1.47916e-19)
(0.811154 0.563354 -2.70348e-19)
(0.851244 0.552989 2.78151e-19)
(0.88109 0.532667 1.76497e-19)
(0.109013 0.116816 2.51127e-20)
(0.277819 0.288668 -1.4381e-19)
(0.414999 0.409828 6.62912e-20)
(0.525016 0.489077 1.24202e-19)
(0.611884 0.534496 1.30764e-19)
(0.679762 0.55343 -4.4867e-19)
(0.732533 0.552647 6.3332e-19)
(0.0913662 0.117355 1.94253e-19)
(0.234216 0.286813 1.61944e-20)
(0.3541 0.402749 -5.05055e-19)
(0.453229 0.475697 7.83138e-21)
(0.534005 0.514978 -3.1491e-19)
(0.0725727 0.112222 -5.05145e-19)
(0.188727 0.271777 3.94786e-19)
(0.291637 0.378222 2.5637e-19)
(0.380797 0.44297 6.34246e-20)
(0.0540529 0.101389 3.80154e-20)
(0.144577 0.243731 1.03641e-19)
(0.231776 0.336754 1.15627e-19)
(0.312231 0.391735 -3.78161e-19)
(0.0372091 0.0852217 -1.73066e-19)
(0.104874 0.203681 5.77478e-19)
(0.178455 0.279845 -6.37937e-19)
(0.0233168 0.064459 -1.9363e-19)
(0.072397 0.153399 2.11098e-19)
(0.0134273 0.0401622 -2.38579e-19)
(0.0494083 0.095308 2.32778e-19)
(0.0434112 -0.00818243 4.5038e-20)
(0.0506684 -0.00766727 -1.53018e-19)
(0.0575501 -0.00745285 6.28768e-20)
(0.0644064 -0.00737875 5.33102e-20)
(0.0712765 -0.00737353 -9.36136e-21)
(0.0781801 -0.00741538 -4.33088e-20)
(0.0851528 -0.00749053 1.67944e-20)
(0.0922222 -0.00758631 -2.02005e-20)
(0.0994028 -0.00769291 -1.30355e-20)
(0.1067 -0.00780341 3.11308e-20)
(0.114115 -0.00791277 -1.5128e-20)
(0.121644 -0.00801726 6.9768e-21)
(0.12928 -0.00811408 8.19441e-21)
(0.137015 -0.00820121 -4.63669e-20)
(0.144838 -0.00827728 6.48498e-21)
(0.152739 -0.0083414 1.34111e-20)
(0.160705 -0.00839309 2.64961e-21)
(0.168724 -0.00843221 -3.41824e-21)
(0.176783 -0.00845886 1.60242e-20)
(0.08516 -0.0238313 -2.55096e-20)
(0.091557 -0.0224362 6.06383e-20)
(0.0976114 -0.0218948 1.47986e-19)
(0.103954 -0.0217152 -1.00683e-20)
(0.11043 -0.0217179 1.08547e-19)
(0.116965 -0.0218548 -8.04654e-20)
(0.123587 -0.0220884 -2.15346e-20)
(0.130324 -0.0223808 -1.07908e-19)
(0.137183 -0.0227032 8.28861e-20)
(0.144164 -0.0230351 9.44081e-20)
(0.151264 -0.0233618 -9.02795e-20)
(0.158474 -0.0236724 -3.68756e-20)
(0.165787 -0.0239588 3.92894e-20)
(0.173191 -0.0242152 -1.2617e-19)
(0.180675 -0.0244377 1.31017e-19)
(0.188227 -0.0246241 -9.88015e-20)
(0.195834 -0.0247731 9.85316e-20)
(0.203485 -0.0248846 -2.58039e-20)
(0.211168 -0.024959 -1.03978e-19)
(0.166714 -0.0372076 5.52805e-19)
(0.171449 -0.0353722 -2.93994e-19)
(0.175819 -0.0348282 -2.49606e-19)
(0.181064 -0.0346948 5.71998e-19)
(0.186689 -0.0347804 -3.00133e-19)
(0.192438 -0.0350628 4.85818e-20)
(0.198318 -0.0354916 -7.31497e-20)
(0.204354 -0.0360049 7.75778e-21)
(0.210541 -0.0365565 2.29249e-19)
(0.216863 -0.0371151 -1.78836e-19)
(0.223305 -0.0376579 1.82799e-19)
(0.229854 -0.0381682 -6.67185e-20)
(0.236495 -0.0386337 -3.91449e-20)
(0.243214 -0.0390462 1.52259e-19)
(0.249997 -0.0394002 4.88132e-20)
(0.256831 -0.039693 -3.97062e-19)
(0.263703 -0.0399236 1.1534e-19)
(0.270602 -0.0400922 1.18892e-19)
(0.277516 -0.0402005 -2.21032e-20)
(0.283979 -0.0464839 -6.35847e-19)
(0.286369 -0.0449079 6.32392e-19)
(0.288238 -0.0449362 -1.48355e-19)
(0.291754 -0.0451572 -5.34215e-19)
(0.296015 -0.0455037 3.62327e-19)
(0.300508 -0.0460621 -1.49502e-19)
(0.305205 -0.0467827 1.32692e-19)
(0.310126 -0.0475811 -3.72517e-20)
(0.315244 -0.0484 -1.05281e-19)
(0.320516 -0.0492042 2.33969e-19)
(0.325912 -0.0499683 -1.09712e-19)
(0.331407 -0.0506732 1.27403e-19)
(0.33698 -0.0513057 -1.85015e-19)
(0.342614 -0.0518574 -4.04058e-20)
(0.34829 -0.052324 1.90455e-20)
(0.353996 -0.0527037 -8.46471e-20)
(0.359721 -0.0529971 4.12076e-19)
(0.365452 -0.053206 -1.39904e-19)
(0.371183 -0.0533337 -1.64201e-19)
(0.376904 -0.053384 -6.57573e-20)
(0.430308 -0.0497116 6.79127e-19)
(0.429886 -0.0493205 1.62767e-20)
(0.428724 -0.0507146 -5.65044e-19)
(0.430014 -0.0517644 -6.06247e-20)
(0.432452 -0.0526865 1.22612e-18)
(0.43524 -0.0537647 -6.73086e-19)
(0.438314 -0.054955 4.51842e-19)
(0.441686 -0.0561537 -1.4103e-19)
(0.445294 -0.0573086 -2.79335e-19)
(0.449069 -0.0583958 8.16243e-20)
(0.452962 -0.0593967 3.58267e-20)
(0.45694 -0.0602973 -2.77488e-20)
(0.460978 -0.0610891 -2.16958e-19)
(0.465056 -0.0617682 1.10671e-19)
(0.469159 -0.0623344 1.00972e-19)
(0.473275 -0.0627895 -2.37254e-19)
(0.477396 -0.0631368 2.38615e-19)
(0.481513 -0.0633809 7.51947e-20)
(0.485623 -0.0635272 4.30389e-21)
(0.48972 -0.0635813 -1.34e-19)
(0.596157 -0.0452266 -3.64276e-19)
(0.592976 -0.0471983 1.03323e-19)
(0.588969 -0.0508421 6.74608e-19)
(0.588002 -0.0532647 -7.53435e-19)
(0.588407 -0.0551651 5.89233e-19)
(0.589172 -0.057072 1.06533e-20)
(0.590234 -0.0589331 -2.80056e-19)
(0.591605 -0.0606479 4.63796e-19)
(0.593199 -0.0622034 -9.99406e-20)
(0.594934 -0.0636087 -6.2048e-19)
(0.596765 -0.064865 -2.47463e-19)
(0.598664 -0.0659718 8.4753e-19)
(0.60061 -0.066932 -4.37354e-20)
(0.60259 -0.0677505 1.08998e-19)
(0.604596 -0.0684328 -6.88218e-19)
(0.60662 -0.0689852 -1.00907e-19)
(0.60866 -0.0694144 4.63577e-19)
(0.610713 -0.0697272 -1.60213e-19)
(0.612777 -0.0699307 3.71757e-19)
(0.614851 -0.0700318 -1.94774e-19)
(0.616935 -0.0700376 1.31512e-20)
(0.769563 -0.0320748 -9.23012e-19)
(0.765104 -0.0381531 1.16231e-18)
(0.759784 -0.0448335 -1.64192e-18)
(0.757218 -0.049132 6.23413e-19)
(0.75558 -0.052473 -3.43225e-19)
(0.753992 -0.055524 4.43202e-19)
(0.752524 -0.0582182 5.09003e-20)
(0.751239 -0.0605304 1.24091e-19)
(0.750093 -0.0625331 -1.03192e-19)
(0.749049 -0.0642849 -2.57507e-19)
(0.7481 -0.0658171 -1.01032e-19)
(0.747242 -0.0671519 3.13468e-19)
(0.74647 -0.0683084 3.13599e-19)
(0.745782 -0.0693019 1.77921e-19)
(0.745176 -0.0701445 -8.55384e-19)
(0.74465 -0.0708464 6.42665e-19)
(0.744202 -0.0714165 -5.47228e-19)
(0.743829 -0.0718628 1.07549e-19)
(0.74353 -0.072193 1.38496e-19)
(0.743302 -0.0724142 5.44319e-19)
(0.743143 -0.0725333 -3.97524e-19)
(0.74305 -0.0725569 -1.64336e-19)
(0.941399 -0.0147446 9.86183e-19)
(0.939365 -0.0255683 -9.38814e-19)
(0.934677 -0.033867 -2.60499e-19)
(0.930298 -0.039223 1.42277e-19)
(0.925501 -0.0435842 -3.94569e-19)
(0.92031 -0.0474348 -1.61564e-19)
(0.915089 -0.050755 8.12358e-19)
(0.910003 -0.0536324 3.68855e-19)
(0.905103 -0.0561764 -5.81809e-19)
(0.900421 -0.0584467 7.87052e-19)
(0.895979 -0.0604757 -5.81599e-19)
(0.891783 -0.0622882 -5.82744e-19)
(0.887829 -0.0639037 5.46242e-19)
(0.884107 -0.0653368 -1.52526e-19)
(0.880606 -0.0665991 -4.24335e-19)
(0.877317 -0.0677003 1.04101e-18)
(0.874225 -0.0686492 -7.71683e-19)
(0.871321 -0.0694537 -2.09311e-19)
(0.868592 -0.0701216 6.68819e-19)
(0.86603 -0.0706603 -6.64045e-20)
(0.863624 -0.0710771 -9.18102e-20)
(0.861365 -0.0713792 1.63779e-19)
(0.859245 -0.0715736 -4.04669e-19)
(1.13281 0.0109303 2.53114e-27)
(1.11803 0.000944206 -5.08761e-27)
(1.10437 -0.00701571 2.42804e-27)
(1.0912 -0.0138285 -4.97906e-27)
(1.0789 -0.0199016 0)
(1.06763 -0.0252969 0)
(1.05733 -0.0300879 0)
(1.04787 -0.0343698 0)
(1.03915 -0.0382154 0)
(1.03108 -0.0416771 -6.99291e-28)
(1.0236 -0.0447959 -4.18921e-27)
(1.01663 -0.047606 0)
(1.01012 -0.050136 0)
(1.00403 -0.0524095 0)
(0.998311 -0.0544468 0)
(0.992929 -0.0562652 0)
(0.987856 -0.0578804 0)
(0.983065 -0.0593061 1.63774e-27)
(0.978535 -0.0605548 -3.30544e-27)
(0.974245 -0.0616382 3.70772e-11)
(0.97018 -0.0625669 3.59269e-11)
(0.966323 -0.0633511 1.44468e-27)
(0.962661 -0.0640003 -2.91239e-27)
(0.959182 -0.0645233 0)
(1.2206 0.0346123 -2.537e-27)
(1.21218 0.0264486 5.0943e-27)
(1.20272 0.0180635 -2.43118e-27)
(1.19276 0.00991936 4.98543e-27)
(1.18283 0.00234986 0)
(1.17314 -0.00455249 0)
(1.16374 -0.0108092 0)
(1.15466 -0.0164654 0)
(1.14593 -0.0215677 0)
(1.13757 -0.0261659 7.00156e-28)
(1.12958 -0.0303065 4.19439e-27)
(1.12195 -0.0340337 0)
(1.11466 -0.0373874 0)
(1.10771 -0.0404027 0)
(1.10107 -0.0431106 0)
(1.09473 -0.0455379 0)
(1.08867 -0.0477084 0)
(1.08287 -0.049643 -1.63978e-27)
(1.07733 -0.0513604 3.30955e-27)
(1.07203 -0.0528772 -3.71234e-11)
(1.06695 -0.0542084 -3.59718e-11)
(1.06208 -0.0553679 -1.44649e-27)
(1.05742 -0.056368 2.91605e-27)
(1.05295 -0.0572205 0)
(1.26624 0.0482343 0)
(1.2614 0.0403967 0)
(1.25506 0.0326609 1.1235e-28)
(1.24843 0.0251595 5.54859e-28)
(1.24176 0.0180633 0)
(1.23499 0.0114216 0)
(1.22811 0.0052289 9.19825e-28)
(1.22117 -0.000526652 1.3212e-27)
(1.21424 -0.00585687 8.87053e-28)
(1.20737 -0.0107753 -4.39426e-11)
(1.20059 -0.0153029 -8.60826e-11)
(1.19394 -0.0194621 -4.21215e-11)
(1.18741 -0.0232749 -9.37763e-29)
(1.18104 -0.0267626 -4.02472e-11)
(1.17482 -0.0299462 -3.93009e-11)
(1.16877 -0.0328456 0)
(1.16289 -0.0354797 -8.51642e-29)
(1.15718 -0.0378663 0)
(1.15163 -0.0400218 -3.55256e-11)
(1.14625 -0.0419618 -3.4596e-11)
(1.14103 -0.0437009 0)
(1.13598 -0.0452525 0)
(1.13108 -0.0466293 0)
(1.12633 -0.0478432 0)
(1.28697 0.0572361 0)
(1.28462 0.0496366 0)
(1.28046 0.0423528 -1.1235e-28)
(1.2761 0.0353786 -5.54859e-28)
(1.27179 0.0287532 0)
(1.26733 0.0224897 0)
(1.26266 0.0165842 -9.19825e-28)
(1.2578 0.0110308 -1.3212e-27)
(1.25282 0.00582349 -8.87053e-28)
(1.24776 0.000956449 4.39426e-11)
(1.24264 -0.00358188 8.60826e-11)
(1.23748 -0.00780379 4.21215e-11)
(1.23232 -0.0117225 9.37763e-29)
(1.22717 -0.0153519 4.02472e-11)
(1.22205 -0.0187058 3.93009e-11)
(1.21697 -0.021798 0)
(1.21194 -0.0246422 8.51642e-29)
(1.20698 -0.0272519 0)
(1.2021 -0.0296399 3.55256e-11)
(1.19729 -0.0318189 3.4596e-11)
(1.19257 -0.0338009 0)
(1.18793 -0.0355974 0)
(1.18339 -0.0372196 0)
(1.17894 -0.0386778 0)
(1.29117 0.0620584 4.07447e-11)
(1.29072 0.0548857 4.03451e-11)
(1.28839 0.0480742 0)
(1.28584 0.0416042 0)
(1.28332 0.035456 0)
(1.28062 0.0296217 3.95347e-11)
(1.27768 0.0240965 3.92381e-11)
(1.27451 0.0188752 0)
(1.27117 0.0139512 0)
(1.26768 0.00931514 0)
(1.26407 0.00495986 0)
(1.26035 0.000877104 0)
(1.25655 -0.00294288 0)
(1.25268 -0.0065099 0)
(1.24877 -0.00983422 0)
(1.24482 -0.0129261 0)
(1.24085 -0.0157957 0)
(1.23687 -0.018453 0)
(1.23289 -0.0209082 0)
(1.22893 -0.0231708 0)
(1.22499 -0.0252506 0)
(1.22107 -0.0271569 0)
(1.21719 -0.0288987 2.97263e-11)
(1.21335 -0.0304848 2.90356e-11)
(1.28554 0.0632141 -4.07484e-11)
(1.2865 0.0567138 -4.03451e-11)
(1.28567 0.0505298 0)
(1.28457 0.0446565 0)
(1.28343 0.0390588 0)
(1.28209 0.0337228 -3.95347e-11)
(1.28048 0.028646 -3.92381e-11)
(1.27863 0.0238259 0)
(1.27658 0.0192579 0)
(1.27435 0.014936 0)
(1.27197 0.0108543 0)
(1.26944 0.00700628 0)
(1.2668 0.00338525 0)
(1.26404 -1.57223e-05 0)
(1.2612 -0.00320423 0)
(1.25828 -0.00618796 0)
(1.2553 -0.00897469 0)
(1.25227 -0.0115722 0)
(1.24919 -0.0139882 0)
(1.24609 -0.0162306 0)
(1.24296 -0.0183068 0)
(1.23982 -0.0202247 0)
(1.23668 -0.0219914 -2.97263e-11)
(1.23353 -0.0236144 -2.90356e-11)
(1.27518 0.061797 0)
(1.27705 0.0560735 0)
(1.27731 0.0505869 1.4947e-27)
(1.27727 0.0453513 -2.07127e-27)
(1.27715 0.040336 1.5073e-27)
(1.27681 0.0355291 0)
(1.2762 0.030932 -2.64151e-28)
(1.27534 0.0265462 0)
(1.27427 0.0223704 0)
(1.27301 0.0184015 0)
(1.27158 0.0146361 0)
(1.26999 0.0110702 0)
(1.26826 0.00769947 0)
(1.2664 0.00451881 0)
(1.26444 0.00152305 0)
(1.26237 -0.00129332 0)
(1.26022 -0.00393612 0)
(1.25799 -0.00641134 0)
(1.2557 -0.00872508 0)
(1.25335 -0.0108834 0)
(1.25095 -0.0128926 0)
(1.24851 -0.0147587 1.29139e-27)
(1.24605 -0.0164878 -1.75029e-27)
(1.24355 -0.018086 1.24446e-27)
(1.26325 0.0587915 0)
(1.26561 0.0538205 0)
(1.2666 0.0490151 -1.4947e-27)
(1.26729 0.0444019 2.07127e-27)
(1.26787 0.0399582 -1.5073e-27)
(1.26824 0.0356761 0)
(1.26834 0.0315603 2.64151e-28)
(1.2682 0.0276151 0)
(1.26785 0.0238419 0)
(1.2673 0.0202404 0)
(1.26658 0.0168092 0)
(1.2657 0.0135466 0)
(1.26467 0.0104502 0)
(1.2635 0.00751699 0)
(1.26221 0.00474358 0)
(1.26082 0.0021261 0)
(1.25932 -0.000339586 0)
(1.25773 -0.00265791 0)
(1.25607 -0.00483349 0)
(1.25434 -0.0068711 0)
(1.25254 -0.00877561 0)
(1.25069 -0.0105519 -1.29139e-27)
(1.24879 -0.0122051 1.75029e-27)
(1.24685 -0.0137399 -1.24446e-27)
(1.25139 0.0548684 0)
(1.25398 0.0505793 -2.58037e-11)
(1.25543 0.0464026 -2.63344e-11)
(1.25661 0.0423688 2.67198e-11)
(1.25766 0.0384623 5.62234e-28)
(1.2585 0.034679 -2.74132e-11)
(1.25909 0.0310254 -1.52733e-27)
(1.25945 0.0275079 -3.90793e-28)
(1.25961 0.0241297 -1.54431e-27)
(1.25958 0.0208922 -3.93477e-28)
(1.25938 0.0177961 -2.42471e-27)
(1.25901 0.0148413 0)
(1.2585 0.0120268 1.16046e-27)
(1.25785 0.00935146 0)
(1.25708 0.00681314 2.76889e-11)
(1.25619 0.00440945 1.18827e-27)
(1.25519 0.00213758 -2.72861e-11)
(1.25411 -5.59865e-06 0)
(1.25293 -0.00202346 -2.67703e-11)
(1.25168 -0.00391962 -2.64766e-11)
(1.25035 -0.00569784 2.26067e-27)
(1.24896 -0.00736202 0)
(1.24752 -0.00891614 -2.20168e-27)
(1.24602 -0.0103643 0)
(1.24036 0.0504496 0)
(1.24303 0.0467639 2.58037e-11)
(1.24477 0.0431529 2.63344e-11)
(1.24625 0.0396459 -2.67198e-11)
(1.24761 0.0362328 -5.62234e-28)
(1.24876 0.0329126 2.74132e-11)
(1.24968 0.0296926 1.52733e-27)
(1.25039 0.0265801 3.90793e-28)
(1.25091 0.0235794 1.54431e-27)
(1.25125 0.0206932 3.93477e-28)
(1.25142 0.0179235 2.42471e-27)
(1.25144 0.0152712 0)
(1.2513 0.0127369 -1.16046e-27)
(1.25104 0.0103201 0)
(1.25065 0.00802011 -2.76889e-11)
(1.25014 0.00583558 -1.18827e-27)
(1.24953 0.00376478 2.72861e-11)
(1.24882 0.00180559 0)
(1.24801 -4.43477e-05 2.67703e-11)
(1.24713 -0.00178769 2.64766e-11)
(1.24617 -0.00342728 -2.26067e-27)
(1.24514 -0.00496613 0)
(1.24405 -0.00640739 2.20168e-27)
(1.2429 -0.00775432 0)
(1.23042 0.045781 0)
(1.23309 0.0426255 0)
(1.23501 0.0395185 9.02732e-28)
(1.23669 0.0364864 0)
(1.23824 0.033523 0)
(1.2396 0.0306289 0)
(1.24075 0.0278117 0)
(1.24171 0.0250787 0)
(1.24248 0.0224348 -1.33596e-27)
(1.24309 0.0198836 0)
(1.24353 0.0174275 2.12437e-27)
(1.24382 0.0150685 0)
(1.24397 0.0128077 0)
(1.24399 0.0106457 -2.14447e-27)
(1.24389 0.00858246 0)
(1.24367 0.00661754 2.14085e-27)
(1.24334 0.00474998 -1.02544e-27)
(1.24292 0.00297853 0)
(1.2424 0.00130156 0)
(1.2418 -0.000282767 0)
(1.24112 -0.00177656 2.08465e-27)
(1.24037 -0.00318209 0)
(1.23955 -0.00450182 0)
(1.23867 -0.00573829 0)
(1.22161 0.040994 0)
(1.22424 0.038306 0)
(1.22627 0.035649 -9.02732e-28)
(1.22809 0.0330457 0)
(1.22977 0.0304921 0)
(1.23127 0.0279899 0)
(1.23258 0.0255463 0)
(1.23371 0.0231683 0)
(1.23467 0.0208608 1.33596e-27)
(1.23547 0.0186276 0)
(1.23612 0.0164717 -2.12437e-27)
(1.23662 0.0143952 0)
(1.23698 0.0124 0)
(1.23721 0.0104871 2.14447e-27)
(1.23733 0.00865708 0)
(1.23733 0.00690998 -2.14085e-27)
(1.23722 0.00524551 1.02544e-27)
(1.23702 0.00366301 0)
(1.23672 0.00216149 0)
(1.23634 0.000739702 0)