/*--------------------------------*- C++ -*----------------------------------*\
  =========                 |
  \\      /  F ield         | OpenFOAM: The Open Source CFD Toolbox
   \\    /   O peration     | Website:  https://openfoam.org
    \\  /    A nd           | Version:  7
     \\/     M anipulation  |
\*---------------------------------------------------------------------------*/
FoamFile
{
    version     2.0;
    format      ascii;
    class       volScalarField;
    location    "110.001";
    object      p;
}
// * * * * * * * * * * * * * * * * * * * * * * * * * * * * * * * * * * * * * //

dimensions      [0 2 -2 0 0 0 0];

internalField   nonuniform List<scalar> 
3700
(
0.638474
0.610547
0.589331
0.558584
0.525256
0.491183
0.457966
0.426332
0.396693
0.369202
0.343877
0.320653
0.299457
0.280205
0.262717
0.635556
0.608017
0.587261
0.55694
0.523971
0.490198
0.457232
0.425805
0.39634
0.368992
0.343786
0.320657
0.299536
0.280353
0.262941
0.627876
0.601195
0.581471
0.552091
0.519909
0.486798
0.454385
0.423425
0.394352
0.367336
0.342409
0.319511
0.298576
0.279567
0.262373
0.615517
0.590152
0.572017
0.544083
0.513111
0.481015
0.449456
0.419215
0.390749
0.364249
0.33976
0.317227
0.296588
0.277856
0.261015
0.598598
0.574989
0.558984
0.532986
0.503635
0.472899
0.442485
0.413209
0.385561
0.359757
0.335862
0.313826
0.293589
0.275233
0.258874
0.577276
0.555835
0.54248
0.518889
0.491556
0.462514
0.433524
0.405454
0.378826
0.353892
0.330743
0.309331
0.2896
0.271714
0.255957
0.551743
0.532854
0.522636
0.501902
0.476965
0.449936
0.422641
0.396004
0.370593
0.346697
0.324436
0.303772
0.28465
0.26732
0.252273
0.522224
0.506235
0.49961
0.482155
0.459972
0.435257
0.409912
0.384925
0.360916
0.338216
0.316983
0.297186
0.27877
0.262078
0.247836
0.488978
0.476194
0.473579
0.459796
0.440701
0.418582
0.395426
0.372293
0.349859
0.328507
0.30843
0.289614
0.271997
0.256015
0.242661
0.452291
0.442976
0.444745
0.43499
0.41929
0.400027
0.379281
0.358191
0.337495
0.317629
0.298831
0.281102
0.264371
0.249164
0.236769
0.412482
0.406847
0.413327
0.407919
0.395891
0.37972
0.361586
0.342712
0.323902
0.30565
0.288243
0.271699
0.255937
0.241561
0.23018
0.36989
0.368097
0.379563
0.378778
0.370669
0.3578
0.342457
0.325954
0.309164
0.292642
0.276728
0.261461
0.246743
0.233246
0.22292
0.324882
0.327036
0.343707
0.347779
0.343798
0.334414
0.32202
0.308024
0.293372
0.278684
0.264355
0.250448
0.236842
0.224262
0.215018
0.277839
0.283991
0.30603
0.315141
0.315465
0.309719
0.300407
0.289034
0.276623
0.263857
0.251194
0.238724
0.22629
0.214651
0.206503
0.229163
0.239306
0.266813
0.281097
0.285862
0.283876
0.277755
0.269102
0.259016
0.248248
0.23732
0.226357
0.215151
0.204464
0.197406
0.179265
0.193336
0.226348
0.245885
0.25519
0.257054
0.254205
0.248348
0.240655
0.231943
0.222808
0.213417
0.203495
0.193749
0.187751
0.128568
0.146449
0.184937
0.209751
0.223651
0.229424
0.229905
0.226897
0.221647
0.215036
0.207734
0.199978
0.191408
0.182582
0.17756
0.0774941
0.0990211
0.142887
0.172943
0.191454
0.201163
0.205001
0.204873
0.202101
0.197619
0.192174
0.186106
0.178982
0.171042
0.166797
0.0264651
0.051433
0.100506
0.135712
0.158808
0.172444
0.179643
0.182405
0.182125
0.179787
0.176202
0.171849
0.166314
0.159347
0.155459
-0.0240955
0.00405819
0.058105
0.0983075
0.12592
0.143444
0.15398
0.159618
0.161828
0.16164
0.159904
0.157251
0.153469
0.147791
0.143321
-0.0737681
-0.0427383
0.0159903
0.0609739
0.0929951
0.114337
0.128157
0.136636
0.141316
0.143272
0.143365
0.142334
0.140333
0.13663
0.130813
-0.122147
-0.088602
-0.0255368
0.0239491
0.0602344
0.0852925
0.102322
0.113584
0.120691
0.12477
0.126682
0.127205
0.126858
0.125313
0.120926
-0.168838
-0.133202
-0.0661891
-0.0125408
0.0278338
0.0564769
0.0766127
0.0905801
0.100055
0.106218
0.109938
0.111987
0.113139
0.113613
0.111207
-0.213378
-0.176235
-0.105713
-0.0482831
-0.00401586
0.0280502
0.0511666
0.067742
0.079507
0.0876957
0.0931964
0.0967563
0.0992614
0.101332
0.100733
-0.255513
-0.217187
-0.143937
-0.0830717
-0.035128
0.000165107
0.0261131
0.0451808
0.0591415
0.0692792
0.07651
0.0815549
0.0853217
0.0886637
0.0895243
-0.294978
-0.255482
-0.180856
-0.11668
-0.0653232
-0.027035
0.0015752
0.0230018
0.0390497
0.0510452
0.0599349
0.0664242
0.0714066
0.0758718
0.077967
-0.331528
-0.290904
-0.216166
-0.14883
-0.0944385
-0.0534158
-0.0223308
0.00130444
0.0193176
0.033069
0.0435345
0.0514136
0.0575742
0.0630933
0.0663444
-0.364963
-0.323674
-0.24916
-0.179304
-0.122331
-0.0788503
-0.0454963
-0.0198192
2.53387e-05
0.0154225
0.0273731
0.0365762
0.0438667
0.050378
0.0547479
-0.395098
-0.353609
-0.279565
-0.208012
-0.148868
-0.10322
-0.067822
-0.0402845
-0.0187533
-0.00182819
0.0115107
0.0219639
0.0303254
0.0377619
0.0432007
-0.421778
-0.380443
-0.307407
-0.2348
-0.173932
-0.126416
-0.0892194
-0.0600155
-0.0369514
-0.0186234
-0.00399852
0.0076251
0.0169939
0.0252893
0.0317393
-0.444907
-0.403995
-0.332619
-0.25956
-0.197454
-0.148334
-0.109611
-0.0789437
-0.0545096
-0.0349099
-0.0191057
-0.00639571
0.0039138
0.0130053
0.0204117
-0.464441
-0.424163
-0.355085
-0.282197
-0.219334
-0.168948
-0.128931
-0.0970099
-0.071375
-0.0506413
-0.0337673
-0.0200584
-0.00887655
0.000947969
0.00925859
-0.480389
-0.440903
-0.374714
-0.302631
-0.239466
-0.188229
-0.147157
-0.114163
-0.0875018
-0.0657772
-0.047944
-0.0333287
-0.0213416
-0.0108557
-0.00169079
-0.492804
-0.454219
-0.391452
-0.32081
-0.257805
-0.206086
-0.164267
-0.130416
-0.102845
-0.0802836
-0.0616029
-0.0461793
-0.0334454
-0.0223879
-0.0124174
-0.501786
-0.464169
-0.40529
-0.336706
-0.274333
-0.222481
-0.180196
-0.14572
-0.117445
-0.0941272
-0.0747251
-0.0585861
-0.0451528
-0.0336272
-0.0229211
-0.507479
-0.470868
-0.416253
-0.350312
-0.289047
-0.237412
-0.194924
-0.160036
-0.131238
-0.107326
-0.0873331
-0.0705263
-0.0564496
-0.0445201
-0.0332382
-0.510072
-0.474487
-0.424408
-0.361644
-0.301953
-0.250889
-0.208456
-0.173357
-0.144202
-0.119845
-0.0993663
-0.082024
-0.0673925
-0.0549464
-0.0434484
-0.509793
-0.47525
-0.42986
-0.370741
-0.313074
-0.262931
-0.220811
-0.185698
-0.156343
-0.131671
-0.11081
-0.093048
-0.0779367
-0.0650265
-0.053391
-0.506906
-0.473431
-0.432759
-0.377663
-0.322447
-0.273567
-0.232011
-0.197076
-0.167674
-0.142813
-0.121672
-0.10358
-0.088072
-0.0747634
-0.0628354
-0.501707
-0.469357
-0.433274
-0.382494
-0.330127
-0.282836
-0.242088
-0.207515
-0.178214
-0.153284
-0.131965
-0.113621
-0.0977929
-0.0841288
-0.0718171
-0.494518
-0.463389
-0.431608
-0.385345
-0.336183
-0.290788
-0.25108
-0.217046
-0.187985
-0.163103
-0.141701
-0.123183
-0.107102
-0.0931356
-0.0804668
-0.48568
-0.455901
-0.428005
-0.386355
-0.3407
-0.297485
-0.259034
-0.225703
-0.197014
-0.172288
-0.150896
-0.132283
-0.116015
-0.101814
-0.088885
-0.47554
-0.447261
-0.422747
-0.385694
-0.343773
-0.302992
-0.266003
-0.233531
-0.205334
-0.180867
-0.159571
-0.140939
-0.124552
-0.110184
-0.0970999
-0.464445
-0.43781
-0.416152
-0.383553
-0.345512
-0.30738
-0.272043
-0.240574
-0.212983
-0.188868
-0.16775
-0.149173
-0.132733
-0.118251
-0.105092
-0.452732
-0.427858
-0.408564
-0.380147
-0.346035
-0.310725
-0.27721
-0.246879
-0.22
-0.196323
-0.175459
-0.157007
-0.140578
-0.126022
-0.112846
-0.440711
-0.417673
-0.400332
-0.375705
-0.345467
-0.313103
-0.28156
-0.252494
-0.226423
-0.203266
-0.182727
-0.164464
-0.148107
-0.133513
-0.120365
-0.428659
-0.407485
-0.39179
-0.370467
-0.343947
-0.314591
-0.285147
-0.25746
-0.232291
-0.209731
-0.189583
-0.17157
-0.155346
-0.14075
-0.12767
-0.41681
-0.39749
-0.383229
-0.36468
-0.341619
-0.315268
-0.288017
-0.261816
-0.237637
-0.215747
-0.196056
-0.178351
-0.16232
-0.147762
-0.134785
-0.405349
-0.387847
-0.374879
-0.358593
-0.338637
-0.315209
-0.290212
-0.26559
-0.242489
-0.221345
-0.202176
-0.184835
-0.169058
-0.15458
-0.14174
-0.394412
-0.378687
-0.366903
-0.352441
-0.335161
-0.314492
-0.291764
-0.268802
-0.246866
-0.226545
-0.207967
-0.19105
-0.175592
-0.161237
-0.148565
-0.384092
-0.370103
-0.359404
-0.346431
-0.331353
-0.313197
-0.2927
-0.27146
-0.250775
-0.231361
-0.213453
-0.197023
-0.181951
-0.16777
-0.155294
-0.374444
-0.362154
-0.352436
-0.340713
-0.327374
-0.31141
-0.293043
-0.273557
-0.25421
-0.235796
-0.218648
-0.20278
-0.188168
-0.174219
-0.161969
-0.365492
-0.354859
-0.346027
-0.335375
-0.323368
-0.30922
-0.292815
-0.27508
-0.257148
-0.239836
-0.223555
-0.208342
-0.194277
-0.180627
-0.168638
-0.35724
-0.348211
-0.340178
-0.330446
-0.319451
-0.306727
-0.292047
-0.276008
-0.259553
-0.243454
-0.228167
-0.213722
-0.200311
-0.187049
-0.175354
-0.349681
-0.342184
-0.334873
-0.325916
-0.315696
-0.304027
-0.290782
-0.276324
-0.261378
-0.246601
-0.232457
-0.218925
-0.206306
-0.193539
-0.182197
-0.342807
-0.336742
-0.330084
-0.32176
-0.312131
-0.301212
-0.289084
-0.276029
-0.262575
-0.249216
-0.23638
-0.223938
-0.21229
-0.200181
-0.189242
-0.336612
-0.331861
-0.32578
-0.317961
-0.308764
-0.298357
-0.287039
-0.275149
-0.263109
-0.251228
-0.239867
-0.228729
-0.218285
-0.207037
-0.196683
-0.331098
-0.327536
-0.321945
-0.314513
-0.305605
-0.295526
-0.284749
-0.273757
-0.262975
-0.252572
-0.242835
-0.233227
-0.224296
-0.21423
-0.204653
-0.326293
-0.323773
-0.318578
-0.311436
-0.302694
-0.29279
-0.282335
-0.27197
-0.262223
-0.253214
-0.245187
-0.237345
-0.230264
-0.221801
-0.213722
-0.322242
-0.320585
-0.315704
-0.308778
-0.300105
-0.290253
-0.279941
-0.269952
-0.260968
-0.25318
-0.246849
-0.240937
-0.236127
-0.229758
-0.22393
-0.318963
-0.317986
-0.313394
-0.306604
-0.297945
-0.288055
-0.277746
-0.267915
-0.259404
-0.252584
-0.247787
-0.24392
-0.241499
-0.238309
-0.235433
-0.316478
-0.316028
-0.311682
-0.305
-0.296338
-0.286366
-0.275962
-0.266115
-0.257794
-0.251641
-0.248046
-0.246261
-0.246195
-0.246815
-0.245922
-0.314795
-0.314732
-0.310587
-0.304055
-0.295397
-0.285355
-0.274818
-0.264834
-0.256467
-0.25066
-0.247818
-0.247959
-0.249991
-0.25412
-0.255592
-0.313899
-0.314101
-0.310157
-0.3038
-0.295214
-0.285162
-0.274516
-0.26435
-0.255776
-0.250019
-0.247451
-0.249151
-0.252845
-0.260147
-0.26471
-0.313753
-0.314124
-0.310389
-0.304255
-0.295826
-0.285868
-0.275199
-0.264885
-0.256041
-0.250115
-0.247412
-0.250203
-0.254928
-0.26534
-0.27322
-0.314305
-0.314778
-0.311261
-0.305388
-0.297241
-0.287487
-0.276922
-0.26656
-0.257485
-0.251295
-0.248185
-0.251646
-0.256606
-0.270201
-0.28081
-0.315489
-0.316026
-0.312741
-0.30718
-0.299398
-0.289976
-0.279659
-0.26939
-0.260199
-0.253763
-0.250164
-0.25396
-0.258488
-0.275142
-0.287297
-0.317239
-0.317835
-0.31479
-0.309583
-0.302235
-0.29326
-0.283328
-0.273299
-0.264147
-0.257557
-0.253563
-0.257414
-0.261326
-0.280351
-0.292986
-0.319495
-0.320169
-0.317371
-0.31255
-0.305695
-0.297256
-0.287824
-0.278166
-0.269206
-0.262578
-0.258402
-0.262063
-0.265668
-0.285888
-0.298747
-0.322209
-0.323003
-0.32046
-0.316047
-0.309731
-0.301894
-0.293051
-0.28387
-0.27523
-0.268671
-0.264524
-0.267842
-0.271616
-0.29192
-0.305488
-0.325349
-0.326322
-0.32404
-0.320055
-0.314309
-0.307135
-0.298943
-0.290321
-0.2821
-0.275701
-0.271742
-0.274639
-0.278927
-0.298701
-0.313467
-0.328902
-0.330119
-0.328111
-0.324575
-0.31943
-0.312956
-0.305475
-0.297481
-0.289751
-0.283594
-0.279899
-0.282349
-0.287267
-0.306287
-0.322384
-0.332872
-0.334399
-0.332681
-0.329618
-0.325108
-0.319375
-0.312659
-0.305369
-0.298192
-0.292345
-0.28892
-0.290909
-0.296358
-0.314451
-0.331616
-0.337278
-0.339173
-0.337766
-0.335209
-0.331374
-0.326432
-0.320545
-0.314031
-0.307507
-0.30202
-0.298816
-0.300323
-0.306009
-0.32287
-0.340678
-0.34215
-0.344454
-0.343388
-0.341375
-0.338266
-0.334182
-0.32921
-0.323571
-0.317777
-0.312736
-0.309692
-0.310685
-0.316109
-0.331325
-0.349162
-0.347525
-0.350264
-0.349567
-0.348146
-0.345825
-0.342683
-0.338732
-0.334093
-0.329145
-0.324632
-0.321708
-0.322153
-0.326647
-0.339811
-0.356763
-0.35344
-0.356612
-0.356318
-0.355543
-0.354085
-0.351983
-0.349178
-0.345687
-0.341734
-0.337861
-0.335023
-0.33464
-0.338073
-0.348445
-0.36327
-0.359923
-0.363503
-0.363646
-0.363574
-0.363059
-0.362106
-0.36059
-0.358415
-0.35563
-0.352544
-0.349826
-0.348578
-0.350323
-0.357254
-0.368798
-0.366991
-0.370928
-0.371537
-0.372223
-0.372735
-0.373044
-0.372964
-0.372283
-0.370861
-0.368733
-0.366224
-0.36408
-0.363642
-0.3666
-0.3738
-0.374639
-0.37886
-0.379957
-0.381451
-0.383061
-0.384738
-0.386236
-0.387223
-0.387361
-0.386379
-0.384205
-0.381153
-0.378171
-0.376644
-0.377893
0.240277
0.218401
0.199909
0.185918
0.173824
0.164582
0.156424
0.150091
0.14449
0.140186
0.13633
0.133357
0.130711
0.128696
0.126924
0.125631
0.124539
0.123814
0.123277
0.123081
0.240593
0.21876
0.200274
0.186275
0.174168
0.164902
0.15673
0.150394
0.144702
0.140445
0.136569
0.133586
0.130925
0.128902
0.127121
0.125821
0.124722
0.123993
0.123454
0.123257
0.240343
0.218739
0.200355
0.186432
0.174352
0.165108
0.156941
0.150628
0.145049
0.140659
0.136763
0.133774
0.131102
0.129074
0.127287
0.125982
0.12488
0.124148
0.123606
0.123409
0.239519
0.218328
0.200142
0.186379
0.174372
0.165191
0.157052
0.150774
0.145182
0.140814
0.136911
0.13392
0.131244
0.129214
0.127423
0.126115
0.125011
0.124278
0.123735
0.123538
0.238124
0.217531
0.199638
0.186119
0.174229
0.165154
0.157063
0.15084
0.145261
0.140912
0.137011
0.134026
0.131349
0.129321
0.127529
0.126221
0.125116
0.124382
0.12384
0.123642
0.236157
0.216349
0.198845
0.185654
0.173924
0.164997
0.156976
0.150826
0.145276
0.140954
0.137065
0.134091
0.131419
0.129395
0.127606
0.126299
0.125195
0.124462
0.123921
0.123723
0.23362
0.214787
0.197767
0.184988
0.173461
0.164721
0.156792
0.150733
0.145225
0.140937
0.137073
0.134116
0.131453
0.129437
0.127652
0.126349
0.125249
0.124518
0.123978
0.12378
0.230514
0.212847
0.196405
0.184122
0.172842
0.164328
0.156513
0.150563
0.145112
0.140865
0.137036
0.134103
0.131453
0.129447
0.12767
0.126373
0.125277
0.124549
0.124012
0.123814
0.226843
0.210533
0.194765
0.18306
0.17207
0.163819
0.15614
0.150316
0.144936
0.140738
0.136953
0.134051
0.131419
0.129427
0.12766
0.126369
0.12528
0.124556
0.124023
0.123825
0.222614
0.20785
0.19285
0.181805
0.171149
0.163197
0.155678
0.149995
0.14469
0.140461
0.136845
0.133963
0.131352
0.129375
0.127622
0.12634
0.125259
0.12454
0.124011
0.123813
0.217832
0.204803
0.190665
0.180359
0.170083
0.162463
0.155129
0.1496
0.144392
0.140507
0.136679
0.133839
0.131254
0.129294
0.127556
0.126285
0.125214
0.124501
0.123977
0.12378
0.212507
0.201398
0.188216
0.178725
0.168877
0.16162
0.154494
0.149135
0.144029
0.140161
0.136472
0.13369
0.131126
0.129183
0.127464
0.126205
0.125145
0.124439
0.123921
0.123725
0.20665
0.197638
0.18551
0.176905
0.167535
0.160669
0.153778
0.148602
0.143616
0.139835
0.136254
0.133504
0.130969
0.129044
0.127346
0.126101
0.125054
0.124356
0.123844
0.123649
0.200274
0.193528
0.182555
0.174902
0.166063
0.159613
0.152983
0.148003
0.143151
0.139465
0.135974
0.133252
0.130786
0.128876
0.127204
0.125975
0.124941
0.124251
0.123747
0.123553
0.193391
0.189069
0.17936
0.172716
0.164465
0.158455
0.152111
0.147339
0.142634
0.139047
0.135634
0.132983
0.130543
0.128685
0.127039
0.125826
0.124808
0.124127
0.12363
0.123438
0.18602
0.18426
0.175934
0.170352
0.162745
0.157198
0.151167
0.146613
0.142069
0.13859
0.135258
0.132681
0.130315
0.128477
0.126851
0.125655
0.124654
0.123982
0.123494
0.123304
0.178167
0.179095
0.172288
0.167811
0.160908
0.155846
0.15015
0.145828
0.141454
0.138093
0.134854
0.132341
0.130011
0.128223
0.126636
0.125466
0.12448
0.12382
0.12334
0.123152
0.169872
0.173577
0.168433
0.165093
0.158953
0.154394
0.14906
0.144981
0.14079
0.137554
0.134414
0.131974
0.129707
0.127989
0.126424
0.125256
0.124288
0.123639
0.123168
0.122983
0.161108
0.167734
0.164401
0.162262
0.156925
0.152899
0.147937
0.144114
0.140108
0.137
0.13396
0.131592
0.129383
0.127691
0.126173
0.125043
0.124085
0.123443
0.12298
0.122798
0.15141
0.161084
0.159958
0.159145
0.15472
0.151285
0.146718
0.143174
0.139361
0.136395
0.133459
0.131171
0.129024
0.127375
0.125893
0.12479
0.123865
0.123232
0.122776
0.122598
0.137344
0.149948
0.152534
0.152889
0.150211
0.147543
0.14394
0.140869
0.137606
0.134927
0.132318
0.13021
0.128263
0.126724
0.125363
0.124327
0.123472
0.122877
0.122458
0.122292
0.12681
0.137701
0.143235
0.145014
0.144189
0.142594
0.140086
0.13772
0.135118
0.132888
0.130685
0.128863
0.127168
0.125808
0.124602
0.123674
0.122905
0.122368
0.121993
0.121845
0.117221
0.1278
0.134688
0.137612
0.138294
0.137685
0.136186
0.134498
0.132541
0.130757
0.128965
0.127434
0.125999
0.124823
0.123779
0.122966
0.12229
0.121813
0.121483
0.121351
0.108398
0.119224
0.126901
0.130754
0.132641
0.13291
0.13233
0.131273
0.129937
0.128581
0.127195
0.125949
0.124777
0.123786
0.122908
0.122209
0.121631
0.121217
0.120933
0.120816
0.100543
0.111613
0.119823
0.124458
0.127284
0.128335
0.12856
0.128094
0.127335
0.126391
0.125398
0.124431
0.123518
0.122711
0.121999
0.121414
0.120935
0.120585
0.120348
0.120247
0.0936793
0.10484
0.113404
0.118685
0.122246
0.123988
0.124904
0.12499
0.124757
0.12421
0.123587
0.122894
0.122233
0.121609
0.12106
0.12059
0.120209
0.119923
0.119734
0.119647
0.0877195
0.098835
0.107607
0.113393
0.117535
0.119878
0.121387
0.121981
0.122223
0.122055
0.121779
0.121353
0.120932
0.120488
0.120098
0.119744
0.11946
0.119238
0.119095
0.119024
0.0825299
0.0935188
0.10239
0.108553
0.113153
0.116011
0.118027
0.119083
0.119751
0.11994
0.119986
0.119818
0.119626
0.11936
0.119123
0.118882
0.118692
0.118535
0.118437
0.118382
0.0779998
0.0888114
0.0977052
0.104136
0.109094
0.112388
0.114835
0.116306
0.117356
0.117879
0.118222
0.118301
0.118325
0.118231
0.118141
0.118012
0.117914
0.11782
0.117766
0.117727
0.0740445
0.0846415
0.0935004
0.100114
0.105348
0.109004
0.111819
0.11366
0.115051
0.115882
0.116498
0.116812
0.117037
0.11711
0.11716
0.117141
0.11713
0.117098
0.117086
0.117064
0.0705942
0.0809491
0.0897291
0.0964594
0.101903
0.105858
0.108984
0.111151
0.112844
0.113958
0.114824
0.115358
0.115773
0.116005
0.116187
0.116274
0.116347
0.116375
0.116403
0.116398
0.0675874
0.0776821
0.0863496
0.093144
0.0987427
0.102941
0.10633
0.108782
0.110742
0.112114
0.113208
0.113947
0.114538
0.114922
0.115229
0.115418
0.11557
0.115657
0.115722
0.115735
0.0649693
0.0747941
0.0833242
0.0901422
0.0958515
0.100246
0.103856
0.106555
0.108752
0.110356
0.111657
0.112587
0.113341
0.113866
0.114291
0.114577
0.114804
0.114947
0.115048
0.115078
0.0626915
0.0722433
0.0806191
0.0874298
0.0932132
0.0977644
0.101558
0.104471
0.106876
0.108688
0.110177
0.111282
0.112187
0.112845
0.11338
0.113757
0.114055
0.114251
0.114386
0.114433
0.0607118
0.0699927
0.0782039
0.084984
0.0908121
0.095487
0.0994322
0.10253
0.105116
0.107114
0.108773
0.110037
0.11108
0.111862
0.112499
0.112962
0.113328
0.113573
0.11374
0.113803
0.0589931
0.0680094
0.0760513
0.0827839
0.0886334
0.0934042
0.0974738
0.100729
0.103474
0.105637
0.107448
0.108857
0.110027
0.110923
0.111655
0.112198
0.112625
0.112917
0.113114
0.113193
0.0575031
0.0662644
0.0741367
0.0808101
0.0866629
0.0915067
0.0956773
0.0990666
0.101948
0.104258
0.106205
0.107746
0.109031
0.110031
0.11085
0.111468
0.111953
0.112288
0.112513
0.112606
0.0562137
0.0647324
0.0724382
0.0790448
0.0848872
0.0897854
0.0940372
0.0975403
0.100541
0.102979
0.105046
0.106705
0.108095
0.109191
0.11009
0.110776
0.111314
0.11169
0.11194
0.112046
0.0551005
0.0633909
0.0709364
0.0774721
0.0832942
0.0882316
0.092548
0.0961469
0.0992489
0.101801
0.103974
0.105739
0.107222
0.108404
0.109376
0.110125
0.110711
0.111124
0.111398
0.111517
0.0541423
0.0622205
0.0696141
0.0760775
0.0818724
0.0868369
0.0912041
0.0948835
0.0980721
0.100722
0.102989
0.104848
0.106415
0.107675
0.108712
0.109518
0.110148
0.110595
0.110891
0.111021
0.053321
0.0612042
0.068456
0.0748481
0.0806117
0.0855938
0.0900004
0.0937467
0.097009
0.099744
0.102093
0.104034
0.105676
0.107005
0.108102
0.108958
0.109628
0.110106
0.110421
0.110562
0.052621
0.0603274
0.0674487
0.0737724
0.0795028
0.0844952
0.0889319
0.0927336
0.096058
0.098866
0.101286
0.1033
0.105006
0.106397
0.107546
0.108448
0.109153
0.109658
0.109991
0.110141
0.052029
0.0595773
0.0665807
0.0728405
0.0785374
0.0835348
0.087994
0.0918412
0.0952174
0.0980876
0.100568
0.102645
0.104408
0.105853
0.107047
0.107989
0.108726
0.109255
0.109603
0.109761
0.0515337
0.0589431
0.065842
0.0720436
0.0777082
0.0827069
0.0871827
0.0910667
0.0944857
0.0974082
0.0999402
0.10207
0.103882
0.105373
0.106607
0.107584
0.108348
0.108898
0.109259
0.109424
0.0511259
0.0584158
0.065224
0.0713741
0.077009
0.0820064
0.0864943
0.0904077
0.0938615
0.0968272
0.099402
0.101577
0.10343
0.10496
0.106227
0.107233
0.10802
0.108588
0.108961
0.109133
0.0507977
0.0579879
0.0647197
0.0708258
0.0764345
0.0814293
0.0859255
0.0898621
0.0933435
0.0963441
0.0989537
0.101165
0.103052
0.104614
0.105909
0.106939
0.107746
0.108328
0.10871
0.108887
0.0505431
0.0576531
0.0643232
0.0703933
0.07598
0.0809718
0.0854738
0.0894278
0.0929306
0.0959584
0.0985951
0.100836
0.102748
0.104336
0.105653
0.106703
0.107524
0.108119
0.108508
0.10869
0.0503572
0.0574069
0.06403
0.0700727
0.0756423
0.0806312
0.0851368
0.0891035
0.0926217
0.0956694
0.0983263
0.100588
0.102521
0.104128
0.105461
0.106525
0.107358
0.107961
0.108356
0.10854
0.0502365
0.0572455
0.0638364
0.0698608
0.0754184
0.0804054
0.084913
0.0888879
0.0924161
0.0954771
0.098147
0.100423
0.102369
0.103988
0.105332
0.106406
0.107246
0.107855
0.108254
0.108441
0.0501777
0.0571666
0.0637397
0.0697559
0.0753065
0.0802932
0.084801
0.0887806
0.0923132
0.0953812
0.0980573
0.100341
0.102292
0.103918
0.105267
0.106346
0.10719
0.107802
0.108203
0.108391
0.123845
0.115731
0.107197
0.099047
0.0916771
0.0851539
0.0794326
0.0744409
0.0701055
0.0663543
0.0631177
0.0603312
0.0579363
0.0558815
0.0541212
0.0526158
0.0513307
0.0502358
0.0493051
0.0485163
0.0478501
0.0472903
0.0468231
0.0464369
0.046122
0.0458707
0.0456768
0.0455352
0.0454431
0.0454025
0.114344
0.105827
0.0978517
0.0904795
0.0839185
0.078136
0.0730637
0.0686406
0.0648079
0.0615022
0.0586596
0.0562203
0.0541307
0.0523436
0.0508177
0.0495172
0.0484106
0.047471
0.046675
0.0460023
0.0454358
0.0449608
0.0445647
0.0442372
0.0439696
0.0437547
0.043587
0.0434618
0.0433768
0.0433377
0.10331
0.0936301
0.0859124
0.0792483
0.0736178
0.0688058
0.0646706
0.0611154
0.0580665
0.0554571
0.053226
0.0513194
0.0496908
0.0483007
0.0471151
0.046105
0.0452457
0.0445157
0.0438969
0.0433735
0.0429321
0.0425612
0.042251
0.0419932
0.041781
0.0416088
0.041472
0.0413668
0.0412908
0.0412519
0.0933886
0.0838317
0.0765972
0.0704074
0.065348
0.0611431
0.0576281
0.0546772
0.0521951
0.0501036
0.0483385
0.0468468
0.0455846
0.0445159
0.0436107
0.0428441
0.0421951
0.0416461
0.0411822
0.0407909
0.0404613
0.0401843
0.0399523
0.0397586
0.0395976
0.039465
0.0393573
0.0392712
0.0392034
0.0391621
0.0833842
0.0749629
0.068873
0.0634086
0.0589236
0.0551861
0.0520889
0.0495227
0.0473962
0.0456314
0.0441647
0.0429443
0.0419281
0.0410813
0.0403756
0.0397872
0.0392969
0.0388882
0.0385478
0.0382644
0.0380283
0.0378317
0.0376678
0.0375309
0.0374162
0.0373199
0.0372391
0.0371711
0.0371115
0.0370672
0.0728481
0.0655482
0.0607558
0.0562607
0.0525756
0.0494498
0.046843
0.0446818
0.0428992
0.0414327
0.0402286
0.0392417
0.0384346
0.037776
0.0372398
0.0368042
0.0364512
0.0361657
0.0359352
0.0357491
0.0355987
0.0354767
0.0353769
0.0352941
0.0352241
0.0351634
0.0351094
0.0350598
0.0350096
0.0349633
0.0622201
0.0558465
0.0520693
0.048452
0.0456071
0.0431936
0.0411905
0.0395336
0.0381746
0.0370673
0.0361712
0.035451
0.0348766
0.0344224
0.0340667
0.033791
0.03358
0.0334205
0.0333016
0.0332141
0.0331502
0.0331035
0.0330685
0.0330408
0.0330164
0.0329922
0.0329661
0.0329362
0.032897
0.0328506
0.0517442
0.0463471
0.0434155
0.0405215
0.0384001
0.0366463
0.0352444
0.0341169
0.0332178
0.032508
0.0319555
0.0315331
0.0312175
0.0309889
0.0308304
0.0307277
0.0306686
0.0306425
0.0306408
0.030656
0.0306818
0.0307129
0.0307447
0.0307735
0.0307961
0.0308099
0.0308129
0.0308039
0.0307775
0.0307324
0.0413853
0.0370802
0.0350273
0.0328456
0.0313806
0.0302098
0.0293457
0.0287039
0.0282392
0.0279143
0.0277009
0.0275765
0.0275226
0.0275237
0.0275669
0.0276413
0.0277376
0.0278481
0.027966
0.0280859
0.0282029
0.0283129
0.0284126
0.0284989
0.0285695
0.0286221
0.0286551
0.028668
0.0286556
0.0286136
0.0311134
0.0279241
0.0267978
0.0253904
0.024598
0.0239944
0.0236324
0.0234355
0.0233681
0.0233977
0.0235002
0.0236566
0.023852
0.0240741
0.0243129
0.0245603
0.0248093
0.0250544
0.0252909
0.0255147
0.0257225
0.0259113
0.0260789
0.0262229
0.0263418
0.0264337
0.0264975
0.026533
0.0265357
0.0264983
0.0209613
0.0188565
0.0186357
0.0180261
0.0179278
0.0179076
0.0180497
0.018288
0.0186019
0.018968
0.0193691
0.0197914
0.0202236
0.0206565
0.021083
0.0214972
0.0218944
0.0222707
0.0226232
0.0229492
0.0232465
0.0235134
0.0237483
0.02395
0.0241172
0.0242488
0.0243438
0.0244027
0.0244215
0.0243902
0.0109657
0.00991462
0.0105583
0.0107259
0.0113082
0.0118728
0.0125231
0.0131993
0.0138933
0.0145915
0.0152852
0.0159669
0.0166295
0.0172676
0.0178766
0.0184534
0.0189951
0.0195
0.0199663
0.0203928
0.0207786
0.0211228
0.0214247
0.0216838
0.0218994
0.0220709
0.0221977
0.0222806
0.0223163
0.0222927
0.00114174
0.00111986
0.00260878
0.00352634
0.00476003
0.00589134
0.00703937
0.00814861
0.00922
0.0102478
0.0112319
0.0121707
0.0130614
0.013902
0.0146911
0.0154281
0.0161124
0.016744
0.0173227
0.0178487
0.0183221
0.018743
0.0191116
0.019428
0.0196921
0.0199038
0.0200628
0.0201702
0.0202238
0.0202091
-0.0085063
-0.00752795
-0.00519308
-0.00354567
-0.00168256
-6.12183e-06
0.00162148
0.00315102
0.00459057
0.00593999
0.00720996
0.00840314
0.00951959
0.0105606
0.011528
0.0124235
0.0132489
0.0140058
0.0146959
0.0153205
0.0158808
0.016378
0.016813
0.0171865
0.0174991
0.0177513
0.0179429
0.0180753
0.0181474
0.0181428
-0.0179766
-0.016025
-0.0128401
-0.0104864
-0.00800613
-0.00580201
-0.00371096
-0.00177458
2.188e-05
0.00167941
0.00322879
0.00467205
0.00601054
0.00724901
0.00839212
0.00944413
0.0104089
0.0112899
0.0120902
0.0128125
0.0134591
0.014032
0.014533
0.0149635
0.0153246
0.0156172
0.0158417
0.0159996
0.0160908
0.0160974
-0.0272774
-0.0243423
-0.0203258
-0.0172933
-0.0142081
-0.0114931
-0.00895198
-0.00662028
-0.00447254
-0.00252855
-0.000703289
0.000985264
0.00254127
0.00397344
0.00528923
0.00649529
0.00759747
0.00860094
0.00951018
0.0103291
0.0110611
0.0117092
0.0122758
0.012763
0.0131725
0.0135057
0.0137631
0.0139467
0.0140577
0.0140761
-0.0364345
-0.0324166
-0.027654
-0.0239515
-0.0202885
-0.0170799
-0.0141027
-0.0113879
-0.00888503
-0.00668452
-0.00457961
-0.00265102
-0.000882446
0.000739377
0.00222451
0.00358189
0.00481928
0.00594343
0.0069602
0.00787467
0.00869126
0.00941377
0.0100454
0.010589
0.0110467
0.0114204
0.0117109
0.0119202
0.0120515
0.0120825
-0.0455477
-0.0402156
-0.0348387
-0.0304316
-0.0262536
-0.0225614
-0.0191668
-0.0160845
-0.0132135
-0.0107911
-0.00839129
-0.00623219
-0.00425604
-0.00244879
-0.00079775
0.000708202
0.00207858
0.00332162
0.00444447
0.00545332
0.00635354
0.00714977
0.00784596
0.00844545
0.00895104
0.00936504
0.00968869
0.00992366
0.0100754
0.0101201
-0.0542809
-0.0479025
-0.0419471
-0.0368505
-0.0321627
-0.0279856
-0.0241833
-0.0207376
-0.0175844
-0.0147502
-0.0121288
-0.00974989
-0.00757403
-0.00558663
-0.00377349
-0.00212186
-0.000620761
0.000739368
0.00196684
0.0030689
0.00405182
0.00492102
0.00568114
0.00633612
0.00688926
0.00734334
0.00770009
0.00796079
0.00813211
0.00819266
-0.0626129
-0.0554657
-0.0489256
-0.0431881
-0.0379841
-0.0333347
-0.0291288
-0.0253219
-0.0218544
-0.0186999
-0.0158342
-0.0132302
-0.010853
-0.00868509
-0.00670992
-0.00491288
-0.0032814
-0.00180454
-0.000472799
0.000722129
0.00178743
0.00272933
0.00355316
0.00426346
0.00486404
0.00535807
0.00574781
0.00603497
0.00622382
0.00630294
-0.0706711
-0.0628787
-0.0557301
-0.0493925
-0.0436818
-0.0385818
-0.0339806
-0.0298208
-0.0260389
-0.0226096
-0.0194964
-0.0166657
-0.0140867
-0.0117386
-0.00960194
-0.00766009
-0.00589887
-0.00430593
-0.0028705
-0.00158325
-0.00043607
0.00057807
0.0014652
0.00223045
0.00287812
0.00341185
0.00383433
0.00414761
0.00435513
0.00444888
-0.0785643
-0.0701423
-0.0623526
-0.0554408
-0.0492455
-0.0437163
-0.0387325
-0.0342314
-0.0301482
-0.026452
-0.0230945
-0.0200413
-0.0172638
-0.0147377
-0.0124412
-0.0103561
-0.00846652
-0.00675867
-0.0052206
-0.00384195
-0.0026137
-0.00152804
-0.000578261
0.000241352
0.000935616
0.00150857
0.00196335
0.00230231
0.00252908
0.00263508
-0.0863272
-0.0772484
-0.0688145
-0.0613502
-0.054692
-0.0487485
-0.0433938
-0.0385605
-0.0341834
-0.0302205
-0.0266216
-0.0233513
-0.0203789
-0.0176774
-0.0152234
-0.0129968
-0.0109803
-0.00915875
-0.00751915
-0.00605006
-0.0047416
-0.0035852
-0.00257347
-0.00170013
-0.000959856
-0.000348201
0.000138328
0.00050246
0.000748159
0.000866532
-0.0939411
-0.0842045
-0.0751424
-0.0671475
-0.0600412
-0.0536929
-0.0479752
-0.0428152
-0.038146
-0.0339178
-0.0300809
-0.0265968
-0.023432
-0.0205571
-0.0179471
-0.0155803
-0.0134381
-0.0115039
-0.00976371
-0.008205
-0.00681708
-0.00559062
-0.00451759
-0.00359112
-0.00280541
-0.0021556
-0.00163786
-0.00124913
-0.000984988
-0.000853829
-0.101391
-0.0910254
-0.0813568
-0.0728492
-0.0653046
-0.0585587
-0.0524832
-0.0469998
-0.0420398
-0.0375487
-0.0334762
-0.02978
-0.026424
-0.0233768
-0.0206118
-0.0181058
-0.0158386
-0.0137926
-0.0119524
-0.0103047
-0.00883789
-0.00754197
-0.00640821
-0.00542918
-0.0045986
-0.00391118
-0.00336275
-0.00294997
-0.00266793
-0.00252407
-0.108684
-0.0977284
-0.08747
-0.0784623
-0.0704875
-0.063351
-0.0569219
-0.0511175
-0.045868
-0.0411163
-0.0368094
-0.0329018
-0.029355
-0.0261361
-0.0232167
-0.020572
-0.0181803
-0.0160228
-0.0140832
-0.012347
-0.0108019
-0.00943702
-0.00824307
-0.00721203
-0.00633711
-0.00561263
-0.00503406
-0.0045978
-0.00429849
-0.00414244
-0.115838
-0.104331
-0.0934914
-0.083991
-0.0755944
-0.0680753
-0.0612964
-0.0551719
-0.0496335
-0.0446222
-0.0400815
-0.0359624
-0.0322248
-0.0288343
-0.0257608
-0.0229775
-0.0204616
-0.018193
-0.0161543
-0.01433
-0.012707
-0.0112736
-0.01002
-0.00893746
-0.00801876
-0.00725778
-0.00664964
-0.00619053
-0.00587469
-0.00570715
-0.122875
-0.110852
-0.0994308
-0.0894419
-0.0806327
-0.0727389
-0.0656115
-0.0591656
-0.0533379
-0.0480676
-0.0432929