/*--------------------------------*- C++ -*----------------------------------*\
  =========                 |
  \\      /  F ield         | OpenFOAM: The Open Source CFD Toolbox
   \\    /   O peration     | Website:  https://openfoam.org
    \\  /    A nd           | Version:  7
     \\/     M anipulation  |
\*---------------------------------------------------------------------------*/
FoamFile
{
    version     2.0;
    format      ascii;
    class       surfaceScalarField;
    location    "110.001";
    object      phi;
}
// * * * * * * * * * * * * * * * * * * * * * * * * * * * * * * * * * * * * * //

dimensions      [0 3 -1 0 0 0 0];

internalField   nonuniform List<scalar> 
7248
(
-0.000164794
0.00012102
-0.00044869
0.00021939
-0.000763661
0.000251325
-0.00108271
0.000260454
-0.00140328
0.000267356
-0.00172727
0.000276297
-0.00205651
0.00028721
-0.00239259
0.000299808
-0.00273698
0.000313908
-0.00309099
0.000329349
-0.00345588
0.000346015
-0.00383284
0.000363787
-0.00422291
0.000382511
-0.00462696
0.000402056
0.000422605
-0.00504621
-0.000163968
0.000284988
-0.000446893
0.000502315
-0.00076105
0.000565482
-0.00107939
0.000578791
-0.00139929
0.000587256
-0.00172261
0.000599624
-0.0020512
0.000615801
-0.00238665
0.000635257
-0.00273041
0.000657661
-0.00308379
0.000682729
-0.00344804
0.00071027
-0.00382436
0.000740105
-0.00421379
0.000771944
-0.00461721
0.000805471
0.000841163
-0.00503577
-0.000162465
0.000447453
-0.000443644
0.000783493
-0.000756344
0.000878183
-0.00107341
0.000895859
-0.0013921
0.000905944
-0.00171424
0.000921763
-0.00204166
0.000943219
-0.00237594
0.000969543
-0.00271854
0.00100025
-0.00307075
0.00103495
-0.00343384
0.00107335
-0.00380897
0.00111524
-0.00419722
0.00116019
-0.00459944
0.00120769
0.00125851
-0.00501679
-0.000160288
0.000607741
-0.000438942
0.00106215
-0.000749543
0.00118878
-0.00106478
0.0012111
-0.00138172
0.00122289
-0.00170215
0.00124219
-0.00202787
0.00126894
-0.00236047
0.00130214
-0.00270137
0.00134116
-0.0030519
0.00138547
-0.00341328
0.00143473
-0.00378669
0.00148866
-0.0041732
0.0015467
-0.00457368
0.00160817
0.00167406
-0.00498923
-0.000157438
0.000765179
-0.000432791
0.0013375
-0.000740647
0.00149664
-0.0010535
0.00152395
-0.00136816
0.00153755
-0.00168634
0.00156037
-0.00200985
0.00159245
-0.00234024
0.00163253
-0.00267894
0.00167986
-0.00302724
0.00173378
-0.00338638
0.00179387
-0.00375752
0.0018598
-0.00414175
0.00193092
-0.00453993
0.00200635
0.00208724
-0.0049531
-0.00015392
0.000919099
-0.000425192
0.00160877
-0.000729658
0.00180111
-0.00103957
0.00183386
-0.00135142
0.0018494
-0.00166684
0.00187579
-0.0019876
0.00191321
-0.00231527
0.0019602
-0.00265124
0.00201583
-0.0029968
0.00207934
-0.00335316
0.00215023
-0.00372149
0.00222813
-0.00410288
0.00231231
-0.00449821
0.00240168
0.00249746
-0.00490843
-0.000149738
0.00106884
-0.000416149
0.00187518
-0.000716578
0.00210153
-0.00102299
0.00214027
-0.0013315
0.00215791
-0.00164364
0.00218792
-0.00196116
0.00223073
-0.00228558
0.00228462
-0.0026183
0.00234855
-0.00296059
0.00242163
-0.00331365
0.00250329
-0.00367863
0.00259312
-0.00405663
0.00269031
-0.00444854
0.00279359
0.00290414
-0.00485523
-0.000144898
0.00121374
-0.000405666
0.00213595
-0.000701408
0.00239728
-0.00100377
0.00244263
-0.00130842
0.00246257
-0.00161677
0.00249627
-0.00193052
0.00254448
-0.00225119
0.00260529
-0.00258015
0.00267751
-0.00291865
0.00276013
-0.00326788
0.00285252
-0.00362898
0.00295422
-0.00400304
0.00306437
-0.00439097
0.00318152
0.00330671
-0.00479354
-0.000139409
0.00135314
-0.000393749
0.00239029
-0.000684152
0.00268768
-0.000981911
0.00274039
-0.00128219
0.00276285
-0.00158623
0.00280031
-0.00189572
0.00285397
-0.00221214
0.00292171
-0.00253682
0.0030022
-0.00287102
0.00309432
-0.00321589
0.00319739
-0.00357256
0.00331089
-0.00394215
0.00343396
-0.00432555
0.00356493
0.00370458
-0.00472343
-0.000133277
0.00148642
-0.000380405
0.00263742
-0.000664815
0.00297209
-0.000957424
0.003033
-0.00125282
0.00305825
-0.00155206
0.00309955
-0.00185678
0.00315869
-0.00216844
0.00323337
-0.00248836
0.00332211
-0.00281774
0.00342371
-0.00315773
0.00353738
-0.00350945
0.00366261
-0.00387402
0.00379853
-0.00425234
0.00394325
0.00409719
-0.00464495
-0.000126515
0.00161294
-0.000365642
0.00287655
-0.000643401
0.00324985
-0.000930316
0.00331991
-0.00122033
0.00334826
-0.00151427
0.00339349
-0.00181374
0.00345816
-0.00212015
0.00353978
-0.00243479
0.00363675
-0.00275885
0.00374776
-0.00309344
0.00387197
-0.00343968
0.00400886
-0.0037987
0.00415755
-0.00417141
0.00431595
0.00448399
-0.00455821
-0.000119134
0.00173207
-0.000349471
0.00310689
-0.000619916
0.00352029
-0.000900594
0.00360059
-0.00118473
0.00363239
-0.00147289
0.00368165
-0.00176662
0.00375189
-0.00206729
0.00384045
-0.00237617
0.00394563
-0.00269441
0.004066
-0.00302309
0.00420066
-0.00336333
0.00434909
-0.00371627
0.00451049
-0.00408283
0.00468252
0.00486445
-0.00446328
-0.00011115
0.00184322
-0.000331904
0.00332764
-0.000594367
0.00378275
-0.000868268
0.00387449
-0.00114603
0.00391016
-0.00142794
0.00396356
-0.00171546
0.00403941
-0.00200992
0.00413491
-0.00231255
0.00424826
-0.00262448
0.00437793
-0.00294675
0.00452292
-0.00328045
0.00468279
-0.00362679
0.00485682
-0.0039867
0.00504243
0.00523805
-0.0043603
-0.000102579
0.0019458
-0.000312957
0.00353802
-0.000566763
0.00403656
-0.000833349
0.00414108
-0.00110427
0.00418107
-0.00137946
0.00423875
-0.0016603
0.00432025
-0.00194809
0.0044227
-0.002244
0.00454417
-0.00254914
0.00468306
-0.00286449
0.00483828
-0.00319113
0.00500943
-0.00353032
0.00519602
-0.00388311
0.00539522
0.00560432
-0.00424938
-9.3443e-05
0.00203924
-0.000292646
0.00373722
-0.000537114
0.00428103
-0.000795849
0.00439981
-0.00105945
0.00444468
-0.00132748
0.00450678
-0.00160119
0.00459397
-0.00188185
0.00470336
-0.00217058
0.00483291
-0.00246845
0.00498093
-0.0027764
0.00514622
-0.00309542
0.00532845
-0.0034269
0.0055275
-0.00377212
0.00574043
0.00596287
-0.00413067
-8.37678e-05
0.00212301
-0.000270993
0.00392444
-0.000505431
0.00451547
-0.00075578
0.00465016
-0.00101161
0.00470051
-0.00127203
0.00476719
-0.00153818
0.00486012
-0.00181127
0.00497644
-0.00209237
0.00511401
-0.00238252
0.00527108
-0.00268261
0.00544631
-0.00299349
0.00563933
-0.00331665
0.00585067
-0.00365386
0.00607764
0.00631341
-0.0040044
-7.35871e-05
0.0021966
-0.000248021
0.00409888
-0.00047173
0.00473918
-0.000713159
0.00489159
-0.000960774
0.00494813
-0.00121316
0.00501957
-0.00147132
0.00511829
-0.00173641
0.00524152
-0.00200944
0.00538704
-0.00229141
0.00555305
-0.00258316
0.00573806
-0.00288533
0.0059415
-0.00319932
0.00616465
-0.00352795
0.00640628
0.00665612
-0.00387066
-6.2933e-05
0.00225953
-0.000223758
0.0042597
-0.000436026
0.00495144
-0.000668001
0.00512356
-0.000906962
0.00518709
-0.0011509
0.00526351
-0.00140068
0.00536807
-0.00165734
0.00549819
-0.00192188
0.00565158
-0.00219525
0.00582642
-0.00247832
0.00602113
-0.00277153
0.00623471
-0.00307571
0.00646884
-0.00339497
0.00672554
0.00699177
-0.00373062
-5.17919e-05
0.00231132
-0.000198233
0.00440614
-0.000398339
0.00515155
-0.000620325
0.00534555
-0.000850208
0.00541697
-0.00108531
0.00549861
-0.0013263
0.00560905
-0.00157416
0.00574605
-0.0018298
0.00590722
-0.00209411
0.00609073
-0.00236797
0.00629499
-0.00265167
0.00651842
-0.00294468
0.00676184
-0.00325098
0.00703184
0.00732368
-0.0035829
-4.02024e-05
0.00235153
-0.000171483
0.00453743
-0.000358692
0.00533876
-0.000570153
0.00555701
-0.000790544
0.00563736
-0.00101643
0.0057245
-0.00124825
0.00584088
-0.00148693
0.00598473
-0.00173329
0.00615358
-0.00198815
0.00634559
-0.00225243
0.00655927
-0.00252688
0.00679286
-0.00281058
0.00704554
-0.00310158
0.00732284
0.00765759
-0.00343548
-2.82019e-05
0.00237973
-0.000143552
0.00465278
-0.000317113
0.00551232
-0.000517513
0.00575741
-0.000728005
0.00584785
-0.00094431
0.0059408
-0.00116662
0.00606319
-0.00139575
0.00621387
-0.00163248
0.00639031
-0.00187754
0.00659064
-0.00213175
0.00681348
-0.00239596
0.00705708
-0.00267055
0.00732014
-0.00295669
0.00760898
0.00793426
-0.00323337
-1.58023e-05
0.00239553
-0.000114474
0.00475145
-0.000273633
0.00567148
-0.000462441
0.00594622
-0.000662632
0.00604804
-0.000869007
0.00614718
-0.00108145
0.00627563
-0.0013007
0.00643312
-0.00152747
0.00661707
-0.00176238
0.00682556
-0.00200613
0.00705723
-0.00225956
0.00731051
-0.00252316
0.00758373
-0.00279531
0.00788113
0.00821613
-0.00307718
-2.7959e-06
0.00239833
-8.42637e-05
0.00483292
-0.000228294
0.00581551
-0.000404986
0.00612291
-0.000594467
0.00623753
-0.000790577
0.00634329
-0.000992842
0.0064779
-0.00120188
0.00664216
-0.00141835
0.00683354
-0.00164282
0.00705003
-0.00187588
0.00729029
-0.00211835
0.00755298
-0.00237128
0.00783666
-0.00263499
0.00814484
0.00848633
-0.00290519
9.63487e-06
0.00238869
-5.28248e-05
0.00489537
-0.00018118
0.00594386
-0.000345213
0.00628694
-0.000523554
0.00641587
-0.000709079
0.00652881
-0.000900861
0.00666968
-0.00109939
0.00684068
-0.00130526
0.00703941
-0.00151901
0.00726378
-0.00174119
0.00751247
-0.00197261
0.0077844
-0.00221448
0.00807854
-0.00246696
0.00839732
0.00874588
-0.00272652
2.22411e-05
0.00236645
-1.94786e-05
0.00493709
-0.000132501
0.00605689
-0.000283188
0.00643763
-0.000449944
0.00658262
-0.000624578
0.00670344
-0.00080559
0.00685069
-0.000993316
0.00702841
-0.0011883
0.0072344
-0.00139106
0.00746654
-0.00160211
0.00772352
-0.00182225
0.00800453
-0.00205258
0.00830887
-0.00229294
0.00863767
0.00899332
-0.00254037
3.46963e-05
0.00233175
1.33545e-05
0.00495844
-8.27072e-05
0.00615295
-0.000218959
0.00657388
-0.000373699
0.00673736
-0.000537144
0.00686689
-0.00070711
0.00702066
-0.000883767
0.00720507
-0.0010676
0.00741823
-0.00125908
0.00765802
-0.00145872
0.00792316
-0.00166725
0.00821306
-0.00188566
0.00852728
-0.00211377
0.00886578
0.00922848
-0.00234893
4.6808e-05
0.00228495
4.41659e-05
0.00496108
-3.15699e-05
0.00622868
-0.000152612
0.00669492
-0.000294913
0.00687966
-0.00044685
0.00701883
-0.000605506
0.00717932
-0.00077084
0.0073704
-0.000943256
0.00759064
-0.0011232
0.00783796
-0.00131113
0.0081111
-0.00150772
0.00840965
-0.00171383
0.00873339
-0.00192933
0.00908128
0.00945136
-0.0021522
5.87309e-05
0.00222621
7.65741e-05
0.00494324
2.12718e-05
0.00628399
-8.42961e-05
0.00680049
-0.000213658
0.00700902
-0.000353767
0.00715894
-0.000500864
0.00732641
-0.000654638
0.00752418
-0.000815397
0.0077514
-0.000983533
0.0080061
-0.00115948
0.00828705
-0.00134383
0.008594
-0.00153727
0.00892683
-0.00173969
0.0092837
0.00966138
-0.00194971
7.03478e-05
0.00215587
0.000109425
0.00490416
7.466e-05
0.00631875
-1.41596e-05
0.00688931
-0.000130026
0.00712489
-0.000257973
0.00728688
-0.000393275
0.00746171
-0.00053527
0.00766617
-0.000684143
0.00790027
-0.000840232
0.00816219
-0.00100393
0.00845074
-0.00117572
0.00876579
-0.00135618
0.0091073
-0.00154518
0.00947269
0.0098579
-0.0017417
8.1445e-05
0.00207442
0.000142293
0.00484331
0.000129223
0.00633182
5.77873e-05
0.00696075
-4.42663e-05
0.00722694
-0.000159563
0.00740218
-0.000282841
0.00758499
-0.000412848
0.00779618
-0.000549624
0.00803705
-0.000693439
0.008306
-0.000844626
0.00860193
-0.00100359
0.00892475
-0.00117078
0.00927449
-0.00134608
0.00964799
0.0100405
-0.0015287
9.1828e-05
0.00198259
0.00017486
0.00476028
0.000184452
0.00632223
0.000131409
0.00701379
4.39946e-05
0.00731436
-5.87219e-05
0.0075049
-0.000169685
0.00769596
-0.000287493
0.00791398
-0.000411977
0.00816153
-0.000543309
0.00843734
-0.000681749
0.00874037
-0.000827611
0.00907061
-0.000981282
0.00942816
-0.00114266
0.00980937
0.010209
-0.0013111
0.000101317
0.00188128
0.000206777
0.00465482
0.000240012
0.00628899
0.000206449
0.00704735
0.000134556
0.00738625
4.46991e-05
0.00759475
-5.40282e-05
0.00779468
-0.000159356
0.00801931
-0.000271347
0.00827352
-0.000390011
0.008556
-0.000515482
0.00886584
-0.000648011
0.00920314
-0.000787912
0.00956806
-0.000935191
0.00995665
0.010363
-0.00108919
0.000109732
0.00177154
0.000237657
0.00452689
0.000295534
0.00623112
0.000282585
0.0070603
0.000226878
0.00744196
0.000150773
0.00767086
6.44521e-05
0.007881
-2.88025e-05
0.00811257
-0.000127924
0.00837265
-0.000233738
0.00866181
-0.000346002
0.00897811
-0.000465028
0.00932217
-0.00059091
0.00969394
-0.000723987
0.0100897
0.0105023
-0.000863294
0.000116898
0.00165465
0.000267088
0.0043767
0.000350584
0.00614762
0.000359495
0.00705139
0.000320876
0.00748058
0.000258826
0.00773291
0.000185505
0.00795432
0.000104937
0.00819313
1.78846e-05
0.0084597
-7.4735e-05
0.00875443
-0.000173533
0.0090769
-0.000278952
0.00942759
-0.000390475
0.00980547
-0.000509296
0.0102085
0.0106267
-0.000633772
0.000122654
0.00153199
0.000294629
0.00420473
0.000404655
0.00603759
0.000436779
0.00701927
0.000416295
0.00750106
0.000368869
0.00778033
0.000308674
0.00801452
0.00024094
0.00826087
0.000167087
0.00853355
8.71332e-05
0.00883439
9.75473e-07
0.00916306
-9.01389e-05
0.0095187
-0.000187022
0.00990235
-0.000291223
0.0103127
0.0107366
-0.000401096
0.000126862
0.00140513
0.000319809
0.00401178
0.000457166
0.00590024
0.00051395
0.00696249
0.000512809
0.0075022
0.000480708
0.00781244
0.000433942
0.00806128
0.000379125
0.00831569
0.000318214
0.00859446
0.000251657
0.00890094
0.000179615
0.0092351
0.000101738
0.00959658
1.83114e-05
0.00998578
-6.90772e-05
0.0104001
0.0108336
-0.000166021
0.000129415
0.00127572
0.000342135
0.00379906
0.000507453
0.00573492
0.000590421
0.00687952
0.000610013
0.00748261
0.000594085
0.00782836
0.000561139
0.00809423
0.000519392
0.00835743
0.000471533
0.00864232
0.000418307
0.00895417
0.00035985
0.00929356
0.00029626
0.00966017
0.000227876
0.0100542
0.000153873
0.0104741
0.0109149
7.25093e-05
0.00013025
0.00114547
0.000361092
0.00356822
0.000554758
0.00554125
0.000665492
0.00676878
0.0007074
0.0074407
0.000708683
0.00782708
0.000690055
0.00811286
0.000661575
0.00838591
0.000626864
0.00867703
0.000586996
0.00899404
0.000542269
0.00933829
0.000492824
0.00970961
0.000438833
0.0101082
0.000380112
0.0105329
0.0109779
0.000317132
0.000129356
0.00101611
0.000376078
0.0033215
0.000598238
0.00531909
0.000738332
0.00662869
0.000804344
0.00737469
0.0008241
0.00780732
0.000820436
0.00811652
0.000805482
0.00840087
0.000784014
0.0086985
0.000757563
0.00902049
0.000726614
0.00936924
0.000691343
0.00974488
0.000651995
0.0101475
0.000608778
0.0105761
0.0110249
0.000561765
0.000126781
0.000889329
0.000386604
0.00306167
0.000636979
0.00506872
0.00080797
0.0064577
0.000900072
0.00728259
0.000939826
0.00776757
0.000951965
0.00810438
0.000950888
0.00840195
0.000942786
0.0087066
0.000929806
0.00903347
0.000912655
0.00938639
0.000891607
0.00976593
0.000866967
0.0101721
0.000838843
0.0106042
0.0110565
0.000807238
0.000122633
0.000766696
0.000392273
0.00279203
0.00067001
0.00479098
0.000873276
0.00625443
0.000993634
0.00716223
0.00105522
0.00770599
0.00108425
0.00807535
0.00109753
0.00838866
0.00110297
0.00870117
0.00110351
0.00903292
0.00110017
0.00938973
0.00109334
0.00977276
0.00108334
0.0101821
0.00107012
0.0106174
0.0110731
0.00105356
0.000117071
0.000649626
0.000392788
0.00251632
0.000696317
0.00448745
0.000932959
0.00601779
0.00108388
0.00701131
0.00116945
0.00762042
0.00121677
0.00802803
0.0012451
0.00836033
0.00126432
0.00868194
0.00127846
0.00901879
0.00128894
0.00937925
0.00129628
0.00976542
0.00130085
0.0101776
0.00130255
0.0106157
0.0110746
0.00130099
0.000110296
0.00053933
0.000388
0.00223861
0.000714877
0.00416057
0.000985568
0.0057471
0.00116944
0.00682744
0.00128149
0.00750837
0.00134887
0.00796065
0.00139318
0.00831601
0.00142658
0.00864854
0.00145443
0.00899094
0.00147873
0.00935495
0.00150022
0.00974394
0.00151932
0.0101585
0.00153601
0.010599
0.0110611
0.0015496
0.000102546
0.000436784
0.000377951
0.00196321
0.000724722
0.0038138
0.00102951
0.00544231
0.00124866
0.00660829
0.00139003
0.007367
0.00147969
0.00787099
0.00154127
0.00825443
0.00158942
0.00860039
0.00163117
0.00894919
0.00166935
0.00931677
0.00170496
0.00970832
0.00173854
0.0101249
0.00177024
0.0105673
0.0110324
0.00179894
9.40846e-05
0.000342699
0.000362902
0.00169439
0.000725016
0.00345169
0.00106309
0.00510424
0.00131964
0.00635174
0.00149348
0.00719316
0.00160811
0.00775636
0.00168867
0.00817387
0.00175242
0.00853665
0.00180841
0.0088932
0.00186054
0.00926463
0.00191028
0.00965859
0.00195828
0.0100769
0.00200493
0.0105207
0.0109886
0.00204864
8.51814e-05
0.000257518
0.000343343
0.00143623
0.000715164
0.00307987
0.00108456
0.00473484
0.0013802
0.00605611
0.00158983
0.00698352
0.00173267
0.00761352
0.00183448
0.00807206
0.00191506
0.00845607
0.00198581
0.00882245
0.00205208
0.00919837
0.00211596
0.00959471
0.00217833
0.0100145
0.00223984
0.0104592
0.01093
0.00229843
7.60961e-05
0.000181422
0.000319972
0.00119235
0.000694943
0.0027049
0.00109228
0.0043375
0.00142791
0.00572049
0.00167671
0.00673472
0.00185152
0.00743871
0.00197747
0.00794611
0.00207661
0.00835693
0.00216297
0.0087361
0.00224368
0.00911765
0.00232179
0.0095166
0.00239845
0.00993786
0.00247474
0.0103829
0.0108567
0.00254806
6.70594e-05
0.000114362
0.000293659
0.000965754
0.000664621
0.00233393
0.0010848
0.00391732
0.00146017
0.00534512
0.00175129
0.0064436
0.00196229
0.0072277
0.00211601
0.00779239
0.0022361
0.00823684
0.00233931
0.00863289
0.00243501
0.00902196
0.00252751
0.00942409
0.00261845
0.00984692
0.00270944
0.0102919
0.0107689
0.00279729
5.82606e-05
5.61017e-05
0.000265366
0.000758648
0.00062504
0.00197426
0.00106111
0.00348124
0.00147435
0.00493188
0.00181031
0.00610764
0.00206203
0.00697599
0.00224791
0.00760651
0.00239214
0.00809261
0.00251407
0.00851095
0.00262563
0.00891039
0.00273288
0.00931685
0.00283814
0.00974166
0.00294377
0.0101863
0.0106667
0.00304594
4.98395e-05
6.26218e-06
0.000236059
0.000572429
0.000577609
0.00163271
0.00102086
0.00303799
0.00146796
0.00448479
0.00185018
0.00572542
0.00214713
0.00667904
0.00237031
0.00738333
0.00254282
0.0079201
0.00268614
0.00836764
0.00281496
0.00878157
0.00293757
0.00919424
0.00305729
0.00962194
0.00317754
0.010066
0.0105504
0.00329384
4.18846e-05
-3.56224e-05
0.000206607
0.000407707
0.000524185
0.00131513
0.000964604
0.00259757
0.00143899
0.0040104
0.00186708
0.00529733
0.00221334
0.00633278
0.00247953
0.00711714
0.00268552
0.00771411
0.0028539
0.00819926
0.00300213
0.00863334
0.00314114
0.00905524
0.00327569
0.00948739
0.00341061
0.00993108
0.0104202
0.00354082
3.44312e-05
-7.00536e-05
0.000177697
0.000264441
0.000466862
0.00102597
0.000893945
0.00217049
0.00138628
0.00351807
0.00185729
0.00482631
0.0022558
0.00593427
0.00257097
0.00680197
0.00281668
0.0074684
0.00301505
0.00800089
0.00318583
0.00846256
0.00334294
0.00889814
0.00349301
0.00933731
0.00364283
0.00978126
0.0102762
0.00378679
2.74688e-05
-9.75224e-05
0.000149801
0.000142109
0.0004077
0.000768068
0.000811511
0.00176668
0.00130992
0.00301965
0.00181762
0.00431862
0.00226926
0.00548263
0.00263901
0.00643222
0.00293158
0.00717582
0.00316629
0.00776618
0.00336409
0.00826476
0.00354196
0.00872026
0.00370881
0.00917047
0.00387394
0.00961613
0.0101185
0.00403165
2.09527e-05
-0.000118475
0.000123187
3.98748e-05
0.000348503
0.000542752
0.000720686
0.0013945
0.00121168
0.00252866
0.00174599
0.0037843
0.00224848
0.00498014
0.00267714
0.00600357
0.00302416
0.0068288
0.00330297
0.00748737
0.00353394
0.00803378
0.00373659
0.00851762
0.00392232
0.00898473
0.00410376
0.00943469
0.00994713
0.00427516
1.4826e-05
-0.000133301
9.79883e-05
-4.32875e-05
0.000290686
0.000350054
0.000625174
0.00106001
0.00109504
0.00205879
0.00164218
0.00323716
0.00218895
0.00443337
0.00267825
0.00551427
0.00308691
0.00642014
0.00341884
0.00715544
0.00369098
0.00776164
0.00392428
0.00828432
0.0041323
0.00877672
0.00433155
0.00923543
0.00976119
0.00451749
9.05012e-06
-0.000142351
7.42892e-05
-0.000108527
0.000235305
0.000189039
0.000528567
0.000766745
0.00096506
0.0016223
0.00150847
0.00269375
0.00208782
0.00385402
0.00263531
0.00496679
0.00311104
0.00594441
0.00350563
0.00676085
0.00382892
0.00743835
0.00410092
0.00801232
0.00433668
0.00854096
0.00455674
0.00901537
0.00956073
0.00475721
3.64196e-06
-0.000145993
5.22142e-05
-0.000157099
0.000183191
5.80614e-05
0.000434051
0.000515886
0.000827731
0.00122862
0.00134997
0.00217151
0.00194511
0.00325888
0.00254247
0.00436943
0.00308701
0.00539988
0.00355308
0.00629477
0.00393891
0.00705251
0.00426056
0.00769067
0.00453157
0.00826995
0.00477734
0.0087696
0.00934254
0.00499553
-1.43188e-06
-0.000144561
3.19838e-05
-0.000190514
0.000135132
-4.50872e-05
0.000344372
0.000306646
0.000689339
0.000883653
0.00117444
0.0016864
0.0017648
0.00266853
0.00239678
0.00373745
0.00300577
0.00479089
0.00354919
0.00575135
0.00400944
0.00659227
0.00439371
0.0073064
0.00471209
0.00795158
0.00499067
0.00849102
0.00910758
0.00522563
-6.00052e-06
-0.000138561
1.3971e-05
-0.000210486
9.19812e-05
-0.000123097
0.000261936
0.000136691
0.000555893
0.000589697
0.000991475
0.00125082
0.00155539
0.00210461
0.00220009
0.00309275
0.00286083
0.00413015
0.00348151
0.00513067
0.00402592
0.00604786
0.00448837
0.00684395
0.00486685
0.0075731
0.00519456
0.00816331
0.00884856
0.00545358
-9.77479e-06
-0.000128786
-1.25369e-06
-0.000219007
5.46433e-05
-0.000178994
0.000188906
2.42891e-06
0.000432795
0.000345808
0.000811364
0.000872251
0.00132952
0.00158645
0.00196079
0.00246148
0.00265123
0.00343971
0.00333948
0.00444242
0.00397236
0.00541498
0.00452651
0.0062898
0.00498712
0.00711249
0.00537109
0.00777933
0.00854719
0.00567246
-1.27616e-05
-0.000116024
-1.3741e-05
-0.000218028
2.38933e-05
-0.000216629
0.00012715
-0.000100828
0.000324613
0.000148345
0.000643929
0.000552935
0.00110237
0.00112801
0.00169418
0.00186967
0.00238466
0.00274924
0.00311856
0.00370852
0.003834
0.00469954
0.00448755
0.00563624
0.00504873
0.00655132
0.00550981
0.00731825
0.00813033
0.00592667
-1.48043e-05
-0.00010122
-2.2825e-05
-0.000210007
3.86668e-07
-0.00023984
7.79136e-05
-0.000178355
0.000234756
-8.49757e-06
0.000497427
0.000290263
0.000889389
0.000736046
0.00142088
0.00133818
0.00207917
0.00209095
0.00282532
0.00296237
0.00360248
0.00392238
0.0043521
0.00488662
0.0050297
0.00587372
0.00560849
0.00673946
0.00765027
0.00608855
-1.58715e-05
-8.53486e-05
-2.86159e-05
-0.000197263
-1.60726e-05
-0.000252384
4.1565e-05
-0.000235992
0.000165
-0.000131932
0.000377526
7.7737e-05
0.000703685
0.000409887
0.00116302
0.000878848
0.00176144
0.00149253
0.00248108
0.00224272
0.00328342
0.00312004
0.00410785
0.0040622
0.00489852
0.00508305
0.00561173
0.00602626
0.00707805
0.00618395
-1.60373e-05
-6.93113e-05
-3.13979e-05
-0.000181902
-2.58875e-05
-0.000257894
1.73219e-05
-0.000279202
0.000115036
-0.000229647
0.000286413
-9.36394e-05
0.000553698
0.000142602
0.000939472
0.000493074
0.00146115
0.000970845
0.00212007
0.00158381
0.00290205
0.00233805
0.00376032
0.00320393
0.00463676
0.00420661
0.0054907
0.00517232
0.00638866
0.00618008
-1.54761e-05
-5.38352e-05
-3.17559e-05
-0.000165622
-3.03411e-05
-0.000259309
3.20656e-06
-0.000312749
8.23443e-05
-0.000308785
0.000222317
-0.000233612
0.000441572
-7.66524e-05
0.000761351
0.000173295
0.0012031
0.000529099
0.00178087
0.00100604
0.00250103
0.0016179
0.00334172
0.00236323
0.00425298
0.00329536
0.00522261
0.00420269
0.00556981
0.00604147
-1.4439e-05
-3.93961e-05
-3.04951e-05
-0.000149566
-3.11316e-05
-0.000258672
-3.70282e-06
-0.000340178
6.2524e-05
-0.000375011
0.000179842
-0.000350931
0.000362882
-0.000259692
0.000629562
-9.33849e-05
0.00100012
0.000158536
0.00149398
0.000512178
0.00212778
0.0009841
0.00290597
0.00158504
0.00379155
0.00240978
0.00481356
0.00318068
0.0046314
0.00575197
-1.32149e-05
-2.61813e-05
-2.85231e-05
-0.000134258
-3.01855e-05
-0.00025701
-7.03141e-06
-0.000363332
5.01106e-05
-0.000432153
0.000151191
-0.000452011
0.000308075
-0.000416575
0.00053537
-0.000320681
0.000850067
-0.000156161
0.00127148
9.07624e-05
0.00181686
0.000438722
0.00250859
0.000893314
0.00332246
0.00159591
0.00431416
0.00218897
0.00361648
0.00532908
-1.20876e-05
-1.40937e-05
-2.67225e-05
-0.000119623
-2.93419e-05
-0.00025439
-9.92548e-06
-0.000382749
3.96378e-05
-0.000481717
0.000127943
-0.000540317
0.000265244
-0.000553876
0.00046393
-0.000519367
0.000738121
-0.000430351
0.00110464
-0.000275753
0.00157703
-3.36738e-05
0.00218251
0.000287837
0.00290997
0.000868445
0.00380659
0.00129235
0.00259182
0.00483126
-1.13005e-05
-2.79314e-06
-2.58447e-05
-0.000105079
-3.01538e-05
-0.000250081
-1.51668e-05
-0.000397736
2.64916e-05
-0.000523375
0.000102744
-0.000616569
0.000223189
-0.000674321
0.000399242
-0.000695421
0.000643564
-0.000674673
0.000970559
-0.000602748
0.00139091
-0.000454023
0.00192613
-0.000247388
0.00258048
0.000214101
0.00336175
0.000511077
0.00161905
0.00433452
-1.10326e-05
8.23945e-06
-2.64372e-05
-8.96742e-05
-3.37314e-05
-0.000242787
-2.47113e-05
-0.000406756
7.47754e-06
-0.000555564
7.04041e-05
-0.000679495
0.000173619
-0.000777535
0.00032842
-0.000850223
0.000547257
-0.00089351
0.000843201
-0.000898692
0.0012271
-0.000837923
0.0017108
-0.000731082
0.00231426
-0.00038936
0.00300085
-0.000175512
0.000726824
0.00389307
-1.13854e-05
1.96249e-05
-2.88088e-05
-7.22509e-05
-4.06747e-05
-0.000230921
-3.95497e-05
-0.000407881
-1.90229e-05
-0.000576091
2.82506e-05
-0.000726769
0.000112011
-0.000861296
0.000243795
-0.000982006
0.000436434
-0.00108615
0.000702775
-0.00116503
0.00105573
-0.00119087
0.00149996
-0.00117532
0.00206643
-0.000955829
0.00269355
-0.000802634
-9.08505e-05
0.00351123
-1.23822e-05
3.20071e-05
-3.30256e-05
-5.16075e-05
-5.10829e-05
-0.000212864
-5.98112e-05
-0.000399153
-5.32646e-05
-0.000582637
-2.4056e-05
-0.000755978
3.73531e-05
-0.000922705
0.000142888
-0.00108754
0.000305762
-0.00124902
0.000539265
-0.00139854
0.000858448
-0.00151006
0.0012657
-0.00158257
0.00179619
-0.00148633
0.00238837
-0.00139482
-0.000851515
0.00314904
-1.39723e-05
4.59794e-05
-3.8931e-05
-2.66489e-05
-6.46124e-05
-0.000187183
-8.4858e-05
-0.000378907
-9.4139e-05
-0.000573356
-8.53059e-05
-0.000764811
-4.8687e-05
-0.000959324
2.72617e-05
-0.00116349
0.000155905
-0.00137766
0.000351359
-0.00159399
0.000629768
-0.00178847
0.000995246
-0.00194804
0.00148208
-0.00197316
0.00204273
-0.00195546
-0.00156622
0.00275743
-1.60414e-05
6.20208e-05
-4.61809e-05
3.49066e-06
-8.05601e-05
-0.000152803
-0.000113484
-0.000345983
-0.000139814
-0.000547026
-0.000152734
-0.000751891
-0.00014301
-0.000969048
-9.91719e-05
-0.00120733
-7.99872e-06
-0.00146884
0.000143631
-0.00174562
0.000373581
-0.00201842
0.000689231
-0.00226369
0.00112171
-0.00240565
0.00164025
-0.002474
-0.0022318
0.00230584
-1.84242e-05
8.0445e-05
-5.42859e-05
3.93524e-05
-9.79616e-05
-0.000109128
-0.00014409
-0.000299855
-0.000187913
-0.000503202
-0.000223082
-0.000716722
-0.00024101
-0.00095112
-0.000231069
-0.00121727
-0.000180825
-0.00151908
-7.58265e-05
-0.00185062
9.92513e-05
-0.0021935
0.00035699
-0.00252143
0.00072475
-0.00277341
0.00118638
-0.00293563
-0.00283769
0.00179227
-2.09182e-05
0.000101363
-6.26597e-05
8.10939e-05
-0.00011569
-5.60976e-05
-0.00017486
-0.000240685
-0.000235783
-0.000442279
-0.000292716
-0.000659789
-0.000337968
-0.000905868
-0.00036198
-0.00119326
-0.00035331
-0.00152775
-0.000298449
-0.00190548
-0.000181177
-0.00231077
1.3526e-05
-0.00271614
0.000307289
-0.00306717
0.000699787
-0.00332813
-0.00337118
0.00123328
-2.33014e-05
0.000124665
-7.06651e-05
0.000128458
-0.000132548
5.78533e-06
-0.000203905
-0.000169328
-0.000280709
-0.000365476
-0.000357932
-0.000582566
-0.00042897
-0.000834831
-0.000485559
-0.00113667
-0.000517516
-0.00149579
-0.000512279
-0.00191072
-0.000454462
-0.00236858
-0.000328295
-0.0028423
-0.000112278
-0.00328319
0.000204479
-0.00364489
-0.00381806
0.000651358
-2.53476e-05
0.000150012
-7.76622e-05
0.000180772
-0.000147356
7.54791e-05
-0.000229395
-8.72891e-05
-0.000320085
-0.000274786
-0.000415172
-0.000487478
-0.000509241
-0.000740762
-0.000595456
-0.00105045
-0.000665078
-0.00142617
-0.000706814
-0.00186898
-0.000706458
-0.00236894
-0.000647686
-0.00290107
-0.000509093
-0.00342178
-0.000279186
-0.00387479
-0.00416478
6.7532e-05
-2.68435e-05
0.000176856
-8.30525e-05
0.000236981
-0.000159025
0.000151451
-0.00024966
3.34634e-06
-0.000351545
-0.000172901
-0.000461186
-0.000377836
-0.000574359
-0.000627589
-0.000685672
-0.000939141
-0.000787909
-0.00132393
-0.000871318
-0.00178557
-0.000923194
-0.00231706
-0.00092785
-0.00289642
-0.000866339
-0.00348329
-0.000724519
-0.00401661
-0.00441506
-0.000474244
-2.76046e-05
-8.63188e-05
-0.000166621
-0.000263285
-0.000373079
-0.000493186
-0.000620458
-0.000750841
-0.000878607
-0.000995654
-0.00109108
-0.00115097
-0.00115903
-0.00109961
-0.000949181
-0.00520108
0.000171415
-0.00529934
0.00012186
-0.00538121
0.000107643
-0.00543042
7.62982e-05
-0.00547153
6.34216e-05
-0.00549269
3.99466e-05
-0.00550963
2.74445e-05
-0.00551383
8.23858e-06
-0.00551581
-2.95501e-06
-0.00550909
-1.93503e-05
-0.0055009
-2.88281e-05
-0.00548679
-4.08219e-05
-0.00547163
-4.66688e-05
-0.00545236
-5.37175e-05
-0.00543222
-5.51365e-05
-0.00540912
-5.6808e-05
-0.00538521
-5.35959e-05
-0.00535907
-5.00561e-05
-0.00533209
-4.26229e-05
-3.4645e-05
-0.00519113
0.000326781
-0.0052899
0.000220623
-0.0053723
0.000190051
-0.0054221
0.000126096
-0.00546381
0.000105131
-0.00548556
6.16923e-05
-0.00550311
4.49975e-05
-0.00550787
1.30036e-05
-0.00551044
-3.87791e-07
-0.00550426
-2.55319e-05
-0.00549663
-3.64559e-05
-0.00548304
-5.4414e-05
-0.00546839
-6.13199e-05
-0.00544961
-7.24999e-05
-0.00542994
-7.48082e-05
-0.00540731
-7.94349e-05
-0.00538385
-7.70548e-05
-0.00535817
-7.57352e-05
-0.00533164
-6.91552e-05
-6.29822e-05
-0.00517291
0.000482902
-0.00527242
0.000320133
-0.0053558
0.000273429
-0.00540652
0.000176815
-0.00544929
0.000147907
-0.00547203
8.44325e-05
-0.00549067
6.36288e-05
-0.00549647
1.88039e-05
-0.00549998
3.12646e-06
-0.00549485
-3.06591e-05
-0.00548825
-4.30621e-05
-0.00547564
-6.7024e-05
-0.00546195
-7.50081e-05
-0.00544412
-9.03313e-05
-0.00542538
-9.35492e-05
-0.00540367
-0.000101136
-0.00538113
-9.96044e-05
-0.00535636
-0.000100502
-0.00533073
-9.47853e-05
-9.04096e-05
-0.00514644
0.000640109
-0.00524697
0.000420666
-0.0053317
0.000358163
-0.00538371
0.000228822
-0.00542799
0.000192191
-0.00545215
0.000108589
-0.00547231
8.37908e-05
-0.00547956
2.60474e-05
-0.00548453
8.10329e-06
-0.00548089