/*--------------------------------*- C++ -*----------------------------------*\
  =========                 |
  \\      /  F ield         | OpenFOAM: The Open Source CFD Toolbox
   \\    /   O peration     | Website:  https://openfoam.org
    \\  /    A nd           | Version:  7
     \\/     M anipulation  |
\*---------------------------------------------------------------------------*/
FoamFile
{
    version     2.0;
    format      ascii;
    class       volScalarField;
    location    "20";
    object      p;
}
// * * * * * * * * * * * * * * * * * * * * * * * * * * * * * * * * * * * * * //

dimensions      [0 2 -2 0 0 0 0];

internalField   nonuniform List<scalar> 
1360
(
0.76145
0.735163
0.711085
0.687212
0.663118
0.638713
0.614133
0.589641
0.565511
0.54198
0.519223
0.497364
0.476483
0.456618
0.437777
0.419943
0.403114
0.38736
0.735738
0.710949
0.688517
0.666362
0.643965
0.621176
0.598098
0.574979
0.552094
0.529684
0.507937
0.486989
0.46693
0.447809
0.429635
0.41238
0.396102
0.381095
0.685474
0.663576
0.644328
0.625497
0.606393
0.586747
0.566596
0.546158
0.525706
0.505492
0.485723
0.466557
0.448109
0.43045
0.413583
0.397467
0.382268
0.368715
0.595109
0.580363
0.56625
0.551837
0.536689
0.52074
0.504163
0.487222
0.470182
0.453276
0.436693
0.420581
0.40504
0.390075
0.375616
0.361978
0.350512
0.499285
0.490977
0.482373
0.472824
0.462136
0.450413
0.4379
0.424873
0.411593
0.398284
0.385135
0.372284
0.359736
0.347384
0.335715
0.326865
0.40445
0.40266
0.400628
0.397467
0.392823
0.386711
0.37934
0.370991
0.361947
0.352469
0.342789
0.333092
0.323383
0.313501
0.3041
0.298275
0.304764
0.309665
0.313314
0.315176
0.31515
0.313392
0.31017
0.305783
0.30052
0.294658
0.288432
0.281856
0.274642
0.267512
0.264806
0.223358
0.231843
0.238084
0.242158
0.244302
0.244816
0.244004
0.242166
0.239579
0.236295
0.231868
0.226686
0.226495
0.157927
0.167753
0.175229
0.180635
0.184273
0.186428
0.187359
0.187306
0.186486
0.18474
0.180173
0.105225
0.115473
0.123626
0.129985
0.134832
0.138537
0.141668
0.144022
0.142095
0.0733541
0.0818283
0.0888832
0.095141
0.100544
0.101604
0.0485465
0.0564315
0.0604575
0.37376
0.361842
0.350854
0.34072
0.33137
0.322737
0.31476
0.307384
0.300559
0.294239
0.288385
0.282958
0.277925
0.273257
0.268926
0.264908
0.261181
0.257724
0.254519
0.251551
0.248801
0.246255
0.243907
0.241749
0.239766
0.23795
0.236291
0.234784
0.233421
0.232197
0.231107
0.230146
0.229311
0.228597
0.228004
0.227526
0.227163
0.226917
0.226795
0.226781
0.368409
0.357189
0.346785
0.337147
0.328217
0.31994
0.312268
0.305153
0.298552
0.292425
0.286737
0.281454
0.276547
0.271988
0.267753
0.263818
0.260164
0.256771
0.253623
0.250705
0.248003
0.245499
0.243174
0.241048
0.239095
0.237303
0.235667
0.234178
0.232832
0.231623
0.230546
0.229596
0.22877
0.228066
0.227479
0.227007
0.226648
0.226406
0.226287
0.226273
0.357818
0.347979
0.338731
0.330072
0.321973
0.314404
0.307335
0.300737
0.294579
0.288835
0.283478
0.278481
0.273823
0.26948
0.265434
0.261664
0.258155
0.25489
0.251854
0.249034
0.24642
0.244005
0.241771
0.239679
0.237775
0.236031
0.234436
0.232984
0.23167
0.23049
0.229438
0.22851
0.227703
0.227014
0.226441
0.22598
0.225631
0.225396
0.225279
0.225266
0.342208
0.334402
0.326851
0.319633
0.312758
0.306232
0.300054
0.29422
0.288719
0.28354
0.278671
0.274098
0.269807
0.265785
0.262018
0.258493
0.255197
0.25212
0.24925
0.246576
0.244089
0.241783
0.239655
0.237691
0.235847
0.234141
0.232617
0.231225
0.229962
0.228824
0.227809
0.226914
0.226135
0.225469
0.224915
0.22447
0.224133
0.223907
0.223794
0.223782
0.321867
0.316702
0.311353
0.306011
0.300735
0.295574
0.290564
0.285731
0.281092
0.276655
0.272427
0.268409
0.264599
0.260996
0.257594
0.254388
0.251371
0.248539
0.245884
0.2434
0.241081
0.23892
0.236913
0.235056
0.23335
0.231784
0.230305
0.228951
0.227749
0.226668
0.225701
0.224847
0.224102
0.223466
0.222936
0.22251
0.222187
0.22197
0.221861
0.221848
0.297233
0.295277
0.292598
0.289531
0.286197
0.28269
0.279093
0.275469
0.271866
0.268323
0.264865
0.261514
0.258284
0.255185
0.252223
0.249403
0.246725
0.24419
0.241797
0.239544
0.237428
0.235447
0.233598
0.231877
0.230284
0.228816
0.227469
0.226243
0.225105
0.224075
0.223153
0.222347
0.221645
0.221044
0.220542
0.220138
0.219832
0.219624
0.219517
0.219502
0.268345
0.27004
0.270368
0.269898
0.26881
0.267244
0.265326
0.263158
0.260819
0.258371
0.255865
0.253341
0.250829
0.248356
0.245939
0.243593
0.241331
0.239159
0.237083
0.235109
0.233238
0.231473
0.229812
0.228257
0.226807
0.225462
0.22422
0.223082
0.222041
0.2211
0.220257
0.219501
0.218839
0.218271
0.217795
0.217413
0.217122
0.216921
0.216811
0.21679
0.236698
0.243162
0.247386
0.250186
0.251801
0.25246
0.252377
0.251726
0.250645
0.249247
0.247619
0.245834
0.243948
0.242006
0.240044
0.238089
0.236164
0.234285
0.232465
0.230714
0.22904
0.227447
0.22594
0.22452
0.22319
0.22195
0.220801
0.219741
0.218771
0.217889
0.217096
0.216389
0.215768
0.215231
0.21478
0.214408
0.214118
0.213912
0.21379
0.213756
0.183026
0.195381
0.204607
0.211639
0.217008
0.221036
0.223979
0.226041
0.227393
0.228171
0.228491
0.228447
0.228117
0.227565
0.226845
0.226001
0.225069
0.224078
0.223053
0.222014
0.220977
0.219955
0.218959
0.217997
0.217077
0.216204
0.215383
0.214616
0.213906
0.213255
0.212666
0.212139
0.211674
0.211274
0.210937
0.210665
0.210456
0.210314
0.21024
0.210226
0.165892
0.176372
0.184895
0.191939
0.19772
0.202401
0.206136
0.209069
0.211325
0.213013
0.214227
0.215049
0.215548
0.215783
0.215804
0.215655
0.215371
0.214983
0.214516
0.213993
0.213432
0.212847
0.212252
0.211657
0.211071
0.210501
0.209954
0.209435
0.208946
0.208493
0.208078
0.207702
0.207368
0.207078
0.206831
0.20663
0.206474
0.206365
0.206308
0.206296
0.148918
0.158501
0.166621
0.173645
0.179679
0.184812
0.18914
0.192757
0.195751
0.198204
0.20019
0.201775
0.203016
0.203967
0.204672
0.205171
0.205499
0.205685
0.205755
0.205731
0.205633
0.205477
0.205278
0.205046
0.204794
0.204529
0.204258
0.20399
0.203728
0.203477
0.203241
0.203023
0.202826
0.202652
0.202503
0.20238
0.202284
0.202218
0.202182
0.202174
0.13461
0.143474
0.151235
0.158148
0.164265
0.169635
0.17432
0.178382
0.181884
0.184885
0.187442
0.189608
0.19143
0.192951
0.194212
0.195247
0.196087
0.196761
0.197293
0.197704
0.198014
0.198239
0.198394
0.198491
0.198542
0.198556
0.198541
0.198504
0.198452
0.19839
0.198323
0.198253
0.198186
0.198123
0.198066
0.198018
0.197979
0.197952
0.197938
0.197935
0.123127
0.131366
0.138727
0.145411
0.151447
0.156863
0.1617
0.165998
0.169803
0.173157
0.176102
0.17868
0.180927
0.182879
0.184569
0.186027
0.187281
0.188354
0.189269
0.190047
0.190704
0.191258
0.191721
0.192106
0.192425
0.192687
0.192901
0.193074
0.193213
0.193323
0.19341
0.193477
0.193529
0.193568
0.193597
0.193618
0.193632
0.193642
0.193646
0.193648
0.113728
0.121398
0.128361
0.134774
0.140651
0.146012
0.150881
0.155288
0.159262
0.162835
0.166038
0.168902
0.171456
0.173729
0.175747
0.177534
0.179116
0.180511
0.181741
0.182822
0.183771
0.184602
0.185329
0.185963
0.186516
0.186996
0.187411
0.187771
0.18808
0.188344
0.18857
0.188761
0.18892
0.189052
0.189159
0.189243
0.189306
0.189349
0.189372
0.189377
0.106035
0.113182
0.119755
0.125878
0.131556
0.136799
0.141625
0.146053
0.150103
0.153798
0.157162
0.160216
0.162984
0.165488
0.167749
0.169788
0.171624
0.173273
0.174755
0.176082
0.177271
0.178334
0.179282
0.180128
0.180879
0.181547
0.182137
0.182659
0.183117
0.183517
0.183866
0.184166
0.184422
0.184636
0.184813
0.184954
0.18506
0.185133
0.185172
0.18518
0.0997359
0.106406
0.112607
0.118437
0.123895
0.128985
0.13372
0.138111
0.142172
0.145921
0.149373
0.152545
0.155455
0.15812
0.160557
0.162781
0.16481
0.166656
0.168335
0.16986
0.171242
0.172494
0.173625
0.174646
0.175565
0.176391
0.17713
0.17779
0.178377
0.178895
0.17935
0.179746
0.180086
0.180373
0.180611
0.180802
0.180947
0.181046
0.181099
0.18111
0.0945714
0.10081
0.106665
0.11221
0.117442
0.122362
0.126977
0.131295
0.135325
0.139079
0.142568
0.145805
0.148802
0.151574
0.154133
0.156491
0.158662
0.160657
0.162489
0.164167
0.165703
0.167107
0.168387
0.169551
0.170609
0.171566
0.172431
0.173208
0.173903
0.174522
0.175068
0.175545
0.175958
0.176308
0.176599
0.176833
0.177012
0.177135
0.177199
0.177213
0.0903331
0.0961859
0.101723
0.107
0.112011
0.116756
0.121238
0.125462
0.129433
0.13316
0.13665
0.139913
0.142958
0.145795
0.148434
0.150886
0.153159
0.155264
0.157211
0.159008
0.160664
0.162187
0.163585
0.164866
0.166036
0.167102
0.16807
0.168944
0.16973
0.170433
0.171056
0.171603
0.172077
0.172481
0.172817
0.173088
0.173295
0.173438
0.173513
0.173529
0.0868542
0.092366
0.097616
0.102646
0.107449
0.112022
0.116367
0.120486
0.124383
0.128062
0.13153
0.134792
0.137856
0.140728
0.143417
0.14593
0.148274
0.150458
0.15249
0.154376
0.156123
0.15774
0.159231
0.160604
0.161865
0.163018
0.16407
0.165024
0.165885
0.166657
0.167344
0.167949
0.168475
0.168923
0.169298
0.1696
0.169832
0.169991
0.170075
0.170093
0.0840016
0.0892153
0.0942103
0.0990169
0.103627
0.108038
0.11225
0.116262
0.120078
0.123699
0.127129
0.130373
0.133435
0.136321
0.139036
0.141587
0.143978
0.146217
0.148309
0.150261
0.152077
0.153765
0.155328
0.156774
0.158106
0.159329
0.160447
0.161466
0.162388
0.163217
0.163956
0.164609
0.165177
0.165663
0.166069
0.166397
0.166649
0.166822
0.166913
0.166933
0.0816699
0.086626
0.0913979
0.0960062
0.100443
0.104705
0.108792
0.112701
0.116434
0.119992
0.123377
0.126592
0.12964
0.132525
0.13525
0.137821
0.140242
0.142517
0.144652
0.14665
0.148517
0.150258
0.151876
0.153377
0.154764
0.156042
0.157214
0.158284
0.159254
0.160129
0.160911
0.161602
0.162205
0.162722
0.163154
0.163503
0.163771
0.163956
0.164053
0.164074
0.0797758
0.0845126
0.0890924
0.0935282
0.0978127
0.101942
0.105914
0.109728
0.113382
0.116878
0.120215
0.123396
0.126422
0.129296
0.132021
0.134601
0.137038
0.139335
0.141498
0.143529
0.145433
0.147212
0.148872
0.150415
0.151844
0.153164
0.154377
0.155487
0.156496
0.157408
0.158223
0.158945
0.159576
0.160117
0.16057
0.160936
0.161218
0.161411
0.161514
0.161536
0.078254
0.0828075
0.0872252
0.0915144
0.095668
0.0996823
0.103554
0.107282
0.110865
0.114301
0.117592
0.120737
0.123739
0.126598
0.129316
0.131896
0.13434
0.136651
0.138831
0.140885
0.142813
0.144621
0.14631
0.147884
0.149346
0.150698
0.151943
0.153083
0.154122
0.155062
0.155903
0.15665
0.157302
0.157863
0.158332
0.158712
0.159004
0.159205
0.159311
0.159334
0.077054
0.081458
0.0857427
0.0899106
0.0939552
0.0978726
0.10166
0.105314
0.108834
0.112218
0.115467
0.118579
0.121555
0.124397
0.127105
0.129681
0.132126
0.134444
0.136635
0.138703
0.140649
0.142476
0.144186
0.145783
0.147268
0.148643
0.149912
0.151076
0.152138
0.153098
0.15396
0.154725
0.155395
0.15597
0.156452
0.156843
0.157143
0.15735
0.157459
0.157482
0.0761372
0.0804237
0.0846032
0.0886747
0.0926322
0.0964718
0.10019
0.103784
0.107252
0.110593
0.113805
0.116888
0.119842
0.122667
0.125364
0.127934
0.130379
0.132698
0.134896
0.136972
0.138929
0.140769
0.142495
0.144107
0.145608
0.147001
0.148287
0.149468
0.150546
0.151523
0.1524
0.153179
0.153861
0.154447
0.154939
0.155337
0.155644
0.155855
0.155966
0.15599
0.0754746
0.0796741
0.0837755
0.087775
0.0916672
0.095448
0.0991141
0.102662
0.106091
0.109398
0.112581
0.115641
0.118577
0.121388
0.124076
0.12664
0.129081
0.131401
0.133601
0.135682
0.137647
0.139495
0.14123
0.142853
0.144366
0.145771
0.147069
0.148262
0.149351
0.150339
0.151227
0.152015
0.152706
0.1533
0.153798
0.154203
0.154513
0.154728
0.154841
0.154865
0.0750471
0.0791888
0.0832378
0.0871889
0.0910372
0.0947785
0.0984093
0.101927
0.105328
0.108612
0.111776
0.11482
0.117743
0.120544
0.123224
0.125783
0.128222
0.130542
0.132743
0.134827
0.136795
0.138649
0.14039
0.142019
0.143539
0.144951
0.146256
0.147457
0.148553
0.149548
0.150443
0.151237
0.151934
0.152533
0.153036
0.153444
0.153757
0.153973
0.154087
0.154112
0.0748501
0.0789569
0.0829766
0.0869019
0.0907273
0.0944483
0.0980612
0.101563
0.104951
0.108223
0.111377
0.114412
0.117329
0.120125
0.122801
0.125358
0.127795
0.130114
0.132316
0.134401
0.136371
0.138227
0.13997
0.141603
0.143126
0.144541
0.14585
0.147054
0.148155
0.149153
0.15005
0.150848
0.151547
0.152149
0.152654
0.153064
0.153379
0.153596
0.15371
0.153735
0.167826
0.152787
0.136205
0.122673
0.111819
0.103034
0.0959503
0.0902444
0.0856458
0.0819365
0.0789427
0.0765266
0.0745797
0.0730177
0.0717749
0.0708011
0.0700584
0.0695174
0.0691596
0.0689954
0.13179
0.120391
0.108146
0.0984281
0.090632
0.0843613
0.0793611
0.0753835
0.0722193
0.0696999
0.067691
0.066087
0.0648053
0.0637819
0.0629676
0.0623249
0.0618256
0.0614463
0.0611712
0.0610326
0.0940555
0.0858505
0.0777029
0.0719274
0.0675789
0.0642259
0.0616473
0.0596585
0.0581191
0.0569228
0.0559888
0.0552558
0.0546767
0.054216
0.0538461
0.0535465
0.0533019
0.053097
0.0529178
0.0528081
0.0577838
0.0542178
0.0501999
0.0478461
0.0463778
0.0454442
0.0448857
0.0445776
0.0444314
0.044386
0.0444004
0.0444467
0.0445052
0.0445623
0.0446077
0.0446343
0.0446371
0.0446082
0.0445345
0.0444616
)
;

boundaryField
{
    inlet
    {
        type            zeroGradient;
    }
    outlet
    {
        type            fixedValue;
        value           nonuniform 0();
    }
    cylinder
    {
        type            zeroGradient;
    }
    top
    {
        type            symmetryPlane;
    }
    bottom
    {
        type            symmetryPlane;
    }
    defaultFaces
    {
        type            empty;
    }
    procBoundary0to1
    {
        type            processor;
        value           nonuniform List<scalar> 
50
(
0.797006
0.769879
0.716862
0.612914
0.612914
0.508515
0.508515
0.40752
0.299744
0.299744
0.201091
0.212865
0.212865
0.130717
0.145572
0.145572
0.0772864
0.0925794
0.0925794
0.0360405
0.0507451
0.0630856
0.0630856
0.0178134
0.0295495
0.0396066
0.0396066
0.0033287
0.0134103
0.0201848
0.0224138
0.0239117
0.0242708
0.0253075
0.0265175
0.0277273
0.0289183
0.0300642
0.031128
0.0320907
0.0329465
0.0336943
0.034336
0.0348743
0.0353123
0.0356528
0.035899
0.0360494
0.0360928
0.0360696
)
;
    }
    procBoundary0to4
    {
        type            processor;
        value           nonuniform List<scalar> 
58
(
0.76145
0.735163
0.711085
0.687212
0.663118
0.638713
0.614133
0.589641
0.565511
0.54198
0.519223
0.497364
0.476483
0.456618
0.437777
0.419943
0.403114
0.38736
0.37376
0.361842
0.350854
0.34072
0.33137
0.322737
0.31476
0.307384
0.300559
0.294239
0.288385
0.282958
0.277925
0.273257
0.268926
0.264908
0.261181
0.257724
0.254519
0.251551
0.248801
0.246255
0.243907
0.241749
0.239766
0.23795
0.236291
0.234784
0.233421
0.232197
0.231107
0.230146
0.229311
0.228597
0.228004
0.227526
0.227163
0.226917
0.226795
0.226781
)
;
    }
}


// ************************************************************************* //
