/*--------------------------------*- C++ -*----------------------------------*\
  =========                 |
  \\      /  F ield         | OpenFOAM: The Open Source CFD Toolbox
   \\    /   O peration     | Website:  https://openfoam.org
    \\  /    A nd           | Version:  7
     \\/     M anipulation  |
\*---------------------------------------------------------------------------*/
FoamFile
{
    version     2.0;
    format      ascii;
    class       volScalarField;
    location    "50";
    object      p;
}
// * * * * * * * * * * * * * * * * * * * * * * * * * * * * * * * * * * * * * //

dimensions      [0 2 -2 0 0 0 0];

internalField   nonuniform List<scalar> 
3500
(
-0.18193
-0.17564
-0.169639
-0.163528
-0.157659
-0.152025
-0.146663
-0.141574
-0.136755
-0.132199
-0.127905
-0.123867
-0.120081
-0.116543
-0.113246
-0.110187
-0.10736
-0.10476
-0.102383
-0.100222
-0.0982734
-0.0965333
-0.0949972
-0.0936615
-0.0925228
-0.0915785
-0.0908259
-0.0902632
-0.0898889
-0.089702
-0.179662
-0.173554
-0.167722
-0.161786
-0.15608
-0.150603
-0.145387
-0.140436
-0.135745
-0.131309
-0.127124
-0.123188
-0.119496
-0.116043
-0.112825
-0.109837
-0.107074
-0.104532
-0.102206
-0.100092
-0.0981842
-0.0964801
-0.0949751
-0.0936661
-0.0925499
-0.091624
-0.090886
-0.0903341
-0.0899669
-0.0897836
-0.177333
-0.171403
-0.16574
-0.159979
-0.154436
-0.149114
-0.144045
-0.13923
-0.134666
-0.130349
-0.126276
-0.122442
-0.118843
-0.115476
-0.112337
-0.109421
-0.106723
-0.104239
-0.101966
-0.0998984
-0.0980325
-0.0963648
-0.0948916
-0.0936099
-0.0925167
-0.0916096
-0.0908865
-0.0903456
-0.0899858
-0.0898061
-0.174945
-0.16919
-0.163696
-0.158109
-0.152728
-0.14756
-0.142637
-0.137959
-0.133523
-0.129325
-0.125361
-0.121629
-0.118125
-0.114845
-0.111784
-0.10894
-0.106308
-0.103884
-0.101663
-0.0996434
-0.0978198
-0.096189
-0.0947482
-0.0934942
-0.0924244
-0.0915366
-0.0908286
-0.0902991
-0.0899467
-0.0897707
-0.1725
-0.166917
-0.161593
-0.156177
-0.150958
-0.145944
-0.141167
-0.136625
-0.132316
-0.128236
-0.124384
-0.120754
-0.117344
-0.11415
-0.111169
-0.108398
-0.105831
-0.103467
-0.1013
-0.0993283
-0.0975474
-0.0959543
-0.0945463
-0.0933205
-0.0922745
-0.0914062
-0.0907137
-0.0901956
-0.0898509
-0.0896787
-0.169999
-0.164588
-0.159432
-0.154188
-0.149129
-0.144269
-0.139636
-0.13523
-0.131048
-0.127087
-0.123345
-0.119817
-0.116502
-0.113395
-0.110494
-0.107795
-0.105295
-0.102991
-0.100878
-0.0989549
-0.0972171
-0.0956621
-0.0942873
-0.0930901
-0.0920682
-0.0912197
-0.090543
-0.0900366
-0.0896995
-0.0895312
-0.167444
-0.162203
-0.157216
-0.152141
-0.147243
-0.142537
-0.138048
-0.133778
-0.129722
-0.12588
-0.122247
-0.118822
-0.115601
-0.112581
-0.10976
-0.107135
-0.104701
-0.102457
-0.100399
-0.0985247
-0.0968305
-0.095314
-0.0939727
-0.0928044
-0.091807
-0.0909786
-0.0903177
-0.0898232
-0.089494
-0.0893296
-0.164838
-0.159766
-0.154947
-0.150041
-0.145303
-0.14075
-0.136405
-0.132269
-0.128341
-0.124616
-0.121094
-0.11777
-0.114644
-0.111711
-0.10897
-0.106418
-0.104051
-0.101868
-0.099865
-0.0980396
-0.0963893
-0.0949115
-0.0936041
-0.092465
-0.0914922
-0.0906841
-0.0900394
-0.0895568
-0.0892356
-0.0890751
-0.162181
-0.157278
-0.152627
-0.14789
-0.143312
-0.138911
-0.134709
-0.130708
-0.126905
-0.123299
-0.119886
-0.116665
-0.113632
-0.110787
-0.108126
-0.105647
-0.103348
-0.101225
-0.0992771
-0.0975012
-0.0958949
-0.0944562
-0.0931829
-0.0920732
-0.0911253
-0.0903377
-0.0897092
-0.0892388
-0.0889256
-0.0887691
-0.159478
-0.154742
-0.150258
-0.145689
-0.141271
-0.137022
-0.132963
-0.129096
-0.125419
-0.12193
-0.118626
-0.115507
-0.112569
-0.109811
-0.10723
-0.104824
-0.102592
-0.10053
-0.0986375
-0.0969111
-0.0953492
-0.0939497
-0.0927107
-0.0916305
-0.0907077
-0.0899408
-0.0893287
-0.0888704
-0.0885653
-0.0884129
-0.156729
-0.152161
-0.147844
-0.143442
-0.139183
-0.135085
-0.131169
-0.127436
-0.123884
-0.120512
-0.117318
-0.114299
-0.111455
-0.108784
-0.106283
-0.103951
-0.101786
-0.0997854
-0.0979478
-0.0962712
-0.0947537
-0.0933935
-0.0921889
-0.0911385
-0.0902409
-0.0894947
-0.0888991
-0.0884531
-0.0881562
-0.0880078
-0.153937
-0.149536
-0.145386
-0.141151
-0.137051
-0.133104
-0.12933
-0.12573
-0.122303
-0.119047
-0.115962
-0.113044
-0.110294
-0.107709
-0.105289
-0.10303
-0.100932
-0.0989921
-0.0972099
-0.095583
-0.09411
-0.0927893
-0.0916193
-0.0905987
-0.0897263
-0.089001
-0.088422
-0.0879883
-0.0876995
-0.0875552
-0.151104
-0.146871
-0.142888
-0.138819
-0.134877
-0.13108
-0.127448
-0.12398
-0.120677
-0.117538
-0.114561
-0.111744
-0.109087
-0.106589
-0.104248
-0.102062
-0.100031
-0.0981524
-0.0964254
-0.0948484
-0.0934199
-0.0921386
-0.0910032
-0.0900125
-0.0891654
-0.0884611
-0.0878986
-0.0874773
-0.0871968
-0.0870566
-0.148235
-0.144168
-0.140351
-0.136448
-0.132664
-0.129017
-0.125525
-0.12219
-0.11901
-0.115987
-0.113117
-0.110401
-0.107837
-0.105425
-0.103163
-0.10105
-0.0990857
-0.0972681
-0.0955962
-0.0940689
-0.0926849
-0.091443
-0.0903422
-0.0893814
-0.0885598
-0.0878763
-0.0873305
-0.0869216
-0.0866493
-0.0865132
-0.14533
-0.14143
-0.137779
-0.134042
-0.130415
-0.126917
-0.123565
-0.120361
-0.117304
-0.114396
-0.111633
-0.109017
-0.106546
-0.104219
-0.102036
-0.0999958
-0.0980978
-0.0963409
-0.094724
-0.0932463
-0.0919067
-0.0907042
-0.089638
-0.0887071
-0.0879107
-0.0872483
-0.086719
-0.0863225
-0.0860584
-0.0859265
-0.142393
-0.138659
-0.135175
-0.131602
-0.128131
-0.124782
-0.121569
-0.118496
-0.115562
-0.112767
-0.110111
-0.107594
-0.105215
-0.102973
-0.100869
-0.098901
-0.0970692
-0.0953726
-0.0938106
-0.0923823
-0.0910869
-0.0899237
-0.088892
-0.0879909
-0.0872199
-0.0865783
-0.0860657
-0.0856816
-0.0854257
-0.0852978
-0.139428
-0.13586
-0.132541
-0.129131
-0.125817
-0.122615
-0.119541
-0.116597
-0.113785
-0.111103
-0.108554
-0.106135
-0.103847
-0.10169
-0.0996635
-0.0977675
-0.0960015
-0.094365
-0.0928575
-0.0914784
-0.0902272
-0.0891031
-0.0881057
-0.0872344
-0.0864886
-0.0858679
-0.0853718
-0.0850001
-0.0847524
-0.0846286
-0.136436
-0.133035
-0.129881
-0.126633
-0.123474
-0.120418
-0.117482
-0.114667
-0.111975
-0.109407
-0.106962
-0.104641
-0.102444
-0.100371
-0.098422
-0.0965974
-0.0948968
-0.09332
-0.0918667
-0.0905365
-0.0893291
-0.088244
-0.0872808
-0.0864391
-0.0857185
-0.0851185
-0.084639
-0.0842796
-0.0840401
-0.0839204
-0.133422
-0.130187
-0.127196
-0.124111
-0.121106
-0.118196
-0.115396
-0.112709
-0.110137
-0.10768
-0.105339
-0.103115
-0.101008
-0.099018
-0.0971462
-0.0953924
-0.0937567
-0.0922392
-0.0908397
-0.0895582
-0.0883944
-0.087348
-0.0864188
-0.0856065
-0.0849109
-0.0843316
-0.0838685
-0.0835213
-0.08329
-0.0831743
-0.130389
-0.12732
-0.124492
-0.121567
-0.118714
-0.115949
-0.113284
-0.110724
-0.10827
-0.105924
-0.103687
-0.101559
-0.0995407
-0.0976336
-0.095838
-0.0941544
-0.0925831
-0.0911244
-0.0897783
-0.0885451
-0.0874245
-0.0864166
-0.0855211
-0.0847381
-0.0840673
-0.0835086
-0.0830618
-0.0827269
-0.0825036
-0.082392
-0.127341
-0.124436
-0.121769
-0.119003
-0.116303
-0.11368
-0.11115
-0.108715
-0.106379
-0.104143
-0.102008
-0.0999745
-0.0980448
-0.0962194
-0.0944993
-0.0928852
-0.0913777
-0.0899773
-0.0886842
-0.0874988
-0.0864211
-0.0854513
-0.0845894
-0.0838354
-0.0831893
-0.0826509
-0.0822204
-0.0818975
-0.0816823
-0.0815747
-0.12428
-0.121539
-0.119033
-0.116425
-0.113874
-0.111394
-0.108996
-0.106686
-0.104466
-0.102338
-0.100303
-0.0983644
-0.0965219
-0.0947774
-0.0931321
-0.0915868
-0.0901424
-0.0887996
-0.087559
-0.0864209
-0.0853857
-0.0844537
-0.083625
-0.0828998
-0.0822781
-0.0817601
-0.0813456
-0.0810347
-0.0808275
-0.0807239
-0.12121
-0.118632
-0.116285
-0.113833
-0.111431
-0.109091
-0.106824
-0.104637
-0.102532
-0.100511
-0.0985765
-0.0967303
-0.0949741
-0.0933096
-0.091738
-0.0902608
-0.0888788
-0.0875931
-0.0864043
-0.0853131
-0.08432
-0.0834254
-0.0826296
-0.0819328
-0.0813354
-0.0808373
-0.0804388
-0.0801398
-0.0799405
-0.0798408
-0.118135
-0.115719
-0.113528
-0.111231
-0.108977
-0.106774
-0.104638
-0.102571
-0.10058
-0.0986647
-0.0968288
-0.0950744
-0.0934034
-0.0918177
-0.0903191
-0.088909
-0.0875887
-0.0863593
-0.0852217
-0.0841769
-0.0832253
-0.0823677
-0.0816044
-0.0809359
-0.0803624
-0.0798842
-0.0795014
-0.0792142
-0.0790227
-0.0789269
-0.115058
-0.112802
-0.110767
-0.108622
-0.106513
-0.104447
-0.102438
-0.100492
-0.0986119
-0.0968012
-0.0950626
-0.0933986
-0.0918116
-0.0903038
-0.0888771
-0.0875332
-0.0862737
-0.0850999
-0.084013
-0.0830138
-0.0821034
-0.0812823
-0.0805511
-0.0799104
-0.0793606
-0.078902
-0.0785348
-0.0782592
-0.0780755
-0.0779836
-0.111983
-0.109886
-0.108004
-0.10601
-0.104043
-0.102112
-0.100229
-0.0984006
-0.0966307
-0.0949227
-0.0932798
-0.0917049
-0.0902006
-0.0887695
-0.0874137
-0.0861351
-0.0849356
-0.0838166
-0.0827795
-0.0818255
-0.0809555
-0.0801705
-0.079471
-0.0788578
-0.0783314
-0.0778921
-0.0775403
-0.0772763
-0.0771001
-0.077012
-0.108913
-0.106973
-0.105242
-0.103396
-0.10157
-0.0997711
-0.0980123
-0.0962998
-0.0946381
-0.0930313
-0.0914826
-0.0899953
-0.0885725
-0.0872168
-0.0859307
-0.0847164
-0.0835759
-0.0825109
-0.081523
-0.0806134
-0.0797833
-0.0790338
-0.0783656
-0.0777795
-0.0772761
-0.0768559
-0.0765193
-0.0762666
-0.076098
-0.0760136
-0.105853
-0.104067
-0.102484
-0.100783
-0.0990958
-0.0974272
-0.0957903
-0.0941917
-0.0926365
-0.0911289
-0.0896728
-0.0882717
-0.0869288
-0.0856473
-0.0844298
-0.0832787
-0.0821963
-0.0811844
-0.0802448
-0.079379
-0.0785882
-0.0778736
-0.0772362
-0.0766768
-0.0761961
-0.0757947
-0.075473
-0.0752315
-0.0750703
-0.0749897
-0.102804
-0.101171
-0.0997339
-0.0981756
-0.0966237
-0.0950827
-0.0935654
-0.0920786
-0.0906278
-0.0892177
-0.0878524
-0.0865359
-0.0852716
-0.0840629
-0.0829127
-0.0818238
-0.0807984
-0.0798387
-0.0789466
-0.0781237
-0.0773716
-0.0766914
-0.0760842
-0.0755511
-0.0750927
-0.0747098
-0.0744029
-0.0741723
-0.0740184
-0.0739414
-0.0997718
-0.0982886
-0.0969935
-0.0955751
-0.0941561
-0.0927402
-0.0913399
-0.0899627
-0.0886143
-0.0872997
-0.0860234
-0.0847898
-0.0836025
-0.0824652
-0.0813811
-0.0803531
-0.0793836
-0.0784752
-0.0776297
-0.0768491
-0.0761348
-0.0754884
-0.074911
-0.0744037
-0.0739673
-0.0736025
-0.07331
-0.0730903
-0.0729436
-0.0728702
-0.0967583
-0.095422
-0.0942661
-0.0929845
-0.0916955
-0.0904018
-0.0891161
-0.0878461
-0.0865978
-0.0853767
-0.0841876
-0.0830351
-0.0819233
-0.080856
-0.0798366
-0.0788682
-0.0779536
-0.0770954
-0.0762956
-0.0755564
-0.0748794
-0.0742661
-0.0737179
-0.0732358
-0.072821
-0.0724741
-0.0721958
-0.0719866
-0.071847
-0.0717771
-0.0937671
-0.0925746
-0.0915546
-0.0904065
-0.0892444
-0.0880701
-0.0868963
-0.0857309
-0.0845805
-0.0834507
-0.0823469
-0.0812737
-0.0802356
-0.0792367
-0.0782807
-0.0773707
-0.0765098
-0.0757007
-0.0749458
-0.0742471
-0.0736065
-0.0730257
-0.0725061
-0.0720489
-0.0716551
-0.0713257
-0.0710614
-0.0708626
-0.0707299
-0.0706635
-0.0908014
-0.0897492
-0.0888616
-0.0878436
-0.0868051
-0.0857472
-0.0846824
-0.0836192
-0.0825642
-0.0815236
-0.0805029
-0.0795072
-0.0785412
-0.0776091
-0.0767149
-0.075862
-0.0750536
-0.0742926
-0.0735815
-0.0729224
-0.0723175
-0.0717685
-0.0712769
-0.070844
-0.0704709
-0.0701587
-0.069908
-0.0697194
-0.0695935
-0.0695304
-0.0878642
-0.0869488
-0.0861898
-0.0852983
-0.08438
-0.0834352
-0.0824767
-0.0815128
-0.0805509
-0.0795971
-0.0786575
-0.0777373
-0.0768415
-0.0759747
-0.0751408
-0.0743436
-0.0735865
-0.0728724
-0.0722041
-0.0715838
-0.0710138
-0.0704958
-0.0700316
-0.0696225
-0.0692696
-0.0689741
-0.0687368
-0.0685582
-0.0684389
-0.0683791
-0.0849583
-0.0841759
-0.0835417
-0.0827729
-0.0819713
-0.0811364
-0.080281
-0.0794138
-0.0785422
-0.077673
-0.0768122
-0.0759655
-0.0751382
-0.0743348
-0.0735598
-0.072817
-0.0721098
-0.0714415
-0.0708149
-0.0702325
-0.0696965
-0.0692088
-0.0687713
-0.0683854
-0.0680524
-0.0677732
-0.0675489
-0.0673801
-0.0672673
-0.0672108
-0.0820865
-0.0814331
-0.0809196
-0.0802697
-0.0795811
-0.0788528
-0.0780974
-0.0773239
-0.0765401
-0.0757528
-0.0749687
-0.0741935
-0.0734327
-0.0726911
-0.0719733
-0.0712833
-0.0706248
-0.0700011
-0.0694152
-0.0688696
-0.0683668
-0.0679087
-0.0674973
-0.067134
-0.0668203
-0.0665571
-0.0663455
-0.0661862
-0.0660797
-0.0660264
-0.0792513
-0.078723
-0.0783259
-0.0777908
-0.0772115
-0.0765861
-0.0759276
-0.0752449
-0.074546
-0.0738384
-0.0731286
-0.0724227
-0.0717264
-0.0710449
-0.0703827
-0.0697441
-0.0691329
-0.0685526
-0.0680062
-0.0674965
-0.0670259
-0.0665967
-0.0662106
-0.0658694
-0.0655745
-0.0653269
-0.0651277
-0.0649777
-0.0648773
-0.0648271
-0.0764553
-0.0760476
-0.0757627
-0.0753383
-0.0748643
-0.0743384
-0.0737733
-0.0731784
-0.0725618
-0.0719311
-0.0712932
-0.0706545
-0.0700208
-0.0693975
-0.0687892
-0.0682005
-0.0676352
-0.067097
-0.0665891
-0.0661142
-0.0656751
-0.0652738
-0.0649125
-0.0645927
-0.064316
-0.0640836
-0.0638965
-0.0637555
-0.0636611
-0.0636139
-0.0737008
-0.0734093
-0.0732321
-0.0729142
-0.0725415
-0.0721113
-0.0716364
-0.0711261
-0.0705888
-0.0700325
-0.0694642
-0.0688904
-0.0683173
-0.0677502
-0.0671942
-0.0666537
-0.066133
-0.0656356
-0.065165
-0.064724
-0.0643153
-0.0639412
-0.0636039
-0.0633049
-0.063046
-0.0628283
-0.0626529
-0.0625207
-0.0624322
-0.0623878
-0.0709899
-0.07081
-0.0707359
-0.0705201
-0.0702447
-0.0699066
-0.0695183
-0.0690894
-0.0686286
-0.0681439
-0.0676427
-0.0671316
-0.0666169
-0.0661043
-0.0655987
-0.065105
-0.0646274
-0.0641695
-0.063735
-0.0633268
-0.0629476
-0.0625999
-0.0622858
-0.0620071
-0.0617654
-0.061562
-0.0613981
-0.0612743
-0.0611915
-0.06115
-0.0683247
-0.0682515
-0.068276
-0.0681579
-0.0679757
-0.0677257
-0.0674205
-0.0670699
-0.0666826
-0.0662668
-0.0658301
-0.0653795
-0.0649211
-0.0644609
-0.0640041
-0.0635555
-0.0631195
-0.0626999
-0.0623002
-0.0619237
-0.0615731
-0.061251
-0.0609594
-0.0607003
-0.0604753
-0.0602857
-0.0601328
-0.0600173
-0.05994
-0.0599012
-0.0657068
-0.0657357
-0.0658539
-0.0658291
-0.0657358
-0.0655701
-0.0653445
-0.0650688
-0.064752
-0.0644024
-0.0640277
-0.0636351
-0.063231
-0.0628213
-0.0624114
-0.0620063
-0.0616104
-0.0612276
-0.0608617
-0.0605158
-0.0601928
-0.0598953
-0.0596255
-0.0593853
-0.0591765
-0.0590003
-0.0588581
-0.0587506
-0.0586786
-0.0586424
-0.063138
-0.063264
-0.0634713
-0.0635351
-0.0635265
-0.0634412
-0.0632916
-0.0630875
-0.062838
-0.0625518
-0.0622366
-0.0618996
-0.0615475
-0.0611864
-0.0608217
-0.0604584
-0.0601011
-0.0597539
-0.0594204
-0.059104
-0.0588077
-0.0585339
-0.0582851
-0.0580633
-0.05787
-0.0577068
-0.0575748
-0.0574751
-0.0574082
-0.0573746
-0.0606198
-0.0608378
-0.0611294
-0.0612774
-0.0613491
-0.0613402
-0.0612629
-0.0611271
-0.0609419
-0.0607162
-0.0604578
-0.0601742
-0.0598719
-0.0595573
-0.0592359
-0.0589127
-0.0585925
-0.0582794
-0.0579772
-0.0576892
-0.0574185
-0.0571677
-0.0569392
-0.0567349
-0.0565567
-0.056406
-0.056284
-0.0561916
-0.0561297
-0.0560986
-0.0581534
-0.0584585
-0.0588295
-0.059057
-0.0592048
-0.0592683
-0.0592596
-0.0591887
-0.0590647
-0.0588967
-0.0586925
-0.0584597
-0.0582051
-0.057935
-0.057655
-0.0573703
-0.0570857
-0.0568053
-0.0565331
-0.0562724
-0.0560263
-0.0557975
-0.0555884
-0.0554011
-0.0552374
-0.0550987
-0.0549863
-0.0549011
-0.0548439
-0.0548152
-0.05574
-0.0561271
-0.0565727
-0.0568751
-0.0570946
-0.0572265
-0.0572828
-0.0572733
-0.0572074
-0.0570941
-0.0569415
-0.0567572
-0.056548
-0.0563203
-0.0560799
-0.055832
-0.0555814
-0.0553324
-0.0550889
-0.0548543
-0.0546318
-0.0544242
-0.0542338
-0.0540628
-0.0539129
-0.0537857
-0.0536825
-0.0536043
-0.0535517
-0.0535253
-0.0533806
-0.0538446
-0.05436
-0.0547325
-0.0550194
-0.0552157
-0.0553333
-0.0553818
-0.0553709
-0.0553095
-0.0552058
-0.0550675
-0.0549015
-0.0547142
-0.0545115
-0.0542986
-0.0540805
-0.0538614
-0.0536453
-0.0534358
-0.0532359
-0.0530485
-0.052876
-0.0527206
-0.052584
-0.052468
-0.0523736
-0.052302
-0.0522538
-0.0522296
-0.0510759
-0.0516117
-0.0521921
-0.0526303
-0.0529802
-0.0532369
-0.0534119
-0.0535152
-0.0535561
-0.0535436
-0.0534862
-0.0533914
-0.0532663
-0.0531174
-0.0529505
-0.052771
-0.0525838
-0.0523932
-0.0522033
-0.0520176
-0.0518393
-0.0516712
-0.0515158
-0.0513753
-0.0512515
-0.0511461
-0.0510602
-0.0509949
-0.0509509
-0.0509288
-0.0488267
-0.0494293
-0.0500698
-0.050569
-0.0509777
-0.0512907
-0.0515196
-0.051674
-0.0517636
-0.0517972
-0.0517834
-0.0517297
-0.0516433
-0.0515306
-0.0513977
-0.0512498
-0.0510919
-0.0509284
-0.0507634
-0.0506004
-0.0504427
-0.050293
-0.050154
-0.0500277
-0.0499161
-0.0498208
-0.0497429
-0.0496837
-0.0496438
-0.0496237
-0.0466334
-0.0472978
-0.0479937
-0.0485493
-0.0490124
-0.0493778
-0.0496568
-0.0498591
-0.0499942
-0.050071
-0.0500981
-0.050083
-0.0500331
-0.0499546
-0.0498537
-0.0497357
-0.0496056
-0.0494678
-0.0493264
-0.049185
-0.0490467
-0.0489146
-0.0487911
-0.0486784
-0.0485784
-0.0484927
-0.0484226
-0.0483691
-0.048333
-0.0483149
-0.0444965
-0.0452176
-0.0459642
-0.0465717
-0.0470849
-0.0474987
-0.0478242
-0.048071
-0.0482484
-0.0483655
-0.0484309
-0.048452
-0.0484362
-0.04839
-0.0483192
-0.0482294
-0.0481255
-0.048012
-0.0478929
-0.0477719
-0.0476522
-0.0475367
-0.0474279
-0.0473281
-0.0472391
-0.0471626
-0.0470998
-0.0470518
-0.0470194
-0.047003
-0.0424161
-0.043189
-0.0439817
-0.0446366
-0.0451957
-0.045654
-0.0460223
-0.0463101
-0.0465268
-0.0466814
-0.0467823
-0.0468373
-0.0468534
-0.0468372
-0.0467947
-0.0467314
-0.0466522
-0.0465615
-0.0464635
-0.0463617
-0.0462595
-0.0461597
-0.0460649
-0.0459773
-0.0458988
-0.0458309
-0.0457751
-0.0457323
-0.0457034
-0.0456888
-0.0403924
-0.0412122
-0.0420463
-0.0427441
-0.043345
-0.0438439
-0.0442514
-0.0445769
-0.0448298
-0.045019
-0.0451528
-0.0452392
-0.045285
-0.0452969
-0.0452809
-0.0452423
-0.0451861
-0.0451169
-0.0450387
-0.0449551
-0.0448693
-0.0447844
-0.0447028
-0.0446266
-0.044558
-0.0444984
-0.0444491
-0.0444113
-0.0443856
-0.0443726
-0.0384253
-0.0392871
-0.0401582
-0.0408946
-0.0415331
-0.0420687
-0.0425119
-0.0428718
-0.0431577
-0.0433787
-0.0435429
-0.0436582
-0.0437316
-0.0437695
-0.043778
-0.0437625
-0.0437279
-0.0436788
-0.043619
-0.0435524
-0.0434822
-0.0434112
-0.0433419
-0.0432766
-0.0432173
-0.0431654
-0.0431224
-0.0430892
-0.0430666
-0.0430552
-0.0365147
-0.0374139
-0.0383175
-0.0390881
-0.0397602
-0.0403287
-0.040804
-0.041195
-0.041511
-0.0417609
-0.0419529
-0.0420947
-0.0421934
-0.0422554
-0.0422866
-0.0422925
-0.0422779
-0.0422474
-0.042205
-0.0421543
-0.0420985
-0.0420405
-0.0419829
-0.0419278
-0.0418772
-0.0418326
-0.0417954
-0.0417665
-0.0417469
-0.041737
-0.0346603
-0.0355922
-0.0365239
-0.0373246
-0.0380261
-0.0386239
-0.0391278
-0.0395466
-0.0398897
-0.0401658
-0.040383
-0.0405491
-0.0406709
-0.0407549
-0.040807
-0.0408326
-0.0408366
-0.0408234
-0.040797
-0.040761
-0.0407187
-0.0406729
-0.0406261
-0.0405806
-0.0405381
-0.0405003
-0.0404686
-0.0404439
-0.040427
-0.0404184
-0.0328618
-0.0338219
-0.0347774
-0.0356039
-0.0363311
-0.0369543
-0.0374833
-0.0379269
-0.0382941
-0.0385936
-0.0388336
-0.0390215
-0.0391643
-0.0392683
-0.0393396
-0.0393832
-0.0394042
-0.039407
-0.0393954
-0.0393731
-0.0393433
-0.0393088
-0.0392721
-0.0392354
-0.0392005
-0.0391691
-0.0391425
-0.0391216
-0.0391073
-0.0391
-0.0311187
-0.0321024
-0.0330777
-0.0339259
-0.0346748
-0.0353199
-0.0358707
-0.0363359
-0.0367242
-0.0370445
-0.0373046
-0.0375121
-0.0376738
-0.037796
-0.0378845
-0.0379446
-0.0379812
-0.0379985
-0.0380005
-0.0379908
-0.0379725
-0.0379484
-0.0379211
-0.0378926
-0.0378648
-0.0378394
-0.0378175
-0.0378002
-0.0377882
-0.0377821
-0.0294304
-0.0304336
-0.0314243
-0.0322903
-0.0330571
-0.0337205
-0.0342898
-0.0347734
-0.0351801
-0.0355184
-0.0357963
-0.036021
-0.0361995
-0.0363379
-0.036442
-0.036517
-0.0365676
-0.0365982
-0.0366127
-0.0366145
-0.0366067
-0.0365923
-0.0365735
-0.0365526
-0.0365314
-0.0365114
-0.0364939
-0.0364799
-0.0364702
-0.0364652
-0.0277965
-0.0288146
-0.029817
-0.0306967
-0.0314778
-0.032156
-0.0327405
-0.0332395
-0.0336617
-0.0340154
-0.0343086
-0.0345484
-0.0347417
-0.0348944
-0.0350123
-0.0351006
-0.0351639
-0.0352064
-0.0352321
-0.0352444
-0.0352463
-0.0352406
-0.0352297
-0.0352158
-0.0352006
-0.0351856
-0.0351722
-0.0351612
-0.0351535
-0.0351495
-0.0262161
-0.0272451
-0.0282551
-0.0291448
-0.0299364
-0.030626
-0.0312225
-0.0317339
-0.0321688
-0.0325355
-0.0328416
-0.0330943
-0.0333002
-0.0334655
-0.0335955
-0.0336955
-0.03377
-0.0338233
-0.0338591
-0.0338807
-0.0338914
-0.0338936
-0.0338899
-0.0338823
-0.0338726
-0.0338623
-0.0338525
-0.0338444
-0.0338386
-0.0338355
-0.0246884
-0.0257243
-0.026738
-0.027634
-0.0284326
-0.0291303
-0.0297356
-0.0302565
-0.0307014
-0.0310784
-0.0313951
-0.0316586
-0.0318752
-0.0320511
-0.0321917
-0.0323019
-0.0323863
-0.032449
-0.0324937
-0.0325238
-0.0325422
-0.0325517
-0.0325545
-0.0325526
-0.0325478
-0.0325417
-0.0325353
-0.0325297
-0.0325256
-0.0325234
-0.0232128
-0.0242515
-0.0252653
-0.0261637
-0.0269659
-0.0276683
-0.0282794
-0.0288069
-0.0292591
-0.029644
-0.0299691
-0.0302411
-0.0304666
-0.0306514
-0.0308008
-0.0309198
-0.0310127
-0.0310836
-0.0311362
-0.0311737
-0.0311991
-0.0312149
-0.0312235
-0.0312268
-0.0312265
-0.0312241
-0.0312208
-0.0312175
-0.0312149
-0.0312135
-0.0217882
-0.0228258
-0.023836
-0.0247334
-0.0255357
-0.0262396
-0.0268534
-0.0273848
-0.0278417
-0.0282321
-0.0285633
-0.0288419
-0.0290743
-0.0292663
-0.0294229
-0.0295492
-0.0296493
-0.0297272
-0.0297866
-0.0298306
-0.029862
-0.0298835
-0.0298972
-0.029905
-0.0299088
-0.0299098
-0.0299092
-0.029908
-0.0299068
-0.0299061
-0.0204137
-0.0214465
-0.0224495
-0.0233423
-0.0241414
-0.0248437
-0.0254573
-0.0259897
-0.0264489
-0.0268424
-0.0271775
-0.0274607
-0.0276982
-0.0278956
-0.028058
-0.0281901
-0.0282961
-0.0283799
-0.028445
-0.0284945
-0.0285312
-0.0285575
-0.0285757
-0.0285876
-0.0285949
-0.0285989
-0.0286007
-0.0286014
-0.0286014
-0.0286013
-0.0190883
-0.0201126
-0.021105
-0.0219897
-0.0227823
-0.0234799
-0.0240905
-0.0246213
-0.0250802
-0.0254745
-0.0258114
-0.0260972
-0.026338
-0.0265392
-0.0267058
-0.0268424
-0.0269531
-0.0270417
-0.0271115
-0.0271656
-0.0272067
-0.0272372
-0.0272592
-0.0272746
-0.027285
-0.0272916
-0.0272956
-0.0272978
-0.027299
-0.0272994
-0.0178111
-0.0188231
-0.0198014
-0.0206749
-0.0214577
-0.0221477
-0.0227524
-0.023279
-0.0237351
-0.0241281
-0.0244646
-0.0247512
-0.0249935
-0.0251969
-0.0253663
-0.0255061
-0.0256202
-0.0257125
-0.025786
-0.0258439
-0.0258886
-0.0259226
-0.0259478
-0.0259662
-0.0259792
-0.025988
-0.0259939
-0.0259975
-0.0259996
-0.0260006
-0.0165808
-0.0175771
-0.018538
-0.0193968
-0.0201668
-0.0208462
-0.0214423
-0.0219622
-0.0224132
-0.0228025
-0.0231369
-0.0234223
-0.0236645
-0.0238685
-0.0240393
-0.0241809
-0.0242974
-0.0243922
-0.0244686
-0.0245293
-0.0245769
-0.0246137
-0.0246416
-0.0246624
-0.0246776
-0.0246884
-0.0246958
-0.0247006
-0.0247035
-0.0247049
-0.0153965
-0.0163735
-0.0173137
-0.0181546
-0.0189088
-0.0195747
-0.0201596
-0.0206702
-0.0211139
-0.0214975
-0.0218276
-0.0221101
-0.0223505
-0.0225538
-0.0227245
-0.0228668
-0.0229845
-0.0230809
-0.0231591
-0.0232218
-0.0232716
-0.0233106
-0.0233406
-0.0233634
-0.0233803
-0.0233927
-0.0234014
-0.0234072
-0.0234108
-0.0234125
-0.0142568
-0.0152112
-0.0161274
-0.0169473
-0.0176827
-0.0183324
-0.0189034
-0.0194024
-0.0198365
-0.0202124
-0.0205364
-0.0208143
-0.0210513
-0.0212524
-0.0214217
-0.0215635
-0.0216812
-0.0217782
-0.0218574
-0.0219215
-0.0219727
-0.0220132
-0.0220448
-0.0220691
-0.0220874
-0.022101
-0.0221107
-0.0221174
-0.0221215
-0.0221235
-0.0131607
-0.014089
-0.0149781
-0.0157739
-0.0164876
-0.0171184
-0.0176729
-0.018158
-0.0185804
-0.0189466
-0.0192627
-0.0195343
-0.0197665
-0.0199639
-0.0201307
-0.0202708
-0.0203876
-0.0204843
-0.0205636
-0.0206282
-0.0206802
-0.0207216
-0.0207542
-0.0207796
-0.020799
-0.0208135
-0.020824
-0.0208313
-0.0208359
-0.0208381
-0.0121068
-0.0130058
-0.0138646
-0.0146333
-0.0153225
-0.0159316
-0.0164673
-0.0169362
-0.0173448
-0.0176994
-0.0180059
-0.0182697
-0.0184955
-0.018688
-0.018851
-0.0189883
-0.0191032
-0.0191986
-0.0192773
-0.0193417
-0.0193938
-0.0194357
-0.0194688
-0.0194948
-0.0195149
-0.01953
-0.0195411
-0.0195489
-0.0195537
-0.0195561
-0.011094
-0.0119602
-0.0127858
-0.0135243
-0.0141862
-0.0147712
-0.0152857
-0.0157362
-0.016129
-0.0164703
-0.0167655
-0.0170199
-0.017238
-0.0174243
-0.0175824
-0.0177159
-0.0178279
-0.0179213
-0.0179986
-0.0180621
-0.0181137
-0.0181554
-0.0181887
-0.0182149
-0.0182353
-0.0182508
-0.0182623
-0.0182703
-0.0182754
-0.0182778
-0.0101208
-0.010951
-0.0117402
-0.0124457
-0.0130776
-0.0136358
-0.014127
-0.014557
-0.0149321
-0.0152582
-0.0155406
-0.0157841
-0.0159933
-0.0161721
-0.0163243
-0.016453
-0.0165612
-0.0166518
-0.0167269
-0.0167889
-0.0168395
-0.0168806
-0.0169135
-0.0169396
-0.01696
-0.0169756
-0.0169872
-0.0169953
-0.0170005
-0.017003
-0.00918585
-0.00997683
-0.0107267
-0.0113964
-0.0119956
-0.0125248
-0.0129903
-0.0133979
-0.0137535
-0.0140628
-0.0143308
-0.0145622
-0.0147611
-0.0149314
-0.0150765
-0.0151996
-0.0153033
-0.0153902
-0.0154625
-0.0155224
-0.0155715
-0.0156114
-0.0156436
-0.0156692
-0.0156893
-0.0157047
-0.0157162
-0.0157244
-0.0157296
-0.0157321
-0.0082877
-0.00903609
-0.00974356
-0.0103745
-0.0109386
-0.0114364
-0.0118741
-0.0122573
-0.0125917
-0.0128826
-0.0131348
-0.0133527
-0.0135403
-0.0137011
-0.0138382
-0.0139547
-0.014053
-0.0141356
-0.0142046
-0.0142617
-0.0143088
-0.0143472
-0.0143782
-0.014403
-0.0144225
-0.0144376
-0.0144488
-0.0144568
-0.014462
-0.0144645
-0.00742492
-0.00812762
-0.00878987
-0.00937951
-0.00990595
-0.0103701
-0.010778
-0.011135
-0.0114466
-0.0117177
-0.0119528
-0.0121561
-0.0123312
-0.0124814
-0.0126097
-0.0127188
-0.0128111
-0.0128888
-0.0129537
-0.0130077
-0.0130522
-0.0130886
-0.0131182
-0.0131418
-0.0131605
-0.013175
-0.0131859
-0.0131936
-0.0131986
-0.013201
-0.00659571
-0.00724923
-0.0078632
-0.0084087
-0.00889504
-0.00932338
-0.00969954
-0.0100286
-0.0103158
-0.0105657
-0.0107825
-0.01097
-0.0111317
-0.0112704
-0.0113891
-0.0114901
-0.0115757
-0.0116478
-0.0117082
-0.0117585
-0.0118001
-0.0118342
-0.0118619
-0.0118842
-0.0119018
-0.0119155
-0.0119258
-0.0119332
-0.0119379
-0.0119402
-0.00579865
-0.00640012
-0.0069632
-0.00746215
-0.0079062
-0.00829675
-0.00863942
-0.00893906
-0.00920044
-0.00942788
-0.00962525
-0.00979602
-0.00994329
-0.0100698
-0.0101781
-0.0102704
-0.0103486
-0.0104147
-0.0104701
-0.0105162
-0.0105545
-0.010586
-0.0106116
-0.0106322
-0.0106486
-0.0106613
-0.0106709
-0.0106777
-0.0106821
-0.0106843
-0.00503152
-0.00557709
-0.00608606
-0.00653568
-0.00693507
-0.0072858
-0.0075932
-0.00786183
-0.00809607
-0.00829988
-0.00847675
-0.00862983
-0.00876189
-0.00887543
-0.00897266
-0.00905558
-0.00912597
-0.00918542
-0.00923537
-0.00927708
-0.00931168
-0.00934017
-0.0093634
-0.00938215
-0.00939706
-0.00940867
-0.00941744
-0.00942371
-0.00942775
-0.00942976
-0.00429297
-0.00478034
-0.00523311
-0.00563139
-0.00598428
-0.00629354
-0.00656424
-0.00680059
-0.00700659
-0.00718578
-0.0073413
-0.00747592
-0.00759208
-0.007692
-0.00777761
-0.00785067
-0.00791274
-0.00796522
-0.00800934
-0.00804624
-0.00807688
-0.00810213
-0.00812277
-0.00813944
-0.00815271
-0.00816307
-0.00817089
-0.0081765
-0.00818011
-0.00818185
-0.00357997
-0.00400447
-0.00439736
-0.00474139
-0.00504543
-0.00531129
-0.00554369
-0.0057464
-0.00592299
-0.00607656
-0.00620983
-0.0063252
-0.00642478
-0.00651047
-0.00658392
-0.00664663
-0.00669995
-0.00674506
-0.00678302
-0.00681479
-0.00684121
-0.006863
-0.00688083
-0.00689525
-0.00690675
-0.00691573
-0.00692252
-0.00692739
-0.00693055
-0.00693218
-0.00289156
-0.00325233
-0.00358436
-0.0038729
-0.00412684
-0.00434815
-0.00454124
-0.00470947
-0.00485593
-0.00498325
-0.00509373
-0.00518937
-0.00527194
-0.00534299
-0.00540392
-0.00545596
-0.00550022
-0.00553769
-0.00556924
-0.00559566
-0.00561764
-0.00563579
-0.00565065
-0.00566268
-0.00567228
-0.00567979
-0.00568546
-0.00568953
-0.00569216
-0.00569338
-0.00222316
-0.00251334
-0.0027797
-0.00300922
-0.00321045
-0.00338525
-0.00353748
-0.00366996
-0.00378522
-0.00388538
-0.00397228
-0.00404751
-0.00411246
-0.00416837
-0.00421632
-0.00425728
-0.00429214
-0.00432166
-0.00434653
-0.00436736
-0.00438471
-0.00439904
-0.00441078
-0.00442029
-0.00442789
-0.00443383
-0.00443833
-0.00444154
-0.00444364
-0.00444488
-0.00157481
-0.00179698
-0.001999
-0.00216953
-0.00231781
-0.00244574
-0.00255681
-0.0026533
-0.00273718
-0.00281006
-0.00287329
-0.00292801
-0.00297526
-0.00301592
-0.00305079
-0.00308059
-0.00310594
-0.00312741
-0.00314549
-0.00316065
-0.00317326
-0.00318369
-0.00319223
-0.00319915
-0.00320468
-0.003209
-0.00321228
-0.00321461
-0.00321608
-0.00321658
-0.000938454
-0.00107982
-0.00120887
-0.00131462
-0.00140631
-0.0014848
-0.00155275
-0.00161168
-0.00166287
-0.00170734
-0.00174591
-0.00177929
-0.0018081
-0.0018329
-0.00185416
-0.00187233
-0.00188778
-0.00190087
-0.0019119
-0.00192113
-0.00192882
-0.00193518
-0.00194038
-0.0019446
-0.00194797
-0.0019506
-0.0019526
-0.00195401
-0.0019549
-0.00195569
-0.000316676
-0.000385845
-0.000445204
-0.000488081
-0.000524211
-0.000553815
-0.000579168
-0.000601031
-0.000620027
-0.000636539
-0.00065087
-0.000663272
-0.000673969
-0.000683161
-0.000691032
-0.000697742
-0.000703439
-0.000708252
-0.000712298
-0.000715679
-0.000718485
-0.000720799
-0.000722688
-0.000724215
-0.00072543
-0.000726377
-0.000727095
-0.000727605
-0.00072781
-0.000727104
-0.18509
-0.182717
-0.180285
-0.177794
-0.175247
-0.172645
-0.16999
-0.167283
-0.164527
-0.161724
-0.158876
-0.155985
-0.153053
-0.150084
-0.14708
-0.144043
-0.140978
-0.137888
-0.134774
-0.131642
-0.128494
-0.125334
-0.122166
-0.118993
-0.115819
-0.112648
-0.109484
-0.106329
-0.103188
-0.100065
-0.0969622
-0.0938839
-0.090833
-0.0878129
-0.0848267
-0.081877
-0.0789667
-0.0760983
-0.0732742
-0.0704968
-0.0677682
-0.0650902
-0.0624645
-0.0598927
-0.0573762
-0.0549161
-0.0525134
-0.0501689
-0.0478834
-0.0456572
-0.0434909
-0.0413845
-0.0393382
-0.0373518
-0.0354252
-0.0335581
-0.0317501
-0.0300006
-0.0283091
-0.0266748
-0.0250971
-0.023575
-0.0221078
-0.0206944
-0.0193339
-0.0180252
-0.0167672
-0.0155589
-0.0143991
-0.0132866
-0.0122201
-0.0111986
-0.0102206
-0.00928486
-0.00839004
-0.00753477
-0.00671746
-0.00593678
-0.00519073
-0.00447821
-0.00379621
-0.00314468
-0.00251803
-0.00191964
-0.00133745
-0.000785268
-0.000235845
-0.188602
-0.18616
-0.183665
-0.181114
-0.178511