/*--------------------------------*- C++ -*----------------------------------*\
  =========                 |
  \\      /  F ield         | OpenFOAM: The Open Source CFD Toolbox
   \\    /   O peration     | Website:  https://openfoam.org
    \\  /    A nd           | Version:  7
     \\/     M anipulation  |
\*---------------------------------------------------------------------------*/
FoamFile
{
    version     2.0;
    format      ascii;
    class       surfaceScalarField;
    location    "50";
    object      phi;
}
// * * * * * * * * * * * * * * * * * * * * * * * * * * * * * * * * * * * * * //

dimensions      [0 3 -1 0 0 0 0];

internalField   nonuniform List<scalar> 
6869
(
-0.000197673
0.0147085
0.000228373
-0.000165624
0.015739
-0.000138527
0.0162044
-0.000116559
0.0163537
-9.83055e-05
0.016358
-8.26474e-05
0.0163064
-6.89364e-05
0.0162371
-5.6821e-05
0.0161645
-4.61073e-05
0.0160933
-3.66741e-05
0.0160243
-2.84285e-05
0.0159576
-2.12863e-05
0.0158931
-1.51646e-05
0.0158308
-9.9823e-06
0.0157709
-5.6608e-06
0.0157136
-2.12266e-06
0.0156591
7.05476e-07
0.0156076
2.89853e-06
0.0155593
4.516e-06
0.0155143
5.62093e-06
0.0154728
6.27465e-06
0.0154348
6.52635e-06
0.0154004
6.43467e-06
0.0153697
6.04671e-06
0.0153427
5.40953e-06
0.0153196
4.56807e-06
0.0153002
3.56528e-06
0.0152847
2.4426e-06
0.0152731
1.24059e-06
0.0152653
0.0152614
-0.000217781
0.0146792
0.000247098
-0.000186148
0.0157073
-0.000158764
0.016177
-0.000136153
0.0163311
-0.00011713
0.016339
-0.000100663
0.0162899
-8.61326e-05
0.0162226
-7.31961e-05
0.0161516
-6.16633e-05
0.0160817
-5.1414e-05
0.0160141
-4.2356e-05
0.0159486
-3.44055e-05
0.0158852
-2.74819e-05
0.0158239
-2.15052e-05
0.0157649
-1.63966e-05
0.0157085
-1.20801e-05
0.0156548
-8.48254e-06
0.015604
-5.53653e-06
0.0155564
-3.17429e-06
0.015512
-1.33487e-06
0.0154709
3.84233e-08
0.0154334
1.01449e-06
0.0153994
1.63296e-06
0.0153691
1.94649e-06
0.0153424
2.00376e-06
0.0153195
1.85077e-06
0.0153004
1.53162e-06
0.015285
1.08891e-06
0.0152735
5.64388e-07
0.0152658
0.015262
-0.000237271
0.0146512
0.000265278
-0.000206049
0.0156761
-0.000178401
0.0161493
-0.000155181
0.0163078
-0.000135421
0.0163192
-0.000118177
0.0162727
-0.000102856
0.0162072
-8.91284e-05
0.0161379
-7.68059e-05
0.0160694
-6.57693e-05
0.016003
-5.59268e-05
0.0159387
-4.71958e-05
0.0158764
-3.94969e-05
0.0158162
-3.27511e-05
0.0157582
-2.68807e-05
0.0157026
-2.18105e-05
0.0156497
-1.74684e-05
0.0155997
-1.37856e-05
0.0155527
-1.06961e-05
0.0155089
-8.13728e-06
0.0154684
-6.04888e-06
0.0154313
-4.37875e-06
0.0153977
-3.06932e-06
0.0153678
-2.07068e-06
0.0153414
-1.33425e-06
0.0153188
-8.13305e-07
0.0152999
-4.62722e-07
0.0152847
-2.38944e-07
0.0152733
-9.88509e-08
0.0152657
0.0152619
-0.000256152
0.0146245
0.000282921
-0.000225331
0.0156453
-0.000197441
0.0161214
-0.000173645
0.016284
-0.000153181
0.0162988
-0.000135188
0.0162547
-0.000119107
0.0161912
-0.000104618
0.0161234
-9.15345e-05
0.0160563
-7.9739e-05
0.0159912
-6.91397e-05
0.0159281
-5.96554e-05
0.0158669
-5.12073e-05
0.0158077
-4.37176e-05
0.0157507
-3.71096e-05
0.015696
-3.1309e-05
0.0156439
-2.62441e-05
0.0155946
-2.1846e-05
0.0155483
-1.80494e-05
0.0155051
-1.47915e-05
0.0154651
-1.20133e-05
0.0154285
-9.6582e-06
0.0153954
-7.67226e-06
0.0153658
-6.00341e-06
0.0153398
-4.60236e-06
0.0153174
-3.42163e-06
0.0152987
-2.41533e-06
0.0152837
-1.53884e-06
0.0152724
-7.48376e-07
0.0152649
0.0152611
-0.000274428
0.0145988
0.000300036
-0.000243999
0.0156149
-0.000215889
0.0160933
-0.000191547
0.0162597
-0.000170408
0.0162776
-0.000151698
0.016236
-0.000134887
0.0161743
-0.000119664
0.0161082
-0.000105849
0.0160425
-9.33222e-05
0.0159787
-8.19938e-05
0.0159168
-7.17827e-05
0.0158567
-6.26114e-05
0.0157986
-5.44028e-05
0.0157425
-4.70812e-05
0.0156887
-4.0573e-05
0.0156374
-3.4807e-05
0.0155888
-2.97148e-05
0.0155432
-2.52311e-05
0.0155006
-2.12933e-05
0.0154612
-1.78423e-05
0.0154251
-1.48206e-05
0.0153924
-1.21744e-05
0.0153631
-9.85105e-06
0.0153374
-7.80063e-06
0.0153153
-5.97487e-06
0.0152968
-4.32708e-06
0.015282
-2.81183e-06
0.0152709
-1.38437e-06
0.0152635
0.0152598
-0.000292107
0.0145743
0.000316626
-0.000262057
0.0155848
-0.000233745
0.016065
-0.000208888
0.0162348
-0.000187105
0.0162558
-0.000167707
0.0162166
-0.000150194
0.0161568
-0.000134267
0.0160922
-0.000119748
0.016028
-0.000106519
0.0159655
-9.44881e-05
0.0159048
-8.35768e-05
0.0158458
-7.37077e-05
0.0157887
-6.4805e-05
0.0157336
-5.67936e-05
0.0156807
-4.96006e-05
0.0156302
-4.31553e-05
0.0155824
-3.73898e-05
0.0155374
-3.22389e-05
0.0154954
-2.76403e-05
0.0154566
-2.35342e-05
0.015421
-1.98636e-05
0.0153887
-1.65736e-05
0.0153598
-1.36118e-05
0.0153345
-1.09273e-05
0.0153126
-8.47143e-06
0.0152944
-6.19667e-06
0.0152798
-4.05686e-06
0.0152688
-2.00644e-06
0.0152614
0.0152577
-0.000309194
0.0145508
0.000332695
-0.000279509
0.0155551
-0.000251013
0.0160365
-0.000225669
0.0162095
-0.000203272
0.0162334
-0.000183215
0.0161965
-0.00016503
0.0161387
-0.000148428
0.0160756
-0.000133233
0.0160128
-0.000119328
0.0159516
-0.000106622
0.0158921
-9.50366e-05
0.0158342
-8.44952e-05
0.0157782
-7.49228e-05
0.015724
-6.62452e-05
0.015672
-5.83901e-05
0.0156224
-5.12872e-05
0.0155753
-4.48692e-05
0.015531
-3.9071e-05
0.0154896
-3.38304e-05
0.0154513
-2.90875e-05
0.0154162
-2.47853e-05
0.0153844
-2.08685e-05
0.0153559
-1.72842e-05
0.0153309
-1.39813e-05
0.0153093
-1.09103e-05
0.0152913
-8.02333e-06
0.0152769
-5.27342e-06
0.015266
-2.61434e-06
0.0152588
0.0152551
-0.000325691
0.0145283
0.000348244
-0.000296357
0.0155258
-0.000267693
0.0160079
-0.00024189
0.0161837
-0.000218909
0.0162105
-0.000198223
0.0161758
-0.000179395
0.0161198
-0.000162146
0.0160584
-0.000146303
0.015997
-0.000131749
0.015937
-0.000118395
0.0158787
-0.000106162
0.015822
-9.4973e-05
0.015767
-8.47553e-05
0.0157138
-7.54349e-05
0.0156627
-6.69401e-05
0.0156139
-5.92013e-05
0.0155676
-5.21515e-05
0.015524
-4.57258e-05
0.0154832
-3.98622e-05
0.0154455
-3.45008e-05
0.0154109
-2.95844e-05
0.0153795
-2.50576e-05
0.0153514
-2.08671e-05
0.0153267
-1.69614e-05
0.0153054
-1.32907e-05
0.0152877
-9.80643e-06
0.0152734
-6.46108e-06
0.0152627
-3.20784e-06
0.0152555
0.0152519
-0.000341601
0.0145066
0.000363276
-0.000312603
0.0154968
-0.000283787
0.0159791
-0.000257552
0.0161575
-0.000234017
0.0161869
-0.000212732
0.0161545
-0.00019329
0.0161004
-0.000175422
0.0160405
-0.000158959
0.0159805
-0.000143784
0.0159218
-0.000129807
0.0158647
-0.000116951
0.0158091
-0.000105141
0.0157552
-9.43016e-05
0.015703
-8.43616e-05
0.0156527
-7.52496e-05
0.0156048
-6.68964e-05
0.0155592
-5.92354e-05
0.0155163
-5.22021e-05
0.0154762
-4.57344e-05
0.015439
-3.97727e-05
0.0154049
-3.42597e-05
0.015374
-2.91398e-05
0.0153463
-2.43595e-05
0.0153219
-1.9867e-05
0.0153009
-1.56119e-05
0.0152834
-1.15454e-05
0.0152693
-7.61949e-06
0.0152587
-3.78675e-06
0.0152517
0.0152481
-0.000356927
0.0144857
0.000377788
-0.000328249
0.0154681
-0.000299296
0.0159501
-0.000272657
0.0161308
-0.000248598
0.0161629
-0.000226742
0.0161327
-0.000206714
0.0160804
-0.000188256
0.0160221
-0.000171201
0.0159635
-0.000155431
0.0159061
-0.000140859
0.0158502
-0.000127406
0.0157957
-0.000114998
0.0157428
-0.000103561
0.0156915
-9.30248e-05
0.0156422
-8.33178e-05
0.015595
-7.43716e-05
0.0155503
-6.612e-05
0.015508
-5.84987e-05
0.0154686
-5.14461e-05
0.015432
-4.49024e-05
0.0153984
-3.88104e-05
0.0153679
-3.31143e-05
0.0153406
-2.77606e-05
0.0153166
-2.26972e-05
0.0152959
-1.78734e-05
0.0152786
-1.32399e-05
0.0152647
-8.74833e-06
0.0152542
-4.35092e-06
0.0152473
0.0152438
-0.000371671
0.0144656
0.000391781
-0.000343296
0.0154398
-0.000314221
0.015921
-0.000287204
0.0161038
-0.00026265
0.0161383
-0.000240254
0.0161103
-0.00021967
0.0160598
-0.00020065
0.016003
-0.000183029
0.0159458
-0.000166692
0.0158897
-0.00015155
0.015835
-0.000137525
0.0157817
-0.000124544
0.0157298
-0.000112534
0.0156795
-0.000101424
0.0156311
-9.11442e-05
0.0155848
-8.16263e-05
0.0155407
-7.28045e-05
0.0154992
-6.46151e-05
0.0154604
-5.69964e-05
0.0154243
-4.9889e-05
0.0153913
-4.32355e-05
0.0153612
-3.69803e-05
0.0153343
-3.10697e-05
0.0153107
-2.54514e-05
0.0152903
-2.00745e-05
0.0152732
-1.48894e-05
0.0152595
-9.84735e-06
0.0152492
-4.90022e-06
0.0152423
0.0152389
-0.000385831
0.0144462
0.000405251
-0.000357746
0.0154117
-0.000328563
0.0158918
-0.000301195
0.0160764
-0.000276176
0.0161133
-0.00025327
0.0160874
-0.000232158
0.0160387
-0.000212603
0.0159835
-0.000194444
0.0159277
-0.000177566
0.0158729
-0.000161881
0.0158193
-0.000147309
0.0157671
-0.00013378
0.0157162
-0.00012122
0.015667
-0.000109559
0.0156194
-9.87286e-05
0.0155739
-8.86601e-05
0.0155307
-7.92886e-05
0.0154899
-7.05505e-05
0.0154516
-6.23847e-05
0.0154162
-5.47318e-05
0.0153836
-4.75345e-05
0.015354
-4.07373e-05
0.0153275
-3.42864e-05
0.0153042
-2.81292e-05
0.0152841
-2.2215e-05
0.0152673
-1.64937e-05
0.0152538
-1.09163e-05
0.0152436
-5.43454e-06
0.0152368
0.0152335
-0.00039941
0.0144274
0.000418197
-0.0003716
0.0153839
-0.000342322
0.0158626
-0.00031463
0.0160487
-0.000289176
0.0160878
-0.000265789
0.016064
-0.000244179
0.016017
-0.000224118
0.0159634
-0.000205449
0.015909
-0.000188056
0.0158555
-0.000171852
0.0158031
-0.00015676
0.015752
-0.000142706
0.0157022
-0.00012962
0.0156539
-0.000117431
0.0156072
-0.000106071
0.0155626
-9.54729e-05
0.0155201
-8.55718e-05
0.0154799
-7.63048e-05
0.0154424
-6.76107e-05
0.0154075
-5.94304e-05
0.0153754
-5.1707e-05
0.0153463
-4.43848e-05
0.0153202
-3.74101e-05
0.0152972
-3.07303e-05
0.0152774
-2.42945e-05
0.0152608
-1.80525e-05
0.0152475
-1.19551e-05
0.0152375
-5.9538e-06
0.0152308
0.0152275
-0.000412407
0.0144092
0.000430614
-0.000384858
0.0153563
-0.000355501
0.0158332
-0.000327511
0.0160208
-0.000301651
0.016062
-0.000277813
0.0160402
-0.000255733
0.015995
-0.000235195
0.0159429
-0.000216043
0.0158898
-0.000198162
0.0158376
-0.000181466
0.0157864
-0.000165877
0.0157364
-0.000151323
0.0156876
-0.000137733
0.0156403
-0.000125039
0.0155946
-0.000113171
0.0155507
-0.000102065
0.015509
-9.16544e-05
0.0154695
-8.18778e-05
0.0154326
-7.26741e-05
0.0153983
-6.39848e-05
0.0153667
-5.57527e-05
0.0153381
-4.79226e-05
0.0153124
-4.04406e-05
0.0152897
-3.32544e-05
0.0152702
-2.63128e-05
0.0152539
-1.95656e-05
0.0152408
-1.29636e-05
0.0152309
-6.45795e-06
0.0152243
0.015221
-0.000424822
0.0143915
0.000442501
-0.000397522
0.015329
-0.0003681
0.0158038
-0.000339839
0.0159925
-0.000313604
0.0160357
-0.000289344
0.0160159
-0.000266824
0.0159724
-0.000245837
0.0159219
-0.000226228
0.0158702
-0.000207886
0.0158192
-0.000190723
0.0157693
-0.000174662
0.0157204
-0.000159631
0.0156726
-0.000145561
0.0156262
-0.000132384
0.0155814
-0.00012003
0.0155384
-0.000108436
0.0154974
-9.75365e-05
0.0154586
-8.72696e-05
0.0154223
-7.75752e-05
0.0153886
-6.83947e-05
0.0153576
-5.96716e-05
0.0153293
-5.13505e-05
0.0153041
-4.33779e-05
0.0152818
-3.57014e-05
0.0152626
-2.82698e-05
0.0152465
-2.10331e-05
0.0152335
-1.39417e-05
0.0152238
-6.94694e-06
0.0152173
0.0152141
-0.000436656
0.0143743
0.000453852
-0.000409594
0.0153019
-0.000380121
0.0157743
-0.000351615
0.015964
-0.000325034
0.0160092
-0.000300384
0.0159912
-0.000277453
0.0159495
-0.000256044
0.0159005
-0.000236006
0.0158502
-0.000217229
0.0158005
-0.000199624
0.0157517
-0.000183116
0.0157038
-0.000167633
0.0156571
-0.000153106
0.0156117
-0.000139467
0.0155677
-0.000126649
0.0155255
-0.000114587
0.0154853
-0.000103218
0.0154473
-9.24806e-05
0.0154116
-8.2314e-05
0.0153784
-7.26605e-05
0.0153479
-6.34637e-05
0.0153201
-5.46686e-05
0.0152953
-4.62219e-05
0.0152733
-3.80712e-05
0.0152544
-3.01655e-05
0.0152386
-2.24547e-05
0.0152258
-1.48895e-05
0.0152163
-7.42077e-06
0.0152099
0.0152067
-0.000447907
0.0143576
0.000464665
-0.000421074
0.0152751
-0.000391567
0.0157448
-0.000362842
0.0159353
-0.000335946
0.0159823
-0.000310935
0.0159662
-0.000287622
0.0159262
-0.000265819
0.0158787
-0.00024538
0.0158298
-0.000226193
0.0157813
-0.000208172
0.0157336
-0.000191241
0.0156869
-0.000175329
0.0156412
-0.000160367
0.0155967
-0.000146289
0.0155537
-0.000133028
0.0155123
-0.00012052
0.0154728
-0.000108701
0.0154355
-9.75113e-05
0.0154004
-8.68909e-05
0.0153678
-7.67823e-05
0.0153378
-6.71292e-05
0.0153105
-5.78771e-05
0.015286
-4.89727e-05
0.0152644
-4.0364e-05
0.0152458
-3.2e-05
0.0152302
-2.38307e-05
0.0152177
-1.58068e-05
0.0152082
-7.87943e-06
0.0152019
0.0151988
-0.000458577
0.0143412
0.000474937
-0.000431965
0.0152485
-0.000402438
0.0157153
-0.000373523
0.0159063
-0.000346341
0.0159551
-0.000320999
0.0159409
-0.000297333
0.0159025
-0.000275165
0.0158565
-0.000254351
0.0158089
-0.000234781
0.0157617
-0.000216369
0.0157152
-0.000199039
0.0156696
-0.000182721
0.0156249
-0.000167347
0.0155813
-0.000152852
0.0155392
-0.000139168
0.0154986
-0.000126234
0.0154599
-0.000113985
0.0154232
-0.000102362
0.0153888
-9.13067e-05
0.0153567
-8.07606e-05
0.0153272
-7.06686e-05
0.0153004
-6.09762e-05
0.0152763
-5.16306e-05
0.0152551
-4.25798e-05
0.0152368
-3.37732e-05
0.0152214
-2.51609e-05
0.0152091
-1.66938e-05
0.0151998
-8.32296e-06
0.0151936
0.0151905
-0.000468666
0.0143252
0.000484664
-0.000442269
0.0152221
-0.000412739
0.0156857
-0.000383659
0.0158773
-0.000356221
0.0159277
-0.000330579
0.0159153
-0.00030659
0.0158785
-0.000284085
0.015834
-0.000262923
0.0157878
-0.000242995
0.0157418
-0.000224217
0.0156964
-0.000206512
0.0156519
-0.000189811
0.0156082
-0.000174048
0.0155656
-0.000159157
0.0155243
-0.000145072
0.0154845
-0.000131731
0.0154465
-0.000119072
0.0154105
-0.000107035
0.0153767
-9.55619e-05
0.0153453
-8.45962e-05
0.0153163
-7.40823e-05
0.0152899
-6.39664e-05
0.0152662
-5.41958e-05
0.0152453
-4.4719e-05
0.0152273
-3.54855e-05
0.0152122
-2.64457e-05
0.0152
-1.75505e-05
0.0151909
-8.7514e-06
0.0151848
0.0151817
-0.000478176
0.0143096
0.000493845
-0.000451989
0.0151959
-0.000422471
0.0156562
-0.000393254
0.015848
-0.000365591
0.0159
-0.000339679
0.0158893
-0.000315396
0.0158543
-0.000292581
0.0158112
-0.000271098
0.0157663
-0.000250839
0.0157215
-0.000231718
0.0156773
-0.000213663
0.0156338
-0.000196603
0.0155911
-0.000180472
0.0155495
-0.000165206
0.015509
-0.00015074
0.01547
-0.000137012
0.0154328
-0.000123962
0.0153975
-0.00011153
0.0153643
-9.96577e-05
0.0153334
-8.82898e-05
0.0153049
-7.73711e-05
0.015279
-6.68483e-05
0.0152557
-5.66689e-05
0.0152351
-4.6782e-05
0.0152174
-3.71372e-05
0.0152025
-2.76851e-05
0.0151906
-1.83771e-05
0.0151816
-9.16481e-06
0.0151756
0.0151726
-0.000487108
0.0142942
0.000502477
-0.000461127
0.0151699
-0.00043164
0.0156267
-0.000402312
0.0158187
-0.000374455
0.0158721
-0.000348302
0.0158632
-0.000323754
0.0158297
-0.000300658
0.0157881
-0.00027888
0.0157445
-0.000258314
0.015701
-0.000238877
0.0156579
-0.000220494
0.0156154
-0.000203097
0.0155737
-0.000186621
0.015533
-0.000171001
0.0154934
-0.000156175
0.0154552
-0.00014208
0.0154187
-0.000128658
0.0153841
-0.000115848
0.0153515
-0.000103595
0.0153211
-9.18423e-05
0.0152932
-8.05357e-05
0.0152677
-6.96224e-05
0.0152448
-5.90504e-05
0.0152246
-4.87691e-05
0.0152071
-3.87284e-05
0.0151925
-2.88795e-05
0.0151807
-1.91738e-05
0.0151719
-9.56327e-06
0.0151659
0.015163
-0.000495464
0.0142791
0.00051056
-0.000469689
0.0151442
-0.000440249
0.0155973
-0.000410838
0.0157893
-0.000382815
0.0158441
-0.000356452
0.0158368
-0.000331668
0.0158049
-0.000308318
0.0157648
-0.000286272
0.0157225
-0.000265426
0.0156801
-0.000245695
0.0156382
-0.000227008
0.0155968
-0.000209297
0.015556
-0.000192497
0.0155162
-0.000176544
0.0154774
-0.000161378
0.0154401
-0.000146936
0.0154043
-0.00013316
0.0153703
-0.000119992
0.0153383
-0.000107375
0.0153085
-9.52548e-05
0.015281
-8.35771e-05
0.015256
-7.22896e-05
0.0152335
-6.13409e-05
0.0152136
-5.06808e-05
0.0151964
-4.02598e-05
0.0151821
-3.00291e-05
0.0151705
-1.99407e-05
0.0151618
-9.94687e-06
0.015156
0.015153
-0.000503247
0.0142642
0.000518093
-0.000477677
0.0151186
-0.000448303
0.0155679
-0.000418836
0.0157598
-0.000390679
0.015816
-0.000364135
0.0158103
-0.000339143
0.0157799
-0.000315567
0.0157412
-0.000293279
0.0157002
-0.000272177
0.015659
-0.000252178
0.0156182
-0.00023321
0.0155778
-0.000215206
0.015538
-0.000198103
0.0154991
-0.000181839
0.0154612
-0.000166352
0.0154246
-0.000151582
0.0153895
-0.000137472
0.0153562
-0.000123963
0.0153248
-0.000111
0.0152956
-9.85286e-05
0.0152686
-8.64963e-05
0.015244
-7.48508e-05
0.0152218
-6.35413e-05
0.0152023
-5.25179e-05
0.0151854
-4.17317e-05
0.0151713
-3.11343e-05
0.0151599
-2.06781e-05
0.0151513
-1.03157e-05
0.0151456
0.0151427
-0.000510462
0.0142496
0.000525077
-0.000485099
0.0150932
-0.000455808
0.0155386
-0.000426312
0.0157303
-0.000398049
0.0157877
-0.000371355
0.0157836
-0.000346185
0.0157548
-0.000322409
0.0157174
-0.000299905
0.0156777
-0.000278572
0.0156377
-0.000258328
0.0155979
-0.000239101
0.0155586
-0.000220828
0.0155198
-0.000203443
0.0154817
-0.000186887
0.0154446
-0.0001711
0.0154088
-0.000156021
0.0153744
-0.000141594
0.0153418
-0.000127762
0.015311
-0.00011447
0.0152823
-0.000101665
0.0152558
-8.92945e-05
0.0152316
-7.7307e-05
0.0152098
-6.56522e-05
0.0151906
-5.42809e-05
0.0151741
-4.31446e-05
0.0151601
-3.21955e-05
0.0151489
-2.13863e-05
0.0151405
-1.067e-05
0.0151349
0.0151321
-0.000517113
0.0142352
0.000531514
-0.000491959
0.0150681
-0.000462771
0.0155094
-0.000433272
0.0157008
-0.000404934
0.0157594
-0.000378119
0.0157568
-0.000352798
0.0157295
-0.00032885
0.0156935
-0.000306155
0.015655
-0.000284616
0.0156161
-0.00026415
0.0155775
-0.000244687
0.0155391
-0.000226165
0.0155012
-0.00020852
0.015464
-0.000191693
0.0154278
-0.000175623
0.0153927
-0.000160254
0.0153591
-0.000145529
0.015327
-0.000131391
0.0152968
-0.000117788
0.0152687
-0.000104666
0.0152426
-9.19731e-05
0.0152189
-7.96593e-05
0.0151975
-6.76748e-05
0.0151787
-5.59708e-05
0.0151623
-4.44993e-05
0.0151487
-3.32131e-05
0.0151377
-2.20655e-05
0.0151294
-1.10098e-05
0.0151238
0.015121
-0.000523205
0.014221
0.000537407
-0.000498264
0.0150431
-0.000469198
0.0154804
-0.000439724
0.0156714
-0.000411339
0.015731
-0.000384431
0.0157299
-0.000358988
0.015704
-0.000334894
0.0156694
-0.000312035
0.0156321
-0.000290312
0.0155944
-0.000269648
0.0155568
-0.000249972
0.0155194
-0.000231222
0.0154825
-0.000213337
0.0154462
-0.000196258
0.0154107
-0.000179926
0.0153764
-0.000164285
0.0153434
-0.000149279
0.015312
-0.000134854
0.0152824
-0.000120955
0.0152548
-0.000107532
0.0152292
-9.45334e-05
0.0152059
-8.1909e-05
0.0151849
-6.96099e-05
0.0151664
-5.75881e-05
0.0151503
-4.57963e-05
0.0151369
-3.41877e-05
0.015126
-2.2716e-05
0.0151179
-1.13353e-05
0.0151124
0.0151097
-0.000528746
0.014207
0.000542759
-0.000504023
0.0150184
-0.000475098
0.0154515
-0.000445674
0.0156419
-0.000417271
0.0157026
-0.0003903
0.0157029
-0.000364761
0.0156785
-0.000340548
0.0156451
-0.000317548
0.0156091
-0.000295668
0.0155725
-0.000274827
0.0155359
-0.00025496
0.0154996
-0.000236003
0.0154635
-0.000217898
0.0154281
-0.000200587
0.0153934
-0.000184011
0.0153598
-0.000168117
0.0153275
-0.000152848
0.0152968
-0.000138151
0.0152677
-0.000123974
0.0152406
-0.000110266
0.0152155
-9.69771e-05
0.0151926
-8.40573e-05
0.015172
-7.14588e-05
0.0151538
-5.9134e-05
0.015138
-4.70363e-05
0.0151248
-3.51196e-05
0.0151141
-2.33382e-05
0.0151061
-1.16467e-05
0.0151007
0.0150981
-0.000533741
0.0141932
0.000547575
-0.000509243
0.0149939
-0.000480478
0.0154227
-0.000451131
0.0156126
-0.000422739
0.0156742
-0.000395732
0.0156759
-0.000370125
0.0156529
-0.000345818
0.0156208
-0.000322703
0.015586
-0.000300687
0.0155505
-0.000279693
0.015515
-0.000259655
0.0154795
-0.000240513
0.0154444
-0.000222207
0.0154097
-0.000204682
0.0153759
-0.000187882
0.015343
-0.000171751
0.0153114
-0.000156237
0.0152812
-0.000141286
0.0152528
-0.000126847
0.0152262
-0.00011287
0.0152015
-9.93056e-05
0.015179
-8.61057e-05
0.0151588
-7.32225e-05
0.0151409
-6.06094e-05
0.0151254
-4.82202e-05
0.0151124
-3.60096e-05
0.0151019
-2.39326e-05
0.015094
-1.19442e-05
0.0150888
0.0150861
-0.0005382
0.0141795
0.000551862
-0.000513934
0.0149696
-0.000485348
0.0153941
-0.000456103
0.0155834
-0.00042775
0.0156458
-0.000400736
0.0156489
-0.000375087
0.0156272
-0.000350712
0.0155965
-0.000327505
0.0155628
-0.000305376
0.0155284
-0.00028425
0.0154938
-0.000264063
0.0154593
-0.000244755
0.0154251
-0.000226269
0.0153913
-0.000208549
0.0153581
-0.000191542
0.015326
-0.000175192
0.015295
-0.000159449
0.0152655
-0.00014426
0.0152376
-0.000129575
0.0152115
-0.000115345
0.0151873
-0.000101521
0.0151652
-8.80557e-05
0.0151453
-7.49024e-05
0.0151277
-6.20152e-05
0.0151125
-4.93488e-05
0.0150997
-3.68583e-05
0.0150894
-2.44994e-05
0.0150817
-1.22279e-05
0.0150765
0.0150739
-0.000542132
0.014166
0.000555626
-0.000518106
0.0149456
-0.000489718
0.0153657
-0.000460601
0.0155542
-0.000432314
0.0156175
-0.000405319
0.0156219
-0.000379654
0.0156015
-0.000355235
0.015572
-0.00033196
0.0155395
-0.000309741
0.0155062
-0.000288506
0.0154726
-0.00026819
0.015439
-0.000248735
0.0154056
-0.000230087
0.0153726
-0.000212191
0.0153403
-0.000194994
0.0153088
-0.000178444
0.0152785
-0.000162488
0.0152495
-0.000147077
0.0152222
-0.000132162
0.0151966
-0.000117694
0.0151728
-0.000103625
0.0151511
-8.99088e-05
0.0151316
-7.64999e-05
0.0151143
-6.33527e-05
0.0150994
-5.04229e-05
0.0150868
-3.76662e-05
0.0150767
-2.50391e-05
0.015069
-1.24981e-05
0.0150639
0.0150614
-0.000545546
0.0141527
0.000558875
-0.000521769
0.0149218
-0.000493599
0.0153375
-0.000464635
0.0155253
-0.000436439
0.0155893
-0.00040949
0.0155949
-0.000383835
0.0155759
-0.000359396
0.0155476
-0.000336076
0.0155162
-0.000313789
0.0154839
-0.000292464
0.0154513
-0.000272039
0.0154186
-0.000252458
0.015386
-0.000233667
0.0153538
-0.000215613
0.0153222
-0.000198244
0.0152914
-0.000181508
0.0152617
-0.000165357
0.0152334
-0.00014974
0.0152066
-0.00013461
0.0151814
-0.000119918
0.0151581
-0.000105619
0.0151368
-9.16668e-05
0.0151177
-7.80162e-05
0.0151007
-6.4623e-05
0.015086
-5.14434e-05
0.0150736
-3.84341e-05
0.0150637
-2.55522e-05
0.0150562
-1.2755e-05
0.0150512
0.0150486
-0.000548454
0.0141395
0.00056162
-0.000524935
0.0148983
-0.000497002
0.0153096
-0.000468214
0.0154965
-0.000440136
0.0155613
-0.000413258
0.015568
-0.000387638
0.0155503
-0.000363203
0.0155232
-0.00033986
0.0154929
-0.000317526
0.0154616
-0.000296133
0.0154299
-0.000275619
0.0153981
-0.00025593
0.0153663
-0.000237013
0.0153349
-0.000218818
0.015304
-0.000201294
0.0152739
-0.00018439
0.0152448
-0.000168059
0.0152171
-0.000152251
0.0151908
-0.000136921
0.0151661
-0.000122021
0.0151432
-0.000107506
0.0151223
-9.33314e-05
0.0151035
-7.9453e-05
0.0150868
-6.58273e-05
0.0150723
-5.24114e-05
0.0150602
-3.91627e-05
0.0150504
-2.60392e-05
0.015043
-1.29989e-05
0.0150381
0.0150356
-0.000550869
0.0141265
0.00056387
-0.000527618
0.0148751
-0.000499938
0.0152819
-0.000471351
0.0154679
-0.000443416
0.0155333
-0.000416634
0.0155413
-0.000391072
0.0155247
-0.000366664
0.0154988
-0.00034332
0.0154695
-0.00032096
0.0154392
-0.000299518
0.0154084
-0.000278934
0.0153775
-0.000259155
0.0153466
-0.000240131
0.0153159
-0.000221812
0.0152857
-0.000204149
0.0152562
-0.000187093
0.0152278
-0.000170597
0.0152006
-0.000154614
0.0151748
-0.000139098
0.0151506
-0.000124004
0.0151281
-0.000109288
0.0151076
-9.49045e-05
0.0150891
-8.08118e-05
0.0150727
-6.69669e-05
0.0150585
-5.33278e-05
0.0150466
-3.98528e-05
0.0150369
-2.65005e-05
0.0150297
-1.32299e-05
0.0150248
0.0150224
-0.000552801
0.0141137
0.000565637
-0.000529828
0.0148521
-0.000502422
0.0152545
-0.000474057
0.0154395
-0.00044629
0.0155056
-0.000419627
0.0155146
-0.000394147
0.0154992
-0.000369788
0.0154744
-0.000346464
0.0154462
-0.000324098
0.0154168
-0.000302626
0.015387
-0.00028199
0.0153569
-0.00026214
0.0153267
-0.000243026
0.0152968
-0.000224599
0.0152673
-0.000206813
0.0152385
-0.000189621
0.0152106
-0.000172976
0.0151839
-0.000156832
0.0151586
-0.000141145
0.0151349
-0.000125871
0.0151129
-0.000110966
0.0150927
-9.63879e-05
0.0150745
-8.20941e-05
0.0150584
-6.80431e-05
0.0150444
-5.41937e-05
0.0150327
-4.05051e-05
0.0150232
-2.69367e-05
0.0150161
-1.34484e-05
0.0150114
0.015009
-0.000554267
0.014101
0.000566934
-0.000531582
0.0148294
-0.000504466
0.0152274
-0.000476345
0.0154114
-0.000448768
0.015478
-0.000422249
0.0154881
-0.000396872
0.0154739
-0.000372583
0.0154501
-0.0003493
0.0154229
-0.000326948
0.0153945
-0.000305465
0.0153655
-0.000284795
0.0153362
-0.00026489
0.0153068
-0.000245703
0.0152776
-0.000227185
0.0152487
-0.000209292
0.0152206
-0.000191978
0.0151933
-0.000175198
0.0151671
-0.000158908
0.0151423
-0.000143064
0.015119
-0.000127623
0.0150974
-0.000112544
0.0150776
-9.77837e-05
0.0150598
-8.33018e-05
0.0150439
-6.90574e-05
0.0150302
-5.50102e-05
0.0150187
-4.11204e-05
0.0150094
-2.73484e-05
0.0150023
-1.36547e-05
0.0149977
0.0149953
-0.000555279
0.0140885
0.000567774
-0.000532892
0.014807
-0.000506084
0.0152006
-0.000478228
0.0153836
-0.000450863
0.0154506
-0.00042451
0.0154617
-0.000399258
0.0154486
-0.00037506
0.0154259
-0.000351837
0.0153997
-0.000329517
0.0153722
-0.000308041
0.015344
-0.000287355
0.0153155
-0.000267413
0.0152869
-0.000248167
0.0152583
-0.000229574
0.0152301
-0.000211589
0.0152026
-0.000194168
0.0151759
-0.000177268
0.0151502
-0.000160845
0.0151259
-0.000144858
0.0151031
-0.000129264
0.0150818
-0.000114023
0.0150624
-9.90939e-05
0.0150448
-8.44364e-05
0.0150293
-7.0011e-05
0.0150158
-5.57784e-05
0.0150044
-4.16996e-05
0.0149953
-2.7736e-05
0.0149884
-1.38489e-05
0.0149838
0.0149815
-0.000555852
0.0140762
0.000568171
-0.000533775
0.014785
-0.00050729
0.0151741
-0.000479719
0.015356
-0.000452588
0.0154235
-0.000426421
0.0154356
-0.000401316
0.0154235
-0.000377228
0.0154018
-0.000354084
0.0153766
-0.000331815
0.0153499
-0.000310363
0.0153225
-0.000289677
0.0152948
-0.000269713
0.0152669
-0.000250426
0.015239
-0.000231772
0.0152115
-0.00021371
0.0151845
-0.000196197
0.0151583
-0.00017919
0.0151332
-0.000162648
0.0151094
-0.00014653
0.0150869
-0.000130797
0.0150661
-0.000115407
0.015047
-0.000100321
0.0150297
-8.54999e-05
0.0150144
-7.09056e-05
0.0150012
-5.64995e-05
0.01499
-4.22436e-05
0.014981
-2.81001e-05
0.0149742
-1.40314e-05
0.0149697
0.0149674
-0.000556003
0.0140641
0.00056814
-0.000534245
0.0147632
-0.000508099
0.015148
-0.000480831
0.0153287
-0.000453955
0.0153966
-0.000427995
0.0154096
-0.000403055
0.0153986
-0.000379097
0.0153779
-0.00035605
0.0153535
-0.000333848
0.0153277
-0.000312437
0.0153011
-0.000291769
0.0152741
-0.000271798
0.0152469
-0.000252484
0.0152197
-0.000233785
0.0151928
-0.00021566
0.0151664
-0.000198067
0.0151408
-0.000180967
0.0151161
-0.00016432
0.0150927
-0.000148085
0.0150707
-0.000132223
0.0150502
-0.000116696
0.0150315
-0.000101466
0.0150145
-8.6494e-05
0.0149995
-7.17427e-05
0.0149864
-5.71748e-05
0.0149754
-4.27533e-05
0.0149666
-2.84415e-05
0.0149599
-1.42025e-05
0.0149555
0.0149532
-0.000555748
0.0140521
0.000567697
-0.000534319
0.0147418
-0.000508526
0.0151222
-0.00048158
0.0153018
-0.000454977
0.01537
-0.000429243
0.0153839
-0.000404487
0.0153738
-0.000380676
0.0153541
-0.000357744
0.0153306
-0.000335627
0.0153056
-0.000314273
0.0152798
-0.000293636
0.0152535
-0.000273675
0.015227
-0.000254348
0.0152004
-0.000235617
0.0151741
-0.000217443
0.0151482
-0.000199785
0.0151231
-0.000182605
0.015099
-0.000165864
0.015076
-0.000149524
0.0150544
-0.000133547
0.0150343
-0.000117896
0.0150158
-0.000102532
0.0149992
-8.74206e-05
0.0149844
-7.25237e-05
0.0149715
-5.78053e-05
0.0149607
-4.32295e-05
0.014952
-2.87605e-05
0.0149455
-1.43625e-05
0.0149411
0.0149389
-0.000555104
0.0140404
0.000566859
-0.000534012
0.0147207
-0.000508588
0.0150968
-0.00048198
0.0152752
-0.000455668
0.0153437
-0.000430178
0.0153584
-0.000405624
0.0153492
-0.000381978
0.0153304
-0.000359176
0.0153078
-0.00033716
0.0152836
-0.000315878
0.0152585
-0.000295288
0.0152329
-0.00027535
0.015207
-0.000256025
0.0151811
-0.000237276
0.0151553
-0.000219064
0.01513
-0.000201354
0.0151054
-0.000184106
0.0150817
-0.000167284
0.0150592
-0.000150852
0.0150379
-0.000134771
0.0150182
-0.000119007
0.0150001
-0.000103522
0.0149837
-8.82817e-05
0.0149691
-7.32503e-05
0.0149565
-5.83925e-05
0.0149459
-4.36733e-05
0.0149373
-2.9058e-05
0.0149308
-1.45118e-05
0.0149265
0.0149244
-0.000554087
0.0140288
0.000565643
-0.000533343
0.0146999
-0.0005083
0.0150717
-0.000482046
0.0152489
-0.000456041
0.0153177
-0.000430813
0.0153332
-0.000406478
0.0153249
-0.000383012
0.0153069
-0.000360356
0.0152851
-0.000338455
0.0152616
-0.000317261
0.0152373
-0.000296732
0.0152124
-0.00027683
0.0151871
-0.00025752
0.0151618
-0.000238765
0.0151366
-0.000220531
0.0151118
-0.000202779
0.0150876
-0.000185476
0.0150644
-0.000168585
0.0150423
-0.000152071
0.0150214
-0.000135898
0.015002
-0.000120032
0.0149842
-0.000104437
0.0149681
-8.90792e-05
0.0149538
-7.39241e-05
0.0149413
-5.89375e-05
0.0149309
-4.40856e-05
0.0149225
-2.93345e-05
0.0149161
-1.46505e-05
0.0149118
0.0149097
-0.000552716
0.0140175
0.000564066
-0.000532329
0.0146795
-0.000507678
0.0150471
-0.000481793
0.015223
-0.000456111
0.015292
-0.00043116
0.0153082
-0.000407059
0.0153008
-0.000383788
0.0152837
-0.000361294
0.0152626
-0.000339523
0.0152399
-0.000318429
0.0152162
-0.000297974
0.0151919
-0.000278123
0.0151673
-0.00025884
0.0151425
-0.000240093
0.0151178
-0.000221846
0.0150935
-0.000204067
0.0150699
-0.000186719
0.0150471
-0.000169771
0.0150253
-0.000153186
0.0150048
-0.000136932
0.0149858
-0.000120975
0.0149682
-0.00010528
0.0149524
-8.98152e-05
0.0149383
-7.45467e-05
0.0149261
-5.94417e-05
0.0149158
-4.44673e-05
0.0149075
-2.95906e-05
0.0149012
-1.47791e-05
0.014897
0.0148949
-0.000551009
0.0140063
0.000562147
-0.000530986
0.0146595
-0.000506739
0.0150228
-0.000481235
0.0151975
-0.000455892
0.0152667
-0.000431232
0.0152835
-0.00040738
0.015277
-0.00038432
0.0152606
-0.000362001
0.0152403
-0.000340372
0.0152182
-0.000319392
0.0151952
-0.000299024
0.0151716
-0.000279235
0.0151475
-0.000259992
0.0151232
-0.000241263
0.0150991
-0.000223017
0.0150753
-0.00020522
0.0150521
-0.00018784
0.0150297
-0.000170844
0.0150083
-0.000154201
0.0149882
-0.000137876
0.0149694
-0.000121837
0.0149522
-0.000106053
0.0149366
-9.04916e-05
0.0149227
-7.51199e-05
0.0149107
-5.99065e-05
0.0149006
-4.48194e-05
0.0148924
-2.98271e-05
0.0148862