/*--------------------------------*- C++ -*----------------------------------*\
  =========                 |
  \\      /  F ield         | OpenFOAM: The Open Source CFD Toolbox
   \\    /   O peration     | Website:  https://openfoam.org
    \\  /    A nd           | Version:  7
     \\/     M anipulation  |
\*---------------------------------------------------------------------------*/
FoamFile
{
    version     2.0;
    format      ascii;
    class       volVectorField;
    location    "50";
    object      U;
}
// * * * * * * * * * * * * * * * * * * * * * * * * * * * * * * * * * * * * * //

dimensions      [0 1 -1 0 0 0 0];

internalField   nonuniform List<vector> 
3500
(
(1.12127 0.027061 0)
(1.19981 0.0247924 0)
(1.23508 0.0199472 0)
(1.24626 0.0170043 0)
(1.24645 0.0142956 0)
(1.24242 0.0120671 0)
(1.23707 0.0101192 0)
(1.23149 0.00839336 0)
(1.22601 0.0068653 0)
(1.22071 0.0055167 0)
(1.21558 0.00433313 0)
(1.21063 0.00330314 0)
(1.20584 0.00241576 0)
(1.20125 0.00165975 0)
(1.19685 0.00102447 0)
(1.19267 0.000499296 0)
(1.18872 7.40419e-05 0)
(1.18502 -0.00026071 0)
(1.18157 -0.000514071 0)
(1.17839 -0.000694807 0)
(1.17547 -0.000810953 0)
(1.17284 -0.000870045 0)
(1.17049 -0.000879292 0)
(1.16842 -0.000845591 0)
(1.16665 -0.000775433 0)
(1.16517 -0.000674896 0)
(1.16398 -0.000549874 0)
(1.16309 -0.000406143 0)
(1.1625 -0.00024876 0)
(1.1622 -8.40544e-05 0)
(1.11899 0.0296989 0)
(1.19739 0.0275328 0)
(1.23301 0.0227115 0)
(1.24456 0.0196787 0)
(1.24503 0.0168766 0)
(1.2412 0.0145413 0)
(1.236 0.0124826 0)
(1.23053 0.0106463 0)
(1.22516 0.00900833 0)
(1.21996 0.00754998 0)
(1.21492 0.00625701 0)
(1.21005 0.00511818 0)
(1.20535 0.00412269 0)
(1.20082 0.00325951 0)
(1.19649 0.0025181 0)
(1.19237 0.00188802 0)
(1.18848 0.00135913 0)
(1.18482 0.000922103 0)
(1.18142 0.000567868 0)
(1.17827 0.00028763 0)
(1.1754 7.31888e-05 0)
(1.17279 -8.28025e-05 0)
(1.17047 -0.000187639 0)
(1.16843 -0.000248562 0)
(1.16667 -0.000272017 0)
(1.16521 -0.000264226 0)
(1.16403 -0.000231226 0)
(1.16315 -0.000178939 0)
(1.16256 -0.000112631 0)
(1.16227 -3.86726e-05 0)
(1.11681 0.0322578 0)
(1.195 0.0301905 0)
(1.23091 0.0253927 0)
(1.24282 0.0222756 0)
(1.24356 0.0193841 0)
(1.23992 0.0169458 0)
(1.23486 0.0147805 0)
(1.22952 0.0128379 0)
(1.22425 0.0110939 0)
(1.21915 0.0095297 0)
(1.2142 0.00813116 0)
(1.20942 0.00688724 0)
(1.20479 0.00578727 0)
(1.20034 0.00482039 0)
(1.19607 0.00397621 0)
(1.19201 0.0032444 0)
(1.18817 0.00261494 0)
(1.18457 0.00207852 0)
(1.18121 0.0016261 0)
(1.1781 0.00124894 0)
(1.17526 0.000938741 0)
(1.17269 0.000688172 0)
(1.17039 0.000489873 0)
(1.16838 0.000336436 0)
(1.16664 0.000221387 0)
(1.16519 0.000138364 0)
(1.16403 8.12041e-05 0)
(1.16316 4.38582e-05 0)
(1.16258 2.08728e-05 0)
(1.16228 5.8335e-06 0)
(1.11472 0.0347387 0)
(1.19263 0.0327661 0)
(1.2288 0.0279913 0)
(1.24103 0.0247952 0)
(1.24202 0.0218183 0)
(1.23857 0.0192809 0)
(1.23366 0.017013 0)
(1.22844 0.0149681 0)
(1.22328 0.013122 0)
(1.21828 0.0114558 0)
(1.21342 0.00995543 0)
(1.20872 0.0086101 0)
(1.20417 0.00740923 0)
(1.19979 0.00634211 0)
(1.1956 0.00539847 0)
(1.1916 0.00456811 0)
(1.18781 0.0038411 0)
(1.18426 0.00320816 0)
(1.18095 0.00266028 0)
(1.17788 0.00218878 0)
(1.17508 0.00178536 0)
(1.17254 0.00144255 0)
(1.17027 0.00115294 0)
(1.16828 0.000909139 0)
(1.16656 0.000704548 0)
(1.16513 0.00053268 0)
(1.16398 0.000387265 0)
(1.16312 0.000262141 0)
(1.16254 0.000151684 0)
(1.16225 4.94388e-05 0)
(1.11273 0.0371427 0)
(1.1903 0.03526 0)
(1.22666 0.0305077 0)
(1.23919 0.0272377 0)
(1.24044 0.0241792 0)
(1.23718 0.0215465 0)
(1.23241 0.0191802 0)
(1.22731 0.0170369 0)
(1.22226 0.0150926 0)
(1.21735 0.0133281 0)
(1.21259 0.0117297 0)
(1.20797 0.0102866 0)
(1.2035 0.00898837 0)
(1.1992 0.00782442 0)
(1.19506 0.00678461 0)
(1.19113 0.00585884 0)
(1.1874 0.00503728 0)
(1.1839 0.00431069 0)
(1.18063 0.00367009 0)
(1.17761 0.00310684 0)
(1.17484 0.00261268 0)
(1.17233 0.00218 0)
(1.17009 0.00180133 0)
(1.16812 0.00146932 0)
(1.16643 0.00117726 0)
(1.16501 0.000918547 0)
(1.16388 0.000686818 0)
(1.16302 0.00047581 0)
(1.16245 0.000279742 0)
(1.16217 9.21241e-05 0)
(1.11082 0.0394703 0)
(1.188 0.0376728 0)
(1.22451 0.0329422 0)
(1.23732 0.0296032 0)
(1.23881 0.0264669 0)
(1.23572 0.0237428 0)
(1.2311 0.021282 0)
(1.22612 0.0190443 0)
(1.22118 0.0170056 0)
(1.21637 0.0151466 0)
(1.2117 0.0134539 0)
(1.20717 0.0119166 0)
(1.20278 0.0105245 0)
(1.19854 0.00926711 0)
(1.19448 0.00813438 0)
(1.19061 0.00711633 0)
(1.18694 0.00620321 0)
(1.18348 0.00538584 0)
(1.18026 0.00465526 0)
(1.17728 0.00400287 0)
(1.17455 0.00342043 0)
(1.17208 0.00290025 0)
(1.16987 0.00243481 0)
(1.16792 0.00201678 0)
(1.16625 0.00163934 0)
(1.16485 0.00129581 0)
(1.16373 0.000979738 0)
(1.16288 0.000684773 0)
(1.16232 0.000404992 0)
(1.16204 0.000133872 0)
(1.10899 0.0417222 0)
(1.18572 0.0400049 0)
(1.22235 0.0352953 0)
(1.23541 0.031892 0)
(1.23712 0.0286815 0)
(1.23422 0.0258698 0)
(1.22974 0.0233187 0)
(1.22488 0.0209905 0)
(1.22005 0.0188611 0)
(1.21533 0.0169113 0)
(1.21076 0.0151279 0)
(1.20631 0.0135001 0)
(1.202 0.0120175 0)
(1.19784 0.01067 0)
(1.19384 0.00944761 0)
(1.19003 0.00834037 0)
(1.18642 0.00733867 0)
(1.18302 0.00643336 0)
(1.17985 0.00561554 0)
(1.17691 0.00487661 0)
(1.17422 0.00420837 0)
(1.17177 0.00360307 0)
(1.16959 0.00305317 0)
(1.16767 0.00255132 0)
(1.16602 0.00209062 0)
(1.16464 0.00166433 0)
(1.16353 0.00126592 0)
(1.1627 0.00088895 0)
(1.16214 0.000527385 0)
(1.16187 0.000174668 0)
(1.10724 0.0438989 0)
(1.18348 0.0422565 0)
(1.22017 0.0375672 0)
(1.23346 0.0341042 0)
(1.23539 0.030823 0)
(1.23267 0.0279277 0)
(1.22833 0.0252902 0)
(1.2236 0.0228753 0)
(1.21886 0.020659 0)
(1.21425 0.0186222 0)
(1.20976 0.0167517 0)
(1.2054 0.0150368 0)
(1.20117 0.0134673 0)
(1.19709 0.012033 0)
(1.19316 0.0107241 0)
(1.18941 0.00953079 0)
(1.18585 0.00844347 0)
(1.18251 0.00745307 0)
(1.17938 0.00655071 0)
(1.17649 0.00572786 0)
(1.17383 0.00497632 0)
(1.17142 0.00428829 0)
(1.16927 0.00365623 0)
(1.16738 0.00307278 0)
(1.16574 0.00253096 0)
(1.16438 0.00202399 0)
(1.16329 0.00154525 0)
(1.16247 0.00108827 0)
(1.16192 0.000646877 0)
(1.16164 0.000214497 0)
(1.10556 0.0460006 0)
(1.18126 0.0444278 0)
(1.21798 0.0397581 0)
(1.23148 0.0362397 0)
(1.23362 0.0328915 0)
(1.23107 0.0299165 0)
(1.22688 0.0271966 0)
(1.22226 0.0246989 0)
(1.21763 0.0223995 0)
(1.21312 0.0202793 0)
(1.20872 0.0183253 0)
(1.20445 0.0165269 0)
(1.2003 0.0148738 0)
(1.19628 0.013356 0)
(1.19242 0.0119638 0)
(1.18874 0.0106875 0)
(1.18524 0.00951747 0)
(1.18195 0.00844479 0)
(1.17887 0.00746062 0)
(1.17602 0.00655645 0)
(1.1734 0.00572409 0)
(1.17103 0.00495574 0)
(1.1689 0.00424384 0)
(1.16703 0.00358101 0)
(1.16542 0.00296024 0)
(1.16408 0.00237467 0)
(1.163 0.00181767 0)
(1.16219 0.00128267 0)
(1.16165 0.000763433 0)
(1.16138 0.000253348 0)
(1.10394 0.0480276 0)
(1.17906 0.0465191 0)
(1.21578 0.0418683 0)
(1.22946 0.0382986 0)
(1.23181 0.0348871 0)
(1.22943 0.0318364 0)
(1.22537 0.029038 0)
(1.22087 0.0264614 0)
(1.21636 0.0240825 0)
(1.21194 0.0218827 0)
(1.20763 0.0198488 0)
(1.20344 0.0179702 0)
(1.19937 0.016237 0)
(1.19543 0.014639 0)
(1.19164 0.0131666 0)
(1.18802 0.0118103 0)
(1.18458 0.0105605 0)
(1.18134 0.00940841 0)
(1.17831 0.00834513 0)
(1.1755 0.00736223 0)
(1.17292 0.00645156 0)
(1.17058 0.00560529 0)
(1.16849 0.00481586 0)
(1.16665 0.0040759 0)
(1.16506 0.00337834 0)
(1.16373 0.0027163 0)
(1.16267 0.00208309 0)
(1.16187 0.00147211 0)
(1.16133 0.000877021 0)
(1.16107 0.000291209 0)
(1.10238 0.04998 0)
(1.17689 0.0485303 0)
(1.21358 0.043898 0)
(1.22742 0.0402811 0)
(1.22996 0.0368099 0)
(1.22774 0.0336874 0)
(1.22383 0.0308146 0)
(1.21945 0.0281628 0)
(1.21504 0.0257083 0)
(1.21072 0.0234323 0)
(1.2065 0.0213221 0)
(1.2024 0.0193669 0)
(1.19841 0.0175568 0)
(1.19454 0.0158819 0)
(1.19082 0.0143325 0)
(1.18726 0.0128992 0)
(1.18388 0.0115726 0)
(1.18069 0.0103438 0)
(1.17771 0.00920414 0)
(1.17494 0.00814511 0)
(1.1724 0.00715861 0)
(1.1701 0.00623684 0)
(1.16803 0.00537221 0)
(1.16622 0.00455735 0)
(1.16465 0.00378519 0)
(1.16334 0.0030488 0)
(1.16229 0.00234146 0)
(1.1615 0.00165653 0)
(1.16098 0.000987613 0)
(1.16071 0.000328073 0)
(1.10088 0.0518579 0)
(1.17474 0.0504617 0)
(1.21136 0.0458473 0)
(1.22535 0.0421872 0)
(1.22807 0.0386599 0)
(1.22602 0.0354696 0)
(1.22224 0.0325264 0)
(1.21798 0.0298033 0)
(1.21367 0.0272768 0)
(1.20945 0.0249284 0)
(1.20533 0.0227454 0)
(1.20131 0.020717 0)
(1.1974 0.0188334 0)
(1.19361 0.0170847 0)
(1.18995 0.0154614 0)
(1.18646 0.0139541 0)
(1.18313 0.0125536 0)
(1.18 0.011251 0)
(1.17706 0.0100376 0)
(1.17434 0.008905 0)
(1.17184 0.00784517 0)
(1.16957 0.00685029 0)
(1.16754 0.00591278 0)
(1.16575 0.0050253 0)
(1.16421 0.00418072 0)
(1.16291 0.00337212 0)
(1.16188 0.00259274 0)
(1.1611 0.00183591 0)
(1.16058 0.00109519 0)
(1.16032 0.000363932 0)
(1.09942 0.0536612 0)
(1.17261 0.0523131 0)
(1.20913 0.0477166 0)
(1.22325 0.044017 0)
(1.22615 0.0404372 0)
(1.22425 0.0371833 0)
(1.22061 0.0341736 0)
(1.21647 0.0313831 0)
(1.21227 0.0287883 0)
(1.20814 0.0263711 0)
(1.20411 0.0241187 0)
(1.20018 0.0220206 0)
(1.19635 0.0200668 0)
(1.19263 0.0182475 0)
(1.18904 0.0165534 0)
(1.18561 0.0149752 0)
(1.18234 0.0135036 0)
(1.17926 0.0121299 0)
(1.17638 0.0108454 0)
(1.1737 0.00964186 0)
(1.17124 0.00851119 0)
(1.169 0.0074456 0)
(1.167 0.00643754 0)
(1.16524 0.00547967 0)
(1.16372 0.00456487 0)
(1.16244 0.0036862 0)
(1.16142 0.00283688 0)
(1.16065 0.00201022 0)
(1.16014 0.00119974 0)
(1.15989 0.000398781 0)
(1.09802 0.0553897 0)
(1.1705 0.0540847 0)
(1.2069 0.0495059 0)
(1.22113 0.0457707 0)
(1.22419 0.0421421 0)
(1.22245 0.0388285 0)
(1.21895 0.0357564 0)
(1.21492 0.0329022 0)
(1.21083 0.0302429 0)
(1.2068 0.0277604 0)
(1.20286 0.0254423 0)
(1.19901 0.0232778 0)
(1.19526 0.021257 0)
(1.19161 0.0193704 0)
(1.1881 0.0176086 0)
(1.18473 0.0159623 0)
(1.18152 0.0144225 0)
(1.17849 0.0129805 0)
(1.17565 0.0116276 0)
(1.17302 0.0103557 0)
(1.17059 0.00915663 0)
(1.16839 0.00802273 0)
(1.16642 0.00694645 0)
(1.16468 0.00592045 0)
(1.16319 0.00493762 0)
(1.16193 0.00399102 0)
(1.16093 0.00307386 0)
(1.16017 0.00217944 0)
(1.15967 0.00130124 0)
(1.15941 0.000432616 0)
(1.09665 0.0570435 0)
(1.16842 0.0557764 0)
(1.20466 0.0512155 0)
(1.21899 0.0474483 0)
(1.22221 0.0437747 0)
(1.22062 0.0404055 0)
(1.21725 0.0372749 0)
(1.21334 0.034361 0)
(1.20935 0.0316408 0)
(1.20542 0.0290967 0)
(1.20157 0.0267163 0)
(1.1978 0.0244887 0)
(1.19413 0.0224043 0)
(1.19056 0.0204535 0)
(1.18711 0.018627 0)
(1.1838 0.0169157 0)
(1.18065 0.0153105 0)
(1.17768 0.0138029 0)
(1.17489 0.0123842 0)
(1.1723 0.0110464 0)
(1.16991 0.0097815 0)
(1.16775 0.00858168 0)
(1.16581 0.00743948 0)
(1.1641 0.00634761 0)
(1.16262 0.00529895 0)
(1.16139 0.00428656 0)
(1.1604 0.00330366 0)
(1.15965 0.00234355 0)
(1.15915 0.00139969 0)
(1.1589 0.000465435 0)
(1.09532 0.0586224 0)
(1.16635 0.0573883 0)
(1.20242 0.0528456 0)
(1.21683 0.0490501 0)
(1.2202 0.0453351 0)
(1.21876 0.0419146 0)
(1.21552 0.0387296 0)
(1.21172 0.0357596 0)
(1.20784 0.0329823 0)
(1.20401 0.0303802 0)
(1.20025 0.0279409 0)
(1.19656 0.0256537 0)
(1.19297 0.0235089 0)
(1.18947 0.0214969 0)
(1.18609 0.0196088 0)
(1.18284 0.0178353 0)
(1.17975 0.0161676 0)
(1.17683 0.0145971 0)
(1.17409 0.0131153 0)
(1.17154 0.0117142 0)
(1.1692 0.0103858 0)
(1.16706 0.00912245 0)
(1.16515 0.00791666 0)
(1.16347 0.00676115 0)
(1.16202 0.00564885 0)
(1.1608 0.00457282 0)
(1.15983 0.00352628 0)
(1.15909 0.00250256 0)
(1.1586 0.00149508 0)
(1.15836 0.000497236 0)
(1.09403 0.0601262 0)
(1.16429 0.0589206 0)
(1.20017 0.0543965 0)
(1.21465 0.0505763 0)
(1.21816 0.0468238 0)
(1.21687 0.0433559 0)
(1.21375 0.0401205 0)
(1.21008 0.0370984 0)
(1.2063 0.0342677 0)
(1.20256 0.0316112 0)
(1.19889 0.0291164 0)
(1.19529 0.0267729 0)
(1.19177 0.0245708 0)
(1.18835 0.0225009 0)
(1.18503 0.0205541 0)
(1.18185 0.0187213 0)
(1.17882 0.0169939 0)
(1.17594 0.0153632 0)
(1.17325 0.0138209 0)
(1.17075 0.012359 0)
(1.16844 0.0109696 0)
(1.16635 0.0096451 0)
(1.16447 0.008378 0)
(1.16281 0.00716109 0)
(1.16138 0.00598733 0)
(1.16018 0.0048498 0)
(1.15922 0.00374173 0)
(1.1585 0.00265646 0)
(1.15801 0.00158742 0)
(1.15777 0.000528021 0)
(1.09277 0.0615549 0)
(1.16226 0.0603732 0)
(1.19792 0.0558685 0)
(1.21245 0.0520272 0)
(1.2161 0.048241 0)
(1.21495 0.0447299 0)
(1.21197 0.0414481 0)
(1.2084 0.0383778 0)
(1.20473 0.0354973 0)
(1.20109 0.0327898 0)
(1.1975 0.0302431 0)
(1.19398 0.0278465 0)
(1.19054 0.0255905 0)
(1.18719 0.0234657 0)
(1.18394 0.0214632 0)
(1.18082 0.019574 0)
(1.17785 0.0177896 0)
(1.17503 0.0161014 0)
(1.17238 0.0145012 0)
(1.16992 0.012981 0)
(1.16766 0.011533 0)
(1.16559 0.0101497 0)
(1.16374 0.00882354 0)
(1.16211 0.00754747 0)
(1.16071 0.00631443 0)
(1.15953 0.00511752 0)
(1.15858 0.00395002 0)
(1.15787 0.00280527 0)
(1.15739 0.00167672 0)
(1.15716 0.00055779 0)
(1.09154 0.0629083 0)
(1.16024 0.0617465 0)
(1.19567 0.0572621 0)
(1.21024 0.0534032 0)
(1.21402 0.0495871 0)
(1.21301 0.0460369 0)
(1.21015 0.0427128 0)
(1.2067 0.039598 0)
(1.20313 0.0366714 0)
(1.19958 0.0339166 0)
(1.19608 0.0313213 0)
(1.19265 0.028875 0)
(1.18929 0.0265681 0)
(1.186 0.0243915 0)
(1.18283 0.0223362 0)
(1.17977 0.0203935 0)
(1.17685 0.0185548 0)
(1.17408 0.0168118 0)
(1.17148 0.0151562 0)
(1.16906 0.0135802 0)
(1.16684 0.0120761 0)
(1.16481 0.0106362 0)
(1.16299 0.00925336 0)
(1.16139 0.00792034 0)
(1.16 0.00663018 0)
(1.15884 0.00537602 0)
(1.15791 0.00415117 0)
(1.15721 0.002949 0)
(1.15674 0.00176297 0)
(1.1565 0.000586548 0)
(1.09034 0.0641865 0)
(1.15824 0.0630406 0)
(1.19342 0.0585776 0)
(1.20802 0.0547047 0)
(1.21192 0.0508626 0)
(1.21104 0.0472775 0)
(1.20831 0.043915 0)
(1.20498 0.0407595 0)
(1.20151 0.0377906 0)
(1.19805 0.034992 0)
(1.19464 0.0323515 0)
(1.19129 0.0298586 0)
(1.188 0.027504 0)
(1.18479 0.0252786 0)
(1.18168 0.0231735 0)
(1.17868 0.02118 0)
(1.17581 0.0192898 0)
(1.1731 0.0174946 0)
(1.17055 0.0157862 0)
(1.16817 0.0141569 0)
(1.16599 0.0125989 0)
(1.16399 0.0111049 0)
(1.1622 0.00966754 0)
(1.16063 0.00827976 0)
(1.15926 0.00693463 0)
(1.15812 0.00562534 0)
(1.1572 0.00434522 0)
(1.15651 0.00308767 0)
(1.15605 0.0018462 0)
(1.15582 0.000614297 0)
(1.08915 0.0653894 0)
(1.15625 0.064256 0)
(1.19118 0.0598156 0)
(1.20579 0.0559322 0)
(1.20981 0.0520679 0)
(1.20906 0.048452 0)
(1.20645 0.0450552 0)
(1.20323 0.0418629 0)
(1.19986 0.0388552 0)
(1.1965 0.0360163 0)
(1.19317 0.0333339 0)
(1.1899 0.0307978 0)
(1.18669 0.0283986 0)
(1.18355 0.0261273 0)
(1.1805 0.0239752 0)
(1.17756 0.0219339 0)
(1.17476 0.0199949 0)
(1.17209 0.01815 0)
(1.16959 0.0163913 0)
(1.16725 0.0147111 0)
(1.1651 0.0131017 0)
(1.16315 0.0115558 0)
(1.16139 0.0100662 0)
(1.15984 0.00862582 0)
(1.1585 0.00722786 0)
(1.15737 0.00586552 0)
(1.15647 0.00453219 0)
(1.15579 0.00322132 0)
(1.15534 0.00192641 0)
(1.15511 0.000641044 0)
(1.088 0.0665174 0)
(1.15428 0.0653929 0)
(1.18893 0.0609767 0)
(1.20356 0.0570863 0)
(1.20768 0.0532037 0)
(1.20706 0.0495612 0)
(1.20457 0.0461339 0)
(1.20146 0.0429086 0)
(1.19819 0.0398658 0)
(1.19492 0.03699 0)
(1.19168 0.0342691 0)
(1.18849 0.031693 0)
(1.18535 0.0292522 0)
(1.18228 0.026938 0)
(1.1793 0.0247419 0)
(1.17642 0.0226554 0)
(1.17367 0.0206702 0)
(1.17106 0.0187782 0)
(1.1686 0.0169717 0)
(1.16631 0.015243 0)
(1.1642 0.0135845 0)
(1.16227 0.011989 0)
(1.16054 0.0104494 0)
(1.15902 0.00895861 0)
(1.1577 0.00750993 0)
(1.15659 0.00609664 0)
(1.1557 0.00471215 0)
(1.15504 0.00334996 0)
(1.15459 0.00200364 0)
(1.15437 0.000666795 0)
(1.08686 0.0675705 0)
(1.15233 0.066452 0)
(1.18669 0.0620615 0)
(1.20131 0.0581676 0)
(1.20554 0.0542706 0)
(1.20505 0.0506055 0)
(1.20268 0.0471519 0)
(1.19967 0.0438973 0)
(1.1965 0.040823 0)
(1.19332 0.0379137 0)
(1.19017 0.0351576 0)
(1.18705 0.0325445 0)
(1.18399 0.0300653 0)
(1.18099 0.0277112 0)
(1.17807 0.0254738 0)
(1.17525 0.0233448 0)
(1.17256 0.021316 0)
(1.16999 0.0193796 0)
(1.16758 0.0175277 0)
(1.16533 0.0157528 0)
(1.16326 0.0140476 0)
(1.16137 0.0124047 0)
(1.15967 0.0108172 0)
(1.15817 0.00927824 0)
(1.15687 0.00778095 0)
(1.15578 0.00631876 0)
(1.15491 0.00488514 0)
(1.15425 0.00347365 0)
(1.15381 0.0020779 0)
(1.15359 0.000691558 0)
(1.08573 0.0685491 0)
(1.15039 0.0674339 0)
(1.18446 0.063071 0)
(1.19907 0.059177 0)
(1.20339 0.0552693 0)
(1.20302 0.0515858 0)
(1.20077 0.0481097 0)
(1.19787 0.0448296 0)
(1.1948 0.0417273 0)
(1.1917 0.038788 0)
(1.18863 0.036 0)
(1.1856 0.0333531 0)
(1.18261 0.0308383 0)
(1.17967 0.0284471 0)
(1.17682 0.0261712 0)
(1.17406 0.0240025 0)
(1.17142 0.0219327 0)
(1.16891 0.0199543 0)
(1.16654 0.0180595 0)
(1.16433 0.0162409 0)
(1.1623 0.0144911 0)
(1.16044 0.0128031 0)
(1.15877 0.01117 0)
(1.15729 0.00958484 0)
(1.15602 0.00804102 0)
(1.15495 0.00653196 0)
(1.15409 0.00505123 0)
(1.15344 0.00359242 0)
(1.15301 0.00214922 0)
(1.15279 0.000715342 0)
(1.08463 0.0694536 0)
(1.14846 0.0683393 0)
(1.18223 0.0640058 0)
(1.19682 0.0601151 0)
(1.20123 0.0562008 0)
(1.20098 0.0525029 0)
(1.19884 0.0490081 0)
(1.19605 0.0457062 0)
(1.19307 0.0425795 0)
(1.19007 0.0396135 0)
(1.18708 0.0367967 0)
(1.18413 0.0341191 0)
(1.18121 0.0315718 0)
(1.17834 0.0291464 0)
(1.17555 0.0268348 0)
(1.17285 0.0246288 0)
(1.17026 0.0225207 0)
(1.1678 0.0205027 0)
(1.16547 0.0185674 0)
(1.16331 0.0167073 0)
(1.16131 0.0149153 0)
(1.15948 0.0131844 0)
(1.15784 0.0115077 0)
(1.15639 0.00987854 0)
(1.15514 0.00829024 0)
(1.15409 0.00673635 0)
(1.15324 0.00521048 0)
(1.15261 0.00370633 0)
(1.15218 0.00221762 0)
(1.15197 0.000738156 0)
(1.08354 0.0702846 0)
(1.14656 0.069169 0)
(1.18001 0.064867 0)
(1.19458 0.0609831 0)
(1.19907 0.0570658 0)
(1.19893 0.0533575 0)
(1.19691 0.049848 0)
(1.19422 0.0465278 0)
(1.19134 0.0433802 0)
(1.18842 0.0403909 0)
(1.18552 0.0375485 0)
(1.18263 0.0348432 0)
(1.17979 0.0322662 0)
(1.17699 0.0298095 0)
(1.17426 0.0274648 0)
(1.17161 0.0252243 0)
(1.16908 0.0230803 0)
(1.16666 0.0210252 0)
(1.16439 0.0190517 0)
(1.16226 0.0171524 0)
(1.1603 0.0153204 0)
(1.1585 0.0135488 0)
(1.15689 0.0118307 0)
(1.15547 0.0101595 0)
(1.15424 0.00852875 0)
(1.1532 0.00693201 0)
(1.15237 0.00536298 0)
(1.15175 0.00381543 0)
(1.15133 0.00228315 0)
(1.15112 0.000760011 0)
(1.08247 0.0710427 0)
(1.14466 0.0699241 0)
(1.1778 0.0656557 0)
(1.19233 0.0617818 0)
(1.19691 0.0578654 0)
(1.19688 0.0541507 0)
(1.19497 0.0506301 0)
(1.19238 0.0472954 0)
(1.18959 0.0441303 0)
(1.18676 0.0411209 0)
(1.18394 0.038256 0)
(1.18113 0.035526 0)
(1.17835 0.0329223 0)
(1.17562 0.0304368 0)
(1.17295 0.0280617 0)
(1.17036 0.0257893 0)
(1.16788 0.0236119 0)
(1.16551 0.0215221 0)
(1.16328 0.0195127 0)
(1.16119 0.0175765 0)
(1.15926 0.0157067 0)
(1.1575 0.0138964 0)
(1.15592 0.012139 0)
(1.15452 0.0104279 0)
(1.15331 0.00875667 0)
(1.15229 0.00711906 0)
(1.15148 0.00550881 0)
(1.15086 0.00391978 0)
(1.15045 0.00234583 0)
(1.15024 0.000780918 0)
(1.08141 0.0717287 0)
(1.14279 0.0706056 0)
(1.17561 0.0663731 0)
(1.19009 0.0625125 0)
(1.19475 0.0586007 0)
(1.19483 0.0548834 0)
(1.19302 0.0513556 0)
(1.19053 0.0480098 0)
(1.18784 0.0448305 0)
(1.18509 0.0418042 0)
(1.18234 0.0389199 0)
(1.17961 0.0361681 0)
(1.1769 0.0335405 0)
(1.17423 0.0310291 0)
(1.17162 0.0286262 0)
(1.16909 0.0263243 0)
(1.16666 0.0241159 0)
(1.16434 0.0219937 0)
(1.16215 0.0199507 0)
(1.1601 0.0179799 0)
(1.15821 0.0160744 0)
(1.15648 0.0142276 0)
(1.15492 0.0124329 0)
(1.15355 0.0106838 0)
(1.15236 0.00897416 0)
(1.15136 0.00729761 0)
(1.15056 0.00564806 0)
(1.14995 0.00401944 0)
(1.14955 0.00240571 0)
(1.14934 0.000800891 0)
(1.08036 0.0723437 0)
(1.14093 0.0712148 0)
(1.17342 0.0670203 0)
(1.18786 0.0631763 0)
(1.19259 0.0592728 0)
(1.19277 0.0555567 0)
(1.19107 0.0520252 0)
(1.18868 0.0486719 0)
(1.18607 0.0454818 0)
(1.18341 0.0424418 0)
(1.18074 0.039541 0)
(1.17808 0.0367703 0)
(1.17543 0.0341215 0)
(1.17283 0.0315868 0)
(1.17028 0.0291587 0)
(1.1678 0.0268298 0)
(1.16542 0.0245928 0)
(1.16315 0.0224406 0)
(1.161 0.0203662 0)
(1.15899 0.0183629 0)
(1.15713 0.0164238 0)
(1.15544 0.0145426 0)
(1.15391 0.0127126 0)
(1.15256 0.0109276 0)
(1.15139 0.00918136 0)
(1.15041 0.00746779 0)
(1.14962 0.00578082 0)
(1.14902 0.00411449 0)
(1.14862 0.00246282 0)
(1.14842 0.000819943 0)
(1.07933 0.0728885 0)
(1.13909 0.0717529 0)
(1.17125 0.0675988 0)
(1.18564 0.0637745 0)
(1.19043 0.059883 0)
(1.19071 0.0561717 0)
(1.18911 0.0526402 0)
(1.18682 0.0492827 0)
(1.1843 0.046085 0)
(1.18172 0.0430343 0)
(1.17913 0.0401201 0)
(1.17653 0.0373334 0)
(1.17396 0.034666 0)
(1.17141 0.0321106 0)
(1.16892 0.0296598 0)
(1.1665 0.0273063 0)
(1.16417 0.025043 0)
(1.16194 0.0228631 0)
(1.15984 0.0207595 0)
(1.15787 0.0187258 0)
(1.15604 0.0167553 0)
(1.15438 0.0148416 0)
(1.15287 0.0129783 0)
(1.15155 0.0111593 0)
(1.1504 0.00937845 0)
(1.14943 0.00762973 0)
(1.14865 0.0059072 0)
(1.14807 0.00420499 0)
(1.14768 0.00251721 0)
(1.14748 0.000838089 0)
(1.0783 0.0733645 0)
(1.13727 0.0722214 0)
(1.1691 0.0681102 0)
(1.18343 0.0643086 0)
(1.18828 0.0604325 0)
(1.18866 0.0567298 0)
(1.18716 0.0532017 0)
(1.18496 0.0498434 0)
(1.18253 0.0466412 0)
(1.18002 0.0435829 0)
(1.1775 0.0406581 0)
(1.17498 0.037858 0)
(1.17247 0.0351748 0)
(1.16999 0.0326012 0)
(1.16755 0.0301301 0)
(1.16518 0.0277544 0)
(1.1629 0.0254671 0)
(1.16072 0.0232616 0)
(1.15865 0.0211311 0)
(1.15672 0.019069 0)
(1.15493 0.0170691 0)
(1.15329 0.0151249 0)
(1.15182 0.0132303 0)
(1.15051 0.0113792 0)
(1.14939 0.00956559 0)
(1.14844 0.00778357 0)
(1.14767 0.00602731 0)
(1.1471 0.00429101 0)
(1.14671 0.00256892 0)
(1.14652 0.000855343 0)
(1.07729 0.073773 0)
(1.13547 0.0726219 0)
(1.16696 0.0685558 0)
(1.18123 0.06478 0)
(1.18613 0.0609228 0)
(1.18661 0.0572322 0)
(1.18521 0.0537109 0)
(1.1831 0.0503549 0)
(1.18075 0.0471514 0)
(1.17833 0.0440884 0)
(1.17588 0.0411557 0)
(1.17342 0.038345 0)
(1.17098 0.0356485 0)
(1.16855 0.0330593 0)
(1.16617 0.0305703 0)
(1.16385 0.0281746 0)
(1.16162 0.0258656 0)
(1.15948 0.0236367 0)
(1.15746 0.0214812 0)
(1.15556 0.019393 0)
(1.1538 0.0173656 0)
(1.1522 0.0153929 0)
(1.15075 0.0134688 0)
(1.14947 0.0115875 0)
(1.14836 0.00974298 0)
(1.14742 0.00792947 0)
(1.14667 0.00614125 0)
(1.14611 0.00437265 0)
(1.14573 0.002618 0)
(1.14554 0.000871721 0)
(1.0763 0.0741153 0)
(1.13369 0.0729561 0)
(1.16484 0.0689374 0)
(1.17904 0.0651903 0)
(1.184 0.0613554 0)
(1.18456 0.0576802 0)
(1.18326 0.054169 0)
(1.18124 0.0508186 0)
(1.17897 0.0476167 0)
(1.17662 0.0445517 0)
(1.17425 0.041614 0)
(1.17186 0.0387952 0)
(1.16947 0.036088 0)
(1.16711 0.0334855 0)
(1.16478 0.0309809 0)
(1.16251 0.0285676 0)
(1.16032 0.026239 0)
(1.15823 0.0239888 0)
(1.15625 0.0218105 0)
(1.15439 0.019698 0)
(1.15266 0.0176451 0)
(1.15108 0.0156458 0)
(1.14966 0.0136942 0)
(1.1484 0.0117844 0)
(1.14731 0.00991079 0)
(1.14639 0.00806756 0)
(1.14565 0.00624915 0)
(1.1451 0.00444999 0)
(1.14473 0.00266451 0)
(1.14454 0.000887241 0)
(1.07531 0.0743931 0)
(1.13193 0.0732258 0)
(1.16275 0.0692568 0)
(1.17687 0.0655412 0)
(1.18188 0.0617317 0)
(1.18253 0.0580752 0)
(1.18131 0.0545773 0)
(1.17938 0.0512355 0)
(1.17719 0.0480381 0)
(1.17492 0.0449741 0)
(1.17261 0.0420339 0)
(1.17029 0.0392096 0)
(1.16796 0.0364941 0)
(1.16565 0.0338806 0)
(1.16338 0.0313627 0)
(1.16116 0.0289339 0)
(1.15902 0.0265879 0)
(1.15697 0.0243184 0)
(1.15502 0.0221193 0)
(1.1532 0.0199845 0)
(1.15151 0.017908 0)
(1.14996 0.0158839 0)
(1.14856 0.0139066 0)
(1.14732 0.0119702 0)
(1.14625 0.0100692 0)
(1.14535 0.00819802 0)
(1.14462 0.00635113 0)
(1.14407 0.0045231 0)
(1.14371 0.00270849 0)
(1.14352 0.000901919 0)
(1.07434 0.0746081 0)
(1.13019 0.0734328 0)
(1.16067 0.0695157 0)
(1.17472 0.0658343 0)
(1.17977 0.0620534 0)
(1.1805 0.0584189 0)
(1.17938 0.0549373 0)
(1.17753 0.051607 0)
(1.17542 0.0484169 0)
(1.17322 0.0453564 0)
(1.17098 0.0424164 0)
(1.16871 0.039589 0)
(1.16645 0.0368675 0)
(1.1642 0.0342454 0)
(1.16197 0.0317164 0)
(1.1598 0.0292743 0)
(1.15771 0.0269129 0)
(1.15569 0.0246262 0)
(1.15379 0.0224081 0)
(1.152 0.0202529 0)
(1.15034 0.0181546 0)
(1.14881 0.0161077 0)
(1.14744 0.0141064 0)
(1.14622 0.0121451 0)
(1.14517 0.0102185 0)
(1.14428 0.00832101 0)
(1.14357 0.00644732 0)
(1.14303 0.00459209 0)
(1.14267 0.00274999 0)
(1.14249 0.000915774 0)
(1.07338 0.0747621 0)
(1.12848 0.0735791 0)
(1.15862 0.0697162 0)
(1.17259 0.0660716 0)
(1.17768 0.0623222 0)
(1.17849 0.0587126 0)
(1.17745 0.0552503 0)
(1.17568 0.0519343 0)
(1.17365 0.0487543 0)
(1.17151 0.0456999 0)
(1.16934 0.0427625 0)
(1.16714 0.0399344 0)
(1.16493 0.0372093 0)
(1.16273 0.0345807 0)
(1.16056 0.0320427 0)
(1.15844 0.0295893 0)
(1.15638 0.0272145 0)
(1.15441 0.0249125 0)
(1.15254 0.0226774 0)
(1.15078 0.0205036 0)
(1.14915 0.0183855 0)
(1.14766 0.0163173 0)
(1.14631 0.0142938 0)
(1.14511 0.0123094 0)
(1.14408 0.0103588 0)
(1.14321 0.00843669 0)
(1.1425 0.00653785 0)
(1.14197 0.00465705 0)
(1.14162 0.00278908 0)
(1.14144 0.000928825 0)
(1.07244 0.074857 0)
(1.12678 0.0736668 0)
(1.15659 0.0698601 0)
(1.17048 0.0662547 0)
(1.1756 0.0625398 0)
(1.17649 0.0589581 0)
(1.17553 0.0555178 0)
(1.17384 0.0522189 0)
(1.17188 0.0490515 0)
(1.16982 0.0460057 0)
(1.1677 0.0430732 0)
(1.16556 0.0402468 0)
(1.16341 0.0375202 0)
(1.16126 0.0348873 0)
(1.15914 0.0323424 0)
(1.15706 0.0298797 0)
(1.15505 0.0274934 0)
(1.15312 0.025178 0)
(1.15129 0.0229278 0)
(1.14956 0.0207372 0)
(1.14796 0.0186008 0)
(1.14649 0.0165133 0)
(1.14517 0.0144692 0)
(1.14399 0.0124633 0)
(1.14297 0.0104904 0)
(1.14212 0.00854526 0)
(1.14143 0.00662285 0)
(1.1409 0.00471807 0)
(1.14056 0.00282582 0)
(1.14038 0.00094109 0)
(1.07151 0.0748947 0)
(1.12511 0.0736981 0)
(1.15458 0.0699496 0)
(1.16839 0.0663858 0)
(1.17355 0.062708 0)
(1.1745 0.0591569 0)
(1.17362 0.0557414 0)
(1.17201 0.052462 0)
(1.17012 0.0493097 0)
(1.16812 0.046275 0)
(1.16607 0.0433498 0)
(1.16399 0.0405271 0)
(1.16189 0.0378011 0)
(1.15979 0.035166 0)
(1.15772 0.0326161 0)
(1.15569 0.0301461 0)
(1.15371 0.0277503 0)
(1.15182 0.0254232 0)
(1.15002 0.0231596 0)
(1.14833 0.020954 0)
(1.14676 0.0188012 0)
(1.14531 0.0166959 0)
(1.14401 0.0146329 0)
(1.14286 0.0126071 0)
(1.14185 0.0106134 0)
(1.14101 0.00864689 0)
(1.14033 0.00670248 0)
(1.13982 0.00477525 0)
(1.13948 0.00286025 0)
(1.13931 0.000952589 0)
(1.07059 0.0748774 0)
(1.12347 0.0736752 0)
(1.1526 0.0699867 0)
(1.16633 0.0664667 0)
(1.17151 0.0628286 0)
(1.17253 0.0593107 0)
(1.17173 0.0559225 0)
(1.17019 0.0526653 0)
(1.16837 0.0495304 0)
(1.16644 0.046509 0)
(1.16444 0.0435932 0)
(1.16242 0.0407765 0)
(1.16037 0.0380531 0)
(1.15832 0.0354177 0)
(1.15629 0.0328648 0)
(1.1543 0.0303893 0)
(1.15237 0.0279857 0)
(1.15052 0.0256488 0)
(1.14875 0.0233735 0)
(1.14709 0.0211546 0)
(1.14554 0.0189869 0)
(1.14413 0.0168655 0)
(1.14285 0.0147851 0)
(1.14171 0.012741 0)
(1.14073 0.0107282 0)
(1.1399 0.00874176 0)
(1.13923 0.00677686 0)
(1.13872 0.0048287 0)
(1.13839 0.00289245 0)
(1.13822 0.000963344 0)
(1.06969 0.0748072 0)
(1.12185 0.0736003 0)
(1.15065 0.0699737 0)
(1.16429 0.0664995 0)
(1.16949 0.0629035 0)
(1.17058 0.0594213 0)
(1.16985 0.0560629 0)
(1.16838 0.05283 0)
(1.16663 0.0497149 0)
(1.16475 0.0467089 0)
(1.16282 0.0438046 0)
(1.16085 0.0409958 0)
(1.15885 0.0382771 0)
(1.15685 0.0356433 0)
(1.15487 0.0330892 0)
(1.15292 0.0306099 0)
(1.15103 0.0282003 0)
(1.1492 0.0258554 0)
(1.14747 0.0235701 0)
(1.14584 0.0213394 0)
(1.14432 0.0191585 0)
(1.14293 0.0170224 0)
(1.14167 0.0149264 0)
(1.14055 0.0128654 0)
(1.13959 0.0108349 0)
(1.13877 0.00883007 0)
(1.13811 0.00684616 0)
(1.13762 0.00487853 0)
(1.13728 0.00292247 0)
(1.13712 0.000973374 0)
(1.0688 0.0746863 0)
(1.12026 0.0734758 0)
(1.14873 0.0699127 0)
(1.16227 0.0664863 0)
(1.1675 0.0629347 0)
(1.16865 0.0594905 0)
(1.16799 0.056164 0)
(1.16659 0.0529578 0)
(1.1649 0.0498645 0)
(1.16308 0.046876 0)
(1.1612 0.0439852 0)
(1.15928 0.0411863 0)
(1.15733 0.038474 0)
(1.15538 0.0358436 0)
(1.15344 0.0332902 0)
(1.15153 0.0308089 0)
(1.14967 0.0283949 0)
(1.14789 0.0260435 0)
(1.14619 0.0237497 0)
(1.14459 0.021509 0)
(1.14309 0.0193164 0)
(1.14173 0.0171672 0)
(1.14049 0.0150568 0)
(1.13939 0.0129806 0)
(1.13844 0.0109339 0)
(1.13763 0.00891202 0)
(1.13699 0.00691052 0)
(1.1365 0.00492483 0)
(1.13617 0.00295039 0)
(1.13601 0.000982701 0)
(1.06793 0.0745171 0)
(1.11869 0.0733041 0)
(1.14684 0.069806 0)
(1.16029 0.0664292 0)
(1.16553 0.0629241 0)
(1.16674 0.05952 0)
(1.16615 0.0562276 0)
(1.16481 0.0530501 0)
(1.16318 0.0499806 0)
(1.16142 0.0470115 0)
(1.15959 0.0441361 0)
(1.15772 0.0413489 0)
(1.15582 0.0386449 0)
(1.15391 0.0360196 0)
(1.15201 0.0334684 0)
(1.15014 0.0309868 0)
(1.14832 0.0285701 0)
(1.14657 0.0262137 0)
(1.1449 0.0239132 0)
(1.14332 0.0216637 0)
(1.14186 0.0194609 0)
(1.14051 0.0173002 0)
(1.1393 0.0151769 0)
(1.13822 0.0130868 0)
(1.13728 0.0110252 0)
(1.13649 0.00898779 0)
(1.13585 0.00697009 0)
(1.13537 0.00496772 0)
(1.13505 0.00297626 0)
(1.13489 0.000991347 0)
(1.06707 0.0743019 0)
(1.11715 0.0730876 0)
(1.14498 0.0696559 0)
(1.15833 0.0663303 0)
(1.16359 0.0628736 0)
(1.16485 0.0595117 0)
(1.16432 0.0562553 0)
(1.16305 0.0531085 0)
(1.16147 0.0500648 0)
(1.15977 0.0471169 0)
(1.15799 0.0442586 0)
(1.15616 0.0414848 0)
(1.15431 0.0387908 0)
(1.15244 0.0361723 0)
(1.15058 0.033625 0)
(1.14875 0.0311445 0)
(1.14697 0.0287266 0)
(1.14525 0.0263668 0)
(1.14361 0.0240609 0)
(1.14206 0.0218042 0)
(1.14062 0.0195926 0)
(1.1393 0.0174217 0)
(1.1381 0.015287 0)
(1.13703 0.0131843 0)
(1.13611 0.0111093 0)
(1.13533 0.0090576 0)
(1.13471 0.00702503 0)
(1.13423 0.00500731 0)
(1.13392 0.00300015 0)
(1.13376 0.000999334 0)
(1.06623 0.0740431 0)
(1.11564 0.0728289 0)
(1.14315 0.0694647 0)
(1.1564 0.0661918 0)
(1.16167 0.0627854 0)
(1.16298 0.0594673 0)
(1.16251 0.0562489 0)
(1.1613 0.0531345 0)
(1.15978 0.0501183 0)
(1.15812 0.0471934 0)
(1.1564 0.044354 0)
(1.15462 0.0415952 0)
(1.1528 0.0389127 0)
(1.15098 0.0363025 0)
(1.14916 0.0337606 0)
(1.14736 0.0312828 0)
(1.14561 0.0288651 0)
(1.14392 0.0265034 0)
(1.14231 0.0241934 0)
(1.14079 0.021931 0)
(1.13937 0.019712 0)
(1.13807 0.0175322 0)
(1.13689 0.0153874 0)
(1.13585 0.0132735 0)
(1.13494 0.0111863 0)
(1.13417 0.00912166 0)
(1.13355 0.0070755 0)
(1.13309 0.0050437 0)
(1.13277 0.00302212 0)
(1.13262 0.00100668 0)
(1.06541 0.0737432 0)
(1.11416 0.0725304 0)