/*--------------------------------*- C++ -*----------------------------------*\
  =========                 |
  \\      /  F ield         | OpenFOAM: The Open Source CFD Toolbox
   \\    /   O peration     | Website:  https://openfoam.org
    \\  /    A nd           | Version:  7
     \\/     M anipulation  |
\*---------------------------------------------------------------------------*/
FoamFile
{
    version     2.0;
    format      ascii;
    class       volScalarField;
    location    "45";
    object      p;
}
// * * * * * * * * * * * * * * * * * * * * * * * * * * * * * * * * * * * * * //

dimensions      [0 2 -2 0 0 0 0];

internalField   nonuniform List<scalar> 
3700
(
-0.226467
-0.217853
-0.209447
-0.201354
-0.193573
-0.186143
-0.179093
-0.172429
-0.166148
-0.160244
-0.154707
-0.149528
-0.144699
-0.14021
-0.13605
-0.132209
-0.128678
-0.125446
-0.122503
-0.11984
-0.117448
-0.115319
-0.113446
-0.111822
-0.110441
-0.109298
-0.108388
-0.107709
-0.107258
-0.107032
-0.225935
-0.217682
-0.209657
-0.201914
-0.19445
-0.187307
-0.180515
-0.174081
-0.168004
-0.16228
-0.156903
-0.151865
-0.147159
-0.142776
-0.138709
-0.134947
-0.131483
-0.128308
-0.125413
-0.12279
-0.120432
-0.118331
-0.11648
-0.114874
-0.113508
-0.112376
-0.111475
-0.110802
-0.110355
-0.110131
-0.225068
-0.217126
-0.209449
-0.202033
-0.194875
-0.188015
-0.181483
-0.175285
-0.169421
-0.163888
-0.158681
-0.153794
-0.149221
-0.144956
-0.140991
-0.13732
-0.133934
-0.130826
-0.127988
-0.125415
-0.123098
-0.121032
-0.119211
-0.117629
-0.116283
-0.115166
-0.114278
-0.113614
-0.113172
-0.112951
-0.223905
-0.216245
-0.208906
-0.201808
-0.19494
-0.188351
-0.182071
-0.176105
-0.170454
-0.165114
-0.160081
-0.15535
-0.150918
-0.146777
-0.142922
-0.139348
-0.136047
-0.133013
-0.130241
-0.127723
-0.125455
-0.12343
-0.121644
-0.120092
-0.118769
-0.117672
-0.116798
-0.116145
-0.115711
-0.115494
-0.222461
-0.215059
-0.208074
-0.20129
-0.194699
-0.188368
-0.18233
-0.17659
-0.171147
-0.165998
-0.161139
-0.156567
-0.152276
-0.148263
-0.144523
-0.14105
-0.13784
-0.134886
-0.132184
-0.129727
-0.127512
-0.125533
-0.123786
-0.122267
-0.120971
-0.119897
-0.11904
-0.1184
-0.117974
-0.117761
-0.22074
-0.213565
-0.206967
-0.200493
-0.194166
-0.188084
-0.182284
-0.176765
-0.171527
-0.166565
-0.161879
-0.157463
-0.153316
-0.149433
-0.14581
-0.142442
-0.139326
-0.136455
-0.133827
-0.131436
-0.129278
-0.127348
-0.125644
-0.12416
-0.122895
-0.121845
-0.121008
-0.120382
-0.119965
-0.119757
-0.218714
-0.211782
-0.205609
-0.199417
-0.19334
-0.187508
-0.181943
-0.176642
-0.171604
-0.166828
-0.162313
-0.158055
-0.154052
-0.1503
-0.146795
-0.143535
-0.140515
-0.137732
-0.135181
-0.132858
-0.13076
-0.128883
-0.127224
-0.125779
-0.124547
-0.123523
-0.122707
-0.122096
-0.12169
-0.121487
-0.216437
-0.209749
-0.204019
-0.198055
-0.192231
-0.18665
-0.181318
-0.176231
-0.171391
-0.166799
-0.162453
-0.158353
-0.154494
-0.150874
-0.14749
-0.14434
-0.141419
-0.138725
-0.136253
-0.134002
-0.131967
-0.130145
-0.128534
-0.12713
-0.125932
-0.124937
-0.124143
-0.123549
-0.123153
-0.122956
-0.213877
-0.207598
-0.20219
-0.196421
-0.19086
-0.185528
-0.180422
-0.175544
-0.170899
-0.166489
-0.162313
-0.158369
-0.154655
-0.151168
-0.147906
-0.144867
-0.142047
-0.139444
-0.137055
-0.134877
-0.132907
-0.131142
-0.129581
-0.12822
-0.127058
-0.126092
-0.125322
-0.124745
-0.124361
-0.12417
-0.211138
-0.205354
-0.200071
-0.194555
-0.189257
-0.18416
-0.17927
-0.174596
-0.170143
-0.165914
-0.161906
-0.158118
-0.154548
-0.151195
-0.148055
-0.145128
-0.14241
-0.1399
-0.137595
-0.135492
-0.133589
-0.131883
-0.130374
-0.129057
-0.127932
-0.126998
-0.126252
-0.125693
-0.125321
-0.125135
-0.208267
-0.202868
-0.197718
-0.192489
-0.187433
-0.182557
-0.177876
-0.173401
-0.169138
-0.165087
-0.161245
-0.157612
-0.154186
-0.150966
-0.147949
-0.145135
-0.14252
-0.140104
-0.137883
-0.135857
-0.134022
-0.132377
-0.13092
-0.129649
-0.128563
-0.12766
-0.126939
-0.126399
-0.12604
-0.12586
-0.205229
-0.200124
-0.195178
-0.190213
-0.185388
-0.180727
-0.176252
-0.171975
-0.167898
-0.164022
-0.160344
-0.156865
-0.153582
-0.150494
-0.147601
-0.144899
-0.142388
-0.140066
-0.137931
-0.135982
-0.134216
-0.132632
-0.131229
-0.130005
-0.128958
-0.128088
-0.127392
-0.126872
-0.126525
-0.126352
-0.202005
-0.197163
-0.192448
-0.187728
-0.183127
-0.17868
-0.17441
-0.170327
-0.166435
-0.162731
-0.159216
-0.155889
-0.152748
-0.149792
-0.14702
-0.144431
-0.142024
-0.139797
-0.137748
-0.135877
-0.134181
-0.132659
-0.13131
-0.130133
-0.129126
-0.128289
-0.12762
-0.127119
-0.126785
-0.126618
-0.198604
-0.194015
-0.18953
-0.185045
-0.180664
-0.176428
-0.172361
-0.168471
-0.164759
-0.161226
-0.157872
-0.154695
-0.151695
-0.14887
-0.14622
-0.143744
-0.14144
-0.139307
-0.137345
-0.135551
-0.133925
-0.132466
-0.131172
-0.130042
-0.129076
-0.128272
-0.12763
-0.127148
-0.126828
-0.126668
-0.195037
-0.190693
-0.186433
-0.182175
-0.178011
-0.173985
-0.170118
-0.166416
-0.162884
-0.15952
-0.156324
-0.153296
-0.150435
-0.14774
-0.145211
-0.142846
-0.140645
-0.138607
-0.136731
-0.135015
-0.13346
-0.132063
-0.130824
-0.129742
-0.128816
-0.128046
-0.127431
-0.12697
-0.126662
-0.126509
-0.191315
-0.187207
-0.183168
-0.179133
-0.175183
-0.171363
-0.167691
-0.164176
-0.16082
-0.157622
-0.154583
-0.151702
-0.148979
-0.146413
-0.144004
-0.14175
-0.139652
-0.137708
-0.135917
-0.13428
-0.132794
-0.13146
-0.130276
-0.129242
-0.128357
-0.12762
-0.127032
-0.126591
-0.126297
-0.12615
-0.187448
-0.183568
-0.179745
-0.175929
-0.17219
-0.168572
-0.165093
-0.161762
-0.158579
-0.155545
-0.152661
-0.149925
-0.147339
-0.1449
-0.142609
-0.140466
-0.138469
-0.136619
-0.134914
-0.133354
-0.131938
-0.130666
-0.129537
-0.128551
-0.127707
-0.127004
-0.126442
-0.126021
-0.125741
-0.125601
-0.183442
-0.179785
-0.176175
-0.172573
-0.169042
-0.165624
-0.162335
-0.159184
-0.156172
-0.1533
-0.150568
-0.147977
-0.145525
-0.143212
-0.141039
-0.139004
-0.137108
-0.135351
-0.13373
-0.132247
-0.130901
-0.129691
-0.128617
-0.127679
-0.126875
-0.126206
-0.125671
-0.12527
-0.125003
-0.124869
-0.179309
-0.175868
-0.172469
-0.169078
-0.165751
-0.162529
-0.159428
-0.156454
-0.153611
-0.150899
-0.148317
-0.145867
-0.143548
-0.14136
-0.139303
-0.137376
-0.13558
-0.133914
-0.132377
-0.130971
-0.129694
-0.128545
-0.127526
-0.126634
-0.125871
-0.125235
-0.124727
-0.124346
-0.124092
-0.123965
-0.175057
-0.171829
-0.168637
-0.165454
-0.162328
-0.159299
-0.156382
-0.153584
-0.150906
-0.148351
-0.145918
-0.143608
-0.14142
-0.139354
-0.137412
-0.135591
-0.133893
-0.132318
-0.130865
-0.129534
-0.128325
-0.127237
-0.126271
-0.125427
-0.124703
-0.124101
-0.123619
-0.123258
-0.123017
-0.122897
-0.170697
-0.167677
-0.164689
-0.16171
-0.158783
-0.155944
-0.153209
-0.150583
-0.148069
-0.145669
-0.143382
-0.141209
-0.13915
-0.137206
-0.135376
-0.13366
-0.132059
-0.130573
-0.129202
-0.127946
-0.126804
-0.125777
-0.124865
-0.124066
-0.123382
-0.122813
-0.122357
-0.122015
-0.121788
-0.121674
-0.16624
-0.163425
-0.160638
-0.15786
-0.155128
-0.152476
-0.149919
-0.147463
-0.14511
-0.142862
-0.140719
-0.138681
-0.136749
-0.134924
-0.133205
-0.131593
-0.130088
-0.12869
-0.1274
-0.126217
-0.125142
-0.124174
-0.123314
-0.122562
-0.121917
-0.121379
-0.12095
-0.120627
-0.120413
-0.120305
-0.161696
-0.159083
-0.156494
-0.153913
-0.151373
-0.148906
-0.146524
-0.144235
-0.14204
-0.139941
-0.13794
-0.136035
-0.134228
-0.13252
-0.13091
-0.129399
-0.127988
-0.126677
-0.125467
-0.124356
-0.123346
-0.122437
-0.121629
-0.120922
-0.120315
-0.11981
-0.119406
-0.119103
-0.118901
-0.1188
-0.157077
-0.154661
-0.152268
-0.149881
-0.14753
-0.145243
-0.143035
-0.140909
-0.13887
-0.136918
-0.135055
-0.13328
-0.131596
-0.130003
-0.1285
-0.127089
-0.125771
-0.124545
-0.123413
-0.122373
-0.121428
-0.120576
-0.119819
-0.119156
-0.118588
-0.118114
-0.117735
-0.11745
-0.117261
-0.117166
-0.152394
-0.150173
-0.147971
-0.145776
-0.143609
-0.1415
-0.139461
-0.137496
-0.135609
-0.133801
-0.132074
-0.130428
-0.128864
-0.127383
-0.125986
-0.124673
-0.123445
-0.122303
-0.121247
-0.120277
-0.119395
-0.1186
-0.117893
-0.117273
-0.116742
-0.116299
-0.115945
-0.115679
-0.115501
-0.115413
-0.147659
-0.145629
-0.143616
-0.141607
-0.139622
-0.137688
-0.135814
-0.134007
-0.132269
-0.130602
-0.129008
-0.127487
-0.126041
-0.12467
-0.123376
-0.122159
-0.12102
-0.119959
-0.118978
-0.118077
-0.117257
-0.116517
-0.115859
-0.115282
-0.114787
-0.114375
-0.114044
-0.113796
-0.113631
-0.113548
-0.142883
-0.141041
-0.139212
-0.137387
-0.13558
-0.133815
-0.132104
-0.130451
-0.128859
-0.12733
-0.125866
-0.124468
-0.123137
-0.121874
-0.12068
-0.119557
-0.118504
-0.117524
-0.116617
-0.115782
-0.115022
-0.114337
-0.113726
-0.113191
-0.112732
-0.112349
-0.112042
-0.111812
-0.111659
-0.111582
-0.138079
-0.13642
-0.134772
-0.133126
-0.131493
-0.129895
-0.128342
-0.126839
-0.12539
-0.123996
-0.122659
-0.12138
-0.120161
-0.119003
-0.117908
-0.116876
-0.115908
-0.115006
-0.11417
-0.113401
-0.1127
-0.112067
-0.111503
-0.111009
-0.110585
-0.110231
-0.109947
-0.109734
-0.109592
-0.109521
-0.133258
-0.131778
-0.130307
-0.128835
-0.127372
-0.125936
-0.124538
-0.123182
-0.121871
-0.120608
-0.119395
-0.118233
-0.117123
-0.116068
-0.115068
-0.114124
-0.113239
-0.112413
-0.111647
-0.110941
-0.110298
-0.109716
-0.109198
-0.108744
-0.108353
-0.108027
-0.107766
-0.10757
-0.107439
-0.107374
-0.128431
-0.127127
-0.125828
-0.124526
-0.123227
-0.121949
-0.120701
-0.119488
-0.118312
-0.117177
-0.116084
-0.115035
-0.114031
-0.113075
-0.112168
-0.111312
-0.110506
-0.109754
-0.109055
-0.108412
-0.107824
-0.107293
-0.106819
-0.106403
-0.106045
-0.105747
-0.105507
-0.105328
-0.105208
-0.105148
-0.123612
-0.122477
-0.121346
-0.120209
-0.11907
-0.117945
-0.116843
-0.115768
-0.114723
-0.113711
-0.112735
-0.111795
-0.110895
-0.110035
-0.109218
-0.108445
-0.107718
-0.107037
-0.106404
-0.105821
-0.105287
-0.104804
-0.104373
-0.103995
-0.103669
-0.103397
-0.103179
-0.103015
-0.102906
-0.102851
-0.11881
-0.11784
-0.116871
-0.115894
-0.114909
-0.113933
-0.112971
-0.11203
-0.111112
-0.11022
-0.109356
-0.108523
-0.107722
-0.106956
-0.106226
-0.105534
-0.104882
-0.10427
-0.103701
-0.103175
-0.102694
-0.102258
-0.101869
-0.101526
-0.101232
-0.100985
-0.100788
-0.100639
-0.10054
-0.100491
-0.114037
-0.113227
-0.112414
-0.111591
-0.110755
-0.109922
-0.109097
-0.108284
-0.107488
-0.106711
-0.105956
-0.105226
-0.104521
-0.103845
-0.103199
-0.102585
-0.102005
-0.101461
-0.100953
-0.100483
-0.100052
-0.099662
-0.0993127
-0.0990053
-0.0987405
-0.098519
-0.0983412
-0.0982076
-0.0981183
-0.0980736
-0.109303
-0.108647
-0.107985
-0.10731
-0.106618
-0.105921
-0.105227
-0.104539
-0.10386
-0.103194
-0.102544
-0.101912
-0.101299
-0.10071
-0.100145
-0.0996064
-0.0990963
-0.0986161
-0.0981673
-0.0977513
-0.0973694
-0.0970226
-0.0967119
-0.0964382
-0.0962023
-0.0960047
-0.095846
-0.0957266
-0.0956468
-0.0956069
-0.10462
-0.104111
-0.103594
-0.10306
-0.102505
-0.10194
-0.101371
-0.100802
-0.100236
-0.0996764
-0.0991263
-0.0985883
-0.0980649
-0.0975584
-0.097071
-0.0966048
-0.0961616
-0.0957432
-0.0953512
-0.0949869
-0.0946517
-0.0943468
-0.0940732
-0.0938319
-0.0936236
-0.0934489
-0.0933086
-0.0932029
-0.0931323
-0.0930969
-0.0999959
-0.0996282
-0.0992486
-0.0988495
-0.0984261
-0.0979868
-0.0975373
-0.0970814
-0.096623
-0.0961651
-0.0957109
-0.0952632
-0.0948245
-0.0943975
-0.0939844
-0.0935872
-0.0932081
-0.0928488
-0.092511
-0.0921963
-0.0919059
-0.0916411
-0.091403
-0.0911927
-0.0910108
-0.0908582
-0.0907354
-0.0906429
-0.090581
-0.0905501
-0.0954409
-0.095207
-0.0949583
-0.0946876
-0.0943886
-0.0940686
-0.0937328
-0.0933849
-0.0930287
-0.0926676
-0.0923047
-0.091943
-0.0915851
-0.0912338
-0.0908914
-0.0905602
-0.0902421
-0.0899393
-0.0896532
-0.0893857
-0.089138
-0.0889116
-0.0887074
-0.0885266
-0.0883701
-0.0882385
-0.0881324
-0.0880525
-0.087999
-0.0879722
-0.0909631
-0.0908558
-0.0907308
-0.0905815
-0.0904002
-0.0901931
-0.0899649
-0.0897193
-0.0894601
-0.0891907
-0.0889143
-0.0886342
-0.088353
-0.0880736
-0.0877984
-0.0875297
-0.0872698
-0.0870205
-0.0867837
-0.0865611
-0.0863541
-0.086164
-0.0859922
-0.0858395
-0.085707
-0.0855954
-0.0855054
-0.0854374
-0.0853919
-0.0853691
-0.0865703
-0.0865822
-0.0865736
-0.0865384
-0.0864678
-0.086367
-0.0862402
-0.086091
-0.0859233
-0.0857405
-0.0855459
-0.0853429
-0.0851342
-0.0849228
-0.0847112
-0.0845018
-0.0842968
-0.0840983
-0.0839081
-0.0837281
-0.0835596
-0.0834041
-0.0832628
-0.0831369
-0.0830272
-0.0829346
-0.0828597
-0.0828031
-0.0827651
-0.082746
-0.0822696
-0.0823929
-0.0824932
-0.0825647
-0.0825978
-0.0825965
-0.0825648
-0.0825062
-0.0824243
-0.0823229
-0.0822053
-0.0820747
-0.0819343
-0.0817869
-0.0816352
-0.0814816
-0.0813285
-0.0811779
-0.0810318
-0.0808918
-0.0807597
-0.0806369
-0.0805245
-0.0804238
-0.0803357
-0.080261
-0.0802004
-0.0801545
-0.0801237
-0.0801082
-0.0780672
-0.0782941
-0.0784957
-0.0786664
-0.0787959
-0.0788874
-0.0789444
-0.0789703
-0.0789687
-0.0789433
-0.0788976
-0.0788349
-0.0787585
-0.0786711
-0.0785756
-0.0784744
-0.0783699
-0.0782643
-0.0781595
-0.0780574
-0.0779594
-0.0778672
-0.0777821
-0.0777051
-0.0776372
-0.0775794
-0.0775323
-0.0774965
-0.0774724
-0.0774603
-0.0739689
-0.0742913
-0.0745863
-0.0748488
-0.0750675
-0.0752448
-0.075384
-0.0754882
-0.0755612
-0.0756065
-0.0756278
-0.0756284
-0.0756115
-0.0755801
-0.075537
-0.0754847
-0.0754257
-0.0753622
-0.075296
-0.0752292
-0.0751632
-0.0750998
-0.07504
-0.0749853
-0.0749364
-0.0748944
-0.07486
-0.0748337
-0.0748159
-0.0748069
-0.0699792
-0.0703892
-0.0707699
-0.0711164
-0.071417
-0.0716733
-0.0718882
-0.0720646
-0.0722064
-0.0723171
-0.0724003
-0.0724594
-0.0724977
-0.0725183
-0.0725238
-0.072517
-0.0725002
-0.0724757
-0.0724455
-0.0724115
-0.0723754
-0.0723386
-0.0723026
-0.0722686
-0.0722375
-0.0722102
-0.0721875
-0.07217
-0.0721581
-0.0721521
-0.0661022
-0.0665917
-0.0670503
-0.0674733
-0.0678485
-0.0681768
-0.0684608
-0.0687034
-0.0689082
-0.0690789
-0.069219
-0.069332
-0.0694211
-0.0694895
-0.0695399
-0.069575
-0.0695972
-0.0696088
-0.0696119
-0.0696083
-0.0695997
-0.0695878
-0.0695737
-0.0695588
-0.0695442
-0.0695306
-0.0695188
-0.0695095
-0.069503
-0.0694997
-0.0623412
-0.0629022
-0.0634309
-0.0639228
-0.0643653
-0.0647588
-0.0651055
-0.0654081
-0.0656703
-0.0658955
-0.0660875
-0.0662496
-0.0663852
-0.0664973
-0.0665888
-0.0666623
-0.0667203
-0.0667651
-0.0667987
-0.0668231
-0.0668399
-0.0668507
-0.0668569
-0.0668597
-0.0668601
-0.0668591
-0.0668575
-0.0668557
-0.0668543
-0.0668535
-0.0586987
-0.0593232
-0.0599143
-0.0604676
-0.0609703
-0.0614221
-0.061825
-0.0621816
-0.0624954
-0.0627699
-0.0630087
-0.0632154
-0.063393
-0.0635448
-0.0636737
-0.0637821
-0.0638727
-0.0639477
-0.0640092
-0.064059
-0.064099
-0.0641306
-0.0641553
-0.0641742
-0.0641885
-0.0641991
-0.0642066
-0.0642118
-0.0642149
-0.0642165
-0.0551765
-0.0558567
-0.0565026
-0.0571099
-0.0576657
-0.0581691
-0.0586219
-0.0590265
-0.0593863
-0.0597047
-0.0599855
-0.060232
-0.0604474
-0.0606349
-0.0607973
-0.0609373
-0.0610573
-0.0611595
-0.0612462
-0.0613191
-0.06138
-0.0614305
-0.0614719
-0.0615056
-0.0615324
-0.0615534
-0.0615694
-0.0615808
-0.0615881
-0.0615917
-0.0517756
-0.0525039
-0.0531972
-0.0538513
-0.0544532
-0.0550016
-0.0554979
-0.0559446
-0.0563448
-0.0567021
-0.0570199
-0.0573017
-0.0575506
-0.0577698
-0.0579621
-0.0581301
-0.0582763
-0.058403
-0.0585121
-0.0586057
-0.0586854
-0.0587529
-0.0588094
-0.0588562
-0.0588943
-0.0589247
-0.0589482
-0.0589653
-0.0589764
-0.0589819
-0.0484966
-0.0492655
-0.049999
-0.0506928
-0.051334
-0.0519209
-0.0524547
-0.0529377
-0.0533729
-0.0537638
-0.0541138
-0.0544264
-0.0547047
-0.0549516
-0.0551702
-0.0553629
-0.0555322
-0.0556804
-0.0558094
-0.0559213
-0.0560177
-0.0561001
-0.05617
-0.0562285
-0.0562767
-0.0563155
-0.0563456
-0.0563677
-0.0563822
-0.0563894
-0.0453394
-0.0461417
-0.0469082
-0.0476348
-0.0483087
-0.0489278
-0.049493
-0.0500066
-0.0504715
-0.050891
-0.0512686
-0.0516075
-0.0519109
-0.0521818
-0.052423
-0.0526371
-0.0528265
-0.0529933
-0.0531397
-0.0532676
-0.0533785
-0.053474
-0.0535556
-0.0536243
-0.0536814
-0.0537275
-0.0537636
-0.0537901
-0.0538075
-0.0538162
-0.0423034
-0.043132
-0.0439247
-0.0446775
-0.0453776
-0.0460228
-0.0466136
-0.0471523
-0.0476416
-0.0480848
-0.0484853
-0.0488463
-0.0491708
-0.0494619
-0.0497223
-0.0499545
-0.0501609
-0.0503436
-0.0505049
-0.0506463
-0.0507697
-0.0508765
-0.0509682
-0.0510458
-0.0511104
-0.0511629
-0.051204
-0.0512343
-0.0512543
-0.0512642
-0.0393873
-0.0402354
-0.0410478
-0.0418203
-0.0425404
-0.0432055
-0.0438164
-0.0443747
-0.0448834
-0.0453455
-0.0457644
-0.0461432
-0.0464849
-0.0467925
-0.0470685
-0.0473157
-0.0475362
-0.0477322
-0.0479057
-0.0480586
-0.0481924
-0.0483087
-0.0484088
-0.0484938
-0.0485648
-0.0486227
-0.0486681
-0.0487017
-0.0487239
-0.0487349
-0.0365898
-0.0374509
-0.0382765
-0.0390625
-0.0397966
-0.040476
-0.0411013
-0.0416742
-0.0421973
-0.0426737
-0.0431066
-0.043499
-0.0438541
-0.0441745
-0.044463
-0.0447219
-0.0449536
-0.0451602
-0.0453437
-0.0455058
-0.0456481
-0.045772
-0.045879
-0.0459702
-0.0460464
-0.0461087
-0.0461576
-0.0461939
-0.0462178
-0.0462297
-0.0339085
-0.0347763
-0.0356091
-0.0364026
-0.0371448
-0.0378329
-0.0384673
-0.0390496
-0.0395824
-0.0400685
-0.0405112
-0.0409133
-0.041278
-0.0416078
-0.0419053
-0.0421731
-0.0424133
-0.0426279
-0.0428189
-0.042988
-0.0431369
-0.0432668
-0.0433792
-0.0434751
-0.0435555
-0.0436212
-0.0436729
-0.0437113
-0.0437366
-0.0437492
-0.0313414
-0.0322101
-0.0330442
-0.0338394
-0.0345842
-0.0352757
-0.0359141
-0.036501
-0.0370387
-0.0375303
-0.0379786
-0.0383866
-0.0387572
-0.039093
-0.0393965
-0.0396701
-0.039916
-0.0401362
-0.0403325
-0.0405066
-0.0406601
-0.0407944
-0.0409106
-0.04101
-0.0410934
-0.0411617
-0.0412155
-0.0412554
-0.0412818
-0.0412949
-0.0288855
-0.0297493
-0.030579
-0.0313704
-0.0321124
-0.032802
-0.0334395
-0.0340262
-0.0345645
-0.0350572
-0.0355071
-0.0359173
-0.0362903
-0.0366288
-0.0369352
-0.0372119
-0.0374609
-0.0376842
-0.0378835
-0.0380607
-0.038217
-0.038354
-0.0384727
-0.0385743
-0.0386597
-0.0387297
-0.0387848
-0.0388258
-0.0388528
-0.0388663
-0.0265383
-0.0273918
-0.0282118
-0.0289942
-0.0297283
-0.0304111
-0.0310429
-0.0316249
-0.0321595
-0.0326493
-0.0330971
-0.0335057
-0.0338778
-0.0342159
-0.0345223
-0.0347993
-0.0350488
-0.0352729
-0.0354733
-0.0356515
-0.0358089
-0.035947
-0.0360669
-0.0361695
-0.0362558
-0.0363266
-0.0363825
-0.036424
-0.0364514
-0.0364651
-0.0242962
-0.025134
-0.0259391
-0.0267072
-0.0274283
-0.0280996
-0.0287211
-0.0292941
-0.0298207
-0.0303037
-0.0307457
-0.0311493
-0.0315172
-0.0318518
-0.0321553
-0.0324299
-0.0326777
-0.0329003
-0.0330996
-0.033277
-0.0334339
-0.0335716
-0.0336912
-0.0337938
-0.0338801
-0.0339509
-0.0340068
-0.0340483
-0.0340758
-0.0340895
-0.0221563
-0.0229737
-0.023759
-0.0245083
-0.0252118
-0.0258669
-0.0264737
-0.0270335
-0.0275484
-0.0280208
-0.0284533
-0.0288487
-0.0292093
-0.0295374
-0.0298354
-0.0301052
-0.0303488
-0.0305679
-0.0307641
-0.0309389
-0.0310937
-0.0312296
-0.0313478
-0.0314491
-0.0315345
-0.0316045
-0.0316599
-0.031701
-0.0317282
-0.0317417
-0.0201144
-0.0209062
-0.0216669
-0.0223923
-0.0230735
-0.0237081
-0.024296
-0.0248384
-0.0253376
-0.0257958
-0.0262156
-0.0265994
-0.0269497
-0.0272686
-0.0275584
-0.027821
-0.0280582
-0.0282717
-0.028463
-0.0286336
-0.0287847
-0.0289175
-0.0290329
-0.029132
-0.0292155
-0.0292841
-0.0293383
-0.0293786
-0.0294052
-0.0294185
-0.0181678
-0.0189299
-0.0196616
-0.0203589
-0.0210136
-0.0216234
-0.0221884
-0.0227098
-0.0231897
-0.0236303
-0.024034
-0.0244033
-0.0247405
-0.0250476
-0.0253268
-0.0255798
-0.0258086
-0.0260145
-0.0261992
-0.0263639
-0.0265099
-0.0266383
-0.02675
-0.0268459
-0.0269267
-0.0269931
-0.0270455
-0.0270845
-0.0271104
-0.0271232
-0.0163113
-0.0170387
-0.0177365
-0.0184011
-0.0190248
-0.0196057
-0.0201437
-0.0206403
-0.0210973
-0.0215169
-0.0219015
-0.0222534
-0.0225746
-0.0228674
-0.0231336
-0.023375
-0.0235932
-0.0237898
-0.0239662
-0.0241235
-0.0242631
-0.0243858
-0.0244926
-0.0245843
-0.0246617
-0.0247252
-0.0247755
-0.0248129
-0.0248376
-0.02485
-0.0145429
-0.0152319
-0.0158921
-0.0165201
-0.0171091
-0.0176572
-0.0181647
-0.018633
-0.0190638
-0.0194595
-0.019822
-0.0201537
-0.0204566
-0.0207327
-0.0209838
-0.0212115
-0.0214174
-0.021603
-0.0217695
-0.0219181
-0.0220499
-0.0221659
-0.0222669
-0.0223536
-0.0224268
-0.0224869
-0.0225344
-0.0225698
-0.0225932
-0.0226048
-0.012856
-0.0135013
-0.0141189
-0.0147057
-0.0152555
-0.0157669
-0.0162402
-0.0166766
-0.0170781
-0.0174466
-0.0177843
-0.0180932
-0.0183752
-0.0186323
-0.0188662
-0.0190783
-0.0192701
-0.019443
-0.0195982
-0.0197368
-0.0198597
-0.0199678
-0.020062
-0.020143
-0.0202112
-0.0202674
-0.0203118
-0.0203448
-0.0203666
-0.0203776
-0.0112495
-0.0118484
-0.0124202
-0.0129625
-0.0134698
-0.013941
-0.0143768
-0.0147784
-0.0151476
-0.0154863
-0.0157966
-0.0160804
-0.0163395
-0.0165756
-0.0167904
-0.0169852
-0.0171615
-0.0173203
-0.0174629
-0.0175903
-0.0177032
-0.0178027
-0.0178893
-0.0179637
-0.0180265
-0.0180781
-0.0181189
-0.0181493
-0.0181694
-0.0181793
-0.00971501
-0.0102612
-0.0107819
-0.0112747
-0.0117352
-0.0121624
-0.0125571
-0.0129205
-0.0132543
-0.0135605
-0.0138408
-0.0140971
-0.0143311
-0.0145443
-0.0147382
-0.0149141
-0.0150732
-0.0152166
-0.0153453
-0.0154603
-0.0155623
-0.0156521
-0.0157303
-0.0157976
-0.0158543
-0.0159009
-0.0159378
-0.0159653
-0.0159835
-0.0159928
-0.00825334
-0.00874516
-0.00921231
-0.00965302
-0.0100637
-0.0104441
-0.0107949
-0.0111176
-0.0114137
-0.0116851
-0.0119334
-0.0121604
-0.0123675
-0.0125562
-0.0127278
-0.0128834
-0.0130242
-0.0131511
-0.013265
-0.0133667
-0.013457
-0.0135365
-0.0136057
-0.0136653
-0.0137155
-0.0137568
-0.0137894
-0.0138137
-0.0138298
-0.0138376
-0.00685201
-0.00728174
-0.00768894
-0.00807223
-0.00842871
-0.00875827
-0.00906181
-0.00934064
-0.00959629
-0.00983038
-0.0100445
-0.01024
-0.0104184
-0.0105809
-0.0107285
-0.0108625
-0.0109836
-0.0110928
-0.0111909
-0.0112784
-0.0113561
-0.0114245
-0.0114841
-0.0115354
-0.0115786
-0.0116141
-0.0116423
-0.0116632
-0.0116772
-0.0116844
-0.00551607
-0.00588383
-0.00623
-0.00655407
-0.0068542
-0.00713075
-0.00738487
-0.00761789
-0.00783127
-0.00802647
-0.00820486
-0.00836773
-0.00851625
-0.00865147
-0.00877437
-0.00888582
-0.00898661
-0.00907746
-0.009159
-0.00923183
-0.00929646
-0.00935335
-0.00940293
-0.00944554
-0.0094815
-0.00951106
-0.00953445
-0.00955184
-0.00956331
-0.00956863
-0.00422503
-0.00452036
-0.00479757
-0.00505633
-0.00529526
-0.00551487
-0.00571625
-0.0059006
-0.0060692
-0.00622326
-0.00636396
-0.00649233
-0.00660933
-0.00671583
-0.0068126
-0.00690034
-0.00697968
-0.00705118
-0.00711536
-0.00717268
-0.00722354
-0.00726832
-0.00730734
-0.00734087
-0.00736917
-0.00739244
-0.00741086
-0.00742457
-0.00743377
-0.00743895
-0.00299252
-0.00321827
-0.0034274
-0.0036205
-0.00379721
-0.0039586
-0.00410599
-0.00424058
-0.00436348
-0.00447568
-0.00457809
-0.00467151
-0.00475663
-0.0048341
-0.00490447
-0.00496827
-0.00502596
-0.00507794
-0.00512459
-0.00516624
-0.00520321
-0.00523575
-0.0052641
-0.00528846
-0.00530902
-0.00532592
-0.00533926
-0.00534916
-0.00535559
-0.00535806
-0.00178064
-0.00192201
-0.00205265
-0.00217255
-0.00228145
-0.00238041
-0.00247049
-0.00255256
-0.00262737
-0.00269561
-0.00275784
-0.00281458
-0.00286627
-0.00291329
-0.00295601
-0.00299472
-0.00302972
-0.00306126
-0.00308955
-0.00311482
-0.00313724
-0.00315697
-0.00317416
-0.00318894
-0.0032014
-0.00321164
-0.00321973
-0.00322572
-0.00322986
-0.00323289
-0.000618655
-0.000681659
-0.000736858
-0.000784545
-0.000825726
-0.000862077
-0.000894653
-0.000924119
-0.000950943
-0.000975448
-0.000997854
-0.00101833
-0.00103701
-0.00105403
-0.0010695
-0.00108351
-0.00109618
-0.00110759
-0.00111782
-0.00112695
-0.00113505
-0.00114217
-0.00114837
-0.0011537
-0.00115819
-0.00116189
-0.0011648
-0.00116687
-0.00116778
-0.00116679
-0.231166
-0.230327
-0.229175
-0.227738
-0.22602
-0.224068
-0.221844
-0.219068
-0.216485
-0.213748
-0.210788
-0.207631
-0.204285
-0.200761
-0.197072
-0.193231
-0.189245
-0.185123
-0.180876
-0.176512
-0.172041
-0.167475
-0.162824
-0.158099
-0.153312
-0.148474
-0.143597
-0.138693
-0.133774
-0.128852
-0.123939
-0.119046
-0.114185
-0.109367
-0.104602
-0.0999008
-0.0952719
-0.0907242
-0.0862658
-0.0819039
-0.0776449
-0.0734945
-0.0694576
-0.0655381
-0.0617395
-0.0580641
-0.0545138
-0.0510895
-0.0477917
-0.0446202
-0.0415742
-0.0386524
-0.0358532
-0.0331742
-0.0306132
-0.028167
-0.025833
-0.0236074
-0.0214874
-0.0194685
-0.0175478
-0.0157206
-0.0139838
-0.0123325
-0.0107632
-0.009271
-0.0078519
-0.00650051
-0.00521242
-0.0039804
-0.0028014
-0.00166018
-0.000561032
-0.23543
-0.234606
-0.233463
-0.232032
-0.23033
-0.228361
-0.226055
-0.223356
-0.220854
-0.218145
-0.21521
-0.212071
-0.208751
-0.20526
-0.201603
-0.197793
-0.193837
-0.189744
-0.185521
-0.181178
-0.176724
-0.172168
-0.167521
-0.162793
-0.157995
-0.153139
-0.148236
-0.143298
-0.138337
-0.133364
-0.128392
-0.123433
-0.118498
-0.113598
-0.108745
-0.103948
-0.0992187
-0.0945651
-0.0899963
-0.0855202
-0.0811438
-0.0768736
-0.0727151
-0.0686731
-0.0647515
-0.0609534
-0.0572812
-0.0537366
-0.0503203
-0.0470327
-0.0438734
-0.0408417
-0.0379359
-0.0351543
-0.0324946
-0.0299543
-0.0275303
-0.0252197
-0.0230188
-0.0209246
-0.0189328
-0.0170401
-0.0152425
-0.0135359
-0.0119169
-0.0103799
-0.00892353
-0.00753872
-0.00622789
-0.0049759
-0.00379115
-0.00264985
-0.00156576
-0.000509057
-0.238206
-0.237089
-0.235692
-0.234031
-0.232101
-0.229877
-0.227419
-0.224849
-0.22219
-0.219325
-0.21625
-0.212987
-0.209554
-0.205955
-0.202198
-0.198291
-0.194243
-0.190061
-0.185753
-0.181328
-0.176795
-0.172164
-0.167445
-0.162649
-0.157786
-0.152867
-0.147905
-0.14291
-0.137896
-0.132874
-0.127856
-0.122853
-0.117878
-0.112942
-0.108056
-0.10323
-0.0984746
-0.0937987
-0.089211
-0.0847193
-0.0803307
-0.0760516
-0.0718873
-0.0678425
-0.063921
-0.0601257
-0.056459
-0.0529223
-0.0495163
-0.0462412
-0.0430964
-0.040081
-0.0371933
-0.0344315
-0.0317931
-0.0292754
-0.0268753
-0.0245898
-0.0224153
-0.0203483
-0.018385
-0.0165217
-0.0147548
-0.0130793
-0.0114936
-0.00998962
-0.00856978
-0.00721961
-0.00595015
-0.0047339
-0.003598
-0.00249257
-0.00146966
-0.000451191
-0.240665
-0.239312
-0.237708
-0.235862
-0.23378
-0.23147
-0.228723
-0.226121
-0.223346
-0.220341
-0.217141
-0.213767
-0.210231
-0.206537
-0.20269
-0.198699
-0.194571
-0.190312
-0.185931
-0.181437
-0.176837
-0.172142
-0.167362
-0.162506
-0.157586
-0.152613
-0.147599
-0.142556
-0.137495
-0.132428
-0.127368
-0.122327
-0.117316
-0.112347
-0.10743
-0.102577
-0.097797
-0.0930997
-0.0884935
-0.0839864
-0.0795853
-0.0752965
-0.0711255
-0.0670766
-0.0631537
-0.0593596
-0.0556964
-0.0521656
-0.0487677
-0.0455028
-0.0423702
-0.0393687
-0.0364968
-0.0337522
-0.0311325
-0.028635
-0.0262564
-0.0239936
-0.0218428
-0.0198007
-0.0178635
-0.016027
-0.0142885
-0.0126419
-0.0110871
-0.00961386
-0.00822828
-0.00691051
-0.00568041
-0.00449738
-0.00340914
-0.00233603
-0.00137538
-0.000388771
-0.242672
-0.24111
-0.239318
-0.237293
-0.234986
-0.232328
-0.229835
-0.227133
-0.224211
-0.221089
-0.21779
-0.214327
-0.210707
-0.206933
-0.203011
-0.198949
-0.194753
-0.19043
-0.185987
-0.181433
-0.176777
-0.172027
-0.167194
-0.162288
-0.15732
-0.152301
-0.147243
-0.142157
-0.137056
-0.131952
-0.126857
-0.121783
-0.116741
-0.111744
-0.106802
-0.101925
-0.0971252
-0.0924102
-0.087789
-0.0832694
-0.0788585
-0.0745625
-0.0703867
-0.0663356
-0.0624127
-0.058621
-0.0549624
-0.0514382
-0.0480489
-0.0447944
-0.041674
-0.0386864
-0.0358298
-0.033102
-0.0305004
-0.0280222
-0.0256641
-0.0234228
-0.0212948
-0.0192762
-0.0173636
-0.0155526
-0.0138407
-0.0122213
-0.0106955
-0.00925132
-0.007898
-0.00661071
-0.00541799
-0.00426586
-0.00322394
-0.00217953
-0.00128187
-0.00032045
-0.245711
-0.24421
-0.242479
-0.24053
-0.238332
-0.235884
-0.233361
-0.230697
-0.227846
-0.224811
-0.221598
-0.218219
-0.214682
-0.210991
-0.207151
-0.203168
-0.199047
-0.194794
-0.190417
-0.185923
-0.18132
-0.176616
-0.171821
-0.166945
-0.161996
-0.156988
-0.15193
-0.146835
-0.141715
-0.13658
-0.131445
-0.12632
-0.121219
-0.116152
-0.111131
-0.106168
-0.101273
-0.0964568
-0.0917277
-0.0870948
-0.0825658
-0.0781478
-0.073847
-0.0696686
-0.0656171
-0.0616959
-0.0579079
-0.054255
-0.0507383
-0.0473582
-0.0441146
-0.0410066
-0.0380328
-0.0351914
-0.0324801
-0.0298961
-0.0274366
-0.0250982
-0.0228776
-0.0207711
-0.0187749
-0.0168856
-0.0150986
-0.0134118
-0.0118181
-0.0103195
-0.00890261
-0.00757946
-0.0063208
-0.00516324
-0.00403978
-0.00304249
-0.0020231
-0.00118897
-0.000245623
-0.246975
-0.245318
-0.243459
-0.241409
-0.239141
-0.236557
-0.23396
-0.231213
-0.228277
-0.225164
-0.221883
-0.218441
-0.214843
-0.211096
-0.207203
-0.20317
-0.199001
-0.194703
-0.190283
-0.185747
-0.181104
-0.176362
-0.17153
-0.166618
-0.161637
-0.156596
-0.151507
-0.146383
-0.141234
-0.136073
-0.130913
-0.125765
-0.120642
-0.115555
-0.110517
-0.105537
-0.100628
-0.0957996
-0.0910602
-0.086419
-0.0818837
-0.0774615
-0.0731583
-0.0689794
-0.0649293
-0.0610113
-0.0572282
-0.0535819
-0.0500734
-0.046703
-0.0434705
-0.0403749
-0.0374148
-0.0345881
-0.0318927
-0.0293256
-0.0268838
-0.0245641
-0.0223629
-0.0202766
-0.0183014
-0.0164339
-0.0146692
-0.0130056
-0.0114358
-0.00996223
-0.00857066
-0.00727524
-0.00604318
-0.00491811
-0.00382101
-0.00286596
-0.00186789
-0.00109734
-0.000164089
-0.247825
-0.24605
-0.244084
-0.241906
-0.239461
-0.236987
-0.23433
-0.231494
-0.228484
-0.225307
-0.22197
-0.218477
-0.214832
-0.21104
-0.207105
-0.203031
-0.198824
-0.194491
-0.190036
-0.185468
-0.180794
-0.176022
-0.171161
-0.166222
-0.161214
-0.156148
-0.151036
-0.145889
-0.140719
-0.135538
-0.130359
-0.125194
-0.120055
-0.114954
-0.109903
-0.104912
-0.0999935
-0.0951567
-0.090411
-0.0857651
-0.0812268
-0.0768031
-0.0725001
-0.068323
-0.0642762
-0.0603631
-0.0565864
-0.0529477
-0.0494481
-0.0460879
-0.0428667
-0.0397835
-0.0368368
-0.0340246
-0.0313444
-0.0287933
-0.0263683
-0.0240661
-0.021883
-0.0198155
-0.0178596
-0.016012
-0.0142679
-0.0126255
-0.0110775
-0.00962663
-0.00825825
-0.00698786
-0.0057802
-0.00468453
-0.00361147
-0.00269564
-0.00171529
-0.0010077
-7.56914e-05
-0.248333
-0.246471
-0.244433