/*--------------------------------*- C++ -*----------------------------------*\
  =========                 |
  \\      /  F ield         | OpenFOAM: The Open Source CFD Toolbox
   \\    /   O peration     | Website:  https://openfoam.org
    \\  /    A nd           | Version:  7
     \\/     M anipulation  |
\*---------------------------------------------------------------------------*/
FoamFile
{
    version     2.0;
    format      ascii;
    class       surfaceScalarField;
    location    "45";
    object      phi;
}
// * * * * * * * * * * * * * * * * * * * * * * * * * * * * * * * * * * * * * //

dimensions      [0 3 -1 0 0 0 0];

internalField   nonuniform List<scalar> 
7273
(
0.000542946
0.0122011
-0.000477844
0.000575105
0.0125911
0.000584863
0.0127206
0.000582759
0.0127308
0.000574604
0.0126942
0.000562866
0.0126404
0.00054858
0.0125811
0.000532309
0.0125214
0.00051444
0.0124638
0.000495248
0.0124093
0.000474926
0.012358
0.000453619
0.0123097
0.000431451
0.0122641
0.000408535
0.012221
0.000384978
0.0121804
0.00036088
0.0121422
0.000336331
0.0121064
0.000311409
0.0120732
0.000286182
0.0120424
0.000260709
0.0120142
0.00023504
0.0119886
0.000209214
0.0119654
0.000183267
0.0119449
0.000157226
0.0119269
0.000131113
0.0119115
0.000104947
0.0118986
7.87414e-05
0.0118883
5.25065e-05
0.0118806
2.62531e-05
0.0118754
0.0118729
0.000458051
0.0121363
-0.00039332
0.000492889
0.0125562
0.000506286
0.0127072
0.00050776
0.0127293
0.000503046
0.0126989
0.000494728
0.0126487
0.000483886
0.0125919
0.000471065
0.0125342
0.000456623
0.0124783
0.000440814
0.0124251
0.000423821
0.012375
0.000405783
0.0123278
0.000386818
0.0122831
0.000367034
0.0122408
0.000346537
0.0122009
0.000325422
0.0121633
0.00030378
0.0121281
0.000281689
0.0120953
0.000259221
0.0120649
0.000236437
0.012037
0.00021339
0.0120116
0.000190128
0.0119887
0.000166689
0.0119683
0.000143107
0.0119505
0.000119412
0.0119351
9.56282e-05
0.0119224
7.17768e-05
0.0119121
4.78748e-05
0.0119045
2.39407e-05
0.0118994
0.0118969
0.000376967
0.0120726
-0.000313251
0.000414064
0.0125191
0.000430827
0.0126904
0.000435681
0.0127245
0.000434204
0.0127004
0.000429077
0.0126538
0.000421436
0.0125996
0.000411825
0.0125438
0.000400584
0.0124895
0.000387952
0.0124378
0.000374101
0.0123889
0.000359162
0.0123427
0.000343246
0.012299
0.000326456
0.0122576
0.000308891
0.0122184
0.000290647
0.0121815
0.000271811
0.0121469
0.000252463
0.0121146
0.000232675
0.0120847
0.000212511
0.0120572
0.000192029
0.0120321
0.000171278
0.0120094
0.000150303
0.0119893
0.000129143
0.0119716
0.000107832
0.0119565
8.64021e-05
0.0119438
6.4879e-05
0.0119337
4.32867e-05
0.0119261
2.16502e-05
0.011921
0.0119185
0.000299778
0.0120103
-0.000237497
0.000338644
0.0124803
0.000358388
0.0126707
0.000366373
0.0127165
0.000367961
0.0126988
0.00036586
0.0126559
0.000361234
0.0126042
0.000354633
0.0125504
0.000346395
0.0124977
0.00033675
0.0124474
0.000325863
0.0123998
0.000313858
0.0123547
0.000300838
0.012312
0.000286902
0.0122715
0.000272143
0.0122332
0.000256654
0.012197
0.000240521
0.0121631
0.000223822
0.0121313
0.000206632
0.0121019
0.000189015
0.0120748
0.000171031
0.0120501
0.000152733
0.0120277
0.000134171
0.0120079
0.000115386
0.0119904
9.64185e-05
0.0119754
7.73041e-05
0.0119629
5.80748e-05
0.0119529
3.876e-05
0.0119454
1.93902e-05
0.0119404
0.0119379
0.000226043
0.01195
-0.000165682
0.000266473
0.0124398
0.00028884
0.0126483
0.000299688
0.0127057
0.0003042
0.0126943
0.000304988
0.0126552
0.000303219
0.012606
0.00029946
0.0125542
0.000294054
0.0125032
0.000287229
0.0124542
0.000279145
0.0124078
0.00026992
0.0123639
0.000259653
0.0123223
0.000248436
0.0122827
0.00023636
0.0122453
0.000223514
0.0122099
0.000209979
0.0121766
0.000195836
0.0121455
0.000181158
0.0121166
0.00016601
0.0120899
0.000150454
0.0120656
0.000134547
0.0120437
0.000118339
0.0120241
0.000101877
0.0120069
8.52051e-05
0.0119921
6.83622e-05
0.0119798
5.13853e-05
0.0119699
3.43087e-05
0.0119625
1.71676e-05
0.0119575
0.0119551
0.000156446
0.0118909
-9.73683e-05
0.000197715
0.0123986
0.000222117
0.0126239
0.000235615
0.0126922
0.000242908
0.012687
0.000246421
0.0126516
0.000247341
0.0126051
0.000246266
0.0125553
0.000243539
0.0125059
0.000239386
0.0124584
0.000233959
0.0124133
0.000227373
0.0123705
0.000219724
0.0123299
0.000211101
0.0122914
0.000201589
0.0122548
0.000191274
0.0122202
0.000180237
0.0121876
0.000168556
0.0121572
0.000156303
0.0121288
0.000143545
0.0121027
0.000130345
0.0120788
0.000116761
0.0120572
0.000102846
0.012038
8.86507e-05
0.0120211
7.42208e-05
0.0120065
5.95997e-05
0.0119944
4.48281e-05
0.0119847
2.99444e-05
0.0119773
1.4988e-05
0.0119725
0.0119701
8.98857e-05
0.0118347
-3.37329e-05
0.000132098
0.0123564
0.000158072
0.0125979
0.000174176
0.0126761
0.000184083
0.0126771
0.000190131
0.0126456
0.000193571
0.0126016
0.000195027
0.0125538
0.000194838
0.0125061
0.000193216
0.01246
0.00019031
0.0124162
0.000186232
0.0123746
0.000181076
0.0123351
0.000174925
0.0122975
0.000167864
0.0122619
0.000159975
0.0122281
0.000151335
0.0121963
0.000142023
0.0121665
0.000132109
0.0121387
0.00012166
0.0121131
0.000110741
0.0120897
9.94111e-05
0.0120686
8.77248e-05
0.0120497
7.57346e-05
0.0120331
6.34897e-05
0.0120188
5.10363e-05
0.0120068
3.84181e-05
0.0119973
2.56773e-05
0.0119901
1.28566e-05
0.0119853
0.0119829
2.90663e-05
0.0117794
2.6274e-05
6.95605e-05
0.0123159
9.70132e-05
0.0125705
0.00011551
0.0126576
0.000127724
0.0126648
0.000136088
0.0126372
0.000141891
0.0125958
0.000145739
0.01255
0.000147949
0.0125039
0.000148723
0.0124592
0.000148208
0.0124167
0.000146513
0.0123763
0.000143728
0.0123379
0.000139936
0.0123013
0.000135217
0.0122666
0.000129648
0.0122337
0.000123309
0.0122026
0.000116272
0.0121735
0.000108611
0.0121464
0.000100391
0.0121214
9.16764e-05
0.0120985
8.25281e-05
0.0120777
7.30025e-05
0.0120592
6.31538e-05
0.0120429
5.30331e-05
0.0120289
4.26892e-05
0.0120172
3.21685e-05
0.0120078
2.15162e-05
0.0120007
1.07778e-05
0.011996
0.0119937
-2.99551e-05
0.011728
8.13936e-05
9.25178e-06
0.0122767
3.92764e-05
0.0125405
5.95082e-05
0.0126373
7.37149e-05
0.0126506
8.42471e-05
0.0126267
9.22894e-05
0.0125878
9.83958e-05
0.0125439
0.000102869
0.0124994
0.00010591
0.0124562
0.00010766
0.0124149
0.000108228
0.0123757
0.0001077
0.0123384
0.000106155
0.0123029
0.000103671
0.0122691
0.000100323
0.012237
9.61865e-05
0.0122067
9.13352e-05
0.0121784
8.5839e-05
0.0121519
7.97653e-05
0.0121274
7.3178e-05
0.012105
6.6138e-05
0.0120848
5.87034e-05
0.0120666
5.09294e-05
0.0120507
4.28692e-05
0.012037
3.45733e-05
0.0120255
2.60907e-05
0.0120163
1.74687e-05
0.0120094
8.75566e-06
0.0120048
0.0120025
-8.72171e-05
0.0116798
0.000135335
-4.64239e-05
0.0122359
-1.58823e-05
0.0125099
5.80546e-06
0.0126156
2.19722e-05
0.0126345
3.45963e-05
0.0126141
4.4748e-05
0.0125776
5.29799e-05
0.0125356
5.9588e-05
0.0124928
6.47718e-05
0.012451
6.86703e-05
0.012411
7.13863e-05
0.012373
7.30036e-05
0.0123368
7.35986e-05
0.0123023
7.32457e-05
0.0122694
7.20188e-05
0.0122382
6.99912e-05
0.0122088
6.72343e-05
0.0121811
6.38178e-05
0.0121553
5.98081e-05
0.0121314
5.52693e-05
0.0121096
5.02627e-05
0.0120898
4.48473e-05
0.012072
3.90793e-05
0.0120564
3.30132e-05
0.012043
2.67012e-05
0.0120318
2.01941e-05
0.0120228
1.35414e-05
0.012016
6.79332e-06
0.0120115
0.0120093
-0.00014085
0.011634
0.000186684
-0.000100478
0.0121955
-6.93156e-05
0.0124788
-4.57031e-05
0.012592
-2.75363e-05
0.0126163
-1.2914e-05
0.0125994
-7.63328e-07
0.0125655
9.46267e-06
0.0125254
1.8088e-05
0.0124842
2.53018e-05
0.0124438
3.12362e-05
0.0124051
3.59907e-05
0.0123683
3.96459e-05
0.0123331
4.22769e-05
0.0122996
4.39552e-05
0.0122677
4.47526e-05
0.0122374
4.47408e-05
0.0122088
4.39893e-05
0.0121819
4.25661e-05
0.0121567
4.05377e-05
0.0121335
3.79684e-05
0.0121121
3.49195e-05
0.0120928
3.14502e-05
0.0120755
2.76177e-05
0.0120603
2.34774e-05
0.0120472
1.90831e-05
0.0120362
1.44867e-05
0.0120274
9.73958e-06
0.0120208
4.89347e-06
0.0120163
0.0120141
-0.000191806
0.0115905
0.000235301
-0.000152085
0.0121558
-0.000119905
0.0124466
-9.48268e-05
0.0125669
-7.48762e-05
0.0125963
-5.8388e-05
0.012583
-4.43455e-05
0.0125514
-3.21984e-05
0.0125133
-2.16519e-05
0.0124736
-1.25134e-05
0.0124347
-4.65004e-06
0.0123973
2.03679e-06
0.0123616
7.62852e-06
0.0123275
1.21955e-05
0.0122951
1.58077e-05
0.0122641
1.85348e-05
0.0122347
2.04466e-05
0.0122069
2.16133e-05
0.0121807
2.20972e-05
0.0121563
2.19686e-05
0.0121336
2.12898e-05
0.0121128
2.0122e-05
0.012094
1.85247e-05
0.0120771
1.6556e-05
0.0120622
1.42719e-05
0.0120494
1.1727e-05
0.0120387
8.97463e-06
0.0120301
6.06738e-06
0.0120237
3.05824e-06
0.0120194
0.0120172
-0.000240185
0.0115493
0.000281395
-0.000200944
0.0121165
-0.000168058
0.0124137
-0.000141617
0.0125405
-0.000120023
0.0125748
-0.000101786
0.0125647
-8.59561e-05
0.0125356
-7.20099e-05
0.0124993
-5.96489e-05
0.0124612
-4.8687e-05
0.0124237
-3.89943e-05
0.0123876
-3.04736e-05
0.012353
-2.30466e-05
0.0123201
-1.6642e-05
0.0122887
-1.11917e-05
0.0122587
-6.62822e-06
0.0122301
-2.8843e-06
0.0122031
1.06629e-07
0.0121777
2.41951e-06
0.0121539
4.11037e-06
0.0121319
5.24315e-06
0.0121117
5.87982e-06
0.0120933
6.08029e-06
0.0120769
5.90277e-06
0.0120624
5.40398e-06
0.0120499
4.63925e-06
0.0120395
3.66275e-06
0.0120311
2.52813e-06
0.0120248
1.28934e-06
0.0120206
0.0120185
-0.000285993
0.0115102
0.000325099
-0.000247258
0.0120778
-0.000213817
0.0123803
-0.000186135
0.0125128
-0.000163012
0.0125516
-0.000143139
0.0125448
-0.000125634
0.0125181
-0.000109989
0.0124837
-9.59166e-05
0.0124472
-8.32327e-05
0.012411
-7.18106e-05
0.0123761
-6.15547e-05
0.0123428
-5.2387e-05
0.0123109
-4.42382e-05
0.0122805
-3.70415e-05
0.0122515
-3.07304e-05
0.0122238
-2.52383e-05
0.0121976
-2.04985e-05
0.012173
-1.64501e-05
0.0121499
-1.30248e-05
0.0121285
-1.01608e-05
0.0121088
-7.79724e-06
0.012091
-5.87455e-06
0.012075
-4.33444e-06
0.0120609
-3.11987e-06
0.0120487
-2.17502e-06
0.0120385
-1.44506e-06
0.0120304
-8.75566e-07
0.0120242
-4.11921e-07
0.0120201
0.0120181
-0.000329306
0.011473
0.000366487
-0.000291144
0.0120396
-0.000257219
0.0123463
-0.000228415
0.012484
-0.000203877
0.0125271
-0.000182476
0.0125234
-0.000163397
0.012499
-0.000146155
0.0124664
-0.00013047
0.0124315
-0.000116162
0.0123967
-0.000103108
0.0123631
-9.12118e-05
0.0123309
-8.03975e-05
0.0123001
-7.05968e-05
0.0122707
-6.17443e-05
0.0122426
-5.37749e-05
0.0122159
-4.66238e-05
0.0121905
-4.02265e-05
0.0121666
-3.45184e-05
0.0121442
-2.94368e-05
0.0121234
-2.49194e-05
0.0121043
-2.09054e-05
0.012087
-1.73353e-05
0.0120714
-1.41509e-05
0.0120577
-1.1295e-05
0.0120459
-8.71152e-06
0.012036
-6.34527e-06
0.012028
-4.14127e-06
0.012022
-2.04442e-06
0.012018
0.012016
-0.000370217
0.0114376
0.000405629
-0.000332648
0.0120021
-0.000298312
0.012312
-0.000268494
0.0124542
-0.000242651
0.0125012
-0.000219824
0.0125006
-0.000199269
0.0124785
-0.000180528
0.0124477
-0.000163326
0.0124143
-0.00014749
0.0123809
-0.000132897
0.0123485
-0.000119454
0.0123174
-0.000107085
0.0122878
-9.57232e-05
0.0122593
-8.53036e-05
0.0122322
-7.57631e-05
0.0122063
-6.70382e-05
0.0121818
-5.90653e-05
0.0121586
-5.17809e-05
0.0121369
-4.5123e-05
0.0121167
-3.90302e-05
0.0120982
-3.34422e-05
0.0120814
-2.82998e-05
0.0120663
-2.35447e-05
0.0120529
-1.912e-05
0.0120414
-1.49693e-05
0.0120318
-1.10372e-05
0.0120241
-7.26851e-06
0.0120183
-3.60773e-06
0.0120144
0.0120124
-0.0004088
0.0114038
0.000442589
-0.000371814
0.0119651
-0.000337138
0.0122773
-0.000306408
0.0124235
-0.000279362
0.0124742
-0.000255209
0.0124765
-0.000233275
0.0124565
-0.000213128
0.0124275
-0.000194504
0.0123957
-0.000177233
0.0123636
-0.000161194
0.0123324
-0.000146294
0.0123025
-0.00013246
0.0122739
-0.000119625
0.0122465
-0.000107725
0.0122203
-9.6699e-05
0.0121953
-8.6484e-05
0.0121715
-7.70176e-05
0.0121491
-6.82377e-05
0.0121281
-6.00828e-05
0.0121086
-5.24922e-05
0.0120906
-4.54063e-05
0.0120743
-3.87662e-05
0.0120596
-3.25141e-05
0.0120467
-2.6593e-05
0.0120355
-2.09466e-05
0.0120262
-1.55195e-05
0.0120186
-1.02563e-05
0.012013
-5.10144e-06
0.0120092
0.0120073
-0.00044511
0.0113715
0.000477426
-0.000408687
0.0119286
-0.000373735
0.0122424
-0.000342187
0.0123919
-0.00031404
0.0124461
-0.000288657
0.0124511
-0.000265438
0.0124333
-0.000243978
0.0124061
-0.000224023
0.0123757
-0.000205407
0.012345
-0.000188011
0.0123151
-0.000171745
0.0122863
-0.000156533
0.0122587
-0.000142311
0.0122323
-0.000129016
0.012207
-0.000116589
0.0121829
-0.000104966
0.0121599
-9.40872e-05
0.0121382
-8.38913e-05
0.0121179
-7.43177e-05
0.012099
-6.53063e-05
0.0120816
-5.67981e-05
0.0120658
-4.87348e-05
0.0120516
-4.10589e-05
0.012039
-3.37137e-05
0.0120282
-2.66431e-05
0.0120191
-1.97918e-05
0.0120118
-1.31043e-05
0.0120063
-6.52538e-06
0.0120026
0.0120008
-0.0004792
0.0113405
0.000510186
-0.000443314
0.0118928
-0.000408139
0.0122072
-0.000375863
0.0123596
-0.00034671
0.0124169
-0.000320193
0.0124246
-0.000295781
0.0124089
-0.000273099
0.0123834
-0.000251903
0.0123545
-0.000232031
0.0123251
-0.000213367
0.0122964
-0.000195819
0.0122687
-0.000179316
0.0122422
-0.000163793
0.0122168
-0.000149187
0.0121924
-0.00013544
0.0121691
-0.000122491
0.012147
-0.00011028
0.012126
-9.87465e-05
0.0121064
-8.78314e-05
0.0120881
-7.74752e-05
0.0120713
-6.76197e-05
0.0120559
-5.8207e-05
0.0120421
-4.91801e-05
0.01203
-4.04827e-05
0.0120195
-3.20592e-05
0.0120107
-2.38543e-05
0.0120036
-1.58128e-05
0.0119983
-7.87963e-06
0.0119947
0.0119929
-0.000511112
0.0113107
0.000540907
-0.000475735
0.0118574
-0.000440387
0.0121718
-0.000407464
0.0123267
-0.000377399
0.0123868
-0.00034984
0.012397
-0.000324327
0.0123834
-0.000300513
0.0123596
-0.000278164
0.0123322
-0.000257124
0.0123041
-0.000237277
0.0122765
-0.000218535
0.01225
-0.000200825
0.0122245
-0.000184083
0.0122
-0.000168248
0.0121766
-0.000153263
0.0121541
-0.000139067
0.0121328
-0.000125602
0.0121126
-0.000112809
0.0120936
-0.000100629
0.0120759
-8.90032e-05
0.0120596
-7.78744e-05
0.0120448
-6.71855e-05
0.0120315
-5.68799e-05
0.0120197
-4.69019e-05
0.0120095
-3.71962e-05
0.012001
-2.7708e-05
0.0119941
-1.83823e-05
0.0119889
-9.16447e-06
0.0119855
0.0119838
-0.000540887
0.011282
0.000569622
-0.00050599
0.0118225
-0.000470513
0.0121364
-0.000437022
0.0122932
-0.000406134
0.0123559
-0.000377624
0.0123685
-0.0003511
0.0123569
-0.000326242
0.0123347
-0.000302828
0.0123087
-0.000280705
0.0122819
-0.000259761
0.0122556
-0.000239908
0.0122301
-0.000221073
0.0122057
-0.000203195
0.0121821
-0.000186212
0.0121596
-0.000170068
0.012138
-0.000154705
0.0121174
-0.000140064
0.0120979
-0.000126087
0.0120796
-0.000112717
0.0120626
-9.98958e-05
0.0120468
-8.7567e-05
0.0120325
-7.56742e-05
0.0120196
-6.41615e-05
0.0120082
-5.29737e-05
0.0119983
-4.20561e-05
0.0119901
-3.13543e-05
0.0119834
-2.08138e-05
0.0119784
-1.03803e-05
0.0119751
0.0119734
-0.000568562
0.0112542
0.000596357
-0.000534116
0.011788
-0.000498549
0.0121008
-0.000464565
0.0122592
-0.000432942
0.0123243
-0.000403571
0.0123391
-0.000376124
0.0123294
-0.000350309
0.0123089
-0.000325916
0.0122844
-0.000302796
0.0122588
-0.000280838
0.0122336
-0.000259956
0.0122093
-0.000240079
0.0121858
-0.000221144
0.0121632
-0.000203093
0.0121415
-0.000185869
0.0121208
-0.000169415
0.012101
-0.000153674
0.0120822
-0.000138589
0.0120645
-0.000124103
0.0120481
-0.00011016
0.0120329
-9.67032e-05
0.012019
-8.3678e-05
0.0120065
-7.10289e-05
0.0119955
-5.87014e-05
0.011986
-4.66414e-05
0.011978
-3.4795e-05
0.0119716
-2.31084e-05
0.0119667
-1.15279e-05
0.0119635
0.0119619
-0.000594169
0.0112272
0.000621135
-0.000560149
0.011754
-0.00052453
0.0120652
-0.000490124
0.0122248
-0.000457851
0.0122921
-0.000427708
0.012309
-0.000399426
0.0123011
-0.00037274
0.0122822
-0.000347453
0.0122591
-0.000323418
0.0122348
-0.000300529
0.0122108
-0.0002787
0.0121874
-0.00025786
0.0121649
-0.000237948
0.0121433
-0.000218907
0.0121225
-0.000200679
0.0121025
-0.00018321
0.0120835
-0.000166444
0.0120654
-0.000150325
0.0120484
-0.000134796
0.0120325
-0.000119803
0.0120179
-0.00010529
0.0120045
-9.12028e-05
0.0119925
-7.74871e-05
0.0119818
-6.40891e-05
0.0119726
-5.09553e-05
0.0119649
-3.80326e-05
0.0119586
-2.52678e-05
0.0119539
-1.26078e-05
0.0119508
0.0119492
-0.000617741
0.011201
0.000643977
-0.000584122
0.0117204
-0.000548488
0.0120295
-0.000513732
0.0121901
-0.000480891
0.0122592
-0.000450063
0.0122782
-0.000421032
0.0122721
-0.000393561
0.0122548
-0.000367462
0.012233
-0.000342596
0.0122099
-0.000318856
0.012187
-0.00029616
0.0121647
-0.000274436
0.0121432
-0.000253625
0.0121225
-0.000233669
0.0121025
-0.000214514
0.0120834
-0.000196105
0.0120651
-0.000178387
0.0120477
-0.000161306
0.0120313
-0.000144806
0.012016
-0.000128834
0.0120019
-0.000113335
0.011989
-9.82552e-05
0.0119774
-8.35416e-05
0.0119671
-6.91412e-05
0.0119582
-5.50013e-05
0.0119507
-4.10696e-05
0.0119447
-2.72936e-05
0.0119402
-1.36211e-05
0.0119371
0.0119356
-0.000639309
0.0111754
0.000664904
-0.000606071
0.0116872
-0.000570458
0.0119939
-0.000535419
0.012155
-0.000502094
0.0122259
-0.000470665
0.0122467
-0.00044097
0.0122424
-0.000412797
0.0122266
-0.00038597
0.0122061
-0.000360353
0.0121843
-0.000335843
0.0121625
-0.000312357
0.0121412
-0.000289827
0.0121207
-0.000268193
0.0121009
-0.000247398
0.0120817
-0.00022739
0.0120634
-0.000208114
0.0120458
-0.000189517
0.0120291
-0.000171545
0.0120134
-0.000154145
0.0119986
-0.000137263
0.011985
-0.000120847
0.0119726
-0.000104843
0.0119614
-8.91988e-05
0.0119514
-7.38631e-05
0.0119429
-5.87837e-05
0.0119356
-4.39092e-05
0.0119298
-2.91881e-05
0.0119255
-1.45687e-05
0.0119225
0.0119211
-0.000658904
0.0111504
0.000683934
-0.000626032
0.0116543
-0.000590476
0.0119584
-0.00055522
0.0121198
-0.00052149
0.0121922
-0.000489545
0.0122148
-0.000459271
0.0122121
-0.00043048
0.0121978
-0.000403005
0.0121787
-0.000376717
0.012158
-0.000351515
0.0121373
-0.000327317
0.012117
-0.000304056
0.0120974
-0.000281673
0.0120785
-0.000260114
0.0120602
-0.000239325
0.0120426
-0.000219253
0.0120257
-0.000199848
0.0120097
-0.000181056
0.0119946
-0.000162824
0.0119804
-0.000145101
0.0119673
-0.000127835
0.0119553
-0.000110973
0.0119445
-9.44657e-05
0.0119349
-7.82605e-05
0.0119267
-6.23071e-05
0.0119197
-4.65549e-05
0.0119141
-3.09533e-05
0.0119098
-1.54517e-05
0.011907
0.0119056
-0.000676557
0.0111258
0.000701091
-0.000644041
0.0116218
-0.000608579
0.0119229
-0.000573172
0.0120844
-0.000539116
0.0121581
-0.000506738
0.0121824
-0.000475967
0.0121814
-0.000446638
0.0121685
-0.000418596
0.0121506
-0.000391716
0.0121311
-0.000365898
0.0121115
-0.000341064
0.0120922
-0.000317147
0.0120735
-0.000294089
0.0120554
-0.000271836
0.0120379
-0.000250337
0.0120211
-0.000229541
0.0120049
-0.000209397
0.0119896
-0.000189852
0.011975
-0.000170857
0.0119614
-0.00015236
0.0119488
-0.00013431
0.0119373
-0.000116657
0.0119269
-9.93499e-05
0.0119176
-8.23397e-05
0.0119096
-6.55764e-05
0.0119029
-4.90103e-05
0.0118975
-3.25918e-05
0.0118934
-1.62714e-05
0.0118907
0.0118893
-0.000692305
0.0111017
0.000716397
-0.000660138
0.0115896
-0.000624807
0.0118876
-0.000589313
0.0120489
-0.000555009
0.0121238
-0.000522278
0.0121497
-0.000491092
0.0121502
-0.000461305
0.0121387
-0.000432774
0.0121221
-0.000405378
0.0121037
-0.000379021
0.0120851
-0.000353624
0.0120668
-0.000329124
0.012049
-0.000305462
0.0120318
-0.000282588
0.0120151
-0.000260449
0.0119989
-0.000238996
0.0119835
-0.00021818
0.0119687
-0.000197951
0.0119548
-0.000178258
0.0119417
-0.000159051
0.0119296
-0.000140283
0.0119185
-0.000121902
0.0119085
-0.00010386
0.0118996
-8.61076e-05
0.0118919
-6.85971e-05
0.0118854
-5.12795e-05
0.0118802
-3.41064e-05
0.0118763
-1.70292e-05
0.0118736
0.0118723
-0.000706183
0.011078
0.000729878
-0.000674364
0.0115578
-0.000639202
0.0118524
-0.000603684
0.0120134
-0.000569206
0.0120893
-0.000536203
0.0121167
-0.000504681
0.0121187
-0.000474516
0.0121085
-0.000445573
0.0120931
-0.000417737
0.0120759
-0.000390913
0.0120583
-0.000365027
0.0120409
-0.000340014
0.012024
-0.000315819
0.0120076
-0.000292391
0.0119916
-0.00026968
0.0119762
-0.000247638
0.0119614
-0.000226217
0.0119473
-0.000205367
0.0119339
-0.000185041
0.0119214
-0.00016519
0.0119097
-0.000145765
0.0118991
-0.000126719
0.0118894
-0.000108004
0.0118809
-8.95714e-05
0.0118735
-7.13749e-05
0.0118672
-5.33669e-05
0.0118622
-3.54998e-05
0.0118584
-1.77265e-05
0.0118559
0.0118546
-0.00071823
0.0110547
0.000741567
-0.000686763
0.0115263
-0.000651808
0.0118175
-0.000616329
0.0119779
-0.000581752
0.0120547
-0.000548554
0.0120835
-0.000516775
0.0120869
-0.000486307
0.012078
-0.000457027
0.0120639
-0.000428824
0.0120477
-0.000401607
0.0120311
-0.000375301
0.0120146
-0.000349846
0.0119985
-0.000325186
0.0119829
-0.000301271
0.0119677
-0.000278054
0.011953
-0.000255488
0.0119389
-0.000233525
0.0119254
-0.000212119
0.0119125
-0.000191223
0.0119005
-0.000170788
0.0118893
-0.00015077
0.0118791
-0.000131119
0.0118698
-0.000111791
0.0118615
-9.27388e-05
0.0118544
-7.39161e-05
0.0118484
-5.52769e-05
0.0118435
-3.67752e-05
0.0118399
-1.83647e-05
0.0118374
0.0118362
-0.000728492
0.0110317
0.000751496
-0.000697383
0.0114952
-0.000662675
0.0117828
-0.000627295
0.0119425
-0.000592691
0.0120201
-0.000559374
0.0120502
-0.000527413
0.0120549
-0.000496718
0.0120474
-0.000467175
0.0120343
-0.000438676
0.0120192
-0.000411135
0.0120035
-0.000384479
0.011988
-0.000358648
0.0119727
-0.000333589
0.0119578
-0.000309254
0.0119434
-0.000285595
0.0119294
-0.000262568
0.0119159
-0.000240127
0.0119029
-0.000218226
0.0118906
-0.00019682
0.0118791
-0.000175863
0.0118684
-0.00015531
0.0118585
-0.000135114
0.0118496
-0.000115232
0.0118417
-9.5618e-05
0.0118348
-7.62271e-05
0.011829
-5.70147e-05
0.0118243
-3.79357e-05
0.0118208
-1.89456e-05
0.0118185
0.0118173
-0.000737013
0.011009
0.000759704
-0.000706274
0.0114645
-0.000671853
0.0117483
-0.000636632
0.0119073
-0.00060207
0.0119856
-0.000568708
0.0120168
-0.000536639
0.0120228
-0.00050579
0.0120165
-0.000476054
0.0120046
-0.00044733
0.0119905
-0.000419533
0.0119757
-0.000392594
0.011961
-0.000366453
0.0119466
-0.000341059
0.0119324
-0.000316366
0.0119187
-0.000292328
0.0119053
-0.000268901
0.0118924
-0.000246042
0.0118801
-0.000223707
0.0118683
-0.00020185
0.0118572
-0.000180429
0.0118469
-0.000159399
0.0118375
-0.000138716
0.0118289
-0.000118337
0.0118213
-9.82176e-05
0.0118147
-7.83148e-05
0.0118091
-5.85851e-05
0.0118046
-3.89849e-05
0.0118012
-1.94709e-05
0.0117989
0.0117978
-0.000743845
0.0109866
0.000766235
-0.00071349
0.0114341
-0.000679397
0.0117142
-0.000644393
0.0118723
-0.000609941
0.0119511
-0.000576605
0.0119835
-0.000544499
0.0119907
-0.000513567
0.0119856
-0.000483707
0.0119747
-0.000454825
0.0119616
-0.000426839
0.0119478
-0.00039968
0.0119339
-0.000373292
0.0119202
-0.000347626
0.0119068
-0.000322636
0.0118937
-0.000298279
0.011881
-0.000274512
0.0118687
-0.000251294
0.0118568
-0.000228581
0.0118456
-0.000206331
0.011835
-0.000184503
0.0118251
-0.000163052
0.011816
-0.000141937
0.0118078
-0.000121116
0.0118005
-0.000100547
0.0117941
-8.01863e-05
0.0117887
-5.99936e-05
0.0117844
-3.99262e-05
0.0117811
-1.99422e-05
0.011779
0.0117779
-0.000749044
0.0109645
0.000771138
-0.000719091
0.0114042
-0.000685365
0.0116805
-0.000650634
0.0118376
-0.000616357
0.0119168
-0.000583116
0.0119502
-0.000551043
0.0119587
-0.000520094
0.0119546
-0.000490177
0.0119448
-0.000461202
0.0119326
-0.000433089
0.0119196
-0.000405774
0.0119066
-0.0003792
0.0118936
-0.000353322
0.0118809
-0.000328094
0.0118685
-0.000303476
0.0118563
-0.000279426
0.0118446
-0.000255904
0.0118333
-0.00023287
0.0118226
-0.000210283
0.0118124
-0.000188101
0.0118029
-0.000166284
0.0117942
-0.000144791
0.0117863
-0.000123581
0.0117793
-0.000102614
0.0117731
-8.1849e-05
0.011768
-6.12457e-05
0.0117638
-4.07633e-05
0.0117607
-2.03615e-05
0.0117586
0.0117575
-0.000752669
0.0109427
0.000774467
-0.000723138
0.0113746
-0.000689818
0.0116472
-0.000655415
0.0118032
-0.000621376
0.0118828
-0.000588295
0.0119171
-0.00055632
0.0119267
-0.00052542
0.0119237
-0.00049551
0.0119149
-0.000466504
0.0119036
-0.000438326
0.0118915
-0.000410913
0.0118791
-0.000384213
0.0118669
-0.000358179
0.0118549
-0.00033277
0.0118431
-0.000307946
0.0118315
-0.000283669
0.0118203
-0.000259899
0.0118095
-0.000236597
0.0117993
-0.000213724
0.0117895
-0.000191242
0.0117804
-0.00016911
0.0117721
-0.000147291
0.0117645
-0.000125743
0.0117577
-0.00010443
0.0117518
-8.33107e-05
0.0117469
-6.23472e-05
0.0117428
-4.15001e-05
0.0117398
-2.07306e-05
0.0117378
0.0117368
-0.000754784
0.0109212
0.000776281
-0.000725696
0.0113456
-0.000692823
0.0116143
-0.000658799
0.0117691
-0.000625057
0.0118491
-0.000592198
0.0118843
-0.000560385
0.0118949
-0.000529595
0.0118929
-0.000499753
0.0118851
-0.000470775
0.0118746
-0.00044259
0.0118633
-0.000415137
0.0118517
-0.000388366
0.0118401
-0.000362232
0.0118287
-0.000336696
0.0118175
-0.000311721
0.0118065
-0.000287268
0.0117959
-0.000263301
0.0117856
-0.000239783
0.0117757
-0.000216676
0.0117664
-0.000193944
0.0117577
-0.000171548
0.0117497
-0.000149451
0.0117424
-0.000127615
0.0117359
-0.000106004
0.0117302
-8.45793e-05
0.0117254
-6.3304e-05
0.0117216
-4.21406e-05
0.0117186
-2.10516e-05
0.0117167
0.0117157
-0.000755458
0.0109
0.000776645
-0.000726835
0.0113169
-0.000694445
0.0115819
-0.000660851
0.0117355
-0.000627462
0.0118157
-0.000594884
0.0118517
-0.000563292
0.0118633
-0.000532672
0.0118623
-0.000502955
0.0118553
-0.000474063
0.0118457
-0.000445926
0.0118351
-0.000418487
0.0118243
-0.000391698
0.0118133
-0.000365517
0.0118026
-0.000339906
0.0117919
-0.000314829
0.0117815
-0.000290251
0.0117713
-0.000266137
0.0117615
-0.000242452
0.0117521
-0.00021916
0.0117431
-0.000196225
0.0117348
-0.000173612
0.0117271
-0.000151285
0.0117201
-0.000129209
0.0117138
-0.000107346
0.0117083
-8.56629e-05
0.0117037
-6.41223e-05
0.0117
-4.26888e-05
0.0116972
-2.13265e-05
0.0116953
0.0116944
-0.000754762
0.0108792
0.000775628
-0.000726627
0.0112888
-0.000694757
0.0115501
-0.000661638
0.0117024
-0.000628655
0.0117827
-0.000596414
0.0118195
-0.000565099
0.011832
-0.000534705
0.0118319
-0.000505167
0.0118258
-0.000476413
0.011817
-0.000448377
0.0118071
-0.000421004
0.0117969
-0.000394248
0.0117866
-0.000368069
0.0117764
-0.000342432
0.0117663
-0.000317303
0.0117563
-0.000292647
0.0117466
-0.000268434
0.0117373
-0.000244628
0.0117282
-0.000221197
0.0117197
-0.000198106
0.0117117
-0.000175321
0.0117043
-0.00015281
0.0116975
-0.000130537
0.0116915
-0.000108468
0.0116863
-8.65701e-05
0.0116818
-6.48084e-05
0.0116783
-4.31489e-05
0.0116756
-2.15574e-05
0.0116737
0.0116728
-0.000752771
0.0108586
0.000773302
-0.000725148
0.0112612
-0.000693831
0.0115187
-0.000661232
0.0116698
-0.000628703
0.0117502
-0.000596852
0.0117876
-0.000565866
0.011801
-0.000535749
0.0118018
-0.000506442
0.0117965
-0.000477877
0.0117884
-0.000449991
0.0117792
-0.000422732
0.0117696
-0.000396057
0.0117599
-0.000369927
0.0117502
-0.00034431
0.0117407
-0.000319174
0.0117312
-0.000294486
0.011722
-0.000270218
0.011713
-0.000246335
0.0117044
-0.000222809
0.0116962
-0.000199605
0.0116885
-0.000176692
0.0116814
-0.000154039
0.0116749
-0.000131612
0.0116691
-0.00010938
0.011664
-8.73094e-05
0.0116598
-6.53687e-05
0.0116563
-4.35252e-05
0.0116537
-2.17464e-05
0.011652
0.0116511
-0.000749565
0.0108385
0.000769745
-0.000722475
0.0112341
-0.000691745
0.011488
-0.000659704
0.0116378
-0.000627676
0.0117181
-0.000596261
0.0117562
-0.000565653
0.0117704
-0.000535861
0.011772
-0.000506833
0.0117675
-0.000478504
0.0117601
-0.000450814
0.0117515
-0.000423715
0.0117425
-0.000397165
0.0117334
-0.000371129
0.0117242
-0.000345575
0.0117151
-0.000320475
0.0117061
-0.000295798
0.0116973
-0.000271516
0.0116887
-0.0002476
0.0116804
-0.000224019
0.0116726
-0.000200743
0.0116652
-0.000177743
0.0116584
-0.000154989
0.0116521
-0.000132448
0.0116466
-0.000110092
0.0116417
-8.78896e-05
0.0116376
-6.58098e-05
0.0116342
-4.38221e-05
0.0116317
-2.18956e-05
0.01163
0.0116292
-0.000745224
0.0108186
0.000765036
-0.000718689
0.0112075
-0.000688574
0.0114579
-0.000657129
0.0116063
-0.000625643
0.0116867
-0.000594708
0.0117253
-0.000564522
0.0117402
-0.000535101
0.0117426
-0.000506396
0.0117388
-0.000478346
0.0117321
-0.000450895
0.0117241
-0.000423997
0.0117156
-0.000397614
0.011707
-0.000371712
0.0116983
-0.000346263
0.0116897
-0.000321239
0.0116811
-0.000296613
0.0116727
-0.000272357
0.0116644
-0.000248446
0.0116565
-0.00022485
0.011649
-0.000201541
0.0116419
-0.000178492
0.0116353
-0.000155674
0.0116293
-0.000133059
0.0116239
-0.000110617
0.0116192
-8.83196e-05
0.0116153
-6.61383e-05
0.0116121
-4.40439e-05
0.0116096
-2.20074e-05
0.011608
0.0116072
-0.000739832
0.0107992
0.00075926
-0.000713873
0.0111816
-0.0006844
0.0114284
-0.000653583
0.0115755
-0.000622676
0.0116557
-0.000592261
0.0116948
-0.000562538
0.0117105
-0.000533527
0.0117136
-0.000505185
0.0117104
-0.000477454
0.0117043
-0.000450282
0.0116969
-0.000423625
0.011689
-0.000397447
0.0116808
-0.000371719
0.0116726
-0.000346411
0.0116643
-0.000321501
0.0116562
-0.000296962
0.0116481
-0.00027277
0.0116403
-0.0002489
0.0116327
-0.000225325
0.0116254
-0.000202019
0.0116186
-0.000178958
0.0116123
-0.000156112
0.0116065
-0.000133457
0.0116013
-0.000110965
0.0115968
-8.86084e-05
0.0115929
-6.6361e-05
0.0115898
-4.41953e-05
0.0115875
-2.2084e-05
0.0115859
0.0115851
-0.000733474
0.0107802
0.000752501
-0.000708108
0.0111562
-0.000679301
0.0113996
-0.000649142
0.0115454
-0.000618847
0.0116255
-0.000588988
0.011665
-0.000559765
0.0116812
-0.000531201
0.011685
-0.000503258
0.0116825
-0.000475883
0.0116769
-0.000449025
0.0116701
-0.000422645
0.0116626
-0.000396708
0.0116549
-0.000371187
0.0116471
-0.000346056
0.0116392
-0.000321294
0.0116314
-0.000296877
0.0116237
-0.000272783
0.0116162
-0.000248988
0.0116089
-0.000225468
0.0116019
-0.000202199
0.0115953
-0.000179158
0.0115892
-0.000156319
0.0115836
-0.000133657
0.0115786
-0.000111147
0.0115742
-8.87652e-05
0.0115705
-6.64848e-05
0.0115675
-4.42808e-05
0.0115653
-2.21276e-05
0.0115637
0.011563
-0.000726236
0.0107616
0.000744847
-0.000701481
0.0111315
-0.000673361
0.0113715
-0.000643885
0.0115159
-0.000614231
0.0115958
-0.000584958
0.0116357
-0.000556266
0.0116526
-0.000528183
0.0116569
-0.000500672
0.011655
-0.000473685
0.01165
-0.000447174
0.0116435