/*--------------------------------*- C++ -*----------------------------------*\
  =========                 |
  \\      /  F ield         | OpenFOAM: The Open Source CFD Toolbox
   \\    /   O peration     | Website:  https://openfoam.org
    \\  /    A nd           | Version:  7
     \\/     M anipulation  |
\*---------------------------------------------------------------------------*/
FoamFile
{
    version     2.0;
    format      ascii;
    class       volScalarField;
    location    "15";
    object      p;
}
// * * * * * * * * * * * * * * * * * * * * * * * * * * * * * * * * * * * * * //

dimensions      [0 2 -2 0 0 0 0];

internalField   nonuniform List<scalar> 
1360
(
0.751296
0.725006
0.700923
0.677045
0.652947
0.628537
0.603953
0.579456
0.555323
0.531788
0.509028
0.487167
0.466283
0.446417
0.427575
0.40974
0.39291
0.377157
0.72558
0.700786
0.678352
0.656192
0.633791
0.610998
0.587915
0.564792
0.541904
0.519491
0.497741
0.476791
0.456729
0.437608
0.419432
0.402177
0.385898
0.370891
0.675306
0.653405
0.634154
0.61532
0.596213
0.576563
0.556408
0.535967
0.515512
0.495295
0.475524
0.456356
0.437907
0.420246
0.403379
0.387262
0.372063
0.35851
0.584924
0.570176
0.556061
0.541647
0.526496
0.510545
0.493966
0.477022
0.45998
0.443073
0.426488
0.410375
0.394834
0.379869
0.365409
0.351771
0.340306
0.489082
0.480774
0.472169
0.46262
0.45193
0.440207
0.427692
0.414664
0.401384
0.388074
0.374924
0.362074
0.349526
0.337175
0.325507
0.316658
0.394225
0.392438
0.390407
0.387248
0.382605
0.376494
0.369123
0.360774
0.351731
0.342253
0.332574
0.322877
0.313169
0.303288
0.293888
0.288066
0.294519
0.299424
0.303077
0.304941
0.304919
0.303163
0.299942
0.295557
0.290296
0.284436
0.278211
0.271637
0.264426
0.257297
0.254594
0.2131
0.22159
0.227836
0.231915
0.234063
0.23458
0.233771
0.231936
0.229352
0.226071
0.221647
0.216468
0.21628
0.147661
0.157493
0.164976
0.170387
0.17403
0.17619
0.177125
0.177077
0.176261
0.17452
0.169955
0.0949559
0.105211
0.113371
0.119737
0.12459
0.128301
0.131438
0.133797
0.131874
0.0630952
0.0715775
0.0786399
0.084905
0.0903148
0.0913799
0.0383047
0.0461982
0.0502308
0.363557
0.351639
0.340651
0.330518
0.321168
0.312536
0.30456
0.297185
0.29036
0.284042
0.278188
0.272762
0.26773
0.263063
0.258733
0.254716
0.250989
0.247533
0.244329
0.241361
0.238611
0.236066
0.233719
0.231562
0.229579
0.227763
0.226105
0.224598
0.223236
0.222012
0.220922
0.219962
0.219126
0.218413
0.217819
0.217342
0.216979
0.216733
0.216612
0.216598
0.358205
0.346986
0.336583
0.326945
0.318015
0.30974
0.302068
0.294954
0.288353
0.282228
0.27654
0.271259
0.266352
0.261794
0.25756
0.253626
0.249972
0.24658
0.243433
0.240516
0.237814
0.235311
0.232986
0.230861
0.228908
0.227117
0.22548
0.223993
0.222647
0.221438
0.220361
0.219412
0.218586
0.217882
0.217295
0.216823
0.216465
0.216223
0.216103
0.216089
0.347614
0.337776
0.328528
0.31987
0.311771
0.304203
0.297135
0.290538
0.284381
0.278638
0.273281
0.268286
0.263628
0.259286
0.25524
0.251472
0.247963
0.244699
0.241664
0.238845
0.236231
0.233816
0.231584
0.229492
0.227588
0.225844
0.22425
0.222799
0.221485
0.220305
0.219253
0.218326
0.217519
0.216831
0.216257
0.215797
0.215448
0.215212
0.215096
0.215083
0.332003
0.324198
0.316647
0.30943
0.302557
0.296031
0.289855
0.284021
0.278521
0.273343
0.268475
0.263903
0.259613
0.255591
0.251825
0.248301
0.245006
0.24193
0.23906
0.236387
0.233901
0.231595
0.229467
0.227505
0.225661
0.223956
0.222432
0.22104
0.219777
0.21864
0.217625
0.21673
0.215951
0.215286
0.214732
0.214287
0.21395
0.213724
0.213611
0.213599
0.311662
0.306497
0.301149
0.295808
0.290533
0.285373
0.280365
0.275533
0.270894
0.266458
0.262231
0.258214
0.254405
0.250803
0.247401
0.244196
0.241181
0.238349
0.235695
0.233212
0.230893
0.228732
0.226726
0.22487
0.223164
0.221598
0.22012
0.218766
0.217565
0.216484
0.215518
0.214663
0.213919
0.213283
0.212753
0.212327
0.212005
0.211788
0.211679
0.211666
0.287026
0.285071
0.282393
0.279328
0.275995
0.272489
0.268893
0.26527
0.261669
0.258126
0.25467
0.25132
0.248091
0.244992
0.242031
0.239212
0.236534
0.234
0.231608
0.229356
0.227241
0.22526
0.223412
0.221692
0.220099
0.218631
0.217285
0.216059
0.214921
0.213892
0.21297
0.212164
0.211463
0.210862
0.21036
0.209957
0.20965
0.209443
0.209335
0.20932
0.258138
0.259833
0.260163
0.259695
0.258608
0.257043
0.255127
0.25296
0.250622
0.248175
0.24567
0.243147
0.240636
0.238164
0.235748
0.233403
0.231141
0.22897
0.226895
0.224922
0.223052
0.221287
0.219627
0.218073
0.216623
0.215278
0.214037
0.212899
0.211859
0.210918
0.210075
0.20932
0.208658
0.20809
0.207613
0.207232
0.206941
0.20674
0.20663
0.206609
0.226488
0.232953
0.237178
0.23998
0.241597
0.242257
0.242176
0.241527
0.240447
0.23905
0.237424
0.23564
0.233755
0.231814
0.229853
0.227899
0.225975
0.224096
0.222277
0.220527
0.218854
0.217262
0.215755
0.214336
0.213007
0.211767
0.210618
0.209559
0.208589
0.207708
0.206915
0.206208
0.205587
0.205051
0.204599
0.204228
0.203938
0.203732
0.20361
0.203576
0.172816
0.185174
0.194402
0.201437
0.206807
0.210837
0.213781
0.215846
0.217198
0.217978
0.218299
0.218256
0.217926
0.217376
0.216657
0.215813
0.214882
0.213892
0.212868
0.211829
0.210792
0.209771
0.208776
0.207815
0.206895
0.206023
0.205202
0.204435
0.203725
0.203075
0.202486
0.201959
0.201495
0.201094
0.200758
0.200486
0.200278
0.200135
0.200061
0.200048
0.155688
0.16617
0.174695
0.181741
0.187524
0.192206
0.195942
0.198876
0.201133
0.202822
0.204038
0.20486
0.20536
0.205596
0.205618
0.20547
0.205186
0.204799
0.204333
0.203811
0.20325
0.202665
0.202071
0.201476
0.200891
0.200321
0.199775
0.199255
0.198768
0.198315
0.197899
0.197524
0.19719
0.1969
0.196653
0.196452
0.196296
0.196188
0.19613
0.196118
0.138721
0.148306
0.156427
0.163453
0.169488
0.174622
0.178951
0.182568
0.185564
0.188018
0.190004
0.19159
0.192832
0.193784
0.194489
0.194989
0.195317
0.195503
0.195574
0.195551
0.195453
0.195298
0.195098
0.194868
0.194615
0.194351
0.194081
0.193812
0.19355
0.1933
0.193064
0.192846
0.19265
0.192476
0.192327
0.192204
0.192108
0.192041
0.192006
0.191998
0.124421
0.133286
0.141048
0.147962
0.154079
0.15945
0.164136
0.168199
0.171701
0.174703
0.177261
0.179427
0.181249
0.182771
0.184032
0.185067
0.185908
0.186582
0.187115
0.187526
0.187837
0.188062
0.188217
0.188315
0.188366
0.188379
0.188365
0.188328
0.188277
0.188215
0.188147
0.188078
0.188011
0.187948
0.187891
0.187843
0.187805
0.187777
0.187763
0.18776
0.112946
0.121185
0.128547
0.135232
0.141267
0.146684
0.151521
0.15582
0.159625
0.162979
0.165925
0.168502
0.17075
0.172702
0.174393
0.175851
0.177105
0.178178
0.179094
0.179872
0.180529
0.181083
0.181546
0.181932
0.182251
0.182513
0.182727
0.1829
0.183039
0.18315
0.183236
0.183304
0.183356
0.183395
0.183424
0.183444
0.183459
0.183468
0.183473
0.183475
0.103555
0.111226
0.118188
0.124601
0.130478
0.135839
0.140708
0.145115
0.149089
0.152662
0.155865
0.158729
0.161283
0.163556
0.165574
0.167362
0.168943
0.170338
0.171568
0.172649
0.173598
0.17443
0.175157
0.175791
0.176344
0.176824
0.17724
0.177599
0.177908
0.178173
0.178398
0.178589
0.178749
0.178881
0.178988
0.179072
0.179135
0.179178
0.1792
0.179205
0.0958707
0.103017
0.109589
0.115712
0.121389
0.126632
0.131458
0.135885
0.139935
0.14363
0.146993
0.150047
0.152815
0.155319
0.15758
0.159619
0.161454
0.163104
0.164585
0.165913
0.167101
0.168164
0.169113
0.169958
0.17071
0.171377
0.171967
0.172489
0.172947
0.173347
0.173696
0.173996
0.174252
0.174466
0.174643
0.174784
0.17489
0.174963
0.175002
0.17501
0.0895803
0.0962489
0.102449
0.108278
0.113735
0.118824
0.123558
0.127948
0.132009
0.135757
0.139209
0.14238
0.14529
0.147955
0.150391
0.152615
0.154643
0.15649
0.158168
0.159693
0.161075
0.162326
0.163458
0.164478
0.165397
0.166223
0.166962
0.167622
0.168209
0.168727
0.169182
0.169577
0.169917
0.170205
0.170443
0.170633
0.170778
0.170878
0.17093
0.170942
0.0844239
0.0906606
0.0965138
0.102058
0.107288
0.112207
0.116821
0.121138
0.125167
0.12892
0.132408
0.135644
0.138641
0.141412
0.14397
0.146328
0.148499
0.150494
0.152325
0.154003
0.155539
0.156942
0.158221
0.159386
0.160443
0.161401
0.162265
0.163042
0.163737
0.164355
0.164901
0.165379
0.165791
0.166142
0.166433
0.166667
0.166845
0.166968
0.167032
0.167046
0.0801933
0.0860438
0.0915787
0.0968542
0.101864
0.106607
0.111087
0.11531
0.11928
0.123005
0.126495
0.129756
0.132801
0.135637
0.138276
0.140726
0.142999
0.145104
0.14705
0.148846
0.150502
0.152025
0.153423
0.154703
0.155873
0.156939
0.157906
0.15878
0.159566
0.160268
0.160891
0.161438
0.161912
0.162316
0.162652
0.162923
0.16313
0.163273
0.163348
0.163364
0.0767215
0.0822307
0.0874783
0.0925061
0.0973065
0.101878
0.106221
0.110339
0.114234
0.117912
0.121379
0.12464
0.127702
0.130574
0.133261
0.135773
0.138117
0.140301
0.142331
0.144217
0.145964
0.14758
0.149071
0.150444
0.151704
0.152857
0.153908
0.154861
0.155722
0.156494
0.157181
0.157786
0.158311
0.15876
0.159134
0.159437
0.159668
0.159827
0.159911
0.159929
0.0738756
0.0790862
0.0840785
0.0888825
0.0934903
0.0978991
0.102109
0.106119
0.109933
0.113553
0.116981
0.120224
0.123285
0.12617
0.128884
0.131433
0.133824
0.136062
0.138153
0.140104
0.14192
0.143607
0.14517
0.146615
0.147946
0.149169
0.150287
0.151305
0.152227
0.153055
0.153795
0.154447
0.155015
0.155501
0.155907
0.156235
0.156487
0.15666
0.156751
0.15677
0.0715498
0.0765026
0.0812714
0.0858769
0.0903112
0.0945711
0.098655
0.102562
0.106293
0.10985
0.113233
0.116446
0.119493
0.122376
0.125101
0.127671
0.13009
0.132364
0.134498
0.136496
0.138362
0.140102
0.14172
0.14322
0.144607
0.145884
0.147055
0.148125
0.149095
0.149969
0.150751
0.151442
0.152045
0.152561
0.152993
0.153342
0.15361
0.153795
0.153892
0.153913
0.069661
0.0743942
0.0789707
0.0834035
0.0876851
0.091812
0.0957818
0.099593
0.103245
0.106739
0.110074
0.113253
0.116278
0.119151
0.121875
0.124453
0.126888
0.129185
0.131347
0.133377
0.13528
0.137058
0.138717
0.140259
0.141688
0.143008
0.14422
0.14533
0.146338
0.147249
0.148064
0.148786
0.149417
0.149957
0.15041
0.150777
0.151058
0.151252
0.151354
0.151375
0.0681437
0.0726934
0.0771077
0.0813936
0.0855442
0.0895556
0.0934251
0.0971505
0.100731
0.104165
0.107454
0.110597
0.113597
0.116454
0.119171
0.12175
0.124192
0.126502
0.128682
0.130734
0.132662
0.134469
0.136157
0.13773
0.139191
0.140542
0.141787
0.142927
0.143966
0.144904
0.145746
0.146492
0.147144
0.147704
0.148173
0.148553
0.148845
0.149046
0.149152
0.149175
0.0669476
0.0713476
0.0756287
0.0797931
0.0838346
0.087749
0.0915333
0.0951851
0.0987026
0.102085
0.105331
0.108441
0.111416
0.114256
0.116962
0.119537
0.121981
0.124297
0.126487
0.128553
0.130498
0.132325
0.134034
0.13563
0.137114
0.138489
0.139757
0.140921
0.141982
0.142942
0.143804
0.144569
0.145238
0.145812
0.146294
0.146685
0.146985
0.147192
0.147301
0.147324
0.0660339
0.0703163
0.074492
0.0785599
0.0825141
0.0863505
0.0900659
0.0936574
0.0971231
0.100461
0.103671
0.106752
0.109704
0.112528
0.115223
0.117792
0.120234
0.122553
0.124749
0.126824
0.12878
0.130619
0.132344
0.133955
0.135456
0.136848
0.138133
0.139314
0.140391
0.141368
0.142244
0.143023
0.143704
0.14429
0.144782
0.14518
0.145486
0.145698
0.145809
0.145833
0.0653736
0.069569
0.0736665
0.0776623
0.081551
0.0853287
0.0889917
0.0925373
0.0959632
0.0992675
0.102449
0.105507
0.10844
0.11125
0.113936
0.116498
0.118938
0.121257
0.123455
0.125535
0.127498
0.129346
0.13108
0.132702
0.134215
0.135618
0.136916
0.138108
0.139197
0.140184
0.141071
0.14186
0.14255
0.143144
0.143642
0.144046
0.144357
0.144571
0.144684
0.144708
0.0649477
0.0690851
0.0731301
0.0770775
0.0809223
0.0846603
0.0882881
0.0918027
0.0952015
0.0984826
0.101645
0.104686
0.107607
0.110407
0.113085
0.115642
0.11808
0.120398
0.122598
0.124681
0.126648
0.1285
0.13024
0.131869
0.133388
0.134799
0.136104
0.137303
0.1384
0.139394
0.140288
0.141082
0.141778
0.142377
0.14288
0.143287
0.143601
0.143817
0.143931
0.143955
0.0647514
0.068854
0.0728697
0.0767912
0.080613
0.0843308
0.0879406
0.0914394
0.0948245
0.0980939
0.101246
0.104279
0.107193
0.109988
0.112662
0.115217
0.117653
0.119971
0.122171
0.124255
0.126223
0.128078
0.129821
0.131453
0.132975
0.13439
0.135698
0.136901
0.138001
0.138999
0.139896
0.140693
0.141392
0.141993
0.142498
0.142908
0.143222
0.143439
0.143554
0.143578
0.157607
0.142577
0.126004
0.11248
0.101636
0.0928603
0.0857861
0.0800895
0.0754998
0.0717991
0.0688132
0.0664042
0.0644639
0.0629077
0.0616699
0.0607004
0.059961
0.0594225
0.0590665
0.0589031
0.121569
0.11018
0.0979444
0.0882369
0.0804512
0.074191
0.0692013
0.0652338
0.0620792
0.0595689
0.0575685
0.0559721
0.0546974
0.0536801
0.0528711
0.0522329
0.0517372
0.0513606
0.0510874
0.0509498
0.0838342
0.0756413
0.0675054
0.0617416
0.0574046
0.0540631
0.0514956
0.0495176
0.0479883
0.0468014
0.0458761
0.0451509
0.0445789
0.0441244
0.0437599
0.0434649
0.0432239
0.0430219
0.0428446
0.0427359
0.0475623
0.0440111
0.0400071
0.0376667
0.036211
0.0352896
0.0347431
0.0344467
0.0343111
0.0342755
0.0342988
0.0343531
0.0344189
0.0344823
0.0345331
0.0345643
0.0345708
0.0345448
0.0344731
0.0344013
)
;

boundaryField
{
    inlet
    {
        type            zeroGradient;
    }
    outlet
    {
        type            fixedValue;
        value           nonuniform 0();
    }
    cylinder
    {
        type            zeroGradient;
    }
    top
    {
        type            symmetryPlane;
    }
    bottom
    {
        type            symmetryPlane;
    }
    defaultFaces
    {
        type            empty;
    }
    procBoundary0to1
    {
        type            processor;
        value           nonuniform List<scalar> 
50
(
0.786857
0.759725
0.706699
0.602732
0.602732
0.498312
0.498312
0.397294
0.289494
0.289494
0.190819
0.2026
0.2026
0.120434
0.135298
0.135298
0.0669984
0.0823011
0.0823011
0.0257531
0.0404682
0.0528181
0.0528181
0.00754293
0.0192892
0.0293557
0.0293557
-0.00691975
0.00317245
0.00995571
0.0121926
0.0137082
0.0140832
0.0151351
0.0163587
0.0175804
0.0187855
0.0199441
0.0210191
0.021992
0.022857
0.0236132
0.0242623
0.0248071
0.0252507
0.0255959
0.0258459
0.0259992
0.0260446
0.0260226
)
;
    }
    procBoundary0to4
    {
        type            processor;
        value           nonuniform List<scalar> 
58
(
0.751296
0.725006
0.700923
0.677045
0.652947
0.628537
0.603953
0.579456
0.555323
0.531788
0.509028
0.487167
0.466283
0.446417
0.427575
0.40974
0.39291
0.377157
0.363557
0.351639
0.340651
0.330518
0.321168
0.312536
0.30456
0.297185
0.29036
0.284042
0.278188
0.272762
0.26773
0.263063
0.258733
0.254716
0.250989
0.247533
0.244329
0.241361
0.238611
0.236066
0.233719
0.231562
0.229579
0.227763
0.226105
0.224598
0.223236
0.222012
0.220922
0.219962
0.219126
0.218413
0.217819
0.217342
0.216979
0.216733
0.216612
0.216598
)
;
    }
}


// ************************************************************************* //
