/*--------------------------------*- C++ -*----------------------------------*\
  =========                 |
  \\      /  F ield         | OpenFOAM: The Open Source CFD Toolbox
   \\    /   O peration     | Website:  https://openfoam.org
    \\  /    A nd           | Version:  7
     \\/     M anipulation  |
\*---------------------------------------------------------------------------*/
FoamFile
{
    version     2.0;
    format      ascii;
    class       surfaceScalarField;
    location    "15";
    object      phi;
}
// * * * * * * * * * * * * * * * * * * * * * * * * * * * * * * * * * * * * * //

dimensions      [0 3 -1 0 0 0 0];

internalField   nonuniform List<scalar> 
2630
(
-0.000697725
0.000357892
-0.00114271
0.000444985
-0.00165231
0.000509604
-0.00220897
0.000556656
-0.00279968
0.000590711
-0.00341542
0.000615743
-0.00405042
0.000634995
-0.00470136
0.000650945
-0.00536673
0.000665367
-0.00604618
0.000679447
-0.0067401
0.000693922
-0.00744931
0.000709215
-0.00817486
0.000725548
-0.00891789
0.000743028
-0.0096796
0.000761706
-0.0104612
0.000781577
-0.0112638
0.000802579
0.000824755
-0.0120885
-0.00068097
0.000707822
-0.00111719
0.000881207
-0.00161795
0.00101036
-0.00216606
0.00110477
-0.00274871
0.00117336
-0.00335688
0.00122391
-0.0039847
0.00126282
-0.00462876
0.00129501
-0.00528743
0.00132403
-0.00596025
0.00135227
-0.00664754
0.00138121
-0.00735006
0.00141173
-0.00806879
0.00144428
-0.00880486
0.00147909
-0.0095594
0.00151625
-0.0103336
0.00155577
-0.0111285
0.00159752
0.00164156
-0.0119453
-0.000647832
-0.00106663
0.0013
-0.00154974
0.00149347
-0.00208081
0.00163584
-0.00264734
0.00173989
-0.00324035
0.00181692
-0.00385385
0.00187631
-0.00448418
0.00192534
-0.00512949
0.00196934
-0.00578913
0.00201191
-0.00646326
0.00205534
-0.00715251
0.00210098
-0.00785776
0.00214954
-0.00858006
0.00220139
-0.00932048
0.00225667
-0.0100801
0.0023154
-0.01086
0.00237739
0.00244272
-0.0116611
-0.000991978
-0.00144878
0.00195027
-0.00195433
0.00214139
-0.0024967
0.00228226
-0.00306699
0.00238722
-0.00365902
0.00246834
-0.00426884
0.00253516
-0.00489424
0.00259474
-0.00553429
0.00265196
-0.0061889
0.00270995
-0.00685852
0.0027706
-0.00754391
0.00283493
-0.00824596
0.00290344
-0.00896567
0.00297638
-0.00970402
0.00305375
-0.0104619
0.00313529
0.00322103
-0.0112402
-0.00131671
0.00237227
-0.00178836
0.00261305
-0.00229854
0.00279244
-0.00283854
0.00292722
-0.00340197
0.00303177
-0.00398452
0.00311771
-0.00458357
0.00319378
-0.00519778
0.00326617
-0.00582675
0.00333893
-0.00647071
0.00341455
-0.00713021
0.00349443
-0.00780603
0.00357927
-0.00849905
0.0036694
-0.00921014
0.00376484
-0.00994004
0.0038652
0.00397027
-0.0106893
-0.00115582
-0.00158531
0.00304254
-0.00205528
0.00326241
-0.00255737
0.00342931
-0.00308506
0.00355947
-0.00363363
0.00366628
-0.00419996
0.00376011
-0.00478225
0.00384846
-0.00537972
0.0039364
-0.00599231
0.00402714
-0.00662038
0.0041225
-0.00726458
0.00422346
-0.00792567
0.00433049
-0.00860454
0.00444371
-0.00930183
0.00456249
0.0046858
-0.0100174
-0.00134834
-0.00177009
-0.00222658
0.0038858
-0.00271128
0.00404416
-0.00321906
0.00417406
-0.00374627
0.00428733
-0.0042906
0.00439278
-0.00485079
0.0044966
-0.00542646
0.00460281
-0.00601782
0.00471386
-0.00662542
0.00483106
-0.00725001
0.00495508
-0.00789282
0.00508652
-0.00855606
0.00522573
0.00536828
-0.00923854
-0.00185027
-0.00228459
-0.00274468
0.00463416
-0.00322638
0.00476902
-0.00372676
0.00489316
-0.0042441
0.00501394
-0.00477767
0.00513638
-0.00532757
0.00526376
-0.00589459
0.00539809
-0.00647996
0.00554044
-0.00708478
0.00569135
-0.00771191
0.00585285
0.00603352
-0.00837715
-0.00221434
-0.00264315
-0.00309224
0.00534225
-0.00355903
0.00548073
-0.00404198
0.00561932
-0.00454033
0.00576212
-0.00505399
0.00591174
-0.0055834
0.00606986
-0.00612986
0.00623781
-0.00669465
0.00641764
0.00660857
-0.00726971
-0.00239638
-0.00280738
-0.00323534
-0.00367889
0.00620566
-0.00413737
0.00637023
-0.00461066
0.00654315
-0.00509862
0.00672578
-0.00559985
0.00691887
0.00712223
-0.00611351
-0.00274735
-0.00314591
-0.00355835
-0.00398386
0.00715129
-0.0044212
0.00735621
0.00756976
-0.00486873
-0.00278999
-0.00315947
-0.00353904
-0.0122858
0.00019734
-0.0124634
0.000177509
-0.0126213
0.000157962
-0.0127614
0.00014005
-0.0128853
0.000123979
-0.012995
0.000109628
-0.0130918
9.6805e-05
-0.0131771
8.53215e-05
-0.0132521
7.5008e-05
-0.0133178
6.5718e-05
-0.0133752
5.73253e-05
-0.0134249
4.97214e-05
-0.0134677
4.28127e-05
-0.0135042
3.65182e-05
-0.013535
3.07679e-05
-0.0135605
2.55008e-05
-0.0135811
2.06637e-05
-0.0135973
1.62106e-05
-0.0136094
1.21013e-05
-0.0136177
8.30092e-06
-0.0136225
4.7837e-06
-0.0136241
1.55696e-06
-0.0136226
-1.51087e-06
-0.0136181
-4.43807e-06
-0.013611
-7.14578e-06
-0.0136013
-9.68328e-06
-0.0135892
-1.20735e-05
-0.0135749
-1.43328e-05
-0.0135584
-1.64756e-05
-0.0135399
-1.85145e-05
-0.0135195
-2.04612e-05
-0.0134971
-2.23262e-05
-0.013473
-2.41192e-05
-0.0134472
-2.58492e-05
-0.0134196
-2.75248e-05
-0.0133905
-2.91537e-05
-0.0133597
-3.07436e-05
-0.0133274
-3.23011e-05
-0.0132936
-3.38335e-05
-3.53514e-05
-0.0121445
0.000396469
-0.0123242
0.000357243
-0.0124848
0.000318582
-0.0126279
0.000283092
-0.0127551
0.000251196
-0.0128681
0.000222676
-0.0129685
0.000197165
-0.0130575
0.000174297
-0.0131362
0.000153741
-0.0132057
0.000135211
-0.0132668
0.00011846
-0.0133204
0.000103274
-0.013367
8.94701e-05
-0.0134074
7.68876e-05
-0.013442
6.53881e-05
-0.0134714
5.48509e-05
-0.0134959
4.51705e-05
-0.0135159
3.62548e-05
-0.0135319
2.80237e-05
-0.013544
2.04077e-05
-0.0135525
1.33473e-05
-0.0135578
6.80026e-06
-0.0135602
8.73675e-07
-0.0135595
-5.08727e-06
-0.0135561
-1.05288e-05
-0.0135502
-1.56186e-05
-0.0135418
-2.04102e-05
-0.0135312
-2.49399e-05
-0.0135185
-2.92371e-05
-0.0135037
-3.3327e-05
-0.0134869
-3.72326e-05
-0.0134682
-4.09753e-05
-0.0134478
-4.45744e-05
-0.0134256
-4.80481e-05
-0.0134017
-5.14135e-05
-0.0133762
-5.46866e-05
-0.013349
-5.78823e-05
-0.0133203
-6.10145e-05
-0.0132901
-6.40976e-05
-6.71529e-05
-0.0118637
0.000599038
-0.0120478
0.000541322
-0.0122136
0.000484428
-0.0123626
0.000432036
-0.0124962
0.000384818
-0.012616
0.000342501
-0.0127234
0.000304576
-0.0128197
0.000270523
-0.0129058
0.000239869
-0.0129828
0.000212202
-0.0130515
0.000187163
-0.0131127
0.000164442
-0.013167
0.000143769
-0.013215
0.000124912
-0.0132573
0.000107667
-0.0132943
9.18552e-05
-0.0133264
7.73214e-05
-0.0133541
6.3929e-05
-0.0133776
5.15577e-05
-0.0133973
4.01023e-05
-0.0134134
2.94724e-05
-0.0134262
1.95916e-05
-0.0134358
1.03957e-05
-0.0134428
1.94482e-06
-0.0134469
-6.38133e-06
-0.0134485
-1.407e-05
-0.0134476
-2.13034e-05
-0.0134444
-2.81356e-05
-0.013439
-3.46133e-05
-0.0134316
-4.07788e-05
-0.0134221
-4.66681e-05
-0.0134108
-5.23134e-05
-0.0133976
-5.77444e-05
-0.0133827
-6.29884e-05
-0.013366
-6.80714e-05
-0.0133477
-7.30178e-05
-0.0133277
-7.78502e-05
-0.0133062
-8.25898e-05
-0.013283
-8.72592e-05
-9.18895e-05
-0.0114476
0.000806433
-0.011638
0.000731658
-0.0118114
0.000657876
-0.011969
0.000589623
-0.012112
0.000527859
-0.0122419
0.000472321
-0.0123597
0.000422408
-0.0124666
0.000377481
-0.0125637
0.000336954
-0.0126518
0.000300308
-0.0127318
0.00026709
-0.0128042
0.000236904
-0.0128699
0.000209405
-0.0129292
0.000184294
-0.0129829
0.000161306
-0.0130312
0.000140212
-0.0130747
0.000120808
-0.0131137
0.000102916
-0.0131485
8.63789e-05
-0.0131795
7.10558e-05
-0.0132068
5.6824e-05
-0.0132308
4.35755e-05
-0.0132516
3.12163e-05
-0.0132694
1.96589e-05
-0.0132846
8.81774e-06
-0.0132975
-1.16256e-06
-0.0133076
-1.11838e-05
-0.0133154
-2.03412e-05
-0.013321
-2.90337e-05
-0.0133244
-3.73091e-05
-0.0133259
-4.5215e-05
-0.0133254
-5.27968e-05
-0.013323
-6.00946e-05
-0.0133189
-6.71457e-05
-0.013313
-7.39851e-05
-0.0133053
-8.06458e-05
-0.013296
-8.71584e-05
-0.0132851
-9.3552e-05
-0.0132725
-9.98572e-05
-0.000106115
-0.0109026
0.00101972
-0.0111008
0.000929863
-0.0112839
0.000840994
-0.0114526
0.000758298
-0.0116078
0.000683058
-0.0117506
0.000615102
-0.0118819
0.0005538
-0.0120029
0.000498442
-0.0121143
0.000448365
-0.012217
0.000402969
-0.0123116
0.000361729
-0.0123989
0.000324181
-0.0124794
0.000289918
-0.0125537
0.000258582
-0.0126222
0.00022986
-0.0126855
0.000203474
-0.0127439
0.000179179
-0.0127977
0.000156758
-0.0128474
0.00013602
-0.0128931
0.000116792
-0.0129352
9.89223e-05
-0.0129739
8.22752e-05
-0.0130094
6.67267e-05
-0.0130419
5.21661e-05
-0.0130716
3.85062e-05
-0.0130984
2.56541e-05
-0.0131231
1.34835e-05
-0.0131456
2.14047e-06
-0.0131656
-9.01589e-06
-0.0131834
-1.94812e-05
-0.0131992
-2.94425e-05
-0.013213
-3.90049e-05
-0.0132249
-4.82158e-05
-0.0132349
-5.71199e-05
-0.0132431
-6.57629e-05
-0.0132496
-7.41875e-05
-0.0132543
-8.24329e-05
-0.0132573
-9.05368e-05
-0.0132586
-9.85384e-05
-0.000106488
-0.0102372
0.00123952
-0.0104444
0.00113706
-0.0106387
0.00103536
-0.0108205
0.000940069
-0.0109902
0.000852786
-0.0111486
0.000773511
-0.0112965
0.000701646
-0.0114345
0.000636468
-0.0115634
0.000577279
-0.0116839
0.000523443
-0.0117966
0.000474389
-0.011902
0.000429612
-0.0120007
0.00038866
-0.0120933
0.000351135
-0.0121801
0.000316683
-0.0122616
0.000284989
-0.0123382
0.000255771
-0.0124102
0.000228779
-0.012478
0.000203791
-0.0125418
0.000180607
-0.0126019
0.000159047
-0.0126586
0.000138951
-0.0127121
0.000120173
-0.0127625
0.000102584
-0.01281
8.60616e-05
-0.0128549
7.0496e-05
-0.0128972
5.57987e-05
-0.0129369
4.18844e-05
-0.0129746
2.8628e-05
-0.0130101
1.59966e-05
-0.0130435
3.97612e-06
-0.0130748
-7.68181e-06
-0.0131041
-1.88781e-05
-0.0131316
-2.96834e-05
-0.0131572
-4.01765e-05
-0.0131809
-5.04183e-05
-0.0132029
-6.04548e-05
-0.0132231
-7.03302e-05
-0.0132416
-8.0094e-05
-8.98042e-05
-0.0094651
0.00146609
-0.00968218
0.00135414
-0.00988905
0.00124223
-0.0100854
0.00113646
-0.0102715
0.00103884
-0.0104476
0.000949569
-0.0106141
0.000868153
-0.0107715
0.000793916
-0.0109204
0.000726184
-0.0110613
0.000664325
-0.0111947
0.000607759
-0.011321
0.000555963
-0.0114408
0.000508464
-0.0115545
0.000464838
-0.0116625
0.000424703
-0.0117653
0.000387715
-0.0118631
0.000353567
-0.0119563
0.00032198
-0.0120452
0.000292707
-0.0121301
0.000265522
-0.0122113
0.000240222
-0.0122889
0.000216625
-0.0123633
0.000194565
-0.0124346
0.000173891
-0.0125031
0.000154466
-0.0125687
0.000136163
-0.0126318
0.00011887
-0.0126924
0.000102478
-0.0127506
8.68927e-05
-0.0128067
7.20298e-05
-0.0128605
5.78093e-05
-0.0129123
4.41385e-05
-0.0129622
3.09569e-05
-0.0130101
1.82008e-05
-0.0130561
5.82175e-06
-0.0131002
-6.30826e-06
-0.0131424
-1.81995e-05
-0.0131829
-2.98979e-05
-0.0132215
-4.14804e-05
-5.3016e-05
-0.00860064
0.00168958
-0.00882198
0.00157548
-0.00903739
0.00145765
-0.0092466
0.00134567
-0.00944905
0.00124128
-0.00964422
0.00114474
-0.0098318
0.00105574
-0.0100117
0.000973828
-0.010184
0.000898495
-0.0103489
0.000829228
-0.0105067
0.000765527
-0.0106577
0.00070692
-0.0108022
0.000652962
-0.0109406
0.000603242
-0.0110732
0.000557377
-0.0112005
0.000515015
-0.0113228
0.000475835
-0.0114404
0.000439543
-0.0115535
0.00040587
-0.0116626
0.000374571
-0.0117678
0.000345423
-0.0118694
0.000318222
-0.0119676
0.000292783
-0.0120626
0.000268936
-0.0121547
0.000246525
-0.0122439
0.000225408
-0.0123305
0.000205454
-0.0124146
0.00018654
-0.0124962
0.000168557
-0.0125756
0.000151402
-0.0126528
0.000134978
-0.0127278
0.000119197
-0.0128009
0.000103973
-0.0128719
8.92299e-05
-0.012941
7.48909e-05
-0.0130081
6.08766e-05
-0.0130735
4.71203e-05
-0.0131369
3.35553e-05
-0.0131985
2.01153e-05
6.72108e-06
-0.0146999
0.00155645
0.014833
-0.014598
0.00147367
-0.0145203
0.00137992
-0.0144623
0.00128769
-0.0144206
0.00119955
-0.0143921
0.00111622
-0.0143742
0.00103789
-0.0143649
0.000964554
-0.0143625
0.000896057
-0.0143655
0.000832196
-0.0143727
0.000772725
-0.0143831
0.00071738
-0.0143961
0.000665888
-0.0144108
0.000617978
-0.0144268
0.000573387
-0.0144436
0.000531858
-0.014461
0.000493153
-0.0144785
0.000457043
-0.0144959
0.000423315
-0.0145131
0.00039177
-0.0145299
0.000362221
-0.0145462
0.000334495
-0.0145618
0.000308434
-0.0145768
0.000283886
-0.014591
0.000260715
-0.0146043
0.00023879
-0.0146169
0.000217992
-0.0146286
0.00019821
-0.0146393
0.000179338
-0.0146492
0.00016128
-0.0146582
0.000143942
-0.0146662
0.000127238
-0.0146733
0.000111086
-0.0146795
9.54071e-05
-0.0146847
8.01261e-05
-0.014689
6.51693e-05
-0.0146924
5.04669e-05
-0.0146948
3.59511e-05
-0.0146962
2.15551e-05
7.19874e-06
-0.0150072
0.00143251
0.0151312
-0.0148986
0.001365
-0.0148082
0.00128954
-0.0147346
0.00121412
-0.0146758
0.00114069
-0.0146295
0.00106996
-0.0145939
0.00100232
-0.0145674
0.000937965
-0.0145483
0.000876975
-0.0145354
0.000819346
-0.0145277
0.000765012
-0.0145242
0.00071387
-0.0145241
0.000665786
-0.0145267
0.000620609
-0.0145315
0.00057818
-0.014538
0.000538333
-0.0145457
0.000500903
-0.0145544
0.000465729
-0.0145638
0.00043265
-0.0145735
0.000401514
-0.0145835
0.000372176
-0.0145935
0.000344495
-0.0146034
0.00031834
-0.0146131
0.000293585
-0.0146225
0.000270111
-0.0146315
0.000247806
-0.0146401
0.000226565
-0.0146481
0.000206286
-0.0146557
0.000186877
-0.0146626
0.000168245
-0.014669
0.000150307
-0.0146747
0.000132979
-0.0146798
0.000116186
-0.0146843
9.98508e-05
-0.0146881
8.39019e-05
-0.0146912
6.8269e-05
-0.0146936
5.28847e-05
-0.0146953
3.76831e-05
-0.0146964
2.25984e-05
7.54696e-06
-0.0152346
0.00131207
0.0153551
-0.0151274
0.00125776
-0.0150344
0.00119651
-0.0149548
0.00113453
-0.0148874
0.00107332
-0.014831
0.00101351
-0.0147841
0.000955494
-0.0147457
0.000899552
-0.0147146
0.000845857
-0.0146898
0.000794512
-0.0146703
0.000745558
-0.0146554
0.000698995
-0.0146444
0.000654783
-0.0146367
0.000612862
-0.0146317
0.00057315
-0.0146289
0.000535553
-0.0146279
0.00049997
-0.0146285
0.000466293
-0.0146303
0.000434412
-0.014633
0.000404217
-0.0146364
0.000375598
-0.0146403
0.000348448
-0.0146447
0.000322663
-0.0146492
0.000298141
-0.0146539
0.000274783
-0.0146586
0.000252495
-0.0146632
0.000231188
-0.0146677
0.000210773
-0.014672
0.000191167
-0.014676
0.00017229
-0.0146798
0.000154063
-0.0146832
0.000136415
-0.0146863
0.000119271
-0.014689
0.000102563
-0.0146913
8.62228e-05
-0.0146933
7.01844e-05
-0.0146948
5.43844e-05
-0.0146958
3.87598e-05
-0.0146965
2.32467e-05
7.76377e-06
-0.0154108
0.00119885
0.015524
-0.0153074
0.00115444
-0.0152151
0.00110414
-0.0151334
0.00105284
-0.0150617
0.00100164
-0.0149992
0.000951043
-0.0149451
0.000901416
-0.0148986
0.000853027
-0.0148588
0.000806079
-0.014825
0.000760719
-0.0147965
0.000717042
-0.0147726
0.000675105
-0.0147528
0.000634929
-0.0147364
0.000596512
-0.0147231
0.000559828
-0.0147124
0.000524835
-0.0147039
0.00049148
-0.0146973
0.000459699
-0.0146923
0.000429422
-0.0146887
0.000400574
-0.0146862
0.000373079
-0.0146846
0.000346856
-0.0146837
0.000321828
-0.0146835
0.000297914
-0.0146838
0.000275036
-0.0146844
0.000253117
-0.0146853
0.000232083
-0.0146864
0.000211858
-0.0146876
0.000192371
-0.0146888
0.000173552
-0.0146901
0.000155334
-0.0146913
0.000137648
-0.0146925
0.000120432
-0.0146936
0.000103621
-0.0146945
8.71532e-05
-0.0146953
7.09682e-05
-0.0146959
5.50064e-05
-0.0146963
3.92093e-05
-0.0146966
2.35168e-05
7.85262e-06
-0.0155461
0.00109179
0.0156532
-0.0154471
0.00105536
-0.0153567
0.00101382
-0.015275
0.00097115
-0.0152016
0.000928198
-0.0151359
0.000885367
-0.0150775
0.00084296
-0.0150257
0.000801223
-0.0149799
0.000760356
-0.0149397
0.000720516
-0.0149045
0.00068182
-0.0148738
0.000644355
-0.014847
0.000608176
-0.0148238
0.000573314
-0.0148038
0.000539782
-0.0147865
0.000507573
-0.0147717
0.000476669
-0.014759
0.000447037
-0.0147483
0.00041864
-0.0147391
0.000391431
-0.0147314
0.000365359
-0.0147249
0.000340369
-0.0147195
0.000316404
-0.014715
0.000293403
-0.0147112
0.000271306
-0.0147082
0.000250052
-0.0147057
0.00022958
-0.0147036
0.00020983
-0.014702
0.00019074
-0.0147007
0.000172251
-0.0146997
0.000154304
-0.0146989
0.000136842
-0.0146983
0.000119806
-0.0146978
0.00010314
-0.0146974
8.67886e-05
-0.0146971
7.06968e-05
-0.0146969
5.48103e-05
-0.0146968
3.90753e-05
-0.0146967
2.34368e-05
7.82467e-06
-0.0156482
0.000990655
0.0157493
-0.0155535
0.000960709
-0.015466
0.000926307
-0.0153856
0.000890718
-0.015312
0.000854619
-0.015245
0.000818336
-0.0151841
0.000782123
-0.0151291
0.000746196
-0.0150795
0.000710737
-0.0150349
0.000675898
-0.0149949
0.000641803
-0.0149591
0.000608547
-0.0149271
0.000576202
-0.0148986
0.000544821
-0.0148732
0.000514437
-0.0148507
0.000485066
-0.0148308
0.000456714
-0.0148131
0.000429372
-0.0147975
0.000403025
-0.0147837
0.000377647
-0.0147716
0.000353208
-0.0147609
0.000329673
-0.0147515
0.000307001
-0.0147432
0.000285149
-0.014736
0.000264073
-0.0147296
0.000243725
-0.0147241
0.000224057
-0.0147193
0.00020502
-0.0147151
0.000186564
-0.0147115
0.000168639
-0.0147084
0.000151196
-0.0147058
0.000134184
-0.0147035
0.000117554
-0.0147016
0.000101257
-0.0147001
8.52418e-05
-0.0146988
6.94609e-05
-0.0146979
5.38655e-05
-0.0146972
3.84073e-05
-0.0146968
2.30366e-05
7.68994e-06
-0.015723
0.000895242
0.0158184
-0.0156329
0.000870599
-0.0155486
0.000842047
-0.0154702
0.000812312
-0.0153975
0.000781942
-0.0153304
0.000751201
-0.0152686
0.000720301
-0.0152118
0.00068943
-0.0151598
0.000658749
-0.0151123
0.000628397
-0.015069
0.000598494
-0.0150296
0.000569135
-0.0149938
0.000540399
-0.0149613
0.000512346
-0.0149319
0.000485023
-0.0149053
0.000458459
-0.0148812
0.000432674
-0.0148596
0.000407677
-0.01484
0.000383466
-0.0148224
0.000360033
-0.0148065
0.000337363
-0.0147923
0.000315434
-0.0147795
0.000294222
-0.0147681
0.000273696
-0.0147578
0.000253824
-0.0147487
0.000234572
-0.0147405
0.000215901
-0.0147333
0.000197773
-0.0147268
0.000180148
-0.0147212
0.000162986
-0.0147162
0.000146244
-0.0147119
0.00012988
-0.0147082
0.000113853
-0.0147051
9.81187e-05
-0.0147025
8.26352e-05
-0.0147004
6.73592e-05
-0.0146988
5.22481e-05
-0.0146976
3.72593e-05
-0.0146969
2.23483e-05
7.45907e-06
-0.0157758
0.000805278
0.0158658
-0.0156902
0.000784981
-0.0156094
0.000761258
-0.0155335
0.000736392
-0.0154624
0.000710833
-0.015396
0.000684797
-0.0153342
0.000658463
-0.0152767
0.000631989
-0.0152235
0.000605515
-0.0151743
0.000579167
-0.0151288
0.000553054
-0.0150869
0.000527266
-0.0150484
0.000501882
-0.015013
0.000476966
-0.0149806
0.000452566
-0.0149509
0.000428722
-0.0149236
0.000405461
-0.0148988
0.000382802
-0.0148761
0.000360755
-0.0148553
0.00033932
-0.0148365
0.000318496
-0.0148193
0.00029827
-0.0148037
0.00027863
-0.0147896
0.000259555
-0.0147768
0.000241024
-0.0147652
0.000223011
-0.0147548
0.000205488
-0.0147455
0.000188427
-0.0147371
0.000171794
-0.0147297
0.000155557
-0.0147231
0.000139682
-0.0147174
0.000124134
-0.0147124
0.000108878
-0.0147081
9.38771e-05
-0.0147046
7.90944e-05
-0.0147017
6.44931e-05
-0.0146995
5.00362e-05
-0.014698
3.56865e-05
-0.014697
2.14054e-05
7.14352e-06
-0.0158114
0.00072042
0.0158962
-0.0157301
0.000703698
-0.0156528
0.000683978
-0.0155796
0.000663185
-0.0155105
0.000641686
-0.0154453
0.000619662
-0.0153841
0.000597259
-0.0153267
0.000574612
-0.0152731
0.000551841
-0.015223
0.000529057
-0.0151763
0.000506356
-0.0151328
0.000483822
-0.0150925
0.000461529
-0.015055
0.000439538
-0.0150204
0.0004179
-0.0149883
0.000396657
-0.0149587
0.000375839
-0.0149314
0.000355473
-0.0149062
0.000335571
-0.014883
0.000316146
-0.0148617
0.0002972
-0.0148422
0.000278731
-0.0148243
0.000260732
-0.0148079
0.000243193
-0.014793
0.000226099
-0.0147794
0.000209433
-0.0147671
0.000193174
-0.014756
0.000177301
-0.014746
0.000161788
-0.014737
0.00014661
-0.0147291
0.000131739
-0.0147221
0.000117147
-0.014716
0.000102804
-0.0147108
8.86792e-05
-0.0147065
7.47428e-05
-0.0147029
6.09626e-05
-0.0147002
4.73069e-05
-0.0146983
3.3744e-05
-0.0146971
2.02405e-05
6.754e-06
-0.0158336
0.000640271
0.0159137
-0.0157564
0.0006265
-0.0156825
0.00061012
-0.0156121
0.000592751
-0.0155451
0.000574697
-0.0154815
0.000556107
-0.0154214
0.000537101
-0.0153645
0.000517793
-0.015311
0.000498286
-0.0152606
0.000478673
-0.0152133
0.000459041
-0.0151689
0.000439464
-0.0151274
0.000420009
-0.0150886
0.000400733
-0.0150524
0.000381686
-0.0150186
0.000362908
-0.0149872
0.000344433
-0.014958
0.000326286
-0.014931
0.000308488
-0.0149059
0.000291052
-0.0148827
0.000273986
-0.0148612
0.000257295
-0.0148415
0.000240976
-0.0148233
0.000225025
-0.0148066
0.000209433
-0.0147914
0.00019419
-0.0147775
0.000179281
-0.0147649
0.000164689
-0.0147535
0.000150396
-0.0147433
0.000136383
-0.0147342
0.000122627
-0.0147261
0.000109105
-0.0147191
9.57925e-05
-0.0147131
8.26655e-05
-0.014708
6.96977e-05
-0.0147039
5.68628e-05
-0.0147008
4.4134e-05
-0.0146985
3.14843e-05
-0.0146972
1.88854e-05
6.30113e-06
-0.0158457
0.000564397
0.0159215
-0.0157722
0.000553076
-0.0157016
0.000539499
-0.0156339
0.000525027
-0.0155691
0.000509914
-0.0155073
0.00049428
-0.0154484
0.000478224
-0.0153925
0.000461841
-0.0153394
0.000445218
-0.0152891
0.000428434
-0.0152417
0.000411565
-0.0151969
0.000394674
-0.0151547
0.000377822
-0.015115
0.00036106
-0.0150778
0.000344435
-0.0150428
0.000327984
-0.0150101
0.00031174
-0.0149796
0.00029573
-0.0149511
0.000279974
-0.0149245
0.000264488
-0.0148998
0.000249284
-0.0148769
0.000234368
-0.0148557
0.000219744
-0.014836
0.000205409
-0.014818
0.000191361
-0.0148014
0.000177592
-0.0147862
0.000164094
-0.0147723
0.000150854
-0.0147598
0.000137858
-0.0147485
0.000125092
-0.0147384
0.000112539
-0.0147295
0.00010018
-0.0147217
8.79951e-05
-0.014715
7.5965e-05
-0.0147094
6.4068e-05
-0.0147048
5.22825e-05
-0.0147012
4.0586e-05
-0.0146987
2.89562e-05
-0.0146972
1.73692e-05
5.79479e-06
-0.0158504
0.000492343
0.0159225
-0.0157804
0.00048307
-0.0157128
0.000471864
-0.0156476
0.000459864
-0.015585
0.000447279
-0.0155249
0.000434206
-0.0154674
0.000420728
-0.0154125
0.000406922
-0.0153602
0.00039286
-0.0153103
0.000378611
-0.015263
0.000364235
-0.0152181
0.000349791
-0.0151756
0.00033533
-0.0151355
0.000320897
-0.0150976
0.000306534
-0.0150619
0.000292276
-0.0150283
0.000278152
-0.0149967
0.000264189
-0.0149672
0.000250407
-0.0149395
0.000236822
-0.0149137
0.000223447
-0.0148896
0.000210291
-0.0148672
0.000197359
-0.0148464
0.000184652
-0.0148272
0.00017217
-0.0148096
0.000159909
-0.0147933
0.000147863
-0.0147785
0.000136025
-0.014765
0.000124385
-0.0147529
0.00011293
-0.014742
0.000101649
-0.0147323
9.05261e-05
-0.0147239
7.95468e-05
-0.0147166
6.86946e-05
-0.0147105
5.79522e-05
-0.0147055
4.7302e-05
-0.0147017
3.67255e-05
-0.0146989
2.62043e-05
-0.0146973
1.57187e-05
5.24359e-06
-0.0158501
0.000423648
0.0159188
-0.0157832
0.000416104
-0.0157182
0.000406923
-0.0156554
0.000397051
-0.0155948
0.000386659
-0.0155364
0.000375826
-0.0154803
0.000364618
-0.0154265
0.000353098
-0.015375
0.000341326
-0.0153257
0.000329359
-0.0152787
0.000317247
-0.015234
0.000305041
-0.0151914
0.000292783
-0.015151
0.000280513
-0.0151128
0.000268267
-0.0150766
0.000256076
-0.0150424
0.000243967
-0.0150102
0.000231963
-0.0149798
0.000220085
-0.0149514
0.000208347
-0.0149247
0.000196763
-0.0148997
0.000185341
-0.0148765
0.000174088
-0.0148548
0.000163008
-0.0148347
0.000152102
-0.0148162
0.000141368
-0.0147991
0.000130803
-0.0147835
0.000120403
-0.0147693
0.000110159
-0.0147564
0.000100064
-0.0147449
9.01081e-05
-0.0147346
8.02799e-05
-0.0147257
7.05674e-05
-0.0147179
6.09583e-05
-0.0147114
5.1438e-05
-0.0147061
4.19931e-05
-0.014702
3.26081e-05
-0.014699
2.32683e-05
-0.0146973
1.39576e-05
4.65589e-06
-0.0158466
0.000357855
0.0159124
-0.0157823
0.000351788
-0.0157197
0.000344357
-0.015659
0.000336338
-0.0156002
0.00032787
-0.0155434
0.000319014
-0.0154886
0.000309824
-0.0154358
0.000300352
-0.0153852
0.000290645
-0.0153365
0.000280749
-0.01529
0.000270707
-0.0152455
0.00026056
-0.0152031
0.000250343
-0.0151627
0.000240091
-0.0151242
0.000229833
-0.0150878
0.000219597
-0.0150532
0.000209405
-0.0150205
0.00019928
-0.0149897
0.000189237
-0.0149606
0.000179293
-0.0149333
0.000169457
-0.0149077
0.000159741
-0.0148838
0.00015015
-0.0148614
0.000140688
-0.0148407
0.000131358
-0.0148215
0.000122161
-0.0148038
0.000113094
-0.0147875
0.000104155
-0.0147727
9.53381e-05
-0.0147593
8.66382e-05
-0.0147472
7.80478e-05
-0.0147365
6.95587e-05
-0.0147271
6.11616e-05
-0.014719
5.28464e-05
-0.0147122
4.46025e-05
-0.0147066
3.64186e-05
-0.0147023
2.82829e-05
-0.0146992
2.01833e-05
-0.0146973
1.21072e-05
4.03829e-06
-0.0158412
0.000294518
0.0159045
-0.0157791
0.000289729
-0.0157186
0.000283833
-0.0156597
0.00027745
-0.0156025
0.00027069
-0.0155471
0.000263602
-0.0154935
0.000256228
-0.0154418
0.000248609
-0.0153919
0.000240783
-0.015344
0.000232785
-0.0152979
0.000224652
-0.0152538
0.000216415
-0.0152115
0.000208103
-0.0151712
0.000199745
-0.0151327
0.000191365
-0.0150961
0.000182985
-0.0150613
0.000174626
-0.0150283
0.000166305
-0.0149971
0.000158037
-0.0149677
0.000149835
-0.0149399
0.000141709
-0.0149139
0.000133667
-0.0148894
0.000125716
-0.0148666
0.000117861
-0.0148453
0.000110103
-0.0148256
0.000102445
-0.0148074
9.48852e-05
-0.0147907
8.74226e-05
-0.0147754
8.00539e-05
-0.0147615
7.27749e-05
-0.0147491
6.55801e-05
-0.014738
5.84637e-05
-0.0147282
5.14189e-05
-0.0147198
4.44378e-05
-0.0147127
3.75123e-05
-0.014707
3.06335e-05
-0.0147025
2.37924e-05
-0.0146993
1.698e-05
-0.0146973
1.01857e-05
3.39715e-06
-0.0158351
0.000233202
0.0158965
-0.015775
0.000229541
-0.0157161
0.000225011
-0.0156588
0.000220095
-0.015603
0.000214876
-0.0155488
0.000209391
-0.0154962
0.000203674
-0.0154453
0.000197754
-0.0153962
0.000191661
-0.0153489
0.000185423
-0.0153033
0.000179067
-0.0152595
0.000172619
-0.0152175
0.0001661
-0.0151773
0.000159534
-0.0151388
0.00015294
-0.0151022
0.000146335
-0.0150673
0.000139736
-0.0150342
0.000133157
-0.0150027
0.00012661
-0.014973
0.000120105
-0.0149449
0.000113651
-0.0149185
0.000107256
-0.0148937
0.000100925
-0.0148705
9.46616e-05
-0.0148489
8.84692e-05
-0.0148288
8.23488e-05
-0.0148102
7.63008e-05
-0.0147931
7.03243e-05
-0.0147775
6.44173e-05
-0.0147633
5.8577e-05
-0.0147505
5.27998e-05
-0.0147391
4.70813e-05
-0.0147291
4.14164e-05
-0.0147205
3.57995e-05
-0.0147132
3.02246e-05
-0.0147072
2.4685e-05
-0.0147026
1.91741e-05
-0.0146993
1.36845e-05
-0.0146974
8.20899e-06
2.73778e-06
-0.0158293
0.000173486
0.015889
-0.0157706
0.000170841
-0.0157131
0.000167553
-0.015657
0.000163975
-0.0156023
0.00016017
-0.0155491
0.000156163
-0.0154974
0.000151979
-0.0154473
0.00014764
-0.0153988
0.000143166
-0.0153519
0.00013858
-0.0153068
0.0001339
-0.0152633
0.000129145
-0.0152215
0.000124332
-0.0151815
0.000119478
-0.0151431
0.000114596
-0.0151065
0.0001097
-0.0150716
0.000104802
-0.0150383
9.99136e-05
-0.0150068
9.50427e-05
-0.0149769
9.0198e-05
-0.0149486
8.53864e-05
-0.0149219
8.06129e-05
-0.0148969
7.58828e-05
-0.0148734
7.11986e-05
-0.0148515
6.65629e-05
-0.0148312
6.19775e-05
-0.0148123
5.74424e-05
-0.0147949
5.29571e-05
-0.014779
4.85209e-05
-0.0147646
4.41317e-05
-0.0147516
3.97873e-05
-0.01474
3.54845e-05
-0.0147298
3.12199e-05
-0.014721
2.69894e-05
-0.0147135
2.27892e-05
-0.0147075
1.86139e-05
-0.0147028
1.44593e-05
-0.0146994
1.03201e-05
-0.0146974
6.19076e-06
2.06462e-06
-0.0158244
0.000114959
0.0158829
-0.0157668
0.000113253
-0.0157103
0.000111117
-0.0156551
0.000108787
-0.0156013
0.000106303
-0.0155488
0.000103684
-0.0154978
0.000100944
-0.0154482
9.80989e-05
-0.0154002
9.51626e-05
-0.0153538
9.21486e-05
-0.015309
8.90698e-05
-0.0152657
8.59384e-05
-0.0152242
8.27657e-05
-0.0151843
7.95624e-05
-0.015146
7.63381e-05
-0.0151094
7.31017e-05
-0.0150745
6.98613e-05
-0.0150412
6.66239e-05
-0.0150095
6.33957e-05
-0.0149795
6.01823e-05
-0.0149511
5.69883e-05
-0.0149243
5.38174e-05
-0.0148991
5.06727e-05
-0.0148755
4.75566e-05
-0.0148534
4.44708e-05
-0.0148328
4.14163e-05
-0.0148138
3.83936e-05
-0.0147962
3.54025e-05
-0.0147801
3.24425e-05
-0.0147655
2.95125e-05
-0.0147523
2.66111e-05
-0.0147406
2.37362e-05
-0.0147303
2.08859e-05
-0.0147213
1.80575e-05
-0.0147138
1.52484e-05
-0.0147076
1.24556e-05
-0.0147028
9.67602e-06
-0.0146994
6.90634e-06
-0.0146974
4.14307e-06
1.38175e-06
-0.0158208
5.7229e-05
0.0158785
-0.0157639
5.64139e-05
-0.0157082
5.53721e-05
-0.0156536
5.42283e-05
-0.0156003
5.30047e-05
-0.0155483
5.17119e-05
-0.0154978
5.03575e-05
-0.0154486
4.89498e-05
-0.0154009
4.74954e-05
-0.0153548
4.60015e-05
-0.0153102
4.44744e-05
-0.0152672
4.29202e-05
-0.0152258
4.13448e-05
-0.0151859
3.97529e-05
-0.0151478
3.81499e-05
-0.0151112
3.65399e-05
-0.0150763
3.49272e-05
-0.015043
3.3315e-05
-0.0150113
3.17066e-05
-0.0149812
3.0105e-05
-0.0149527
2.8512e-05
-0.0149258
2.69301e-05
-0.0149005
2.53605e-05
-0.0148768
2.38045e-05
-0.0148545
2.22631e-05
-0.0148339
2.07365e-05
-0.0148147
1.92256e-05
-0.014797
1.77298e-05
-0.0147808
1.6249e-05
-0.0147661
1.47831e-05
-0.0147528
1.33308e-05
-0.014741
1.18914e-05
-0.0147306
1.04643e-05
-0.0147215
9.04768e-06
-0.0147139
7.64042e-06
-0.0147077
6.24145e-06
-0.0147029
4.84876e-06
-0.0146995
3.46106e-06
-0.0146974
2.07663e-06
6.92244e-07
-0.0158188
0.015876
-0.0157623
-0.015707
-0.0156527
-0.0155997
-0.015548
-0.0154977
-0.0154487
-0.0154012
-0.0153552
-0.0153107
-0.0152678
-0.0152265
-0.0151867
-0.0151486
-0.015112
-0.0150771
-0.0150438
-0.0150121
-0.014982
-0.0149535
-0.0149265
-0.0149012
-0.0148774
-0.0148551
-0.0148344
-0.0148152
-0.0147974
-0.0147812
-0.0147664
-0.0147531
-0.0147412
-0.0147307
-0.0147217
-0.014714
-0.0147078
-0.0147029
-0.0146995
-0.0146974
-0.00716626
0.0147295
-0.00699902
0.014964
-0.00677142
0.0151275
-0.00649756
0.0152501
-0.00618692
0.0153426
-0.00584674
0.0154091
-0.00548297
0.0154546
-0.00510059
0.0154834
-0.00470368
0.0154993
-0.00429561
0.0155056
-0.00387906
0.015505
-0.00345624
0.0154997
-0.00302888
0.0154915
-0.00259838
0.0154819
-0.00216587
0.015472
-0.00173226
0.0154628
-0.00129829
0.015455
-0.000864593
0.0154492
-0.000431699
0.0154456
0.0154443
-0.0060485
0.0146645
-0.00591727
0.0148327
-0.005739
0.0149492
-0.0055224
0.0150335
-0.00527268
0.0150928
-0.00499506
0.0151315
-0.00469462
0.0151542
-0.00437579
0.0151646
-0.00404235
0.0151659
-0.00369745
0.0151607
-0.00334363
0.0151512
-0.00298298
0.015139
-0.00261719
0.0151257
-0.0022476
0.0151123
-0.00187532
0.0150997
-0.00150124
0.0150888
-0.00112609
0.0150799
-0.00075049
0.0150736
-0.000374982
0.0150701