/*--------------------------------*- C++ -*----------------------------------*\
  =========                 |
  \\      /  F ield         | OpenFOAM: The Open Source CFD Toolbox
   \\    /   O peration     | Website:  https://openfoam.org
    \\  /    A nd           | Version:  7
     \\/     M anipulation  |
\*---------------------------------------------------------------------------*/
FoamFile
{
    version     2.0;
    format      ascii;
    class       volScalarField;
    location    "45";
    object      p;
}
// * * * * * * * * * * * * * * * * * * * * * * * * * * * * * * * * * * * * * //

dimensions      [0 2 -2 0 0 0 0];

internalField   nonuniform List<scalar> 
6000
(
-0.252565
-0.252247
-0.251866
-0.251434
-0.251027
-0.252618
-0.252291
-0.251901
-0.251454
-0.251037
-0.252718
-0.252375
-0.251965
-0.251488
-0.251046
-0.252495
-0.252056
-0.251533
-0.251044
-0.252649
-0.25217
-0.251587
-0.251015
-0.25283
-0.252301
-0.251649
-0.25094
-0.253033
-0.252443
-0.251721
-0.250789
-0.253253
-0.252588
-0.251811
-0.250527
-0.253483
-0.252725
-0.251935
-0.250097
-0.253716
-0.252834
-0.252125
-0.249447
-0.253946
-0.252904
-0.252361
-0.248769
-0.253004
-0.252298
-0.248378
-0.253083
-0.252257
-0.2478
-0.253069
-0.252257
-0.247041
-0.252935
-0.252263
-0.246113
-0.25224
-0.245022
-0.252149
-0.243788
-0.251936
-0.242452
-0.241072
-0.239716
-0.238438
-0.250668
-0.249652
-0.248793
-0.247677
-0.246505
-0.245199
-0.243793
-0.242277
-0.240658
-0.238934
-0.237108
-0.23518
-0.23315
-0.231024
-0.228798
-0.226476
-0.224058
-0.221547
-0.218942
-0.216245
-0.213457
-0.210579
-0.207613
-0.20456
-0.201422
-0.198202
-0.1949
-0.19152
-0.188064
-0.184536
-0.180939
-0.177275
-0.17355
-0.169767
-0.165931
-0.162046
-0.158117
-0.154149
-0.150148
-0.14612
-0.14207
-0.138004
-0.133928
-0.129848
-0.125772
-0.121704
-0.117651
-0.113619
-0.109614
-0.105642
-0.101709
-0.0978204
-0.0939813
-0.0901964
-0.0864711
-0.0828095
-0.0792151
-0.0756923
-0.0722444
-0.0688742
-0.0655846
-0.0623777
-0.0592554
-0.0562192
-0.0532705
-0.0504101
-0.0476385
-0.044956
-0.0423625
-0.0398578
-0.0374414
-0.0351124
-0.0328698
-0.0307127
-0.0286395
-0.026649
-0.0247394
-0.0229093
-0.0211569
-0.0194803
-0.0178779
-0.0163477
-0.0148881
-0.0134971
-0.0121731
-0.0109142
-0.0097191
-0.00858588
-0.00751354
-0.00649992
-0.00554565
-0.00464573
-0.00380803
-0.00301263
-0.00230228
-0.00158025
-0.00106472
-0.000265463
-0.000294642
0.00134369
-0.250756
-0.249698
-0.248851
-0.24773
-0.246559
-0.245253
-0.243847
-0.242331
-0.240712
-0.238988
-0.237162
-0.235234
-0.233206
-0.231069
-0.22884
-0.226516
-0.224096
-0.221582
-0.218974
-0.216274
-0.213483
-0.210602
-0.207632
-0.204576
-0.201435
-0.198211
-0.194907
-0.191525
-0.188068
-0.18454
-0.180943
-0.17728
-0.173557
-0.169776
-0.165943
-0.162062
-0.158138
-0.154175
-0.15018
-0.146158
-0.142114
-0.138055
-0.133986
-0.129913
-0.125843
-0.121781
-0.117734
-0.113707
-0.109707
-0.105739
-0.101809
-0.0979221
-0.0940843
-0.0902998
-0.0865739
-0.0829106
-0.079314
-0.0757879
-0.072336
-0.0689607
-0.0656655
-0.0624523
-0.0593233
-0.0562799
-0.0533237
-0.0504555
-0.0476761
-0.0449857
-0.0423844
-0.0398721
-0.0374483
-0.0351123
-0.0328632
-0.0306999
-0.0286212
-0.0266257
-0.0247118
-0.022878
-0.0211226
-0.0194438
-0.0178397
-0.0163086
-0.0148486
-0.0134579
-0.0121348
-0.0108774
-0.00968419
-0.00855337
-0.00748384
-0.00647336
-0.00552253
-0.0046262
-0.00379236
-0.00300063
-0.0022943
-0.00157554
-0.00106369
-0.000267201
-0.000296256
0.00133264
-0.250924
-0.249778
-0.248956
-0.247824
-0.246655
-0.245348
-0.243941
-0.242426
-0.240806
-0.239082
-0.237255
-0.235325
-0.233295
-0.231165
-0.228929
-0.226603
-0.22418
-0.221663
-0.219053
-0.216349
-0.213555
-0.21067
-0.207698
-0.204638
-0.201494
-0.198268
-0.194962
-0.191578
-0.18812
-0.184591
-0.180994
-0.177332
-0.17361
-0.169832
-0.166002
-0.162124
-0.158204
-0.154246
-0.150256
-0.14624
-0.142202
-0.138148
-0.134085
-0.130019
-0.125954
-0.121898
-0.117856
-0.113833
-0.109837
-0.105872
-0.101944
-0.0980591
-0.0942218
-0.0904368
-0.0867095
-0.0830437
-0.0794437
-0.0759135
-0.0724563
-0.0690754
-0.0657737
-0.0625534
-0.0594167
-0.0563654
-0.0534009
-0.0505242
-0.0477361
-0.0450372
-0.0424275
-0.039907
-0.0374752
-0.0351316
-0.0328754
-0.0307055
-0.0286208
-0.0266198
-0.0247012
-0.0228632
-0.0211044
-0.0194227
-0.0178166
-0.0162841
-0.0148233
-0.0134325
-0.0121098
-0.0108535
-0.00966177
-0.0085329
-0.00746575
-0.00645792
-0.00551011
-0.00461686
-0.00378647
-0.0029978
-0.00229514
-0.00157885
-0.00107014
-0.000276201
-0.000301116
0.00130857
-0.25117
-0.249885
-0.249104
-0.247956
-0.246788
-0.245479
-0.244073
-0.242557
-0.240937
-0.239213
-0.237386
-0.235456
-0.233424
-0.23129
-0.229056
-0.226728
-0.224305
-0.221786
-0.219173
-0.216467
-0.213669
-0.210782
-0.207807
-0.204745
-0.201599
-0.19837
-0.195062
-0.191677
-0.188219
-0.184689
-0.181092
-0.177431
-0.173711
-0.169935
-0.166107
-0.162232
-0.158316
-0.154363
-0.150378
-0.146366
-0.142334
-0.138286
-0.134228
-0.130166
-0.126107
-0.122055
-0.118017
-0.113998
-0.110004
-0.106042
-0.102115
-0.0982303
-0.0943926
-0.0906058
-0.0868764
-0.0832071
-0.0796026
-0.0760674
-0.0726043
-0.0692169
-0.0659078
-0.0626797
-0.0595347
-0.0564747
-0.0535012
-0.0506154
-0.0478182
-0.0451102
-0.0424915
-0.0399622
-0.0375221
-0.0351704
-0.0329067
-0.0307297
-0.0286385
-0.0266317
-0.0247079
-0.0228654
-0.0211027
-0.0194179
-0.0178092
-0.0162749
-0.014813
-0.0134216
-0.0120989
-0.0108431
-0.00965249
-0.0085251
-0.00745986
-0.0064542
-0.00550893
-0.0046182
-0.00379079
-0.00300449
-0.00230506
-0.00159038
-0.00108415
-0.00029247
-0.000309322
0.00127208
-0.251494
-0.250011
-0.249289
-0.24812
-0.246954
-0.245644
-0.244237
-0.242721
-0.241102
-0.239378
-0.237551
-0.235622
-0.233589
-0.231455
-0.229222
-0.226892
-0.224466
-0.221946
-0.219331
-0.216623
-0.213824
-0.210935
-0.207957
-0.204893
-0.201745
-0.198515
-0.195205
-0.19182
-0.18836
-0.184831
-0.181234
-0.177574
-0.173855
-0.170081
-0.166256
-0.162385
-0.158472
-0.154523
-0.150542
-0.146535
-0.142507
-0.138464
-0.134411
-0.130353
-0.126298
-0.12225
-0.118215
-0.114199
-0.110207
-0.106245
-0.102319
-0.0984337
-0.0945959
-0.0908036
-0.0870721
-0.0833987
-0.0797894
-0.0762481
-0.0727784
-0.0693835
-0.0660665
-0.0628299
-0.059676
-0.0566068
-0.0536238
-0.0507285
-0.0479217
-0.0452041
-0.0425761
-0.0400377
-0.0375887
-0.0352287
-0.032957
-0.0307727
-0.0286747
-0.0266617
-0.0247323
-0.022885
-0.0211181
-0.0194297
-0.0178182
-0.0162817
-0.0148182
-0.0134258
-0.0121028
-0.010847
-0.009657
-0.00853061
-0.00746677
-0.00646274
-0.00551948
-0.00463064
-0.00380566
-0.00302099
-0.00232423
-0.00161027
-0.0011057
-0.000315963
-0.000320983
0.00122405
-0.251894
-0.250142
-0.249505
-0.248308
-0.247146
-0.245835
-0.244428
-0.242912
-0.241294
-0.239571
-0.237745
-0.235816
-0.233784
-0.231647
-0.229417
-0.227087
-0.224661
-0.22214
-0.219524
-0.216815
-0.214014
-0.211124
-0.208145
-0.205079
-0.20193
-0.198698
-0.195388
-0.192002
-0.188542
-0.185013
-0.181417
-0.177758
-0.174041
-0.170269
-0.166446
-0.162578
-0.158668
-0.154723
-0.150746
-0.146743
-0.142719
-0.13868
-0.13463
-0.130577
-0.126525
-0.12248
-0.118447
-0.114433
-0.110442
-0.10648
-0.102553
-0.0986662
-0.0948248
-0.0910323
-0.0872953
-0.0836168
-0.0800017
-0.0764538
-0.0729768
-0.069574
-0.0662484
-0.0630028
-0.0598395
-0.0567607
-0.0537679
-0.0508626
-0.0480459
-0.0453185
-0.0426808
-0.040133
-0.037675
-0.0353064
-0.0330266
-0.0308347
-0.0287297
-0.0267102
-0.024775
-0.0229225
-0.0211511
-0.0194589
-0.0178442
-0.0163051
-0.0148396
-0.0134459
-0.0121219
-0.0108659
-0.00967593
-0.00855001
-0.00748703
-0.00648403
-0.00554219
-0.00465457
-0.00383139
-0.00304755
-0.00235279
-0.00163862
-0.0011347
-0.000346585
-0.000336181
0.0011656
-0.252372
-0.250263
-0.249743
-0.248514
-0.247356
-0.246045
-0.244638
-0.243124
-0.241507
-0.239787
-0.237963
-0.236035
-0.234004
-0.231871
-0.229641
-0.22731
-0.224884
-0.222363
-0.219747
-0.217037
-0.214236
-0.211345
-0.208365
-0.205299
-0.202148
-0.198916
-0.195606
-0.192219
-0.18876
-0.185231
-0.181636
-0.177979
-0.174263
-0.170493
-0.166673
-0.162807
-0.158901
-0.154959
-0.150985
-0.146986
-0.142965
-0.13893
-0.134884
-0.130834
-0.126785
-0.12274
-0.118709
-0.114696
-0.110705
-0.106744
-0.102815
-0.0989262
-0.0950814
-0.0912852
-0.0875432
-0.0838591
-0.0802376
-0.0766826
-0.0731978
-0.0697866
-0.0664521
-0.0631972
-0.0600242
-0.0569354
-0.0539326
-0.0510171
-0.0481903
-0.0454529
-0.0428054
-0.0402482
-0.037781
-0.0354037
-0.0331156
-0.0309159
-0.0288036
-0.0267776
-0.0248364
-0.0229785
-0.0212023
-0.019506
-0.0178878
-0.0163457
-0.0148779
-0.0134824
-0.0121571
-0.0109002
-0.00970984
-0.00858382
-0.00752111
-0.0065185
-0.00557743
-0.00469029
-0.0038682
-0.00308432
-0.00239076
-0.00167544
-0.00117101
-0.000384194
-0.00035495
0.00109805
-0.252933
-0.25036
-0.249996
-0.248728
-0.247576
-0.246266
-0.244861
-0.24335
-0.241735
-0.240017
-0.238196
-0.236271
-0.234239
-0.232097
-0.229879
-0.227553
-0.225129
-0.222609
-0.219993
-0.217285
-0.214484
-0.211592
-0.208612
-0.205546
-0.202396
-0.199164
-0.195853
-0.192467
-0.189009
-0.185481
-0.181887
-0.178231
-0.174517
-0.17075
-0.166932
-0.163069
-0.159166
-0.155227
-0.151257
-0.147262
-0.143242
-0.13921
-0.135167
-0.131119
-0.127072
-0.12303
-0.119
-0.114986
-0.110996
-0.107032
-0.103102
-0.0992102
-0.0953617
-0.0915609
-0.0878137
-0.0841235
-0.0804952
-0.0769327
-0.0734398
-0.0700199
-0.0666763
-0.0634118
-0.060229
-0.0571302
-0.0541171
-0.0511915
-0.0483545
-0.0456071
-0.0429498
-0.040383
-0.0379067
-0.0355206
-0.0332241
-0.0310166
-0.0288971
-0.0268643
-0.024917
-0.0230535
-0.0212723
-0.0195716
-0.0179496
-0.0164042
-0.0149337
-0.0135359
-0.0122089
-0.0109506
-0.00975924
-0.00863251
-0.00756944
-0.00656652
-0.00562549
-0.00473804
-0.00391624
-0.00313141
-0.00243811
-0.00172069
-0.00121441
-0.000428596
-0.000377256
0.00102286
-0.253596
-0.250413
-0.250257
-0.248941
-0.247796
-0.24649
-0.245088
-0.24358
-0.24197
-0.240256
-0.238439
-0.236517
-0.234489
-0.232373
-0.230139
-0.227813
-0.225391
-0.222872
-0.220258
-0.217551
-0.214751
-0.21186
-0.208881
-0.205816
-0.202666
-0.199436
-0.196126
-0.192741
-0.189283
-0.185757
-0.182165
-0.178511
-0.1748
-0.171034
-0.167217
-0.163358
-0.159458
-0.155522
-0.151554
-0.147561
-0.143547
-0.139517
-0.135476
-0.13143
-0.127384
-0.123343
-0.119314
-0.1153
-0.111308
-0.107343
-0.103411
-0.0995155
-0.0956629
-0.0918574
-0.0881044
-0.084408
-0.0807726
-0.0772024
-0.0737012
-0.0702725
-0.0669197
-0.0636457
-0.0604531
-0.0573442
-0.0543211
-0.0513853
-0.0485382
-0.0457809
-0.0431139
-0.0405376
-0.0380522
-0.0356573
-0.0333526
-0.0311372
-0.0290104
-0.0269708
-0.0250172
-0.023148
-0.0213616
-0.0196562
-0.0180301
-0.0164811
-0.0150074
-0.0136069
-0.0122777
-0.0110174
-0.00982453
-0.00869646
-0.00763233
-0.00662835
-0.00568659
-0.00479795
-0.00397556
-0.00318881
-0.00249474
-0.00177427
-0.0012646
-0.00047955
-0.000402995
0.000941577
-0.254368
-0.250391
-0.250517
-0.249142
-0.248006
-0.246706
-0.245309
-0.243807
-0.242202
-0.240494
-0.238683
-0.236767
-0.234745
-0.232627
-0.230401
-0.22808
-0.225661
-0.223146
-0.220535
-0.21783
-0.215032
-0.212144
-0.209167
-0.206105
-0.202953
-0.199724
-0.196417
-0.193033
-0.189578
-0.186053
-0.182463
-0.178811
-0.175102
-0.171339
-0.167527
-0.16367
-0.159773
-0.155839
-0.151875
-0.147885
-0.143873
-0.139845
-0.135806
-0.131762
-0.127717
-0.123677
-0.119648
-0.115634
-0.111641
-0.107674
-0.103738
-0.0998395
-0.0959826
-0.0921721
-0.0884133
-0.0847104
-0.081068
-0.0774901
-0.0739806
-0.0705433
-0.0671814
-0.0638979
-0.0606956
-0.0575769
-0.0545439
-0.0515982
-0.0487413
-0.0459742
-0.0432976
-0.0407121
-0.0382177
-0.0358142
-0.0335012
-0.0312781
-0.0291439
-0.0270975
-0.0251375
-0.0232624
-0.0214707
-0.0197604
-0.0181298
-0.0165769
-0.0150996
-0.013696
-0.0123639
-0.0111012
-0.00990605
-0.00877593
-0.00771
-0.00670416
-0.00576081
-0.00487008
-0.00404612
-0.00325646
-0.00256045
-0.00183598
-0.00132126
-0.000536754
-0.000431999
0.000855761
-0.254992
-0.250477
-0.250698
-0.249338
-0.248195
-0.246906
-0.245515
-0.244021
-0.242424
-0.240723
-0.238919
-0.237007
-0.234976
-0.23288
-0.230663
-0.228347
-0.225933
-0.223422
-0.220815
-0.218114
-0.21532
-0.212434
-0.20946
-0.206399
-0.203254
-0.200027
-0.196722
-0.19334
-0.189887
-0.186365
-0.182778
-0.179129
-0.175422
-0.171662
-0.167853
-0.163999
-0.160105
-0.156174
-0.152213
-0.148225
-0.144216
-0.140191
-0.136154
-0.132111
-0.128068
-0.124028
-0.119998
-0.115984
-0.111989
-0.10802
-0.104082
-0.10018
-0.0963184
-0.0925029
-0.0887384
-0.0850292
-0.0813798
-0.0777944
-0.0742769
-0.0708311
-0.0674604
-0.0641678
-0.0609562
-0.057828
-0.0547853
-0.05183
-0.0489635
-0.046187
-0.0435012
-0.0409066
-0.0384034
-0.0359915
-0.0336705
-0.0314397
-0.0292982
-0.0272449
-0.0252784
-0.0233974
-0.0216
-0.0198846
-0.0182493
-0.016692
-0.0152107
-0.0138034
-0.0124679
-0.011202
-0.010004
-0.00887113
-0.0078026
-0.00679403
-0.00584818
-0.00495438
-0.00412782
-0.0033342
-0.00263497
-0.00190559
-0.00138399
-0.000599852
-0.000464048
0.000766935
-0.255391
-0.250712
-0.25077
-0.249521
-0.248355
-0.247077
-0.245697
-0.244213
-0.242626
-0.240935
-0.239141
-0.23724
-0.235249
-0.233129
-0.230916
-0.228607
-0.2262
-0.223695
-0.221093
-0.218397
-0.215608
-0.212727
-0.209756
-0.206699
-0.203557
-0.200334
-0.197032
-0.193654
-0.190204
-0.186686
-0.183102
-0.179456
-0.175753
-0.171996
-0.16819
-0.16434
-0.160449
-0.156522
-0.152564
-0.148579
-0.144572
-0.140549
-0.136515
-0.132474
-0.128431
-0.124392
-0.120362
-0.116347
-0.112351
-0.10838
-0.104439
-0.100533
-0.0966681
-0.0928479
-0.0890779
-0.0853627
-0.0817066
-0.0781141
-0.074589
-0.0711352
-0.067756
-0.0644548
-0.0612342
-0.058097
-0.0550452
-0.0520807
-0.0492051
-0.0464195
-0.0437248
-0.0411215
-0.0386098
-0.0361897
-0.0338608
-0.0316223
-0.0294736
-0.0274134
-0.0254404
-0.0235532
-0.0217501
-0.0200292
-0.0183888
-0.0168267
-0.0153409
-0.0139294
-0.0125899
-0.0113203
-0.0101186
-0.00898212
-0.00791013
-0.00689793
-0.00594861
-0.00505073
-0.00422044
-0.00342179
-0.00271799
-0.00198278
-0.00145237
-0.000668428
-0.00049889
0.000676532
-0.25581
-0.250905
-0.250794
-0.249656
-0.248476
-0.24721
-0.245843
-0.244372
-0.242797
-0.241118
-0.239335
-0.237438
-0.235452
-0.233351
-0.231152
-0.228852
-0.226453
-0.223955
-0.221361
-0.218671
-0.215888
-0.213013
-0.210048
-0.206996
-0.203859
-0.20064
-0.197343
-0.193969
-0.190524
-0.187009
-0.183429
-0.179788
-0.176089
-0.172336
-0.168534
-0.164688
-0.1608
-0.156877
-0.152922
-0.148941
-0.144937
-0.140917
-0.136884
-0.132845
-0.128804
-0.124766
-0.120736
-0.11672
-0.112723
-0.108751
-0.104807
-0.100899
-0.0970296
-0.0932051
-0.0894302
-0.0857094
-0.0820473
-0.0784481
-0.074916
-0.0714547
-0.0680677
-0.0647584
-0.0615295
-0.0583838
-0.0553234
-0.0523503
-0.049466
-0.0466718
-0.0439686
-0.041357
-0.0388371
-0.036409
-0.0340724
-0.0318265
-0.0296705
-0.0276034
-0.0256238
-0.0237303
-0.0219211
-0.0201945
-0.0185486
-0.0169813
-0.0154905
-0.0140741
-0.0127301
-0.0114559
-0.0102498
-0.00910888
-0.00803253
-0.00701574
-0.00606191
-0.00515891
-0.00432369
-0.00351894
-0.00280911
-0.00206719
-0.00152595
-0.00074201
-0.000536259
0.000585853
-0.256219
-0.251086
-0.250759
-0.249731
-0.248548
-0.247293
-0.245943
-0.244488
-0.242928
-0.241264
-0.239498
-0.237619
-0.235644
-0.233551
-0.231362
-0.229072
-0.226683
-0.224195
-0.22161
-0.218928
-0.216153
-0.213285
-0.210327
-0.207282
-0.204151
-0.200939
-0.197647
-0.194279
-0.190839
-0.187329
-0.183754
-0.180118
-0.176424
-0.172676
-0.168879
-0.165037
-0.161154
-0.157235
-0.153284
-0.149306
-0.145306
-0.141289
-0.137259
-0.133222
-0.129182
-0.125146
-0.121117
-0.117101
-0.113103
-0.10913
-0.105185
-0.101273
-0.0974013
-0.0935731
-0.0897939
-0.0860682
-0.0824007
-0.0787956
-0.0752571
-0.0717891
-0.0683951
-0.0650783
-0.0618419
-0.0586883
-0.05562
-0.0526388
-0.0497465
-0.0469442
-0.0442329
-0.0416133
-0.0390856
-0.0366498
-0.0343056
-0.0320524
-0.0298893
-0.0278152
-0.0258289
-0.0239289
-0.0221134
-0.0203807
-0.0187289
-0.0171559
-0.0156595
-0.0142377
-0.0128883
-0.0116088
-0.0103975
-0.00925127
-0.00816962
-0.00714723
-0.00618782
-0.0052786
-0.00443723
-0.00362527
-0.0029079
-0.00215841
-0.00160427
-0.000820079
-0.000575884
0.000496037
-0.256577
-0.251264
-0.250647
-0.249732
-0.248559
-0.247314
-0.245984
-0.244549
-0.243008
-0.241362
-0.239607
-0.237724
-0.235778
-0.233708
-0.231535
-0.229259
-0.226883
-0.224406
-0.221832
-0.219161
-0.216395
-0.213536
-0.210587
-0.20755
-0.204427
-0.201222
-0.197937
-0.194576
-0.191143
-0.18764
-0.184071
-0.180441
-0.176753
-0.173011
-0.169219
-0.165382
-0.161505
-0.15759
-0.153644
-0.149671
-0.145675
-0.141662
-0.137635
-0.133601
-0.129564
-0.125529
-0.121501
-0.117486
-0.113489
-0.109515
-0.105569
-0.101656
-0.0977813
-0.0939503
-0.0901676
-0.0864379
-0.0827659
-0.0791558
-0.0756119
-0.072138
-0.0687377
-0.0654144
-0.0621711
-0.0590105
-0.0559349
-0.0529464
-0.0500465
-0.0472367
-0.0445179
-0.0418908
-0.0393556
-0.0369123
-0.0345608
-0.0323003
-0.0301301
-0.028049
-0.0260559
-0.0241491
-0.022327
-0.0205879
-0.0189297
-0.0173504
-0.0158479
-0.01442
-0.0130645
-0.0117789
-0.0105615
-0.00940906
-0.0083211
-0.0072921
-0.00632598
-0.00540944
-0.00456064
-0.00374037
-0.00301389
-0.00225598
-0.00168688
-0.000902079
-0.000617503
0.000408047
-0.256832
-0.251431
-0.25045
-0.249645
-0.248495
-0.24726
-0.245953
-0.244542
-0.243024
-0.2414
-0.239674
-0.237842
-0.235875
-0.233819
-0.231662
-0.229403
-0.227041
-0.224579
-0.222018
-0.21936
-0.216606
-0.213758
-0.21082
-0.207793
-0.204679
-0.201483
-0.198207
-0.194855
-0.191429
-0.187934
-0.184373
-0.18075
-0.177069
-0.173334
-0.169549
-0.165719
-0.161848
-0.15794
-0.153999
-0.150031
-0.14604
-0.142031
-0.138009
-0.133979
-0.129945
-0.125912
-0.121887
-0.117874
-0.113878
-0.109904
-0.105958
-0.102044
-0.0981684
-0.0943355
-0.0905503
-0.0868177
-0.0831421
-0.079528
-0.0759796
-0.0725008
-0.0690952
-0.0657663
-0.062517
-0.0593502
-0.0562681
-0.0532729
-0.0503663
-0.0475495
-0.0448237
-0.0421894
-0.0396471
-0.0371967
-0.0348379
-0.0325703
-0.030393
-0.0283048
-0.0263047
-0.0243909
-0.0225619
-0.0208159
-0.0191509
-0.0175648
-0.0160555
-0.0146208
-0.0132585
-0.0119659
-0.0107415
-0.00958188
-0.0084866
-0.00744992
-0.00647595
-0.00555097
-0.00469342
-0.00386376
-0.00312658
-0.00235943
-0.0017733
-0.000987428
-0.000660867
0.000322665
-0.256912
-0.251571
-0.250161
-0.249451
-0.248339
-0.247117
-0.245836
-0.244454
-0.242963
-0.241364
-0.239652
-0.237801
-0.235888
-0.233866
-0.231733
-0.229493
-0.22715
-0.224705
-0.22216
-0.219516
-0.216776
-0.213943
-0.211017
-0.208002
-0.204901
-0.201716
-0.19845
-0.195108
-0.191693
-0.188207
-0.184655
-0.181041
-0.177369
-0.173642
-0.169865
-0.166043
-0.162179
-0.158278
-0.154344
-0.150383
-0.146398
-0.142394
-0.138378
-0.134352
-0.130322
-0.126294
-0.122272
-0.118261
-0.114267
-0.110295
-0.10635
-0.102437
-0.0985611
-0.0947275
-0.090941
-0.0872065
-0.0835286
-0.0799116
-0.0763598
-0.0728772
-0.0694674
-0.0661338
-0.0628795
-0.0597073
-0.0566196
-0.0536185
-0.0507057
-0.0478826
-0.0451502
-0.0425092
-0.0399601
-0.0375027
-0.035137
-0.0328623
-0.0306778
-0.0285825
-0.0265751
-0.0246542
-0.0228179
-0.0210646
-0.0193922
-0.0177987
-0.016282
-0.0148397
-0.0134697
-0.0121694
-0.0109371
-0.00976926
-0.00866562
-0.0076202
-0.00663721
-0.00570267
-0.00483505
-0.00399493
-0.00324545
-0.00246825
-0.00186311
-0.00107554
-0.00070574
0.000240496
-0.256726
-0.251643
-0.249772
-0.249131
-0.248071
-0.246868
-0.245617
-0.244268
-0.242809
-0.241242
-0.239569
-0.237788
-0.235841
-0.23384
-0.231733
-0.229518
-0.227197
-0.224773
-0.222247
-0.219621
-0.216898
-0.214081
-0.211171
-0.208171
-0.205083
-0.201912
-0.198659
-0.19533
-0.191926
-0.188452
-0.184911
-0.181307
-0.177645
-0.173928
-0.170161
-0.166348
-0.162493
-0.1586
-0.154675
-0.150721
-0.146744
-0.142748
-0.138738
-0.134718
-0.130694
-0.126671
-0.122653
-0.118647
-0.114656
-0.110687
-0.106744
-0.102833
-0.0989583
-0.0951253
-0.0913388
-0.0876037
-0.0839246
-0.080306
-0.076752
-0.0732667
-0.0698537
-0.0665165
-0.0632582
-0.0600816
-0.0569891
-0.0539828
-0.0510645
-0.0482356
-0.0454972
-0.04285
-0.0402944
-0.0378304
-0.0354578
-0.033176
-0.0309844
-0.0288818
-0.026867
-0.0249385
-0.0230945
-0.0213334
-0.0196532
-0.0180517
-0.0165268
-0.0150762
-0.0136977
-0.0123888
-0.0111476
-0.00997064
-0.00885758
-0.00780236
-0.00680919
-0.00586398
-0.00498496
-0.00413333
-0.00336998
-0.0025819
-0.00195588
-0.00116582
-0.000751901
0.000161988
-0.256183
-0.25158
-0.249268
-0.248662
-0.247668
-0.246492
-0.245276
-0.243966
-0.242546
-0.241015
-0.239371
-0.2376
-0.235701
-0.233732
-0.231654
-0.229467
-0.227172
-0.224773
-0.22227
-0.219666
-0.216963
-0.214165
-0.211273
-0.208291
-0.20522
-0.202065
-0.198828
-0.195512
-0.192123
-0.188662
-0.185135
-0.181544
-0.177894
-0.174189
-0.170433
-0.166631
-0.162786
-0.158904
-0.154989
-0.151045
-0.147076
-0.143089
-0.139086
-0.135074
-0.131058
-0.127041
-0.12303
-0.119029
-0.115043
-0.111078
-0.107139
-0.103231
-0.0993589
-0.0955279
-0.0917428
-0.0880085
-0.0843297
-0.0807106
-0.0771557
-0.0736689
-0.0702539
-0.0669141
-0.0636528
-0.0604726
-0.0573762
-0.0543655
-0.0514424
-0.0486084
-0.0458645
-0.0432114
-0.0406496
-0.0381791
-0.0357998
-0.033511
-0.0313122
-0.0292021
-0.0271796
-0.0252432
-0.0233912
-0.0216219
-0.0199332
-0.018323
-0.0167893
-0.0153296
-0.0139419
-0.0126234
-0.0113724
-0.0101853
-0.00906182
-0.00799574
-0.00699123
-0.00603426
-0.00514254
-0.00427837
-0.00349962
-0.00269985
-0.00205123
-0.00125772
-0.000799142
8.74441e-05
-0.255203
-0.251287
-0.248628
-0.248024
-0.247103
-0.245968
-0.244794
-0.243531
-0.242157
-0.24067
-0.239068
-0.237338
-0.235437
-0.23351
-0.231477
-0.229327
-0.227065
-0.224695
-0.222219
-0.21964
-0.216961
-0.214186
-0.211316
-0.208354
-0.205304
-0.202167
-0.198948
-0.195651
-0.192278
-0.188833
-0.185321
-0.181746
-0.17811
-0.174419
-0.170677
-0.166888
-0.163056
-0.159186
-0.155282
-0.151349
-0.147391
-0.143414
-0.139421
-0.135419
-0.131411
-0.127403
-0.123399
-0.119405
-0.115426
-0.111467
-0.107533
-0.10363
-0.0997621
-0.0959346
-0.0921523
-0.0884203
-0.084743
-0.0811249
-0.0775703
-0.0740832
-0.0706673
-0.0673261
-0.0640627
-0.06088
-0.0577804
-0.0547661
-0.0518389
-0.0490003
-0.0462513
-0.0435927
-0.041025
-0.0385483
-0.0361623
-0.0338666
-0.0316604
-0.0295427
-0.0275123
-0.0255677
-0.0237072
-0.0219291
-0.0202314
-0.0186119
-0.0170687
-0.0155992
-0.0142014
-0.0128725
-0.0116107
-0.0104126
-0.00927758
-0.00819962
-0.00718262
-0.00621285
-0.00530715
-0.00442947
-0.00363384
-0.00282155
-0.00214878
-0.0013507
-0.000847269
1.7049e-05
-0.253735
-0.250655
-0.247816
-0.247196
-0.246349
-0.245272
-0.244151
-0.242943
-0.241622
-0.240188
-0.238635
-0.23696
-0.235142
-0.233201
-0.231199
-0.229088
-0.226864
-0.224529
-0.222085
-0.219536
-0.216885
-0.214137
-0.211293
-0.208355
-0.205328
-0.202213
-0.199016
-0.195739
-0.192386
-0.18896
-0.185466
-0.181908
-0.17829
-0.174615
-0.170889
-0.167115
-0.163298
-0.159442
-0.155552
-0.151632
-0.147687
-0.143722
-0.139741
-0.13575
-0.131752
-0.127754
-0.12376
-0.119775
-0.115804
-0.111853
-0.107926
-0.104029
-0.100167
-0.0963445
-0.0925666
-0.0888382
-0.0851639
-0.0815482
-0.0779952
-0.074509
-0.0710934
-0.0677518
-0.0644874
-0.061303
-0.0582011
-0.0551839
-0.0522533
-0.0494106
-0.046657
-0.0439933
-0.0414199
-0.0389371
-0.0365445
-0.0342418
-0.0320282
-0.0299027
-0.0278641
-0.0259109
-0.0240415
-0.0222542
-0.0205469
-0.0189175
-0.017364
-0.015884
-0.0144752
-0.0131351
-0.0118617
-0.0106515
-0.00950404
-0.0084132
-0.00738263
-0.00639904
-0.00547815
-0.004586
-0.00377212
-0.00294647
-0.0022482
-0.00144428
-0.000896098
-4.91131e-05
-0.25176
-0.249574
-0.246788
-0.246154
-0.24538
-0.24438
-0.243325
-0.242183
-0.240926
-0.239553
-0.238059
-0.236439
-0.234663
-0.232707
-0.230781
-0.228732
-0.226557
-0.224265
-0.221859
-0.219344
-0.216726
-0.214009
-0.211195
-0.208286
-0.205286
-0.202198
-0.199025
-0.195772
-0.192442
-0.189038
-0.185566
-0.182028
-0.178429
-0.174774
-0.171066
-0.167309
-0.163509
-0.15967
-0.155796
-0.151892
-0.147962
-0.144011
-0.140044
-0.136065
-0.132081
-0.128094
-0.124112
-0.120137
-0.116177
-0.112235
-0.108317
-0.104428
-0.100573
-0.096757
-0.092985
-0.0892618
-0.0855919
-0.0819798
-0.0784297
-0.0749457
-0.0715315
-0.0681905
-0.064926
-0.0617408
-0.0586374
-0.055618
-0.0526845
-0.0498382
-0.0470804
-0.044412
-0.0418332
-0.0393444
-0.0369453
-0.0346356
-0.0324145
-0.030281
-0.0282339
-0.0262718
-0.0243931
-0.0225959
-0.0208785
-0.0192386
-0.0176742
-0.0161829
-0.0147624
-0.0134102
-0.0121243
-0.0109013
-0.00974032
-0.00863565
-0.00759046
-0.00659209
-0.00565485
-0.00474734
-0.00391395
-0.00307407
-0.00234917
-0.001538
-0.000945458
-0.000111037
-0.249297
-0.247966
-0.245492
-0.244871
-0.244174
-0.24327
-0.242299
-0.241235
-0.240054
-0.238752
-0.237327
-0.235774
-0.234083
-0.232258
-0.230269
-0.228258
-0.226137
-0.223895
-0.221534
-0.219059
-0.216478
-0.213798
-0.211019
-0.208142
-0.205173
-0.202115
-0.198972
-0.195746
-0.192442
-0.189064
-0.185616
-0.182102
-0.178526
-0.174892
-0.171205
-0.167469
-0.163689
-0.159869
-0.156013
-0.152127
-0.148214
-0.14428
-0.140328
-0.136365
-0.132395
-0.128423
-0.124453
-0.120491
-0.116543
-0.112612
-0.108705
-0.104825
-0.100979
-0.0971715
-0.0934069
-0.0896903
-0.0860261
-0.082419
-0.0788731
-0.0753924
-0.0719806
-0.0686413
-0.0653777
-0.0621925
-0.0590883
-0.0560674
-0.0531315
-0.0502821
-0.0475206
-0.0448476
-0.0422636
-0.039769
-0.0373635
-0.0350466
-0.0328178
-0.0306761
-0.0286203
-0.0266489
-0.0247605
-0.0229531
-0.021225
-0.019574
-0.017998
-0.0164947
-0.0150619
-0.0136968
-0.0123976
-0.0111608
-0.00998549
-0.00886609
-0.0078053
-0.00679126
-0.0058366
-0.00491286
-0.00405883
-0.00320385
-0.0024514
-0.00163149
-0.000995198
-0.00016878
-0.24639
-0.245816
-0.243877
-0.243319
-0.242713
-0.241929
-0.241059
-0.240086
-0.238993
-0.237775
-0.236428
-0.234951
-0.233327
-0.231536
-0.229561
-0.227639
-0.225591
-0.223411
-0.221103
-0.218674
-0.216137
-0.213498
-0.210759
-0.20792
-0.204987
-0.201963
-0.198852
-0.195658
-0.192384
-0.189035
-0.185615
-0.182128
-0.178578
-0.174969
-0.171306
-0.167594
-0.163836
-0.160037
-0.156203
-0.152336
-0.148443
-0.144527
-0.140594
-0.136649
-0.132695
-0.128739
-0.124784
-0.120837
-0.116902
-0.112984
-0.109089
-0.105221
-0.101386
-0.0975875
-0.0938318
-0.0901231
-0.0864661
-0.0828652
-0.0793245
-0.0758482
-0.07244
-0.0691033
-0.0658413
-0.0626569
-0.0595527
-0.0565308
-0.0535931
-0.0507411
-0.0479761
-0.0452988
-0.0427099
-0.0402095
-0.0377975
-0.0354735
-0.0332369
-0.0310868
-0.0290219
-0.027041
-0.0251424
-0.0233244
-0.0215851
-0.0199225
-0.0183343
-0.0168184
-0.0153724
-0.0139938
-0.0126805
-0.0114291
-0.0102386
-0.00910365
-0.00802634
-0.0069958
-0.00602274
-0.00508195
-0.00420628
-0.00333533
-0.00255463
-0.0017244
-0.00104519
-0.000222443
-0.243195
-0.241906
-0.241474
-0.240988
-0.240347
-0.239597
-0.238731
-0.237738
-0.236615
-0.235358
-0.233965
-0.23243
-0.230755
-0.228944
-0.226899
-0.224911
-0.222807
-0.220563
-0.218186
-0.215698
-0.213107
-0.210412
-0.207616
-0.204724
-0.201739
-0.198665
-0.195507
-0.192267
-0.188951
-0.185562
-0.182105
-0.178585
-0.175004
-0.171368
-0.167682
-0.16395
-0.160176
-0.156364
-0.152521
-0.148649
-0.144755
-0.140842
-0.136916
-0.132981
-0.129042
-0.125105
-0.121174
-0.117255
-0.113352
-0.10947
-0.105615
-0.101792
-0.098005
-0.0942595
-0.0905601
-0.0869114
-0.0833178
-0.0797836
-0.0763127
-0.0729089
-0.0695756
-0.0663161
-0.0631332
-0.0600294
-0.0570071
-0.054068
-0.0512138
-0.0484455
-0.0457643
-0.0431705
-0.0406644
-0.0382459
-0.0359148
-0.0336702
-0.0315115
-0.0294374
-0.0274465
-0.0255374
-0.0237083
-0.0219574
-0.0202826
-0.0186817
-0.0171525
-0.0156928
-0.0142999
-0.0129718
-0.0117051
-0.0104986
-0.0093474
-0.00825274
-0.00720493
-0.00621259
-0.005254
-0.00435584
-0.00346804
-0.00265861
-0.00181645
-0.00109531
-0.000272156
-0.240187
-0.239569
-0.239322
-0.238997
-0.238522
-0.237912
-0.237169
-0.23629
-0.235273
-0.234117
-0.23282
-0.231376
-0.229775
-0.228
-0.226076
-0.224111
-0.222079
-0.21991
-0.217594
-0.215161
-0.212623
-0.20998
-0.207232
-0.204385
-0.201443
-0.198411
-0.195293
-0.192091
-0.188812
-0.185458
-0.182035
-0.178547
-0.174998
-0.171393
-0.167736
-0.164031
-0.160284
-0.156499
-0.152681
-0.148833
-0.144962
-0.141072
-0.137167
-0.133253
-0.129334
-0.125416
-0.121503
-0.117601
-0.113714
-0.109848
-0.106007
-0.102197
-0.098423
-0.094689
-0.091
-0.0873608
-0.0837756
-0.0802487
-0.0767841
-0.0733855
-0.0700564
-0.0668
-0.0636192
-0.0605165
-0.0574941
-0.0545541
-0.0516979
-0.0489268
-0.0462417
-0.0436431
-0.0411314
-0.0387065
-0.0363681
-0.0341155
-0.031948
-0.0298644
-0.0278634
-0.0259435
-0.0241029
-0.0223399
-0.0206525
-0.0190384
-0.0174955
-0.0160214
-0.0146137
-0.0132701
-0.0119875
-0.0107645
-0.00959623
-0.0084835
-0.00741775
-0.00640539
-0.00542831
-0.00450698
-0.00360148
-0.00276305
-0.00190733
-0.00114545
-0.000318032
-0.236912
-0.236898
-0.236874
-0.236745
-0.236458
-0.236007
-0.235402
-0.234648
-0.233748
-0.232702
-0.23151
-0.230167
-0.228671
-0.227024
-0.225208
-0.223189
-0.221236
-0.21915
-0.216901
-0.214528
-0.212048
-0.20946
-0.206765
-0.203969
-0.201075
-0.198089
-0.195015
-0.191856
-0.188616
-0.185302
-0.181916
-0.178464
-0.174949
-0.171377
-0.167752
-0.164078
-0.160361
-0.156604
-0.152813
-0.148992
-0.145147
-0.141281
-0.1374
-0.133508
-0.129611
-0.125713
-0.12182
-0.117937
-0.114068
-0.110218
-0.106393
-0.102598
-0.0988376
-0.0951162
-0.0914388
-0.0878101
-0.0842343
-0.0807158
-0.0772584
-0.0738659
-0.0705418
-0.0672893
-0.0641112
-0.0610102
-0.0579884
-0.0550479
-0.0521901
-0.0494165
-0.0467278
-0.0441248
-0.0416077
-0.0391764
-0.0368308
-0.0345702
-0.0323939
-0.0303007
-0.0282894
-0.0263584
-0.0245062
-0.0227308
-0.0210304
-0.0194027
-0.0178456
-0.0163568
-0.0149338
-0.0135743
-0.0122753
-0.011035
-0.00984921
-0.0087178
-0.00763351
-0.0066005
-0.00560431
-0.00465928
-0.00373525
-0.00286776
-0.00199688
-0.00119552
-0.000360169
-0.233513
-0.233977
-0.234193
-0.234288
-0.234205
-0.233927
-0.233471
-0.23285
-0.232072
-0.231139
-0.230054
-0.228813
-0.227414
-0.225849
-0.224111
-0.222218
-0.220249
-0.218253
-0.216091
-0.213791
-0.211379
-0.208855
-0.20622
-0.203479
-0.200639
-0.197703
-0.194677