# Probe 0 (2 -0.5 0)
# Probe 1 (2 0.5 0)
# Probe 2 (-0.087156 0.996195 0)
# Probe 3 (-0.087156 -0.996195 0)
# Probe 4 (4 -0.5 0)
# Probe 5 (4 0.5 0)
#       Probe             0             1             2             3             4             5
#        Time
        0.001      -78.8516      -78.8516       58.8876       58.8876       -27.742       -27.742
        0.002       7.19625       7.19625      0.139749       0.13977       2.84057       2.84057
        0.003      -1.32953      -1.32953      0.504754      0.504747      -0.67506     -0.675059
        0.004      -1.20033      -1.20033      0.462342      0.462343     -0.509218     -0.509217
        0.005      -1.09044      -1.09044      0.410515      0.410516     -0.452613     -0.452613
        0.006     -0.997455     -0.997455      0.364306      0.364306      -0.40966      -0.40966
        0.007     -0.917835     -0.917835      0.323543      0.323543     -0.374295     -0.374295
        0.008     -0.848927     -0.848927      0.287442      0.287443     -0.344417     -0.344417
        0.009     -0.788709     -0.788709      0.255273      0.255274     -0.318837     -0.318837
         0.01     -0.735673     -0.735673      0.226487      0.226487     -0.296557     -0.296557
        0.011     -0.688568     -0.688568      0.200545      0.200545     -0.276825     -0.276825
        0.012     -0.646468     -0.646469      0.177084      0.177084     -0.259803     -0.259803
        0.013     -0.608692     -0.608692      0.155761      0.155761     -0.244671     -0.244671
        0.014     -0.574696     -0.574696      0.136308      0.136308     -0.231039     -0.231039
        0.015     -0.544058     -0.544058      0.118521      0.118522     -0.219237     -0.219237
        0.016     -0.516323     -0.516323       0.10221       0.10221     -0.208115     -0.208115
        0.017      -0.49117      -0.49117     0.0871999        0.0872     -0.198067     -0.198067
        0.018     -0.468295     -0.468295     0.0733391     0.0733392      -0.18897      -0.18897
        0.019     -0.447422     -0.447422     0.0605127     0.0605128      -0.18064      -0.18064
         0.02      -0.42833      -0.42833     0.0486127     0.0486128     -0.173007     -0.173007
        0.021      -0.41082      -0.41082     0.0375614     0.0375615     -0.166002     -0.166002
        0.022     -0.394709     -0.394709     0.0272174     0.0272174     -0.159538     -0.159538
        0.023     -0.379852     -0.379852     0.0175799       0.01758     -0.153565     -0.153565
        0.024     -0.366113     -0.366113    0.00855648    0.00855653     -0.148061     -0.148061
        0.025     -0.353377     -0.353377   9.06868e-05    9.0735e-05     -0.142958     -0.142958
        0.026     -0.341541     -0.341541   -0.00786695    -0.0078669     -0.138191     -0.138191
        0.027     -0.330519     -0.330519    -0.0153639    -0.0153638     -0.133775     -0.133775
        0.028     -0.320231     -0.320231    -0.0224351     -0.022435      -0.12961      -0.12961
        0.029     -0.310605     -0.310605    -0.0291018    -0.0291017     -0.125742     -0.125742
         0.03     -0.301581     -0.301581    -0.0354355    -0.0354354     -0.122114     -0.122114
        0.031     -0.293112     -0.293112    -0.0414281    -0.0414281     -0.118535     -0.118535
        0.032     -0.285143     -0.285143    -0.0471174    -0.0471173       -0.1152       -0.1152
        0.033     -0.277631     -0.277631    -0.0525301    -0.0525301     -0.111985     -0.111985
        0.034      -0.27054      -0.27054       -0.0577       -0.0577     -0.109015     -0.109015
        0.035     -0.263835     -0.263835     -0.062619     -0.062619     -0.106249     -0.106249
        0.036     -0.257485     -0.257485    -0.0673096    -0.0673096      -0.10364      -0.10364
        0.037     -0.251462     -0.251462    -0.0718117    -0.0718116     -0.101161     -0.101161
        0.038     -0.245746     -0.245746    -0.0761134    -0.0761133    -0.0988048    -0.0988048
        0.039     -0.240315     -0.240315    -0.0801866    -0.0801866    -0.0965629    -0.0965629
         0.04     -0.235146     -0.235146    -0.0841309    -0.0841308    -0.0944332    -0.0944332
        0.041     -0.230219     -0.230219    -0.0879188    -0.0879188    -0.0924025    -0.0924025
        0.042     -0.225518     -0.225518    -0.0915562    -0.0915562    -0.0904599    -0.0904599
        0.043     -0.221029     -0.221029    -0.0950545    -0.0950545    -0.0886103    -0.0886103
        0.044     -0.216735     -0.216735     -0.098417     -0.098417    -0.0868321    -0.0868321
        0.045     -0.212627     -0.212627     -0.101661     -0.101661      -0.08513      -0.08513
        0.046     -0.208693     -0.208693     -0.104792     -0.104792    -0.0835001    -0.0835001
        0.047     -0.204922     -0.204922     -0.107818     -0.107818    -0.0819445    -0.0819445
        0.048     -0.201303     -0.201303     -0.110756     -0.110756    -0.0804448    -0.0804448
        0.049     -0.197834     -0.197834     -0.113498     -0.113498    -0.0790172    -0.0790172
         0.05     -0.194491     -0.194491     -0.116259     -0.116259    -0.0776319    -0.0776319
        0.051     -0.191277     -0.191277      -0.11892      -0.11892    -0.0763034    -0.0763034
        0.052     -0.188187     -0.188187     -0.121486     -0.121486    -0.0750335    -0.0750335
        0.053      -0.18521      -0.18521     -0.123956     -0.123956    -0.0738066    -0.0738066
        0.054     -0.182342     -0.182342     -0.126354     -0.126354    -0.0726312    -0.0726312
        0.055     -0.179575     -0.179575     -0.128681     -0.128681    -0.0714918    -0.0714918
        0.056     -0.176904     -0.176904      -0.13094      -0.13094    -0.0703944    -0.0703944
        0.057     -0.174326     -0.174326     -0.133133     -0.133133    -0.0693325    -0.0693325
        0.058     -0.171835     -0.171835     -0.135288     -0.135288     -0.068302     -0.068302
        0.059     -0.169426     -0.169426     -0.137396     -0.137396    -0.0673029    -0.0673029
         0.06     -0.167103     -0.167103     -0.139342     -0.139342    -0.0663327    -0.0663327
        0.061      -0.16485      -0.16485     -0.141298     -0.141298    -0.0654117    -0.0654117
        0.062     -0.162669     -0.162669     -0.143206     -0.143206    -0.0645196    -0.0645196
        0.063     -0.160557     -0.160557     -0.145065     -0.145065    -0.0636077    -0.0636077
        0.064      -0.15851      -0.15851     -0.146875     -0.146875    -0.0627545    -0.0627545
        0.065     -0.156527     -0.156527     -0.148635     -0.148635    -0.0618898    -0.0618898
        0.066     -0.154603     -0.154603     -0.150338     -0.150337    -0.0611114    -0.0611114
        0.067     -0.152734     -0.152734     -0.152042     -0.152042    -0.0603523    -0.0603523
        0.068     -0.150917     -0.150917     -0.153743     -0.153743    -0.0596161    -0.0596161
        0.069     -0.149155     -0.149155      -0.15535      -0.15535    -0.0589014    -0.0589014
         0.07     -0.147444     -0.147444     -0.156933     -0.156933    -0.0582091    -0.0582091
        0.071     -0.145776     -0.145776     -0.158522     -0.158522    -0.0575315    -0.0575315
        0.072     -0.144162     -0.144162     -0.159916     -0.159916    -0.0568752    -0.0568752
        0.073     -0.142585     -0.142585     -0.161383     -0.161383    -0.0562355    -0.0562355
        0.074      -0.14105      -0.14105     -0.162824     -0.162824    -0.0556131    -0.0556131
        0.075     -0.139554     -0.139554     -0.164235     -0.164235    -0.0550075    -0.0550075
        0.076     -0.138096     -0.138096     -0.165617     -0.165617    -0.0544178    -0.0544178
        0.077     -0.136673     -0.136673     -0.166969     -0.166969    -0.0538437    -0.0538437
        0.078     -0.135286     -0.135286     -0.168291     -0.168291    -0.0532842    -0.0532842
        0.079     -0.133931     -0.133931     -0.169591     -0.169591    -0.0527387    -0.0527387
         0.08     -0.132606     -0.132606     -0.170889     -0.170889    -0.0522056    -0.0522056
        0.081     -0.131313     -0.131313     -0.172168     -0.172168    -0.0516903    -0.0516903
        0.082     -0.130051     -0.130051     -0.173393     -0.173393    -0.0511891    -0.0511891
        0.083     -0.128818     -0.128818     -0.174603     -0.174603    -0.0506989    -0.0506989
        0.084      -0.12761      -0.12761     -0.175816     -0.175816    -0.0502189    -0.0502189
        0.085     -0.126432     -0.126432     -0.176934     -0.176934    -0.0497492    -0.0497492
        0.086     -0.125275     -0.125275     -0.178049     -0.178049    -0.0492894    -0.0492894
        0.087     -0.124144     -0.124144     -0.179181     -0.179181    -0.0488378    -0.0488378
        0.088     -0.123038     -0.123038      -0.18028      -0.18028    -0.0483969    -0.0483969
        0.089     -0.121954     -0.121954     -0.181362     -0.181362    -0.0479678    -0.0479678
         0.09     -0.120891     -0.120891     -0.182424     -0.182424    -0.0475496    -0.0475496
        0.091     -0.119849     -0.119849     -0.183469     -0.183469    -0.0471407    -0.0471407
        0.092     -0.118828     -0.118828     -0.184497     -0.184497    -0.0467406    -0.0467406
        0.093     -0.117827     -0.117827     -0.185509     -0.185509    -0.0463491    -0.0463491
        0.094     -0.116845     -0.116845     -0.186505     -0.186505    -0.0459659    -0.0459659
        0.095     -0.115881     -0.115881     -0.187485     -0.187485    -0.0455909    -0.0455909
        0.096     -0.114935     -0.114935     -0.188451     -0.188451    -0.0452244    -0.0452244
        0.097     -0.114007     -0.114007     -0.189403     -0.189403    -0.0448649    -0.0448649
        0.098     -0.113095     -0.113095     -0.190347     -0.190347    -0.0445133    -0.0445133
        0.099     -0.112199     -0.112199     -0.191305     -0.191305    -0.0441693    -0.0441693
          0.1     -0.111318     -0.111318     -0.192262     -0.192262    -0.0438339    -0.0438339
        0.101     -0.110459     -0.110459     -0.192981     -0.192981    -0.0435102    -0.0435102
        0.102     -0.109611     -0.109611     -0.193844     -0.193844    -0.0431668    -0.0431668
        0.103     -0.108777     -0.108777     -0.194695     -0.194695    -0.0428422    -0.0428422
        0.104     -0.107952     -0.107952     -0.195592     -0.195592    -0.0425078    -0.0425078
        0.105     -0.107143     -0.107143     -0.196435     -0.196435    -0.0422046    -0.0422046
        0.106      -0.10635      -0.10635     -0.197227     -0.197227    -0.0419086    -0.0419086
        0.107     -0.105566     -0.105566     -0.198069     -0.198069    -0.0416138    -0.0416138
        0.108     -0.104797     -0.104797     -0.198866     -0.198866    -0.0413165    -0.0413165
        0.109      -0.10404      -0.10404     -0.199651     -0.199651    -0.0410255    -0.0410255
         0.11     -0.103294     -0.103294     -0.200424     -0.200424    -0.0407404    -0.0407404
        0.111      -0.10256      -0.10256     -0.201186     -0.201186    -0.0404651    -0.0404651
        0.112     -0.101836     -0.101836     -0.201932     -0.201932    -0.0401946    -0.0401946
        0.113     -0.101123     -0.101123     -0.202683     -0.202683    -0.0399291    -0.0399291
        0.114     -0.100419     -0.100419     -0.203438     -0.203438    -0.0396647    -0.0396647
        0.115    -0.0997268    -0.0997268     -0.204179     -0.204179    -0.0394041    -0.0394041
        0.116    -0.0990444    -0.0990444     -0.204946     -0.204946    -0.0391465    -0.0391465
        0.117    -0.0983735    -0.0983735     -0.205649     -0.205649    -0.0388965    -0.0388965
        0.118    -0.0977159    -0.0977159     -0.206231     -0.206231    -0.0386524    -0.0386524
        0.119    -0.0970636    -0.0970636     -0.206917     -0.206917    -0.0384108    -0.0384108
         0.12    -0.0964205    -0.0964205      -0.20759      -0.20759    -0.0381728    -0.0381728
        0.121    -0.0957864    -0.0957864     -0.208254     -0.208254    -0.0379384    -0.0379384
        0.122    -0.0951616    -0.0951616     -0.208912     -0.208912    -0.0377076    -0.0377076
        0.123    -0.0945458    -0.0945458     -0.209561     -0.209561    -0.0374812    -0.0374812
        0.124    -0.0939385    -0.0939385     -0.210203     -0.210203    -0.0372582    -0.0372582
        0.125    -0.0933396    -0.0933396     -0.210837     -0.210837    -0.0370386    -0.0370386
        0.126    -0.0927489    -0.0927489     -0.211463     -0.211463    -0.0368221    -0.0368221
        0.127    -0.0921659    -0.0921659      -0.21208      -0.21208    -0.0366078    -0.0366078
        0.128    -0.0915907    -0.0915907     -0.212687     -0.212687    -0.0363965    -0.0363965
        0.129    -0.0910244    -0.0910244     -0.213279     -0.213279    -0.0361919    -0.0361919
         0.13    -0.0904658    -0.0904658     -0.213856     -0.213856    -0.0359886    -0.0359886
        0.131    -0.0899087    -0.0899087     -0.214515     -0.214515    -0.0357884    -0.0357884
        0.132    -0.0893634    -0.0893634     -0.215096     -0.215096    -0.0355889    -0.0355889
        0.133    -0.0888254    -0.0888254     -0.215663     -0.215663    -0.0353925    -0.0353925
        0.134    -0.0882945    -0.0882945     -0.216209     -0.216209    -0.0352017    -0.0352017
        0.135    -0.0877669    -0.0877669     -0.216626     -0.216626    -0.0350114    -0.0350114
        0.136    -0.0872566    -0.0872566     -0.217397     -0.217397    -0.0348286    -0.0348286
        0.137    -0.0867471    -0.0867471     -0.217982     -0.217982    -0.0346446    -0.0346446
        0.138    -0.0862437    -0.0862437     -0.218537     -0.218537    -0.0344618    -0.0344618
        0.139    -0.0857468    -0.0857468     -0.219085     -0.219085    -0.0342825    -0.0342825
         0.14    -0.0852563    -0.0852563     -0.219628     -0.219628    -0.0341062    -0.0341062
        0.141    -0.0847721    -0.0847721     -0.220164     -0.220164    -0.0339293    -0.0339293
        0.142    -0.0842942    -0.0842942     -0.220694     -0.220694    -0.0337514    -0.0337514
        0.143    -0.0838229    -0.0838229     -0.221214     -0.221214    -0.0335733    -0.0335733
        0.144    -0.0833576    -0.0833576     -0.221727     -0.221727    -0.0334057    -0.0334057
        0.145    -0.0828943    -0.0828943     -0.222282     -0.222282    -0.0332402    -0.0332402
        0.146    -0.0824387    -0.0824387     -0.222808     -0.222808    -0.0330773    -0.0330773
        0.147    -0.0819897    -0.0819897     -0.223313     -0.223313    -0.0329166    -0.0329166
        0.148    -0.0815465    -0.0815465     -0.223815     -0.223815     -0.032758     -0.032758
        0.149    -0.0811089    -0.0811089     -0.224313     -0.224313    -0.0326014    -0.0326014
         0.15    -0.0806766    -0.0806766     -0.224806     -0.224806    -0.0324467    -0.0324467
        0.151    -0.0802498    -0.0802498     -0.225295     -0.225295    -0.0322939    -0.0322939
        0.152    -0.0798282    -0.0798282     -0.225777     -0.225777    -0.0321431    -0.0321431
        0.153     -0.079412     -0.079412     -0.226249     -0.226249    -0.0319942    -0.0319942
        0.154    -0.0789987    -0.0789987     -0.226728     -0.226728    -0.0318465    -0.0318465
        0.155     -0.078589     -0.078589     -0.227169     -0.227169    -0.0317002    -0.0317002
        0.156    -0.0781845    -0.0781845     -0.227662     -0.227662    -0.0315571    -0.0315571
        0.157    -0.0777964    -0.0777964     -0.228198     -0.228198    -0.0314201    -0.0314201
        0.158     -0.077405     -0.077405      -0.22866      -0.22866    -0.0312826    -0.0312826
        0.159    -0.0770181    -0.0770181     -0.229116     -0.229116    -0.0311471    -0.0311471
         0.16     -0.076637     -0.076637     -0.229548     -0.229548    -0.0310045    -0.0310045
        0.161    -0.0762572    -0.0762572     -0.230024     -0.230024    -0.0308634    -0.0308634
        0.162    -0.0758808    -0.0758808     -0.230513     -0.230513    -0.0307267    -0.0307267
        0.163     -0.075511     -0.075511     -0.230961     -0.230961    -0.0305955    -0.0305955
        0.164    -0.0751455    -0.0751455     -0.231406     -0.231406    -0.0304661    -0.0304661
        0.165    -0.0747844    -0.0747844     -0.231847     -0.231847    -0.0303379    -0.0303379
        0.166    -0.0744277    -0.0744277     -0.232285     -0.232285    -0.0302097    -0.0302097
        0.167    -0.0740751    -0.0740751      -0.23272      -0.23272    -0.0300825    -0.0300825
        0.168    -0.0737262    -0.0737262     -0.233153     -0.233153    -0.0299576    -0.0299576
        0.169    -0.0733812    -0.0733813     -0.233583     -0.233583    -0.0298345    -0.0298345
         0.17    -0.0730402    -0.0730402     -0.234011     -0.234011     -0.029713     -0.029713
        0.171    -0.0727029    -0.0727029     -0.234436     -0.234436    -0.0295928    -0.0295928
        0.172    -0.0723695    -0.0723695     -0.234858     -0.234858     -0.029474     -0.029474
        0.173    -0.0720398    -0.0720398     -0.235279     -0.235279    -0.0293566    -0.0293566
        0.174    -0.0717139    -0.0717139       -0.2357       -0.2357    -0.0292408    -0.0292408
        0.175    -0.0713919    -0.0713919     -0.236122     -0.236122    -0.0291272    -0.0291272
        0.176    -0.0710742    -0.0710742      -0.23656      -0.23656     -0.029016     -0.029016
        0.177    -0.0707628    -0.0707628     -0.237054     -0.237054    -0.0289018    -0.0289018
        0.178    -0.0704395    -0.0704395     -0.237212     -0.237212    -0.0287853    -0.0287853
        0.179     -0.070132    -0.0701321     -0.237609     -0.237609    -0.0286708    -0.0286708
         0.18    -0.0698287    -0.0698287     -0.238002     -0.238002    -0.0285632    -0.0285632
        0.181    -0.0695224    -0.0695224     -0.238467     -0.238467    -0.0284546    -0.0284546
        0.182    -0.0692236    -0.0692236     -0.238873     -0.238873    -0.0283481    -0.0283481
        0.183    -0.0689282    -0.0689282     -0.239273     -0.239273    -0.0282426    -0.0282426
        0.184    -0.0686357    -0.0686357     -0.239671     -0.239671    -0.0281382    -0.0281382
        0.185    -0.0683457    -0.0683457     -0.240077     -0.240077    -0.0280345    -0.0280345
        0.186     -0.068056     -0.068056     -0.240568     -0.240568    -0.0279309    -0.0279309
        0.187    -0.0677772    -0.0677772     -0.240792     -0.240792    -0.0278303    -0.0278303
        0.188    -0.0674964    -0.0674964     -0.241172     -0.241172    -0.0277302    -0.0277302
        0.189    -0.0672187    -0.0672187     -0.241549     -0.241549    -0.0276321    -0.0276321
         0.19    -0.0669438    -0.0669438     -0.241924     -0.241924    -0.0275353    -0.0275353
        0.191    -0.0666714    -0.0666714     -0.242295     -0.242295    -0.0274377    -0.0274377
        0.192     -0.066402     -0.066402     -0.242662     -0.242662    -0.0273417    -0.0273417
        0.193    -0.0661356    -0.0661356     -0.243021     -0.243021     -0.027247     -0.027247
        0.194    -0.0658718    -0.0658718     -0.243376     -0.243376    -0.0271537    -0.0271537
        0.195    -0.0656087    -0.0656087     -0.243733     -0.243733    -0.0270595    -0.0270595
        0.196    -0.0653466    -0.0653466     -0.244133     -0.244133    -0.0269655    -0.0269655
        0.197    -0.0650891    -0.0650891     -0.244492     -0.244492    -0.0268729    -0.0268729
        0.198    -0.0648342    -0.0648342      -0.24484      -0.24484    -0.0267813    -0.0267813
        0.199    -0.0645817    -0.0645817     -0.245184     -0.245184    -0.0266906    -0.0266906
          0.2    -0.0643313    -0.0643313     -0.245522     -0.245522    -0.0266007    -0.0266007
        0.201    -0.0640832    -0.0640832     -0.245854     -0.245854    -0.0265117    -0.0265117
        0.202     -0.063837     -0.063837     -0.246176     -0.246176    -0.0264234    -0.0264234
        0.203    -0.0635921    -0.0635921      -0.24648      -0.24648    -0.0263358    -0.0263358
        0.204    -0.0633473    -0.0633473     -0.246744     -0.246744    -0.0262485    -0.0262485
        0.205    -0.0631064    -0.0631064     -0.247025     -0.247025    -0.0261629    -0.0261629
        0.206    -0.0628884    -0.0628884     -0.247662     -0.247662    -0.0260833    -0.0260833
        0.207     -0.062674     -0.062674     -0.248325     -0.248325    -0.0260041    -0.0260041
        0.208     -0.062441     -0.062441     -0.248641     -0.248641      -0.02592      -0.02592
        0.209    -0.0622101    -0.0622101     -0.248954     -0.248954     -0.025833     -0.025833
         0.21    -0.0619814    -0.0619814      -0.24927      -0.24927    -0.0257473    -0.0257473
        0.211    -0.0617549    -0.0617549     -0.249587     -0.249587    -0.0256646    -0.0256646
        0.212    -0.0615306    -0.0615306     -0.249907     -0.249907    -0.0255843    -0.0255843
        0.213    -0.0613084    -0.0613084     -0.250227     -0.250227    -0.0255046    -0.0255046
        0.214     -0.061088     -0.061088     -0.250547     -0.250547    -0.0254253    -0.0254253
        0.215    -0.0608695    -0.0608695     -0.250867     -0.250867    -0.0253466    -0.0253466
        0.216    -0.0606529    -0.0606529     -0.251189     -0.251189    -0.0252683    -0.0252683
        0.217    -0.0604387    -0.0604387     -0.251513     -0.251513    -0.0251919    -0.0251919
        0.218    -0.0602261    -0.0602261     -0.251849     -0.251849    -0.0251155    -0.0251155
        0.219    -0.0600138    -0.0600138     -0.252277     -0.252277      -0.02504      -0.02504
         0.22    -0.0598078    -0.0598078     -0.252453     -0.252453     -0.024965     -0.024965
        0.221    -0.0596036    -0.0596036     -0.252684     -0.252684    -0.0248904    -0.0248904
        0.222    -0.0593966    -0.0593966     -0.253014     -0.253014    -0.0248165    -0.0248164
        0.223    -0.0591908    -0.0591908     -0.253354     -0.253354    -0.0247428    -0.0247428
        0.224    -0.0589894    -0.0589894      -0.25366      -0.25366    -0.0246713    -0.0246713
        0.225    -0.0587893    -0.0587893     -0.253965     -0.253965    -0.0245987    -0.0245987
        0.226    -0.0585908    -0.0585908     -0.254269     -0.254269    -0.0245268    -0.0245268
        0.227    -0.0583936    -0.0583936     -0.254571     -0.254571    -0.0244558    -0.0244558
        0.228     -0.058198     -0.058198     -0.254871     -0.254871    -0.0243847    -0.0243847
        0.229    -0.0580043    -0.0580043     -0.255171     -0.255171    -0.0243133    -0.0243133
         0.23    -0.0578123    -0.0578123     -0.255469     -0.255469    -0.0242417    -0.0242417
        0.231    -0.0576218    -0.0576218     -0.255766     -0.255766    -0.0241703    -0.0241703
        0.232    -0.0574326    -0.0574326     -0.256061     -0.256061    -0.0241016    -0.0241016
        0.233    -0.0572448    -0.0572448     -0.256355     -0.256355    -0.0240333    -0.0240333
        0.234    -0.0570585    -0.0570585     -0.256646     -0.256646    -0.0239656    -0.0239656
        0.235    -0.0568754    -0.0568755      -0.25691      -0.25691    -0.0238996    -0.0238996
        0.236    -0.0566908    -0.0566908     -0.257232     -0.257232     -0.023833     -0.023833
        0.237    -0.0565091    -0.0565091      -0.25752      -0.25752    -0.0237672    -0.0237672
        0.238    -0.0563285    -0.0563285     -0.257806     -0.257806    -0.0237013    -0.0237013
        0.239    -0.0561494    -0.0561494     -0.258089     -0.258089    -0.0236359    -0.0236359
         0.24    -0.0559718    -0.0559718     -0.258369     -0.258369    -0.0235711    -0.0235711
        0.241    -0.0557965    -0.0557965     -0.258639     -0.258639     -0.023507     -0.023507
        0.242    -0.0556203    -0.0556203      -0.25893      -0.25893    -0.0234426    -0.0234426
        0.243    -0.0554436    -0.0554436     -0.259242     -0.259242    -0.0233782    -0.0233782
        0.244    -0.0552704    -0.0552704     -0.259517     -0.259517    -0.0233148    -0.0233148
        0.245    -0.0550995    -0.0550995     -0.259794     -0.259794    -0.0232525    -0.0232525
        0.246    -0.0549294    -0.0549294     -0.260069     -0.260069    -0.0231905    -0.0231905
        0.247    -0.0547604    -0.0547604     -0.260344     -0.260344    -0.0231288    -0.0231288
        0.248    -0.0545928    -0.0545928     -0.260618     -0.260618    -0.0230679    -0.0230679
        0.249    -0.0544262    -0.0544262     -0.260892     -0.260892    -0.0230075    -0.0230075
         0.25    -0.0542608    -0.0542608     -0.261166     -0.261166    -0.0229482    -0.0229482
        0.251    -0.0540967    -0.0540967      -0.26144      -0.26144     -0.022887     -0.022887
        0.252    -0.0539336    -0.0539336     -0.261717     -0.261717    -0.0228258    -0.0228258
        0.253    -0.0537716    -0.0537716     -0.261996     -0.261996    -0.0227639    -0.0227639
        0.254    -0.0536103    -0.0536103     -0.262284     -0.262284    -0.0227051    -0.0227051
        0.255    -0.0534499    -0.0534499     -0.262597     -0.262597    -0.0226465    -0.0226465
        0.256    -0.0532902    -0.0532902      -0.26304      -0.26304    -0.0225882    -0.0225882
        0.257     -0.053131     -0.053131     -0.263434     -0.263434    -0.0225292    -0.0225292
        0.258    -0.0529784    -0.0529784     -0.263226     -0.263226    -0.0224741    -0.0224741
        0.259    -0.0528244    -0.0528244     -0.263463     -0.263463    -0.0224183    -0.0224183
         0.26    -0.0526694    -0.0526694     -0.263725     -0.263724    -0.0223633    -0.0223633
        0.261    -0.0525138    -0.0525138     -0.263989     -0.263989    -0.0223067    -0.0223067
        0.262    -0.0523615    -0.0523615     -0.264238     -0.264238    -0.0222519    -0.0222519
        0.263    -0.0522103    -0.0522103     -0.264488     -0.264488    -0.0221964    -0.0221964
        0.264    -0.0520604    -0.0520604     -0.264736     -0.264736    -0.0221415    -0.0221415
        0.265    -0.0519103    -0.0519103     -0.264983     -0.264983    -0.0220861    -0.0220861
        0.266    -0.0517618    -0.0517618     -0.265228     -0.265228    -0.0220315    -0.0220315
        0.267    -0.0516142    -0.0516142     -0.265471     -0.265471    -0.0219773    -0.0219773
        0.268    -0.0514678    -0.0514678     -0.265711     -0.265711    -0.0219234    -0.0219234
        0.269    -0.0513225    -0.0513225     -0.265937     -0.265937    -0.0218698    -0.0218698
         0.27    -0.0511789    -0.0511789     -0.266169     -0.266169    -0.0218172    -0.0218172
        0.271    -0.0510312    -0.0510312     -0.266461     -0.266461    -0.0217633    -0.0217633
        0.272    -0.0508885    -0.0508885     -0.266699     -0.266699    -0.0217111    -0.0217111
        0.273    -0.0507458    -0.0507458     -0.266935     -0.266935    -0.0216585    -0.0216585
        0.274    -0.0506044    -0.0506044      -0.26717      -0.26717    -0.0216065    -0.0216065
        0.275     -0.050464     -0.050464     -0.267405     -0.267405    -0.0215549    -0.0215549
        0.276    -0.0503244    -0.0503244     -0.267638     -0.267638    -0.0215037    -0.0215037
        0.277    -0.0501857    -0.0501857      -0.26787      -0.26787    -0.0214528    -0.0214528
        0.278     -0.050048     -0.050048     -0.268099     -0.268099    -0.0214022    -0.0214022
        0.279    -0.0499102    -0.0499102     -0.268333     -0.268333    -0.0213516    -0.0213516
         0.28    -0.0497726    -0.0497726     -0.268581     -0.268581    -0.0213012    -0.0213012
        0.281    -0.0496382    -0.0496382      -0.26879      -0.26879    -0.0212521    -0.0212521
        0.282    -0.0495032    -0.0495032     -0.269014     -0.269014    -0.0212025    -0.0212025
        0.283    -0.0493693    -0.0493693     -0.269238     -0.269238    -0.0211536    -0.0211536
        0.284     -0.049236     -0.049236     -0.269461     -0.269461    -0.0211053    -0.0211053
        0.285    -0.0491037    -0.0491037     -0.269683     -0.269683    -0.0210565    -0.0210565
        0.286    -0.0489722    -0.0489722     -0.269904     -0.269904    -0.0210072    -0.0210072
        0.287    -0.0488415    -0.0488415     -0.270123     -0.270123    -0.0209584    -0.0209584
        0.288    -0.0487114    -0.0487114      -0.27034      -0.27034    -0.0209089    -0.0209089
        0.289    -0.0485818    -0.0485818     -0.270555     -0.270555    -0.0208615    -0.0208615
         0.29     -0.048453     -0.048453     -0.270768     -0.270768    -0.0208144    -0.0208144
        0.291    -0.0483249    -0.0483249     -0.270979     -0.270979    -0.0207674    -0.0207674
        0.292    -0.0481975    -0.0481975     -0.271187     -0.271187    -0.0207207    -0.0207207
        0.293    -0.0480708    -0.0480708      -0.27139      -0.27139    -0.0206742    -0.0206742
        0.294    -0.0479448    -0.0479448     -0.271588     -0.271588    -0.0206278    -0.0206278
        0.295    -0.0478195    -0.0478195     -0.271775     -0.271775    -0.0205817    -0.0205817
        0.296    -0.0476947    -0.0476947     -0.271943     -0.271943    -0.0205356    -0.0205356
        0.297    -0.0475705    -0.0475705     -0.272057     -0.272057    -0.0204899    -0.0204899
        0.298    -0.0474455    -0.0474455     -0.271775     -0.271774    -0.0204451    -0.0204451
        0.299    -0.0473253    -0.0473253     -0.272613     -0.272613    -0.0204018    -0.0204018
          0.3    -0.0472033    -0.0472033     -0.272956     -0.272956    -0.0203569    -0.0203569
        0.301    -0.0470822    -0.0470822     -0.273178     -0.273178    -0.0203122    -0.0203122
        0.302    -0.0469619    -0.0469619     -0.273388     -0.273388    -0.0202681    -0.0202681
        0.303     -0.046842     -0.046842     -0.273595     -0.273595    -0.0202241    -0.0202241