/*--------------------------------*- C++ -*----------------------------------*\
  =========                 |
  \\      /  F ield         | OpenFOAM: The Open Source CFD Toolbox
   \\    /   O peration     | Website:  https://openfoam.org
    \\  /    A nd           | Version:  7
     \\/     M anipulation  |
\*---------------------------------------------------------------------------*/
FoamFile
{
    version     2.0;
    format      ascii;
    class       volScalarField;
    location    "95";
    object      p;
}
// * * * * * * * * * * * * * * * * * * * * * * * * * * * * * * * * * * * * * //

dimensions      [0 2 -2 0 0 0 0];

internalField   nonuniform List<scalar> 
14000
(
-0.228501
-0.232109
-0.233543
-0.235163
-0.23681
-0.23831
-0.239397
-0.239792
-0.239953
-0.237801
-0.229052
-0.232472
-0.233793
-0.235275
-0.23674
-0.238023
-0.238893
-0.238647
-0.239037
-0.235507
-0.23059
-0.233629
-0.23475
-0.236036
-0.237272
-0.238297
-0.2392
-0.237656
-0.239553
-0.233122
-0.232943
-0.235437
-0.236249
-0.23725
-0.238198
-0.23876
-0.240292
-0.236176
-0.241602
-0.230016
-0.235902
-0.237716
-0.238079
-0.238663
-0.239291
-0.239014
-0.241932
-0.233848
-0.243738
-0.227437
-0.239279
-0.240301
-0.240046
-0.240028
-0.240284
-0.239086
-0.242503
-0.231965
-0.245074
-0.225581
-0.242964
-0.243092
-0.242026
-0.241213
-0.240724
-0.23914
-0.24216
-0.230263
-0.243113
-0.226264
-0.24697
-0.24608
-0.244001
-0.242221
-0.240806
-0.238847
-0.240144
-0.23017
-0.236821
-0.226388
-0.251459
-0.249307
-0.24613
-0.24319
-0.240697
-0.238188
-0.236661
-0.229945
-0.228391
-0.221599
-0.256752
-0.253037
-0.248611
-0.244346
-0.24062
-0.236957
-0.232629
-0.226516
-0.21883
-0.211845
-0.263194
-0.257609
-0.251753
-0.245963
-0.240656
-0.235056
-0.228039
-0.21991
-0.208326
-0.198524
-0.271176
-0.2634
-0.255817
-0.248161
-0.240704
-0.232381
-0.222339
-0.211121
-0.197888
-0.185982
-0.281165
-0.270723
-0.260941
-0.251031
-0.240592
-0.228735
-0.215402
-0.201525
-0.186732
-0.173723
-0.293566
-0.279722
-0.267322
-0.254523
-0.239988
-0.223966
-0.207435
-0.191088
-0.175233
-0.161837
-0.308653
-0.29015
-0.27522
-0.258222
-0.238406
-0.21796
-0.19833
-0.180023
-0.163413
-0.149383
-0.32641
-0.301673
-0.284163
-0.261218
-0.235336
-0.210498
-0.188115
-0.16819
-0.150919
-0.136362
-0.345662
-0.314342
-0.292446
-0.262264
-0.230251
-0.201393
-0.176602
-0.155393
-0.137623
-0.122447
-0.364392
-0.327978
-0.298188
-0.260222
-0.222665
-0.190348
-0.163585
-0.141411
-0.123241
-0.107665
-0.380426
-0.340918
-0.300278
-0.254393
-0.212115
-0.177052
-0.148784
-0.125974
-0.107658
-0.0920318
-0.392094
-0.350279
-0.297831
-0.244377
-0.198219
-0.161161
-0.131919
-0.108849
-0.0906875
-0.0755172
-0.398273
-0.353411
-0.28967
-0.229777
-0.18066
-0.142379
-0.112747
-0.089849
-0.0721718
-0.0577333
-0.397985
-0.348393
-0.27492
-0.210166
-0.159172
-0.120471
-0.0911111
-0.0689319
-0.0520221
-0.0381258
-0.390061
-0.334162
-0.253063
-0.185181
-0.133543
-0.0953367
-0.0669832
-0.0461477
-0.0302697
-0.0167101
-0.373111
-0.310203
-0.223776
-0.154613
-0.103743
-0.0670979
-0.0405007
-0.0215315
-0.00671566
0.00543515
-0.345784
-0.276387
-0.186826
-0.118588
-0.0700395
-0.036066
-0.0119073
0.00507586
0.0183974
0.0283091
-0.307146
-0.232841
-0.142299
-0.0776458
-0.0328132
-0.00224525
0.0187501
0.0333473
0.0445641
0.0517076
-0.256968
-0.179605
-0.0912079
-0.032036
0.00777401
0.0339653
0.0511697
0.0627599
0.0711062
0.0748976
-0.195684
-0.116567
-0.034939
0.0175626
0.0511777
0.0721222
0.0849384
0.0927266
0.0971561
0.0968831
-0.123837
-0.0458917
0.0257794
0.0701569
0.096686
0.111711
0.119601
0.122784
0.122216
0.117406
-0.0419101
0.0287749
0.089821
0.124739
0.143464
0.152075
0.154589
0.152657
0.146864
0.138224
0.0466071
0.106166
0.155624
0.180203
0.190588
0.192409
0.189167
0.181941
0.171631
0.163971
0.138587
0.184658
0.221519
0.235303
0.237059
0.231863
0.222641
0.21028
0.196631
0.188557
0.230674
0.262143
0.285808
0.288718
0.281827
0.269626
0.254586
0.237613
0.221057
0.210558
0.319522
0.33639
0.3468
0.33911
0.323814
0.304828
0.284296
0.263202
0.243869
0.230302
0.401899
0.405187
0.402855
0.385184
0.362025
0.336745
0.311222
0.286399
0.26425
0.247478
0.474976
0.466379
0.452386
0.425695
0.395482
0.364611
0.334738
0.306668
0.281863
0.262009
0.536611
0.51779
0.493907
0.459537
0.423342
0.38776
0.354257
0.323461
0.29632
0.273722
0.584776
0.557748
0.52615
0.48576
0.444884
0.405636
0.369327
0.336407
0.307373
0.282512
0.617807
0.585032
0.54815
0.503628
0.459538
0.41778
0.379561
0.345188
0.314828
0.288341
0.634542
0.598817
0.559257
0.512638
0.466918
0.42389
0.384705
0.349597
0.318554
0.291215
0.63439
0.598686
0.559144
0.512538
0.466827
0.423807
0.384628
0.349526
0.318489
0.291158
0.617348
0.584636
0.547809
0.503326
0.459266
0.417532
0.379332
0.344975
0.314632
0.288168
0.58401
0.557087
0.52558
0.485256
0.44443
0.405222
0.368945
0.336052
0.307046
0.282223
0.535533
0.516858
0.493105
0.458828
0.422705
0.387179
0.353722
0.322964
0.295861
0.273316
0.473581
0.465171
0.451351
0.424781
0.394661
0.363863
0.33405
0.306029
0.281273
0.261485
0.400177
0.403703
0.401583
0.384061
0.361017
0.335828
0.310379
0.285617
0.263527
0.246833
0.317462
0.334626
0.345289
0.337776
0.322617
0.30374
0.283298
0.262278
0.243013
0.229537
0.228271
0.260095
0.284053
0.287171
0.280439
0.268367
0.253433
0.236547
0.220067
0.209668
0.135839
0.182321
0.219516
0.233539
0.235479
0.230431
0.221331
0.209071
0.195508
0.187543
0.0435152
0.103537
0.153369
0.178221
0.188813
0.190801
0.1877
0.180592
0.170378
0.162818
-0.0453388
0.0258523
0.0873136
0.122537
0.141495
0.150291
0.152962
0.151164
0.145481
0.136919
-0.127589
-0.0491075
0.0230211
0.0677354
0.09452
0.109749
0.117811
0.121146
0.120706
0.115992
-0.199745
-0.12007
-0.0379429
0.0149216
0.0488152
0.0699828
0.0829862
0.0909408
0.0955214
0.095371
-0.261303
-0.1834
-0.0944495
-0.0348957
0.00521542
0.0316487
0.0490546
0.0608258
0.0693413
0.0732777
-0.311721
-0.236902
-0.145781
-0.0807216
-0.0355667
-0.00473834
0.0164702
0.0312624
0.0426629
0.0499684
-0.350563
-0.28069
-0.190546
-0.121867
-0.072986
-0.0387354
-0.0143554
0.00283712
0.0163543
0.0264457
-0.378052
-0.314722
-0.227716
-0.158094
-0.106874
-0.0699467
-0.04312
-0.0239273
-0.00890748
0.00344649
-0.395121
-0.33887
-0.257201
-0.188858
-0.136862
-0.098369
-0.0697701
-0.048708
-0.0326174
-0.0188255
-0.403124
-0.353259
-0.279234
-0.214027
-0.162679
-0.12369
-0.0940779
-0.0716652
-0.054524
-0.0403769
-0.403459
-0.358395
-0.294135
-0.233808
-0.184351
-0.145791
-0.115909
-0.0927708
-0.0748463
-0.0601431
-0.397299
-0.355328
-0.302415
-0.248563
-0.202091
-0.164774
-0.135294
-0.111984
-0.0935635
-0.0781067
-0.385623
-0.345963
-0.304941
-0.258714
-0.216165
-0.180876
-0.152393
-0.129352
-0.110771
-0.0948286
-0.369547
-0.33295
-0.302889
-0.264656
-0.226889
-0.194399
-0.16746
-0.145076
-0.126635
-0.110713
-0.35073
-0.319193
-0.297145
-0.266781
-0.23464
-0.205689
-0.180788
-0.159402
-0.141364
-0.125809
-0.331349
-0.306393
-0.288803
-0.265772
-0.239875
-0.215065
-0.192669
-0.172623
-0.155088
-0.14012
-0.31344
-0.294747
-0.27974
-0.262757
-0.243078
-0.222827
-0.203327
-0.184986
-0.168133
-0.153643
-0.298227
-0.284196
-0.271698
-0.258996
-0.244769
-0.229161
-0.212967
-0.196725
-0.180653
-0.166752
-0.285746
-0.275087
-0.265193
-0.255427
-0.245466
-0.234286
-0.221569
-0.208017
-0.193085
-0.179465
-0.275739
-0.267701
-0.259997
-0.252513
-0.245676
-0.238309
-0.229233
-0.218676
-0.205454
-0.192903
-0.267808
-0.261907
-0.255938
-0.25035
-0.245771
-0.24138
-0.235708
-0.228746
-0.217482
-0.207005
-0.261485
-0.25736
-0.25288
-0.248869
-0.245956
-0.243694
-0.24107
-0.236713
-0.230002
-0.222811
-0.256248
-0.253692
-0.250531
-0.247918
-0.24632
-0.245356
-0.245764
-0.241487
-0.241497
-0.235232
-0.251735
-0.250482
-0.248508
-0.247151
-0.246722
-0.246421
-0.249759
-0.242809
-0.251314
-0.242476
-0.24761
-0.247436
-0.246504
-0.246225
-0.246769
-0.246977
-0.25206
-0.243382
-0.258489
-0.244149
-0.243647
-0.244412
-0.244343
-0.2449
-0.246196
-0.24689
-0.25231
-0.244902
-0.260693
-0.243903
-0.239812
-0.241417
-0.241992
-0.243152
-0.244814
-0.246166
-0.251093
-0.245926
-0.258398
-0.244789
-0.236214
-0.23855
-0.239564
-0.24108
-0.242934
-0.244872
-0.248235
-0.246334
-0.254527
-0.245137
-0.233058
-0.235988
-0.237273
-0.238962
-0.240896
-0.242965
-0.24527
-0.245443
-0.249377
-0.244722
-0.230588
-0.233944
-0.235372
-0.23711
-0.239012
-0.240946
-0.242691
-0.243537
-0.245188
-0.24273
-0.229023
-0.232609
-0.234081
-0.235788
-0.237584
-0.239305
-0.24069
-0.241457
-0.242046
-0.240232
-0.236942
-0.236167
-0.235319
-0.234413
-0.233458
-0.232463
-0.231439
-0.230393
-0.229332
-0.228259
-0.227178
-0.22609
-0.224994
-0.223889
-0.222769
-0.22163
-0.220461
-0.219255
-0.217998
-0.216677
-0.215276
-0.213775
-0.212153
-0.210387
-0.20845
-0.206386
-0.204176
-0.201804
-0.19926
-0.196541
-0.193646
-0.190581
-0.187356
-0.183987
-0.180496
-0.176905
-0.173243
-0.169537
-0.165818
-0.162114
-0.158454
-0.154866
-0.151372
-0.147991
-0.144735
-0.141612
-0.138621
-0.135759
-0.133014
-0.130368
-0.1278
-0.125281
-0.122777
-0.120251
-0.117665
-0.11499
-0.112246
-0.109659
-0.106873
-0.103944
-0.100884
-0.0976994
-0.0943809
-0.0910304
-0.0876445
-0.0842247
-0.0808107
-0.0774436
-0.0741646
-0.0710752
-0.0680876
-0.0653192
-0.0627981
-0.0605432
-0.0585713
-0.0568918
-0.0555054
-0.0544039
-0.0535699
-0.0529773
-0.052592
-0.0523728
-0.052273
-0.0522424
-0.0522289
-0.0521807
-0.0520488
-0.0517894
-0.0513663
-0.0507555
-0.0499515
-0.0489921
-0.0480595
-0.0461302
-0.044112
-0.0419496
-0.0396204
-0.0371302
-0.0344976
-0.0317483
-0.0289114
-0.0260185
-0.0231014
-0.020192
-0.0173218
-0.0145213
-0.0118205
-0.00924843
-0.00683337
-0.004603
-0.00258428
-0.000803612
0.000713262
0.00194067
0.00285325
0.00342283
0.00361936
0.00340028
0.00269191
0.00145031
-0.235021
-0.234272
-0.233501
-0.232752
-0.232023
-0.231324
-0.230665
-0.230054
-0.229495
-0.228987
-0.228529
-0.228115
-0.227737
-0.227383
-0.227039
-0.226687
-0.226307
-0.225876
-0.225369
-0.22476
-0.224018
-0.22311
-0.222002
-0.220661
-0.219075
-0.217229
-0.2151
-0.21267
-0.209929
-0.206869
-0.20349
-0.199798
-0.195806
-0.191535
-0.187013
-0.182275
-0.177357
-0.172295
-0.167127
-0.161896
-0.156651
-0.151438
-0.146298
-0.14127
-0.136387
-0.131677
-0.12716
-0.12285
-0.118755
-0.114876
-0.111207
-0.107736
-0.104448
-0.101321
-0.0983368
-0.0954735
-0.0927188
-0.0900799
-0.0875591
-0.0851183
-0.0827292
-0.080385
-0.0780834
-0.0758545
-0.0738137
-0.0717803
-0.0698541
-0.0680557
-0.066443
-0.0650402
-0.0637755
-0.0627507
-0.0619809
-0.0614609
-0.0611864
-0.0611466
-0.0613231
-0.0616894
-0.0622111
-0.0628467
-0.0635489
-0.0642658
-0.064943
-0.0655252
-0.0659587
-0.0661928
-0.0661826
-0.0658902
-0.0652889
-0.0643684
-0.0631235
-0.0615734
-0.0596703
-0.0573366
-0.0546921
-0.0517906
-0.04867
-0.0453657
-0.0419136
-0.0383511
-0.0347164
-0.0310469
-0.0273793
-0.0237484
-0.0201877
-0.016729
-0.0134026
-0.0102383
-0.00726531
-0.00451315
-0.00201241
0.000204234
0.0021017
0.0036397
0.00477408
0.00544626
0.00559671
0.0051113
0.00391649
0.00168718
-0.233734
-0.232866
-0.232088
-0.231453
-0.230906
-0.23045
-0.230096
-0.229852
-0.229723
-0.229705
-0.229792
-0.22997
-0.230224
-0.230533
-0.230874
-0.231219
-0.231537
-0.231795
-0.231955
-0.231982
-0.231832
-0.231457
-0.230805
-0.229839
-0.228587
-0.226946
-0.224898
-0.222426
-0.219514
-0.216155
-0.212345
-0.208091
-0.203411
-0.198328
-0.192879
-0.18711
-0.181065
-0.174783
-0.168304
-0.161694
-0.155018
-0.148338
-0.141712
-0.135194
-0.128835
-0.122678
-0.116761
-0.111115
-0.105765
-0.100728
-0.0960131
-0.0916262
-0.0875656
-0.0838257
-0.0803975
-0.0772683
-0.0744207
-0.0718251
-0.0694456
-0.0674563
-0.0656564
-0.0640578
-0.0626401
-0.0612504
-0.0609221
-0.0600489
-0.05951
-0.059201
-0.0591268
-0.0592936
-0.0597004
-0.0603557
-0.0612516
-0.062365
-0.0636714
-0.0651397
-0.0667323
-0.068405
-0.070108
-0.0717869
-0.0733842
-0.0748417
-0.0761014
-0.0771072
-0.0778073
-0.0781552
-0.0781118
-0.0776442
-0.0767273
-0.075419
-0.0736788
-0.0715168
-0.0689472
-0.0659827
-0.0626744
-0.0590776
-0.0552442
-0.0512239
-0.0470654
-0.0428154
-0.0385192
-0.0342195
-0.0299563
-0.0257671
-0.0216864
-0.0177466
-0.0139783
-0.0104108
-0.00707355
-0.00399672
-0.00121233
0.00124352
0.00333102
0.00500027
0.00619835
0.00684368
0.00687231
0.00610817
0.0045499
0.00167491
-0.233909
-0.231757
-0.231055
-0.230447
-0.230012
-0.229734
-0.229607
-0.229651
-0.229869
-0.230246
-0.230769
-0.231421
-0.232181
-0.233025
-0.233919
-0.23483
-0.235715
-0.236531
-0.23723
-0.237763
-0.238084
-0.238144
-0.237882
-0.23727
-0.236237
-0.234755
-0.232781
-0.230286
-0.227249
-0.223657
-0.219507
-0.214805
-0.20957
-0.20383
-0.197626
-0.191009
-0.184026
-0.176722
-0.169158
-0.161414
-0.153565
-0.145682
-0.137836
-0.130095
-0.12252
-0.11517
-0.108096
-0.101343
-0.0949474
-0.0889411
-0.0833477
-0.0781842
-0.0734617
-0.069186
-0.065358
-0.0619754
-0.0590354
-0.0565379
-0.0544653
-0.052668
-0.0513285
-0.0503636
-0.0497488
-0.0494782
-0.049643
-0.050058
-0.0507882
-0.0518189
-0.0531404
-0.0547428
-0.0566112
-0.0587273
-0.0610582
-0.0635655
-0.066206
-0.0689307
-0.0716849
-0.0744095
-0.0770418
-0.0795177
-0.0817735
-0.0837479
-0.0853827
-0.0866247
-0.0874267
-0.0877485
-0.0875597
-0.0868445
-0.0856319
-0.083869
-0.0816232
-0.078908
-0.075752
-0.0721961
-0.068293
-0.0641002
-0.0596765
-0.0550797
-0.0503656
-0.0455871
-0.0407937
-0.0360313
-0.0313421
-0.0267643
-0.0223331
-0.0180809
-0.0140378
-0.0102332
-0.006696
-0.00345666
-0.000547384
0.00199394
0.00412699
0.0057962
0.00695088
0.00749357
0.00738221
0.00639507
0.00464722
0.00151143
-0.231587
-0.231253
-0.230271
-0.229609
-0.229244
-0.229082
-0.229113
-0.229349
-0.22979
-0.230425
-0.23124
-0.232216
-0.233329
-0.234547
-0.235836
-0.237154
-0.238454
-0.239686
-0.240793
-0.241715
-0.242393
-0.242768
-0.24279
-0.242427
-0.241588
-0.240235
-0.238325
-0.235824
-0.232708
-0.22896
-0.224575
-0.21956
-0.213933
-0.207724
-0.200971
-0.193724
-0.18604
-0.177988
-0.169641
-0.161077
-0.152378
-0.143623
-0.134893
-0.126262
-0.117803
-0.109584
-0.101663
-0.0940958
-0.0869293
-0.0802036
-0.0739522
-0.0682016
-0.062972
-0.0582778
-0.054128
-0.0505267
-0.0474741
-0.0449647
-0.0429778
-0.0414738
-0.0405613
-0.0401077
-0.0401189
-0.0405899
-0.0415114
-0.0428427
-0.0445631
-0.0466507
-0.0490799
-0.051821
-0.0548405
-0.0580955
-0.0615377
-0.0651136
-0.0687645
-0.0724265
-0.0760318
-0.0795093
-0.0827867
-0.0857928
-0.0884611
-0.0907314
-0.0925492
-0.0938649
-0.0946378
-0.0948277
-0.0944297
-0.0934448
-0.0918752
-0.0897356
-0.0870557
-0.0838758
-0.0802438
-0.0762139
-0.0718458
-0.0672024
-0.0623474
-0.057343
-0.0522486
-0.0471198
-0.0420079
-0.0369597
-0.0320173
-0.027219
-0.0225992
-0.0181895
-0.0140192
-0.0101169
-0.00651074
-0.00323095
-0.000308586
0.00221788
0.00431129
0.00591362
0.00698537
0.00742105
0.00721535
0.00612849
0.00437123
0.00133104
-0.228209
-0.229108
-0.228973
-0.228662
-0.228436
-0.228378
-0.228532
-0.2289
-0.229466
-0.230227
-0.231185
-0.232326
-0.233621
-0.235037
-0.236536
-0.238075
-0.239607
-0.241075
-0.242419
-0.243574
-0.244474
-0.245056
-0.245264
-0.245043
-0.24433
-0.24307
-0.241219
-0.238738
-0.235599
-0.231782
-0.227281
-0.222101
-0.21626
-0.209788
-0.202727
-0.19513
-0.187059
-0.178584
-0.169785
-0.160743
-0.151543
-0.142272
-0.133013
-0.123847
-0.114852
-0.1061
-0.0976571
-0.0895838
-0.0819332
-0.0747522
-0.0680804
-0.0619513
-0.0563916
-0.0514221
-0.047058
-0.0433089
-0.0401799
-0.0376725
-0.0357903
-0.0345585
-0.0338135
-0.0336711
-0.0341015
-0.0350747
-0.0365633
-0.0385323
-0.0409492
-0.0437788
-0.0469823
-0.050514
-0.0543232
-0.0583544
-0.0625468
-0.0668344
-0.071147
-0.0754103
-0.079547
-0.0834775
-0.0871215
-0.090402
-0.093253
-0.0956177
-0.0974597
-0.098729
-0.0993848
-0.0994065
-0.0987779
-0.0975181
-0.0956404
-0.0931705
-0.0901485
-0.0866247
-0.0826555
-0.0783028
-0.0736318
-0.0687092
-0.063601
-0.0583707
-0.0530786
-0.0477801
-0.0425259
-0.0373619
-0.032329
-0.0274638
-0.0227993
-0.0183656
-0.0141906
-0.0103017
-0.00672525
-0.00349056
-0.000626022
0.00183093
0.00384921
0.00537188
0.00637442
0.0067536
0.00653604
0.00549957
0.00388334
0.0011904
-0.225012
-0.225816
-0.226638
-0.226937
-0.226921
-0.227006
-0.227355
-0.22789
-0.228547
-0.229354
-0.230353
-0.231538
-0.232879
-0.234343
-0.235896
-0.237497
-0.239098
-0.240643
-0.242075
-0.243327
-0.244328
-0.245009
-0.245329
-0.245201
-0.244568
-0.243381
-0.241594
-0.239164
-0.236063
-0.232271
-0.22778
-0.222595
-0.216732
-0.210221
-0.203103
-0.195429
-0.187265
-0.178679
-0.169752
-0.160566
-0.151206
-0.141758
-0.132309
-0.122941
-0.113733
-0.104759
-0.0960881
-0.0877829
-0.0799004
-0.0724909
-0.0655987
-0.0592621
-0.0535128
-0.0483771
-0.0438751
-0.0400218
-0.0368265
-0.034295
-0.0324304
-0.0312288
-0.0306542
-0.0307213
-0.0313955
-0.0326547
-0.03447
-0.0368057
-0.0396222
-0.0428755
-0.0465165
-0.0504908
-0.0547382
-0.0591937
-0.063787
-0.0684442
-0.0730883
-0.0776398
-0.0820171
-0.0861354
-0.0899052
-0.0932315
-0.0960754
-0.0983732
-0.100116
-0.101247
-0.101729
-0.101543
-0.100696
-0.0992018
-0.0970844
-0.0943809
-0.091138
-0.0874106
-0.0832596
-0.0787502
-0.0739495
-0.0689247
-0.0637413
-0.0584616
-0.053144
-0.0478418
-0.0426036
-0.0374727
-0.0324879
-0.0276837
-0.0230909
-0.0187381
-0.0146512
-0.0108559
-0.00737659
-0.00424053
-0.00147251
0.000892918
0.00283174
0.00429246
0.0052634
0.00565496
0.00550835
0.00464725
0.00327869
0.00105843
-0.222882
-0.222636
-0.223849
-0.224353
-0.224252
-0.224427
-0.225034
-0.225762
-0.226494
-0.227321
-0.228316
-0.229469
-0.230751
-0.232141
-0.233616
-0.235142
-0.236674
-0.23816
-0.239535
-0.240741
-0.241727
-0.242394
-0.242708
-0.242602
-0.242018
-0.240906
-0.239218
-0.236909
-0.233948
-0.230315
-0.226001
-0.221008
-0.215349
-0.209051
-0.202152
-0.194701
-0.186757
-0.178389
-0.169669
-0.160677
-0.151497
-0.142209
-0.132898
-0.123643
-0.114522
-0.10561
-0.0969754
-0.0886832
-0.0807912
-0.073352
-0.0664122
-0.0600127
-0.0541889
-0.048971
-0.0443838
-0.0404463
-0.0371718
-0.034567
-0.0326216
-0.0313125
-0.0307246
-0.0308242
-0.0315435
-0.0328568
-0.0347424
-0.0371645
-0.040081
-0.0434436
-0.0471982
-0.0512847
-0.0556374
-0.0601853
-0.0648534
-0.0695636
-0.0742363
-0.0787925
-0.0831559
-0.0872466
-0.0909663
-0.0941296
-0.0968648
-0.0990381
-0.100619
-0.101543
-0.101808
-0.101431
-0.100406
-0.0987496
-0.0964921
-0.0936742
-0.0903454
-0.0865624
-0.0823868
-0.0778832
-0.0731172
-0.0681534
-0.0630543
-0.0578788
-0.0526816
-0.0475129
-0.0424177
-0.0374366
-0.0326056
-0.0279571
-0.02352
-0.0193208
-0.0153837
-0.0117325
-0.00838936
-0.00537888
-0.0027221
-0.000449044
0.00142241
0.00284999
0.00382959
0.00429298
0.00427981
0.00366882
0.00261038
0.000894431
-0.218528
-0.218654
-0.220339
-0.220439
-0.219964
-0.220239
-0.221077
-0.221935
-0.222742
-0.223654
-0.224715
-0.225885
-0.227141
-0.228477
-0.229874
-0.2313
-0.232719
-0.234093
-0.235386
-0.236544
-0.237479
-0.238133
-0.23843
-0.238374
-0.237858
-0.236837
-0.235272
-0.233114
-0.230333
-0.226912
-0.222846
-0.218131
-0.21278
-0.206816
-0.200273
-0.193195
-0.185636
-0.177658
-0.16933
-0.160725
-0.151919
-0.142992
-0.134021
-0.125083
-0.116247
-0.107583
-0.0991576
-0.0910351
-0.0832751
-0.0759318
-0.0690541
-0.0626851
-0.0568632
-0.0516212
-0.046987
-0.0429831
-0.0396267
-0.0369277
-0.0349024
-0.0335765
-0.0329061
-0.0328873
-0.0334623
-0.03466
-0.0364391
-0.0387572
-0.0415698
-0.0448262
-0.04847
-0.0524384
-0.0566632
-0.0610714
-0.0655857
-0.0701268
-0.0746149
-0.0789766
-0.083147
-0.0870991
-0.0909701
-0.09358
-0.0958898
-0.097794
-0.0990975
-0.0998134
-0.0999313
-0.0994266
-0.0983049
-0.0965879
-0.0943074
-0.0915047
-0.0882287
-0.0845346
-0.0804811
-0.076129
-0.0715395
-0.0667725
-0.0618856
-0.0569331
-0.0519654
-0.0470286
-0.0421646
-0.0374109
-0.0328014
-0.0283663
-0.0241328
-0.020126
-0.0163684
-0.0128823
-0.00968738
-0.00680554
-0.00425459
-0.00205896
-0.000232298
0.00119425
0.00221934
0.00279801
0.00296067
0.00263506
0.00191956
0.000696047
-0.211642
-0.213731
-0.215217
-0.214409
-0.213699
-0.214095
-0.214959
-0.215781
-0.216595
-0.217509
-0.218526
-0.21962
-0.220786
-0.22202
-0.223304
-0.224609
-0.225898
-0.227126
-0.228241
-0.229193
-0.229947
-0.230491
-0.230786
-0.230796
-0.230412
-0.229621
-0.228362
-0.22657
-0.224215
-0.221286
-0.217772
-0.213667
-0.208975
-0.203711
-0.1979
-0.191578
-0.184786
-0.177575
-0.170003
-0.162133
-0.15403
-0.145765
-0.137408
-0.129031
-0.120703
-0.112491
-0.104458
-0.0966607
-0.0891571
-0.0820028
-0.0752482
-0.0689384
-0.0631143
-0.0578123
-0.0530648
-0.0488985
-0.0453359
-0.0423968
-0.0400897
-0.038393
-0.0373623
-0.0369598
-0.0372188
-0.0380381
-0.0394115
-0.0413178
-0.0437122
-0.0465453
-0.0497633
-0.0533055
-0.0571047
-0.0610888
-0.0651811
-0.0693002
-0.0733614
-0.0772798
-0.0809641
-0.0843319
-0.0871085
-0.0903378
-0.092773
-0.0945407
-0.095717
-0.0963106
-0.0963261
-0.0957715
-0.0946523
-0.0929868
-0.0908047
-0.0881442
-0.0850499
-0.0815718
-0.0777633
-0.0736795
-0.0693756
-0.0649062
-0.0603237
-0.0556775
-0.0510141
-0.0463761
-0.0418024
-0.0373281
-0.0329851
-0.0288019
-0.0248042
-0.0210155
-0.0174571
-0.0141492
-0.0111098
-0.00835751
-0.00590763
-0.00377867
-0.00198168
-0.000536742
0.000554743
0.00126853
0.00162476
0.00158863
0.00122389
0.000469395
-0.200215
-0.206863
-0.207844
-0.206687
-0.205995
-0.206281
-0.207104
-0.208067
-0.209061
-0.210092
-0.211169
-0.2123
-0.213484
-0.214708
-0.215951
-0.217195
-0.218423
-0.219615
-0.22075
-0.221782
-0.222643
-0.223226
-0.223391
-0.223073
-0.222445
-0.221553
-0.220263
-0.218478
-0.216171
-0.213338
-0.209972
-0.206069
-0.201634
-0.19668
-0.191234
-0.185326
-0.178998
-0.172294
-0.165268
-0.157976
-0.150477
-0.142834
-0.135109
-0.127366
-0.119666
-0.112068
-0.10463
-0.0974089
-0.090456
-0.0838215
-0.0775509
-0.0716855
-0.0662611
-0.0613087
-0.0568565
-0.0529303
-0.0495492
-0.0467217
-0.0444469
-0.0427575
-0.0416915
-0.0413103
-0.041441
-0.042078
-0.043235
-0.0448822
-0.0469746
-0.0494664
-0.0523075
-0.0554405
-0.0588026
-0.062327
-0.0659427
-0.0695733
-0.0731234
-0.0765559
-0.0797811
-0.0827171
-0.0853163
-0.0876026
-0.0894336
-0.0907844
-0.0916345
-0.0919672
-0.0917778
-0.0910697
-0.0898552
-0.0881561
-0.0860024
-0.0834303
-0.0804812
-0.0772005
-0.0736357
-0.0698353
-0.0658481
-0.0617215
-0.0575012
-0.0532302
-0.0489488
-0.0446943
-0.0405006
-0.0363986
-0.0324162
-0.0285784
-0.024908
-0.0214254
-0.0181491
-0.0150961
-0.0122817
-0.00972039
-0.0074244
-0.00540608
-0.00367369
-0.00223744
-0.00109807
-0.000264114
0.000279074
0.000520535
0.000507972
0.000211388
-0.182667
-0.191629
-0.194689
-0.194427
-0.193853
-0.194143
-0.195199
-0.196565
-0.197933
-0.199217
-0.200446
-0.201663
-0.202884
-0.204101
-0.205291
-0.206428
-0.207487
-0.208435
-0.209234
-0.209838
-0.210205
-0.210316
-0.210208
-0.20989
-0.209312
-0.208314
-0.206874
-0.205003
-0.202699
-0.199952
-0.196754
-0.193105
-0.189014
-0.184497
-0.179577
-0.174282
-0.168646
-0.162707
-0.15651
-0.150099
-0.143525
-0.136838
-0.130088
-0.123328
-0.116608
-0.109979
-0.103489
-0.0971842
-0.0911074
-0.0853005
-0.0798023
-0.074649
-0.0698755
-0.0655142
-0.0615911
-0.0581262
-0.0551353
-0.0526313
-0.050631
-0.049136
-0.0481386
-0.047534
-0.0474497
-0.0478559
-0.0487037
-0.0499586
-0.051587
-0.0535495
-0.0557996
-0.0582863
-0.0609568
-0.0637564
-0.0666298
-0.069559
-0.0722288
-0.0748253
-0.0772719
-0.0794797
-0.0814088
-0.0830327
-0.0843017
-0.0851707
-0.0856154
-0.0856253
-0.0851991
-0.0843434
-0.0830711
-0.0814018
-0.0793606
-0.0769777
-0.0742871
-0.0713255
-0.0681313
-0.0647438
-0.0612021
-0.0575446
-0.0538085
-0.050029
-0.0462392
-0.0424699
-0.0387496
-0.0351044
-0.031558
-0.0281319
-0.0248458
-0.0217171
-0.0187618
-0.015994
-0.0134266
-0.0110705
-0.00893541
-0.00702881
-0.00535658
-0.00392226
-0.00272526
-0.00176535
-0.00102884
-0.000516921
-0.000183497
-5.18064e-05
-0.166652
-0.176445
-0.180686
-0.181396
-0.181379
-0.182001
-0.18335
-0.185014
-0.186645
-0.188121
-0.189466
-0.190737
-0.191967
-0.193152
-0.194271
-0.195301
-0.196217
-0.196998
-0.197625
-0.198083
-0.198368
-0.198477
-0.198371
-0.197968
-0.197194
-0.196073
-0.194622
-0.192829
-0.190673
-0.188142
-0.185233
-0.181948
-0.178296
-0.174291
-0.169951
-0.165298
-0.16036
-0.155169
-0.149759
-0.144169
-0.138437
-0.132607
-0.126719
-0.120818
-0.114947
-0.109147
-0.103459
-0.0979229
-0.092577
-0.0874574
-0.0825981
-0.0780309
-0.0737849
-0.0698849
-0.0663515
-0.0632022
-0.060451
-0.0581072
-0.0561726
-0.054642
-0.0535143
-0.0528462
-0.0525867
-0.0527127
-0.0531979
-0.0540201
-0.055152
-0.0565582
-0.0581977
-0.0600213
-0.0619865
-0.0640458
-0.0661163
-0.0681328
-0.070292
-0.0722826
-0.0740965
-0.07571
-0.0770881
-0.0781971
-0.0790057
-0.0794899
-0.0796341
-0.0794296
-0.0788742
-0.0779717
-0.0767314
-0.0751679
-0.0733006
-0.0711524
-0.0687498
-0.0661212
-0.0632969
-0.0603081
-0.0571861
-0.0539621
-0.0506662
-0.0473276
-0.043974
-0.0406313
-0.0373238
-0.0340739
-0.0309023
-0.0278276
-0.024867
-0.0220356
-0.0193473
-0.0168139
-0.014446
-0.012252
-0.0102394
-0.00841274
-0.00677562
-0.00532801
-0.00406757
-0.00299065
-0.0020823
-0.00134247
-0.000722902
-0.000253781
-0.152906
-0.16231
-0.167072
-0.168612
-0.169266
-0.170309
-0.171916
-0.173774
-0.175574
-0.17719
-0.178635
-0.179966
-0.181216
-0.18239
-0.183473
-0.184446
-0.185292
-0.185999
-0.186556
-0.18695
-0.187162
-0.18716
-0.186906
-0.186386
-0.185601
-0.184543
-0.183189
-0.181524
-0.179543
-0.177243
-0.174622
-0.171685
-0.16844
-0.164898
-0.161074
-0.156988
-0.152664
-0.148127
-0.143406
-0.138533
-0.13354
-0.128463
-0.123336
-0.118196
-0.113078
-0.108017
-0.103048
-0.0982048
-0.0935187
-0.0890205
-0.0847383
-0.0806984
-0.0769242
-0.0734364
-0.0702531
-0.0673892
-0.0648561
-0.0626616
-0.0608112
-0.0593114
-0.0581678
-0.0573765
-0.056916
-0.0567704
-0.0569186
-0.0573466
-0.0580303
-0.0589417
-0.0600571
-0.061284
-0.0626381
-0.0640678
-0.0655548
-0.0670328
-0.0684853
-0.0698508
-0.0710908
-0.0721719
-0.0730635
-0.0737391
-0.0741763
-0.0743566
-0.0742663
-0.0738968
-0.073245
-0.0723129
-0.071107
-0.0696383
-0.0679212
-0.0659735
-0.0638157
-0.0614702
-0.0589608
-0.0563122
-0.0535496
-0.050698
-0.047782
-0.0448255
-0.0418513
-0.0388811
-0.0359351
-0.0330324
-0.0301905
-0.0274251
-0.024751
-0.022181
-0.0197268
-0.0173981
-0.0152036
-0.0131498
-0.0112423
-0.00948372
-0.00787596
-0.00641757
-0.00510462
-0.00393347
-0.00288758
-0.00197052
-0.001131
-0.000409708
-0.140321
-0.149242
-0.154265
-0.156427
-0.157663
-0.159098
-0.160936
-0.162948
-0.164879
-0.166618
-0.168168
-0.169575
-0.170872
-0.172068
-0.173153
-0.174113
-0.174937
-0.175612
-0.176128
-0.176469
-0.176617
-0.176556
-0.176276
-0.175775
-0.175044
-0.174066
-0.172823
-0.171304
-0.169511
-0.167444
-0.165104
-0.162496
-0.159627
-0.156507
-0.153149
-0.149571
-0.145791
-0.141832
-0.137717
-0.133472
-0.129125
-0.124705
-0.12024
-0.11576
-0.111295
-0.106874
-0.102526
-0.0982799
-0.0941615
-0.0901964
-0.0864085
-0.0828194
-0.0794493
-0.0763159
-0.0734344
-0.0708176
-0.0684757
-0.0664167
-0.0646461
-0.0631652
-0.0619703
-0.0610543
-0.0604089
-0.0600249
-0.0598922
-0.0599862
-0.0602832
-0.0607572
-0.0613719
-0.0621548
-0.0630205
-0.0639452
-0.0649021
-0.0658581
-0.0667844
-0.0676475
-0.0684154
-0.06906
-0.0695564
-0.0698825
-0.0700194
-0.0699518
-0.0696687
-0.069163
-0.0684318
-0.0674759
-0.0662999
-0.0649116
-0.0633218
-0.0615438
-0.0595931
-0.0574869
-0.0552437
-0.0528827
-0.0504238
-0.047887
-0.045292
-0.0426583
-0.0400045
-0.0373486
-0.0347076
-0.0320973
-0.0295327
-0.0270271
-0.024593
-0.0222412
-0.0199817
-0.0178225
-0.0157708
-0.0138315
-0.0120089
-0.0103046
-0.00871934
-0.00725145
-0.00589579
-0.00465049
-0.00349746
-0.00244548
-0.00143949
-0.000529666
-0.128964
-0.13742
-0.142521
-0.145091
-0.146766
-0.148521
-0.150558
-0.152701
-0.154743
-0.156586
-0.158233
-0.159718
-0.161073
-0.162306
-0.163413
-0.164383
-0.165205
-0.165872
-0.166372
-0.166699
-0.166844
-0.1668
-0.16656
-0.166115
-0.165452
-0.164558
-0.163431
-0.162069
-0.160469
-0.158632
-0.156559
-0.154255
-0.151727
-0.148986
-0.146041
-0.142909
-0.139605
-0.136147
-0.132556
-0.128852
-0.12506
-0.121202
-0.117302
-0.113387
-0.10948
-0.105606
-0.101789
-0.0980528
-0.0944197
-0.0909112
-0.0875472
-0.0843461
-0.0813249
-0.0784983
-0.0758792
-0.0734783
-0.0713041
-0.0693624
-0.0676563
-0.0661859
-0.0649494
-0.0639434
-0.0631618
-0.0625953
-0.0622311
-0.0620523
-0.0620402
-0.0621751
-0.0624359
-0.0628046
-0.063252
-0.0637527
-0.0642815
-0.0648127
-0.0653204
-0.065779
-0.0661643
-0.0664536
-0.0666267
-0.0666657
-0.0665556
-0.066284
-0.0658418
-0.065223
-0.0644244
-0.0634461
-0.0622909
-0.060964
-0.0594733
-0.0578287
-0.0560419
-0.054126
-0.0520953
-0.049965
-0.0477508
-0.0454685
-0.0431343
-0.0407639
-0.0383725
-0.0359751
-0.0335858
-0.0312177
-0.0288833
-0.026594
-0.0243601
-0.0221907
-0.0200942
-0.018077
-0.016145
-0.0143022
-0.0125517
-0.0108946
-0.00933067
-0.00785891
-0.0064732
-0.00517404
-0.00394193
-0.00279085
-0.00166248
-0.000615847
-0.118963
-0.126839
-0.13187
-0.134694
-0.136684
-0.138682
-0.140873
-0.143118
-0.145245
-0.147171
-0.148897
-0.150451
-0.151861
-0.153136
-0.154274
-0.155266
-0.156106
-0.156787
-0.157306
-0.157658
-0.157837
-0.157837
-0.157651
-0.15727
-0.156687
-0.155898
-0.154905
-0.153705
-0.152296
-0.150678
-0.148854
-0.146829
-0.144611
-0.142207
-0.139628
-0.136887
-0.133997
-0.130974
-0.127835
-0.124598
-0.121281
-0.117906
-0.114492
-0.11106
-0.107631
-0.104225
-0.100863
-0.0975637
-0.0943471
-0.0912306
-0.0882311
-0.0853641
-0.0826437
-0.0800823
-0.0776905
-0.0754773
-0.0734494
-0.0716115
-0.0699665
-0.0685151
-0.0672562
-0.0661865
-0.0652997
-0.0645875
-0.0640391
-0.0636417
-0.0633812
-0.0632416
-0.0632057
-0.0632558
-0.0633716
-0.0635326
-0.0637177
-0.063906
-0.064077
-0.0642105
-0.0642872
-0.0642895
-0.0642009
-0.0640072
-0.0636961
-0.0632574
-0.0626835
-0.0619689
-0.0611108
-0.0601084
-0.0589634
-0.0576795
-0.0562625
-0.0547196
-0.0530598
-0.0512931
-0.0494307
-0.0474843
-0.0454665
-0.04339
-0.0412675
-0.0391118
-0.0369355
-0.0347506
-0.0325687
-0.0304009
-0.0282573
-0.0261475
-0.0240801
-0.0220626
-0.0201018
-0.0182033
-0.0163718
-0.0146104
-0.0129213
-0.0113058
-0.00976275
-0.00829208
-0.00688699
-0.00555036
-0.00426164
-0.00303949
-0.00182316
-0.000678748
-0.110077
-0.117358
-0.122245
-0.125218
-0.127427