/*--------------------------------*- C++ -*----------------------------------*\
  =========                 |
  \\      /  F ield         | OpenFOAM: The Open Source CFD Toolbox
   \\    /   O peration     | Website:  https://openfoam.org
    \\  /    A nd           | Version:  7
     \\/     M anipulation  |
\*---------------------------------------------------------------------------*/
FoamFile
{
    version     2.0;
    format      ascii;
    class       surfaceScalarField;
    location    "95";
    object      phi;
}
// * * * * * * * * * * * * * * * * * * * * * * * * * * * * * * * * * * * * * //

dimensions      [0 3 -1 0 0 0 0];

internalField   nonuniform List<scalar> 
27710
(
-7.52139e-05
4.74503e-05
2.77635e-05
-0.00022678
0.000102475
4.90905e-05
-0.000424838
0.000142089
5.59686e-05
-0.000653522
0.000171936
5.67486e-05
-0.000905245
0.000197321
5.44017e-05
-0.00117645
0.000223675
4.75284e-05
-0.00146175
0.000253036
3.22677e-05
-0.00174442
0.00027918
3.48367e-06
-0.00205156
0.000351938
-4.47918e-05
0.000362466
-0.000121449
-0.00229258
-7.07954e-05
0.000118246
-0.00021356
0.00024524
-0.000398534
0.000327064
-0.000608888
0.000382291
-0.00083511
0.000423543
-0.00107115
0.000459719
-0.00131347
0.000495348
-0.00152453
0.000490242
-0.00176614
0.000593552
0.000475799
-0.00187947
-6.19463e-05
0.000180192
-0.000187111
0.000370404
-0.000346104
0.000486057
-0.000520298
0.000556485
-0.000696786
0.000600031
-0.000862667
0.000625599
-0.00102108
0.000653758
-0.00109609
0.000565259
-0.00120656
0.000704019
0.000365475
-0.00109624
-5.0317e-05
0.000230509
-0.000151406
0.000471493
-0.000273999
0.00060865
-0.000396568
0.000679054
-0.000502153
0.000705616
-0.000565157
0.000688602
-0.000590022
0.000678623
-0.000475622
0.000450859
-0.000338111
0.000566507
-1.65356e-05
4.38998e-05
-3.79638e-05
0.000268473
-0.000111395
0.000544924
-0.000190206
0.000687461
-0.000248157
0.000737005
-0.000261978
0.000719437
-0.00019931
0.000625935
-3.86764e-06
0.000483181
0.000332835
0.000114156
0.000824643
7.46997e-05
-0.000887963
0.00169607
-2.68719e-05
0.000295345
-7.17779e-05
0.00058983
-0.000101982
0.000717665
-8.44072e-05
0.000719431
2.11703e-05
0.000613859
0.000242597
0.000404508
0.000679089
4.66884e-05
0.00137432
-0.000581078
0.00232276
-0.000873734
-0.0024072
0.003842
-1.84042e-05
0.000313749
-3.54009e-05
0.000606827
-1.22234e-05
0.000694487
9.54602e-05
0.000611747
0.000343844
0.000365476
0.00079518
-4.68273e-05
0.00156628
-0.000724409
0.00266746
-0.00168226
0.0041851
-0.00239138
-0.00454002
0.00631792
-1.29073e-05
0.000326656
-9.8272e-07
0.000594903
8.35635e-05
0.000609941
0.000306758
0.000388553
0.000752498
-8.02638e-05
0.0015149
-0.000809228
0.00268518
-0.00189469
0.00425695
-0.00325404
0.00632367
-0.0044581
-0.00691372
0.00869737
-9.27904e-06
0.000335935
3.39642e-05
0.000551659
0.000199566
0.000444339
0.000581542
6.57587e-06
0.00129478
-0.000793506
0.00244773
-0.00196217
0.00402026
-0.00346722
0.00597561
-0.00520939
0.0083348
-0.00681728
-0.00904291
0.010464
-4.07993e-06
0.000340015
8.13407e-05
0.000466239
0.000359397
0.000166283
0.000962656
-0.000596683
0.00201005
-0.0018409
0.00353802
-0.00349015
0.00540313
-0.00533232
0.00744738
-0.00725365
0.00956763
-0.00893753
-0.0106955
0.0112203
5.28928e-06
0.000334726
0.000152388
0.00031914
0.000589631
-0.00027096
0.001475
-0.00148205
0.00286064
-0.00322655
0.00461497
-0.00524447
0.00650533
-0.00722269
0.0083008
-0.00904911
0.00984631
-0.010483
-0.0118545
0.0110052
2.13669e-05
0.000313359
0.00025891
8.15972e-05
0.000908273
-0.000920323
0.00209238
-0.00266615
0.00369622
-0.0048304
0.00543377
-0.00698202
0.00706268
-0.00885159
0.00840567
-0.0103921
0.00953694
-0.0116143
-0.0128357
0.0105181
4.77502e-05
0.000265609
0.000410472
-0.000281124
0.0013071
-0.00181695
0.00271501
-0.00407406
0.00432557
-0.00644095
0.00582716
-0.00848361
0.00707221
-0.0100966
0.00806318
-0.0113831
0.00892339
-0.0124745
-0.0135783
0.00966604
8.67315e-05
0.000178877
0.000610109
-0.000804502
0.00173469
-0.00294153
0.00320698
-0.00554635
0.00463569
-0.00786967
0.00581448
-0.0096624
0.00673752
-0.0110197
0.00748318
-0.0121287
0.00815377
-0.0131451
-0.0142287
0.00880417
0.000141181
3.76963e-05
0.000844828
-0.00150815
0.00210715
-0.00420385
0.00347938
-0.00691858
0.00464053
-0.00903083
0.00552675
-0.0105486
0.00620876
-0.0117017
0.00678179
-0.0127018
0.00733472
-0.013698
-0.014768
0.00787405
0.000213573
-0.000175877
0.00108139
-0.00237596
0.00235237
-0.00547484
0.00352661
-0.00809282
0.00442121
-0.00992543
0.0050711
-0.0111985
0.00557691
-0.0122075
0.00602627
-0.0131511
0.00646912
-0.0141409
-0.0152107
0.00691182
0.00030134
-0.000477217
0.00127904
-0.00335367
0.00244705
-0.00664284
0.00339233
-0.00903809
0.00405385
-0.010587
0.00452054
-0.0116652
0.00489356
-0.0125805
0.00523775
-0.0134953
0.00558426
-0.0144874
-0.0155597
0.00593326
0.000392694
-0.000869911
0.0014046
-0.00436557
0.00240594
-0.00764418
0.00312788
-0.00976003
0.00359609
-0.0110552
0.00391935
-0.0119885
0.00418381
-0.012845
0.00443428
-0.0137458
0.00468449
-0.0147376
-0.0158084
0.00493314
0.000472329
-0.00134224
0.00144098
-0.00533423
0.00225602
-0.00845922
0.00277727
-0.0102813
0.00308699
-0.0113649
0.00329348
-0.0121949
0.00346279
-0.0130143
0.00362212
-0.0139051
0.00377724
-0.0148927
-0.0159595
0.00392832
0.000527948
-0.00187019
0.00139287
-0.00619915
0.00202542
-0.00909177
0.00237391
-0.0106298
0.00255245
-0.0115434
0.0026585
-0.012301
0.00273838
-0.0130942
0.00280775
-0.0139745
0.00286897
-0.014954
-0.0160134
0.0029229
0.000552121
-0.00242231
0.00128311
-0.00693015
0.00174063
-0.00954928
0.00194135
-0.0108305
0.00200863
-0.0116107
0.00202382
-0.0123162
0.00201701
-0.0130874
0.00199584
-0.0139533
0.00196092
-0.014919
-0.0159723
0.00191983
0.000542236
-0.00296455
0.0011266
-0.00751451
0.00142264
-0.00984532
0.00149558
-0.0109034
0.00146568
-0.0115808
0.0013957
-0.0122462
0.00130372
-0.0129954
0.00119218
-0.0138418
0.00105813
-0.014785
-0.0158282
0.000913965
0.000501054
-0.0034656
0.000937288
-0.00795075
0.00108728
-0.00999531
0.00104855
-0.0108647
0.000930494
-0.0114628
0.000778231
-0.0120939
0.000601973
-0.0128191
0.000400918
-0.0136407
0.000178769
-0.0145628
-0.0155566
-9.2737e-05
0.000435422
-0.00390102
0.000727558
-0.00824288
0.00074678
-0.0100145
0.000608275
-0.0107262
0.000407078
-0.0112616
0.000173108
-0.01186
-8.70846e-05
-0.0125589
-0.000369445
-0.0133584
-0.000687557
-0.0142447
-0.0152056
-0.0010386
0.000353364
-0.00425439
0.000507675
-0.00839719
0.000409359
-0.00991621
0.000178036
-0.0104949
-0.000101647
-0.0109819
-0.000407201
-0.0115544
-0.00074344
-0.0122227
-0.00111467
-0.0129871
-0.00152387
-0.0138355
-0.0147674
-0.0019621
0.000261958
-0.00451634
0.00028678
-0.00842202
7.78165e-05
-0.00970725
-0.000231603
-0.0101855
-0.000581269
-0.0106322
-0.000964193
-0.0111715
-0.00137945
-0.0118074
-0.00183373
-0.0125328
-0.00232562
-0.0133436
-0.014242
-0.00285101
0.000166723
-0.00468307
7.53794e-05
-0.00833067
-0.000233277
-0.00939859
-0.000619751
-0.00979898
-0.00104223
-0.0102097
-0.00149769
-0.010716
-0.00198857
-0.0113166
-0.00252055
-0.0120009
-0.0030925
-0.0127717
-0.0136334
-0.00370109
7.31675e-05
-0.00475623
-0.00013951
-0.008118
-0.000529096
-0.009009
-0.000988565
-0.00933951
-0.00148023
-0.00971807
-0.00200534
-0.0101909
-0.00256793
-0.010754
-0.00317236
-0.0113964
-0.00382027
-0.0121238
-0.0129488
-0.00450483
-1.30244e-05
-0.00474321
-0.000341555
-0.00778947
-0.000809667
-0.00854089
-0.00133527
-0.00881391
-0.00189276
-0.00916057
-0.00248524
-0.00959845
-0.00311701
-0.0101222
-0.00378958
-0.0107238
-0.0044982
-0.0114152
-0.012196
-0.005251
-0.000119073
-0.00462414
-0.000528595
-0.00737994
-0.00107053
-0.00799895
-0.00165822
-0.00822623
-0.00227786
-0.00854093
-0.00293458
-0.00894173
-0.00363315
-0.00942362
-0.00437639
-0.00998061
-0.00516823
-0.0106233
-0.0114227
-0.00594154
-0.000209266
-0.00441487
-0.000701455
-0.00688775
-0.00130956
-0.00739085
-0.00195568
-0.00758011
-0.00263349
-0.00786312
-0.00334975
-0.00822547
-0.00410968
-0.00866369
-0.00491606
-0.00917423
-0.00576985
-0.00976954
-0.0104236
-0.00676899
-0.000290136
-0.00412473
-0.000858863
-0.00631903
-0.00152649
-0.00672322
-0.00222649
-0.00688011
-0.00295821
-0.00713139
-0.00372865
-0.00745503
-0.00454147
-0.00785087
-0.00540059
-0.0083151
-0.00632565
-0.00884448
-0.00939606
-0.00735317
-0.000362166
-0.00376257
-0.000999639
-0.00568155
-0.00172048
-0.00600238
-0.00246944
-0.00613116
-0.00325036
-0.00635047
-0.00407116
-0.00663422
-0.00493837
-0.00698367
-0.00586099
-0.00739248
-0.00685376
-0.00785172
-0.00833955
-0.00791027
-0.000425047
-0.00333752
-0.00112307
-0.00498353
-0.00189096
-0.00523449
-0.00268352
-0.0053386
-0.00350767
-0.00552631
-0.00437132
-0.00577058
-0.00528237
-0.00607262
-0.00625184
-0.00642301
-0.00729136
-0.0068122
-0.00723491
-0.00839599
-0.000477787
-0.00285973
-0.00122846
-0.00423286
-0.0020375
-0.00442545
-0.00286845
-0.00450765
-0.00373114
-0.00466362
-0.00463417
-0.00486755
-0.00558641
-0.00512038
-0.00659745
-0.00541197
-0.00767459
-0.00573506
-0.00609132
-0.00881818
-0.000518908
-0.00234083
-0.00131547
-0.0034363
-0.00215974
-0.00358119
-0.00302294
-0.00364445
-0.00391748
-0.00376908
-0.00485255
-0.00393248
-0.00583778
-0.00413514
-0.00688213
-0.00436762
-0.00799209
-0.0046251
-0.0049124
-0.00917101
-0.000554266
-0.00178656
-0.0013854
-0.00260516
-0.00225792
-0.00270867
-0.00314741
-0.00275496
-0.00406809
-0.0028484
-0.00502945
-0.00297112
-0.00604128
-0.00312331
-0.0071117
-0.00329721
-0.00824712
-0.00348967
-0.00370611
-0.00945342
-0.000581712
-0.00120485
-0.00143822
-0.00174865
-0.00233168
-0.00181522
-0.00324092
-0.00184571
-0.00418121
-0.00190811
-0.00516226
-0.00199007
-0.00619393
-0.00209165
-0.0072838
-0.00220734
-0.00843811
-0.00233536
-0.00247991
-0.0096643
-0.000600238
-0.000604611
-0.00147366
-0.000875222
-0.002381
-0.00090788
-0.00330348
-0.00092323
-0.00425694
-0.000954653
-0.00525115
-0.000995857
-0.00629595
-0.00104685
-0.00739849
-0.0011048
-0.00856499
-0.00116886
-0.00124125
-0.00980366
-0.00060956
4.94953e-06
-0.00149148
6.69426e-06
-0.00240575
6.39399e-06
-0.00333487
5.88656e-06
-0.00429493
5.40805e-06
-0.00529572
4.93632e-06
-0.00634704
4.47636e-06
-0.00745587
4.01842e-06
-0.00862828
3.55799e-06
3.12137e-06
-0.00987265
-0.00060959
0.000614539
-0.00149154
0.000888649
-0.00240585
0.000920703
-0.003335
0.000935035
-0.00429509
0.0009655
-0.00529592
0.00100576
-0.00634727
0.00105583
-0.00745612
0.00111287
-0.00862856
0.001176
0.00124754
-0.00987298
-0.000600327
0.00121487
-0.00147387
0.00176219
-0.00238131
0.00182814
-0.00330389
0.00185761
-0.00425744
0.00191905
-0.00525173
0.00200005
-0.00629661
0.00210071
-0.00739923
0.00221548
-0.00856581
0.00234259
0.00248628
-0.00980455
-0.000581863
0.00179673
-0.00143857
0.0026189
-0.00233219
0.00272177
-0.0032416
0.00276702
-0.00418204
0.00285949
-0.00516323
0.00298124
-0.00619503
0.0031325
-0.00728502
0.00330547
-0.00843945
0.00349702
0.00371257
-0.00966575
-0.000554486
0.00235122
-0.0013859
0.00345031
-0.00225865
0.00359452
-0.00314836
0.00365673
-0.00406925
0.00378038
-0.00503081
0.0039428
-0.00604283
0.00414452
-0.00711341
0.00437606
-0.00824899
0.0046326
0.00491899
-0.00945541
-0.000519234
0.00287045
-0.00131612
0.0042472
-0.00216068
0.00443908
-0.00302417
0.00452022
-0.00391898
0.00467519
-0.0048543
0.00487813
-0.00583977
0.00512998
-0.00688433
0.00542062
-0.00799449
0.00574276
0.00609805
-0.00917354
-0.000478184
0.00334863
-0.00122924
0.00499826
-0.00203865
0.00524849
-0.00286995
0.00535152
-0.00373298
0.00553822
-0.00463632
0.00578147
-0.00558886
0.00608252
-0.00660017
0.00643194
-0.00767754
0.00682013
0.00724179
-0.00882129
-0.000425466
0.0037741
-0.00112398
0.00569677
-0.00189232
0.00601683
-0.00268529
0.00614449
-0.00350985
0.00636278
-0.00437387
0.00664549
-0.00528526
0.00699391
-0.00625504
0.00740171
-0.00729485
0.00785994
0.00834663
-0.00839968
-0.000362626
0.00413672
-0.00100068
0.00633482
-0.00172205
0.0067382
-0.0024715
0.00689394
-0.00325289
0.00714417
-0.00407415
0.00746675
-0.00494178
0.00786154
-0.00586479
0.00832472
-0.00685792
0.00885307
0.00940336
-0.00791465
-0.000290636
0.00442736
-0.00086003
0.00690422
-0.00152827
0.00740644
-0.00222882
0.00759449
-0.00296109
0.00787644
-0.00373205
0.0082377
-0.00454533
0.00867482
-0.00540483
0.00918423
-0.00633023
0.00977846
0.0104313
-0.00735818
-0.000209796
0.00463716
-0.000702746
0.00739717
-0.00131155
0.00801524
-0.00195829
0.00824124
-0.00263672
0.00855487
-0.00335358
0.00895457
-0.00411409
0.00943533
-0.00492102
0.00999116
-0.00577535
0.0106328
0.0114313
-0.00677533
-0.000119617
0.00475677
-0.000530003
0.00780755
-0.00107272
0.00855796
-0.00166111
0.00882963
-0.00228144
0.00917521
-0.00293885
0.00961197
-0.0036381
0.0101346
-0.00438199
0.0107351
-0.00517435
0.0114251
0.0122047
-0.00594773
-1.3666e-05
0.00477044
-0.00034307
0.00813696
-0.00081203
0.00902692
-0.00133842
0.00935602
-0.00189669
0.00973348
-0.00248994
0.0102052
-0.00312246
0.0107671
-0.00379574
0.0114083
-0.00450495
0.0121344
0.012958
-0.00525825
7.27509e-05
0.00469769
-0.000141124
0.00835083
-0.000531603
0.00941739
-0.000991967
0.00981638
-0.00148449
0.010226
-0.00201045
0.0107312
-0.00257389
0.0113305
-0.00317911
0.0120136
-0.00382773
0.012783
0.0136432
-0.00451295
0.000166314
0.00453137
7.39389e-05
0.00844321
-0.000235869
0.0097272
-0.000623373
0.0102039
-0.00104681
0.0106494
-0.00150321
0.0111876
-0.00199506
0.0118224
-0.00252795
0.0125465
-0.00310074
0.0133558
0.0142526
-0.00371013
0.000261647
0.00426973
0.000285298
0.00841956
7.49863e-05
0.00993751
-0.000235388
0.0105143
-0.000586143
0.0110002
-0.000970109
0.0115716
-0.00138648
0.0122388
-0.00184182
0.0130018
-0.00233468
0.0138486
0.0147789
-0.00286099
0.000353243
0.00391648
0.000506328
0.00826647
0.000406635
0.0100372
0.000174004
0.0107469
-0.000106704
0.0112809
-0.000413471
0.0118783
-0.000751007
0.0125763
-0.00112342
0.0133742
-0.00153383
0.014259
0.0152182
-0.00197308
0.000435596
0.00348089
0.000726492
0.00797557
0.00074416
0.0100195
0.000604247
0.0108868
0.000401669
0.0114835
0.000166343
0.0121136
-9.50196e-05
0.0128377
-0.000378838
0.013658
-0.000698463
0.0145786
0.0155703
-0.00105064
0.000501636
0.00297925
0.000936663
0.00754055
0.00108491
0.00987129
0.00104458
0.0109271
0.000925034
0.011603
0.000771266
0.0122674
0.000593334
0.0130156
0.000390683
0.0138607
0.000167263
0.0148021
0.0158432
-0.000105569
0.000543322
0.00243593
0.00112661
0.00695726
0.00142073
0.00957717
0.00149182
0.010856
0.00146024
0.0116346
0.00138854
0.0123391
0.00129472
0.0131094
0.00118127
0.0139741
0.00104523
0.0149381
0.0159893
0.000899061
0.000553737
0.00188219
0.00128398
0.00622702
0.00173947
0.00912168
0.00193806
0.0106575
0.00200337
0.0115693
0.0020166
0.0123259
0.00200768
0.0131183
0.0019842
0.0139976
0.00194687
0.0149754
0.0160326
0.00190361
0.000530018
0.00135218
0.00139482
0.00536222
0.00202537
0.00849112
0.00237141
0.0103114
0.00254764
0.0113931
0.00265142
0.0122221
0.00272884
0.0130409
0.00279549
0.013931
0.00285382
0.0149171
0.0159814
0.00290502
0.000474694
0.000877481
0.00144431
0.00439261
0.00225756
0.00767787
0.00277604
0.00979294
0.00308303
0.0110861
0.00328686
0.0120183
0.00345328
0.0128745
0.00360934
0.0137749
0.00376096
0.0147655
0.0158339
0.00390846
0.000395121
0.00048236
0.00140956
0.00337816
0.0024096
0.00667784
0.00312861
0.00907393
0.00359362
0.0106211
0.00391368
0.0116982
0.00417471
0.0126135
0.00442128
0.0135283
0.00466703
0.0145197
0.0155898
0.00491113
0.000303515
0.000178845
0.00128525
0.00239643
0.00245334
0.00550975
0.00339594
0.00813133
0.00405382
0.00996317
0.00451663
0.0112354
0.00488545
0.0122446
0.00522484
0.0131889
0.00556602
0.0141786
0.0152468
0.00590898
0.000215195
-3.63493e-05
0.00108811
0.00152351
0.00236163
0.00423624
0.00353424
0.00695872
0.00442502
0.00907239
0.00507019
0.0105902
0.0055708
0.011744
0.0060142
0.0127455
0.00645009
0.0137427
0.0148114
0.00688552
0.000142164
-0.000178513
0.000851168
0.000814506
0.00211911
0.00296829
0.00349218
0.00558565
0.00465009
0.00791447
0.00553093
0.0097094
0.00620621
0.0110687
0.00677167
0.0121801
0.00731617
0.0131982
0.0142825
0.00784504
8.72038e-05
-0.000265717
0.000615428
0.000286282
0.00174806
0.00183566
0.0032254
0.00410831
0.00465337
0.0064865
0.00582669
0.00853608
0.00674166
0.0101538
0.00747695
0.0114448
0.00813618
0.0125389
0.013644
0.00877469
4.8061e-05
-0.000313778
0.000415026
-8.06827e-05
0.00132053
0.000930153
0.00273794
0.00269091
0.00435304
0.0048714
0.00585176
0.00703736
0.00708739
0.00891816
0.0080655
0.0104667
0.00890958
0.0116949
0.0129204
0.00963319
2.20579e-05
-0.000335836
0.000264002
-0.000322626
0.000922066
0.000272089
0.00211817
0.0014948
0.00373281
0.00325676
0.00547427
0.00529589
0.00709711
0.00729532
0.00842262
0.00914116
0.00953366
0.0105838
0.0119669
0.0104872
6.92478e-06
-0.00034276
0.000159884
-0.000475585
0.000606162
-0.000174189
0.00150414
0.00059682
0.00290467
0.00185623
0.00467103
0.00352954
0.00656562
0.00540072
0.00834825
0.00735853
0.00986223
0.00906983
0.010856
0.0109731
-7.63924e-09
-0.000342753
9.28853e-05
-0.000568478
0.000381551
-0.000462855
0.000998148
-1.97779e-05
0.00206198
0.000792404
0.00360763
0.00198389
0.00548869
0.00351966
0.00753726
0.00530995
0.00962695
0.00698015
0.00922868
0.0112542
-3.81192e-06
-0.000338941
4.9826e-05
-0.000622116
0.000228632
-0.00064166
0.00062576
-0.000416906
0.00135681
6.13507e-05
0.00253062
0.000810078
0.00412611
0.00192417
0.00610431
0.00333176
0.00846365
0.00462081
0.00712417
0.0105682
-6.31944e-06
-0.000332621
1.77413e-05
-0.000646177
0.000118187
-0.000742106
0.000358754
-0.000657473
0.000824152
-0.000404048
0.00160974
2.44938e-05
0.00280658
0.000727328
0.00441176
0.00172658
0.00650678
0.00252579
0.00475319
0.00887776
-1.07637e-05
-0.000321858
-1.4013e-05
-0.000642928
2.48991e-05
-0.000781018
0.000150727
-0.000783301
0.000419525
-0.000672845
0.00089457
-0.000450552
0.0016948
-7.28995e-05
0.00282935
0.000592027
0.00438563
0.000969501
0.00259689
0.00654193
-1.90986e-05
-0.000302759
-5.10342e-05
-0.000610992
-6.63657e-05
-0.000765687
-3.26757e-05
-0.000816991
9.01013e-05
-0.000795622
0.000336436
-0.000696887
0.000797705
-0.000534168
0.00151913
-0.0001294
0.00250416
-1.55259e-05
0.00104069
0.00406036
-3.0807e-05
-0.000271952
-9.28826e-05
-0.000548917
-0.000159123
-0.000699447
-0.000203631
-0.000772483
-0.000202415
-0.000796839
-0.000126713
-0.000772588
8.0436e-05
-0.000741317
0.000440577
-0.000489541
0.000949676
-0.000524625
0.000154369
0.001836
-4.43316e-05
-0.00022762
-0.000136334
-0.000456914
-0.000249308
-0.000586473
-0.000362161
-0.00065963
-0.000458133
-0.000700867
-0.000512763
-0.000717959
-0.000528771
-0.000725308
-0.000418591
-0.000599721
-0.000279167
-0.000664049
-0.000204734
7.99357e-05
-5.74921e-05
-0.000170128
-0.000176145
-0.000338261
-0.000328574
-0.000434044
-0.000496636
-0.000491568
-0.000667932
-0.00052957
-0.000830906
-0.000554985
-0.000990541
-0.000565673
-0.00107685
-0.000513409
-0.00120848
-0.000532419
-0.000276367
-0.00113685
-6.80676e-05
-0.000102061
-0.000206955
-0.000199373
-0.000388183
-0.000252817
-0.000595308
-0.000284443
-0.00081932
-0.000305558
-0.0010553
-0.000319004
-0.00130153
-0.000319445
-0.00152408
-0.000290862
-0.00178606
-0.000270432
-0.000131345
-0.00193108
-7.42973e-05
-0.00022458
-0.000421428
-0.000649123
-0.000900279
-0.00117175
-0.00145893
-0.00174631
-0.00206153
-0.00231433
-0.00233045
0.00013036
-9.24919e-05
-0.00236501
0.000149242
-0.00011468
-0.00239472
0.000167311
-0.000137604
-0.00242004
0.00018624
-0.000160913
-0.00244149
0.000205571
-0.00018413
-0.00245948
0.000224784
-0.000206787
-0.00247443
0.000243355
-0.000228412
-0.00248665
0.00026074
-0.000248516
-0.00249643
0.000276386
-0.000266602
-0.00250401
0.000289749
-0.000282171
-0.00250958
0.000300301
-0.000294733
-0.0025133
0.000307542
-0.000303818
-0.00251533
0.000311006
-0.000308985
-0.00251576
0.000310265
-0.00030983
-0.00251471
0.00030494
-0.000305994
-0.00251224
0.000294709
-0.000297175
-0.00250842
0.000279312
-0.000283129
-0.0025033
0.000258557
-0.000263681
-0.0024969
0.000232322
-0.000238726
-0.00248922
0.000200562
-0.000208237
-0.00248026
0.000163301
-0.000172263
-0.00246996
0.000120629
-0.000130929
-0.0024582
7.26567e-05
-8.44187e-05
-0.00244457
1.92937e-05
-3.29242e-05
-0.00243025
-3.6274e-05
2.19575e-05
-0.00241491
-9.6316e-05
8.09793e-05
-0.00239848
-0.000159869
0.000143434
-0.00238091
-0.000226092
0.000208524
-0.00236219
-0.000294205
0.000275487
-0.00234232
-0.000363402
0.000343526
-0.00232128
-0.000432841
0.000411801
-0.00229907
-0.000501651
0.00047944
-0.00227567
-0.000568945
0.000545553
-0.00225109
-0.000633829
0.000609242
-0.00222528
-0.000695418
0.00066961
-0.0021982
-0.000752847
0.00072577
-0.00216977
-0.000805283
0.000776853
-0.00213986
-0.000851919
0.000822011
-0.00210832
-0.000891974
0.000860426
-0.00207494
-0.000924697
0.000891321
-0.00203952
-0.000949412
0.000913988
-0.0020018
-0.00096552
0.000927798
-0.00196149
-0.00097251
0.000932205
-0.0019183
-0.000969973
0.000926779
-0.00187191
-0.000957605
0.000911221
-0.0018221
-0.00093521
0.000885399
-0.00176863
-0.000902694
0.000849225
-0.0017113
-0.000860075
0.000802743
-0.00164995
-0.000807489
0.000746141
-0.0015845
-0.000745192
0.000679742
-0.00151493
-0.000673572
0.000604004
-0.00144131
-0.000593152
0.000519528
-0.00136372
-0.000504564
0.000426978
-0.00128229
-0.00040858
0.000327146
-0.00119746
-0.000306187
0.00022136
-0.00110948
-0.000198344
0.000110365
-0.00101969
-8.61212e-05
-3.67814e-06
-0.000929237
2.84038e-05
-0.000118852
-0.000837826
0.000145239
-0.00023665
-0.00074627
0.000263255
-0.000354812
-0.000655243
0.000380991
-0.000472018
-0.000565409
0.000497235
-0.000587069
-0.000476817
0.000610895
-0.000699487
-0.000390419
0.000720806
-0.000807204
-0.000306736
0.000825866
-0.00090955
-0.000225691
0.000924724
-0.00100577
-0.000147231
0.00101663
-0.00109509
-7.11136e-05
0.00110071
-0.00117683
2.67151e-06
0.00117656
-0.00125035
7.56022e-05
0.00124239
-0.00131532
0.000147781
0.00129837
-0.00137055
0.000220179
0.00134361
-0.00141601
0.00029383
0.0013775
-0.00145115
0.000369824
0.00139949
-0.00147548
0.000449269
0.00140915
-0.0014886
0.000533226
0.00140618
-0.00149014
0.00062266
0.00139039
-0.00147982
0.00071839
0.00136175
-0.00145748
0.000821055
0.00132039
-0.00142305
0.000931084
0.0012666
-0.00137663
0.00104868
0.00120088
-0.00131847
0.0011738
0.00112387
-0.00124899
0.00130617
0.0010364
-0.00116877
0.00144529
0.000939465
-0.00107859
0.00159046
0.000834194
-0.000979363
0.00174078
0.000721843
-0.000872165
0.00189518
0.00060378
-0.00075818
0.00205249
0.000481381
-0.00063869
0.00221135
0.000356195
-0.000515055
0.00237046
0.00022946
-0.000388571
0.00252842
0.000102762
-0.000260722
0.00268308
-2.19599e-05
-0.000132694
0.00283274
-0.000144359
-5.2987e-06
0.00297791
-0.000262734
0.000117556
0.00311622
-0.000376324
0.000238015
0.00324636
-0.000484233
0.0003541
0.00336711
-0.000585741
0.000464985
0.00347741
-0.000680291
0.000569995
0.0035763
-0.00076749
0.000668605
0.00366297
-0.0008471
0.000760425
0.00373681
-0.000919025
0.000845189
0.00379736
-0.00098329
0.000922734
0.00384442
-0.00104002
0.000992972
0.00387798
-0.00108943
0.00105586
0.00389833
-0.00113174
0.00111138
0.00390604
-0.00116719
0.00115948
0.00390199
-0.001196
0.00120005
0.00388738
-0.00121828
0.00123289
0.00386375
-0.00123403
0.00125766
0.00383296
-0.00124307
0.00127386
0.00379716
-0.00124504
0.00128084
0.00375874
-0.00123932
0.00127774
0.00372028
-0.00122503
0.00126349
0.00368445
-0.001201
0.00123683
0.00365397
-0.0011658
0.00119628
0.00363145
-0.00111755
0.00114006
0.00361958
-0.00105444
0.00106631
0.00362026
-0.000972333
0.000971658
0.00363734
-0.000875648
0.00085856
-0.000719788
0.000687295
-0.00190412
0.000155004
-0.00192715
0.000172274
-0.0019459
0.000186058
-0.00196079
0.000201132
-0.00197216
0.000216945
-0.00198037
0.00023299
-0.00198576
0.000248747
-0.00198867
0.000263646
-0.00198937
0.000277093
-0.00198813
0.0002885
-0.00198514
0.000297311
-0.0019806
0.000303003
-0.00197468
0.000305086
-0.00196753
0.000303116
-0.00195928
0.000296695
-0.00195006
0.000285486
-0.00193996
0.000269218
-0.00192909
0.000247686
-0.00191753
0.000220763
-0.00190536
0.000188388
-0.00189263
0.000150569
-0.00187937
0.00010737
-0.00186559
5.8874e-05
-0.00185099
4.69772e-06
-0.00183666
-5.06064e-05
-0.00182199
-0.000110988
-0.00180718
-0.000174677
-0.00179234
-0.000240935
-0.00177753
-0.000309007
-0.00176284
-0.000378094
-0.00174832
-0.000447362
-0.00173403
-0.000515944
-0.00172001
-0.00058296
-0.00170631
-0.000647526
-0.00169296
-0.000708769
-0.00167996
-0.00076585
-0.00166727
-0.000817976
-0.00165478
-0.000864402
-0.00164237
-0.000904391
-0.00162982
-0.000937246
-0.00161687
-0.00096236
-0.00160318
-0.000979209
-0.00158835
-0.000987342
-0.00157193
-0.000986395
-0.00155344
-0.000976091
-0.00153241
-0.000956244
-0.00150835
-0.000926757
-0.00148079
-0.000887633
-0.0014493
-0.000838975
-0.0014135
-0.000780996
-0.00137305
-0.000714022
-0.0013277
-0.000638496
-0.00127729
-0.000554978
-0.00122171
-0.000464158
-0.00116103
-0.000366862
-0.00109536
-0.000264015
-0.00102484
-0.000156647
-0.000950508
-4.5927e-05
-0.000872646
6.73773e-05
-0.000791506
0.000182115
-0.000707353
0.000296838
-0.000620511
0.000410393
-0.000531014
0.000521398
-0.00043939
0.000629182
-0.000347014
0.000733491
-0.00025245
0.00083016
-0.00015591
0.00092009
-5.73504e-05
0.00100215
4.42165e-05
0.00107499
0.000148225
0.00113839
0.000255168
0.00119143
0.000365667
0.00123311
0.000480389
0.00126278
0.000599947
0.00127993
0.000724898
0.0012842
0.000855716
0.00127536
0.000992765
0.00125334
0.00113627
0.00121825
0.00128628
0.00117037
0.0014427
0.00111019
0.00160523
0.00103835
0.00177342
0.000955686
0.00194662
0.000863194
0.00212407
0.000762021
0.00230484
0.00065342
0.00248789
0.000538792
0.00267212
0.00041955
0.00285632
0.000297185
0.00303919
0.000173321
0.00321943
4.92253e-05
0.00339494
-7.27538e-05
0.00356548
-0.0001925
0.00372946
-0.000308337
0.00388582
-0.000419089
0.00403332
-0.000523826
0.00417085
-0.000621767
0.0042974
-0.000712288
0.00441204
-0.000794931
0.00451395
-0.000869407
0.00460244
-0.000935584
0.0046769
-0.000993483
0.00473686
-0.00104325
0.00478198
-0.00108515
0.00481208
-0.00111953
0.00482715
-0.0011468
0.00482736
-0.00116741
0.00481315
-0.00118179
0.00478522
-0.00119035
0.0047446
-0.00119341
0.00469268
-0.00119115
0.00463123
-0.0011836
0.00456245
-0.00117054
0.00448895
-0.00115152
0.00441369
-0.00112574
0.00434007
-0.00109219
0.00427164
-0.00104911
0.00421285
-0.000995648
0.00416689
-0.00092637
0.00414216
-0.000850922
-0.000718125
-0.00110804
0.000166808
-0.00111342
0.000177652
-0.00111794
0.000190576
-0.00112005
0.000203247
-0.0011194
0.000216297
-0.00111605
0.000229632
-0.00111013
0.000242828
-0.00110192
0.000255435
-0.00109169
0.000266868
-0.00107968
0.000276488
-0.00106609
0.000283723
-0.00105113
0.000288047
-0.00103501
0.000288962
-0.0010179
0.000286008
-0.000999985
0.000278777
-0.000981422
0.000266923
-0.000962372
0.000250168
-0.000942991
0.000228306
-0.000923442
0.000201214
-0.000903885
0.000168831
-0.00088444
0.000131124
-0.000865171
8.81009e-05
-0.000846008
3.97109e-05
-0.000828559
-1.27513e-05
-0.000810684
-6.84817e-05
-0.000793545
-0.000128127
-0.000777322
-0.0001909
-0.000762164
-0.000256093
-0.000748212
-0.000322959
-0.000735601
-0.000390706
-0.000724457
-0.000458505
-0.000714898
-0.000525504
-0.000707023
-0.000590835
-0.00070091
-0.000653639
-0.00069661
-0.000713069
-0.00069415
-0.000768311
-0.000693541
-0.000818585
-0.0006948
-0.000863143
-0.000697904
-0.000901287
-0.000702674
-0.000932476
-0.000708801
-0.000956233
-0.000715874
-0.000972136
-0.00072339
-0.000979826
-0.000730771
-0.000979013
-0.000737383
-0.00096948
-0.000742544
-0.000951082
-0.000745548
-0.000923752
-0.000745681
-0.0008875
-0.00074224
-0.000842416
-0.000734554
-0.000788683
-0.000722002
-0.000726574
-0.000704033
-0.000656465
-0.000680173
-0.000578839
-0.000650039
-0.000494292
-0.00061336
-0.000403541
-0.000569963
-0.000307411
-0.000519772
-0.000206837
-0.000462727
-0.000102971
-0.000399237
3.88714e-06
-0.00033015
0.000113027
-0.000254833
0.000221522
-0.000173355
0.000328915
-8.62848e-05
0.000434328
6.9379e-06
0.000535959
0.000108746
0.000631683
0.00021534
0.000723566
0.00032687
0.00080856
0.000443381
0.00088564
0.000564679
0.000953697
0.000691231
0.00101183
0.000823456
0.0010592
0.000961576
0.00109499
0.00110576
0.00111859
0.00125614
0.00112956
0.00141275
0.00112759
0.00157556
0.00111255
0.00174444
0.00108446
0.00191915
0.00104354
0.00209931
0.000990207
0.00228444
0.000925056
0.00247393
0.000848862
0.00266703
0.000762583
0.00286291
0.000667316
0.00306065
0.000564278
0.00325925
0.000454817
0.00345773
0.000340311
0.00365503
0.000222256
0.00385004
0.000102172
0.00404092
-1.7559e-05
0.00422659
-0.000136441
0.00440677
-0.000252934
0.00457994
-0.000365675
0.00474504
-0.000473431
0.00490109
-0.000575143
0.00504719
-0.000669928
0.0051825
-0.000757074
0.00530625
-0.000836042
0.00541779
-0.000906468
0.00551653
-0.000968151
0.005602
-0.00102105
0.00567379
-0.00106527
0.00573157
-0.00110104
0.0057751
-0.00112868
0.0058042
-0.00114862
0.00581875
-0.00116135
0.00581874
-0.0011674
0.00580426
-0.00116731
0.00577554
-0.00116163
0.00573303
-0.00115089
0.0056774
-0.00113552
0.00560969
-0.00111589
0.00553132
-0.00109217
0.00544424
-0.00106444
0.00535085
-0.00103235
0.00525436
-0.000995698
0.00515819
-0.00095294
0.00506758
-0.000905042
0.004986
-0.000844789
0.00492326
-0.000788176
-0.000680822
5.41057e-05
0.000156602
5.59659e-05
0.000175791
6.16747e-05
0.000184867
6.97878e-05
0.000195134
7.98179e-05
0.000206267
9.21283e-05
0.000217322
0.000106889
0.000228067
0.000123944
0.00023838
0.000143142
0.000247669
0.000164318
0.000255312
0.000187256
0.000260786
0.00021169
0.000263613
0.000237347
0.000263305
0.000263964
0.000259391
0.000291291
0.000251449
0.000319097
0.000239118
0.000347166
0.000222099
0.000375305
0.000200167
0.000403331
0.000173187
0.000431042
0.00014112
0.000458156
0.00010401
0.000484395
6.18616e-05
0.000509751
1.43557e-05
0.000533419
-3.64193e-05
0.000556172
-9.12352e-05
0.000577548
-0.000149502
0.000597277
-0.000210629
0.000615135
-0.000273952
0.000630919
-0.000338742
0.000644431
-0.000404218
0.00065548
-0.000469555
0.000663885
-0.000533908
0.000669479