/*--------------------------------*- C++ -*----------------------------------*\
  =========                 |
  \\      /  F ield         | OpenFOAM: The Open Source CFD Toolbox
   \\    /   O peration     | Website:  https://openfoam.org
    \\  /    A nd           | Version:  7
     \\/     M anipulation  |
\*---------------------------------------------------------------------------*/
FoamFile
{
    version     2.0;
    format      ascii;
    class       volVectorField;
    location    "95";
    object      U;
}
// * * * * * * * * * * * * * * * * * * * * * * * * * * * * * * * * * * * * * //

dimensions      [0 1 -1 0 0 0 0];

internalField   nonuniform List<vector> 
14000
(
(-0.00739517 0.0011899 -4.75962e-22)
(-0.0295044 0.00253286 9.66339e-22)
(-0.0611796 0.00309716 6.21237e-20)
(-0.0905155 0.00326204 1.08202e-20)
(-0.116846 0.00326666 2.10902e-20)
(-0.139986 0.00349257 -1.21979e-20)
(-0.159663 0.00420117 -2.25592e-20)
(-0.174937 0.00529571 2.18641e-20)
(-0.188537 0.00872805 2.13898e-20)
(-0.193572 0.0108852 1.6746e-20)
(-0.00828633 0.011305 -7.86164e-20)
(-0.0302767 0.0202745 5.20407e-20)
(-0.0604988 0.0226511 -7.09086e-20)
(-0.0877607 0.0222729 3.71967e-21)
(-0.111436 0.0207902 -5.04284e-20)
(-0.131352 0.0192046 6.15991e-21)
(-0.147571 0.0179412 3.23049e-20)
(-0.157209 0.0154673 -1.41569e-19)
(-0.167596 0.0187562 3.47594e-20)
(-0.164038 0.0133412 1.11412e-22)
(-0.0101753 0.0203343 1.46094e-19)
(-0.0319814 0.036344 -1.30621e-20)
(-0.0592672 0.0404703 9.83189e-20)
(-0.0823373 0.0395952 -9.22932e-21)
(-0.100673 0.0366844 -1.07163e-19)
(-0.113919 0.033291 7.89918e-20)
(-0.123699 0.0305718 -3.39322e-20)
(-0.120874 0.023676 3.42308e-20)
(-0.126231 0.0288164 -1.02527e-19)
(-0.104337 0.013317 1.44659e-19)
(-0.0128752 0.0276704 1.70514e-20)
(-0.0345408 0.0497126 -2.32292e-19)
(-0.0576512 0.055417 -1.3811e-19)
(-0.0745767 0.0540777 7.26007e-20)
(-0.0850535 0.0498492 8.62035e-20)
(-0.0876941 0.044692 -1.43105e-19)
(-0.0885672 0.0408659 6.10958e-20)
(-0.0643705 0.0296777 4.05638e-20)
(-0.0630937 0.0376165 1.61097e-19)
(-0.00863945 0.0149022 -2.07234e-19)
(-0.0161654 0.0329778 -7.33865e-20)
(-0.0378129 0.0596195 1.14302e-19)
(-0.0557463 0.0665037 3.34242e-19)
(-0.0646474 0.0646188 -1.66507e-19)
(-0.0647981 0.0591048 1.5439e-19)
(-0.0524256 0.0525786 2.58779e-19)
(-0.0407849 0.0455677 -7.48048e-21)
(0.013572 0.0352825 7.46414e-21)
(0.0240448 0.0420402 -2.37685e-19)
(0.133527 0.0232075 1.11144e-19)
(-0.0198499 0.0362178 -1.73693e-19)
(-0.0415553 0.0656364 1.02883e-19)
(-0.0533791 0.0729898 -4.66091e-19)
(-0.0521846 0.0703028 2.2665e-19)
(-0.0387892 0.063273 3.14811e-20)
(-0.00730663 0.0565014 -2.92183e-19)
(0.0252288 0.0439481 -8.54986e-20)
(0.122224 0.0414576 8.47543e-20)
(0.137477 0.0366688 1.60046e-19)
(0.339599 0.0351433 -8.86146e-20)
(-0.0237894 0.037603 -1.90013e-20)
(-0.0453269 0.0676712 -3.237e-19)
(-0.0497645 0.0744951 3.19671e-19)
(-0.0357134 0.0705946 -2.29457e-19)
(-0.00344416 0.0621499 5.68881e-20)
(0.0539649 0.0563987 1.89429e-19)
(0.118295 0.0383071 -3.47016e-19)
(0.267885 0.0484986 -1.44022e-19)
(0.296739 0.0299293 1.21794e-19)
(0.598822 0.0476101 7.03903e-20)
(-0.0278923 0.037491 1.90461e-19)
(-0.0483162 0.0659016 5.58504e-19)
(-0.0430423 0.0711229 -5.38961e-19)
(-0.0114064 0.0656826 1.3166e-19)
(0.0479036 0.0565655 3.28769e-19)
(0.141826 0.0526663 -1.67255e-19)
(0.256473 0.0365449 -5.27296e-20)
(0.448152 0.0544263 -1.94498e-19)
(0.527803 0.0393155 2.31741e-19)
(0.861638 0.0693594 -1.61518e-19)
(-0.0320491 0.0362377 -3.49319e-19)
(-0.0492003 0.0607927 9.66186e-20)
(-0.0297635 0.0634502 2.01534e-19)
(0.0275243 0.0567257 -1.00291e-19)
(0.126387 0.0491386 -3.37872e-19)
(0.269696 0.0486316 3.99022e-19)
(0.447026 0.0484075 2.51858e-19)
(0.655792 0.0633626 2.25605e-19)
(0.807365 0.0698073 -1.83216e-19)
(1.07212 0.0975726 1.38097e-19)
(-0.0359075 0.0340499 -8.68102e-20)
(-0.0459787 0.0529002 -2.82492e-19)
(-0.00472287 0.0525766 -1.67684e-19)
(0.0907888 0.0464294 1.96659e-19)
(0.244305 0.0452361 3.77813e-20)
(0.446004 0.0534463 -2.34803e-19)
(0.669441 0.0725399 2.7274e-19)
(0.876019 0.0866193 -3.81522e-19)
(1.0481 0.111805 -2.14054e-19)
(1.19293 0.118518 7.44913e-20)
(-0.0387745 0.0309791 2.12013e-19)
(-0.0356641 0.0427488 2.97772e-19)
(0.03901 0.0403692 1.23676e-19)
(0.189121 0.0394296 1.72255e-19)
(0.40722 0.0514896 -9.98998e-20)
(0.656307 0.0751606 -2.54245e-19)
(0.885623 0.104483 1.00827e-19)
(1.06514 0.122106 1.23192e-19)
(1.18534 0.14515 4.08952e-19)
(1.23023 0.122679 -2.40367e-19)
(-0.0396706 0.0269991 3.16387e-19)
(-0.0142983 0.0308959 -3.85941e-20)
(0.109465 0.0298762 2.85219e-19)
(0.328954 0.0421936 -1.2674e-19)
(0.603148 0.0728515 3.86027e-19)
(0.862203 0.109749 1.52253e-19)
(1.05746 0.139544 1.87913e-19)
(1.18054 0.154543 -3.06977e-19)
(1.23328 0.158508 -1.25097e-19)
(1.25853 0.144695 1.19869e-19)
(-0.0372966 0.0219853 2.28034e-20)
(0.0229328 0.0182593 -2.78831e-19)
(0.213784 0.026159 -2.64563e-19)
(0.503746 0.0601761 -6.66766e-20)
(0.800163 0.107413 -1.05331e-19)
(1.02681 0.147233 1.1416e-19)
(1.16485 0.169931 -4.71739e-19)
(1.22971 0.173939 3.14353e-19)
(1.25335 0.172369 -3.31638e-21)
(1.25766 0.154545 -3.69115e-19)
(-0.0299546 0.0158549 -4.51454e-19)
(0.08144 0.00702059 -9.21017e-20)
(0.353279 0.0354695 -9.74617e-21)
(0.689937 0.0929222 2.8488e-20)
(0.965411 0.146798 1.48632e-19)
(1.13627 0.180194 -4.62355e-19)
(1.21903 0.191593 4.51003e-19)
(1.24963 0.189694 -9.92031e-20)
(1.25274 0.180625 5.78189e-20)
(1.247 0.163615 9.49292e-20)
(-0.0155479 0.00880587 1.20466e-20)
(0.165885 0.00185084 3.70142e-19)
(0.516843 0.0610991 9.391e-20)
(0.858896 0.133934 -5.03522e-20)
(1.08521 0.184021 -4.20829e-20)
(1.19975 0.206565 2.69252e-19)
(1.2433 0.209165 -1.17863e-21)
(1.25096 0.201396 1.95506e-19)
(1.2451 0.188816 -6.08956e-20)
(1.23876 0.173382 -2.87362e-21)
(0.00869289 0.00163956 7.37721e-20)
(0.277005 0.00946109 -1.34374e-19)
(0.682442 0.100192 1.05553e-19)
(0.994137 0.176721 1.39174e-19)
(1.16368 0.216951 -9.12987e-20)
(1.23247 0.228672 -1.52658e-20)
(1.24882 0.223669 -2.62309e-19)
(1.24472 0.212242 -1.71171e-19)
(1.23535 0.196839 2.08855e-19)
(1.22533 0.18186 -1.30896e-19)
(0.0456283 -0.00346394 9.54908e-20)
(0.408122 0.0346303 1.7026e-19)
(0.830255 0.146957 1.19432e-19)
(1.09321 0.218267 -1.79988e-19)
(1.21039 0.246266 2.12061e-19)
(1.2448 0.247834 -1.12073e-19)
(1.24475 0.237148 -2.79439e-20)
(1.23432 0.222437 -9.99988e-21)
(1.22274 0.204972 -5.91408e-20)
(1.21328 0.190915 1.88607e-20)
(0.0966219 -0.00298427 2.42523e-19)
(0.545828 0.0764316 -1.3457e-19)
(0.951124 0.197091 8.41679e-20)
(1.16026 0.257666 9.81007e-20)
(1.23386 0.272743 -6.98134e-20)
(1.24461 0.265532 1.05536e-19)
(1.23478 0.25005 3.82844e-20)
(1.22137 0.232576 5.07304e-20)
(1.20973 0.21357 3.217e-20)
(1.19906 0.199199 5.12866e-20)
(0.160466 0.00663511 -8.93828e-20)
(0.675801 0.130153 -1.30833e-19)
(1.04358 0.248258 -1.02303e-19)
(1.20105 0.294643 -9.6797e-20)
(1.2409 0.297217 -4.24215e-20)
(1.23617 0.282394 4.64873e-20)
(1.22123 0.262838 -2.28413e-20)
(1.20675 0.242685 -2.63825e-22)
(1.19482 0.2221 -2.08995e-20)
(1.18452 0.207052 3.74654e-21)
(0.233286 0.0274308 2.39252e-20)
(0.787915 0.190949 -5.20599e-21)
(1.10926 0.299075 2.30759e-20)
(1.22107 0.329341 1.80269e-20)
(1.23614 0.320213 1.3461e-20)
(1.22214 0.298811 -3.59651e-20)
(1.20484 0.275439 1.65467e-20)
(1.19021 0.252588 -1.60838e-20)
(1.17898 0.230444 -5.11292e-21)
(1.16893 0.21402 -8.33082e-21)
(0.309497 0.0593619 1.24333e-21)
(0.877557 0.255128 -7.22453e-22)
(1.15081 0.34852 -4.98946e-21)
(1.22475 0.361949 5.99572e-20)
(1.22272 0.342037 -1.6198e-20)
(1.20376 0.314723 -1.50774e-20)
(1.18593 0.287672 1.94587e-21)
(1.17196 0.262049 -1.57071e-21)
(1.16143 0.238065 -5.86015e-21)
(1.15228 0.220031 -1.2059e-20)
(0.383034 0.100808 -1.02939e-19)
(0.943784 0.32011 1.94462e-20)
(1.17126 0.395763 -1.65519e-19)
(1.21542 0.392421 -5.78097e-20)
(1.20252 0.362655 -1.7598e-20)
(1.18168 0.329893 -2.19437e-21)
(1.16457 0.299184 -1.14148e-20)
(1.1518 0.270728 -5.99496e-21)
(1.14252 0.24484 5.79746e-21)
(1.13406 0.224973 8.27563e-21)
(0.448351 0.149453 1.77612e-19)
(0.987019 0.383823 -9.03995e-20)
(1.17343 0.439899 1.25652e-19)
(1.19545 0.420501 4.97326e-20)
(1.1767 0.381792 -1.71756e-20)
(1.1562 0.343877 5.67231e-20)
(1.14079 0.309531 -1.44265e-20)
(1.12992 0.278329 1.5953e-20)
(1.12196 0.250719 3.26351e-21)
(1.11415 0.228761 4.62597e-21)
(0.501169 0.202708 -1.08797e-19)
(1.00856 0.444483 4.11268e-19)
(1.15987 0.480088 -7.55e-20)
(1.16656 0.445748 -4.17124e-20)
(1.14601 0.398927 8.70154e-20)
(1.12764 0.356144 -3.59589e-20)
(1.11478 0.318235 -1.22422e-20)
(1.10628 0.284503 -7.77636e-21)
(1.09977 0.255623 2.45916e-21)
(1.09334 0.231366 -1.09979e-20)
(0.538792 0.257802 -1.97213e-19)
(1.01013 0.500442 -2.19405e-19)
(1.13264 0.515413 1.33499e-19)
(1.13017 0.467513 3.67907e-20)
(1.11115 0.413385 -4.23906e-20)
(1.09635 0.366144 -4.01197e-21)
(1.08676 0.324926 1.89819e-20)
(1.08082 0.289018 7.63044e-21)
(1.07596 0.258927 -2.27959e-20)
(1.07191 0.232622 -2.17857e-21)
(0.560078 0.311848 6.78406e-20)
(0.993636 0.55014 2.81359e-19)
(1.09352 0.544845 -5.6788e-20)
(1.08766 0.484976 4.33271e-21)
(1.07279 0.424451 -3.03153e-21)
(1.06252 0.373264 -4.08656e-22)
(1.05677 0.329302 1.43913e-20)
(1.05366 0.291544 -1.31261e-20)
(1.05108 0.260352 2.11379e-20)
(1.04989 0.232434 -2.03086e-20)
(0.565226 0.362065 -5.01422e-19)
(0.960851 0.591949 2.40594e-20)
(1.04458 0.567387 -1.03752e-19)
(1.04015 0.497106 1.08e-20)
(1.03126 0.431479 -1.41966e-21)
(1.0264 0.377 6.18497e-20)
(1.02511 0.33087 -4.965e-20)
(1.02533 0.291755 2.8658e-20)
(1.0257 0.259611 -2.72222e-20)
(1.028 0.230731 -9.1401e-20)
(0.555307 0.406167 2.54546e-19)
(0.913332 0.62379 -2.36345e-19)
(0.988128 0.582174 -1.64273e-20)
(0.988617 0.50311 -1.11569e-21)
(0.987164 0.433699 9.42554e-20)
(0.988543 0.37681 -1.00949e-20)
(0.992193 0.329218 7.36166e-20)
(0.996381 0.289252 8.60516e-21)
(1.00069 0.256525 6.03468e-21)
(1.00709 0.227606 1.27693e-19)
(0.531441 0.442459 1.39779e-19)
(0.85357 0.644087 -1.89517e-20)
(0.926181 0.58796 -8.71587e-21)
(0.934132 0.502529 7.31151e-20)
(0.941244 0.430571 -3.18281e-20)
(0.94942 0.372203 -1.11937e-19)
(0.958504 0.323817 -7.20033e-20)
(0.967432 0.283446 7.06829e-21)
(0.976736 0.250574 9.8956e-20)
(0.987517 0.223414 -8.09611e-20)
(0.494814 0.468383 -1.44799e-20)
(0.785602 0.652501 -2.68168e-20)
(0.86061 0.583832 -1.01551e-19)
(0.877846 0.494809 4.24561e-21)
(0.894287 0.421664 1.5229e-19)
(0.909679 0.362831 -4.85629e-20)
(0.924598 0.314331 1.82066e-19)
(0.938885 0.273767 -2.51577e-19)
(0.953752 0.240493 -1.69291e-19)
(0.968136 0.216975 -3.664e-20)
(0.447764 0.480689 3.9964e-20)
(0.711969 0.647494 5.47338e-20)
(0.792953 0.569687 3.55993e-20)
(0.820953 0.479506 -5.40582e-20)
(0.847177 0.406697 -2.29406e-19)
(0.870049 0.348511 2.16237e-19)
(0.891121 0.300778 8.39281e-20)
(0.910967 0.260618 1.08837e-19)
(0.931069 0.225826 3.12288e-19)
(0.94631 0.199669 -7.59045e-20)
(0.394453 0.47902 1.32614e-19)
(0.635669 0.628638 -2.3558e-20)
(0.725094 0.545328 -5.79969e-20)
(0.764712 0.456366 1.13274e-19)
(0.800879 0.385478 2.02476e-19)
(0.83137 0.329099 -4.80793e-19)
(0.858785 0.283144 -7.48543e-20)
(0.883903 0.244982 -1.95645e-19)
(0.907103 0.212751 3.95801e-20)
(0.921872 0.187923 -1.42158e-19)
(0.33804 0.462992 -2.68687e-19)
(0.559362 0.595592 -1.20859e-19)
(0.658826 0.510818 4.03157e-19)
(0.710414 0.425391 -2.31291e-19)
(0.756392 0.358014 -3.34022e-19)
(0.794438 0.304549 3.13535e-19)
(0.828152 0.260943 -2.87469e-19)
(0.858384 0.224496 1.43043e-19)
(0.884921 0.193622 -1.78116e-19)
(0.901834 0.170079 2.81924e-19)
(0.281657 0.433034 -1.0887e-19)
(0.485843 0.548733 5.98228e-19)
(0.595957 0.466428 -6.23093e-19)
(0.65935 0.386799 2.61224e-20)
(0.714725 0.324553 2.03535e-19)
(0.759955 0.275362 -1.25032e-20)
(0.799384 0.235493 4.39549e-19)
(0.833771 0.202389 -3.83479e-19)
(0.863042 0.174332 2.79654e-19)
(0.883063 0.152302 -1.89188e-19)
(0.228122 0.390166 -1.78042e-19)
(0.417627 0.488794 9.73112e-20)
(0.538213 0.41267 2.68178e-19)
(0.612785 0.340988 3.08525e-19)
(0.67692 0.285309 -7.0862e-20)
(0.728876 0.241359 2.92928e-19)
(0.773624 0.205751 2.4516e-20)
(0.811831 0.176236 3.17098e-20)
(0.843792 0.151413 -1.125e-19)
(0.866866 0.132028 -6.08538e-21)
(0.179841 0.335957 5.37158e-19)
(0.35697 0.416975 -3.72892e-19)
(0.487256 0.350331 -4.98364e-19)
(0.571883 0.288667 2.79545e-20)
(0.643782 0.241026 -1.46641e-19)
(0.701612 0.203534 1.22548e-19)
(0.750891 0.173241 -4.48474e-19)
(0.792353 0.148135 1.32354e-19)
(0.826902 0.126924 3.76879e-19)
(0.853079 0.110187 -1.82315e-19)
(0.138692 0.272081 7.27874e-20)
(0.305897 0.335033 4.63459e-19)
(0.444669 0.280482 3.34888e-19)
(0.537789 0.230626 -3.13301e-19)
(0.61626 0.192201 1.95641e-19)
(0.679041 0.162003 -8.86472e-20)
(0.732077 0.137653 -5.77656e-20)
(0.776209 0.117526 -2.74653e-20)
(0.81299 0.100522 -1.16517e-19)
(0.841944 0.0869792 2.15213e-19)
(0.106235 0.200176 -3.59416e-19)
(0.266071 0.245005 -4.19082e-19)
(0.41166 0.204579 -6.77886e-21)
(0.511384 0.167979 2.98502e-19)
(0.594969 0.139815 -5.47194e-20)
(0.661583 0.117708 -5.92655e-20)
(0.7175 0.0998999 8.61271e-20)
(0.763688 0.0851822 -4.65147e-20)
(0.802273 0.072718 -3.71757e-20)
(0.833534 0.06271 3.86366e-20)
(0.0838164 0.122281 5.22556e-20)
(0.238802 0.149058 -6.87257e-20)
(0.389162 0.124234 2.96515e-19)
(0.493403 0.101908 -7.2759e-20)
(0.580487 0.0847427 1.37317e-19)
(0.649717 0.0712835 -3.68917e-20)
(0.707584 0.0604546 -5.75734e-20)
(0.755163 0.0515109 9.22694e-20)
(0.795004 0.0439186 1.28301e-20)
(0.827927 0.0377776 -3.32636e-20)
(0.0723905 0.0406973 -1.41547e-21)
(0.224981 0.0494931 1.85986e-21)
(0.377796 0.0411843 1.37821e-19)
(0.484327 0.0337516 -6.88946e-20)
(0.573183 0.0280457 3.16103e-20)
(0.643736 0.0235795 -1.6751e-20)
(0.702584 0.0199918 1.99832e-20)
(0.750862 0.0170322 -2.62646e-20)
(0.791346 0.0145177 -1.60111e-20)
(0.825137 0.0124767 5.81192e-24)
(0.0724457 -0.0421318 1.41002e-21)
(0.225061 -0.0512891 -1.85845e-21)
(0.377876 -0.0427724 -1.37762e-19)
(0.484401 -0.0351052 -2.45639e-20)
(0.573251 -0.0291971 -4.16809e-20)
(0.643799 -0.0245524 2.23153e-20)
(0.702641 -0.0208084 3.5416e-20)
(0.750915 -0.0177107 -3.25587e-20)
(0.791395 -0.0150734 -2.85632e-20)
(0.825179 -0.0129287 -1.96297e-20)
(0.0839825 -0.123716 1.66965e-19)
(0.239043 -0.15085 -1.18708e-19)
(0.389402 -0.125815 1.69104e-19)
(0.493625 -0.103254 -2.34708e-21)
(0.580692 -0.085886 9.868e-20)
(0.649905 -0.0722482 -8.12552e-21)
(0.707756 -0.0612632 -4.99833e-20)
(0.755322 -0.0521816 2.0211e-19)
(0.795149 -0.0444677 -4.74242e-20)
(0.828047 -0.0382256 -1.24558e-21)
(0.106513 -0.201611 -3.58306e-19)
(0.266474 -0.24679 4.17601e-20)
(0.412061 -0.206147 -2.27743e-19)
(0.511755 -0.16931 2.10906e-20)
(0.595311 -0.140942 1.96523e-19)
(0.661896 -0.118657 -1.32902e-19)
(0.717787 -0.100692 5.27932e-20)
(0.763953 -0.0858363 -4.92997e-20)
(0.802513 -0.0732511 1.30933e-19)
(0.833735 -0.0631437 -1.74215e-19)
(0.139086 -0.273516 -5.68098e-21)
(0.306465 -0.336806 5.13319e-19)
(0.445234 -0.282027 2.79926e-19)
(0.538309 -0.231933 -1.36314e-19)
(0.61674 -0.193303 -1.6048e-19)
(0.679479 -0.162926 2.40494e-19)
(0.732478 -0.138419 -9.2304e-20)
(0.776578 -0.118155 -5.77548e-20)
(0.813325 -0.101031 -1.92721e-19)
(0.842226 -0.0873908 2.45943e-19)
(0.180356 -0.337395 1.57276e-19)
(0.357706 -0.418729 -2.27652e-19)
(0.487986 -0.351845 -6.28458e-19)
(0.572554 -0.289942 2.98981e-19)
(0.644399 -0.242096 -2.66501e-19)
(0.702175 -0.204425 -3.76933e-19)
(0.751406 -0.173975 2.90796e-20)
(0.792825 -0.148732 -1.22009e-20)
(0.827331 -0.127401 2.74688e-19)
(0.853442 -0.110568 -1.28174e-19)
(0.228768 -0.391607 2.6639e-19)
(0.418537 -0.490519 -1.52522e-19)
(0.53911 -0.414145 7.75814e-19)
(0.613607 -0.342222 -3.62935e-19)
(0.677676 -0.286336 -3.55814e-20)
(0.729565 -0.242206 4.13572e-19)
(0.774251 -0.206439 1.27305e-19)
(0.812404 -0.176787 -1.06067e-19)
(0.844312 -0.151844 -1.77467e-19)
(0.867309 -0.132366 9.5343e-20)
(0.282442 -0.434471 -4.83279e-21)
(0.486934 -0.550422 4.06661e-19)
(0.597022 -0.467855 -4.45832e-19)
(0.660323 -0.387982 3.06207e-19)
(0.71562 -0.325529 -7.54401e-20)
(0.760769 -0.276159 -2.47784e-19)
(0.800123 -0.236134 4.07468e-19)
(0.834444 -0.202896 1.57102e-19)
(0.863654 -0.17472 -1.36461e-19)
(0.883588 -0.152594 -6.88634e-20)
(0.338973 -0.464416 -1.36428e-19)
(0.56064 -0.597237 -6.40632e-19)
(0.660061 -0.512189 6.22483e-19)
(0.711541 -0.426515 -1.65582e-19)
(0.757425 -0.358929 -3.6191e-19)
(0.795378 -0.305282 1.74134e-19)
(0.829004 -0.261519 3.55852e-20)
(0.859158 -0.224931 1.91112e-19)
(0.885622 -0.193932 -2.20532e-19)
(0.902436 -0.170293 1.47367e-19)
(0.39554 -0.480419 2.35994e-19)
(0.637141 -0.63023 -4.92453e-20)
(0.726503 -0.546632 -2.20696e-19)
(0.765994 -0.457419 8.95383e-20)
(0.802052 -0.386321 3.45147e-19)
(0.832435 -0.329762 -3.82323e-19)
(0.859748 -0.283652 -2.46362e-19)
(0.884771 -0.245357 -2.00445e-19)
(0.907889 -0.213014 1.61546e-19)
(0.92256 -0.188101 -1.20817e-19)
(0.449008 -0.482054 -5.36895e-20)
(0.71364 -0.649023 9.27887e-20)
(0.794538 -0.570915 5.59881e-20)
(0.82239 -0.480477 -1.46207e-19)
(0.84849 -0.407459 -2.4019e-20)
(0.871239 -0.349092 2.12605e-19)
(0.892195 -0.301204 -2.19506e-19)
(0.911933 -0.260907 3.10498e-19)
(0.931946 -0.225986 1.54541e-19)
(0.947091 -0.199712 -5.32234e-20)
(0.496216 -0.469699 -3.72072e-21)
(0.787476 -0.653956 -2.83448e-20)
(0.862373 -0.584973 -9.0049e-20)
(0.879439 -0.495686 -6.15218e-20)
(0.895739 -0.422333 5.99452e-20)
(0.910994 -0.36332 1.56601e-19)
(0.925783 -0.314665 -6.74819e-20)
(0.939947 -0.273968 -8.15923e-20)
(0.954705 -0.240582 -2.9953e-19)
(0.968993 -0.216977 1.6947e-19)
(0.533009 -0.44372 1.8731e-19)
(0.855651 -0.645461 1.82346e-20)
(0.928123 -0.588999 -2.88022e-20)
(0.935881 -0.503301 4.88103e-20)
(0.942833 -0.431136 -1.46917e-19)
(0.950858 -0.37259 -7.60829e-20)
(0.9598 -0.324052 -9.74782e-20)
(0.968589 -0.283554 1.7782e-19)
(0.977759 -0.250579 7.25622e-20)
(0.988426 -0.223331 -6.91529e-20)
(0.55703 -0.407347 9.94995e-20)
(0.915624 -0.62507 -1.44394e-19)
(0.990249 -0.583103 -2.06068e-20)
(0.99052 -0.503766 6.36524e-21)
(0.98889 -0.43415 3.5994e-20)
(0.990103 -0.377085 -9.36188e-21)
(0.993597 -0.329343 1.77094e-19)
(0.997631 -0.289253 -1.45499e-19)
(1.00178 -0.256427 -1.08995e-20)
(1.00804 -0.227417 1.98505e-19)
(0.567085 -0.363151 -3.73458e-19)
(0.96336 -0.59313 -1.0854e-19)
(1.04689 -0.568194 -1.03269e-20)
(1.04221 -0.497641 -8.61292e-22)
(1.03312 -0.431806 6.28645e-21)
(1.02808 -0.377153 7.88519e-20)
(1.02662 -0.330875 -1.15238e-19)
(1.02667 -0.291636 2.68282e-20)
(1.02687 -0.259394 -3.28711e-20)
(1.02902 -0.230425 -5.37292e-20)
(0.562054 -0.312831 9.03408e-21)
(0.996358 -0.551214 2.95114e-19)
(1.09602 -0.545528 3.10431e-20)
(1.08986 -0.485378 -1.69717e-20)
(1.07478 -0.424641 -2.66945e-22)
(1.06432 -0.373284 3.3429e-21)
(1.05838 -0.329176 1.94578e-20)
(1.05509 -0.291292 -2.82732e-20)
(1.05233 -0.260005 3.97865e-21)
(1.05096 -0.232003 -1.86388e-21)
(0.54086 -0.25867 7.39318e-20)
(1.01306 -0.50141 -1.38121e-19)
(1.13533 -0.515968 4.87982e-20)
(1.13252 -0.467773 6.32322e-20)
(1.11327 -0.413431 -4.5655e-20)
(1.09826 -0.366021 -3.44042e-21)
(1.08847 -0.32466 -1.23347e-20)
(1.08234 -0.288624 1.4997e-20)
(1.07728 -0.25844 -2.14854e-20)
(1.07304 -0.232056 2.12782e-20)
(0.503289 -0.203451 1.01681e-19)
(1.01169 -0.445352 1.75003e-19)
(1.16278 -0.480517 9.96673e-20)
(1.16908 -0.44586 -1.07507e-19)
(1.14826 -0.39882 9.83035e-20)
(1.12966 -0.355873 -4.21752e-20)
(1.1166 -0.317819 -5.87447e-21)
(1.10789 -0.283953 -5.33404e-21)
(1.10117 -0.254984 1.73982e-21)
(1.09453 -0.230651 -1.19327e-20)
(0.450467 -0.150062 2.61721e-19)
(0.990343 -0.3846 -1.37683e-19)
(1.17655 -0.440208 7.87367e-20)
(1.19813 -0.420465 7.25972e-20)
(1.17908 -0.381529 -3.20419e-20)
(1.15834 -0.34345 4.92733e-20)
(1.14271 -0.308954 1.50812e-20)
(1.13162 -0.277617 1.57801e-20)
(1.12344 -0.249911 8.73903e-21)
(1.11539 -0.227875 3.63456e-21)
(0.38507 -0.101277 -9.57564e-20)
(0.947293 -0.320806 -1.33204e-19)
(1.17459 -0.395967 -8.79893e-20)
(1.21829 -0.392247 -8.0631e-20)
(1.20504 -0.362237 -2.81734e-20)
(1.18394 -0.329303 3.67016e-20)
(1.16659 -0.298438 -1.4775e-20)
(1.1536 -0.269842 2.98316e-21)
(1.14406 -0.243843 -7.95568e-21)
(1.13535 -0.223891 4.80284e-21)
(0.311365 -0.0596853 2.47896e-20)
(0.881231 -0.255752 -5.41597e-21)
(1.15439 -0.348641 2.22558e-20)
(1.22782 -0.361656 1.46319e-20)
(1.22539 -0.341471 1.27607e-20)
(1.20615 -0.313969 -2.95665e-20)
(1.18807 -0.286752 1.3179e-20)
(1.17386 -0.260975 -1.2245e-20)
(1.16306 -0.236863 -2.99321e-21)
(1.15364 -0.21874 -3.95948e-21)
(0.234898 -0.027605 1.03283e-21)
(0.791707 -0.191506 -7.87289e-22)
(1.11311 -0.29914 -5.25581e-21)
(1.22437 -0.328958 6.73384e-20)
(1.23898 -0.319516 -1.82599e-20)
(1.22467 -0.297899 -2.101e-20)
(1.20712 -0.27434 3.83784e-21)
(1.19222 -0.251314 -3.85681e-21)
(1.18071 -0.229023 -9.08406e-21)
(1.17035 -0.212485 -1.99455e-20)
(0.161753 -0.00666999 -9.92844e-20)
(0.679624 -0.130634 2.15256e-20)
(1.04769 -0.248305 -1.84869e-19)
(1.20463 -0.294212 -7.00461e-20)
(1.24396 -0.296421 -2.59478e-20)
(1.23886 -0.281337 -7.66474e-21)
(1.22365 -0.261566 -1.9639e-20)
(1.20891 -0.241201 -1.86949e-20)
(1.19668 -0.220433 5.66808e-21)
(1.18603 -0.205251 1.38433e-20)
(0.0975449 0.00305271 1.67976e-19)
(0.549501 -0.0767974 -9.42774e-20)
(0.955506 -0.19716 1.4489e-19)
(1.1642 -0.257248 7.42035e-20)
(1.2372 -0.271898 -4.3617e-20)
(1.24753 -0.264366 1.34601e-19)
(1.2374 -0.248608 -2.81687e-20)
(1.2237 -0.230881 5.15989e-20)
(1.21174 -0.211641 3.56632e-21)
(1.20068 -0.197065 5.10532e-20)
(0.0461978 0.00357969 -1.03742e-19)
(0.41138 -0.0348163 4.30909e-19)
(0.834849 -0.147085 -9.46223e-20)
(1.09756 -0.217935 -8.03486e-20)
(1.21411 -0.24545 2.0525e-19)
(1.24802 -0.246604 -9.11981e-20)
(1.24762 -0.235575 -4.72707e-20)
(1.23689 -0.220516 -2.5412e-20)
(1.22495 -0.202752 -9.65271e-20)
(1.21505 -0.188438 3.46228e-20)
(0.00896654 -0.00152812 -1.8787e-19)
(0.279588 -0.00942871 -2.55908e-19)
(0.687074 -0.100382 2.02236e-19)
(0.998937 -0.176559 5.68324e-20)
(1.16792 -0.216267 -1.46635e-19)
(1.23613 -0.227481 -1.48592e-19)
(1.25205 -0.22199 7.82252e-21)
(1.2476 -0.210135 -9.67563e-20)
(1.23783 -0.194298 1.46982e-19)
(1.22731 -0.178909 -2.11718e-20)
(-0.0154717 -0.00871699 8.35862e-20)
(0.167673 -0.00167129 3.99902e-19)
(0.521123 -0.0613056 -5.02126e-20)
(0.864079 -0.134024 1.41387e-20)
(1.09011 -0.18362 -3.338e-20)
(1.20407 -0.205534 1.94835e-19)
(1.24709 -0.207513 6.58768e-20)
(1.25431 -0.199066 1.12315e-19)
(1.24798 -0.185972 -1.02494e-19)
(1.24099 -0.16996 6.16723e-20)
(-0.029984 -0.0157773 -6.18719e-19)
(0.0824974 -0.00684909 1.57317e-19)
(0.35672 -0.0356715 -2.00865e-19)
(0.695176 -0.093292 2.42295e-19)
(0.971057 -0.146839 -5.98511e-20)
(1.14152 -0.179548 -3.42123e-19)
(1.22369 -0.190058 1.83369e-19)
(1.25369 -0.187333 -6.8585e-20)
(1.25617 -0.177342 6.24699e-20)
(1.24968 -0.159542 1.86321e-19)
(-0.037375 -0.0219268 2.8968e-19)
(0.0234378 -0.0182835 -4.35587e-19)
(0.216179 -0.0265241 -5.3887e-20)
(0.50845 -0.060854 -2.69078e-19)
(0.806323 -0.10801 -3.32818e-19)
(1.0333 -0.147202 1.63834e-19)
(1.17083 -0.168866 -2.04291e-19)
(1.23497 -0.171478 -2.4494e-20)
(1.25772 -0.168982 -1.88957e-20)
(1.26086 -0.149585 -2.38204e-19)
(-0.0397696 -0.0270126 2.69137e-19)
(-0.0141443 -0.0313451 -1.03055e-19)
(0.111042 -0.0307865 9.82623e-20)
(0.332727 -0.0434105 -1.45884e-19)
(0.609196 -0.0741174 1.43425e-19)
(0.869764 -0.110539 2.66448e-19)
(1.06544 -0.139215 1.58184e-19)
(1.18769 -0.152598 -8.03432e-21)
(1.23932 -0.154509 -1.76719e-19)
(1.26287 -0.139237 1.41268e-19)
(-0.0389154 -0.0311852 3.1331e-19)
(-0.0357023 -0.0439204 1.00386e-19)
(0.0402241 -0.0422957 1.6837e-19)
(0.192189 -0.0416748 4.94137e-20)
(0.412705 -0.0537611 -2.41257e-19)
(0.6643 -0.0769671 7.24403e-20)
(0.89538 -0.10525 -2.76282e-19)
(1.07551 -0.120821 3.83003e-19)
(1.19403 -0.141965 2.30896e-19)
(1.23708 -0.114664 6.08429e-20)
(-0.0361909 -0.0346758 -4.43309e-19)
(-0.0460989 -0.05511 -1.1025e-19)
(-0.00345669 -0.0559457 -1.28501e-19)
(0.0937667 -0.0502272 7.4805e-20)
(0.249492 -0.0490413 3.04738e-19)
(0.453975 -0.0566155 -2.45887e-19)
(0.680199 -0.0748088 -1.07285e-19)
(0.889116 -0.086434 -1.36048e-19)
(1.06222 -0.10939 -4.33579e-19)
(1.2031 -0.111697 1.10063e-19)
(-0.0325348 -0.0375688 -1.81032e-19)
(-0.0493586 -0.0643694 3.95413e-20)
(-0.0282914 -0.0685521 1.9789e-20)
(0.0308491 -0.0623921 -1.21213e-19)
(0.131866 -0.0548438 -1.94382e-19)
(0.277751 -0.053599 5.15101e-19)
(0.458579 -0.0526744 7.29527e-20)
(0.669723 -0.0646754 2.27015e-19)
(0.827307 -0.0686164 -4.49926e-20)
(1.08762 -0.0918937 1.72106e-19)
(-0.0285854 -0.0397169 3.22883e-19)
(-0.048577 -0.0710742 7.21416e-20)
(-0.0414812 -0.0780928 -3.41276e-19)
(-0.00776051 -0.0732668 1.90335e-19)
(0.0538304 -0.0642336 3.10512e-19)
(0.150273 -0.05965 -3.03443e-19)
(0.268346 -0.0427161 2.60248e-19)
(0.462602 -0.0578764 -1.41713e-19)
(0.549848 -0.0394852 2.07723e-19)
(0.882575 -0.0650131 -3.27072e-19)
(-0.0246867 -0.0408654 6.20702e-20)
(-0.0457973 -0.0745348 -4.65226e-19)
(-0.0483387 -0.0832349 4.52303e-19)
(-0.0321102 -0.0798987 -2.58163e-20)
(0.00252342 -0.0715103 -1.5093e-19)
(0.0623876 -0.06507 -5.46303e-21)
(0.129598 -0.0459162 -4.01059e-19)
(0.2828 -0.0542569 3.62509e-19)
(0.316361 -0.0307329 -2.90939e-19)
(0.623416 -0.0441746 2.03872e-19)
(-0.0209198 -0.0405931 9.30161e-20)
(-0.0422532 -0.0741656 -4.66817e-20)
(-0.0522494 -0.0832659 -1.59966e-19)
(-0.0490259 -0.0809487 -1.96807e-19)
(-0.0334074 -0.073775 4.44563e-20)
(4.94404e-05 -0.066373 -2.20373e-19)
(0.0351232 -0.0525289 -7.23102e-21)
(0.135723 -0.0480641 -3.38266e-20)
(0.152796 -0.0375139 1.00055e-19)
(0.363191 -0.032215 4.47989e-21)
(-0.0173095 -0.0384385 -2.66633e-19)
(-0.03866 -0.0696358 1.90797e-19)
(-0.0549869 -0.0780519 2.68594e-19)
(-0.0621747 -0.0762447 -1.15064e-20)
(-0.0606272 -0.0702499 8.89991e-20)
(-0.0468391 -0.0628974 -8.41127e-20)
(-0.0329096 -0.0541322 3.36948e-19)
(0.0233532 -0.0415942 -1.09324e-19)
(0.0345272 -0.042295 -3.48923e-19)
(0.150175 -0.0188419 1.65612e-19)
(-0.0139607 -0.0340983 -1.86078e-20)
(-0.0354143 -0.0609651 -2.14484e-19)
(-0.0572419 -0.0679458 -1.69833e-19)
(-0.0728698 -0.0663757 1.656e-19)
(-0.0821744 -0.0613551 -1.2265e-19)
(-0.0838481 -0.0548937 5.59475e-20)
(-0.0835951 -0.0487262 4.20733e-20)
(-0.0587127 -0.0347347 1.95851e-20)
(-0.0574475 -0.0362324 1.03166e-19)
(-0.00049077 -0.00613592 -1.95713e-19)
(-0.0110671 -0.0275409 1.46714e-19)
(-0.0327406 -0.0485412 1.8527e-19)
(-0.0591104 -0.0536954 5.77248e-21)
(-0.0813044 -0.0523029 -1.48649e-19)
(-0.098929 -0.0482964 2.40997e-20)
(-0.111688 -0.0431903 3.84098e-20)
(-0.121143 -0.0376715 -5.82962e-20)
(-0.118448 -0.0266436 3.00674e-20)
(-0.12472 -0.0250993 3.16022e-20)
(-0.10323 -8.73661e-05 -3.19964e-20)
(-0.00887118 -0.0190535 -2.09312e-20)
(-0.0307923 -0.0331052 2.88349e-20)
(-0.0604708 -0.0363161 -1.28576e-19)
(-0.0872366 -0.0352004 3.3498e-20)
(-0.110549 -0.0323778 -7.38999e-20)
(-0.130284 -0.0287496 2.00184e-20)
(-0.14652 -0.0242417 3.61119e-20)
(-0.156553 -0.01685 -6.49644e-20)
(-0.167897 -0.0128029 -7.30027e-21)
(-0.165191 0.00281926 2.91599e-20)
(-0.00759875 -0.00921578 -1.43519e-20)
(-0.029687 -0.0156804 3.06512e-21)
(-0.0611825 -0.0169741 6.84617e-20)
(-0.0903588 -0.0162827 2.71868e-20)
(-0.116581 -0.0148132 -1.59901e-20)
(-0.139679 -0.0128169 9.07934e-21)
(-0.1594 -0.0100392 -1.22209e-20)
(-0.174869 -0.00586628 1.88725e-20)
(-0.188869 -0.00162812 1.25372e-20)
(-0.194253 0.00673509 -4.35962e-24)
(-0.197138 0.0161553 -4.90888e-20)
(-0.20067 0.0190056 3.51263e-20)
(-0.203673 0.0218807 4.8188e-22)
(-0.206262 0.0248473 -6.07864e-21)
(-0.208503 0.0278355 -1.21455e-20)
(-0.210428 0.0307747 -1.39745e-20)
(-0.212071 0.033594 -2.39276e-20)
(-0.213458 0.0362204 4.25382e-20)
(-0.214613 0.0385799 -2.4151e-20)
(-0.215556 0.040599 4.95811e-20)
(-0.216302 0.0422061 -3.12317e-20)
(-0.216866 0.0433328 -4.51726e-21)
(-0.217258 0.0439151 -1.10849e-20)
(-0.217488 0.0438945 2.87601e-20)
(-0.217564 0.0432194 -1.89713e-20)
(-0.217494 0.0418456 1.94149e-20)
(-0.217282 0.0397383 -1.35004e-20)
(-0.216934 0.0368719 -1.14237e-20)
(-0.216453 0.0332315 7.35854e-21)
(-0.215841 0.0288133 -4.92009e-21)
(-0.215098 0.0236251 1.83525e-20)
(-0.214222 0.0176864 -8.36273e-21)
(-0.213205 0.0110295 -1.24301e-20)
(-0.212032 0.00369553 7.7131e-21)
(-0.210741 -0.00426085 -1.04875e-20)
(-0.209366 -0.0127743 1.23438e-20)
(-0.207894 -0.021749 3.41891e-21)
(-0.206323 -0.031088 -9.86359e-21)
(-0.204654 -0.0406868 1.76738e-20)
(-0.20289 -0.0504337 1.80175e-20)
(-0.201033 -0.0602107 -1.86927e-20)
(-0.199088 -0.0698947 7.87697e-21)
(-0.197055 -0.0793601 9.60377e-21)
(-0.194938 -0.08848 -1.71574e-20)
(-0.192738 -0.0971279 1.9976e-20)
(-0.190454 -0.10518 -1.94188e-20)
(-0.188082 -0.112515 2.30143e-20)
(-0.185613 -0.119018 -1.04686e-20)
(-0.183037 -0.124574 -4.01333e-21)
(-0.180336 -0.129074 7.30837e-22)
(-0.177494 -0.132422 6.00929e-21)
(-0.174489 -0.13453 3.46048e-21)
(-0.171297 -0.135324 5.28193e-23)
(-0.167891 -0.134744 -9.16356e-21)
(-0.164242 -0.132748 -1.02878e-21)
(-0.160325 -0.129312 -2.93116e-21)
(-0.156116 -0.124424 6.17001e-21)
(-0.151592 -0.11809 -5.34138e-22)
(-0.146734 -0.110334 6.67054e-21)
(-0.141528 -0.101198 -1.27632e-20)
(-0.135965 -0.0907449 6.47936e-21)
(-0.130044 -0.0790564 5.18491e-22)
(-0.123765 -0.0662324 -1.11544e-20)
(-0.11713 -0.0523831 5.3449e-21)
(-0.110157 -0.037675 2.44652e-21)
(-0.102881 -0.022244 1.4149e-21)
(-0.0953749 -0.00624238 -3.34839e-21)
(-0.0877352 0.010228 1.64831e-22)
(-0.0799978 0.0269554 1.0587e-20)
(-0.0721827 0.0437607 -1.54788e-20)
(-0.0643542 0.0604717 1.06976e-20)
(-0.0565724 0.0769249 1.47246e-21)
(-0.0488682 0.0930107 -1.48453e-21)
(-0.0412798 0.108502 -1.11966e-21)
(-0.0338756 0.123271 1.20066e-21)
(-0.0266788 0.137169 -2.29298e-21)
(-0.0196798 0.15009 -2.09451e-22)
(-0.0128636 0.161923 -5.71037e-22)
(-0.00617961 0.172586 2.92398e-22)
(0.000336954 0.181934 1.53069e-21)
(0.00677614 0.189882 -2.87759e-21)
(0.0132892 0.196372 -7.6924e-22)
(0.019904 0.201318 2.37522e-21)
(0.0267161 0.204645 1.6844e-21)
(0.033829 0.206292 -2.01399e-21)
(0.0413417 0.206209 8.48137e-22)
(0.0493469 0.204366 -2.32249e-21)
(0.057926 0.200747 1.53347e-21)
(0.0671456 0.195359 1.22004e-21)
(0.0770541 0.18823 -9.17499e-22)