/*--------------------------------*- C++ -*----------------------------------*\
  =========                 |
  \\      /  F ield         | OpenFOAM: The Open Source CFD Toolbox
   \\    /   O peration     | Website:  https://openfoam.org
    \\  /    A nd           | Version:  7
     \\/     M anipulation  |
\*---------------------------------------------------------------------------*/
FoamFile
{
    version     2.0;
    format      ascii;
    class       volVectorField;
    location    "20";
    object      U;
}
// * * * * * * * * * * * * * * * * * * * * * * * * * * * * * * * * * * * * * //

dimensions      [0 1 -1 0 0 0 0];

internalField   nonuniform List<vector> 
49200
(
(-0.000842742 0.000663114 2.67035e-21)
(-0.00507653 0.00157578 -1.29916e-20)
(-0.0129379 0.00218848 -1.49325e-21)
(-0.0223635 0.00258661 9.62802e-21)
(-0.0327438 0.00282501 -7.0327e-21)
(-0.0435477 0.00294739 2.38302e-20)
(-0.0544048 0.00298716 7.67654e-21)
(-0.0650767 0.00296943 -8.23844e-21)
(-0.0754113 0.00291271 3.28088e-21)
(-0.0853171 0.00283023 -2.74069e-20)
(-0.0947435 0.00273101 5.99455e-21)
(-0.103665 0.00262087 -5.448e-22)
(-0.112072 0.00250332 -7.68648e-21)
(-0.119962 0.00238034 1.81569e-20)
(-0.127336 0.00225312 4.20321e-22)
(-0.134198 0.00212269 -1.6581e-20)
(-0.140555 0.0019906 -6.69554e-21)
(-0.146418 0.00185961 -1.0211e-21)
(-0.151808 0.00173422 -1.26046e-20)
(-0.156762 0.00162119 -5.97943e-21)
(-0.161338 0.00152967 -2.71544e-20)
(-0.165625 0.00147075 1.91731e-20)
(-0.16974 0.00145464 -3.54684e-20)
(-0.173811 0.0014891 1.77866e-20)
(-0.178042 0.00159075 1.77807e-20)
(-0.000904818 0.0019817 -1.15617e-21)
(-0.0052023 0.00470972 -2.66319e-20)
(-0.0130723 0.00654131 -2.00079e-20)
(-0.0224749 0.00773126 -3.82545e-20)
(-0.0328086 0.00844341 3.3347e-20)
(-0.0435489 0.00880837 -2.21431e-20)
(-0.0543294 0.00892604 4.35838e-21)
(-0.0649142 0.00887151 -6.91058e-21)
(-0.0751528 0.00870017 -3.81226e-20)
(-0.0849546 0.00845153 -5.46943e-21)
(-0.0942694 0.0081526 -7.19266e-21)
(-0.103072 0.0078208 -8.75362e-21)
(-0.111352 0.00746665 4.81692e-20)
(-0.119107 0.00709605 2.36217e-20)
(-0.126337 0.00671246 -2.26254e-20)
(-0.133046 0.00631888 5.08989e-20)
(-0.139239 0.00591983 3.61116e-21)
(-0.144925 0.00552327 2.7895e-20)
(-0.150122 0.00514249 4.16686e-20)
(-0.154862 0.0047975 -3.09236e-21)
(-0.159199 0.00451573 8.53693e-20)
(-0.163219 0.00433076 3.00352e-20)
(-0.167036 0.00427423 -3.00468e-20)
(-0.170766 0.00437093 -1.8917e-20)
(-0.174617 0.00467162 -1.89731e-20)
(-0.00102789 0.00328 3.01455e-20)
(-0.00545192 0.00780001 7.93137e-22)
(-0.0133395 0.0108383 -8.46711e-20)
(-0.0226963 0.0128141 7.45333e-20)
(-0.0329377 0.0139979 9.01064e-21)
(-0.0435513 0.0146054 -5.64835e-20)
(-0.054179 0.0148021 -3.2451e-20)
(-0.0645902 0.0147124 -3.24169e-20)
(-0.0746372 0.0144283 -7.86132e-22)
(-0.0842313 0.0140155 -1.54373e-20)
(-0.0933229 0.0135188 -1.83277e-20)
(-0.101887 0.0129673 2.35823e-20)
(-0.109913 0.0123785 -9.77203e-20)
(-0.117398 0.0117621 -9.4151e-20)
(-0.124341 0.0111237 7.76682e-20)
(-0.130744 0.0104679 -1.29219e-19)
(-0.136609 0.00980162 -2.72119e-20)
(-0.141941 0.00913718 1.29762e-19)
(-0.146752 0.00849565 1.52432e-20)
(-0.151068 0.00790945 -2.96673e-20)
(-0.154932 0.00742392 -4.57176e-20)
(-0.158422 0.00709582 2.14769e-20)
(-0.161648 0.00698094 1.5224e-19)
(-0.164702 0.00712555 -2.60518e-20)
(-0.167799 0.00761754 3.29324e-21)
(-0.00120983 0.004545 -2.37768e-20)
(-0.00582168 0.0108185 9.60235e-20)
(-0.0137359 0.0150432 1.38293e-19)
(-0.0230253 0.0177949 -6.12393e-20)
(-0.0331296 0.0194464 -9.34901e-21)
(-0.0435546 0.0202963 1.52242e-19)
(-0.0539545 0.0205737 9.56427e-21)
(-0.0641061 0.0204515 1.26831e-20)
(-0.0738665 0.0200577 7.17468e-20)
(-0.0831495 0.0194838 -1.40527e-19)
(-0.0919067 0.0187925 -4.12343e-20)
(-0.100113 0.0180245 2.43206e-20)
(-0.107758 0.0172042 -2.55557e-20)
(-0.114838 0.0163451 8.18084e-20)
(-0.121349 0.0154548 -3.69598e-20)
(-0.127292 0.0145387 1.82256e-19)
(-0.132665 0.0136052 4.85536e-20)
(-0.137468 0.0126697 -5.81536e-21)
(-0.141704 0.0117596 7.5056e-20)
(-0.145389 0.0109179 -7.18519e-20)
(-0.148551 0.0102072 -2.60464e-20)
(-0.151256 0.00970804 -3.43585e-20)
(-0.153608 0.00950479 -5.39471e-20)
(-0.155665 0.00967273 6.92007e-20)
(-0.15764 0.0103433 1.0264e-19)
(-0.00144756 0.00576439 5.03765e-20)
(-0.00630608 0.0137383 -8.43459e-20)
(-0.0142565 0.0191212 3.86696e-20)
(-0.0234582 0.0226344 5.62038e-20)
(-0.0333822 0.0247481 -2.02061e-19)
(-0.0435585 0.0258396 -4.81899e-20)
(-0.0536569 0.0261997 6.42376e-20)
(-0.0634643 0.0260484 -6.79572e-21)
(-0.0728439 0.0255488 1.30322e-19)
(-0.0817129 0.024818 9.93164e-21)
(-0.0900245 0.0239363 8.91645e-20)
(-0.0977542 0.0229561 8.92066e-20)
(-0.104891 0.0219088 1.78245e-19)
(-0.111428 0.0208116 -8.84482e-20)
(-0.117364 0.0196733 2.69396e-20)
(-0.122693 0.0185001 -3.5767e-20)
(-0.127409 0.0173005 -1.02307e-19)
(-0.131507 0.0160913 -4.10932e-20)
(-0.134982 0.0149037 1.98616e-20)
(-0.137832 0.0137892 -9.89013e-20)
(-0.140072 0.0128255 7.03367e-20)
(-0.141749 0.0121178 1.314e-19)
(-0.142957 0.0117839 -4.4016e-20)
(-0.143709 0.0119393 -1.55311e-19)
(-0.144201 0.0127702 -4.2602e-20)
(-0.00173711 0.00692687 -9.04755e-20)
(-0.00689808 0.0165343 -1.47038e-20)
(-0.0148946 0.0230392 -9.84976e-20)
(-0.02399 0.0272953 -4.36512e-20)
(-0.0336929 0.0298632 1.69258e-19)
(-0.0435622 0.0311948 -1.20823e-20)
(-0.0532873 0.0316396 -1.50371e-19)
(-0.0626672 0.0314629 1.31252e-19)
(-0.0715728 0.0308622 -6.27469e-20)
(-0.0799255 0.0299794 2.28986e-19)
(-0.0876804 0.0289126 -1.2076e-19)
(-0.0948137 0.0277256 -2.12318e-19)
(-0.101313 0.0264568 4.17627e-20)
(-0.107172 0.0251271 -1.54486e-20)
(-0.112384 0.0237467 -9.57268e-20)
(-0.116943 0.0223213 -1.09561e-19)
(-0.120838 0.0208585 -8.396e-20)
(-0.124056 0.0193746 8.2396e-20)
(-0.126581 0.0179017 7.3721e-22)
(-0.128398 0.0164965 4.73985e-20)
(-0.129502 0.0152487 -1.21695e-19)
(-0.129917 0.014287 5.99009e-20)
(-0.129726 0.0137684 1.17456e-19)
(-0.128886 0.0138628 1.96749e-19)
(-0.127538 0.0148286 -9.72141e-20)
(-0.00207378 0.00802232 2.71582e-19)
(-0.00758927 0.0191838 -7.4297e-20)
(-0.0156423 0.0267667 -9.22866e-20)
(-0.0246146 0.0317423 -4.43765e-20)
(-0.034058 0.0347538 -1.32072e-19)
(-0.0435647 0.0363226 6.84611e-20)
(-0.0528467 0.0368536 1.10286e-19)
(-0.0617175 0.0366554 -1.20464e-19)
(-0.070057 0.0359585 8.83992e-20)
(-0.0777916 0.0349294 -1.78272e-19)
(-0.084879 0.0336833 -2.03319e-20)
(-0.0912956 0.0322956 -7.86192e-20)
(-0.0970284 0.030812 -1.6654e-19)
(-0.102069 0.0292569 -1.9072e-19)
(-0.106409 0.0276417 -6.06081e-20)
(-0.110039 0.0259712 1.18011e-19)
(-0.112943 0.0242509 -7.12506e-20)
(-0.115101 0.0224943 -1.75983e-19)
(-0.116487 0.0207318 -1.87127e-19)
(-0.117073 0.0190205 1.85571e-19)
(-0.11683 0.0174578 -1.60623e-19)
(-0.115758 0.0161928 -3.93185e-20)
(-0.113924 0.015425 -2.48947e-19)
(-0.111224 0.0153956 -3.90187e-19)
(-0.107672 0.0164587 1.52203e-19)
(-0.00245229 0.00904207 -2.86941e-20)
(-0.0083701 0.0216666 2.10617e-19)
(-0.0164905 0.030276 1.14641e-19)
(-0.0253251 0.0359427 7.93177e-20)
(-0.0344731 0.0393841 1.81333e-19)
(-0.0435642 0.0411854 -1.09874e-19)
(-0.0523356 0.041803 -9.87226e-21)
(-0.0606175 0.0415868 -1.6787e-19)
(-0.0682999 0.0407988 -1.78291e-19)
(-0.0753153 0.0396291 1.13661e-19)
(-0.0816237 0.03821 1.72743e-19)
(-0.0872023 0.0366285 -1.50726e-19)
(-0.0920371 0.0349374 -9.65013e-20)
(-0.0961176 0.0331651 5.26553e-19)
(-0.0994329 0.031324 2.35744e-20)
(-0.101969 0.0294178 5.97771e-20)
(-0.103707 0.027449 4.94189e-20)
(-0.104619 0.0254266 6.38329e-20)
(-0.104671 0.0233757 -8.42249e-20)
(-0.103821 0.0213497 2.75517e-20)
(-0.102019 0.0194468 -4.46628e-20)
(-0.0992336 0.0178302 6.48239e-20)
(-0.0955199 0.0167428 1.18652e-19)
(-0.0907145 0.0165125 6.51866e-19)
(-0.0845695 0.0176108 -1.27237e-19)
(-0.00286694 0.00997902 -2.34446e-19)
(-0.00923015 0.0239653 -1.53564e-19)
(-0.017429 0.0335426 -2.48772e-19)
(-0.0261134 0.0398666 8.20855e-20)
(-0.0349332 0.0437206 -3.04717e-19)
(-0.0435582 0.0457472 2.34765e-20)
(-0.0517539 0.0464505 2.48057e-19)
(-0.0593686 0.0462188 -5.88474e-20)
(-0.0663039 0.0453442 2.44218e-20)
(-0.0724989 0.0440397 -2.08477e-19)
(-0.0779166 0.0424541 -1.26788e-19)
(-0.0825343 0.0406858 2.78543e-19)
(-0.0863368 0.0387953 1.57583e-19)
(-0.089311 0.0368149 -2.55437e-19)
(-0.0914428 0.0347583 6.77047e-20)
(-0.0927142 0.0326282 -1.68426e-19)
(-0.0931009 0.0304236 -3.79335e-20)
(-0.0925704 0.0281477 -1.38089e-19)
(-0.0910803 0.0258176 3.15561e-19)
(-0.0885765 0.0234781 4.89371e-20)
(-0.0849892 0.021221 -1.23477e-19)
(-0.0802568 0.0192144 2.52928e-19)
(-0.0744191 0.0177395 -1.85718e-19)
(-0.0672898 0.0172233 -4.37589e-19)
(-0.0581135 0.0182574 2.39836e-20)
(-0.00331181 0.0108278 9.63202e-20)
(-0.0101584 0.026066 1.70181e-20)
(-0.0184471 0.0365452 1.90169e-19)
(-0.0269707 0.0434875 8.91122e-20)
(-0.0354318 0.0477327 3.19771e-19)
(-0.043543 0.0499743 -2.71352e-19)
(-0.0510999 0.0507603 -8.3741e-20)
(-0.0579707 0.0505143 1.99082e-19)
(-0.0640697 0.0495569 -2.13507e-19)
(-0.0693429 0.0481228 -2.40439e-20)
(-0.0737565 0.0463769 -5.71921e-20)
(-0.0772879 0.0444292 -1.04769e-19)
(-0.0799199 0.0423474 1.33563e-19)
(-0.0816362 0.0401687 -1.07379e-19)
(-0.0824185 0.0379083 -5.61211e-20)
(-0.0822438 0.0355681 2.86441e-20)
(-0.0810827 0.0331439 7.80349e-20)
(-0.0788967 0.0306326 2.81871e-19)
(-0.0756363 0.0280417 -2.61503e-19)
(-0.0712379 0.025403 -5.73092e-20)
(-0.0656162 0.0227943 3.2964e-19)
(-0.0586761 0.0203773 2.34398e-19)
(-0.0504398 0.0184544 -1.77044e-19)
(-0.0407965 0.0175538 -2.36212e-19)
(-0.0281213 0.0184749 1.82273e-19)
(-0.00378093 0.0115847 -8.51616e-20)
(-0.0111437 0.0279579 4.37126e-20)
(-0.0195333 0.0392667 -5.56905e-21)
(-0.0278871 0.0467824 1.41751e-19)
(-0.0359614 0.0513926 -3.45452e-19)
(-0.0435134 0.0538356 5.66741e-19)
(-0.0503703 0.0546984 1.50325e-19)
(-0.0564214 0.0544375 4.34863e-21)
(-0.0615947 0.0533998 3.89549e-19)
(-0.0658437 0.0518406 6.3104e-20)
(-0.0691376 0.0499403 1.25847e-19)
(-0.0714535 0.04782 -3.88172e-19)
(-0.0727715 0.0455555 -1.35895e-19)
(-0.0730709 0.0431885 4.54378e-19)
(-0.0723276 0.0407368 -6.44802e-20)
(-0.0705128 0.0382023 7.49484e-20)
(-0.0675903 0.0355779 -2.2159e-20)
(-0.0635151 0.0328547 -6.27287e-19)
(-0.0582303 0.0300305 1.92412e-19)
(-0.051665 0.0271213 1.46459e-19)
(-0.0437223 0.0241847 9.78505e-20)
(-0.0342762 0.0213608 -3.24096e-19)
(-0.0233105 0.0189277 -5.82438e-20)
(-0.0108834 0.0174487 2.34853e-19)
(0.00564098 0.0184986 -1.97118e-19)
(-0.00426851 0.0122478 1.09637e-19)
(-0.0121746 0.0296338 8.21184e-20)
(-0.0206756 0.0416935 -2.82954e-19)
(-0.0288519 0.049732 -1.82013e-19)
(-0.0365132 0.054676 -1.80067e-20)
(-0.0434621 0.0573025 -2.25714e-19)
(-0.0495588 0.0582333 -2.779e-19)
(-0.0547148 0.0579545 -1.28489e-20)
(-0.0588722 0.0568375 -4.31306e-19)
(-0.0619925 0.0551565 3.47636e-20)
(-0.0640475 0.0531068 1.63035e-19)
(-0.0650133 0.0508207 3.35792e-19)
(-0.0648663 0.0483817 -1.00441e-19)
(-0.0635797 0.0458369 -3.16513e-19)
(-0.0611223 0.0432071 -1.67419e-19)
(-0.0574568 0.0404951 -2.28608e-19)
(-0.0525388 0.0376924 -3.3068e-19)
(-0.0463145 0.0347858 6.31439e-19)
(-0.0387192 0.0317639 -7.59841e-20)
(-0.0296746 0.0286277 -4.01489e-19)
(-0.019077 0.0254103 7.77111e-20)
(-0.00678953 0.0222169 7.95897e-20)
(0.00723404 0.0192629 1.51063e-20)
(0.022941 0.0171727 1.00063e-20)
(0.0438146 0.0182296 1.7104e-19)
(-0.00476906 0.0128172 3.67704e-20)
(-0.0132402 0.0310897 6.1905e-20)
(-0.0218621 0.0438162 2.21716e-19)
(-0.0298534 0.0523209 4.14768e-19)
(-0.0370764 0.0575622 2.71739e-19)
(-0.0433792 0.0603499 5.91153e-20)
(-0.0486556 0.0613361 1.31975e-19)
(-0.0528402 0.0610338 4.27573e-20)
(-0.0558895 0.0598362 3.4675e-19)
(-0.0577727 0.0580356 -1.74281e-20)
(-0.0584641 0.0558411 1.0401e-19)
(-0.0579378 0.0533955 2.4889e-19)
(-0.0561645 0.0507903 -1.21561e-19)
(-0.05311 0.0480783 4.32013e-19)
(-0.0487333 0.0452842 2.59277e-19)
(-0.0429865 0.0424129 2.70566e-19)
(-0.0358135 0.039456 6.56528e-19)
(-0.0271495 0.0363978 -2.80232e-19)
(-0.0169194 0.0332208 -3.64665e-19)
(-0.00503674 0.0299134 2.08885e-20)
(0.00860806 0.0264856 3.87168e-19)
(0.0241496 0.0230049 -2.84659e-19)
(0.0416879 0.0196165 -1.22593e-19)
(0.060953 0.0169862 -9.67776e-21)
(0.0870597 0.0176289 -1.71072e-19)
(-0.00527759 0.0132942 -1.5969e-19)
(-0.0143298 0.032325 -3.1684e-19)
(-0.0230802 0.045629 4.91126e-20)
(-0.0308786 0.0545376 -3.81027e-19)
(-0.0376378 0.0600342 4.86507e-20)
(-0.0432511 0.0629558 1.09518e-20)
(-0.0476461 0.0639812 -5.32114e-19)
(-0.0507806 0.0636466 1.07949e-19)
(-0.0526257 0.0623654 2.49749e-19)
(-0.053158 0.0604459 -2.2069e-20)
(-0.0523531 0.0581101 -2.59736e-19)
(-0.0501818 0.0555112 -1.32926e-19)
(-0.0466077 0.0527484 1.52916e-19)
(-0.0415862 0.0498808 2.74217e-20)
(-0.0350643 0.0469375 2.74527e-19)
(-0.0269798 0.0439266 -3.96135e-19)
(-0.0172622 0.0408418 -3.26772e-19)
(-0.005832 0.0376674 -6.89396e-20)
(0.00739953 0.0343831 6.96004e-20)
(0.022529 0.0309695 -6.53247e-20)
(0.0396743 0.0274184 -2.77218e-19)
(0.058949 0.0237647 1.68996e-19)
(0.0805762 0.0200655 -2.23425e-19)
(0.103691 0.0169328 2.53341e-19)
(0.13601 0.0171049 2.5935e-19)
(-0.00578974 0.013682 3.38568e-20)
(-0.0154335 0.0333422 5.64498e-19)
(-0.0243176 0.0471301 -3.6906e-19)
(-0.0319134 0.0563748 -1.96787e-19)
(-0.0381818 0.062079 -2.41856e-19)
(-0.0430601 0.0651023 -2.1315e-19)
(-0.0465097 0.0661463 3.45927e-19)
(-0.0485111 0.0657679 -2.42291e-20)
(-0.0490498 0.0643977 -1.51545e-19)
(-0.0481088 0.0623588 2.03373e-19)
(-0.0456638 0.0598852 2.51822e-20)
(-0.0416804 0.0571394 2.45249e-20)
(-0.0361128 0.0542288 -6.5864e-20)
(-0.0289034 0.0512187 -4.08545e-19)
(-0.0199837 0.0481435 -3.44186e-19)
(-0.0092743 0.0450159 2.72155e-19)
(0.00331363 0.0418331 -2.63684e-19)
(0.0178777 0.038582 3.21978e-20)
(0.0345233 0.0352433 2.3342e-19)
(0.0533583 0.0317953 -9.95316e-20)
(0.0745161 0.0282193 1.67331e-19)
(0.0980503 0.0245288 -7.59712e-20)
(0.124443 0.0206957 -1.26442e-19)
(0.151704 0.0171602 -2.5141e-19)
(0.191357 0.0169639 -5.47187e-19)
(-0.00630188 0.013985 -2.92151e-19)
(-0.016542 0.0341466 -1.4734e-19)
(-0.0255613 0.0483211 4.67592e-19)
(-0.0329417 0.0578289 1.73156e-19)
(-0.038689 0.0636876 8.09692e-20)
(-0.0427831 0.0667756 1.28567e-19)
(-0.045218 0.0678138 1.47421e-19)
(-0.0459966 0.0673767 -3.9807e-19)
(-0.0451175 0.0659104 1.49665e-19)
(-0.0425691 0.0637509 -4.83098e-19)
(-0.0383251 0.0611429 2.82945e-20)
(-0.0323435 0.0582582 -3.19674e-19)
(-0.0245662 0.0552118 4.58927e-19)
(-0.0149199 0.0520756 1.10158e-19)
(-0.00331681 0.0488903 -5.76971e-20)
(0.0103428 0.045674 -7.17445e-20)
(0.0261692 0.0424293 2.91797e-19)
(0.0442806 0.039148 -7.63711e-20)
(0.064801 0.0358153 4.15679e-19)
(0.0878468 0.0324121 1.48309e-19)
(0.113579 0.0289181 -2.25848e-19)
(0.141921 0.0253358 -2.01276e-19)
(0.173837 0.0216013 5.14988e-19)
(0.205484 0.0178231 -1.22792e-19)
(0.253711 0.0174902 6.61108e-19)
(-0.00681113 0.0142086 3.49127e-19)
(-0.017647 0.0347457 6.86467e-20)
(-0.0267983 0.049207 2.16466e-19)
(-0.0339455 0.0589003 2.95697e-19)
(-0.039136 0.0648554 -8.67419e-22)
(-0.0423902 0.0679664 -2.94557e-19)
(-0.0437335 0.0689705 -1.05573e-19)
(-0.0431896 0.0684574 1.78963e-19)
(-0.040769 0.0668865 2.34033e-20)
(-0.0364628 0.064605 3.82621e-19)
(-0.0302407 0.0618675 2.71678e-19)
(-0.0220502 0.0588543 3.16863e-19)
(-0.0118175 0.055688 -2.23332e-19)
(0.000550143 0.0524478 4.27184e-19)
(0.0151624 0.0491812 -1.52043e-19)
(0.0321425 0.0459132 1.45779e-19)
(0.051624 0.0426529 3.64046e-19)
(0.0737457 0.0393994 -3.34347e-19)
(0.0986492 0.036145 -1.28035e-19)
(0.126449 0.0328768 -8.90136e-20)
(0.157354 0.0295838 -6.09809e-20)
(0.191033 0.0262496 3.08208e-19)
(0.229264 0.0228918 -3.45334e-19)
(0.265416 0.0190489 4.33005e-19)
(0.32344 0.0189658 9.09314e-20)
(-0.00731541 0.0143593 -2.69076e-20)
(-0.0187404 0.0351493 -2.99582e-20)
(-0.0280144 0.0497955 -5.58629e-19)
(-0.0349039 0.0595928 8.22277e-20)
(-0.0394943 0.0655818 1.03864e-19)
(-0.0418439 0.0686701 1.7441e-19)
(-0.0420074 0.0696089 4.58742e-20)
(-0.0400279 0.0690007 -2.17477e-19)
(-0.0359248 0.0673161 4.97157e-19)
(-0.0296897 0.0649123 -4.79657e-19)
(-0.0212847 0.0620527 -6.96616e-19)
(-0.0106432 0.0589258 -9.77647e-21)
(0.00232752 0.0556621 9.59577e-21)
(0.0177432 0.0523485 6.96335e-20)
(0.035738 0.0490403 3.11998e-19)
(0.0564601 0.0457703 -1.15028e-19)
(0.0800654 0.0425563 -4.96904e-19)
(0.106709 0.0394057 4.32708e-19)
(0.136546 0.0363207 1.82399e-19)
(0.169665 0.0332944 -1.97295e-19)
(0.206345 0.0303415 -3.38322e-19)
(0.245831 0.0273806 -3.08127e-19)
(0.291117 0.0247144 -8.11648e-21)
(0.331722 0.0209584 7.2636e-19)
(0.400521 0.0216416 -8.03827e-19)
(-0.0078134 0.0144439 -1.30284e-19)
(-0.0198151 0.0353684 -1.89424e-19)
(-0.0291948 0.0500969 3.01821e-19)
(-0.0357929 0.0599137 -6.22752e-19)
(-0.039729 0.0658705 -1.04991e-19)
(-0.041097 0.0688874 -1.74797e-19)
(-0.0399782 0.0697274 3.45435e-20)
(-0.0364318 0.069004 -1.08172e-19)
(-0.0304835 0.0671974 -1.1165e-18)
(-0.0221215 0.0646735 3.07033e-19)
(-0.0112965 0.0617039 6.46583e-19)
(0.00207608 0.0584852 9.50446e-20)
(0.0181117 0.055156 2.46548e-19)
(0.0369514 0.0518118 -1.16134e-19)
(0.0587555 0.0485166 -5.66662e-19)
(0.0836953 0.0453127 -4.20826e-19)
(0.111944 0.0422276 5.11497e-19)
(0.143664 0.0392783 9.20847e-21)
(0.179007 0.0364788 -4.87897e-19)
(0.218002 0.0338229 3.56565e-19)
(0.261019 0.0313793 -4.0176e-19)
(0.306666 0.0289005 -9.05852e-20)
(0.359559 0.0272631 -1.32248e-19)
(0.404381 0.0236969 -4.04502e-19)
(0.484364 0.0257137 -3.6019e-19)
(-0.0083044 0.0144696 1.19152e-19)
(-0.0208639 0.0354151 3.76229e-19)
(-0.0303227 0.0501232 -4.24147e-19)
(-0.036584 0.0598732 5.14382e-19)
(-0.0397985 0.0657296 5.07229e-19)
(-0.0400917 0.0686243 2.30407e-19)
(-0.0375688 0.0693313 -2.43585e-19)
(-0.0323017 0.0684732 3.17667e-19)
(-0.0243179 0.0665387 7.4395e-19)
(-0.013598 0.0639015 -3.90976e-19)
(-7.69351e-05 0.060841 9.35873e-20)
(0.0163519 0.0575622 -4.64361e-19)
(0.0358296 0.0542124 -7.92891e-20)
(0.0585241 0.0508966 -5.92576e-19)
(0.0846195 0.047689 6.40145e-19)
(0.114305 0.0446425 -7.12861e-20)
(0.147758 0.0417949 -1.07893e-19)
(0.185129 0.0391734 -1.01467e-19)
(0.226542 0.036805 1.95836e-19)
(0.271913 0.034671 -3.32211e-19)
(0.321709 0.0329387 2.76229e-19)
(0.373697 0.0310418 6.34859e-20)
(0.434381 0.0307592 -7.01207e-20)
(0.483016 0.02745 -2.71141e-19)
(0.573676 0.031302 3.18197e-19)
(-0.00878821 0.0144436 2.8472e-20)
(-0.0218794 0.0353018 -5.40081e-19)
(-0.0313794 0.049888 5.67347e-20)
(-0.0372443 0.0594843 -4.46127e-19)
(-0.0396524 0.065171 -2.32866e-19)
(-0.038758 0.0678925 1.89869e-19)
(-0.0346857 0.0684329 -7.40759e-20)
(-0.0275157 0.0674232 -7.25502e-20)
(-0.0172727 0.0653595 -2.76208e-19)
(-0.00392459 0.0626229 2.84522e-19)
(0.0126141 0.0595008 -7.45388e-19)
(0.0324755 0.0562068 3.85596e-19)
(0.0558278 0.0528983 6.39558e-19)
(0.0828636 0.0496909 1.91584e-20)
(0.113784 0.0466699 1.52723e-19)
(0.148782 0.0438993 2.47196e-19)
(0.18802 0.0414279 9.60396e-20)
(0.2316 0.0392907 2.42737e-19)
(0.279583 0.0375286 -1.84105e-19)
(0.331704 0.036088 9.0357e-19)
(0.388493 0.035288 1.01445e-18)
(0.446766 0.0340789 6.83841e-19)
(0.514848 0.0354061 4.01351e-19)
(0.566765 0.0324221 6.5258e-19)
(0.666385 0.0384244 -2.52162e-19)
(-0.00926489 0.0143724 3.84852e-20)
(-0.0228536 0.0350406 2.89457e-19)
(-0.0323433 0.0494057 5.65212e-19)
(-0.0377348 0.0587622 1.12383e-19)
(-0.0392313 0.0642108 3.7798e-19)
(-0.0370119 0.0667096 -5.8012e-19)
(-0.0312164 0.0670527 3.55968e-19)
(-0.0219277 0.0658792 -1.22609e-19)
(-0.00916231 0.0636922 9.54872e-19)
(0.00712986 0.0608803 -6.31878e-19)
(0.0270589 0.0577392 1.68588e-19)
(0.050784 0.0544924 -3.05117e-19)
(0.078499 0.0513082 -8.44933e-19)
(0.110414 0.0483138 -5.41771e-19)
(0.146732 0.0456065 -2.26943e-19)
(0.187626 0.043261 7.92698e-20)
(0.233207 0.0413349 9.10493e-20)
(0.283484 0.0398663 -1.30985e-19)
(0.338393 0.0389082 -2.51385e-19)
(0.397425 0.038345 -8.16898e-19)
(0.461066 0.0386839 -6.49524e-19)
(0.525253 0.0382891 -4.4609e-19)
(0.599608 0.0413358 -2.451e-19)
(0.654145 0.0387769 5.70557e-19)
(0.759712 0.046965 -7.04978e-19)
(-0.00973453 0.0142623 2.50073e-19)
(-0.0237773 0.0346431 1.08619e-19)
(-0.0331891 0.0486908 -1.78809e-19)
(-0.0380098 0.0577243 -1.53409e-19)
(-0.0384652 0.0628689 -2.39583e-19)
(-0.034755 0.065099 2.277e-19)
(-0.0270286 0.0652195 -6.82551e-21)
(-0.0153664 0.0638774 3.0486e-19)
(0.000229736 0.0615832 -6.14508e-19)
(0.0198324 0.0587335 6.67624e-19)
(0.0435789 0.0556334 8.64812e-20)
(0.0716544 0.0525174 9.79828e-21)
(0.104271 0.0495655 5.17555e-19)
(0.14164 0.0469173 3.52535e-19)
(0.183942 0.044681 1.14982e-19)
(0.231291 0.0429396 2.10427e-19)
(0.283697 0.0417549 -4.70676e-19)
(0.341009 0.0411592 1.06143e-19)
(0.402961 0.0412097 -6.30498e-19)
(0.468745 0.0417065 9.53639e-19)
(0.538634 0.0433306 1.20664e-20)
(0.607959 0.0438945 -1.83037e-20)
(0.686687 0.0485685 -2.0143e-19)
(0.743007 0.0465613 -6.85519e-19)
(0.850418 0.0566495 -3.76836e-19)
(-0.0101969 0.0141181 -5.85888e-19)
(-0.0246396 0.0341194 -1.12009e-19)
(-0.0338873 0.0477581 5.44066e-20)
(-0.0380164 0.0563893 1.71911e-19)
(-0.0372728 0.0611688 1.19329e-19)
(-0.0318727 0.0630903 -9.9797e-20)
(-0.0219696 0.0629707 -5.82571e-20)
(-0.00763451 0.0614658 4.91968e-19)
(0.0111502 0.0590941 -1.20862e-19)
(0.0344835 0.0562613 -1.0984e-19)
(0.0625292 0.0532833 2.0387e-19)
(0.0954917 0.0504063 1.6079e-19)
(0.133585 0.0478229 -2.03781e-19)
(0.176997 0.0456838 -7.35277e-19)
(0.225845 0.0441054 1.29559e-19)
(0.280128 0.0431732 -1.5937e-20)
(0.339685 0.0429435 -8.30191e-20)
(0.40413 0.0434301 1.22176e-19)
(0.472901 0.0446759 9.94797e-19)
(0.544861 0.0463925 -2.00693e-19)
(0.619857 0.0493448 -4.13632e-19)
(0.693065 0.0509969 -5.55841e-20)
(0.773618 0.0569914 4.8597e-19)
(0.830633 0.0556469 4.10729e-19)
(0.935213 0.06705 1.11625e-19)
(-0.0106511 0.0139437 2.29018e-19)
(-0.0254265 0.0334779 -2.88103e-19)
(-0.0344037 0.0466221 2.07153e-20)
(-0.0376933 0.054777 1.82118e-19)
(-0.0355611 0.0591374 3.25955e-19)
(-0.0282347 0.0607193 1.57321e-19)
(-0.0158659 0.060353 -1.80496e-19)
(0.00148952 0.0587046 5.51801e-20)
(0.0238733 0.0563023 3.55374e-19)
(0.051411 0.0535621 -4.33205e-19)
(0.0842875 0.0508117 1.19487e-19)
(0.122711 0.0483099 -4.05202e-19)
(0.166873 0.0462605 5.78217e-19)
(0.216893 0.0448224 3.46342e-19)
(0.272767 0.0441136 -2.36902e-19)
(0.33431 0.0442113 -2.4014e-20)
(0.401104 0.045152 -2.91067e-19)
(0.472443 0.0469132 2.50493e-19)
(0.547381 0.0494936 1.3398e-19)
(0.624441 0.0525347 2.22366e-19)
(0.702884 0.0567316 -8.31196e-19)
(0.77821 0.0595299 6.44878e-19)
(0.857674 0.0663567 -9.45539e-19)
(0.914018 0.0657171 4.66703e-19)
(1.01122 0.0776292 2.68037e-19)
(-0.0110956 0.0137416 -2.64978e-19)
(-0.0261216 0.0327258 6.19558e-19)
(-0.0346975 0.0452955 -1.36184e-19)
(-0.0369706 0.0529079 -6.73241e-19)
(-0.0332245 0.0568049 2.9818e-19)
(-0.0236945 0.0580273 -2.99503e-19)
(-0.00852463 0.0574219 -2.5099e-19)
(0.0122493 0.0556668 -2.79505e-19)
(0.0386951 0.0533013 3.23153e-19)
(0.0709608 0.0507534 4.14488e-19)
(0.109238 0.0483636 -3.51859e-19)
(0.153715 0.0464021 2.95553e-19)
(0.204514 0.045081 3.29736e-20)
(0.261632 0.04456 -1.39595e-19)
(0.324867 0.0449473 4.19496e-19)
(0.393762 0.0462962 -6.29842e-19)
(0.467547 0.0486015 3.7183e-19)
(0.545122 0.0517844 -2.65554e-19)
(0.625093 0.0557619 -9.33421e-20)
(0.705662 0.0601376 1.00917e-18)
(0.785464 0.0653712 1.04937e-18)
(0.860709 0.0692473 2.03989e-19)
(0.936178 0.0762983 -4.93934e-19)
(0.9903 0.0763129 -2.86882e-19)
(1.07636 0.0878208 1.30981e-19)
(-0.0115271 0.0135128 3.226e-19)
(-0.026705 0.0318679 -6.53691e-19)
(-0.0347218 0.0437898 2.42104e-19)
(-0.035769 0.0508037 5.1367e-19)
(-0.0301456 0.0542044 -4.3122e-19)
(-0.0180907 0.0550621 3.34883e-19)
(0.000264212 0.0542422 -4.10617e-19)
(0.0249062 0.0524373 3.6986e-20)
(0.0559262 0.0502 -2.13902e-19)
(0.0934834 0.0479713 -2.56695e-19)
(0.137752 0.0461039 6.21875e-20)
(0.188858 0.0448763 -5.32505e-19)
(0.246799 0.0445017 3.73818e-19)
(0.311368 0.045129 -1.00983e-20)
(0.382076 0.0468388 -7.90486e-20)
(0.458093 0.049638 -3.0004e-20)
(0.538221 0.0534542 5.10404e-20)
(0.620905 0.0581297 7.36896e-19)
(0.704296 0.0634664 -1.11688e-18)
(0.786333 0.0690598 5.02067e-19)
(0.865151 0.0750205 -1.13551e-18)
(0.93788 0.0797554 -3.99932e-20)
(1.00682 0.0863737 4.94224e-20)
(1.05721 0.0869324 3.59849e-19)
(1.12957 0.0971208 2.66526e-19)
(-0.011941 0.013257 1.53259e-19)
(-0.0271518 0.0309064 1.26729e-19)
(-0.0344238 0.0421158 -7.05996e-19)
(-0.0340002 0.0484863 -6.81981e-20)
(-0.0261951 0.051372 -2.0307e-19)
(-0.0112482 0.0518766 -7.95557e-20)
(0.0107246 0.0508872 1.20865e-18)
(0.0397325 0.0491132 -4.40557e-19)
(0.0758804 0.047122 -8.70521e-20)
(0.119317 0.045368 2.80865e-19)
(0.170161 0.0442131 -7.57027e-20)
(0.228417 0.0439377 1.96212e-19)
(0.29388 0.0447439 -1.37976e-19)
(0.366046 0.0467512 -1.03106e-20)
(0.444037 0.0499889 -2.45238e-19)
(0.526564 0.05439 8.15315e-20)
(0.611936 0.0597866 1.9728e-19)
(0.698138 0.065922 -2.1757e-19)
(0.782937 0.0724661 3.55417e-19)
(0.864111 0.0790218 -3.80163e-19)
(0.939577 0.0853374 2.22782e-19)
(1.0074 0.0905731 3.2454e-19)
(1.06798 0.0961372 2.72155e-20)
(1.11335 0.0971652 -6.02547e-20)
(1.17069 0.105145 -4.65907e-19)
(-0.0123305 0.012972 -5.89174e-20)
(-0.0274329 0.0298412 1.97457e-19)
(-0.0337432 0.0402832 5.02497e-19)
(-0.0315668 0.0459783 1.0521e-19)
(-0.0212334 0.0483467 6.84534e-20)
(-0.00298116 0.0485295 -1.31641e-20)
(0.0230897 0.0474385 -5.69242e-19)
(0.0570036 0.0458022 -1.2797e-19)
(0.0988614 0.0442036 1.42245e-19)
(0.148766 0.0431084 -8.37097e-20)
(0.206726 0.042882 7.37746e-19)
(0.272548 0.0437947 -7.4469e-20)
(0.345728 0.0460188 3.56542e-19)
(0.425359 0.0496194 6.14395e-19)
(0.51008 0.0545448 -3.40474e-19)
(0.598075 0.060624 1.33917e-19)
(0.687153 0.0675693 3.29312e-19)
(0.774898 0.0750119 -1.11618e-19)
(0.85884 0.0824986 -8.47163e-19)
(0.936766 0.0896415 1.76195e-20)
(1.00673 0.0959237 3.21917e-19)
(1.06761 0.101199 -2.9517e-19)
(1.11887 0.105245 3.27317e-19)
(1.15825 0.106792 -2.71981e-19)
(1.20033 0.111567 -3.13742e-19)
(-0.0126861 0.0126538 -2.62118e-19)
(-0.0275143 0.0286719 1.02626e-19)
(-0.0326126 0.0383007 -5.23765e-20)
(-0.0283631 0.0433029 -4.19706e-19)
(-0.0151118 0.0451702 3.23874e-19)
(0.00690421 0.0450848 1.2303e-19)
(0.0375957 0.0439858 -3.19448e-19)
(0.0769879 0.0426221 4.22929e-19)
(0.125148 0.0415915 -2.10629e-19)
(0.182081 0.0413662 -3.8888e-19)
(0.247612 0.042304 -1.10699e-18)
(0.321254 0.044647 4.24191e-19)
(0.402094 0.0485119 -7.68421e-19)
(0.488721 0.0538778 -2.93675e-20)
(0.579213 0.0605793 -8.62535e-20)
(0.671214 0.0683138 1.0941e-19)
(0.762087 0.0766597 -2.60168e-19)
(0.849158 0.0851379 -1.06166e-19)
(0.929937 0.0932068 3.62029e-19)
(1.00244 0.100491 -4.10442e-19)
(1.06518 0.106376 -4.80873e-19)
(1.11772 0.111182 6.92529e-19)
(1.1596 0.113567 -4.56497e-19)
(1.1922 0.115667 -5.05432e-20)
(1.21966 0.115903 -1.12716e-19)
(-0.0129962 0.0122993 -1.52588e-19)
(-0.027356 0.0273957 -1.83507e-19)
(-0.0309581 0.0361761 3.05722e-19)
(-0.0242758 0.0404841 2.18148e-20)
(-0.00767465 0.0418874 -5.78602e-19)
(0.0186053 0.0416118 -8.33283e-19)
(0.0544749 0.0406256 2.65713e-19)
(0.0999351 0.0396986 -3.35391e-19)
(0.154974 0.0394396 3.20591e-19)
(0.219431 0.0403177 -3.06358e-19)
(0.292853 0.0426662 7.26374e-19)
(0.374347 0.0466731 -1.04569e-19)
(0.462483 0.0523666 3.49625e-19)
(0.555258 0.0596044 5.03511e-19)
(0.650161 0.0680759 -5.43041e-19)
(0.744342 0.0773291 -5.70835e-19)
(0.834861 0.0868111 3.82075e-20)
(0.918996 0.0959551 1.23215e-19)
(0.994493 0.104185 -1.24067e-19)
(1.05984 0.11116 5.82373e-19)
(1.11422 0.116328 7.08724e-19)
(1.1578 0.120205 -7.9916e-19)
(1.19094 0.121181 1.12243e-19)
(1.2161 0.12326 2.04729e-19)
(1.23039 0.11764 -3.04451e-19)
(-0.0132483 0.0119036 4.36919e-19)
(-0.0269128 0.0260081 2.99071e-19)
(-0.028699 0.0339176 -4.5795e-19)
(-0.019185 0.0375479 3.03485e-19)
(0.00123806 0.0385465 1.96422e-19)
(0.0323185 0.0381849 9.59407e-19)
(0.0739474 0.0374615 6.39025e-19)
(0.126064 0.0371641 -3.17836e-21)
(0.188514 0.0379052 -2.39859e-19)
(0.260883 0.0401357 6.69193e-19)
(0.342327 0.0441393 -7.12691e-19)
(0.431433 0.0500166 2.89612e-19)
(0.526151 0.057669 2.23648e-19)
(0.623842 0.0667971 -6.95216e-19)
(0.72144 0.0769226 5.30327e-20)
(0.81573 0.0874427 8.06372e-19)
(0.903684 0.0976976 9.66914e-20)
(0.982792 0.107077 1.10019e-19)
(1.05129 0.115033 5.13258e-19)
(1.10831 0.121305 -3.4181e-19)
(1.15383 0.12549 -6.39684e-19)
(1.18861 0.128163 5.23478e-19)
(1.21391 0.128086 -1.2803e-18)
(1.23119 0.128682 5.80335e-19)
(1.242 0.12282 -1.7288e-19)
(-0.0134262 0.0114608 -4.86823e-19)
(-0.0261355 0.0245058 -5.35245e-19)
(-0.0257488 0.0315344 1.13271e-19)
(-0.012966 0.0345225 1.657e-19)
(0.0117877 0.0351998 -2.15195e-19)
(0.0482338 0.0348843 -9.39483e-19)
(0.0962127 0.0346025 -2.63274e-19)
(0.155548 0.0351551 6.50873e-19)
(0.225862 0.0371451 9.49954e-21)
(0.306378 0.040982 -3.08241e-19)
(0.395739 0.0468672 5.8524e-19)
(0.491898 0.0547735 -8.90465e-20)
(0.592123 0.0644355 1.00181e-18)
(0.693148 0.075368 2.00099e-19)
(0.791467 0.0869185 -2.39614e-19)
(0.88371 0.0983536 -3.03569e-19)
(0.967023 0.108954 4.58027e-20)
(1.03937 0.118125 2.08843e-19)
(1.09968 0.125411 4.04688e-19)
(1.14787 0.130677 5.20753e-20)
(1.18463 0.133696 -5.47772e-20)
(1.21134 0.135124 -2.01134e-19)
(1.2296 0.133981 6.14844e-19)
(1.2411 0.133425 9.21605e-20)
(1.24785 0.127179 5.27788e-19)
(-0.0135111 0.0109653 -1.85906e-20)
(-0.0249699 0.0228859 1.84781e-19)
(-0.0220161 0.0290374 2.6644e-19)
(-0.00549115 0.0314393 -4.10753e-19)
(0.0241337 0.0319045 5.79268e-20)
(0.0665287 0.0317956 1.90951e-19)
(0.12144 0.0321631 -1.33925e-19)
(0.188503 0.0338099 -6.49023e-20)
(0.267015 0.0373095 1.26831e-19)
(0.355714 0.0429989 -3.13971e-19)
(0.452608 0.0509558 -5.54806e-19)
(0.554925 0.060981 -2.86049e-19)
(0.659236 0.0726066 -2.0857e-19)
(0.761743 0.0851472 -6.38522e-19)
(0.858692 0.0977911 2.21533e-19)
(0.946824 0.10972 -8.54991e-22)
(1.02374 0.120216 -4.1316e-19)
(1.08809 0.128769 6.44476e-20)
(1.13962 0.135068 1.84804e-19)
(1.17903 0.139131 -4.53685e-23)
(1.20764 0.140915 5.49997e-20)
(1.22727 0.141137 5.16969e-19)
(1.23972 0.139043 -5.77216e-19)
(1.24667 0.137536 -6.3797e-19)
(1.25016 0.130987 -1.3168e-19)
(-0.0134825 0.010412 5.72922e-19)
(-0.0233571 0.0211473 5.25842e-19)