/*--------------------------------*- C++ -*----------------------------------*\
  =========                 |
  \\      /  F ield         | OpenFOAM: The Open Source CFD Toolbox
   \\    /   O peration     | Website:  https://openfoam.org
    \\  /    A nd           | Version:  7
     \\/     M anipulation  |
\*---------------------------------------------------------------------------*/
FoamFile
{
    version     2.0;
    format      ascii;
    class       surfaceScalarField;
    location    "40";
    object      phi;
}
// * * * * * * * * * * * * * * * * * * * * * * * * * * * * * * * * * * * * * //

dimensions      [0 3 -1 0 0 0 0];

internalField   nonuniform List<scalar> 
24025
(
-4.35918e-06
4.35918e-06
5.61154e-14
-1.47156e-05
1.03565e-05
2.37673e-13
-2.92129e-05
1.44972e-05
2.33725e-13
-4.62161e-05
1.70032e-05
3.15398e-13
-6.42648e-05
1.80487e-05
3.71159e-13
-8.20611e-05
1.77963e-05
3.16921e-13
-9.8464e-05
1.64029e-05
3.00617e-13
-0.000112499
1.40349e-05
2.54646e-13
-0.000123388
1.08887e-05
1.3337e-13
-0.000130602
7.21398e-06
-1.5937e-14
-0.000133941
3.33949e-06
-1.78105e-13
-0.000133637
-3.03971e-07
-3.75804e-13
-0.000130445
-3.19171e-06
-6.20358e-13
-0.000125667
-4.77844e-06
-8.73648e-13
-4.18017e-06
-1.12033e-12
-0.000121487
-4.21931e-06
8.57848e-06
-1.41824e-05
2.03196e-05
-2.80334e-05
2.83482e-05
-4.41313e-05
3.31012e-05
-6.10032e-05
3.49206e-05
-7.73316e-05
3.41246e-05
-9.19476e-05
3.10189e-05
-0.000103839
2.59265e-05
-0.00011218
1.9229e-05
-0.000116379
1.14137e-05
-0.000116167
3.12764e-06
-0.0001117
-4.77124e-06
-0.000103676
-1.12157e-05
-9.34062e-05
-1.50484e-05
-1.48888e-05
-8.26976e-05
-3.94225e-06
1.25207e-05
-1.31248e-05
2.95021e-05
-2.56925e-05
4.09159e-05
-3.99918e-05
4.74005e-05
-5.4525e-05
4.94538e-05
-6.79362e-05
4.75358e-05
-7.90024e-05
4.20851e-05
-8.66382e-05
3.35624e-05
-8.99212e-05
2.25119e-05
-8.81416e-05
9.63414e-06
-8.08869e-05
-4.12712e-06
-6.81542e-05
-1.75039e-05
-5.04737e-05
-2.88962e-05
-2.91355e-05
-3.63867e-05
-3.6889e-05
-7.13519e-06
-3.53307e-06
1.60538e-05
-1.15598e-05
3.75289e-05
-2.22245e-05
5.15805e-05
-3.38545e-05
5.90305e-05
-4.49157e-05
6.0515e-05
-5.39964e-05
5.66164e-05
-5.97953e-05
4.7884e-05
-6.1122e-05
3.4889e-05
-5.69155e-05
1.83055e-05
-4.62904e-05
-9.91003e-07
-2.8622e-05
-2.17955e-05
-3.67515e-06
-4.24507e-05
2.82486e-05
-6.082e-05
6.60648e-05
-7.42028e-05
-7.8273e-05
0.000107449
-2.9987e-06
1.90525e-05
-9.51066e-06
4.40409e-05
-1.76767e-05
5.97465e-05
-2.57983e-05
6.71521e-05
-3.22937e-05
6.70104e-05
-3.56801e-05
6.00028e-05
-3.45579e-05
4.67619e-05
-2.76042e-05
2.79353e-05
-1.35848e-05
4.28615e-06
8.60683e-06
-2.31827e-05
3.98722e-05
-5.30609e-05
8.07651e-05
-8.33436e-05
0.000131268
-0.000111322
0.000190509
-0.000133444
-0.000144014
0.000256249
-2.34725e-06
2.13997e-05
-7.00478e-06
4.86984e-05
-1.21053e-05
6.4847e-05
-1.59169e-05
7.09637e-05
-1.68001e-05
6.78936e-05
-1.31874e-05
5.63901e-05
-3.56502e-06
3.71395e-05
1.35404e-05
1.08299e-05
3.95614e-05
-2.17348e-05
7.58617e-05
-5.94829e-05
0.000123667
-0.000100866
0.000183912
-0.000143589
0.000256979
-0.00018439
0.000342302
-0.000218767
-0.000239242
0.00043753
-1.58727e-06
2.2987e-05
-4.07167e-06
5.11828e-05
-5.57097e-06
6.63463e-05
-4.31221e-06
6.9705e-05
1.41233e-06
6.21691e-05
1.32633e-05
4.45391e-05
3.28821e-05
1.75207e-05
6.19053e-05
-1.81934e-05
0.000101975
-6.18042e-05
0.000154727
-0.000112235
0.000221738
-0.000167877
0.000304383
-0.000226234
0.000403531
-0.000283537
0.000519021
-0.000334257
-0.000368708
0.000648487
-7.27632e-07
2.37146e-05
-7.37912e-07
5.11931e-05
1.86489e-06
6.37435e-05
8.91006e-06
6.26598e-05
2.21823e-05
4.88969e-05
4.34476e-05
2.32738e-05
7.44781e-05
-1.35098e-05
0.000117077
-6.07918e-05
0.000173093
-0.000117821
0.000244432
-0.000183574
0.000333023
-0.000256468
0.000440703
-0.000333914
0.000568911
-0.000411745
0.000718047
-0.000483393
-0.000536573
0.000885912
2.2696e-07
2.34877e-05
2.95878e-06
4.84613e-05
1.01381e-05
5.65642e-05
2.36462e-05
4.91518e-05
4.53538e-05
2.71893e-05
7.71397e-05
-8.51213e-06
0.000120913
-5.72835e-05
0.00017864
-0.000118518
0.000252362
-0.000191543
0.000344222
-0.000275434
0.000456464
-0.00036871
0.000591369
-0.000468818
0.000750986
-0.000571363
0.000936454
-0.00066886
-0.000746214
0.00114609
1.2639e-06
2.22238e-05
7.00316e-06
4.2722e-05
1.91945e-05
4.43729e-05
3.97925e-05
2.85537e-05
7.07635e-05
-3.78161e-06
0.000114106
-5.18542e-05
0.000171868
-0.000115046
0.000246168
-0.000192819
0.000339218
-0.000284593
0.000453344
-0.000389561
0.000591025
-0.000506391
0.000754887
-0.00063268
0.000947553
-0.000764029
0.00117103
-0.000892336
-0.000999774
0.00142459
2.38212e-06
1.98417e-05
1.13645e-05
3.37397e-05
2.89723e-05
2.67651e-05
5.72402e-05
2.85782e-07
9.82362e-05
-4.47776e-05
0.000154087
-0.000107705
0.000226983
-0.000187941
0.000319185
-0.000285022
0.000433042
-0.00039845
0.000571002
-0.00052752
0.000735654
-0.000671043
0.000929799
-0.000826824
0.00115645
-0.000990681
0.00141846
-0.00115435
-0.00129801
0.0017167
3.57433e-06
1.62673e-05
1.60175e-05
2.12965e-05
3.94096e-05
3.37293e-06
7.58651e-05
-3.61697e-05
0.00012757
-9.64824e-05
0.000196777
-0.000176913
0.000285818
-0.000276982
0.000397094
-0.000396297
0.000533062
-0.000534418
0.000696228
-0.000690686
0.000889159
-0.000863974
0.00111458
-0.00105225
0.00137556
-0.00125166
0.00167546
-0.00145426
-0.00163964
0.00201709
4.83455e-06
1.14328e-05
2.09337e-05
5.19733e-06
5.04309e-05
-2.61243e-05
9.55277e-05
-8.12664e-05
0.000158517
-0.000159472
0.000241784
-0.000260179
0.000347797
-0.000382995
0.000479088
-0.000527589
0.000638215
-0.000693545
0.000827702
-0.000880173
0.00104999
-0.00108626
0.00130748
-0.00130973
0.00160272
-0.0015469
0.00193883
-0.00179036
-0.00202284
0.00232203
6.1564e-06
5.27638e-06
2.60804e-05
-1.47267e-05
6.19531e-05
-6.1997e-05
0.000116052
-0.000135365
0.000190768
-0.000234188
0.000288601
-0.000358013
0.000412146
-0.000506539
0.000564054
-0.000679497
0.000746987
-0.000876478
0.000963524
-0.00109671
0.00121603
-0.00133877
0.00150652
-0.00160022
0.00183646
-0.00187684
0.00220668
-0.00216058
-0.00244147
0.00262531
7.53222e-06
-2.25585e-06
3.14203e-05
-3.86147e-05
7.38747e-05
-0.000104451
0.000137227
-0.000198717
0.000223939
-0.0003209
0.00033659
-0.000470664
0.000477855
-0.000647804
0.000650472
-0.000852115
0.000857205
-0.00108321
0.0011008
-0.0013403
0.00138391
-0.00162188
0.00170906
-0.00192538
0.00207791
-0.00224569
0.00248627
-0.00256894
-0.0028861
0.0029309
8.95332e-06
-1.12092e-05
3.69096e-05
-6.6571e-05
8.60786e-05
-0.00015362
0.000158808
-0.000271447
0.000257579
-0.000419671
0.000384981
-0.000598066
0.000543678
-0.000806502
0.000736384
-0.00104482
0.000965851
-0.00131268
0.00123492
-0.00160937
0.00154674
-0.0019337
0.00190523
-0.00228387
0.0023169
-0.00265736
0.00280091
-0.00305295
-0.00349336
0.00340817
1.04103e-05
-2.16194e-05
4.24996e-05
-9.86603e-05
9.84341e-05
-0.000209555
0.000180522
-0.000353534
0.000291187
-0.000530336
0.000432924
-0.000739802
0.00060824
-0.000981818
0.000819613
-0.00125619
0.00106947
-0.00156253
0.00136022
-0.00190012
0.00169444
-0.00226793
0.00207526
-0.00266469
0.00250723
-0.00308933
0.00299814
-0.00354385
-0.00404254
0.00354732
1.18921e-05
-3.35116e-05
4.81366e-05
-0.000134905
0.0001108
-0.000272218
0.000202078
-0.000444813
0.000324242
-0.0006525
0.000479558
-0.000895118
0.000670201
-0.00117246
0.000898166
-0.00148416
0.00116519
-0.00182956
0.00147274
-0.00220767
0.00182198
-0.00261716
0.0022138
-0.00305651
0.0026487
-0.00352424
0.00312558
-0.00402073
-0.00454905
0.00363209
1.33867e-05
-4.68983e-05
5.37619e-05
-0.00017528
0.000123024
-0.00034148
0.000223171
-0.00054496
0.000356212
-0.000785541
0.000524044
-0.00106295
0.000728326
-0.00137674
0.000970344
-0.00172618
0.00125088
-0.0021101
0.00157012
-0.0025269
0.00192748
-0.00297453
0.00232147
-0.0034505
0.00274922
-0.00395199
0.00320486
-0.00447637
-0.00501825
0.00367406
1.48799e-05
-6.17782e-05
5.931e-05
-0.00021971
0.000134941
-0.000417111
0.000243482
-0.000653501
0.000386558
-0.000928617
0.000565557
-0.00124195
0.000781457
-0.00159264
0.00103465
-0.00197937
0.0013248
-0.00240025
0.00165066
-0.00285276
0.00200994
-0.0033338
0.0023991
-0.00383966
0.00281296
-0.00436585
0.00324359
-0.004907
-0.00545235
0.00367769
1.6355e-05
-7.81332e-05
6.47066e-05
-0.000268062
0.000146373
-0.000498777
0.000262669
-0.000769797
0.000414721
-0.00108067
0.000603273
-0.0014305
0.000828479
-0.00181785
0.00108972
-0.00224061
0.00138543
-0.00269596
0.00171297
-0.0031803
0.00206852
-0.00368935
0.00244696
-0.0042181
0.00284176
-0.00476065
0.00324444
-0.00530969
-0.00585162
0.00364371
1.77915e-05
-9.59247e-05
6.98669e-05
-0.000320137
0.00015712
-0.00058603
0.000280368
-0.000893045
0.000440123
-0.00124042
0.000636361
-0.00162674
0.000868308
-0.0020498
0.00113425
-0.00250655
0.00143139
-0.0029931
0.0017558
-0.00350471
0.00210239
-0.00403594
0.00246498
-0.00458069
0.00283642
-0.00513209
0.00320854
-0.00568181
-0.00621538
0.00357229
1.91657e-05
-0.00011509
7.46956e-05
-0.000375667
0.000166965
-0.000678299
0.000296192
-0.00102227
0.000462165
-0.0014064
0.000663995
-0.00182857
0.000899896
-0.0022857
0.00116703
-0.00277369
0.00146145
-0.00328752
0.00177808
-0.00382134
0.00211089
-0.00436875
0.00245311
-0.00492291
0.00279752
-0.0054765
0.0031368
-0.00602109
-0.0065427
0.00346412
2.04501e-05
-0.00013554
7.90877e-05
-0.000434305
0.000175678
-0.000774889
0.000309743
-0.00115634
0.000480253
-0.00157691
0.000685374
-0.00203369
0.000922274
-0.0025226
0.00118702
-0.00303844
0.0014746
-0.00357509
0.00177904
-0.00412578
0.00209369
-0.0046834
0.00241161
-0.00524082
0.00272596
-0.00579086
0.00303056
-0.00632569
-0.00683285
0.00332072
2.16145e-05
-0.000157155
8.29319e-05
-0.000495622
0.000183021
-0.000874978
0.000320621
-0.00129394
0.00049381
-0.0017501
0.00069976
-0.00223964
0.000934594
-0.00275743
0.00119336
-0.0032972
0.00147013
-0.00385187
0.0017583
-0.00441395
0.00205094
-0.00497604
0.00234127
-0.00553115
0.0026232
-0.00607279
0.00289187
-0.00659435
-0.00708552
0.00314453
2.26269e-05
-0.000179782
8.6114e-05
-0.000559109
0.000188758
-0.000977622
0.000328446
-0.00143363
0.000502308
-0.00192396
0.000706514
-0.00244385
0.000936182
-0.0029871
0.00118545
-0.00354647
0.00144771
-0.00411413
0.00171596
-0.0046822
0.00198331
-0.00524339
0.00224347
-0.00579131
0.00249133
-0.00632065
0.00272341
-0.00682643
-0.00730082
0.0029387
2.34548e-05
-0.000203237
8.8522e-05
-0.000624176
0.000192666
-0.00108177
0.000332869
-0.00157383
0.000505295
-0.00209639
0.000705131
-0.00264368
0.000926579
-0.00320855
0.00116303
-0.00378292
0.0014074
-0.00435849
0.00165259
-0.00492739
0.00189201
-0.00548281
0.00212013
-0.00601944
0.00233295
-0.00653347
0.00252836
-0.00702184
-0.00747931
0.00270685
2.40665e-05
-0.000227303
9.00504e-05
-0.00069016
0.000194542
-0.00118626
0.000333596
-0.00171288
0.000502416
-0.00226521
0.000695268
-0.00283653
0.000905564
-0.00341884
0.00112614
-0.0040035
0.00134966
-0.00458202
0.0015692
-0.00514693
0.00177872
-0.00569233
0.00197362
-0.00621434
0.00215105
-0.00671091
0.00231022
-0.007181
-0.0076219
0.00245281
2.44324e-05
-0.000251735
9.06053e-05
-0.000756333
0.000194217
-0.00128987
0.000330396
-0.00184906
0.000493432
-0.00242824
0.000676766
-0.00301987
0.000873176
-0.00361525
0.00107514
-0.00420546
0.00127535
-0.00478223
0.00146723
-0.00533881
0.00164551
-0.00587062
0.00180661
-0.00637543
0.00194884
-0.00685314
0.00207256
-0.00730472
-0.00772974
0.0021804
2.45263e-05
-0.000276262
9.01082e-05
-0.000821915
0.00019156
-0.00139132
0.000323117
-0.00198062
0.000478231
-0.00258336
0.00064965
-0.00319129
0.000829698
-0.0037953
0.00101072
-0.00438648
0.00118562
-0.00495712
0.00134842
-0.00550161
0.00149471
-0.00601691
0.00162195
-0.00650267
0.00172958
-0.00696077
0.00181893
-0.00739408
-0.00780412
0.00189332
2.43264e-05
-0.000300588
8.84994e-05
-0.000886088
0.000186484
-0.00148931
0.000311688
-0.00210582
0.000456834
-0.0027285
0.000614133
-0.00334859
0.000775649
-0.00395682
0.000933799
-0.00454463
0.00108191
-0.00510524
0.00121473
-0.00563443
0.00132879
-0.00613097
0.00142257
-0.00659645
0.00149648
-0.00703468
0.0015527
-0.00745029
-0.00784641
0.00159498
2.3816e-05
-0.000324404
8.574e-05
-0.000948012
0.000178951
-0.00158252
0.000296124
-0.00222299
0.00042939
-0.00286177
0.000570596
-0.00348979
0.000711746
-0.00409797
0.000845528
-0.00467841
0.000965851
-0.00522556
0.00106828
-0.00573686
0.00115029
-0.00621297
0.00121132
-0.00665748
0.00125261
-0.00707598
0.00127697
-0.00747464
-0.00785793
0.00128848
2.29844e-05
-0.000347388
8.18138e-05
-0.00100684
0.000168973
-0.00166968
0.000276526
-0.00233055
0.000396168
-0.00298141
0.000519573
-0.0036132
0.000638877
-0.00421727
0.00074721
-0.00478675
0.000839186
-0.00531754
0.000911232
-0.0058089
0.000961733
-0.00626348
0.000990958
-0.00668671
0.00100082
-0.00708584
0.000994585
-0.00746841
-0.00783987
0.000976532
2.18269e-05
-0.000369215
7.67273e-05
-0.00106174
0.000156608
-0.00174956
0.000253068
-0.00242701
0.000357543
-0.00308588
0.000461721
-0.00371738
0.00055805
-0.0043136
0.00064025
-0.00486895
0.000703718
-0.005381
0.000745748
-0.00585093
0.000765552
-0.00628328
0.000764083
-0.00668524
0.000743731
-0.00706549
0.000708048
-0.00743272
-0.00779334
0.000661514
2.03452e-05
-0.000389561
7.05091e-05
-0.00111191
0.000141961
-0.00182101
0.000225999
-0.00251104
0.000313981
-0.00317387
0.000397793
-0.00380119
0.000470361
-0.00438617
0.000526106
-0.00492469
0.000561251
-0.00541615
0.000573929
-0.00586361
0.000564074
-0.00627343
0.000533158
-0.00665432
0.000483832
-0.00701616
0.000419589
-0.00736848
-0.00771927
0.000345515
1.85471e-05
-0.000408108
6.32092e-05
-0.00115657
0.000125177
-0.00188298
0.000195623
-0.00258149
0.000266014
-0.00324426
0.00032861
-0.00386378
0.000376949
-0.00443451
0.000406236
-0.00495398
0.000413538
-0.00542345
0.000397768
-0.00584784
0.00035948
-0.00623514
0.000300539
-0.00659538
0.000223767
-0.00693939
0.000132319
-0.00727703
-0.00761437
2.74233e-05
1.64463e-05
-0.000424554
5.48967e-05
-0.00119502
0.000106436
-0.00193452
0.000162295
-0.00263735
0.00021423
-0.00329619
0.00025503
-0.00390458
0.00027896
-0.00445844
0.000282058
-0.00495708
0.000262224
-0.00540362
0.000219084
-0.0058047
0.000153708
-0.00616976
6.82456e-05
-0.00650992
-3.43684e-05
-0.00683677
-0.000150746
-0.00716066
-0.00748793
-0.000277189
1.40618e-05
-0.000438616
4.56579e-05
-0.00122661
8.5948e-05
-0.00197481
0.000126405
-0.00267781
0.000159247
-0.00332903
0.000177925
-0.00392326
0.000177516
-0.00445803
0.000154917
-0.00493448
0.000108823
-0.00535752
3.94892e-05
-0.00573537
-5.16198e-05
-0.00607865
-0.000162207
-0.00639933
-0.000289433
-0.00670955
-0.000430019
-0.00702007
-0.0073383
-0.000579648
1.1418e-05
-0.000450034
3.55941e-05
-0.00125079
6.39477e-05
-0.00200316
8.83737e-05
-0.00270223
0.000101703
-0.00334236
9.81635e-05
-0.00391972
7.37043e-05
-0.00443357
2.60761e-05
-0.00488685
-4.52888e-05
-0.00528616
-0.000139581
-0.00564108
-0.000255056
-0.00596318
-0.000389415
-0.00626497
-0.000540024
-0.00655894
-0.000703768
-0.00685633
-0.0071654
-0.000876668
8.54395e-06
-0.000458578
2.48201e-05
-0.00126707
4.06895e-05
-0.00201903
4.86348e-05
-0.00271018
4.22473e-05
-0.00333598
1.66147e-05
-0.00389409
-3.14474e-05
-0.00438551
-0.000103325
-0.00481497
-0.000198884
-0.0051906
-0.000316871
-0.00552309
-0.000455354
-0.00582469
-0.000612131
-0.0061082
-0.000784906
-0.00638616
-0.000970969
-0.00667026
-0.00696993
-0.00116644
5.47538e-06
-0.000464053
1.34629e-05
-0.00127505
1.64436e-05
-0.00202201
7.6652e-06
-0.0027014
-1.84815e-05
-0.00330983
-6.5959e-05
-0.00384661
-0.000136997
-0.00431447
-0.000232215
-0.00471975
-0.00035087
-0.00507194
-0.000491308
-0.00538265
-0.000651472
-0.00566453
-0.000829323
-0.00593035
-0.00102303
-0.00619246
-0.00123049
-0.0064628
-0.00675261
-0.00144781
2.2962e-06
-0.000466349
1.64982e-06
-0.00127441
-8.52252e-06
-0.00201184
-3.41731e-05
-0.00267575
-7.98973e-05
-0.00326411
-0.000148721
-0.00377779
-0.00024201
-0.00422118
-0.000359628
-0.00460213
-0.000500282
-0.00493129
-0.000661988
-0.00522095
-0.000842589
-0.00548393
-0.00104022
-0.00573272
-0.00125359
-0.00597908
-0.00148151
-0.00623489
-0.00651398
-0.00172014
-1.15933e-06
-0.00046519
-1.0495e-05
-0.00126507
-3.39335e-05
-0.0019884
-7.635e-05
-0.00263333
-0.000141328
-0.00319913
-0.000230917
-0.0036882
-0.000345633
-0.00410646
-0.000484666
-0.0044631
-0.000646256
-0.0047697
-0.00082815
-0.00503905
-0.0010281
-0.00528398
-0.00124434
-0.00551647
-0.00147611
-0.00574731
-0.00172339
-0.0059876
-0.00625391
-0.00198346
-4.5537e-06
-0.000460636
-2.27989e-05
-0.00124683
-5.9486e-05
-0.00195171
-0.00011844
-0.00257438
-0.000202189
-0.00311538
-0.000311818
-0.00357857
-0.000447044
-0.00397124
-0.000606471
-0.00430367
-0.000787974
-0.0045882
-0.00098912
-0.00483791
-0.0012076
-0.00506551
-0.00144167
-0.0052824
-0.00169081
-0.00549817
-0.0019561
-0.00572232
-0.00597067
-0.00223933
-8.0264e-06
-0.00045261
-3.51349e-05
-0.00121972
-8.49062e-05
-0.00190194
-0.000160013
-0.00249927
-0.000261901
-0.00301349
-0.000390717
-0.00344975
-0.000545439
-0.00381652
-0.000724181
-0.00412493
-0.000924568
-0.00438781
-0.00114413
-0.00461834
-0.00138065
-0.00482899
-0.00163252
-0.00503053
-0.00189937
-0.00523131
-0.0021841
-0.00543759
-0.00566406
-0.00249071
-1.14996e-05
-0.00044111
-4.73615e-05
-0.00118386
-0.000109921
-0.00183938
-0.000200653
-0.00240854
-0.000319914
-0.00289423
-0.000466939
-0.00330273
-0.000640032
-0.00364342
-0.000836893
-0.00392807
-0.001055
-0.00416971
-0.00129196
-0.00438138
-0.00154591
-0.00457504
-0.00181575
-0.0047607
-0.00210113
-0.00494593
-0.00240254
-0.00513619
-0.00533033
-0.00273627
-1.49278e-05
-0.000426182
-5.93404e-05
-0.00113944
-0.000134273
-0.00176445
-0.000239974
-0.00230284
-0.00037572
-0.00275849
-0.000539869
-0.00313858
-0.000730099
-0.00345319
-0.00094374
-0.00371443
-0.00117814
-0.0039353
-0.00143102
-0.0041285
-0.00170072
-0.00430534
-0.00198637
-0.00447505
-0.0022878
-0.0046445
-0.00260614
-0.00481785
-0.00499293
-0.00294354
-1.82704e-05
-0.000407912
-7.09436e-05
-0.00108677
-0.000157722
-0.00167767
-0.000277627
-0.00218293
-0.000428871
-0.00260724
-0.000608978
-0.00295847
-0.000815041
-0.00324713
-0.00104405
-0.00348542
-0.00129322
-0.00368613
-0.00156028
-0.00386144
-0.00184363
-0.00402198
-0.00214241
-0.00417628
-0.00245635
-0.00433055
-0.00278578
-0.00448842
-0.00464908
-0.00312962
-2.14901e-05
-0.000386422
-8.20542e-05
-0.00102621
-0.000180058
-0.00157967
-0.000313307
-0.00204968
-0.00047899
-0.00244156
-0.000673843
-0.00276362
-0.000894415
-0.00302656
-0.00113738
-0.00324245
-0.00139984
-0.00342368
-0.00167948
-0.00358179
-0.00197473
-0.00372674
-0.00228466
-0.00386635
-0.0026089
-0.00400632
-0.00294731
-0.00415
-0.00429766
-0.00329874
-2.4553e-05
-0.000361869
-9.25681e-05
-0.000958191
-0.000201092
-0.00147114
-0.000346754
-0.00190402
-0.000525765
-0.00226255
-0.000734127
-0.00255526
-0.000967899
-0.00279279
-0.00122348
-0.00298687
-0.00149785
-0.0031493
-0.0017887
-0.00329094
-0.00209446
-0.00342098
-0.0024142
-0.0035466
-0.00274752
-0.00367301
-0.00309419
-0.00380333
-0.00393839
-0.00345346
-2.74289e-05
-0.00033444
-0.000102393
-0.000883228
-0.000220664
-0.00135287
-0.000377747
-0.00174694
-0.00056894
-0.00207135
-0.00078957
-0.00233463
-0.00103526
-0.0025471
-0.00130217
-0.00271996
-0.0015872
-0.00286427
-0.00188805
-0.0029901
-0.00220319
-0.00310584
-0.00253175
-0.00321804
-0.00287336
-0.0033314
-0.00322788
-0.00344881
-0.00357132
-0.00359495
-3.00907e-05
-0.000304349
-0.000111448
-0.00080187
-0.000238635
-0.00122569
-0.000406101
-0.00157947
-0.000608304
-0.00186915
-0.000839964
-0.00210297
-0.00109632
-0.00229074
-0.00137334
-0.00244294
-0.00166786
-0.00256975
-0.00197762
-0.00268034
-0.00230115
-0.00278231
-0.00263769
-0.0028815
-0.00298695
-0.00298214
-0.00334894
-0.00308682
-0.00319666
-0.0037236
-3.25147e-05
-0.000271835
-0.000119663
-0.000714722
-0.000254884
-0.00109046
-0.00043166
-0.0014027
-0.000643685
-0.00165712
-0.00088514
-0.00186151
-0.00115093
-0.00202495
-0.00143688
-0.00215699
-0.00173979
-0.00226684
-0.00205744
-0.00236269
-0.00238847
-0.00245128
-0.0027322
-0.00253776
-0.00308849
-0.00262585
-0.00345747
-0.00271783
-0.0028148
-0.00383934
-3.46802e-05
-0.000237155
-0.000126979
-0.000622423
-0.000269312
-0.000948131
-0.000454292
-0.00121772
-0.000674937
-0.00143648
-0.000924958
-0.00161149
-0.00119899
-0.00175092
-0.00149271
-0.00186326
-0.00180294
-0.00195661
-0.00212751
-0.00203813
-0.00246514
-0.00211364
-0.00281529
-0.00218761
-0.00317793
-0.00226322
-0.00355333
-0.00234243
-0.00242625
-0.00394188
-3.65693e-05
-0.000200585
-0.000133342
-0.00052565
-0.000281832
-0.000799641
-0.000473887
-0.00102566
-0.00070194
-0.00120843
-0.000959302
-0.00135413
-0.00124037
-0.00146985
-0.00154076
-0.00156288
-0.00185726
-0.00164012
-0.00218777
-0.00170761
-0.00253113
-0.00177028
-0.00288689
-0.00183185
-0.00325513
-0.00189498
-0.00363627
-0.00196129
-0.00203168
-0.00403084
-3.81667e-05
-0.000162419
-0.000138711
-0.000425106
-0.000292373
-0.000645979
-0.000490353
-0.000827685
-0.000724593
-0.000974185
-0.000988074
-0.00109065
-0.00127501
-0.00118292
-0.00158094
-0.00125695
-0.00190266
-0.00131839
-0.00223816
-0.00137212
-0.00258634
-0.0014221
-0.00294686
-0.00147133
-0.00331991
-0.00152193
-0.00370599
-0.00157521
-0.0016319
-0.00410577
-3.94598e-05
-0.000122959
-0.000143048
-0.000321517
-0.000300875
-0.000488152
-0.000503615
-0.000624945
-0.000742814
-0.000734987
-0.00101119
-0.000822273
-0.00130282
-0.000891289
-0.00161317
-0.000946596
-0.00193909
-0.000992469
-0.0022786
-0.00103262
-0.00263068
-0.00107002
-0.00299507
-0.00110694
-0.00337204
-0.00114496
-0.00376218
-0.00118506
-0.00122781
-0.00416627
-4.04386e-05
-8.25201e-05
-0.000146327
-0.000215629
-0.000307293
-0.000327186
-0.000513613
-0.000418624
-0.000756537
-0.000492063
-0.00102859
-0.000550224
-0.00132373
-0.000596146
-0.00163741
-0.000632912
-0.00196648
-0.000663399
-0.002309
-0.000690094
-0.00266403
-0.000714996
-0.00303136
-0.000739608
-0.00341132
-0.000764994
-0.00380459
-0.000791798
-0.000820408
-0.00421198
-4.10953e-05
-4.14249e-05
-0.000148524
-0.000108201
-0.00031159
-0.000164119
-0.000520304
-0.000209911
-0.000765713
-0.000246653
-0.00104021
-0.000275724
-0.0013377
-0.000298659
-0.0016536
-0.000317011
-0.00198477
-0.000332226
-0.00232932
-0.000345553
-0.00268632
-0.000357994
-0.00305562
-0.000370301
-0.00343761
-0.000383006
-0.00383298
-0.00039643
-0.00041077
-0.00424262
-4.14249e-05
-1.25123e-13
-0.000149626
-3.51468e-13
-0.000313745
-5.71542e-13
-0.000523656
-7.66935e-13
-0.00077031
-9.76558e-13
-0.00104603
-1.19646e-12
-0.00134469
-1.42557e-12
-0.0016617
-1.67733e-12
-0.00199393
-1.93407e-12
-0.00233948
-2.16777e-12
-0.00269748
-2.38863e-12
-0.00306778
-2.58872e-12
-0.00345078
-2.76723e-12
-0.00384722
-2.90395e-12
-3.0266e-12
-0.00425798
-4.14249e-05
4.14249e-05
-0.000149626
0.000108201
-0.000313745
0.000164119
-0.000523656
0.000209911
-0.00077031
0.000246653
-0.00104603
0.000275724
-0.00134469
0.000298659
-0.0016617
0.000317011
-0.00199393
0.000332226
-0.00233948
0.000345553
-0.00269748
0.000357994
-0.00306778
0.000370301
-0.00345078
0.000383006
-0.00384722
0.00039643
0.00041077
-0.00425798
-4.10953e-05
8.25201e-05
-0.000148524
0.000215629
-0.00031159
0.000327186
-0.000520304
0.000418624
-0.000765713
0.000492063
-0.00104021
0.000550224
-0.0013377
0.000596146
-0.0016536
0.000632912
-0.00198477
0.000663399
-0.00232932
0.000690094
-0.00268632
0.000714996
-0.00305562
0.000739608
-0.00343761
0.000764994
-0.00383298
0.000791798
0.000820408
-0.00424262
-4.04386e-05
0.000122959
-0.000146327
0.000321517
-0.000307293
0.000488152
-0.000513613
0.000624945
-0.000756537
0.000734987
-0.00102859
0.000822273
-0.00132373
0.000891289
-0.00163741
0.000946596
-0.00196648
0.000992469
-0.002309
0.00103262
-0.00266403
0.00107002
-0.00303136
0.00110694
-0.00341132
0.00114496
-0.00380459
0.00118506
0.00122781
-0.00421198
-3.94598e-05
0.000162419
-0.000143048
0.000425106
-0.000300875
0.000645979
-0.000503615
0.000827685
-0.000742814
0.000974185
-0.00101119
0.00109065
-0.00130282
0.00118292
-0.00161317
0.00125695
-0.00193909
0.00131839
-0.0022786
0.00137212
-0.00263068
0.0014221
-0.00299507
0.00147133
-0.00337204
0.00152193
-0.00376218
0.00157521
0.0016319
-0.00416627
-3.81667e-05
0.000200585
-0.000138711
0.00052565
-0.000292373
0.000799641
-0.000490353
0.00102566
-0.000724593
0.00120843
-0.000988074
0.00135413
-0.00127501
0.00146985
-0.00158094
0.00156288
-0.00190266
0.00164012
-0.00223816
0.00170761
-0.00258634
0.00177028
-0.00294686
0.00183185
-0.00331991
0.00189498
-0.00370599
0.00196129
0.00203168
-0.00410577
-3.65693e-05
0.000237155
-0.000133342
0.000622423
-0.000281832
0.000948131
-0.000473887
0.00121772
-0.00070194
0.00143648
-0.000959302
0.00161149
-0.00124037
0.00175092
-0.00154076
0.00186326
-0.00185726
0.00195661
-0.00218777
0.00203813
-0.00253113
0.00211364
-0.00288689
0.00218761
-0.00325513
0.00226322
-0.00363627
0.00234243
0.00242625
-0.00403084
-3.46802e-05
0.000271835
-0.000126979
0.000714722
-0.000269312
0.00109046
-0.000454292
0.0014027
-0.000674937
0.00165712
-0.000924958
0.00186151
-0.00119899
0.00202495
-0.00149271
0.00215699
-0.00180294
0.00226684
-0.00212751
0.00236269
-0.00246514
0.00245128
-0.00281529
0.00253776
-0.00317793
0.00262585
-0.00355333
0.00271783
0.0028148
-0.00394188
-3.25147e-05
0.000304349
-0.000119663
0.00080187
-0.000254884
0.00122569
-0.00043166
0.00157947
-0.000643685
0.00186915
-0.00088514
0.00210297
-0.00115093
0.00229074
-0.00143688
0.00244294
-0.00173979
0.00256975
-0.00205744
0.00268034
-0.00238847
0.00278231
-0.0027322
0.0028815
-0.00308849
0.00298214
-0.00345747
0.00308682
0.00319666
-0.00383934
-3.00907e-05
0.00033444
-0.000111448
0.000883228
-0.000238635
0.00135287
-0.000406101
0.00174694
-0.000608304
0.00207135
-0.000839964
0.00233463
-0.00109632
0.0025471
-0.00137334
0.00271996
-0.00166786
0.00286427
-0.00197762
0.0029901
-0.00230115
0.00310584
-0.00263769
0.00321804
-0.00298695
0.0033314
-0.00334894
0.00344881
0.00357132
-0.0037236
-2.74289e-05
0.000361869
-0.000102393
0.000958191
-0.000220664
0.00147114
-0.000377747
0.00190402
-0.00056894
0.00226255
-0.00078957
0.00255526
-0.00103526
0.00279279
-0.00130217
0.00298687
-0.0015872
0.0031493
-0.00188805
0.00329094
-0.00220319
0.00342098
-0.00253175
0.0035466
-0.00287336
0.00367301
-0.00322788
0.00380333
0.00393839
-0.00359495
-2.4553e-05
0.000386422
-9.25681e-05
0.00102621
-0.000201092
0.00157967
-0.000346754
0.00204968
-0.000525765
0.00244156
-0.000734127
0.00276362
-0.000967899
0.00302656
-0.00122348
0.00324245
-0.00149785
0.00342368
-0.0017887
0.00358179
-0.00209446
0.00372674
-0.0024142
0.00386635
-0.00274752
0.00400632
-0.00309419
0.00415
0.00429766
-0.00345346
-2.14901e-05
0.000407912
-8.20542e-05
0.00108677
-0.000180058
0.00167767
-0.000313307
0.00218293
-0.00047899
0.00260724
-0.000673843
0.00295847
-0.000894415
0.00324713
-0.00113738
0.00348542
-0.00139984
0.00368613
-0.00167948
0.00386144
-0.00197473
0.00402198
-0.00228466
0.00417628
-0.0026089
0.00433055
-0.00294731
0.00448842
0.00464908
-0.00329874
-1.82704e-05
0.000426182
-7.09436e-05
0.00113944
-0.000157722
0.00176445
-0.000277627
0.00230284
-0.000428871
0.00275849
-0.000608978
0.00313858
-0.000815041
0.00345319
-0.00104405
0.00371443
-0.00129322
0.0039353
-0.00156028
0.0041285
-0.00184363
0.00430534
-0.00214241
0.00447505
-0.00245635
0.0046445
-0.00278578
0.00481785
0.00499293
-0.00312962
-1.49278e-05
0.00044111
-5.93404e-05
0.00118386
-0.000134273
0.00183938
-0.000239974
0.00240854
-0.00037572
0.00289423
-0.000539869
0.00330273
-0.000730099
0.00364342
-0.00094374
0.00392807
-0.00117814
0.00416971
-0.00143102
0.00438138
-0.00170072
0.00457504
-0.00198637
0.0047607
-0.0022878
0.00494593
-0.00260614
0.00513619
0.00533033
-0.00294354
-1.14996e-05
0.00045261
-4.73615e-05
0.00121972
-0.000109921
0.00190194
-0.000200653
0.00249927
-0.000319914
0.00301349
-0.000466939
0.00344975
-0.000640032
0.00381652
-0.000836893
0.00412493
-0.001055
0.00438781
-0.00129196
0.00461834
-0.00154591
0.00482899
-0.00181575
0.00503053
-0.00210113
0.00523131
-0.00240254
0.00543759
0.00566406
-0.00273627
-8.0264e-06
0.000460636
-3.51349e-05
0.00124683
-8.49062e-05
0.00195171
-0.000160013
0.00257438
-0.000261901
0.00311538
-0.000390717
0.00357857
-0.000545439
0.00397124
-0.000724181
0.00430367
-0.000924568
0.0045882
-0.00114413
0.00483791
-0.00138065
0.00506551
-0.00163252
0.0052824
-0.00189937
0.00549817
-0.0021841
0.00572232
0.00597067
-0.00249071
-4.5537e-06
0.00046519
-2.27989e-05
0.00126507
-5.9486e-05
0.0019884
-0.00011844
0.00263333
-0.000202189
0.00319913
-0.000311818
0.0036882
-0.000447044
0.00410646
-0.000606471
0.0044631
-0.000787974
0.0047697
-0.00098912
0.00503905
-0.0012076
0.00528398
-0.00144167
0.00551647
-0.00169081
0.00574731
-0.0019561
0.0059876
0.00625391
-0.00223933
-1.15933e-06
0.000466349
-1.0495e-05
0.00127441
-3.39335e-05
0.00201184
-7.635e-05
0.00267575
-0.000141328
0.00326411
-0.000230917
0.00377779
-0.000345633
0.00422118
-0.000484666
0.00460213
-0.000646256
0.00493129
-0.00082815
0.00522095
-0.0010281
0.00548393
-0.00124434
0.00573272
-0.00147611
0.00597908
-0.00172339
0.00623489
0.00651398
-0.00198346
2.2962e-06
0.000464053
1.64982e-06
0.00127505
-8.52252e-06
0.00202201
-3.41731e-05
0.0027014
-7.98973e-05
0.00330983
-0.000148721
0.00384661
-0.00024201
0.00431447
-0.000359628
0.00471975
-0.000500282
0.00507194
-0.000661988
0.00538265
-0.000842589
0.00566453
-0.00104022
0.00593035
-0.00125359
0.00619246
-0.00148151
0.0064628
0.00675261
-0.00172014
5.47538e-06
0.000458578
1.34629e-05
0.00126707
1.64436e-05
0.00201903
7.6652e-06
0.00271018
-1.84815e-05
0.00333598
-6.5959e-05
0.00389409
-0.000136997
0.00438551
-0.000232215
0.00481497
-0.00035087
0.0051906
-0.000491308
0.00552309
-0.000651472
0.00582469
-0.000829323
0.0061082
-0.00102303
0.00638616
-0.00123049
0.00667026
0.00696993
-0.00144781
8.54395e-06
0.000450034
2.48201e-05
0.00125079
4.06895e-05
0.00200316
4.86348e-05
0.00270223
4.22473e-05
0.00334236
1.66147e-05
0.00391972
-3.14474e-05
0.00443357
-0.000103325
0.00488685
-0.000198884
0.00528616
-0.000316871
0.00564108
-0.000455354
0.00596318
-0.000612131
0.00626497
-0.000784906
0.00655894
-0.000970969
0.00685633
0.0071654
-0.00116644