/*--------------------------------*- C++ -*----------------------------------*\
  =========                 |
  \\      /  F ield         | OpenFOAM: The Open Source CFD Toolbox
   \\    /   O peration     | Website:  https://openfoam.org
    \\  /    A nd           | Version:  7
     \\/     M anipulation  |
\*---------------------------------------------------------------------------*/
FoamFile
{
    version     2.0;
    format      ascii;
    class       volVectorField;
    location    "40";
    object      U;
}
// * * * * * * * * * * * * * * * * * * * * * * * * * * * * * * * * * * * * * //

dimensions      [0 1 -1 0 0 0 0];

internalField   nonuniform List<vector> 
12150
(
(-0.00060741 0.000665285 -6.7714e-22)
(-0.00297745 0.00146442 6.80404e-22)
(-0.00708634 0.00187187 -3.23338e-21)
(-0.0116885 0.00199416 3.72369e-21)
(-0.0161903 0.00190489 -3.65324e-21)
(-0.0202239 0.0016627 -5.3451e-21)
(-0.0235194 0.00131643 -3.28952e-23)
(-0.0259089 0.000907523 8.70424e-22)
(-0.0273145 0.00047285 -8.06148e-22)
(-0.0277359 4.71239e-05 8.16739e-23)
(-0.0272454 -0.000335269 4.54327e-21)
(-0.0259905 -0.000639434 3.87791e-21)
(-0.0241874 -0.000832301 -4.47418e-21)
(-0.022075 -0.00088828 -4.1752e-21)
(-0.0200227 -0.00077014 -6.58999e-22)
(-0.000730529 0.00196985 1.93865e-21)
(-0.00319003 0.00433038 -1.94852e-21)
(-0.00722592 0.00552925 -3.61387e-21)
(-0.011639 0.00588193 1.24878e-20)
(-0.0158589 0.00560707 -1.47388e-21)
(-0.0195341 0.00487884 -8.16782e-22)
(-0.0224077 0.00384227 1.14223e-20)
(-0.0243215 0.00262045 3.6284e-21)
(-0.0252049 0.00132289 1.52085e-21)
(-0.0250624 5.29562e-05 -1.99255e-21)
(-0.0239701 -0.00108652 -8.73808e-21)
(-0.022081 -0.00199063 1.11012e-20)
(-0.0196236 -0.00255888 -3.79487e-21)
(-0.0168307 -0.00270972 -2.92408e-21)
(-0.0139959 -0.00233102 5.14997e-21)
(-0.000967591 0.00319739 1.79275e-20)
(-0.00359261 0.00700998 -1.30634e-20)
(-0.00747354 0.00893065 5.72675e-21)
(-0.0115022 0.00947182 -1.68451e-20)
(-0.0151544 0.00899059 2.73818e-20)
(-0.0181104 0.00777171 -1.10534e-20)
(-0.0201391 0.00605201 -1.07144e-20)
(-0.021102 0.00403237 7.78268e-22)
(-0.020942 0.0018917 -1.14887e-20)
(-0.0196739 -0.000200462 1.14667e-20)
(-0.0173812 -0.002074 -1.58888e-20)
(-0.0142264 -0.00355389 -7.8081e-21)
(-0.0104612 -0.00447001 -1.72231e-21)
(-0.00631798 -0.00466256 4.72579e-21)
(-0.00190956 -0.00388642 3.74425e-21)
(-0.00130057 0.00429975 6.5005e-21)
(-0.00414071 0.00938646 2.70703e-21)
(-0.00776678 0.0119157 2.09594e-20)
(-0.0112035 0.0125775 2.79393e-20)
(-0.0139939 0.0118568 -1.53488e-20)
(-0.0158649 0.0101409 1.61923e-21)
(-0.0166238 0.00775131 -5.745e-21)
(-0.0161605 0.00496036 3.69849e-21)
(-0.0144388 0.00201097 6.28669e-21)
(-0.0114879 -0.000865602 9.92144e-21)
(-0.00740245 -0.00343469 -2.46632e-20)
(-0.00235962 -0.00545115 1.23252e-20)
(0.00336846 -0.00667205 2.75909e-20)
(0.00958097 -0.00683123 -4.12052e-20)
(0.0161149 -0.0055219 -3.3847e-21)
(-0.00170319 0.00523339 -1.67026e-20)
(-0.00476916 0.0113539 -3.14568e-22)
(-0.00801379 0.0143389 -1.88224e-20)
(-0.0106323 0.0150304 -5.49448e-20)
(-0.0122542 0.0140273 3.73452e-20)
(-0.012667 0.0118083 -4.19614e-20)
(-0.0117274 0.00877015 3.26059e-20)
(-0.0093627 0.00524805 2.97809e-21)
(-0.00556396 0.00154125 2.84671e-20)
(-0.000380069 -0.00206387 -1.15626e-20)
(0.00607982 -0.00527249 7.45802e-21)
(0.0136182 -0.00777107 1.40321e-20)
(0.0219382 -0.00923714 -3.1504e-20)
(0.0308942 -0.00927763 3.85827e-20)
(0.0402572 -0.00731733 8.35139e-21)
(-0.00214181 0.00596075 2.81133e-20)
(-0.00539383 0.0128206 -4.82435e-20)
(-0.00809527 0.0160749 1.03014e-20)
(-0.00964444 0.0166866 4.72963e-20)
(-0.00977418 0.0153512 -3.85655e-20)
(-0.00834456 0.0126263 3.74405e-20)
(-0.00527219 0.00897185 2.37077e-20)
(-0.000530153 0.00477569 -3.88799e-20)
(0.00585668 0.000383521 8.97305e-21)
(0.013815 -0.00387194 2.58915e-20)
(0.023217 -0.00764291 -3.35895e-20)
(0.0338406 -0.0105511 5.35782e-20)
(0.0453547 -0.0121879 -9.67646e-21)
(0.0576699 -0.0120036 -2.51878e-20)
(0.0705329 -0.00920992 -1.03699e-20)
(-0.00257637 0.00645142 -4.19491e-20)
(-0.00591381 0.0137123 6.10744e-21)
(-0.00786717 0.0170227 2.46918e-20)
(-0.00806469 0.0174316 -5.05921e-20)
(-0.00635677 0.0157117 2.44252e-20)
(-0.00268646 0.012485 3.30817e-20)
(0.00296071 0.00826135 3.3464e-20)
(0.0105579 0.0034692 -6.63957e-22)
(0.0200398 -0.00151055 -3.83291e-20)
(0.0313031 -0.00630996 -5.55317e-20)
(0.0441971 -0.0105389 4.87094e-20)
(0.0584708 -0.0137615 6.13657e-21)
(0.0737495 -0.0154821 -1.09055e-20)
(0.0899982 -0.0149569 2.52176e-20)
(0.106979 -0.0110938 6.9449e-20)
(-0.0029616 0.00668275 2.1575e-20)
(-0.00621377 0.0139738 9.25567e-21)
(-0.0071639 0.0171097 -3.23804e-21)
(-0.0056908 0.0171857 1.60087e-20)
(-0.00177352 0.0150319 -2.07013e-20)
(0.00455318 0.0113187 -8.37539e-20)
(0.0132269 0.00659181 -2.27774e-20)
(0.02416 0.00130754 -9.25188e-20)
(0.0372399 -0.00413041 7.17481e-20)
(0.0523265 -0.00933213 -2.44843e-20)
(0.0692406 -0.0138788 -9.13894e-22)
(0.087698 -0.0172907 -2.97172e-20)
(0.107271 -0.0189928 -4.16781e-20)
(0.127979 -0.0180103 -2.88498e-20)
(0.149648 -0.0128302 -3.09193e-21)
(-0.00324807 0.00664016 3.19042e-20)
(-0.00616704 0.0135721 7.05049e-21)
(-0.00580173 0.0162938 6.23272e-20)
(-0.00229789 0.0159074 -1.7436e-20)
(0.00423 0.0132787 5.23609e-20)
(0.0136487 0.00911044 2.70597e-20)
(0.0258122 0.00396987 3.82075e-20)
(0.0405654 -0.00167188 1.33536e-21)
(0.0577411 -0.00740101 2.72238e-21)
(0.0771547 -0.0128199 1.10148e-20)
(0.0985905 -0.0174983 -1.46586e-20)
(0.121725 -0.0209332 3.7787e-20)
(0.146068 -0.0224912 9.04583e-21)
(0.171695 -0.0209434 -3.33583e-20)
(0.198561 -0.014223 1.48981e-20)
(-0.00338247 0.00631831 -3.13499e-20)
(-0.00563814 0.012496 -3.58191e-21)
(-0.00358485 0.0145655 -4.57858e-20)
(0.00235562 0.0135962 1.21164e-20)
(0.0119274 0.0104669 -1.42861e-20)
(0.0248947 0.00589614 4.90188e-21)
(0.0410225 0.000458867 4.18578e-21)
(0.0600822 -0.00537104 -4.19412e-20)
(0.0818442 -0.0111816 3.80924e-20)
(0.10607 -0.0165815 2.29735e-20)
(0.132496 -0.0211478 -5.81343e-20)
(0.160749 -0.0243825 -5.71458e-20)
(0.190269 -0.0256318 3.2327e-20)
(0.221177 -0.0234172 -1.38815e-20)
(0.253647 -0.0149871 -6.08931e-21)
(-0.00331046 0.00572007 -8.45945e-20)
(-0.00448605 0.0107565 1.48094e-20)
(-0.000308764 0.0119504 1.87164e-21)
(0.00852031 0.0102955 1.21243e-20)
(0.0216016 0.00666117 3.46003e-20)
(0.0385937 0.00176616 -9.72586e-20)
(0.0591693 -0.00382026 8.15705e-20)
(0.0830203 -0.00963242 -7.19608e-20)
(0.109847 -0.0152699 2.70604e-20)
(0.139345 -0.0203591 1.81921e-20)
(0.171189 -0.0245024 3.27517e-20)
(0.204943 -0.0272382 9.0907e-21)
(0.239957 -0.0279499 -1.66728e-21)
(0.276393 -0.0249582 -3.53442e-20)
(0.31475 -0.0147243 2.64634e-20)
(-0.00297638 0.00485674 2.64905e-20)
(-0.00256789 0.00838868 3.07422e-20)
(0.0042334 0.00850906 -1.31591e-19)
(0.0164483 0.00609245 4.17842e-20)
(0.0335337 0.00197703 2.2102e-20)
(0.0550424 -0.00313394 -4.77422e-20)
(0.0805516 -0.0086901 -3.46223e-20)
(0.109669 -0.0142433 -5.96409e-20)
(0.142017 -0.0194117 1.25038e-20)
(0.177213 -0.0238459 -4.3891e-21)
(0.214853 -0.027185 4.34073e-20)
(0.254415 -0.029034 1.8171e-20)
(0.295146 -0.0288867 3.25761e-20)
(0.33722 -0.0249686 3.11534e-21)
(0.381575 -0.0129286 2.23386e-20)
(-0.00232486 0.00374844 2.02428e-20)
(0.000257353 0.00545143 -7.74717e-20)
(0.0102433 0.0043377 7.47039e-20)
(0.0263825 0.0011198 -7.58903e-20)
(0.0479904 -0.0034176 4.80155e-20)
(0.0745138 -0.00860366 2.00005e-20)
(0.105433 -0.0139194 3.39434e-20)
(0.140269 -0.0189428 7.4833e-20)
(0.178558 -0.0233147 -3.51853e-20)
(0.219828 -0.02671 -2.96171e-20)
(0.263575 -0.0288037 -2.28988e-20)
(0.309166 -0.0292801 -9.0538e-21)
(0.355713 -0.0278012 2.55109e-20)
(0.403359 -0.0226171 -6.81912e-20)
(0.453633 -0.00875851 -1.77912e-20)
(-0.00130204 0.00242403 -2.43293e-20)
(0.00412497 0.00202727 -7.19263e-21)
(0.0179115 -0.000431042 -5.7272e-20)
(0.0385464 -0.00444378 3.66133e-20)
(0.0652079 -0.00930379 -4.06578e-20)
(0.0972377 -0.0143892 -1.21997e-20)
(0.134019 -0.0192265 -1.47859e-21)
(0.174981 -0.0234299 3.50289e-20)
(0.219572 -0.026667 2.02869e-19)
(0.267225 -0.0286315 -1.44345e-19)
(0.317323 -0.0290172 9.27224e-20)
(0.36909 -0.0275562 -7.5751e-20)
(0.421447 -0.0240068 3.18075e-20)
(0.474253 -0.016595 -1.02261e-20)
(0.529308 -0.000512298 4.67315e-20)
(0.000142996 0.000920953 5.02166e-20)
(0.00916017 -0.00177778 1.18418e-20)
(0.0274092 -0.00562941 -2.9924e-20)
(0.0531333 -0.0103762 -3.91379e-20)
(0.085378 -0.0154127 1.26805e-20)
(0.12338 -0.0201852 8.414e-20)
(0.166425 -0.024283 2.77311e-20)
(0.213848 -0.0273714 -4.32678e-20)
(0.26501 -0.0291554 -6.34221e-20)
(0.31926 -0.0293502 4.29394e-20)
(0.375895 -0.0276536 1.17891e-19)
(0.434061 -0.0237662 -8.48919e-20)
(0.492626 -0.0172355 -3.62695e-20)
(0.550815 -0.00597723 9.0332e-21)
(0.608905 0.01243 8.95087e-22)
(0.00205696 -0.000714991 -5.49151e-20)
(0.0154736 -0.00583497 -1.66525e-20)
(0.0388811 -0.0110559 8.8408e-20)
(0.0702953 -0.0164128 -4.85895e-21)
(0.108633 -0.0214279 -8.74889e-20)
(0.153026 -0.0256369 4.43871e-20)
(0.202654 -0.0287139 1.22788e-19)
(0.256757 -0.0303986 -3.70888e-20)
(0.314605 -0.03046 -3.80402e-20)
(0.375478 -0.0286683 -3.2529e-20)
(0.438644 -0.024765 -2.3819e-20)
(0.503376 -0.0184097 -1.93899e-21)
(0.56919 -0.00876849 5.27414e-20)
(0.635977 0.00581678 -4.43562e-20)
(0.702103 0.020178 2.12483e-20)
(0.00448088 -0.00242979 3.90649e-20)
(0.0231574 -0.0099942 1.2816e-20)
(0.0524384 -0.0164776 2.07254e-20)
(0.0901338 -0.0222506 -4.69662e-20)
(0.135035 -0.0269895 -5.67695e-20)
(0.186163 -0.0303434 -4.63459e-20)
(0.242583 -0.0320965 -2.93054e-20)
(0.303424 -0.0320923 -7.82204e-20)
(0.367847 -0.0302033 8.72402e-21)
(0.435036 -0.0263155 5.07336e-20)
(0.504197 -0.020318 3.68662e-20)
(0.574618 -0.0120627 -1.90258e-20)
(0.645998 -0.00107239 4.00729e-20)
(0.718366 0.0127356 2.65585e-20)
(0.788396 0.021606 1.11128e-19)
(0.00744858 -0.00416201 6.57295e-20)
(0.0322806 -0.0140864 1.8979e-20)
(0.0681522 -0.0216347 1.04678e-19)
(0.112691 -0.0275546 -1.29879e-19)
(0.164566 -0.0317035 -1.072e-21)
(0.222678 -0.033868 -6.01794e-20)
(0.285966 -0.0339684 -6.65389e-20)
(0.353422 -0.0319806 8.45404e-20)
(0.424068 -0.0279149 2.01031e-20)
(0.496949 -0.0218144 5.24797e-20)
(0.57113 -0.0137627 -7.88744e-20)
(0.645751 -0.00386493 -7.70553e-20)
(0.720261 0.00793631 -1.02818e-20)
(0.794131 0.0209177 -4.67254e-20)
(0.863196 0.0280869 1.01488e-22)
(0.0109856 -0.00584366 -3.37693e-20)
(0.0428858 -0.0179265 -3.62284e-20)
(0.086048 -0.0262467 -6.35068e-20)
(0.137945 -0.0319676 -1.65296e-20)
(0.197124 -0.0351549 2.77874e-20)
(0.262358 -0.0357571 5.401e-20)
(0.332442 -0.0338548 1.11522e-19)
(0.40621 -0.0295816 -1.12833e-19)
(0.482517 -0.0231093 -7.33395e-20)
(0.560227 -0.0146569 -2.91564e-20)
(0.638222 -0.00450537 1.01038e-19)
(0.715422 0.0070165 -2.45863e-20)
(0.790923 0.0196667 4.42205e-20)
(0.863616 0.0324563 -3.73426e-20)
(0.92925 0.0399337 3.09686e-21)
(0.0151074 -0.00740119 -9.97274e-20)
(0.054985 -0.0213174 -3.06762e-20)
(0.1061 -0.0300194 1.13589e-19)
(0.165802 -0.0351222 -1.93896e-20)
(0.232518 -0.0369258 2.36871e-20)
(0.304885 -0.0355647 -3.6981e-20)
(0.381541 -0.0313031 -1.47457e-21)
(0.461146 -0.0244534 4.4794e-20)
(0.54237 -0.0153655 5.05694e-20)
(0.623888 -0.004441 6.64253e-20)
(0.704386 0.00785473 -9.7716e-20)
(0.782583 0.0210129 1.25226e-20)
(0.857295 0.0345946 5.32504e-20)
(0.927066 0.0475799 -7.32158e-20)
(0.98799 0.0560045 2.1589e-20)
(0.0198182 -0.00875668 4.38589e-20)
(0.0685559 -0.0240546 9.29486e-20)
(0.128227 -0.0326543 -4.43932e-20)
(0.196093 -0.0366537 1.93748e-20)
(0.270465 -0.0366132 -2.30155e-20)
(0.349839 -0.0328765 2.24091e-20)
(0.43269 -0.0259133 2.60272e-20)
(0.517497 -0.0162329 -9.44765e-20)
(0.602746 -0.00437498 5.22596e-20)
(0.686935 0.00907665 -7.89335e-20)
(0.768592 0.0234904 7.32383e-20)
(0.846296 0.038218 -3.90898e-20)
(0.918714 0.0526978 6.60831e-20)
(0.984284 0.065979 2.44847e-20)
(1.03965 0.0753404 -3.49575e-20)
(0.0251091 -0.00982929 4.78183e-20)
(0.0835385 -0.025931 -2.9495e-20)
(0.152288 -0.0338568 3.67105e-20)
(0.228569 -0.0362138 -2.9834e-20)
(0.310588 -0.0338471 5.19599e-20)
(0.396701 -0.027332 -2.65299e-20)
(0.485218 -0.0173635 5.88903e-20)
(0.574448 -0.00466299 -6.57648e-20)
(0.662713 0.0100335 8.41936e-21)
(0.748372 0.0259657 9.21427e-20)
(0.829857 0.0423569 -2.66358e-20)
(0.905701 0.058457 1.00038e-20)
(0.974563 0.0736366 -4.81047e-20)
(1.03498 0.0870604 -4.96328e-20)
(1.08422 0.096991 2.41247e-20)
(0.0309563 -0.010537 -6.60173e-20)
(0.0998323 -0.0267426 -6.51352e-21)
(0.178079 -0.0333466 -5.40736e-21)
(0.262905 -0.0334842 2.49574e-21)
(0.352425 -0.0283068 4.93811e-20)
(0.444861 -0.0186424 -7.78321e-20)
(0.538376 -0.00542804 9.0315e-20)
(0.631129 0.0103927 -6.73388e-20)
(0.721319 0.0278868 -4.28889e-20)
(0.807227 0.0461297 1.61828e-20)
(0.887267 0.064226 -3.39482e-20)
(0.960037 0.0813613 1.27848e-20)
(1.02432 0.0968872 4.06984e-20)
(1.07891 0.110113 3.39692e-20)
(1.12172 0.120062 1.19598e-20)
(0.0373199 -0.0107986 5.42795e-20)
(0.117294 -0.0262949 1.26037e-22)
(0.205335 -0.0308672 -1.42823e-20)
(0.298698 -0.0281886 -3.13151e-20)
(0.395429 -0.0197354 -6.28528e-21)
(0.493635 -0.00660507 2.37457e-20)
(0.591355 0.0100114 -4.23645e-20)
(0.68664 0.0289447 -1.30043e-20)
(0.777623 0.0490727 1.35029e-20)
(0.862582 0.0693277 1.52856e-20)
(0.940013 0.0887294 1.88277e-20)
(1.00868 0.106442 7.43466e-21)
(1.06762 0.121845 -1.41565e-20)
(1.11597 0.134423 2.20374e-20)
(1.1523 0.143777 -4.76217e-21)
(0.044143 -0.0105363 1.02457e-19)
(0.135737 -0.0244092 -3.11253e-20)
(0.233727 -0.0261956 -2.91995e-20)
(0.335476 -0.020105 -5.54753e-20)
(0.438986 -0.00795129 2.88134e-20)
(0.542279 0.00888674 1.2038e-20)
(0.64331 0.0289603 4.58873e-20)
(0.74008 0.0508802 1.79408e-20)
(0.830726 0.0733538 -3.7154e-20)
(0.913614 0.0952023 -2.31279e-20)
(0.987418 0.115403 1.68726e-20)
(1.05117 0.133147 -3.43355e-20)
(1.10425 0.147895 -1.7928e-20)
(1.14622 0.159331 7.62143e-21)
(1.17625 0.1675 -2.64964e-20)
(0.0513505 -0.00967803 -4.40955e-20)
(0.154932 -0.0209296 1.67036e-20)
(0.262874 -0.0191518 3.30089e-20)
(0.372705 -0.00907585 -2.82753e-20)
(0.482426 0.0071421 1.99691e-20)
(0.590014 0.0278383 -5.10504e-20)
(0.693394 0.0513121 2.05819e-20)
(0.790585 0.0759724 6.44339e-20)
(0.879813 0.100387 -1.50323e-20)
(0.959624 0.12331 4.72606e-20)
(1.02897 0.143728 -6.85905e-20)
(1.08722 0.160912 4.78638e-20)
(1.13417 0.174455 -1.53558e-20)
(1.16984 0.184268 -1.45923e-20)
(1.19396 0.190736 2.48011e-20)
(0.0588501 -0.00816104 4.01597e-20)
(0.17461 -0.0157304 4.30423e-20)
(0.292341 -0.00960811 -3.60045e-20)
(0.409806 0.00498331 2.30292e-20)
(0.525048 0.0255504 -1.00488e-20)
(0.636052 0.0501517 -9.41086e-21)
(0.740782 0.0768533 -1.93134e-20)
(0.837353 0.103894 2.09777e-20)
(0.924172 0.129745 -1.28244e-20)
(1.00006 0.153149 -2.85579e-21)
(1.06431 0.173161 -2.09815e-20)
(1.11672 0.189188 7.71261e-22)
(1.15753 0.201001 -2.30839e-20)
(1.18719 0.208761 1.35679e-20)
(1.20592 0.213116 1.14433e-20)
(0.0665325 -0.00593462 2.96869e-21)
(0.194467 -0.00872235 -2.28056e-20)
(0.321655 0.00250347 4.33713e-21)
(0.446162 0.0220769 3.03302e-20)
(0.566131 0.0471848 -2.68764e-20)
(0.679617 0.0756282 1.5218e-20)
(0.784698 0.105273 -1.9045e-20)
(0.879673 0.134232 -2.76021e-21)
(0.963218 0.16094 5.8007e-21)
(1.0345 0.18419 1.16426e-20)
(1.09325 0.203167 -6.33971e-23)
(1.13971 0.217468 1.62884e-21)
(1.17456 0.227082 -9.08921e-22)
(1.19867 0.232435 -4.8573e-21)
(1.21266 0.23438 4.75838e-21)
(0.0742737 -0.00296331 3.70551e-21)
(0.214169 0.000140341 -4.46133e-21)
(0.350313 0.0171843 -3.86033e-20)
(0.481144 0.0421251 3.81301e-21)
(0.604964 0.0718621 1.41285e-21)
(0.719972 0.103974 2.43614e-21)
(0.824443 0.136173 -1.85801e-20)
(0.916945 0.166509 4.66224e-21)
(0.996506 0.193445 -8.37914e-21)
(1.06272 0.215893 7.29556e-21)
(1.11577 0.233232 -4.73275e-22)
(1.15637 0.245295 -1.94911e-21)
(1.18562 0.252319 3.15943e-21)
(1.20476 0.255 5.66294e-21)
(1.21472 0.254352 1.14337e-21)
(0.0819376 0.000770369 5.14837e-21)
(0.23336 0.0108554 -6.65361e-22)
(0.377798 0.0343646 1.08701e-21)
(0.514121 0.0649621 -5.80335e-21)
(0.640863 0.0993078 9.98879e-21)
(0.756442 0.134808 6.00352e-21)
(0.859411 0.169086 -9.66726e-22)
(0.94869 0.200199 -2.30556e-21)
(1.02373 0.226714 4.18559e-22)
(1.08459 0.247731 2.21078e-21)
(1.13195 0.262881 -6.03827e-21)
(1.16697 0.27227 1.71738e-21)
(1.19112 0.276403 3.58151e-21)
(1.20596 0.276236 -5.15543e-21)
(1.21263 0.272914 4.65642e-22)
(0.0893789 0.00526354 -6.49555e-21)
(0.251676 0.0233684 2.45128e-21)
(0.403589 0.0539011 5.0477e-21)
(0.544485 0.0903373 -5.52579e-21)
(0.673193 0.129162 5.10004e-21)
(0.788428 0.167675 7.14541e-21)
(0.889102 0.203488 7.38902e-23)
(0.974557 0.234745 -6.42664e-21)
(1.04472 0.260196 5.52826e-21)
(1.10015 0.2792 -1.10413e-22)
(1.142 0.291682 -4.12902e-21)
(1.17186 0.29805 -3.24743e-21)
(1.19152 0.299082 3.59672e-21)
(1.20275 0.295978 1.3942e-21)
(1.20686 0.289988 -1.02285e-21)
(0.0964475 0.0104912 -1.0802e-20)
(0.268748 0.0375705 -1.01545e-20)
(0.427184 0.0755771 -6.19099e-21)
(0.571664 0.117919 -1.80186e-20)
(0.701385 0.160988 1.03198e-20)
(0.815429 0.202056 -1.40437e-20)
(0.913136 0.238813 -7.09868e-21)
(0.994327 0.269576 1.34664e-21)
(1.05944 0.293356 2.60613e-21)
(1.10953 0.309827 1.49037e-21)
(1.14621 0.319249 7.64683e-21)
(1.17143 0.322345 -8.9036e-21)
(1.18727 0.320155 2.25144e-21)
(1.19562 0.314099 4.80732e-21)
(1.19786 0.305519 1.76555e-21)
(0.102992 0.0164053 -2.87824e-20)
(0.284219 0.0532981 -1.78384e-20)
(0.448105 0.0991048 2.62048e-20)
(0.595143 0.147302 4.0944e-21)
(0.724952 0.194283 -1.87884e-20)
(0.837047 0.237387 1.35421e-20)
(0.931251 0.274473 1.29474e-20)
(1.0079 0.304122 -2.08179e-20)
(1.06795 0.325678 -1.26398e-20)
(1.11296 0.339178 3.43463e-21)
(1.14492 0.345243 1.32881e-20)
(1.16612 0.344909 6.22356e-21)
(1.17882 0.339459 4.681e-22)
(1.18499 0.330496 -3.02193e-21)
(1.18604 0.319464 -9.96221e-21)
(0.108867 0.0229341 4.57917e-20)
(0.297751 0.0703346 -2.47626e-21)
(0.465921 0.12413 -5.75144e-21)
(0.614474 0.178016 1.08832e-21)
(0.743499 0.228491 3.54063e-20)
(0.852997 0.273065 -4.23437e-20)
(0.943308 0.309867 7.78104e-21)
(1.0153 0.337825 -2.8908e-21)
(1.07044 0.356676 -3.82064e-21)
(1.11073 0.366861 -8.09907e-21)
(1.13852 0.369368 1.72113e-20)
(1.15633 0.365536 -2.27421e-20)
(1.16658 0.356855 7.90865e-21)
(1.17125 0.345076 -8.0905e-21)
(1.17172 0.331786 2.19598e-21)
(0.113933 0.0299835 -5.49773e-20)
(0.309038 0.0884134 -2.18377e-20)
(0.480258 0.150241 6.52328e-20)
(0.629292 0.209534 1.30281e-20)
(0.756736 0.263016 -7.18108e-20)
(0.863107 0.308473 4.60625e-20)
(0.949281 0.344398 -1.07333e-20)
(1.01665 0.370146 1.36204e-20)
(1.06717 0.385898 6.96894e-21)
(1.10321 0.392521 8.40686e-21)
(1.12742 0.391369 1.2615e-20)
(1.14251 0.384054 -7.4036e-21)
(1.15094 0.372235 -4.64306e-21)
(1.15472 0.357753 2.55841e-22)
(1.1551 0.342436 2.28234e-21)
(0.118064 0.0374378 3.58656e-20)
(0.317815 0.107224 -3.8044e-21)
(0.490809 0.176974 -6.85251e-20)
(0.639323 0.241289 4.46227e-20)
(0.764479 0.297237 3.93599e-20)
(0.86732 0.342985 -3.58738e-20)
(0.949257 0.377483 3.53156e-20)
(1.01218 0.400577 -1.73129e-20)
(1.05845 0.412932 -3.39093e-21)
(1.0908 0.415847 -3.31763e-20)
(1.11207 0.411027 1.95007e-20)
(1.12507 0.400329 -1.00683e-21)
(1.1323 0.385542 4.05206e-21)
(1.13566 0.368539 -4.01164e-21)
(1.13615 0.35137 -6.88107e-21)
(0.121154 0.0451622 -4.25873e-20)
(0.323867 0.126417 3.55938e-20)
(0.497341 0.203829 1.13939e-20)
(0.644391 0.272686 1.99498e-20)
(0.766653 0.330522 -2.33872e-20)
(0.865692 0.375984 3.4083e-20)
(0.943421 0.408561 -4.34737e-20)
(1.00218 0.428643 -2.77223e-20)
(1.0447 0.4374 2.37738e-20)
(1.07394 0.436558 1.46478e-20)
(1.09292 0.428147 -1.0642e-20)
(1.10446 0.414238 1.69174e-20)
(1.11105 0.396742 3.90437e-21)
(1.11444 0.377628 2.6922e-21)
(1.11544 0.358756 -1.23298e-21)
(0.123116 0.0530057 -4.3604e-20)
(0.327034 0.145615 2.58792e-20)
(0.499709 0.230278 5.09212e-21)
(0.64442 0.303116 9.48548e-21)
(0.763291 0.36224 -6.10938e-21)
(0.858377 0.406872 2.38756e-20)
(0.932048 0.437104 -4.09836e-20)
(0.987028 0.453907 9.3687e-21)
(1.02633 0.458961 -1.81655e-20)
(1.0531 0.454403 -2.19222e-21)
(1.07042 0.44255 -8.40164e-21)
(1.0811 0.425644 -4.38196e-21)
(1.08758 0.405685 8.5583e-21)
(1.09147 0.384734 8.21935e-21)
(1.09356 0.364459 -2.5842e-21)
(0.123886 0.0608049 -2.62903e-20)
(0.327219 0.16442 -3.35285e-20)
(0.497852 0.255778 3.30118e-20)
(0.639436 0.331966 1.10436e-20)
(0.754531 0.391776 5.832e-23)
(0.84563 0.43508 1.4653e-20)
(0.915493 0.462622 -1.67043e-20)
(0.967151 0.475973 3.59974e-20)
(1.00383 0.477314 -2.00428e-22)
(1.02876 0.46916 3.04684e-21)
(1.04502 0.454078 1.02201e-20)
(1.05539 0.434435 -5.59475e-21)
(1.0622 0.412277 -2.59453e-21)
(1.06697 0.389697 -3.94773e-21)
(1.07049 0.368284 -8.35307e-22)
(0.123429 0.0683875 1.90997e-20)
(0.32439 0.182422 7.44001e-20)
(0.491801 0.279788 -5.53991e-20)
(0.629565 0.358642 7.91715e-21)
(0.740608 0.418546 3.19423e-21)
(0.827788 0.46008 -2.53044e-21)
(0.894173 0.484671 -1.55256e-20)
(0.943021 0.49449 1.47969e-20)
(0.977673 0.492194 -3.45306e-22)
(1.00139 0.480639 -1.52268e-20)
(1.01718 0.462594 3.46773e-21)
(1.02772 0.44051 2.85773e-21)
(1.03524 0.416436 1.25397e-21)
(1.0412 0.392451 2.41084e-21)
(1.04636 0.370153 -1.02205e-21)
(0.121738 0.0755787 -2.07561e-21)
(0.31858 0.199215 -1.61551e-20)
(0.481672 0.301776 3.4177e-20)
(0.61503 0.382575 -9.34191e-21)
(0.721846 0.442004 -1.63629e-20)
(0.805261 0.481393 5.33869e-22)
(0.868563 0.502858 1.52976e-20)
(0.915145 0.50915 -4.9957e-22)
(0.948383 0.503373 5.00233e-21)
(0.971484 0.488675 2.31612e-21)
(0.987342 0.467979 -2.2908e-22)
(0.998485 0.443779 1.2887e-21)
(1.00703 0.418086 1.92508e-22)
(1.01437 0.392926 -4.31723e-21)
(1.02135 0.369982 5.07839e-21)
(0.118837 0.082209 7.25526e-21)
(0.309886 0.214398 -2.712e-20)
(0.467668 0.321235 -2.5986e-20)
(0.596137 0.403236 1.11914e-20)
(0.698645 0.461657 1.57454e-21)
(0.778526 0.498593 6.03468e-21)
(0.839184 0.51684 -3.79107e-21)
(0.884053 0.519698 4.77681e-21)
(0.916471 0.510664 -2.74413e-21)
(0.93953 0.493131 4.64204e-21)
(0.955958 0.470131 1.81721e-22)
(0.968094 0.44416 -1.53977e-20)
(0.977899 0.417156 5.48187e-21)
(0.98675 0.39103 -7.15273e-21)
(0.995661 0.367615 7.46213e-21)
(0.11476 0.0881082 -7.18253e-21)
(0.298477 0.227606 1.30141e-20)
(0.450075 0.337696 2.81852e-21)
(0.573272 0.420143 -1.65813e-21)
(0.671484 0.47707 -1.35718e-20)
(0.748115 0.511319 -2.00289e-21)
(0.806585 0.526339 -2.44242e-21)
(0.850286 0.525926 -3.93092e-21)
(0.882447 0.513918 -3.57704e-21)
(0.905999 0.493897 1.82085e-20)
(0.923466 0.468961 -5.76619e-21)
(0.936959 0.44158 1.21793e-20)
(0.948237 0.413588 2.31553e-20)
(0.958666 0.386675 -9.40771e-21)
(0.96961 0.362839 6.39996e-21)
(0.109596 0.0930975 -2.25796e-21)
(0.28459 0.238479 -9.99455e-21)
(0.429245 0.350745 3.53709e-21)
(0.546901 0.432882 -3.53508e-21)
(0.640897 0.487874 2.49258e-21)
(0.714596 0.519278 7.14457e-21)
(0.771338 0.531136 1.86666e-20)
(0.814386 0.527681 1.90915e-20)
(0.846809 0.513026 -5.73176e-21)
(0.871336 0.490886 -2.61155e-20)
(0.890275 0.464383 -9.54204e-21)
(0.905486 0.435948 -7.46707e-21)
(0.918476 0.407291 1.55941e-20)
(0.930629 0.379772 -2.27495e-20)
(0.943726 0.355538 -2.71485e-20)
(0.103458 0.0970459 7.28367e-21)
(0.268499 0.246708 -6.61968e-21)
(0.4056 0.360016 -1.93634e-20)
(0.517545 0.441106 4.80248e-21)
(0.607465 0.493778 -4.26042e-21)
(0.678572 0.522247 1.36344e-20)
(0.734026 0.531079 -4.31098e-21)
(0.776895 0.524867 1.03557e-20)
(0.810028 0.507927 -1.11616e-20)
(0.835939 0.484044 1.77496e-20)
(0.856717 0.456317 5.99267e-20)
(0.873979 0.427107 -4.28837e-20)
(0.888991 0.397976 -2.06748e-20)
(0.90317 0.369826 3.75868e-21)
(0.918447 0.345093 -1.17983e-21)
(0.0964689 0.0998273 -2.01869e-20)
(0.250534 0.252039 -1.36564e-20)
(0.379617 0.365214 -5.76332e-21)
(0.485777 0.444542 2.66505e-20)
(0.571809 0.494567 -5.27095e-20)
(0.640668 0.520082 -2.82549e-21)
(0.695248 0.526089 3.10148e-20)
(0.738346 0.517458 -2.95973e-20)
(0.772555 0.49863 4.50025e-20)
(0.800151 0.473397 -2.00878e-20)
(0.823006 0.444775 -1.238e-20)
(0.842527 0.414991 2.81461e-22)
(0.859819 0.385354 3.37668e-20)
(0.876314 0.355796 -3.03342e-20)
(0.891832 0.326646 1.19568e-20)
(0.0887779 0.101336 4.17438e-20)
(0.23107 0.254266 -2.57763e-20)
(0.35182 0.366117 5.65854e-21)
(0.452209 0.443001 -1.70691e-20)
(0.534578 0.490107 5.62099e-22)
(0.601529 0.512712 4.16063e-21)
(0.655605 0.516155 1.02439e-20)
(0.699279 0.505492 1.28454e-20)
(0.734844 0.485221 -4.45773e-20)
(0.764312 0.459085 -1.18472e-20)
(0.78933 0.429986 2.14418e-20)
(0.811135 0.400003 -4.96962e-20)
(0.830764 0.37033 3.15102e-20)
(0.849492 0.34101 1.81442e-20)
(0.866118 0.312705 -4.14761e-21)
(0.0805519 0.101494 1.12043e-20)
(0.210513 0.253242 3.52828e-20)
(0.322764 0.362575 8.22179e-21)
(0.417479 0.436372 -3.01198e-20)
(0.496441 0.480346 4.10444e-20)
(0.561809 0.500139 -4.09524e-20)
(0.615712 0.501327 -4.91086e-20)
(0.660246 0.489061 -6.96421e-20)
(0.697379 0.467828 1.01524e-19)
(0.728839 0.44128 1.77711e-20)
(0.756039 0.412191 -1.83328e-20)
(0.78004 0.382499 -1.68318e-20)
(0.801755 0.353303 3.27796e-20)
(0.822188 0.324773 -3.80635e-21)
(0.839945 0.297773 9.18941e-20)
(0.0719712 0.100248 -1.07725e-19)
(0.189291 0.248879 8.29276e-20)
(0.293027 0.35452 1.72149e-20)
(0.382241 0.42463 -3.85684e-20)
(0.45807 0.465305 7.43798e-20)
(0.522162 0.482433 -5.55099e-20)
(0.576176 0.481709 4.55024e-20)
(0.621803 0.468293 1.82396e-20)
(0.660663 0.446592 7.27701e-21)
(0.694201 0.420132 4.03929e-20)
(0.723603 0.391543 -2.13271e-20)
(0.749769 0.36263 -7.25509e-20)
(0.77349 0.334415 -4.55715e-20)
(0.795575 0.307149 6.79339e-21)
(0.81474 0.281707 3.57113e-21)
(0.0632244 0.0975738 9.46302e-21)
(0.167845 0.241154 -2.02183e-20)
(0.263197 0.341959 2.71492e-20)
(0.347152 0.407827 -1.96866e-20)
(0.420136 0.445084 2.57113e-20)
(0.483231 0.459727 -3.48232e-20)
(0.537594 0.457455 4.55175e-20)
(0.584489 0.443348 -4.40026e-20)
(0.625187 0.421669 1.10113e-20)
(0.660851 0.395779 -3.07405e-22)
(0.692459 0.368145 -4.00033e-20)
(0.720771 0.340436 8.2689e-21)
(0.746474 0.313598 5.43232e-20)
(0.770247 0.287925 -7.35063e-20)
(0.790977 0.264197 2.20283e-20)
(0.0545038 0.0934764 -6.67598e-20)
(0.14662 0.230104 4.08848e-20)
(0.233857 0.32498 -3.39016e-20)
(0.312857 0.386099 5.35773e-20)
(0.383288 0.419854 -1.7934e-20)
(0.445637 0.432214 2.21088e-20)
(0.500537 0.428768 8.03962e-20)
(0.54882 0.414423 -9.63324e-20)
(0.59141 0.393237 1.06534e-20)
(0.629207 0.36837 -4.96609e-21)
(0.662997 0.342105 7.7508e-20)
(0.693415 0.31597 7.39214e-20)
(0.721064 0.290826 2.07049e-20)
(0.74653 0.266978 -1.79855e-20)
(0.768879 0.245074 1.99353e-21)
(0.0460005 0.0879885 5.004e-20)
(0.126052 0.215831 -8.26601e-20)
(0.205579 0.303743 -3.4315e-21)
(0.279981 0.359654 -3.24619e-20)
(0.348153 0.389856 -1.88722e-20)
(0.40997 0.40015 -9.79765e-20)
(0.465543 0.395898 -5.54214e-20)
(0.515276 0.38175 -2.14515e-20)
(0.559761 0.361503 5.54019e-20)
(0.59965 0.338076 -1.02216e-19)
(0.635555 0.313556 6.98588e-21)
(0.668007 0.289317 1.25339e-20)
(0.697538 0.266134 -5.89725e-20)
(0.724657 0.244301 -1.12871e-20)
(0.748615 0.224323 -1.15177e-20)
(0.0379007 0.0811711 -7.5825e-20)
(0.106565 0.198493 -6.99225e-20)
(0.178908 0.278482 -3.88019e-21)
(0.249115 0.328774 4.71034e-20)
(0.315316 0.355396 1.37716e-20)
(0.376782 0.363843 1.28879e-19)
(0.433111 0.359141 3.99451e-20)
(0.484299 0.345601 9.36125e-20)
(0.530628 0.326705 -1.52778e-21)
(0.572519 0.305101 -2.76479e-20)
(0.610432 0.282661 -1.94041e-21)
(0.644809 0.260603 8.64941e-20)
(0.676117 0.239612 5.21274e-20)
(0.704808 0.219955 -7.03844e-21)
(0.73032 0.202008 -2.82457e-20)
(0.0303811 0.073111 6.63278e-20)
(0.0885533 0.178307 6.3898e-20)
(0.154353 0.249497 -7.38228e-20)
(0.220811 0.293809 1.38929e-20)
(0.285321 0.316843 -7.80601e-21)
(0.346577 0.323657 -7.64209e-21)
(0.403695 0.31884 5.23047e-20)
(0.456291 0.306285 -7.66549e-20)
(0.504358 0.289114 1.75336e-20)
(0.548115 0.269675 6.73729e-20)
(0.587888 0.249613 -1.62623e-20)
(0.624039 0.229987 -5.90325e-20)
(0.656986 0.211388 -1.84894e-20)
(0.687132 0.194051 -7.64267e-20)
(0.714098 0.178237 3.9836e-20)
(0.0236049 0.0639198 -6.91128e-20)
(0.072384 0.155539 -4.08026e-21)
(0.132381 0.217151 -5.92444e-21)
(0.195567 0.255171 -1.46417e-20)
(0.258656 0.274621 3.51171e-20)
(0.319809 0.280005 -6.90037e-20)
(0.377702 0.275375 2.41216e-20)
(0.431606 0.264147 -7.2133e-20)
(0.48126 0.249034 8.67454e-21)
(0.526704 0.232061 -2.95606e-20)
(0.568147 0.214638 2.56292e-20)
(0.605889 0.197659 2.74169e-20)
(0.640302 0.181625 -9.19506e-20)
(0.671752 0.166733 6.71684e-20)
(0.700036 0.153155 6.28867e-21)
(0.0177192 0.0537314 6.59848e-20)
(0.0583826 0.130503 -1.38176e-20)
(0.113406 0.181861 1.06994e-19)
(0.173826 0.213326 -8.87009e-21)
(0.235752 0.229206 -2.19076e-20)
(0.296877 0.233342 1.97301e-20)
(0.355487 0.229168 -1.04353e-20)
(0.410555 0.219562 2.2051e-20)
(0.4616 0.206794 -2.109e-20)
(0.508511 0.192547 -6.04377e-20)
(0.551402 0.177984 -5.51582e-20)
(0.590519 0.163838 7.29719e-20)
(0.626196 0.150516 -2.30838e-20)
(0.658774 0.138178 -2.24681e-20)
(0.688206 0.126927 1.49666e-20)
(0.0128509 0.0426989 1.15532e-20)
(0.0468304 0.103554 -1.79877e-20)
(0.0977835 0.144095 -1.33984e-20)
(0.155966 0.16879 -2.67821e-20)
(0.216978 0.181116 1.18877e-20)
(0.278117 0.184161 -8.11016e-20)
(0.337349 0.180671 5.38518e-20)
(0.393396 0.172935 -3.91823e-20)
(0.445601 0.162751 -1.73011e-20)
(0.493727 0.151445 4.93829e-20)
(0.537812 0.139925 -3.32127e-20)
(0.578061 0.128764 -3.69765e-20)
(0.614778 0.118275 3.04341e-20)
(0.648284 0.108582 -7.35485e-21)
(0.67867 0.0997403 7.37363e-20)
(0.00910509 0.0309924 4.50631e-21)
(0.0379585 0.0750803 -1.12783e-20)
(0.0858058 0.10436 -1.08244e-20)
(0.142295 0.122118 1.26734e-20)
(0.202631 0.130908 -1.07235e-20)
(0.263805 0.132988 2.16154e-20)
(0.32353 0.130363 -2.72727e-20)
(0.380342 0.124694 4.89955e-20)
(0.433443 0.117283 4.00065e-20)
(0.482504 0.109086 -8.71621e-21)
(0.527507 0.100754 6.42182e-23)
(0.568624 0.092696 3.30682e-21)
(0.606137 0.0851354 -2.43391e-21)
(0.640354 0.0781598 -9.21617e-21)
(0.671474 0.0717938 -1.57277e-20)
(0.00656225 0.0187946 -6.04378e-21)
(0.031944 0.0454973 -2.59365e-20)
(0.0776951 0.0631946 -1.60354e-21)
(0.133049 0.0738969 5.70952e-21)
(0.192939 0.0791643 1.49924e-20)
(0.254146 0.0803744 -2.04054e-20)