/*--------------------------------*- C++ -*----------------------------------*\
  =========                 |
  \\      /  F ield         | OpenFOAM: The Open Source CFD Toolbox
   \\    /   O peration     | Website:  https://openfoam.org
    \\  /    A nd           | Version:  7
     \\/     M anipulation  |
\*---------------------------------------------------------------------------*/
FoamFile
{
    version     2.0;
    format      ascii;
    class       surfaceScalarField;
    location    "35.001";
    object      phi;
}
// * * * * * * * * * * * * * * * * * * * * * * * * * * * * * * * * * * * * * //

dimensions      [0 3 -1 0 0 0 0];

internalField   nonuniform List<scalar> 
7248
(
-0.000159384
0.000159383
-0.000435752
0.000276368
-0.000743753
0.000308001
-0.00105662
0.000312863
-0.00137159
0.000314976
-0.00169052
0.000318931
-0.00201526
0.000324739
-0.00234742
0.000332153
-0.00268844
0.00034102
-0.00303965
0.000351215
-0.00340231
0.00036266
-0.0037776
0.000375291
-0.00416657
0.00038897
-0.00457008
0.000403507
0.000419213
-0.0049893
-0.000158688
0.000318072
-0.000434254
0.000551933
-0.000741589
0.000615336
-0.00105387
0.000625147
-0.00136829
0.000629397
-0.00168668
0.000637317
-0.00201088
0.000648937
-0.00234249
0.000663766
-0.00268297
0.0006815
-0.00303364
0.000701887
-0.00339575
0.000724771
-0.00377049
0.000750027
-0.0041589
0.000777383
-0.00456185
0.000806458
0.000837855
-0.00498049
-0.000157299
0.00047537
-0.000431259
0.000825894
-0.000737262
0.000921339
-0.00104839
0.000936272
-0.0013617
0.00094271
-0.00167899
0.000954611
-0.00200211
0.000972053
-0.00233264
0.0009943
-0.00267204
0.0010209
-0.00302163
0.00105147
-0.00338264
0.00108578
-0.00375627
0.00112365
-0.00414356
0.00116468
-0.0045454
0.00120829
0.00125535
-0.00496289
-0.000155217
0.000630587
-0.000426769
0.00109745
-0.000730772
0.00122534
-0.00104016
0.00124566
-0.00135181
0.00125436
-0.00166747
0.00127027
-0.00198897
0.00129355
-0.00231788
0.00132322
-0.00265566
0.00135868
-0.00300362
0.00139942
-0.00336298
0.00144515
-0.00373494
0.00149561
-0.00412056
0.0015503
-0.00452071
0.00160845
0.00167111
-0.00493648
-0.000152446
0.000783033
-0.000420785
0.00136578
-0.000722122
0.00152668
-0.0010292
0.00155273
-0.00133864
0.00156381
-0.00165212
0.00158375
-0.00197146
0.00161288
-0.00229822
0.00164998
-0.00263384
0.0016943
-0.00297962
0.00174521
-0.0033368
0.00180232
-0.00370653
0.00186535
-0.00408991
0.00193367
-0.00448782
0.00200635
0.00208456
-0.00490126
-0.00014899
0.000932023
-0.000413312
0.00163011
-0.000711313
0.00182468
-0.0010155
0.00185692
-0.00132218
0.00187049
-0.00163295
0.00189452
-0.00194959
0.00192953
-0.00227367
0.00197406
-0.0026066
0.00202722
-0.00294967
0.00208828
-0.0033041
0.00215675
-0.00367106
0.00223231
-0.00405163
0.00231424
-0.00444672
0.00240144
0.00249509
-0.00485725
-0.000144854
0.00107688
-0.000404354
0.00188961
-0.000698349
0.00211867
-0.00099907
0.00215764
-0.00130246
0.00217388
-0.00160997
0.00220204
-0.00192339
0.00224294
-0.00224425
0.00229492
-0.00257395
0.00235692
-0.00291378
0.0024281
-0.00326492
0.0025079
-0.00362855
0.00259593
-0.00400575
0.00269145
-0.00439744
0.00279313
0.00290211
-0.00480446
-0.000140046
0.00121692
-0.000393916
0.00214348
-0.000683232
0.00240799
-0.000979918
0.00245433
-0.00127947
0.00247342
-0.00158321
0.00250578
-0.00189288
0.00255261
-0.00220999
0.00261204
-0.00253594
0.00268287
-0.00287197
0.00276413
-0.00321929
0.00285521
-0.00357903
0.00295568
-0.00395231
0.00306473
-0.00434003
0.00318086
0.00330501
-0.00474294
-0.000134573
0.0013515
-0.000382005
0.00239091
-0.000665967
0.00269195
-0.000958049
0.00274641
-0.00125322
0.0027686
-0.00155266
0.00280522
-0.00185806
0.00285801
-0.00217091
0.00292489
-0.00249258
0.00300453
-0.0028243
0.00309585
-0.00316724
0.00319816
-0.00352255
0.00331099
-0.00389134
0.00343351
-0.00427452
0.00356404
0.00370322
-0.00467273
-0.000128446
0.00147994
-0.00036863
0.00263109
-0.00064656
0.00296988
-0.00093347
0.00303332
-0.00122375
0.00305888
-0.00151837
0.00309984
-0.00181898
0.00315863
-0.00212705
0.00323296
-0.00244392
0.00332139
-0.00277079
0.00342273
-0.00310883
0.0035362
-0.00345916
0.00366132
-0.00382291
0.00379726
-0.00420098
0.00394212
0.00409615
-0.00459391
-0.000121675
0.00160162
-0.0003538
0.00286322
-0.000625017
0.0032411
-0.00090619
0.00331449
-0.00119105
0.00334374
-0.00148034
0.00338913
-0.00177566
0.00345395
-0.00207845
0.00353574
-0.00238999
0.00363294
-0.0027115
0.00374424
-0.00304411
0.0038688
-0.00338891
0.00400613
-0.00374706
0.0041554
-0.00411948
0.00431453
0.00448322
-0.00450655
-0.000114276
0.00171589
-0.000337528
0.00308647
-0.000601346
0.00350492
-0.000876219
0.00358936
-0.00115515
0.00362267
-0.00143861
0.0036726
-0.00172814
0.00374348
-0.00202513
0.00383274
-0.00233086
0.00393867
-0.00264649
0.00405987
-0.00297312
0.00419543
-0.00331186
0.00434487
-0.00366388
0.00450742
-0.00403009
0.00468074
0.00486389
-0.00441075
-0.000106263
0.00182216
-0.000319829
0.00330004
-0.000575555
0.00376064
-0.000843569
0.00385738
-0.00111607
0.00389517
-0.00139321
0.00394974
-0.00167646
0.00402672
-0.00196717
0.00412344
-0.00226657
0.00423807
-0.00257581
0.00436911
-0.00289595
0.00451557
-0.00322808
0.004677
-0.00357341
0.00485275
-0.0039329
0.00504023
0.00523762
-0.00430663
-9.76568e-05
0.00191981
-0.00030072
0.0035031
-0.000547656
0.00400758
-0.000808252
0.00411797
-0.00107382
0.00416073
-0.00134417
0.00422008
-0.00162065
0.00430321
-0.00190459
0.00440738
-0.00219719
0.00453066
-0.00249954
0.00467146
-0.00281267
0.0048287
-0.00313764
0.00500197
-0.00347574
0.00519085
-0.00382801
0.00539251
0.00560391
-0.0041943
-8.84805e-05
0.00200829
-0.000280223
0.00369484
-0.000517662
0.00424502
-0.000770282
0.00437059
-0.00102844
0.00441889
-0.00129151
0.00448316
-0.00156077
0.00457247
-0.00183748
0.00468409
-0.00212278
0.00481596
-0.00241775
0.00496644
-0.00272335
0.0051343
-0.00304059
0.00531921
-0.00337088
0.00552113
-0.00371547
0.0057371
0.00596237
-0.00407393
-7.87621e-05
0.00208706
-0.000258363
0.00387444
-0.000485587
0.00447224
-0.000729675
0.00461468
-0.000979942
0.00466916
-0.0012353
0.00473852
-0.00149687
0.00483405
-0.00176588
0.00495309
-0.00204341
0.0050935
-0.00233054
0.00525356
-0.00262815
0.00543192
-0.00293713
0.00562819
-0.00325897
0.00584297
-0.00359547
0.0060736
0.00631268
-0.00394578
-6.85375e-05
0.00215559
-0.000235169
0.00404107
-0.000451451
0.00468853
-0.000686449
0.00484968
-0.000928363
0.00491107
-0.00117555
0.00498571
-0.00142901
0.0050875
-0.00168986
0.00521394
-0.00195918
0.00536282
-0.00223797
0.00553235
-0.0025271
0.00572104
-0.0028272
0.00592829
-0.00313969
0.00615546
-0.00346751
0.00640141
0.00665511
-0.00380994
-5.78458e-05
0.00221344
-0.000210672
0.0041939
-0.000415273
0.00489313
-0.000640625
0.00507503
-0.00087373
0.00514417
-0.00111233
0.00522431
-0.00135724
0.00533241
-0.00160952
0.00546622
-0.00187017
0.00562347
-0.00214019
0.00580237
-0.00242047
0.00600133
-0.00271148
0.00621931
-0.00301407
0.00645805
-0.00333244
0.00671978
0.00699051
-0.00366783
-4.66792e-05
0.00226012
-0.00018491
0.00433213
-0.00037708
0.0050853
-0.000592224
0.00529017
-0.000816079
0.00536803
-0.00104568
0.00545391
-0.00128162
0.00556835
-0.00152492
0.00570952
-0.00177648
0.00587504
-0.00203724
0.00606313
-0.00230811
0.00627219
-0.0025894
0.0065006
-0.00288048
0.00674913
-0.00318545
0.00702476
0.0073227
-0.00351764
-3.50748e-05
0.00229519
-0.000157926
0.00445498
-0.000336899
0.00526427
-0.000541275
0.00549455
-0.000755445
0.0055822
-0.000975647
0.00567411
-0.00120224
0.00579495
-0.00143615
0.00594342
-0.00167823
0.00611711
-0.00192932
0.00631422
-0.00219039
0.00653327
-0.00246229
0.00677249
-0.00274421
0.00703105
-0.00303432
0.00731486
0.00765818
-0.00336981
-2.3069e-05
0.00231826
-0.000129772
0.00456169
-0.000294764
0.00542926
-0.000487813
0.0056876
-0.000691871
0.00578626
-0.000902294
0.00588453
-0.00111916
0.00601181
-0.00134331
0.00616757
-0.00157552
0.00634933
-0.00181657
0.00655526
-0.00206733
0.00678403
-0.00232875
0.00703392
-0.00260126
0.00730356
-0.00288572
0.00759932
0.00793237
-0.0031599
-1.06524e-05
0.00232891
-0.000100486
0.00465152
-0.000250714
0.00557949
-0.000431883
0.00586877
-0.000625401
0.00597977
-0.000825678
0.00608481
-0.00103246
0.0062186
-0.00124648
0.00638159
-0.00146847
0.00657132
-0.00169911
0.0067859
-0.00193913
0.00702404
-0.00218941
0.0072842
-0.00245043
0.00756458
-0.00272025
0.00786913
0.00821226
-0.00300015
2.21907e-06
0.0023267
-7.0068e-05
0.00472381
-0.000204798
0.00571422
-0.000373546
0.00603752
-0.000556084
0.00616231
-0.000745862
0.00627459
-0.000942224
0.00641496
-0.00114577
0.00658514
-0.00135719
0.00678274
-0.00157709
0.0070058
-0.00180609
0.00725304
-0.00204503
0.00752315
-0.002295
0.00781455
-0.00255628
0.00813041
0.00848053
-0.00282454
1.44544e-05
0.00231224
-3.83137e-05
0.00477657
-0.000157136
0.00583304
-0.000312885
0.00619327
-0.000483975
0.0063334
-0.000662915
0.00645353
-0.000848535
0.00660058
-0.00104129
0.00677789
-0.00124181
0.00698326
-0.00145067
0.00721467
-0.00166844
0.00747082
-0.00189597
0.00775068
-0.00213451
0.00805309
-0.00238427
0.00838017
0.00873802
-0.00264177
2.69582e-05
0.00228528
-3.22503e-06
0.00480676
-0.000108014
0.00593783
-0.000249949
0.0063352
-0.000409126
0.00649258
-0.000576911
0.00662132
-0.000751483
0.00677515
-0.000933136
0.00695954
-0.00112245
0.00717257
-0.00131997
0.00741219
-0.00152626
0.0076771
-0.00174213
0.00796655
-0.00196876
0.00827972
-0.0022061
0.00861751
0.00898314
-0.00245122
3.89831e-05
0.0022463
2.62083e-05
0.00481953
-5.8172e-05
0.00602221
-0.000184805
0.00646183
-0.000331634
0.00663941
-0.000487932
0.00677761
-0.000651159
0.00693838
-0.000821423
0.00712981
-0.000999232
0.00735038
-0.00118511
0.00759807
-0.0013796
0.00787159
-0.00158347
0.00817042
-0.00179779
0.00849405
-0.00202258
0.0088423
0.00921571
-0.00225515
5.08207e-05
0.00219548
5.78181e-05
0.00481254
-5.9631e-06
0.00608599
-0.000117615
0.00657349
-0.000251598
0.00677339
-0.000396056
0.00692207
-0.000547659
0.00708998
-0.00070626
0.00728841
-0.000872285
0.0075164
-0.00104622
0.007772
-0.00122859
0.00805396
-0.0014201
0.00836192
-0.00162172
0.00869566
-0.00183352
0.0090541
0.00943565
-0.00205346
6.24502e-05
0.00213303
9.02124e-05
0.00478477
4.63968e-05
0.00612981
-4.86178e-05
0.0066685
-0.000169082
0.00689386
-0.000301373
0.00705436
-0.000441082
0.00722969
-0.000587763
0.00743509
-0.000741735
0.00767038
-0.000903445
0.00793371
-0.00107338
0.0082239
-0.00125219
0.00854073
-0.0014407
0.00888417
-0.00163898
0.00925238
0.00964229
-0.00184562
7.36536e-05
0.00205938
0.000122763
0.00473566
0.000100163
0.00615241
2.22288e-05
0.00674643
-8.42426e-05
0.00700033
-0.000203972
0.00717409
-0.000331534
0.00735725
-0.000466053
0.00756961
-0.000607717
0.00781204
-0.000756928
0.00808292
-0.000914135
0.00838111
-0.0010799
0.0087065
-0.00125493
0.00905921
-0.00143929
0.00943673
0.00983492
-0.00163192
8.42239e-05
0.00197515
0.000155137
0.00466475
0.000154725
0.00615282
9.47895e-05
0.00680637
1.91121e-06
0.00709321
-0.000103981
0.00727998
-0.000219147
0.00747242
-0.00034126
0.00769172
-0.000470376
0.00794116
-0.00060683
0.00821938
-0.000751015
0.00852529
-0.000903412
0.00885889
-0.00106464
0.00922043
-0.00123474
0.00960684
0.0100131
-0.00141289
9.398e-05
0.00188117
0.000186994
0.00457174
0.00020972
0.0061301
0.000168996
0.00684709
9.22174e-05
0.00716999
-2.2868e-06
0.00737449
-0.000104075
0.0075742
-0.000213539
0.00780118
-0.000329863
0.00805748
-0.00045332
0.00834284
-0.000584213
0.00865619
-0.000722922
0.0089976
-0.00087001
0.00936752
-0.00102559
0.00976241
0.0101764
-0.00118889
0.000102745
0.00177843
0.000217954
0.00445653
0.000264802
0.00608325
0.000244338
0.00686756
0.000183617
0.00723071
0.000103677
0.00745443
1.33684e-05
0.00766451
-8.30882e-05
0.00789764
-0.00018636
0.00816075
-0.00029658
0.00845306
-0.000413934
0.00877354
-0.000538662
0.00912233
-0.000671291
0.00950015
-0.000812119
0.00990324
0.0103245
-0.000960219
0.000110344
0.00166808
0.000247607
0.00431926
0.00031954
0.00601131
0.000320517
0.00686658
0.000276759
0.00727446
0.00021095
0.00752024
0.000134284
0.00774118
5.01696e-05
0.00798175
-4.02017e-05
0.00825112
-0.000136826
0.00854968
-0.000240408
0.00887712
-0.000350888
0.00923281
-0.000468715
0.00961797
-0.000594633
0.0100292
0.0104571
-0.000727221
0.000116612
0.00155147
0.000275519
0.00416036
0.000373437
0.0059134
0.000397161
0.00684286
0.000371374
0.00730025
0.000320276
0.00757133
0.000256999
0.00780446
0.000186229
0.00805252
0.000109084
0.00832827
2.56112e-05
0.00863315
-6.39166e-05
0.00896665
-0.000159948
0.00932884
-0.000262629
0.00972065
-0.000373329
0.0101399
0.010574
-0.000490276
0.000121403
0.00143007
0.000301229
0.00398053
0.000425932
0.00578869
0.000473801
0.00679499
0.000467136
0.00730692
0.000431447
0.00760702
0.000381868
0.00785403
0.00032442
0.00810997
0.000260776
0.00839191
0.000191253
0.00870268
0.000115642
0.00904226
3.38053e-05
0.00941068
-5.38296e-05
0.00980829
-0.00014786
0.0102339
0.0106763
-0.000250153
0.000124604
0.00130546
0.000324253
0.00378088
0.00047638
0.00563657
0.000549865
0.0067215
0.000563654
0.00729313
0.000544192
0.00762649
0.000508716
0.00788951
0.00046475
0.00815394
0.000414676
0.00844199
0.00035903
0.00875832
0.000297821
0.00910347
0.000231045
0.00947745
0.000158672
0.00988066
8.05085e-05
0.0103121
0.0107666
-9.83259e-06
0.000126138
0.00117933
0.000344091
0.00356293
0.000524051
0.00545661
0.000624673
0.00662088
0.000660432
0.00725737
0.000658188
0.00762873
0.000637306
0.00791039
0.00060704
0.0081842
0.000570645
0.00847838
0.000528995
0.00879997
0.000482255
0.00915021
0.000430406
0.0095293
0.000373487
0.00993758
0.000310877
0.0103747
0.0108342
0.000243309
0.000125976
0.00105335
0.000360181
0.00332872
0.000568127
0.00524866
0.000697423
0.00649158
0.000756858
0.00719793
0.000773034
0.00761255
0.000767368
0.00791606
0.000751069
0.0082005
0.000728478
0.00850097
0.00070092
0.00882753
0.000668728
0.0091824
0.000631957
0.00956607
0.000590718
0.00997882
0.000545007
0.0104204
0.0108845
0.000494714
0.000124146
0.000929204
0.000372003
0.00308087
0.000607716
0.00501295
0.00076717
0.00633213
0.000852177
0.00711293
0.000888227
0.0075765
0.000898577
0.00790571
0.000896591
0.00820249
0.000887944
0.00850962
0.000874556
0.00884092
0.000856991
0.00919997
0.000835424
0.00958764
0.000810029
0.0100042
0.000780824
0.0104496
0.0109179
0.000747476
0.000120733
0.000808471
0.000379156
0.00282244
0.000641872
0.00475023
0.000832819
0.00614118
0.000945468
0.00700028
0.00100313
0.00751884
0.00103053
0.00787831
0.00104332
0.0081897
0.00104879
0.00850415
0.00104965
0.00884006
0.00104676
0.00920285
0.00104045
0.00959396
0.0010309
0.0100138
0.00101801
0.0104625
0.0109343
0.00100157
0.000115876
0.000692595
0.000381326
0.00255699
0.000669607
0.00446195
0.000893122
0.00591767
0.00103561
0.00685779
0.00111693
0.00743753
0.0011627
0.00783254
0.00119091
0.00816148
0.00121075
0.00848431
0.00122593
0.00882488
0.00123776
0.00919103
0.00124669
0.00958503
0.00125298
0.0100075
0.00125643
0.010459
0.0109341
0.00125663
0.000109757
0.000582838
0.000378335
0.00228842
0.000689919
0.00415037
0.000946671
0.00566092
0.00112127
0.00668318
0.00122862
0.00733018
0.00129443
0.00776673
0.00133895
0.00811696
0.00137351
0.00844974
0.00140313
0.00879527
0.00142968
0.00916447
0.00145386
0.00956086
0.00147599
0.00998534
0.00149591
0.0104391
0.0109172
0.00151285
0.000102596
0.000480242
0.000370182
0.00202083
0.000701857
0.00381869
0.000991923
0.00537085
0.00120087
0.00647424
0.00133693
0.00719412
0.00142487
0.00767879
0.00148689
0.00805494
0.00153671
0.00839993
0.00158093
0.00875104
0.00162225
0.00912315
0.00166166
0.00952145
0.00169963
0.00994736
0.00173614
0.0104026
0.0108832
0.00177008
9.46427e-05
0.000385599
0.000357073
0.0017584
0.000704591
0.00347117
0.00102723
0.00504821
0.00127254
0.00622894
0.00144029
0.00702636
0.00155291
0.00756617
0.00163405
0.00797381
0.00169989
0.00833408
0.00175901
0.00869193
0.00181516
0.00906699
0.0018698
0.00946682
0.0019236
0.00989357
0.00197675
0.0103494
0.0108322
0.0020278
8.61558e-05
0.000299443
0.000339431
0.00150513
0.000697515
0.00311309
0.00105091
0.00469481
0.00133418
0.00594568
0.00153678
0.00682375
0.00167713
0.00742582
0.00177949
0.00787145
0.0018625
0.00825107
0.00193697
0.00861745
0.00200809
0.00899588
0.00207797
0.00939694
0.00214754
0.009824
0.00221733
0.0102797
0.010764
0.00228551
7.73902e-05
0.000222053
0.000317892
0.00126462
0.00068037
0.00275061
0.00106136
0.00431382
0.00138344
0.00562359
0.00162408
0.00658311
0.0017957
0.0072542
0.001922
0.00774515
0.00202376
0.00814931
0.00211433
0.00852689
0.00220065
0.00890956
0.00228581
0.00931178
0.0023711
0.00973871
0.00245747
0.0101933
0.0106787
0.00254275
6.85792e-05
0.000153474
0.000293265
0.00103994
0.000653359
0.00239052
0.00105717
0.00391001
0.00141783
0.00526293
0.00169944
0.0063015
0.0019063
0.00704734
0.00205994
0.00759151
0.00218267
0.00802658
0.00229045
0.0084191
0.00239242
0.00880759
0.00249295
0.00921124
0.00259391
0.00963776
0.00269678
0.0100904
0.0105764
0.00279909
5.99243e-05
9.35496e-05
0.000266476
0.000833387
0.00061724
0.00203975
0.00103735
0.0034899
0.00143479
0.00486549
0.00175973
0.00597657
0.00200605
0.00680102
0.00219114
0.00740642
0.0023378
0.00787991
0.00246449
0.00829241
0.00258284
0.00868924
0.002699
0.00909508
0.00281559
0.00952117
0.00293488
0.00997111
0.0104572
0.0030541
5.15911e-05
4.19586e-05
0.000238494
0.000646484
0.000573334
0.00170491
0.00100158
0.00306166
0.00143198
0.00443509
0.00180147
0.00560708
0.00209144
0.00651104
0.00231277
0.00718509
0.00248722
0.00770546
0.00263525
0.00814439
0.00277121
0.00855329
0.00290345
0.00896284
0.00303575
0.00938887
0.00317139
0.00983547
0.0103212
0.00330736
4.37109e-05
-1.75228e-06
0.00021025
0.000479945
0.000523452
0.00139171
0.000950399
0.00263471
0.00140749
0.00397799
0.00182102
0.00519356
0.00215835
0.00617371
0.0024212
0.00692224
0.00262826
0.00749841
0.00280101
0.00797163
0.00295649
0.00839781
0.00310568
0.00881365
0.00325392
0.00924063
0.00340586
0.00968353
0.0101686
0.00355846
3.6385e-05
-3.81373e-05
0.000182564
0.000333766
0.000469725
0.00110455
0.000885429
0.00221901
0.00136033
0.00350309
0.00181488
0.00473901
0.00220208
0.00578651
0.00251189
0.00661242
0.00275731
0.00725299
0.00295935
0.0077696
0.00313719
0.00821997
0.00330479
0.00864605
0.00346952
0.0090759
0.00363786
0.00951519
0.00999954
0.00380692
2.96847e-05
-6.7822e-05
0.000156108
0.000207342
0.000414374
0.000846283
0.00080935
0.00182403
0.00129077
0.00302167
0.00178013
0.00424965
0.00221762
0.00534902
0.00257935
0.00625069
0.00286966
0.00696269
0.00310679
0.00753246
0.00331111
0.00801565
0.0034995
0.00845766
0.00368177
0.00889363
0.00386681
0.00933015
0.00981401
0.00405234
2.36605e-05
-9.14824e-05
0.000131393
9.96096e-05
0.000359483
0.000618193
0.000725696
0.00145782
0.00120079
0.00254658
0.00171509
0.00373535
0.00220013
0.00486397
0.00261729
0.00583353
0.00295923
0.00662075
0.00323856
0.00725313
0.00347497
0.00777924
0.00368778
0.00824485
0.0038895
0.0086919
0.004092
0.00912766
0.00961195
0.00429406
1.83419e-05
-0.000109824
0.000108783
9.16845e-06
0.000306819
0.000420156
0.000638436
0.0011262
0.00109418
0.00209083
0.00162
0.00320953
0.00214562
0.00433836
0.00261899
0.00536017
0.00301864
0.00622109
0.00334819
0.00692359
0.00362401
0.00750342
0.00386658
0.00800228
0.00409088
0.0084676
0.00431235
0.00890619
0.0093927
0.0045316
1.37412e-05
-0.000123566
8.85142e-05
-6.56045e-05
0.000257735
0.000250936
0.000551458
0.000832479
0.00097627
0.00166602
0.00149772
0.00268808
0.002052
0.00378408
0.00257804
0.00483413
0.00303941
0.00575973
0.00342734
0.00653565
0.00375145
0.00717931
0.00403115
0.00772258
0.00428305
0.00821571
0.00452607
0.00866317
0.00915514
0.00476363
9.85441e-06
-0.00013342
7.07132e-05
-0.000126463
0.000213158
0.000108492
0.000468115
0.000577521
0.000853242
0.00128089
0.00135388
0.00218744
0.00192026
0.00321771
0.00248966
0.00426473
0.00301269
0.0052367
0.00346587
0.00608247
0.00384812
0.00679706
0.00417451
0.00739619
0.00446117
0.00792904
0.00473069
0.00839365
0.00889712
0.00498871
6.66212e-06
-0.000140082
5.54089e-05
-0.00017521
0.000173628
-9.7272e-06
0.000390946
0.000360203
0.0007312
0.000940639
0.00119639
0.00172225
0.00175528
0.00265881
0.00235231
0.0036677
0.00293071
0.00465829
0.00345242
0.00556076
0.00390214
0.00634734
0.00428661
0.00701172
0.00461823
0.00759742
0.00492063
0.00809125
0.00861322
0.00520453
4.12809e-06
-0.00014421
4.25394e-05
-0.000213622
0.000139346
-0.000106534
0.00032159
0.000177959
0.000615313
0.000646916
0.00103421
0.00130335
0.0015659
0.00212712
0.00216935
0.00306426
0.002789
0.00403863
0.003376
0.00497376
0.00389961
0.00582373
0.00435372
0.00655761
0.00474304
0.00720811
0.00509041
0.00774387
0.00830126
0.00540237
2.19872e-06
-0.000146409
3.19581e-05
-0.000243381
0.000110226
-0.000184802
0.00026084
2.73452e-05
0.000509294
0.000398462
0.000875861
0.000936783
0.00136367
0.00163931
0.00194981
0.00247812
0.00258885
0.0033996
0.00322882
0.00433379
0.00382591
0.00522664
0.00435949
0.00602402
0.00481949
0.00674811
0.0052253
0.00733806
0.00793862
0.00558795
8.07446e-07
-0.000147216
2.34413e-05
-0.000266015
8.59351e-05
-0.000247296
0.000208768
-9.54881e-05
0.000415256
0.000191974
0.000728048
0.000623991
0.00116071
0.00120665
0.00170747
0.00193136
0.00233906
0.00276801
0.00300963
0.00366322
0.00366993
0.00456634
0.00428382
0.00541014
0.004832
0.00619993
0.0053037
0.00686635
0.00752062
0.0057217
-1.47023e-07
-0.000147069
1.66925e-05
-0.000282854
6.59415e-05
-0.000296545
0.000164873
-0.00019442
0.000333858
2.29892e-05
0.000595063
0.000362787
0.000967419
0.000834292
0.00145816
0.00144062
0.00205548
0.00217068
0.00272677
0.00299193
0.00342814
0.00386498
0.00411195
0.00472632
0.00474947
0.00556242
0.00532057
0.00629525
0.0070467
0.00579449
-8.80976e-07
-0.000146188
1.13648e-05
-0.0002951
4.9573e-05
-0.000334753
0.000128228
-0.000273075
0.000264595
-0.000113378
0.000478737
0.000148646
0.000791025
0.000522004
0.00121648
0.00101517
0.0017578
0.00162936
0.00239835
0.00235138
0.00310848
0.00315485
0.00383896
0.00399584
0.00455421
0.00484716
0.00523896
0.00561051
0.00648846
0.0057972
-1.31344e-06
-0.000144875
7.10775e-06
-0.000303521
3.60768e-05
-0.000363722
9.76392e-05
-0.000334637
0.000206144
-0.000221883
0.000378867
-2.40767e-05
0.000635127
0.000265744
0.000993156
0.000657138
0.00146499
0.00115753
0.00204859
0.00176778
0.00273132
0.00247212
0.00347389
0.00325326
0.00423763
0.00408343
0.0050175
0.00483064
0.00582951
0.00567645
-1.60986e-06
-0.000143265
3.56209e-06
-0.000308693
2.46878e-05
-0.000384848
7.17976e-05
-0.000381747
0.000156705
-0.00030679
0.000293824
-0.000161196
0.000500171
5.93963e-05
0.000793988
0.000363321
0.00119156
0.000759959
0.00170168
0.00125766
0.00232507
0.00184874
0.00304067
0.00253766
0.00381291
0.00331119
0.00464847
0.00399508
0.00507397
0.00540401
-1.90584e-06
-0.000141359
4.43051e-07
-0.000311042
1.46868e-05
-0.000399091
4.94165e-05
-0.000416477
0.000114309
-0.000371683
0.000221185
-0.000268073
0.000384365
-0.000103783
0.000620304
0.000127381
0.000945907
0.000434356
0.00137614
0.000827431
0.00191888
0.00130599
0.00257338
0.00188316
0.00331235
0.00257221
0.00414823
0.0031592
0.00424686
0.00497534
-2.28953e-06
-0.00013907
-2.7166e-06
-0.000310615
5.43964e-06
-0.000407248
2.93463e-05
-0.000440383
7.70763e-05
-0.000419413
0.000158279
-0.000349275
0.00028469
-0.000230194
0.000470264
-5.81928e-05
0.000730536
0.000174085
0.00108226
0.000475706
0.00153603
0.00085222
0.00210653
0.00131266
0.00277731
0.00190144
0.00355874
0.00237777
0.0033947
0.0044109
-2.81049e-06
-0.000136259
-5.96293e-06
-0.000307463
-3.53511e-06
-0.000409676
1.06505e-05
-0.000454569
4.33945e-05
-0.000452157
0.000102603
-0.000408484
0.000197773
-0.000325365
0.000340323
-0.000200742
0.000543586
-2.91783e-05
0.000823046
0.000196246
0.00119029
0.000484978
0.00166618
0.000836768
0.00224656
0.00132106
0.00293415
0.00169018
0.0025754
0.00375345
-3.50564e-06
-0.000132754
-9.47085e-06
-0.000301497
-1.25767e-05
-0.00040657
-7.35414e-06
-0.000459791
1.20194e-05
-0.00047153
5.20843e-05
-0.000448548
0.000120508
-0.000393789
0.000226456
-0.000306689
0.000380885
-0.000183607
0.000596637
-1.95073e-05
0.000885697
0.000195918
0.00126666
0.000455804
0.00174832
0.000839409
0.00232244
0.00111605
0.00184136
0.00305647
-4.39066e-06
-0.000128363
-1.33191e-05
-0.000292569
-2.18711e-05
-0.000398018
-2.50908e-05
-0.000456572
-1.7889e-05
-0.000478732
5.20754e-06
-0.000471645
5.04135e-05
-0.000438995
0.000125016
-0.000381292
0.000237756
-0.000296347
0.000398723
-0.000180474
0.000619452
-2.48113e-05
0.000912564
0.000162691
0.00129743
0.00045454
0.00175488
0.000658603
0.0012246
0.00237164
-5.45943e-06
-0.000122903
-1.75123e-05
-0.000280516
-3.14729e-05
-0.000384057
-4.27401e-05
-0.000445305
-4.67861e-05
-0.000474686
-3.8967e-05
-0.000479464
-1.42294e-05
-0.000463733
3.32028e-05
-0.000428724
0.000110167
-0.000373311
0.000224401
-0.000294708
0.00038602
-0.00018643
0.000602371
-5.366e-05
0.00089769
0.00015922
0.00124648
0.000309814
0.000733108
0.00173797
-6.6867e-06
-0.000116217
-2.19952e-05
-0.000265208
-4.13162e-05
-0.000364736
-6.0282e-05
-0.000426339
-7.47974e-05
-0.00046017
-8.08787e-05
-0.000473383
-7.43944e-05
-0.000470217
-5.07992e-05
-0.000452319
-4.8996e-06
-0.000419211
6.95315e-05
-0.000369139
0.000180136
-0.000297035
0.000331698
-0.000205222
0.000546874
-5.59554e-05
0.00080168
5.5008e-05
0.000358125
0.00117666
-8.03177e-06
-0.000108185
-2.66656e-05
-0.000246574
-5.12426e-05
-0.000340159
-7.75359e-05
-0.000400045
-0.000101788
-0.000435918
-0.000120551
-0.000454621
-0.000130437
-0.000460331
-0.000127872
-0.000454885
-0.00010883
-0.000438252
-6.90108e-05
-0.000408959
-3.46733e-06
-0.000362578
9.63695e-05
-0.000305059
0.000240925
-0.000200511
0.000419299
-0.000123366
8.4842e-05
0.000692583
-9.44259e-06
-9.87424e-05
-3.13873e-05
-0.000224629
-6.1028e-05
-0.000310518
-9.42091e-05
-0.000366864
-0.000127441
-0.000402686
-0.000157713
-0.000424349
-0.000182245
-0.000435798
-0.000198244
-0.000438886
-0.000202691
-0.000433806
-0.000192272
-0.000419378
-0.00016189
-0.00039296
-0.000110103
-0.000356846
-2.53391e-05
-0.000285275
9.63521e-05
-0.000245057
-9.84095e-05
0.000279604
-1.086e-05
-8.78824e-05
-3.60036e-05
-0.000199486
-7.04088e-05
-0.000276113
-0.000109941
-0.000327332
-0.000151323
-0.000361304
-0.000191908
-0.000383764
-0.00022941
-0.000398296
-0.000261657
-0.000406639
-0.000286381
-0.000409081
-0.000301021
-0.000404738
-0.000302043
-0.000391938
-0.000288137
-0.000370752
-0.000245179
-0.000328233
-0.000184231
-0.000306005
-0.000212016
-7.06246e-05
-1.2222e-05
-7.56603e-05
-4.03493e-05
-0.000171358
-7.91054e-05
-0.000237357
-0.000124343
-0.000282095
-0.000172953
-0.000312693
-0.000222587
-0.000334131
-0.000271359
-0.000349524
-0.000317586
-0.000360413
-0.000359561
-0.000367105
-0.000395333
-0.000368966
-0.000422364
-0.000364907
-0.000438736
-0.00035438
-0.000434703
-0.000332266
-0.000419388
-0.00032132
-0.000273114
-0.00035829
-1.34676e-05
-6.21928e-05
-4.42623e-05
-0.000140564
-8.68431e-05
-0.000194776
-0.00013703
-0.000231908
-0.000191846
-0.000257876
-0.000249183
-0.000276794
-0.000307472
-0.000291234
-0.000365405
-0.00030248
-0.000421696
-0.000310814
-0.000474855
-0.000315808
-0.000522989
-0.000316772
-0.0005641
-0.000313268
-0.000592291
-0.000304076
-0.00061258
-0.000301031
-0.000283257
-0.000602437
-1.45401e-05
-4.76526e-05
-4.75929e-05
-0.000107511
-9.33691e-05
-0.000149
-0.000147648
-0.00017763
-0.000207554
-0.000197971
-0.000271164
-0.000213184
-0.000337155
-0.000225243
-0.000404499
-0.000235136
-0.000472217
-0.000243097
-0.000539168
-0.000248857
-0.000603926
-0.000252015
-0.000664794
-0.0002524
-0.000718515
-0.000250354
-0.000767537
-0.000252009
-0.000250723
-0.000800071
-1.53908e-05
-3.22619e-05
-5.02119e-05
-7.26896e-05
-9.84663e-05
-0.000100746
-0.000155893
-0.000120203
-0.00021969
-0.000134173
-0.000288073
-0.000144801
-0.000359895
-0.000153421
-0.000434326
-0.000160704
-0.000510606
-0.000166817
-0.000587855
-0.000171608
-0.000664997
-0.000174873
-0.000740775
-0.000176622
-0.000813591
-0.000177538
-0.000884828
-0.000180773
-0.000185497
-0.000950054
-1.59805e-05
-1.62814e-05
-5.20171e-05
-3.6653e-05
-0.000101963
-5.07996e-05
-0.000161527
-6.06385e-05
-0.000227955
-6.77459e-05
-0.000299552
-7.32042e-05
-0.000375286
-7.76871e-05
-0.000454457
-8.15328e-05
-0.000536446
-8.4828e-05
-0.000620548
-8.75066e-05
-0.000705933
-8.94876e-05
-0.000791735
-9.08201e-05
-0.000877316
-9.19564e-05
-0.000963822
-9.42672e-05
-9.82538e-05
-0.00105106
-1.62822e-05
-5.29377e-05
-0.000103742
-0.000164386
-0.00023214
-0.000305353
-0.000383051
-0.000464598
-0.000549442
-0.000636968
-0.000726479
-0.000817326
-0.000909314
-0.00100362
-0.00110191
-0.0051517
0.000162401
-0.00525637
0.000104676
-0.00534454
8.81685e-05
-0.0053991
5.45576e-05
-0.00544521
4.61077e-05
-0.00547055
2.53428e-05
-0.00549132
2.07658e-05
-0.00549871
7.386e-06
-0.00550345
4.74183e-06
-0.00549924
-4.20411e-06
-0.0054932
-6.04891e-06
-0.00548086
-1.23305e-05
-0.0054672
-1.3669e-05
-0.00544917
-1.8022e-05
-0.00543003
-1.91419e-05
-0.00540775
-2.22818e-05
-0.00538444
-2.33134e-05
-0.00535874
-2.57008e-05
-0.005332
-2.67325e-05
-2.87031e-05
-0.00514328
0.000325185
-0.00524823
0.000209622
-0.00533684
0.000176785
-0.00539177
0.000109483
-0.00543835
9.26904e-05
-0.00546412
5.11094e-05
-0.00548536
4.20055e-05
-0.00549319
1.52191e-05
-0.00549838
9.93572e-06
-0.00549464
-7.94327e-06
-0.00548906
-1.16294e-05
-0.0054772
-2.41959e-05
-0.00546399
-2.6879e-05
-0.00544643
-3.55789e-05
-0.00542775
-3.78271e-05
-0.00540593
-4.41014e-05
-0.00538307
-4.61714e-05
-0.00535783
-5.09424e-05
-0.00533155
-5.30112e-05
-5.69504e-05
-0.00512643
0.000488728
-0.00523195
0.000315135
-0.00532144
0.000266279
-0.00537711
0.000165153
-0.00542464
0.000140216
-0.00545125
7.77283e-05
-0.00547344
6.41886e-05
-0.00548217
2.39488e-05
-0.00548826
1.60322e-05
-0.00548545
-1.07534e-05
-0.00548081
-1.62767e-05
-0.00546987
-3.51308e-05
-0.00545758
-3.91727e-05
-0.00544095
-5.22063e-05
-0.00542318
-5.55998e-05
-0.00540228
-6.49973e-05
-0.00538033
-6.81196e-05
-0.00535601
-7.52666e-05
-0.00533064
-7.83831e-05
-8.42866e-05
-0.00510114
0.000653392
-0.00520755
0.000421543
-0.00529834
0.000357067
-0.00535515
0.000221966
-0.00540408