/*--------------------------------*- C++ -*----------------------------------*\
  =========                 |
  \\      /  F ield         | OpenFOAM: The Open Source CFD Toolbox
   \\    /   O peration     | Website:  https://openfoam.org
    \\  /    A nd           | Version:  7
     \\/     M anipulation  |
\*---------------------------------------------------------------------------*/
FoamFile
{
    version     2.0;
    format      ascii;
    class       volVectorField;
    location    "35.001";
    object      U;
}
// * * * * * * * * * * * * * * * * * * * * * * * * * * * * * * * * * * * * * //

dimensions      [0 1 -1 0 0 0 0];

internalField   nonuniform List<vector> 
3700
(
(0.031782 -0.016691 4.11976e-20)
(0.127363 -0.026063 -5.16821e-21)
(0.248149 -0.0254167 -2.13102e-20)
(0.345589 -0.0224921 1.09111e-20)
(0.429291 -0.019621 3.32959e-20)
(0.500112 -0.0172097 -2.90368e-20)
(0.560998 -0.0151762 -1.05278e-21)
(0.613524 -0.013448 -3.14205e-21)
(0.659188 -0.011967 1.31762e-20)
(0.699069 -0.0106888 1.84853e-21)
(0.73409 -0.00957852 -8.43946e-21)
(0.764975 -0.00860804 -6.73365e-21)
(0.79229 -0.00774952 -2.4119e-20)
(0.816468 -0.0069775 2.53854e-20)
(0.837958 -0.00629604 -1.00052e-20)
(0.0342665 -0.0499291 -8.61817e-20)
(0.131107 -0.07801 4.96334e-20)
(0.251735 -0.0760984 1.70964e-20)
(0.348714 -0.0673526 -3.64458e-21)
(0.43197 -0.0587598 -3.08735e-20)
(0.502423 -0.0515416 -5.65601e-20)
(0.563002 -0.045454 4.58834e-20)
(0.615274 -0.0402802 -7.46349e-21)
(0.660725 -0.0358462 -3.45905e-20)
(0.700426 -0.0320194 -3.38904e-20)
(0.735294 -0.028695 4.03185e-20)
(0.766051 -0.0257888 -4.12963e-20)
(0.793265 -0.0232176 5.59012e-20)
(0.817349 -0.0209059 -5.06435e-20)
(0.838706 -0.0188676 -9.84481e-21)
(0.0392061 -0.0827372 -1.33131e-19)
(0.13856 -0.129421 -2.29491e-19)
(0.25888 -0.126326 -1.2395e-20)
(0.354944 -0.111842 5.68517e-20)
(0.43731 -0.0975888 2.6851e-20)
(0.507028 -0.0856111 9.04789e-20)
(0.566999 -0.0755085 -5.98517e-20)
(0.618764 -0.0669215 -6.78849e-20)
(0.663791 -0.0595615 7.3764e-20)
(0.703133 -0.0532088 2.77199e-20)
(0.737694 -0.0476895 -8.31637e-20)
(0.768196 -0.0428638 2.77673e-20)
(0.795209 -0.0385929 -2.37611e-20)
(0.819107 -0.0347544 -2.50579e-20)
(0.840201 -0.031377 -3.81198e-20)
(0.0465424 -0.114833 1.16436e-19)
(0.149655 -0.179943 3.7155e-19)
(0.26953 -0.1758 -1.74509e-19)
(0.364234 -0.155717 1.38444e-20)
(0.445275 -0.135904 -6.02384e-20)
(0.513899 -0.119246 1.64593e-19)
(0.572963 -0.105193 -4.72878e-21)
(0.623973 -0.0932461 -7.27361e-22)
(0.668366 -0.083005 -5.03021e-20)
(0.707172 -0.074164 5.38835e-20)
(0.741278 -0.0664819 1.39886e-19)
(0.771399 -0.0597631 4.72497e-20)
(0.79811 -0.0538141 6.75176e-21)
(0.821732 -0.04847 -1.08786e-20)
(0.842438 -0.0437822 4.39434e-20)
(0.0561883 -0.14594 2.41554e-19)
(0.164293 -0.22923 -1.75751e-19)
(0.283604 -0.224227 -4.59364e-21)
(0.376521 -0.198737 -1.84149e-20)
(0.455814 -0.173506 1.25574e-19)
(0.522991 -0.152275 -9.2163e-20)
(0.580855 -0.134362 3.1785e-20)
(0.630867 -0.119131 -4.22274e-20)
(0.674422 -0.106071 2.47327e-20)
(0.712521 -0.0947937 -1.36533e-19)
(0.746024 -0.0849932 -9.9131e-20)
(0.77564 -0.0764183 -6.10541e-20)
(0.80195 -0.0688212 8.93231e-20)
(0.82521 -0.0620003 -2.32383e-20)
(0.84541 -0.0560406 2.11127e-20)
(0.0680287 -0.175793 -2.77746e-21)
(0.18234 -0.276945 -2.81767e-19)
(0.300996 -0.27132 2.11456e-19)
(0.39172 -0.240669 -1.65716e-19)
(0.468856 -0.210199 -1.34448e-19)
(0.534244 -0.184536 7.04451e-20)
(0.590626 -0.162877 -4.73834e-20)
(0.639404 -0.144455 1.77065e-19)
(0.681925 -0.128655 -5.02012e-20)
(0.719149 -0.115009 1.04383e-19)
(0.751905 -0.103146 -4.89696e-20)
(0.780896 -0.0927626 1.08068e-19)
(0.806708 -0.0835555 2.20427e-20)
(0.829522 -0.0752934 4.70076e-20)
(0.84911 -0.0681085 -5.38371e-20)
(0.0819211 -0.204137 2.13504e-20)
(0.203631 -0.322762 2.82059e-19)
(0.321572 -0.316802 -2.68658e-20)
(0.409726 -0.281287 -5.09647e-21)
(0.484314 -0.245797 -3.35762e-20)
(0.547587 -0.215868 -3.15422e-19)
(0.602215 -0.190601 2.31731e-20)
(0.649533 -0.169103 -1.40047e-19)
(0.690828 -0.150658 -1.86832e-20)
(0.727016 -0.134723 -8.70765e-21)
(0.758888 -0.120867 3.77449e-20)
(0.787137 -0.108731 -8.25179e-20)
(0.812355 -0.0979605 -1.85096e-19)
(0.834645 -0.0882988 1.96525e-19)
(0.853525 -0.079942 6.72771e-20)
(0.0976975 -0.230731 -1.51449e-19)
(0.227971 -0.366373 -2.60711e-19)
(0.345175 -0.360408 6.89855e-20)
(0.430415 -0.320376 1.13281e-19)
(0.502087 -0.280119 1.12545e-19)
(0.562933 -0.246119 -8.10376e-21)
(0.615549 -0.217404 -9.15957e-20)
(0.66119 -0.192963 2.68047e-19)
(0.701078 -0.171985 1.33244e-21)
(0.736077 -0.153855 6.9034e-20)
(0.766934 -0.138084 1.58948e-19)
(0.794327 -0.124263 -1.52961e-19)
(0.81886 -0.111982 1.99414e-19)
(0.840552 -0.100968 -9.88723e-20)
(0.858642 -0.0914973 -6.57193e-20)
(0.115165 -0.255351 8.86703e-20)
(0.255136 -0.407481 -7.92852e-20)
(0.371624 -0.401886 1.5258e-19)
(0.453643 -0.357731 -1.32358e-19)
(0.522057 -0.312995 -1.66191e-19)
(0.580184 -0.275146 -1.89028e-19)
(0.630543 -0.243165 7.70262e-20)
(0.674305 -0.215932 5.0168e-20)
(0.712615 -0.192545 -2.3803e-19)
(0.74628 -0.172324 -1.59911e-19)
(0.775996 -0.154728 -1.42417e-19)
(0.802426 -0.139298 1.97983e-19)
(0.826185 -0.125569 -5.74225e-20)
(0.847214 -0.113253 -4.81947e-20)
(0.864443 -0.102731 3.3425e-21)
(0.134107 -0.277792 3.0949e-19)
(0.284872 -0.445814 4.05786e-19)
(0.400715 -0.440997 -1.66225e-19)
(0.479251 -0.393161 -1.92007e-19)
(0.544094 -0.344267 4.11134e-19)
(0.599229 -0.302814 3.11217e-20)
(0.647106 -0.267768 1.42583e-19)
(0.688798 -0.237908 -3.25261e-19)
(0.72537 -0.212253 1.39892e-19)
(0.757565 -0.190058 2.20823e-20)
(0.786026 -0.170737 -8.89808e-20)
(0.81139 -0.153782 -2.16203e-19)
(0.834291 -0.138674 -9.55064e-20)
(0.854597 -0.125112 6.72843e-20)
(0.870908 -0.113601 1.4326e-20)
(0.154287 -0.297871 -2.14992e-19)
(0.316898 -0.481118 -2.74032e-19)
(0.432221 -0.477523 1.71685e-19)
(0.507061 -0.426487 6.20906e-19)
(0.568053 -0.373787 5.76644e-20)
(0.619948 -0.328998 1.27256e-20)
(0.665133 -0.291107 -1.8776e-19)
(0.704582 -0.258802 3.87312e-19)
(0.739269 -0.231029 1.36068e-20)
(0.76987 -0.206988 1.8468e-19)
(0.796967 -0.186049 2.2941e-19)
(0.821171 -0.167663 1.43734e-19)
(0.843133 -0.151253 -1.2611e-20)
(0.862663 -0.136503 3.83288e-20)
(0.878015 -0.124068 1.26431e-19)
(0.175448 -0.315427 -9.76229e-20)
(0.350911 -0.513163 -1.60444e-19)
(0.465896 -0.51126 5.75396e-20)
(0.53688 -0.457547 4.4523e-20)
(0.593777 -0.401422 -4.64027e-19)
(0.642208 -0.353585 4.70552e-19)
(0.684515 -0.313084 -1.75952e-20)
(0.721562 -0.27853 -1.07525e-19)
(0.754231 -0.248802 -7.02828e-20)
(0.783124 -0.223051 -4.76641e-20)
(0.808758 -0.200611 -7.64781e-20)
(0.831713 -0.180895 5.26483e-20)
(0.852663 -0.163266 -1.52794e-19)
(0.871374 -0.14739 -1.17211e-19)
(0.885737 -0.134092 -7.57633e-20)
(0.197316 -0.330325 -2.40654e-20)
(0.386583 -0.541744 3.10969e-19)
(0.501475 -0.542028 -4.85484e-19)
(0.568502 -0.486196 -6.09384e-19)
(0.6211 -0.427053 2.09596e-19)
(0.66587 -0.376475 -7.86607e-20)
(0.705132 -0.333613 1.77604e-19)
(0.739638 -0.297017 2.41068e-20)
(0.77017 -0.265507 2.96492e-19)
(0.797254 -0.23819 -6.21817e-20)
(0.821336 -0.214372 -2.25036e-19)
(0.842962 -0.193434 2.921e-20)
(0.862831 -0.174679 -6.43007e-20)
(0.880687 -0.157741 2.70383e-20)
(0.894047 -0.14364 -4.94086e-21)
(0.219604 -0.342458 1.61016e-19)
(0.423564 -0.566684 1.45806e-19)
(0.538673 -0.569666 4.51861e-19)
(0.601707 -0.512307 3.46947e-19)
(0.649844 -0.450575 2.62369e-19)
(0.690787 -0.397578 -3.00478e-19)
(0.72686 -0.352619 -6.25997e-20)
(0.758704 -0.314197 -1.27719e-19)
(0.786995 -0.281085 -8.04566e-20)
(0.812181 -0.252355 1.69861e-19)
(0.834633 -0.227287 9.35036e-20)
(0.854854 -0.20524 -2.13463e-20)
(0.873579 -0.185458 2.82345e-19)
(0.890557 -0.167528 -6.41857e-20)
(0.902916 -0.152679 1.54504e-19)
(0.242012 -0.351745 -6.95264e-20)
(0.461486 -0.587836 -5.37287e-19)
(0.577193 -0.594034 -3.24703e-19)
(0.636265 -0.535769 -1.53323e-19)
(0.679825 -0.4719 -3.92133e-19)
(0.716803 -0.416821 3.38136e-19)
(0.749569 -0.370036 1.34138e-19)
(0.778648 -0.330014 1.25852e-19)
(0.804611 -0.295488 -5.93962e-19)
(0.827824 -0.265502 -1.85405e-19)
(0.848579 -0.239319 1.4072e-19)
(0.867327 -0.216284 -7.23237e-20)
(0.88485 -0.195588 9.01201e-20)
(0.900937 -0.176745 -9.24545e-20)
(0.912317 -0.161191 -4.24625e-20)
(0.264231 -0.358139 1.17916e-20)
(0.499966 -0.605079 2.40691e-19)
(0.616718 -0.615019 2.30311e-19)
(0.671934 -0.556493 8.91515e-20)
(0.710851 -0.490956 1.76788e-19)
(0.74376 -0.434142 -1.8421e-19)
(0.773124 -0.385811 -9.32077e-20)
(0.799357 -0.34442 1.14478e-19)
(0.82292 -0.308674 1.78769e-20)
(0.844101 -0.277592 9.56583e-20)
(0.863105 -0.250426 -2.08963e-20)
(0.880314 -0.226517 -2.63029e-20)
(0.896572 -0.205009 -2.43163e-20)
(0.911774 -0.185333 -5.33186e-20)
(0.922229 -0.169133 1.45039e-19)
(0.28595 -0.361621 7.93594e-20)
(0.538604 -0.618327 -9.40826e-20)
(0.656922 -0.63253 -1.07329e-19)
(0.708464 -0.57441 -2.33021e-20)
(0.742724 -0.507688 -9.64031e-20)
(0.771495 -0.449495 1.4228e-19)
(0.797387 -0.399904 -1.55165e-19)
(0.820712 -0.357381 -3.59078e-20)
(0.841821 -0.320611 1.78982e-19)
(0.860924 -0.2886 -4.15382e-21)
(0.878136 -0.260595 1.54887e-19)
(0.893746 -0.235949 -1.37079e-19)
(0.908662 -0.213784 -1.91862e-20)
(0.922996 -0.193425 -2.74421e-20)
(0.932642 -0.176623 -1.4616e-19)
(0.306856 -0.362206 -1.16634e-19)
(0.576989 -0.627521 2.54633e-20)
(0.697466 -0.646503 3.63615e-20)
(0.745599 -0.58947 5.90929e-20)
(0.775245 -0.52206 2.26511e-19)
(0.799841 -0.462849 6.38749e-20)
(0.822219 -0.412286 -1.5821e-19)
(0.842596 -0.368869 9.0732e-20)
(0.861213 -0.331275 3.98389e-19)
(0.878207 -0.298498 -1.43536e-19)
(0.89361 -0.269782 -3.57699e-20)
(0.907584 -0.244486 9.06971e-20)
(0.921063 -0.221708 -4.77055e-20)
(0.934533 -0.200673 4.70332e-20)
(0.943614 -0.183335 -5.7537e-20)
(0.326636 -0.359939 5.62326e-20)
(0.614703 -0.632641 -8.65798e-20)
(0.738 -0.656898 -9.81868e-20)
(0.783078 -0.601647 -1.05178e-19)
(0.80821 -0.534051 -1.81031e-19)
(0.828631 -0.474187 -1.90965e-19)
(0.847478 -0.422942 2.05593e-19)
(0.86489 -0.378869 -3.0213e-19)
(0.880994 -0.340651 -2.4427e-19)
(0.895858 -0.307278 2.13464e-19)
(0.909443 -0.278 -1.6304e-19)
(0.921753 -0.25221 4.28385e-20)
(0.933628 -0.229066 7.84864e-20)
(0.946081 -0.207816 1.02999e-19)
(0.955091 -0.190494 5.20322e-20)
(0.344977 -0.354892 1.57901e-20)
(0.651325 -0.633699 -2.2189e-20)
(0.778168 -0.663703 1.32039e-20)
(0.820633 -0.610933 1.22002e-22)
(0.841414 -0.543658 4.05095e-20)
(0.8577 -0.483507 4.51716e-21)
(0.873025 -0.431868 -1.54501e-19)
(0.887475 -0.387377 1.2806e-19)
(0.901061 -0.348732 -1.1818e-19)
(0.913786 -0.314928 -1.65031e-19)
(0.925567 -0.285213 1.05825e-19)
(0.936263 -0.258979 -8.14927e-20)
(0.946469 -0.235356 3.10686e-20)
(0.957672 -0.213452 -7.66811e-20)
(0.967648 -0.195389 -3.67739e-20)
(0.361569 -0.347173 -6.62902e-20)
(0.686433 -0.63075 4.50935e-20)
(0.817609 -0.666933 4.11386e-21)
(0.857999 -0.617343 6.32317e-20)
(0.874656 -0.550897 7.39579e-20)
(0.886881 -0.490822 -3.90255e-20)
(0.898721 -0.439073 1.12747e-19)
(0.910232 -0.394398 -8.85703e-20)
(0.921318 -0.355522 4.89324e-20)
(0.931907 -0.321452 1.50426e-19)
(0.941895 -0.291435 8.75219e-20)
(0.951059 -0.264877 -1.30042e-19)
(0.959609 -0.241072 5.78175e-20)
(0.968731 -0.219881 3.39463e-20)
(0.979111 -0.203473 5.89873e-20)
(0.376102 -0.336921 1.92899e-19)
(0.719606 -0.623881 -1.61015e-19)
(0.85596 -0.666626 -2.61989e-21)
(0.894908 -0.620915 2.89503e-20)
(0.907735 -0.555795 -2.49219e-20)
(0.916013 -0.496157 9.14613e-20)
(0.924428 -0.444579 -5.538e-20)
(0.933047 -0.399949 -1.81141e-20)
(0.941667 -0.361032 1.99527e-19)
(0.950137 -0.326859 -1.81637e-19)
(0.958335 -0.296681 -5.47242e-20)
(0.966018 -0.269912 1.3911e-19)
(0.973054 -0.246012 -7.78969e-20)
(0.980095 -0.225087 -5.32595e-20)
(0.989172 -0.207252 -1.32287e-20)
(0.388263 -0.324304 -1.58031e-19)
(0.750413 -0.61321 2.25605e-19)
(0.892867 -0.662854 2.92117e-21)
(0.931097 -0.621705 5.14885e-21)
(0.940451 -0.558397 -3.8089e-20)
(0.944936 -0.499554 3.74645e-20)
(0.950015 -0.448419 -7.16186e-21)
(0.955806 -0.404055 7.41428e-20)
(0.962013 -0.365282 -1.64055e-19)
(0.9684 -0.331162 7.62014e-20)
(0.974818 -0.300951 -2.58723e-20)
(0.981045 -0.274053 3.96801e-20)
(0.986757 -0.250035 5.79379e-21)
(0.992037 -0.229162 -3.16488e-21)
(0.999272 -0.21048 -1.31637e-20)
(0.397853 -0.309596 4.77562e-20)
(0.778385 -0.59889 -1.81667e-19)
(0.927999 -0.655733 -1.09597e-19)
(0.966307 -0.619778 6.19645e-22)
(0.972609 -0.558754 8.64699e-21)
(0.973496 -0.501064 1.7399e-20)
(0.975352 -0.450638 -1.60725e-20)
(0.9784 -0.406753 -8.46136e-20)
(0.982262 -0.368302 -1.95108e-20)
(0.986624 -0.334383 6.4224e-20)
(0.991292 -0.304264 2.14687e-20)
(0.996085 -0.277332 -8.31066e-21)
(1.00062 -0.25325 -6.72942e-20)
(1.00456 -0.232473 1.86642e-20)
(1.01005 -0.213415 1.70464e-20)
(0.404724 -0.292999 -2.71301e-20)
(0.802774 -0.58091 3.00424e-19)
(0.961113 -0.645504 6.88967e-20)
(1.00028 -0.615207 8.60212e-21)
(1.00401 -0.556933 1.81425e-20)
(1.00155 -0.500757 -2.00829e-20)
(1.00032 -0.451291 -1.84357e-20)
(1.00072 -0.408088 6.64163e-20)
(1.00233 -0.370128 6.09139e-20)
(1.00473 -0.336553 -1.08802e-19)
(1.00771 -0.306651 1.00691e-20)
(1.0111 -0.279805 8.26665e-21)
(1.01452 -0.255752 8.1665e-20)
(1.01739 -0.235112 1.1384e-20)
(1.02143 -0.215854 -8.55767e-20)
(0.408812 -0.274689 -6.48552e-20)
(0.82335 -0.55975 -4.44266e-19)
(0.991788 -0.632404 -2.22696e-20)
(1.03278 -0.607939 -4.38722e-20)
(1.03448 -0.553009 -6.63397e-20)
(1.02894 -0.498709 1.39938e-20)
(1.02479 -0.450444 7.73869e-21)
(1.02268 -0.408115 -2.09214e-20)
(1.02212 -0.370808 4.59556e-21)
(1.02266 -0.337713 4.64749e-20)
(1.02401 -0.308152 -3.04037e-20)
(1.02603 -0.28151 2.00788e-20)
(1.02838 -0.257576 -2.88027e-20)
(1.03027 -0.237084 -5.01933e-20)
(1.03304 -0.217779 1.07055e-20)
(0.409973 -0.255023 -9.55654e-21)
(0.84011 -0.535873 6.00096e-20)
(1.01928 -0.616291 7.30325e-20)
(1.06347 -0.598095 -1.03071e-20)
(1.0638 -0.547101 -1.03055e-20)
(1.05554 -0.495011 -4.48146e-20)
(1.04867 -0.448169 -3.81037e-21)
(1.04417 -0.406896 2.9303e-21)
(1.04155 -0.370394 -1.1312e-21)
(1.04032 -0.337908 -2.13991e-20)
(1.04014 -0.308803 2.90398e-20)
(1.04084 -0.282477 -8.7987e-21)
(1.04213 -0.258739 -4.80138e-21)
(1.04308 -0.238408 1.49481e-20)
(1.04465 -0.219209 -8.0249e-21)
(0.408064 -0.234352 1.70822e-19)
(0.852749 -0.509447 2.81583e-19)
(1.04327 -0.597302 4.48663e-20)
(1.09205 -0.585891 -8.77002e-20)
(1.0918 -0.539312 1.06443e-19)
(1.08122 -0.489754 4.87711e-20)
(1.07185 -0.444548 -1.74363e-20)
(1.06511 -0.404502 -4.81604e-21)
(1.06056 -0.368946 6.61278e-21)
(1.05766 -0.337188 -2.5569e-21)
(1.05602 -0.308644 -5.66935e-21)
(1.05547 -0.282734 1.52848e-20)
(1.05573 -0.259267 3.82224e-20)
(1.05578 -0.239121 -2.71973e-20)
(1.05619 -0.220153 4.42227e-20)
(0.403015 -0.213001 -1.97953e-19)
(0.860863 -0.48068 -8.83908e-20)
(1.06356 -0.575712 -2.14286e-19)
(1.11822 -0.571488 2.34917e-19)
(1.11826 -0.529759 -1.66628e-19)
(1.10584 -0.483049 5.69698e-20)
(1.09422 -0.439676 1.39813e-20)
(1.08542 -0.401008 8.757e-21)
(1.07907 -0.366526 8.07383e-21)
(1.07461 -0.335606 -1.4481e-21)
(1.0716 -0.30772 3.27102e-21)
(1.06987 -0.282318 1.40927e-20)
(1.06914 -0.259195 -1.51157e-20)
(1.06834 -0.239264 -1.44649e-20)
(1.06766 -0.220631 -3.88454e-20)
(0.39484 -0.191291 -1.90695e-19)
(0.864118 -0.449877 8.59036e-20)
(1.07987 -0.551761 6.14477e-20)
(1.14172 -0.555036 -1.32103e-19)
(1.14307 -0.518594 2.54458e-20)
(1.12924 -0.474981 -8.9704e-21)
(1.11571 -0.433645 -2.80641e-20)
(1.10503 -0.396499 -2.33761e-20)
(1.09702 -0.363203 1.44051e-20)
(1.09111 -0.333219 8.71712e-21)
(1.08684 -0.306077 -4.21759e-22)
(1.08399 -0.281268 -9.79541e-21)
(1.08232 -0.258558 6.06835e-21)
(1.08071 -0.238873 9.07039e-21)
(1.07904 -0.220665 1.25783e-20)
(0.383621 -0.169552 1.85328e-19)
(0.862265 -0.417393 -8.56398e-20)
(1.09186 -0.525682 4.36335e-20)
(1.16226 -0.536717 1.94533e-19)
(1.16605 -0.50591 1.51413e-19)
(1.15138 -0.465671 -1.03784e-19)
(1.13618 -0.426573 3.84421e-20)
(1.12386 -0.391055 3.37221e-20)
(1.11435 -0.359051 -4.1097e-20)
(1.10711 -0.330089 1.34569e-20)
(1.10167 -0.303767 -2.42599e-21)
(1.09778 -0.279625 -1.64666e-21)
(1.09522 -0.257394 -2.25812e-21)
(1.09288 -0.237983 -8.20975e-21)
(1.09029 -0.220272 1.15965e-20)
(0.369503 -0.148108 -1.72424e-19)
(0.85511 -0.383607 1.09135e-19)
(1.09918 -0.497717 1.33351e-19)
(1.17955 -0.516677 -2.89334e-20)
(1.18692 -0.491834 -2.08875e-19)
(1.17223 -0.45525 -6.92287e-20)
(1.15564 -0.418545 -8.29715e-20)
(1.14186 -0.384787 3.08324e-20)
(1.13101 -0.354143 -8.48742e-21)
(1.12258 -0.326279 -2.35579e-20)
(1.11607 -0.300842 -1.66356e-20)
(1.11121 -0.27743 3.61654e-22)
(1.10782 -0.255738 -4.70446e-21)
(1.1048 -0.236625 5.10079e-22)
(1.10137 -0.219464 -5.72796e-21)
(0.352692 -0.127272 7.44279e-20)
(0.842519 -0.348917 8.06841e-22)
(1.10151 -0.468125 -4.04668e-19)
(1.19328 -0.495069 -2.2497e-20)
(1.20548 -0.476502 1.65471e-19)
(1.19156 -0.443832 1.40686e-19)
(1.17406 -0.409679 7.52317e-20)
(1.159 -0.377768 -2.53771e-21)
(1.14695 -0.348569 1.52552e-20)
(1.13745 -0.321856 -1.2795e-21)
(1.12999 -0.297354 2.12112e-20)
(1.12425 -0.27473 5.7855e-21)
(1.12008 -0.253634 4.82045e-21)
(1.11646 -0.234836 -8.28625e-21)
(1.11227 -0.218252 -6.01317e-21)
(0.333456 -0.107341 -1.26855e-20)
(0.824426 -0.31374 1.32265e-19)
(1.09854 -0.437183 2.19075e-19)
(1.20316 -0.472058 6.40264e-20)
(1.22155 -0.460036 -1.55749e-19)
(1.20925 -0.431538 -1.6635e-19)
(1.19134 -0.400076 6.21461e-20)
(1.17527 -0.370094 -2.49243e-20)
(1.16219 -0.342395 8.1307e-20)
(1.15172 -0.316887 -5.8658e-22)
(1.14341 -0.293363 -1.12765e-20)
(1.13687 -0.271564 -5.32009e-21)
(1.13196 -0.251122 1.7062e-20)
(1.12784 -0.232647 1.00983e-20)
(1.12298 -0.216661 6.80352e-21)
(0.312117 -0.0885876 1.90007e-19)
(0.800843 -0.278513 -2.00689e-19)
(1.09 -0.405178 1.15106e-19)
(1.20887 -0.447812 1.43056e-19)
(1.23492 -0.44255 1.08061e-19)
(1.22519 -0.418474 3.57091e-20)
(1.20738 -0.389844 2.34999e-20)
(1.19061 -0.361857 -1.41653e-21)
(1.17667 -0.335701 -3.73208e-20)
(1.16538 -0.311434 1.60563e-20)
(1.1563 -0.288916 3.47584e-20)
(1.14905 -0.26798 1.01463e-20)
(1.14346 -0.248254 -9.69815e-21)
(1.13888 -0.23011 -7.56946e-21)
(1.1335 -0.214717 -7.20122e-21)
(0.289049 -0.0712514 -1.02665e-19)
(0.77187 -0.243683 7.28733e-20)
(1.07563 -0.372414 -6.00339e-21)
(1.21006 -0.422499 -1.53214e-19)
(1.24534 -0.424151 -3.23379e-20)
(1.23927 -0.404738 7.52763e-20)
(1.22214 -0.379082 -5.69235e-20)
(1.20497 -0.353151 7.16705e-21)
(1.19036 -0.328567 -3.78132e-21)
(1.1784 -0.305563 -1.22664e-20)
(1.16867 -0.284079 -2.00207e-20)
(1.16081 -0.264022 -3.09552e-20)
(1.15459 -0.245047 -1.45108e-20)
(1.14953 -0.227258 1.81538e-20)
(1.14395 -0.212496 3.96255e-21)
(0.264665 -0.0555338 -1.27653e-19)
(0.737713 -0.209706 -1.57615e-20)
(1.05523 -0.339199 -7.60185e-20)
(1.20637 -0.396289 6.51199e-20)
(1.25251 -0.404941 -7.04627e-20)
(1.25132 -0.390414 -2.77135e-20)
(1.23556 -0.367877 7.47098e-21)
(1.21834 -0.344061 -7.81389e-21)
(1.20326 -0.32107 2.04924e-20)
(1.19074 -0.299344 9.55022e-22)
(1.18047 -0.278907 1.31637e-20)
(1.17209 -0.25973 1.71055e-20)
(1.16532 -0.241525 1.73464e-20)
(1.15981 -0.224249 -5.91859e-21)
(1.15422 -0.210021 -5.35891e-21)
(0.239408 -0.041591 7.41343e-20)
(0.698703 -0.177044 7.76946e-20)
(1.02862 -0.305853 2.55994e-20)
(1.19744 -0.369348 -3.92176e-20)
(1.25611 -0.385008 7.64482e-21)
(1.26115 -0.375576 5.48782e-20)
(1.24757 -0.35631 -3.60624e-20)
(1.2307 -0.334668 -2.96793e-20)
(1.21536 -0.313284 -6.64343e-21)
(1.20243 -0.29284 5.87757e-21)
(1.19172 -0.273454 -2.74337e-20)
(1.18289 -0.255157 7.07464e-21)
(1.17567 -0.237736 1.60089e-20)
(1.16973 -0.221059 -4.08547e-21)
(1.16398 -0.207276 -5.24655e-21)
(0.213736 -0.0295305 -4.85762e-20)
(0.655307 -0.146149 -3.2885e-20)
(0.995714 -0.272705 -6.18093e-20)
(1.18288 -0.341847 -9.71558e-21)
(1.25577 -0.364433 -6.52212e-21)
(1.26853 -0.360282 -6.1063e-20)
(1.25805 -0.344445 1.83819e-20)
(1.24201 -0.325046 9.85458e-21)
(1.22666 -0.305281 -1.67961e-20)
(1.21345 -0.286113 -9.972e-21)
(1.2024 -0.267772 -1.17663e-21)
(1.19321 -0.250349 -8.74601e-21)
(1.18561 -0.233708 -1.3972e-20)
(1.17928 -0.217635 -1.27335e-20)
(1.17324 -0.204275 8.75439e-21)
(0.188104 -0.0194066 -2.15185e-20)
(0.608136 -0.117449 7.76786e-21)
(0.956501 -0.240088 1.04229e-20)
(1.16232 -0.313963 1.05291e-20)
(1.25106 -0.343289 1.75082e-20)
(1.27317 -0.344571 1.2082e-20)
(1.26687 -0.332333 -3.38869e-21)
(1.25224 -0.315257 1.12982e-20)
(1.23715 -0.297123 -3.942e-22)
(1.22382 -0.279221 -9.60571e-23)
(1.21252 -0.261913 4.3665e-21)
(1.20305 -0.245351 -2.00988e-21)
(1.19513 -0.229473 1.33377e-21)
(1.18848 -0.213979 5.46432e-21)
(1.18216 -0.201037 -4.54134e-21)
(0.162949 -0.0112168 -1.28778e-20)
(0.557932 -0.0913358 -3.43153e-21)
(0.911082 -0.208346 1.51222e-20)
(1.1354 -0.285883 6.75696e-21)
(1.24152 -0.321639 1.91101e-20)
(1.27471 -0.328465 1.30804e-20)
(1.27384 -0.320006 -5.07526e-22)
(1.26131 -0.305351 1.57855e-20)
(1.24682 -0.28887 -7.78518e-21)
(1.23353 -0.272218 8.40428e-22)
(1.2221 -0.255923 5.31097e-21)
(1.21243 -0.240201 -2.47872e-21)
(1.20425 -0.225068 2.36403e-21)
(1.19734 -0.210132 8.70304e-21)
(1.19083 -0.197581 -3.38653e-21)
(0.138676 -0.0048996 -1.74334e-20)
(0.505557 -0.068145 -5.18018e-20)
(0.859715 -0.17783 -5.99237e-20)
(1.10179 -0.257803 -2.20885e-21)
(1.22663 -0.299542 -8.84809e-21)
(1.27273 -0.311966 -6.73048e-20)
(1.27872 -0.307473 3.42737e-20)
(1.26912 -0.295362 5.36724e-21)
(1.25564 -0.280567 -2.35178e-20)
(1.24261 -0.265154 -2.06677e-20)
(1.23114 -0.249849 3.71777e-21)
(1.22134 -0.234942 -1.30599e-20)
(1.21299 -0.220535 -1.39224e-20)
(1.20587 -0.206147 -1.84195e-20)
(1.19927 -0.193934 1.17078e-20)
(0.115637 -0.000338627 6.76153e-20)
(0.451968 -0.0481415 4.94881e-20)
(0.802837 -0.148907 2.15043e-20)
(1.06122 -0.229935 -3.26678e-20)
(1.20581 -0.277057 1.60232e-20)
(1.26669 -0.29506 3.54647e-20)
(1.28116 -0.294719 -2.98141e-20)
(1.27552 -0.285301 -6.05761e-20)
(1.26358 -0.272251 -8.97467e-21)
(1.25104 -0.258073 3.58577e-20)
(1.23967 -0.243732 -4.68814e-20)
(1.22982 -0.229611 1.83158e-20)
(1.22134 -0.21591 8.17192e-21)
(1.21408 -0.202076 -1.08049e-21)
(1.20747 -0.19013 1.81562e-21)
(0.0941266 0.00262958 -7.8759e-20)
(0.398184 -0.0314986 -5.06558e-20)
(0.741105 -0.121949 -8.37837e-20)
(1.01355 -0.20251 7.87545e-20)
(1.17848 -0.254247 -9.01733e-20)
(1.25598 -0.277716 -2.41488e-20)
(1.28073 -0.281704 -2.76714e-21)
(1.28027 -0.27516 -1.53904e-21)
(1.27055 -0.26394 4.95965e-20)
(1.25881 -0.251009 -5.95022e-20)
(1.24769 -0.237612 4.49246e-20)
(1.23787 -0.224245 2.22329e-20)
(1.22933 -0.211226 5.71634e-20)
(1.22197 -0.197958 -6.35804e-21)
(1.21539 -0.186203 -1.79026e-20)
(0.0743667 0.00420254 1.31608e-20)
(0.345232 -0.0182774 1.41663e-20)
(0.675417 -0.0973366 -3.0091e-20)
(0.958768 -0.175787 -1.23451e-19)
(1.14403 -0.231189 -3.53059e-20)
(1.23987 -0.259895 9.57447e-20)
(1.27687 -0.268361 -8.13953e-20)
(1.28307 -0.2649 -4.48728e-20)
(1.2764 -0.255634 1.3295e-20)
(1.26589 -0.243984 -1.98215e-20)
(1.25521 -0.23152 -9.1431e-20)
(1.24551 -0.218878 -4.51971e-20)
(1.23698 -0.206504 3.03578e-21)
(1.22954 -0.193822 1.15352e-20)
(1.22303 -0.182183 1.01947e-20)
(0.0565076 0.00459684 1.47295e-19)
(0.294096 -0.00841188 -1.8785e-19)
(0.606917 -0.0754393 1.36986e-19)
(0.8971 -0.150058 7.51013e-20)
(1.10193 -0.207988 2.47494e-19)
(1.21755 -0.241559 1.35436e-20)
(1.26888 -0.254602 6.86158e-20)
(1.28345 -0.254454 1.85846e-20)
(1.28092 -0.247309 -1.58407e-19)
(1.2722 -0.237006 5.48426e-20)
(1.2622 -0.225478 3.78487e-20)
(1.25275 -0.213537 7.39569e-20)
(1.24428 -0.201767 -7.52482e-20)
(1.2368 -0.189691 -2.51914e-20)
(1.23039 -0.178095 -5.95169e-21)
(0.040629 0.00403346 -1.96315e-20)
(0.245654 -0.0017062 2.20155e-19)
(0.53697 -0.0565944 1.87587e-19)
(0.829055 -0.125662 3.95971e-20)
(1.05172 -0.184788 -2.44471e-19)
(1.18813 -0.222678 -1.66316e-19)
(1.25588 -0.240319 6.15892e-20)
(1.28082 -0.243721 -4.64254e-20)
(1.28379 -0.23891 8.90228e-20)
(1.2776 -0.230063 2.45121e-20)
(1.26865 -0.219497 1.87235e-20)
(1.25959 -0.208245 -4.41408e-20)
(1.25127 -0.197033 2.44326e-20)
(1.24378 -0.185582 1.0566e-19)
(1.23748 -0.173965 1.22299e-19)
(0.0267484 0.00272572 1.63465e-19)
(0.200628 0.0021513 -1.81595e-19)
(0.4671 -0.0410681 -3.0983e-19)
(0.755512 -0.102988 3.20085e-20)
(0.993168 -0.161792 2.16124e-19)
(1.1507 -0.203251 2.32777e-19)
(1.23688 -0.225396 1.43179e-19)
(1.27437 -0.23257 -2.15111e-21)
(1.28451 -0.230348 3.56616e-20)
(1.28186 -0.223115 1.32781e-20)
(1.27446 -0.213574 9.32073e-20)
(1.26601 -0.203018 2.58667e-20)
(1.25794 -0.192316 1.99121e-20)
(1.25049 -0.18151 -2.68403e-20)
(1.24431 -0.169814 -3.56475e-20)
(0.0148303 0.000871148 -2.11193e-19)
(0.159547 0.0035563 1.67634e-19)
(0.398878 -0.0290076 1.64474e-19)
(0.677763 -0.0824734 -1.34251e-19)
(0.926341 -0.139278 -3.32479e-19)
(1.10443 -0.183324 -7.08033e-20)
(1.2107 -0.209722 -2.00362e-19)
(1.2631 -0.220843 7.80581e-20)
(1.28241 -0.221497 -1.25589e-20)
(1.28461 -0.216095 -1.02552e-19)
(1.27948 -0.207683 -4.17215e-20)
(1.27198 -0.197859 1.82356e-21)
(1.26429 -0.187627 -2.94267e-20)
(1.25695 -0.177484 -2.98971e-20)
(1.25091 -0.165663 3.41543e-21)
(0.00479597 -0.00135315 3.07982e-19)
(0.122739 0.00294737 -2.037e-19)
(0.33379 -0.0203965 1.30722e-19)
(0.597524 -0.0645762 1.47569e-19)
(0.851753 -0.117623 2.87187e-19)
(1.04862 -0.163019 -2.28532e-19)
(1.1761 -0.193211 1.00392e-19)
(1.24576 -0.208364 1.17616e-19)
(1.27656 -0.212189 -1.2171e-19)
(1.28531 -0.208894 -5.1498e-20)
(1.28345 -0.201771 -1.47811e-20)
(1.2774 -0.192757 -1.97555e-20)
(1.27031 -0.182968 -9.31009e-20)
(1.26315 -0.173508 7.46996e-20)
(1.25728 -0.161526 -1.40044e-19)
(-0.00346535 -0.00379166 -1.69409e-19)
(0.0903401 0.000766039 8.42599e-21)
(0.273106 -0.0150341 9.20132e-20)
(0.516841 -0.0497203 -2.30547e-19)
(0.770495 -0.0973067 1.19487e-19)
(0.982941 -0.142564 -7.64504e-22)
(1.13183 -0.175832 -1.35563e-19)
(1.2209 -0.194955 -6.03749e-20)
(1.26576 -0.202223 9.23066e-21)
(1.28315 -0.201357 1.30251e-19)
(1.28592 -0.195747 1.62376e-19)
(1.28206 -0.187676 1.43092e-19)
(1.27593 -0.178331 2.49753e-20)
(1.2691 -0.169581 -1.56321e-19)
(1.26345 -0.157416 -1.97727e-20)
(-0.0100916 -0.00631165 3.52785e-20)
(0.0623229 -0.00257291 -2.0264e-19)
(0.217776 -0.0125573 -3.09314e-19)
(0.437915 -0.0382129 3.00381e-19)
(0.684314 -0.0789074 -2.21836e-19)
(0.907568 -0.122327 1.21355e-19)
(1.07682 -0.157648 1.34696e-19)
(1.18691 -0.180464 9.79708e-20)
(1.24849 -0.191368 9.23274e-20)
(1.27703 -0.193283 2.69223e-20)
(1.28624 -0.189476 -1.09032e-19)
(1.28564 -0.182548 -1.35018e-19)
(1.28101 -0.173692 3.334e-20)
(1.27474 -0.165689 3.85624e-20)
(1.26942 -0.153332 1.58985e-19)
(-0.0152398 -0.00880509 1.4545e-19)
(0.0385303 -0.00670204 4.02335e-19)
(0.168389 -0.0124987 -9.78637e-20)
(0.362851 -0.0301599 -1.92709e-19)
(0.595593 -0.0630422 4.42819e-19)
(0.82345 -0.10284 1.80861e-19)
(1.01036 -0.138862 4.15171e-20)
(1.14214 -0.164806 -6.39845e-20)
(1.22292 -0.17939 2.36975e-20)
(1.26542 -0.184422 -1.76248e-19)
(1.28338 -0.182766 8.21778e-20)
(1.28758 -0.177258 2.31146e-20)
(1.28529 -0.168996 -1.35512e-19)
(1.28001 -0.161806 -4.41831e-20)
(1.27514 -0.14927 -1.1784e-19)
(-0.0190766 -0.0111871 -6.25209e-20)
(0.0187097 -0.0113092 1.88406e-19)
(0.12519 -0.0143569 1.81007e-19)
(0.293409 -0.0254243 -7.88401e-20)
(0.507148 -0.050264 -3.142e-20)
(0.732457 -0.0847965 -2.10352e-19)
(0.932437 -0.119871 9.95685e-20)
(1.08512 -0.148018 -1.10102e-19)
(1.18701 -0.166084 -5.57124e-20)
(1.24643 -0.174494 1.51446e-19)
(1.27593 -0.175366 -1.44489e-19)
(1.28699 -0.171637 7.26722e-20)
(1.28832 -0.164154 1.63575e-19)
(1.28463 -0.157875 -1.90867e-19)
(1.28063 -0.145207 1.3229e-19)
(-0.0217742 -0.013397 -1.46909e-19)
(0.00254165 -0.0161404 -6.10411e-19)
(0.0881357 -0.0176544 2.705e-20)
(0.230837 -0.0236529 -1.51567e-19)
(0.421882 -0.0409286 -4.43081e-19)
(0.637395 -0.0689831 1.46476e-19)
(0.844065 -0.101305 -2.77191e-19)
(1.01493 -0.13033 1.22608e-19)
(1.13867 -0.15134 1.18707e-19)
(1.21774 -0.163213 -1.77336e-19)
(1.26194 -0.166971 7.26514e-20)
(1.28252 -0.165442 2.68188e-20)
(1.2893 -0.159013 4.62352e-21)
(1.28834 -0.153826 5.20351e-20)
(1.28549 -0.141063 -3.96131e-20)
(-0.0235042 -0.0153975 9.24338e-21)
(-0.0103346 -0.0209978 3.47551e-19)
(0.0569666 -0.0219697 2.21059e-19)
(0.175825 -0.0243578 1.82579e-19)
(0.342364 -0.0350964 1.83378e-19)
(0.541763 -0.0561372 2.22865e-19)
(0.747516 -0.0840084 1.66411e-19)
(0.931596 -0.112242 -2.23903e-19)
(1.07616 -0.135223 -3.10622e-19)
(1.17678 -0.150351 2.94773e-19)
(1.23891 -0.157238 3.732e-20)
(1.27224 -0.158366 -2.70359e-20)
(1.28699 -0.153351 -1.91909e-19)
(1.29025 -0.149496 -5.63322e-20)
(1.28988 -0.136814 1.55151e-19)
(-0.0244328 -0.0171725 1.12186e-19)
(-0.020301 -0.0257354 -4.83444e-19)
(0.0312716 -0.0269481 -4.25866e-20)
(0.128559 -0.0270075 -1.68767e-19)
(0.270506 -0.0325242 -1.24032e-19)
(0.449245 -0.0467646 -8.60497e-21)
(0.646314 -0.0689366 -6.98118e-20)
(0.83661 -0.0945564 2.39627e-19)
(0.998564 -0.118078 1.83857e-19)
(1.12107 -0.135825 -2.05499e-19)
(1.20391 -0.145853 1.16967e-19)
(1.2535 -0.150018 -1.57855e-19)
(1.2795 -0.146881 1.50693e-19)
(1.28942 -0.144702 -3.56884e-20)
(1.29216 -0.132115 -1.53172e-19)
(-0.024716 -0.0187241 -4.01502e-19)
(-0.0277441 -0.0302511 6.68399e-19)
(0.0105417 -0.032299 7.61652e-21)
(0.0888271 -0.0310909 -1.85334e-19)
(0.207424 -0.0327434 2.45258e-19)
(0.363104 -0.041005 -7.19584e-20)
(0.544812 -0.056943 -1.98437e-19)
(0.733134 -0.0783221 -2.23271e-19)
(0.906474 -0.10062 4.23522e-19)
(1.04882 -0.119838 -1.1176e-19)
(1.15378 -0.132599 -3.70942e-20)
(1.22307 -0.140059 2.05748e-19)
(1.26393 -0.139119 -1.51606e-19)
(1.28391 -0.139264 5.34969e-20)
(1.29266 -0.1269 -6.63713e-20)
(-0.0244971 -0.0200679 5.66677e-19)
(-0.0330413 -0.0344774 -6.21522e-19)
(-0.00578691 -0.0377857 -2.57626e-19)
(0.0561338 -0.0361471 1.01658e-19)
(0.153485 -0.0351714 -4.22926e-20)
(0.285716 -0.0386166 -1.52636e-19)
(0.447439 -0.0485488 1.98591e-19)
(0.625802 -0.0646253 -1.46807e-19)
(0.802517 -0.0839225 -2.42982e-19)
(0.959746 -0.102992 2.96713e-19)
(1.08596 -0.117578 -1.01017e-19)
(1.17707 -0.128088 5.59274e-20)
(1.23712 -0.129893 1.21959e-20)
(1.27021 -0.132385 1.43755e-19)
(1.28797 -0.120925 7.5013e-20)
(-0.0239027 -0.0212293 -2.33697e-19)
(-0.0365491 -0.0383709 9.14238e-20)