/*--------------------------------*- C++ -*----------------------------------*\
  =========                 |
  \\      /  F ield         | OpenFOAM: The Open Source CFD Toolbox
   \\    /   O peration     | Website:  https://openfoam.org
    \\  /    A nd           | Version:  7
     \\/     M anipulation  |
\*---------------------------------------------------------------------------*/
FoamFile
{
    version     2.0;
    format      ascii;
    class       volVectorField;
    location    "55";
    object      U;
}
// * * * * * * * * * * * * * * * * * * * * * * * * * * * * * * * * * * * * * //

dimensions      [0 1 -1 0 0 0 0];

internalField   nonuniform List<vector> 
3500
(
(-0.215786 -0.0013081 1.75075e-20)
(-0.214115 -0.00142078 -1.82047e-20)
(-0.212293 -0.00153451 7.66479e-21)
(-0.210317 -0.00164938 9.40256e-21)
(-0.208184 -0.00176545 -1.68768e-20)
(-0.205892 -0.00188276 1.97103e-20)
(-0.203441 -0.00200135 -1.92722e-20)
(-0.200827 -0.00212123 2.29446e-20)
(-0.198049 -0.00224241 -1.04563e-20)
(-0.195106 -0.00236487 -4.04611e-21)
(-0.191996 -0.00248858 7.28615e-22)
(-0.188719 -0.00261348 6.11976e-21)
(-0.185274 -0.00273951 3.55842e-21)
(-0.181659 -0.00286657 8.14991e-23)
(-0.177876 -0.00299458 -9.41728e-21)
(-0.173924 -0.0031234 -1.06685e-21)
(-0.169804 -0.00325291 -3.01521e-21)
(-0.165517 -0.00338296 6.35914e-21)
(-0.161064 -0.0035134 -5.4258e-22)
(-0.156445 -0.00364406 6.82171e-21)
(-0.151664 -0.00377478 -1.30515e-20)
(-0.146722 -0.00390525 6.59846e-21)
(-0.141621 -0.00403497 5.08976e-22)
(-0.136364 -0.00416367 -1.11825e-20)
(-0.130952 -0.00429171 5.37608e-21)
(-0.125392 -0.00441587 2.44081e-21)
(-0.119689 -0.00453858 1.40013e-21)
(-0.113846 -0.00465955 -3.29105e-21)
(-0.107869 -0.0047781 1.92845e-22)
(-0.101761 -0.00489384 1.02785e-20)
(-0.0955282 -0.00500644 -1.4999e-20)
(-0.0891746 -0.00511557 1.03337e-20)
(-0.082706 -0.0052209 1.4107e-21)
(-0.076128 -0.00532214 -1.42092e-21)
(-0.0694463 -0.00541902 -1.07886e-21)
(-0.0626667 -0.00551119 1.17463e-21)
(-0.0557953 -0.00559846 -2.23002e-21)
(-0.0488384 -0.00568117 -2.09858e-22)
(-0.0418003 -0.00576019 -5.54684e-22)
(-0.0346879 -0.00583102 2.85406e-22)
(-0.027509 -0.00589595 1.51034e-21)
(-0.020269 -0.00595529 -2.83661e-21)
(-0.0129738 -0.00600877 -7.53326e-22)
(-0.00562954 -0.00605621 2.33364e-21)
(0.0017581 -0.00609748 1.62824e-21)
(0.00918331 -0.00613261 -1.94415e-21)
(0.0166402 -0.00616158 7.98893e-22)
(0.0241231 -0.0061844 -2.12412e-21)
(0.0316267 -0.0062011 1.39838e-21)
(0.0391458 -0.00621177 1.04192e-21)
(0.0466752 -0.00621652 -7.90709e-22)
(0.0542099 -0.00621548 3.10969e-22)
(0.0617454 -0.00620882 5.3101e-22)
(0.069277 -0.0061967 -1.66755e-21)
(0.0768005 -0.00617934 1.76006e-21)
(0.0843117 -0.00615696 -1.51196e-21)
(0.0918068 -0.0061298 1.36921e-21)
(0.0992822 -0.00609812 -1.02308e-21)
(0.106734 -0.00606219 2.29557e-23)
(0.11416 -0.0060223 3.07782e-22)
(0.121557 -0.00597874 -1.95209e-22)
(0.128921 -0.00593182 -1.31278e-22)
(0.136251 -0.00588186 5.87716e-23)
(0.143544 -0.00582917 -4.59202e-22)
(0.150797 -0.00577408 1.23516e-22)
(0.158011 -0.00571692 -1.66615e-23)
(0.165181 -0.00565801 4.5481e-22)
(0.172308 -0.00559768 -1.91861e-22)
(0.17939 -0.00553626 -3.88178e-22)
(0.186426 -0.00547408 1.41871e-22)
(0.193415 -0.00541143 9.65079e-23)
(0.200357 -0.00534862 -1.33281e-22)
(0.207251 -0.00528598 1.18861e-22)
(0.214098 -0.00522386 8.27047e-23)
(0.220897 -0.00516257 -1.19424e-22)
(0.227648 -0.00510241 -2.49515e-23)
(0.234353 -0.00504369 8.59446e-23)
(0.241012 -0.00498674 -6.58033e-23)
(0.247625 -0.00493186 3.4312e-23)
(0.254195 -0.00487939 -1.6194e-23)
(0.260722 -0.00482968 -2.18081e-24)
(0.267209 -0.00478311 7.1535e-24)
(0.273657 -0.00474012 -3.96213e-24)
(0.28007 -0.00470115 -8.23319e-24)
(0.28645 -0.00466691 3.18991e-24)
(0.2928 -0.00463776 -1.34171e-24)
(0.299133 -0.0046157 -6.92775e-25)
(0.305409 -0.00459909 -2.0117e-25)
(0.311857 -0.00459632 -6.06994e-25)
(0.317498 -0.00459605 2.24425e-25)
(0.327366 -0.00458996 7.14329e-25)
(-0.174097 -0.00419906 -6.70056e-21)
(-0.172139 -0.00455933 5.09765e-20)
(-0.17003 -0.00492333 2.57982e-20)
(-0.167769 -0.00529109 -2.92571e-20)
(-0.165354 -0.00566258 4.77575e-20)
(-0.162783 -0.0060377 -5.32432e-20)
(-0.160056 -0.00641627 5.18688e-20)
(-0.15717 -0.00679805 -3.75817e-20)
(-0.154126 -0.00718276 -2.82648e-20)
(-0.150921 -0.00757004 -6.09806e-21)
(-0.147555 -0.00795946 -1.83253e-21)
(-0.144028 -0.00835056 3.55996e-20)
(-0.140339 -0.00874281 1.59729e-20)
(-0.136489 -0.00913565 -3.48804e-20)
(-0.132478 -0.00952847 3.01372e-20)
(-0.128307 -0.00992062 3.08585e-21)
(-0.123976 -0.0103114 -2.68956e-20)
(-0.119487 -0.0107002 2.43238e-21)
(-0.114841 -0.0110864 9.24914e-21)
(-0.110042 -0.0114691 3.82393e-21)
(-0.10509 -0.0118478 -1.21625e-22)
(-0.0999876 -0.0122219 -6.67878e-21)
(-0.0947392 -0.0125902 -1.76539e-20)
(-0.0893493 -0.0129544 9.95751e-21)
(-0.0838133 -0.0133231 -5.02204e-21)
(-0.078139 -0.0136636 1.26923e-20)
(-0.0723373 -0.0139949 -3.31303e-22)
(-0.0664092 -0.0143183 6.2191e-21)
(-0.0603589 -0.0146318 -1.82785e-20)
(-0.0541914 -0.0149345 1.04726e-20)
(-0.0479118 -0.0152255 4.14731e-21)
(-0.0415255 -0.0155043 -1.60444e-20)
(-0.0350378 -0.0157701 2.63116e-20)
(-0.0284543 -0.0160224 -1.26458e-20)
(-0.0217807 -0.0162606 -8.92968e-21)
(-0.0150229 -0.0164844 1.65522e-20)
(-0.00818808 -0.0166936 -3.10969e-21)
(-0.00128464 -0.0168879 -3.46326e-21)
(0.00569075 -0.0170661 -9.90665e-22)
(0.0127312 -0.0172284 5.79087e-21)
(0.0198212 -0.0173754 4.59395e-21)
(0.0269587 -0.0175068 -1.78284e-20)
(0.0341391 -0.0176225 2.77246e-21)
(0.0413564 -0.0177227 9.53081e-22)
(0.0486049 -0.0178073 -1.888e-21)
(0.0558792 -0.0178766 9.58972e-21)
(0.0631738 -0.0179309 1.40053e-21)
(0.0704835 -0.0179705 -2.9139e-21)
(0.0778032 -0.0179957 -3.69429e-21)
(0.0851281 -0.0180068 5.49103e-21)
(0.0924535 -0.0180043 -2.39884e-21)
(0.0997747 -0.0179887 6.23512e-21)
(0.107088 -0.0179605 -5.73063e-21)
(0.114388 -0.0179202 -4.21751e-23)
(0.121673 -0.0178684 1.47778e-21)
(0.128937 -0.0178057 -1.10332e-21)
(0.136178 -0.0177327 -1.28556e-22)
(0.143392 -0.01765 1.045e-21)
(0.150577 -0.0175582 7.12093e-22)
(0.15773 -0.0174581 1.18632e-22)
(0.164848 -0.0173504 -5.36944e-22)
(0.171929 -0.0172355 5.00024e-22)
(0.178971 -0.0171144 -1.37211e-21)
(0.185972 -0.0169875 -2.13988e-22)
(0.19293 -0.0168557 4.29116e-22)
(0.199844 -0.0167195 -3.20502e-22)
(0.206713 -0.0165797 1.73185e-21)
(0.213535 -0.016437 -1.06761e-21)
(0.22031 -0.0162918 3.11148e-22)
(0.227038 -0.0161451 7.89709e-22)
(0.233718 -0.0159972 -7.66143e-22)
(0.240349 -0.0158491 -1.30352e-24)
(0.246931 -0.0157012 -3.80788e-22)
(0.253466 -0.0155542 3.28141e-22)
(0.259953 -0.0154087 -8.44132e-24)
(0.266392 -0.0152653 -3.20755e-22)
(0.272785 -0.0151247 1.51371e-22)
(0.279132 -0.0149876 1.13221e-22)
(0.285435 -0.0148546 -1.01826e-22)
(0.291696 -0.0147264 1.2903e-22)
(0.297915 -0.0146039 -1.48551e-22)
(0.304095 -0.0144878 8.01779e-23)
(0.310238 -0.0143792 3.62849e-23)
(0.316346 -0.0142791 -2.05669e-23)
(0.322424 -0.0141892 2.1373e-23)
(0.32847 -0.0141098 1.96709e-24)
(0.33451 -0.0140467 -4.38718e-25)
(0.340465 -0.0139939 -2.28176e-24)
(0.346666 -0.013972 3.61927e-24)
(0.35191 -0.0139591 -7.19998e-26)
(0.361391 -0.0139226 -2.30929e-24)
(-0.0940885 -0.00784267 4.15375e-21)
(-0.0916596 -0.00844287 -6.35035e-20)
(-0.0890826 -0.00904889 2.95725e-20)
(-0.0863565 -0.00966062 4.69595e-21)
(-0.0834808 -0.0102778 -4.64916e-20)
(-0.0804547 -0.0109002 1.08402e-21)
(-0.0772778 -0.0115272 4.64565e-20)
(-0.0739499 -0.0121584 -4.67189e-20)
(-0.0704707 -0.0127932 1.96854e-20)
(-0.0668405 -0.0134308 -4.39368e-20)
(-0.0630594 -0.0140704 8.52248e-20)
(-0.0591281 -0.0147112 7.62182e-21)
(-0.0550473 -0.0153522 -7.16199e-20)
(-0.0508181 -0.0159924 2.80704e-20)
(-0.0464418 -0.0166306 -4.41135e-20)
(-0.04192 -0.0172659 3.02696e-20)
(-0.0372547 -0.0178969 -2.79827e-21)
(-0.032448 -0.0185225 3.83055e-20)
(-0.0275024 -0.0191417 -7.05485e-20)
(-0.0224209 -0.0197531 3.0101e-20)
(-0.0172064 -0.0203558 -2.46631e-20)
(-0.0118617 -0.0209485 1.1393e-20)
(-0.00639459 -0.0215309 3.94524e-20)
(-0.000832711 -0.022104 -2.01741e-20)
(0.00487642 -0.0226566 2.24667e-20)
(0.010731 -0.0231877 -2.28504e-20)
(0.0166681 -0.0237048 -1.42359e-20)
(0.0227046 -0.0242049 3.38037e-20)
(0.0288406 -0.0246864 -6.45374e-21)
(0.0350703 -0.0251483 4.46216e-21)
(0.0413883 -0.0255895 6.32114e-21)
(0.0477893 -0.0260091 -1.08231e-20)
(0.0542677 -0.0264064 -1.30969e-20)
(0.060818 -0.0267807 1.59719e-20)
(0.0674343 -0.0271314 -2.11883e-20)
(0.0741109 -0.0274582 -6.57488e-22)
(0.080842 -0.0277607 2.02703e-20)
(0.0876214 -0.0280381 7.76011e-21)
(0.0944444 -0.0282876 -6.44775e-21)
(0.101306 -0.0285142 -1.61366e-20)
(0.108199 -0.0287163 2.39076e-20)
(0.115118 -0.0288934 -1.99489e-20)
(0.122059 -0.0290456 -4.80969e-21)
(0.129015 -0.0291732 1.88403e-20)
(0.135982 -0.0292768 -5.51914e-21)
(0.142955 -0.0293566 5.5262e-21)
(0.149929 -0.0294133 -5.04016e-21)
(0.156899 -0.0294474 -5.6539e-21)
(0.163862 -0.0294596 -2.442e-21)
(0.170812 -0.0294506 8.11663e-21)
(0.177746 -0.0294213 -5.97525e-21)
(0.18466 -0.0293724 -3.61452e-21)
(0.191551 -0.0293047 8.17417e-21)
(0.198416 -0.0292193 -6.80966e-21)
(0.20525 -0.0291171 -1.72092e-22)
(0.212052 -0.0289989 4.77408e-21)
(0.218818 -0.0288658 1.38996e-21)
(0.225547 -0.0287188 5.06554e-22)
(0.232235 -0.028559 -1.7853e-21)
(0.238881 -0.0283872 5.15352e-22)
(0.245484 -0.0282046 -3.20113e-21)
(0.252041 -0.0280123 4.60579e-21)
(0.258551 -0.0278111 -3.60748e-21)
(0.265014 -0.0276021 2.75456e-22)
(0.271427 -0.0273864 4.63653e-22)
(0.277791 -0.027165 3.19041e-21)
(0.284104 -0.0269387 -1.09006e-21)
(0.290367 -0.0267087 -2.65631e-22)
(0.296579 -0.0264759 -1.89103e-21)
(0.30274 -0.0262412 5.65722e-22)
(0.30885 -0.0260055 4.6707e-22)
(0.31491 -0.0257699 -4.23655e-23)
(0.32092 -0.0255352 -1.77347e-22)
(0.326881 -0.0253024 -8.74331e-23)
(0.332793 -0.0250723 -4.77457e-22)
(0.338658 -0.0248459 3.22424e-22)
(0.344476 -0.0246242 -4.16066e-23)
(0.35025 -0.024408 4.54405e-22)
(0.35598 -0.0241985 1.48475e-24)
(0.361669 -0.0239966 -2.19947e-22)
(0.367318 -0.0238035 -7.96513e-23)
(0.37293 -0.0236204 1.25232e-22)
(0.378507 -0.0234489 -9.98094e-23)
(0.38405 -0.02329 -1.48138e-23)
(0.389568 -0.0231469 3.94968e-23)
(0.395047 -0.023019 -1.73161e-23)
(0.400544 -0.0229151 2.95509e-25)
(0.405899 -0.0228266 -1.29394e-24)
(0.411636 -0.0227752 -1.99947e-24)
(0.416179 -0.022752 4.25021e-24)
(0.424905 -0.0227062 -4.74034e-25)
(0.0218532 -0.013176 1.42698e-20)
(0.024892 -0.0140206 -1.43625e-19)
(0.0280782 -0.0148705 3.97405e-21)
(0.0314113 -0.0157253 4.81757e-20)
(0.0348903 -0.0165845 5.08476e-20)
(0.0385143 -0.0174476 4.14297e-21)
(0.0422819 -0.0183138 2.63064e-20)
(0.0461919 -0.0191822 -3.80896e-20)
(0.0502427 -0.0200518 6.3917e-21)
(0.0544326 -0.0209214 1.98159e-20)
(0.0587595 -0.0217899 5.17016e-22)
(0.0632212 -0.0226559 -6.1206e-20)
(0.0678154 -0.0235179 9.27431e-21)
(0.0725394 -0.0243746 1.96304e-20)
(0.0773902 -0.0252244 2.61454e-21)
(0.0823648 -0.0260657 6.21784e-21)
(0.0874597 -0.0268968 -2.06926e-20)
(0.0926713 -0.0277163 5.14529e-20)
(0.0979957 -0.0285224 -8.09417e-20)
(0.103429 -0.0293137 2.02277e-20)
(0.108966 -0.0300888 -4.38153e-20)
(0.114603 -0.0308475 1.17929e-19)
(0.120332 -0.0315881 -6.82016e-20)
(0.126152 -0.0322867 -2.14798e-20)
(0.132063 -0.0329725 -3.18803e-20)
(0.138053 -0.0336359 4.18569e-20)
(0.144119 -0.034273 -3.08818e-21)
(0.150254 -0.0348825 -1.97176e-20)
(0.156454 -0.0354633 1.6617e-20)
(0.162712 -0.0360142 1.62313e-20)
(0.169024 -0.0365342 6.51988e-21)
(0.175384 -0.0370226 -5.3834e-20)
(0.181785 -0.0374787 2.83912e-20)
(0.188224 -0.0379017 9.87635e-21)
(0.194693 -0.0382913 -2.42313e-21)
(0.201189 -0.0386473 -2.88996e-20)
(0.207704 -0.0389693 1.82531e-22)
(0.214235 -0.039257 2.39474e-20)
(0.220777 -0.0395108 -9.45694e-21)
(0.227323 -0.039731 2.18737e-20)
(0.23387 -0.0399179 3.32926e-22)
(0.240413 -0.0400718 -7.03746e-21)
(0.246946 -0.0401933 1.01105e-20)
(0.253467 -0.040283 -2.26477e-20)
(0.25997 -0.0403418 9.81931e-21)
(0.266452 -0.0403705 4.72484e-21)
(0.272909 -0.04037 -2.78303e-21)
(0.279338 -0.0403412 -1.29834e-20)
(0.285735 -0.0402854 1.14725e-20)
(0.292097 -0.0402036 1.09314e-20)
(0.298422 -0.0400969 -7.82259e-21)
(0.304706 -0.0399668 -3.92956e-21)
(0.310948 -0.0398143 -2.75147e-21)
(0.317145 -0.0396409 9.90357e-21)
(0.323295 -0.0394479 -1.08512e-20)
(0.329396 -0.0392366 2.88509e-21)
(0.335448 -0.0390084 -2.7724e-21)
(0.341448 -0.0387646 1.13388e-21)
(0.347396 -0.0385067 1.86818e-21)
(0.353291 -0.0382359 9.23084e-22)
(0.359131 -0.0379537 -5.35236e-22)
(0.364917 -0.0376614 -1.51394e-22)
(0.370648 -0.0373603 9.95676e-22)
(0.376323 -0.0370518 1.95761e-21)
(0.381943 -0.0367371 -1.82101e-21)
(0.387508 -0.0364176 8.40479e-22)
(0.393019 -0.0360944 -1.93203e-21)
(0.398475 -0.0357688 2.24024e-21)
(0.403878 -0.0354421 -1.5015e-21)
(0.409227 -0.0351154 -1.29513e-22)
(0.414525 -0.0347899 1.81438e-22)
(0.419771 -0.0344668 3.66807e-22)
(0.424968 -0.0341473 -1.40987e-21)
(0.430116 -0.0338325 5.52577e-22)
(0.435218 -0.0335236 7.48655e-23)
(0.440274 -0.0332218 -4.3536e-22)
(0.445286 -0.0329283 5.35432e-22)
(0.450257 -0.0326444 -1.03412e-23)
(0.455188 -0.0323714 6.2158e-23)
(0.460082 -0.0321108 -8.76607e-23)
(0.464941 -0.0318639 -1.78081e-22)
(0.469768 -0.0316329 5.86723e-23)
(0.474561 -0.0314186 -4.85657e-23)
(0.47934 -0.0312254 7.83942e-23)
(0.484063 -0.0310518 4.33752e-24)
(0.488846 -0.0309073 -1.43071e-23)
(0.493403 -0.0307865 -3.77036e-25)
(0.498503 -0.0306985 -7.6173e-25)
(0.502193 -0.0306619 5.39684e-25)
(0.509861 -0.0306177 -1.45995e-24)
(0.162607 -0.0185409 8.01051e-20)
(0.165883 -0.0196165 -8.38575e-20)
(0.16931 -0.0206955 1.70401e-19)
(0.172884 -0.0217772 -1.45791e-19)
(0.176604 -0.0228608 8.08633e-23)
(0.180467 -0.0239454 1.06855e-19)
(0.184468 -0.02503 4.18654e-20)
(0.188605 -0.0261135 -8.21581e-20)
(0.192874 -0.0271945 -2.26598e-20)
(0.197272 -0.0282717 -6.12099e-22)
(0.201795 -0.0293434 -1.69854e-20)
(0.206439 -0.030408 -8.40665e-21)
(0.2112 -0.0314637 7.1885e-20)
(0.216073 -0.0325088 -7.16024e-20)
(0.221054 -0.0335412 2.20475e-21)
(0.226139 -0.0345592 4.77521e-20)
(0.231322 -0.0355607 1.01729e-20)
(0.236599 -0.0365437 2.27836e-20)
(0.241965 -0.0375063 -4.57288e-20)
(0.247414 -0.0384465 -6.70605e-21)
(0.252941 -0.0393623 3.98705e-20)
(0.25854 -0.0402521 1.55572e-20)
(0.264206 -0.0411145 -5.13293e-20)
(0.269932 -0.0419443 1.35356e-20)
(0.275717 -0.0427421 -3.01554e-20)
(0.281553 -0.0435061 4.18499e-20)
(0.287435 -0.044235 -9.969e-20)
(0.293356 -0.0449275 5.81226e-20)
(0.299311 -0.0455824 -1.66363e-20)
(0.305295 -0.0461986 3.94809e-20)
(0.311301 -0.0467751 -2.08569e-20)
(0.317326 -0.0473111 1.6902e-20)
(0.323362 -0.047806 -6.4333e-20)
(0.329406 -0.0482592 8.87786e-20)
(0.335453 -0.0486704 -3.46499e-20)
(0.341496 -0.0490395 2.17589e-20)
(0.347533 -0.0493663 -2.37045e-20)
(0.353557 -0.049651 1.20071e-20)
(0.359565 -0.049894 -1.29311e-20)
(0.365553 -0.0500958 1.32522e-20)
(0.371516 -0.0502569 4.46261e-21)
(0.377452 -0.0503781 -1.97417e-20)
(0.383355 -0.0504603 -4.44264e-21)
(0.389224 -0.0505044 9.37844e-21)
(0.395054 -0.0505116 -7.36982e-21)
(0.400843 -0.0504829 -5.65397e-21)
(0.406588 -0.0504198 1.39479e-20)
(0.412287 -0.0503236 4.56545e-22)
(0.417938 -0.0501956 -1.08404e-20)
(0.423538 -0.0500376 -5.66172e-21)
(0.429086 -0.0498509 1.42516e-20)
(0.43458 -0.0496371 -2.6151e-21)
(0.440018 -0.0493981 -7.19186e-21)
(0.4454 -0.0491353 3.04653e-22)
(0.450725 -0.0488505 9.1554e-21)
(0.455991 -0.0485453 -1.44657e-21)
(0.461199 -0.0482216 -3.24942e-21)
(0.466347 -0.0478809 7.77425e-21)
(0.471436 -0.0475249 -3.66377e-21)
(0.476466 -0.0471554 -3.3885e-21)
(0.481436 -0.0467739 -7.324e-22)
(0.486347 -0.0463822 -5.86113e-21)
(0.491199 -0.0459818 6.44423e-21)
(0.495992 -0.0455743 -1.13832e-21)
(0.500729 -0.0451613 -1.01781e-22)
(0.505408 -0.0447443 9.27254e-22)
(0.510032 -0.0443247 7.84144e-22)
(0.5146 -0.0439041 -2.20029e-21)
(0.519115 -0.0434838 1.59444e-21)
(0.523578 -0.0430654 7.39174e-22)
(0.52799 -0.0426501 -2.62099e-21)
(0.532352 -0.0422395 3.85125e-23)
(0.536667 -0.0418347 1.48242e-21)
(0.540935 -0.0414373 -3.0862e-22)
(0.545159 -0.0410485 -1.07023e-22)
(0.54934 -0.0406698 3.17617e-22)
(0.553481 -0.0403025 -3.07879e-22)
(0.557584 -0.0399482 2.62742e-23)
(0.561651 -0.0396083 1.58657e-22)
(0.565684 -0.0392846 -1.43501e-22)
(0.569684 -0.0389785 -1.08545e-22)
(0.573661 -0.0386925 1.37717e-23)
(0.577599 -0.0384276 1.86944e-22)
(0.58154 -0.0381878 -1.25904e-22)
(0.585402 -0.0379735 -5.02909e-24)
(0.589376 -0.0377893 2.37016e-24)
(0.593041 -0.0376405 -1.35962e-23)
(0.597372 -0.0375165 -4.19601e-24)
(0.600199 -0.0374613 1.26434e-24)
(0.606604 -0.0374148 1.42329e-24)
(0.325023 -0.0238025 -3.71984e-20)
(0.328095 -0.0251269 -4.96144e-20)
(0.331331 -0.026448 -4.52662e-20)
(0.334725 -0.0277651 1.36254e-19)
(0.338273 -0.0290775 1.35206e-21)
(0.341967 -0.0303841 1.22287e-20)
(0.345803 -0.031684 -7.62856e-20)
(0.349773 -0.0329758 7.54228e-20)
(0.353873 -0.0342582 -4.63769e-21)
(0.358096 -0.0355295 6.8433e-21)
(0.362436 -0.0367881 -1.63456e-19)
(0.366887 -0.0380321 5.71978e-20)
(0.371442 -0.0392595 1.09459e-19)
(0.376096 -0.0404685 -1.02255e-19)
(0.380842 -0.041657 -6.98324e-20)
(0.385674 -0.0428229 3.63925e-20)
(0.390586 -0.043964 2.71354e-20)
(0.395571 -0.0450782 1.21854e-20)
(0.400622 -0.0461635 -2.9955e-20)
(0.405735 -0.0472176 1.18021e-19)
(0.410901 -0.0482385 -9.1105e-20)
(0.416115 -0.0492243 3.87252e-20)
(0.421372 -0.0501729 -5.97402e-20)
(0.426663 -0.0510817 2.85298e-20)
(0.431985 -0.0519493 2.33774e-20)
(0.437331 -0.0527746 1.50405e-21)
(0.442695 -0.053556 -1.34425e-20)
(0.448073 -0.0542923 -1.88696e-20)
(0.453457 -0.0549823 1.35988e-20)
(0.458844 -0.055625 -3.67017e-20)
(0.464227 -0.0562195 3.41158e-20)
(0.469602 -0.0567653 2.49878e-21)
(0.474965 -0.0572618 -6.62225e-21)
(0.48031 -0.0577089 5.9941e-21)
(0.485633 -0.0581063 -3.83123e-20)
(0.490931 -0.0584542 -2.17328e-20)
(0.496199 -0.0587528 7.91668e-20)
(0.501435 -0.0590025 -7.98561e-20)
(0.506633 -0.059204 9.8128e-20)
(0.511792 -0.0593581 -3.13302e-20)
(0.516908 -0.0594656 2.22067e-20)
(0.521979 -0.0595277 -6.45193e-20)
(0.527002 -0.0595456 -1.82681e-21)
(0.531975 -0.0595206 1.34523e-20)
(0.536896 -0.0594541 7.44465e-21)
(0.541763 -0.0593477 4.0362e-23)
(0.546574 -0.059203 2.3358e-20)
(0.551329 -0.0590218 -2.25442e-20)
(0.556027 -0.0588058 1.3887e-20)
(0.560665 -0.0585569 1.33978e-21)
(0.565244 -0.058277 -1.24665e-21)
(0.569762 -0.0579681 -1.66898e-20)
(0.57422 -0.057632 9.36455e-21)
(0.578618 -0.0572707 4.51516e-21)
(0.582954 -0.0568864 5.79208e-21)
(0.58723 -0.0564808 -8.0207e-21)
(0.591445 -0.0560562 -1.35689e-20)
(0.595601 -0.0556143 3.53537e-21)
(0.599696 -0.0551571 9.338e-21)
(0.603733 -0.0546867 -4.70495e-21)
(0.607711 -0.0542049 1.99924e-23)
(0.611632 -0.0537135 3.37695e-21)
(0.615497 -0.0532144 -1.74274e-21)
(0.619306 -0.0527093 -2.03193e-21)
(0.623062 -0.0522002 5.30289e-21)
(0.626764 -0.0516885 -4.28275e-21)
(0.630415 -0.0511762 2.94372e-21)
(0.634015 -0.0506647 -6.49146e-22)
(0.637567 -0.0501557 -1.94107e-21)
(0.641072 -0.0496507 1.71275e-22)
(0.644532 -0.0491515 -5.39035e-22)
(0.647948 -0.0486593 1.27929e-21)
(0.651322 -0.0481759 1.02948e-21)
(0.654655 -0.0477026 -2.45492e-22)
(0.657951 -0.047241 -7.59119e-22)
(0.661211 -0.0467926 -1.30046e-21)
(0.664436 -0.046359 1.40864e-21)
(0.667629 -0.0459419 -6.5353e-22)
(0.670792 -0.0455426 2.27996e-22)
(0.673929 -0.0451633 1.10089e-22)
(0.677036 -0.0448054 1.87821e-22)
(0.680129 -0.0444712 -2.79062e-22)
(0.683181 -0.0441628 3.34111e-23)
(0.686256 -0.0438818 4.95517e-23)
(0.68923 -0.0436333 -1.09417e-23)
(0.692362 -0.0434133 -4.24053e-24)
(0.695133 -0.0432404 2.41342e-23)
(0.698611 -0.0430864 -1.93299e-23)
(0.700659 -0.0430106 1.57862e-24)
(0.705706 -0.0429527 -1.45169e-24)
(0.504569 -0.0296987 -2.54316e-19)
(0.507071 -0.0312732 3.41379e-19)
(0.509752 -0.0328337 -3.36577e-19)
(0.5126 -0.0343793 1.732e-19)
(0.515607 -0.0359091 -2.06372e-19)
(0.518764 -0.0374223 8.50632e-20)
(0.522061 -0.0389177 1.98876e-19)
(0.525489 -0.0403939 8.60102e-21)
(0.529041 -0.0418493 -3.3766e-20)
(0.532706 -0.0432823 -2.58364e-19)
(0.536478 -0.0446909 8.10026e-20)
(0.540346 -0.0460735 1.49904e-19)
(0.544304 -0.0474278 -1.28011e-19)
(0.548342 -0.048752 9.63353e-20)
(0.552453 -0.0500438 -9.48568e-20)
(0.55663 -0.0513012 1.15214e-19)
(0.560864 -0.0525222 -9.32469e-20)
(0.565148 -0.0537045 -4.87315e-20)
(0.569475 -0.0548462 3.70089e-20)
(0.573838 -0.0559453 9.44202e-21)
(0.57823 -0.0569998 -7.3357e-22)
(0.582644 -0.0580079 -5.40953e-20)
(0.587074 -0.0589678 6.95996e-20)
(0.591514 -0.0598777 1.02547e-21)
(0.595959 -0.0607364 8.52393e-21)
(0.600402 -0.0615426 -9.4504e-21)
(0.604839 -0.0622952 -1.33776e-20)
(0.609264 -0.0629934 2.5733e-20)
(0.613673 -0.0636363 -2.90005e-20)
(0.618061 -0.0642236 -5.05028e-21)
(0.622424 -0.0647547 7.5241e-21)
(0.626758 -0.0652297 3.0788e-20)
(0.631059 -0.0656484 8.49163e-21)
(0.635325 -0.0660112 -3.91478e-20)
(0.639551 -0.0663183 5.37306e-20)
(0.643736 -0.0665704 -1.50778e-20)
(0.647877 -0.0667683 7.71987e-21)
(0.651971 -0.0669129 -5.20191e-20)
(0.656017 -0.0670053 -6.07291e-21)
(0.660012 -0.0670468 3.96019e-20)
(0.663956 -0.0670388 1.95926e-20)
(0.667846 -0.0669829 7.05061e-21)
(0.671683 -0.0668807 -2.92951e-20)
(0.675464 -0.066734 -2.06413e-22)
(0.67919 -0.0665447 -1.54436e-20)
(0.682859 -0.0663147 -1.36712e-20)
(0.686472 -0.0660461 2.98044e-21)
(0.690028 -0.0657409 4.54823e-20)
(0.693528 -0.0654013 -7.56577e-21)
(0.696971 -0.0650296 -3.94608e-20)
(0.700358 -0.0646278 2.91301e-20)
(0.703689 -0.0641982 -9.14e-21)
(0.706965 -0.0637432 1.24727e-20)
(0.710186 -0.0632648 -1.11411e-20)
(0.713353 -0.0627653 2.45091e-21)
(0.716467 -0.062247 1.25769e-20)
(0.719529 -0.0617121 -1.67569e-20)
(0.72254 -0.0611626 6.84738e-21)
(0.725501 -0.0606007 4.04521e-21)
(0.728413 -0.0600285 -6.31155e-21)
(0.731277 -0.059448 5.86428e-22)
(0.734094 -0.0588613 -5.80802e-22)
(0.736866 -0.0582703 7.94624e-21)
(0.739595 -0.0576768 -5.09294e-21)
(0.742281 -0.0570828 -6.11971e-21)
(0.744926 -0.0564901 1.02079e-20)
(0.747532 -0.0559004 -6.86237e-21)
(0.750099 -0.0553155 -2.69863e-21)
(0.752631 -0.054737 6.8138e-21)
(0.755127 -0.0541667 -2.07862e-21)
(0.757591 -0.0536061 -6.94868e-22)
(0.760023 -0.053057 2.06642e-21)
(0.762425 -0.0525208 -1.97197e-21)
(0.764799 -0.0519992 6.10938e-22)
(0.767147 -0.0514938 1.8753e-22)
(0.76947 -0.0510063 -1.6369e-22)
(0.771772 -0.0505382 -4.4716e-22)
(0.77405 -0.0500915 4.34533e-22)
(0.776313 -0.0496676 -2.45586e-22)
(0.778552 -0.049269 4.9451e-22)
(0.780789 -0.0488966 1.72441e-22)
(0.782986 -0.0485546 1.09199e-22)
(0.785222 -0.048241 -2.34966e-22)
(0.78735 -0.0479664 1.34225e-22)
(0.789653 -0.0477185 -3.58042e-23)
(0.791604 -0.0475262 4.8676e-23)
(0.794201 -0.0473502 2.91323e-24)
(0.795594 -0.0472567 -6.59794e-24)
(0.799298 -0.0471826 6.15486e-25)
(0.686708 -0.0340542 -1.19826e-19)
(0.688174 -0.035913 1.55954e-19)
(0.689823 -0.0377396 -3.92611e-19)
(0.691644 -0.0395338 4.47801e-19)
(0.693624 -0.041295 -1.80512e-19)
(0.695751 -0.0430224 -8.87387e-20)
(0.698013 -0.0447148 1.63267e-19)
(0.700399 -0.0463712 -2.33643e-19)
(0.702899 -0.0479903 3.86283e-19)
(0.705502 -0.0495707 -3.4134e-19)
(0.708198 -0.0511111 7.6577e-20)
(0.710978 -0.0526099 8.99187e-20)
(0.713831 -0.0540655 -1.37688e-19)
(0.716749 -0.0554762 -3.03064e-20)
(0.719724 -0.0568403 9.27327e-20)
(0.722747 -0.0581563 -1.4729e-19)
(0.725809 -0.0594223 2.49282e-19)
(0.728904 -0.0606369 -1.34846e-19)
(0.732024 -0.0617984 2.4217e-20)
(0.735162 -0.0629052 5.61429e-20)
(0.738313 -0.0639561 -7.85364e-20)
(0.741469 -0.0649495 -7.43334e-22)
(0.744626 -0.0658843 7.35993e-20)
(0.747777 -0.0667595 -3.52195e-20)
(0.750918 -0.0675742 -3.61134e-20)
(0.754045 -0.0683277 2.21517e-20)
(0.757153 -0.0690195 4.5244e-20)
(0.760238 -0.0696494 2.24957e-20)
(0.763297 -0.070217 -2.13003e-20)
(0.766326 -0.0707226 -6.93826e-20)
(0.769323 -0.0711663 9.94835e-20)
(0.772285 -0.0715486 -6.36458e-20)
(0.77521 -0.0718699 4.8385e-20)
(0.778096 -0.0721312 -8.77138e-20)
(0.780942 -0.0723333 1.83767e-21)
(0.783745 -0.0724774 -8.3949e-21)
(0.786505 -0.0725647 9.53475e-20)
(0.789221 -0.0725968 -3.43171e-20)
(0.791892 -0.0725752 3.48169e-20)
(0.794518 -0.0725016 -1.20317e-20)
(0.797098 -0.072378 -6.10301e-20)
(0.799632 -0.0722062 3.82596e-20)
(0.802121 -0.0719883 4.7296e-21)
(0.804564 -0.0717264 -3.67429e-20)
(0.806962 -0.0714228 1.10018e-20)
(0.809315 -0.0710797 2.8454e-20)
(0.811624 -0.0706995 -3.78745e-20)
(0.813889 -0.0702845 2.58692e-20)
(0.816111 -0.0698371 1.74982e-20)
(0.818292 -0.0693597 -2.97781e-20)
(0.820431 -0.0688547 1.30657e-20)
(0.822529 -0.0683245 7.39033e-21)
(0.824589 -0.0677716 1.59652e-21)
(0.82661 -0.0671983 -7.66875e-21)
(0.828594 -0.0666069 2.71532e-21)
(0.830541 -0.0659999 -1.08961e-20)
(0.832454 -0.0653794 6.77253e-21)
(0.834333 -0.0647477 -3.72979e-21)
(0.836179 -0.064107 6.8751e-21)
(0.837994 -0.0634595 -3.70217e-21)
(0.839779 -0.0628072 -2.3131e-21)
(0.841534 -0.0621523 7.93728e-21)
(0.843262 -0.0614966 -8.90764e-21)
(0.844963 -0.0608422 3.04053e-21)
(0.846638 -0.0601909 3.19724e-21)
(0.84829 -0.0595446 -3.59642e-21)
(0.849919 -0.0589051 -4.33777e-23)
(0.851526 -0.0582741 -1.24429e-22)
(0.853113 -0.0576534 -2.45255e-21)
(0.854681 -0.0570447 4.85544e-21)
(0.856232 -0.0564496 -1.98713e-21)
(0.857766 -0.0558698 5.51026e-22)
(0.859284 -0.055307 -1.40121e-21)
(0.86079 -0.0547627 -8.15352e-22)
(0.862282 -0.0542389 8.82743e-22)
(0.863764 -0.0537368 8.27369e-22)
(0.865234 -0.0532588 -1.3402e-21)
(0.8667 -0.0528057 8.23106e-22)
(0.868149 -0.052381 -8.55312e-22)
(0.869608 -0.0519839 6.0613e-22)
(0.871034 -0.051621 8.87165e-23)
(0.872506 -0.0512868 -2.33825e-22)
(0.873884 -0.0509961 1.90284e-22)
(0.87542 -0.0507312 -4.59786e-23)
(0.87667 -0.0505261 9.6759e-24)
(0.878426 -0.0503372 -3.50546e-23)
(0.879296 -0.0502317 -1.36146e-23)
(0.88177 -0.0501443 3.12635e-25)
(0.856793 -0.0342533 -9.21251e-20)
(0.856782 -0.0363895 -9.66533e-21)
(0.856955 -0.0384744 -9.93908e-21)
(0.857296 -0.0405097 -3.26156e-19)
(0.857794 -0.0424958 7.27959e-20)
(0.858435 -0.0444328 2.5149e-20)
(0.859207 -0.0463206 3.63741e-19)
(0.860099 -0.0481585 -4.95347e-20)
(0.8611 -0.049946 -1.02994e-19)
(0.862198 -0.0516823 1.17866e-19)
(0.863385 -0.0533664 -8.40596e-20)
(0.86465 -0.0549972 -8.33495e-20)
(0.865983 -0.0565736 -6.92565e-20)
(0.867377 -0.0580944 1.30355e-19)
(0.868823 -0.0595584 -2.75907e-19)
(0.870313 -0.0609643 2.63404e-19)
(0.87184 -0.062311 6.27247e-21)
(0.873396 -0.0635972 -1.84079e-19)
(0.874976 -0.0648218 -7.42139e-20)
(0.876574 -0.0659838 2.24995e-19)
(0.878183 -0.0670821 -3.71832e-20)
(0.879799 -0.0681159 -1.09732e-19)
(0.881417 -0.0690844 1.30043e-19)
(0.883033 -0.0699869 -1.60889e-20)
(0.884643 -0.0708231 -1.32817e-20)
(0.886243 -0.0715926 3.35615e-20)
(0.88783 -0.0722953 -3.02477e-20)
(0.889401 -0.0729312 1.15365e-20)
(0.890954 -0.0735004 5.3942e-20)
(0.892486 -0.0740033 -6.06644e-20)
(0.893997 -0.0744404 2.613e-20)
(0.895483 -0.0748125 -1.5621e-20)
(0.896945 -0.0751204 5.39675e-20)
(0.898381 -0.0753652 -2.72735e-21)
(0.89979 -0.075548 -4.20981e-22)
(0.901172 -0.0756702 -8.27904e-20)
(0.902527 -0.0757334 3.85941e-21)
(0.903854 -0.0757392 2.02066e-20)
(0.905153 -0.0756895 -2.87139e-20)
(0.906424 -0.0755863 3.2726e-20)
(0.907669 -0.0754314 -1.30492e-21)
(0.908886 -0.0752272 1.71223e-20)
(0.910077 -0.0749757 1.85052e-20)
(0.911242 -0.0746794 -2.49569e-20)
(0.912383 -0.0743405 -2.00471e-20)
(0.913499 -0.0739614 -1.70289e-20)
(0.914591 -0.0735447 4.86562e-20)
(0.915661 -0.0730928 -1.94871e-20)
(0.916709 -0.0726081 1.82109e-22)
(0.917736 -0.0720933 -3.48423e-20)
(0.918743 -0.0715508 3.30014e-20)
(0.91973 -0.0709831 -5.7628e-22)
(0.9207 -0.0703927 -2.65464e-20)
(0.921652 -0.0697821 4.24033e-20)
(0.922588 -0.0691537 -2.52327e-20)
(0.923508 -0.0685099 5.3032e-21)
(0.924414 -0.0678531 -6.01501e-21)
(0.925305 -0.0671856 5.14814e-21)
(0.926184 -0.0665097 5.46385e-21)
(0.927052 -0.0658275 1.99834e-21)
(0.927908 -0.0651413 -5.4272e-21)
(0.928753 -0.0644532 -3.87323e-21)
(0.92959 -0.0637651 2.12898e-21)
(0.930417 -0.0630792 4.21433e-21)
(0.931237 -0.0623974 2.54594e-21)
(0.93205 -0.0617215 -2.7699e-21)
(0.932857 -0.0610535 4.09423e-21)
(0.933658 -0.0603952 -9.66859e-21)
(0.934455 -0.0597483 7.0072e-21)
(0.935248 -0.0591146 -4.70221e-21)
(0.936038 -0.0584959 1.95428e-21)
(0.936825 -0.0578937 1.32541e-21)
(0.93761 -0.05731 -8.26191e-22)
(0.938395 -0.0567461 5.57305e-22)
(0.939179 -0.0562041 -1.14585e-21)
(0.939965 -0.0556852 -1.01247e-21)
(0.940749 -0.0551921 1.05538e-21)
(0.941539 -0.0547249 -3.61646e-22)
(0.942324 -0.054288 7.58124e-23)
(0.943124 -0.0538793 1.95022e-22)
(0.943905 -0.053507 -4.20646e-24)
(0.944727 -0.0531632 1.39874e-22)
(0.945488 -0.0528653 -1.23621e-22)
(0.946363 -0.0525925 8.17226e-23)
(0.947051 -0.0523808 5.78302e-23)
(0.948067 -0.0521854 6.07407e-23)
(0.948539 -0.0520725 -1.28147e-23)
(0.949963 -0.051974 -4.49042e-24)
(1.00162 -0.0343618 1.25332e-19)
(1.00028 -0.036807 -3.29378e-19)
(0.999097 -0.0391782 2.19285e-19)
(0.998049 -0.0414768 -1.02444e-19)
(0.997132 -0.0437043 1.88857e-19)
(0.996334 -0.0458615 -3.54123e-19)
(0.995646 -0.0479492 3.85111e-19)
(0.99506 -0.0499679 -2.85732e-19)
(0.994567 -0.0519178 2.30819e-19)
(0.994158 -0.0537989 -1.43154e-19)
(0.993825 -0.0556112 -8.9238e-20)
(0.993561 -0.0573543 2.59612e-19)
(0.993358 -0.059028 -2.49992e-19)
(0.99321 -0.0606316 -1.52384e-19)
(0.99311 -0.0621647 2.35512e-19)
(0.993053 -0.0636269 -1.0259e-21)
(0.993032 -0.0650175 8.62174e-20)
(0.993042 -0.0663361 -6.2538e-20)
(0.99308 -0.0675821 7.91675e-20)
(0.993139 -0.0687552 -1.70804e-19)
(0.993217 -0.0698551 -9.33141e-20)
(0.99331 -0.0708814 8.30935e-20)
(0.993414 -0.0718341 8.19396e-20)
(0.993527 -0.0727132 9.34004e-20)
(0.993646 -0.0735189 -6.99822e-20)
(0.993769 -0.0742513 -6.44341e-21)
(0.993893 -0.0749111 -4.54037e-20)
(0.994017 -0.0754986 -4.66916e-20)
(0.994141 -0.0760146 8.58952e-20)
(0.994261 -0.0764601 7.45644e-23)
(0.994378 -0.0768361 -4.71292e-20)
(0.994492 -0.0771437 1.63886e-20)
(0.9946 -0.0773844 -3.2946e-20)
(0.994704 -0.0775596 1.32583e-20)
(0.994802 -0.0776711 3.7034e-20)
(0.994895 -0.0777207 -2.40481e-20)
(0.994984 -0.0777102 -2.76813e-20)
(0.995067 -0.0776418 2.57086e-20)
(0.995145 -0.0775177 4.23865e-20)