/*--------------------------------*- C++ -*----------------------------------*\
  =========                 |
  \\      /  F ield         | OpenFOAM: The Open Source CFD Toolbox
   \\    /   O peration     | Website:  https://openfoam.org
    \\  /    A nd           | Version:  7
     \\/     M anipulation  |
\*---------------------------------------------------------------------------*/
FoamFile
{
    version     2.0;
    format      ascii;
    class       volScalarField;
    location    "54.999";
    object      p;
}
// * * * * * * * * * * * * * * * * * * * * * * * * * * * * * * * * * * * * * //

dimensions      [0 2 -2 0 0 0 0];

internalField   nonuniform List<scalar> 
3700
(
-0.224735
-0.216157
-0.20778
-0.199712
-0.191952
-0.184541
-0.177506
-0.170856
-0.164588
-0.158694
-0.153166
-0.147996
-0.143174
-0.138691
-0.134537
-0.130702
-0.127175
-0.123947
-0.121008
-0.118348
-0.115959
-0.113833
-0.111962
-0.11034
-0.108961
-0.107819
-0.10691
-0.106232
-0.105781
-0.105556
-0.22421
-0.215996
-0.208002
-0.200283
-0.19284
-0.185716
-0.178939
-0.172519
-0.166454
-0.160741
-0.155373
-0.150343
-0.145644
-0.141268
-0.137206
-0.13345
-0.12999
-0.126819
-0.123928
-0.121308
-0.118953
-0.116854
-0.115006
-0.113402
-0.112037
-0.110906
-0.110006
-0.109334
-0.108887
-0.108664
-0.223357
-0.215456
-0.207809
-0.200418
-0.19328
-0.186438
-0.179922
-0.173737
-0.167885
-0.162361
-0.157163
-0.152284
-0.147718
-0.143459
-0.1395
-0.135833
-0.132451
-0.129347
-0.126513
-0.123943
-0.121629
-0.119565
-0.117746
-0.116166
-0.114821
-0.113706
-0.112819
-0.112155
-0.111714
-0.111494
-0.222216
-0.2146
-0.207289
-0.200213
-0.193364
-0.186792
-0.180526
-0.174573
-0.168932
-0.163601
-0.158576
-0.153853
-0.149427
-0.145292
-0.141442
-0.137872
-0.134575
-0.131546
-0.128776
-0.126262
-0.123996
-0.121974
-0.12019
-0.118639
-0.117317
-0.116222
-0.115349
-0.114697
-0.114263
-0.114046
-0.220807
-0.213446
-0.206482
-0.199718
-0.193145
-0.186829
-0.180804
-0.175075
-0.169642
-0.164501
-0.159649
-0.155083
-0.150798
-0.146791
-0.143055
-0.139587
-0.13638
-0.13343
-0.13073
-0.128277
-0.126064
-0.124087
-0.122342
-0.120824
-0.11953
-0.118457
-0.117602
-0.116962
-0.116536
-0.116324
-0.219133
-0.21199
-0.205406
-0.198949
-0.192637
-0.186569
-0.180779
-0.17527
-0.170039
-0.165085
-0.160404
-0.155995
-0.151853
-0.147974
-0.144355
-0.140991
-0.137878
-0.135011
-0.132385
-0.129997
-0.127841
-0.125914
-0.124211
-0.122729
-0.121465
-0.120416
-0.11958
-0.118955
-0.118538
-0.118331
-0.217173
-0.210245
-0.204081
-0.197905
-0.191841
-0.186018
-0.180461
-0.175168
-0.170136
-0.165366
-0.160855
-0.156602
-0.152603
-0.148855
-0.145354
-0.142097
-0.13908
-0.1363
-0.133751
-0.131431
-0.129335
-0.12746
-0.125802
-0.124359
-0.123128
-0.122105
-0.12129
-0.12068
-0.120274
-0.120071
-0.214951
-0.208251
-0.20253
-0.196579
-0.190762
-0.185187
-0.17986
-0.174779
-0.169943
-0.165355
-0.161013
-0.156916
-0.15306
-0.149444
-0.146063
-0.142915
-0.139997
-0.137305
-0.134836
-0.132587
-0.130554
-0.128734
-0.127124
-0.125722
-0.124525
-0.12353
-0.122737
-0.122144
-0.121749
-0.121551
-0.212431
-0.206139
-0.200745
-0.194981
-0.189423
-0.184094
-0.17899
-0.174114
-0.169472
-0.165064
-0.160891
-0.156949
-0.153237
-0.149753
-0.146493
-0.143456
-0.140638
-0.138037
-0.13565
-0.133474
-0.131506
-0.129743
-0.128183
-0.126824
-0.125663
-0.124698
-0.123928
-0.123352
-0.122969
-0.122777
-0.209732
-0.203943
-0.198674
-0.193151
-0.187851
-0.182754
-0.177863
-0.173189
-0.168737
-0.164508
-0.160501
-0.156714
-0.153146
-0.149794
-0.146656
-0.143731
-0.141015
-0.138506
-0.136203
-0.134101
-0.1322
-0.130496
-0.128988
-0.127673
-0.126549
-0.125615
-0.12487
-0.124312
-0.123941
-0.123755
-0.206913
-0.20151
-0.196361
-0.191123
-0.18606
-0.18118
-0.176494
-0.172017
-0.167752
-0.163699
-0.159857
-0.156224
-0.152799
-0.14958
-0.146564
-0.143751
-0.141138
-0.138723
-0.136504
-0.134479
-0.132646
-0.131002
-0.129547
-0.128277
-0.127192
-0.12629
-0.12557
-0.125031
-0.124672
-0.124492
-0.203932
-0.198817
-0.193859
-0.188882
-0.184046
-0.179376
-0.174894
-0.170612
-0.166531
-0.162652
-0.158973
-0.155493
-0.15221
-0.149122
-0.146229
-0.143528
-0.141019
-0.138698
-0.136565
-0.134617
-0.132852
-0.13127
-0.129868
-0.128645
-0.127599
-0.12673
-0.126036
-0.125516
-0.125169
-0.124996
-0.200762
-0.1959
-0.191166
-0.186429
-0.181813
-0.177354
-0.173074
-0.168984
-0.165086
-0.161378
-0.15786
-0.154531
-0.151389
-0.148433
-0.145662
-0.143074
-0.140668
-0.138442
-0.136394
-0.134524
-0.13283
-0.131309
-0.129962
-0.128786
-0.12778
-0.126944
-0.126276
-0.125775
-0.125442
-0.125276
-0.197406
-0.192791
-0.188281
-0.183773
-0.179374
-0.175124
-0.171044
-0.167145
-0.163426
-0.159889
-0.156531
-0.153351
-0.15035
-0.147524
-0.144874
-0.142399
-0.140096
-0.137964
-0.136003
-0.134211
-0.132587
-0.131129
-0.129837
-0.128708
-0.127743
-0.12694
-0.126299
-0.125818
-0.125498
-0.125338
-0.193876
-0.1895
-0.18521
-0.180926
-0.176741
-0.172698
-0.168817
-0.165105
-0.161564
-0.158195
-0.154995
-0.151964
-0.149102
-0.146406
-0.143877
-0.141513
-0.139314
-0.137277
-0.135402
-0.133688
-0.132134
-0.130739
-0.129502
-0.128421
-0.127497
-0.126728
-0.126113
-0.125653
-0.125346
-0.125193
-0.190182
-0.186036
-0.181964
-0.1779
-0.173927
-0.170088
-0.166402
-0.162876
-0.159511
-0.156308
-0.153265
-0.150381
-0.147657
-0.145091
-0.142681
-0.140429
-0.138332
-0.136389
-0.134601
-0.132965
-0.131481
-0.130149
-0.128967
-0.127934
-0.127051
-0.126315
-0.125728
-0.125287
-0.124994
-0.124847
-0.186329
-0.182409
-0.178551
-0.174705
-0.170942
-0.167305
-0.163812
-0.16047
-0.157278
-0.154239
-0.151351
-0.148614
-0.146026
-0.143588
-0.141298
-0.139156
-0.137161
-0.135312
-0.133609
-0.132051
-0.130638
-0.129368
-0.128241
-0.127257
-0.126414
-0.125713
-0.125152
-0.124732
-0.124452
-0.124312
-0.182326
-0.178627
-0.174982
-0.171351
-0.167796
-0.16436
-0.161057
-0.157896
-0.154877
-0.152
-0.149266
-0.146673
-0.144221
-0.141909
-0.139737
-0.137704
-0.135811
-0.134055
-0.132438
-0.130958
-0.129614
-0.128406
-0.127335
-0.126398
-0.125596
-0.124928
-0.124395
-0.123995
-0.123728
-0.123595
-0.178182
-0.1747
-0.171267
-0.167849
-0.164501
-0.161262
-0.158149
-0.155167
-0.152318
-0.149602
-0.14702
-0.144569
-0.142251
-0.140065
-0.13801
-0.136086
-0.134293
-0.13263
-0.131097
-0.129693
-0.128419
-0.127273
-0.126256
-0.125367
-0.124606
-0.123972
-0.123465
-0.123085
-0.122832
-0.122705
-0.173906
-0.170639
-0.167416
-0.164209
-0.161066
-0.158023
-0.155097
-0.152293
-0.149612
-0.147056
-0.144623
-0.142314
-0.140129
-0.138066
-0.136127
-0.13431
-0.132617
-0.131045
-0.129596
-0.128268
-0.127063
-0.125979
-0.125016
-0.124174
-0.123453
-0.122852
-0.122372
-0.122012
-0.121772
-0.121652
-0.169509
-0.166455
-0.163442
-0.160444
-0.157503
-0.154655
-0.151914
-0.149286
-0.146772
-0.144372
-0.142088
-0.139919
-0.137864
-0.135924
-0.134099
-0.132388
-0.130793
-0.129312
-0.127945
-0.126693
-0.125556
-0.124532
-0.123623
-0.122828
-0.122147
-0.121579
-0.121125
-0.120785
-0.120558
-0.120445
-0.165003
-0.162161
-0.159355
-0.156565
-0.153825
-0.151169
-0.148612
-0.146157
-0.143807
-0.141563
-0.139425
-0.137393
-0.135467
-0.133648
-0.131936
-0.13033
-0.128831
-0.127439
-0.126154
-0.124977
-0.123906
-0.122943
-0.122087
-0.121338
-0.120696
-0.120162
-0.119734
-0.119413
-0.119199
-0.119092
-0.160401
-0.157768
-0.155169
-0.152584
-0.150043
-0.147577
-0.1452
-0.142917
-0.140729
-0.138638
-0.136644
-0.134748
-0.13295
-0.13125
-0.129648
-0.128145
-0.126742
-0.125438
-0.124234
-0.123129
-0.122125
-0.121221
-0.120417
-0.119714
-0.119111
-0.118608
-0.118206
-0.117905
-0.117704
-0.117603
-0.155715
-0.15329
-0.150896
-0.148513
-0.146169
-0.143891
-0.141692
-0.139578
-0.13755
-0.13561
-0.133758
-0.131995
-0.130322
-0.128738
-0.127246
-0.125845
-0.124535
-0.123317
-0.122192
-0.12116
-0.120221
-0.119375
-0.118623
-0.117964
-0.117399
-0.116929
-0.116552
-0.116269
-0.116081
-0.115987
-0.15096
-0.148741
-0.146549
-0.144366
-0.142215
-0.140123
-0.1381
-0.136151
-0.13428
-0.132488
-0.130776
-0.129144
-0.127593
-0.126125
-0.12474
-0.123438
-0.12222
-0.121087
-0.12004
-0.119078
-0.118203
-0.117414
-0.116713
-0.116098
-0.115571
-0.115131
-0.114779
-0.114515
-0.114339
-0.114251
-0.146151
-0.144134
-0.142141
-0.140156
-0.138195
-0.136284
-0.134434
-0.132648
-0.130931
-0.129284
-0.127709
-0.126205
-0.124775
-0.123419
-0.122139
-0.120934
-0.119807
-0.118757
-0.117786
-0.116893
-0.116081
-0.115348
-0.114696
-0.114124
-0.113634
-0.113225
-0.112898
-0.112652
-0.112488
-0.112406
-0.1413
-0.139484
-0.137687
-0.135895
-0.134121
-0.132388
-0.130706
-0.129081
-0.127514
-0.126009
-0.124567
-0.123189
-0.121877
-0.120631
-0.119453
-0.118344
-0.117304
-0.116336
-0.115439
-0.114614
-0.113863
-0.113185
-0.112581
-0.112052
-0.111597
-0.111218
-0.110915
-0.110687
-0.110535
-0.110459
-0.136425
-0.134804
-0.133199
-0.131596
-0.130004
-0.128445
-0.126928
-0.125459
-0.12404
-0.122674
-0.121362
-0.120106
-0.118909
-0.11777
-0.116692
-0.115676
-0.114722
-0.113833
-0.113008
-0.11225
-0.111558
-0.110934
-0.110377
-0.109889
-0.10947
-0.10912
-0.108839
-0.108629
-0.108488
-0.108418
-0.131539
-0.130109
-0.128692
-0.127272
-0.125858
-0.124469
-0.123112
-0.121795
-0.120519
-0.119287
-0.118102
-0.116966
-0.11588
-0.114846
-0.113865
-0.112939
-0.112069
-0.111257
-0.110503
-0.109809
-0.109175
-0.108602
-0.108092
-0.107644
-0.107258
-0.106937
-0.106679
-0.106486
-0.106357
-0.106292
-0.126657
-0.125413
-0.124178
-0.122937
-0.121695
-0.120469
-0.119269
-0.118098
-0.116961
-0.115861
-0.114799
-0.113778
-0.1128
-0.111867
-0.110981
-0.110142
-0.109354
-0.108616
-0.107931
-0.107299
-0.106722
-0.106199
-0.105733
-0.105324
-0.104972
-0.104678
-0.104443
-0.104266
-0.104147
-0.104088
-0.121793
-0.120729
-0.11967
-0.118601
-0.117526
-0.116459
-0.115409
-0.11438
-0.113378
-0.112404
-0.111461
-0.110552
-0.109678
-0.108843
-0.108048
-0.107295
-0.106584
-0.105919
-0.1053
-0.104729
-0.104206
-0.103733
-0.10331
-0.102938
-0.102619
-0.102351
-0.102137
-0.101976
-0.101868
-0.101815
-0.11696
-0.116071
-0.11518
-0.114277
-0.113362
-0.112448
-0.111542
-0.110651
-0.109777
-0.108925
-0.108097
-0.107296
-0.106523
-0.105783
-0.105075
-0.104404
-0.10377
-0.103174
-0.102619
-0.102106
-0.101636
-0.10121
-0.100829
-0.100494
-0.100205
-0.0999635
-0.0997698
-0.0996242
-0.0995269
-0.0994782
-0.112172
-0.111449
-0.110721
-0.109976
-0.109214
-0.108446
-0.107679
-0.106919
-0.10617
-0.105435
-0.104717
-0.104019
-0.103343
-0.102693
-0.102071
-0.101478
-0.100917
-0.100389
-0.0998952
-0.0994382
-0.0990188
-0.0986382
-0.0982973
-0.0979972
-0.0977385
-0.097522
-0.0973481
-0.0972173
-0.0971299
-0.0970862
-0.107441
-0.106876
-0.106302
-0.105709
-0.105092
-0.104463
-0.103829
-0.103195
-0.102564
-0.101941
-0.101328
-0.100729
-0.100147
-0.0995836
-0.0990423
-0.0985248
-0.0980333
-0.0975696
-0.0971355
-0.0967324
-0.0963617
-0.0960247
-0.0957225
-0.0954561
-0.0952262
-0.0950335
-0.0948787
-0.0947622
-0.0946843
-0.0946454
-0.102777
-0.102362
-0.101935
-0.101484
-0.101006
-0.100509
-0.100001
-0.0994857
-0.0989677
-0.0984508
-0.0979385
-0.097434
-0.0969404
-0.0964604
-0.0959966
-0.0955512
-0.0951266
-0.0947246
-0.094347
-0.0939955
-0.0936715
-0.0933763
-0.0931111
-0.0928768
-0.0926745
-0.0925047
-0.0923682
-0.0922654
-0.0921967
-0.0921622
-0.0981908
-0.0979175
-0.0976274
-0.0973115
-0.0969635
-0.0965919
-0.0962025
-0.0958001
-0.0953889
-0.094973
-0.094556
-0.0941413
-0.0937319
-0.0933309
-0.0929408
-0.0925642
-0.0922032
-0.0918599
-0.0915363
-0.091234
-0.0909545
-0.0906992
-0.0904693
-0.0902659
-0.0900898
-0.089942
-0.0898229
-0.0897332
-0.0896731
-0.089643
-0.093691
-0.09355
-0.0933887
-0.0931988
-0.0929732
-0.0927188
-0.0924413
-0.0921451
-0.0918348
-0.0915142
-0.0911873
-0.0908574
-0.0905279
-0.0902017
-0.0898815
-0.08957
-0.0892695
-0.0889821
-0.0887097
-0.0884541
-0.0882169
-0.0879995
-0.0878032
-0.0876291
-0.0874781
-0.0873511
-0.0872487
-0.0871714
-0.0871196
-0.0870937
-0.0892854
-0.0892674
-0.0892258
-0.0891534
-0.0890418
-0.088897
-0.0887241
-0.0885276
-0.0883119
-0.088081
-0.0878388
-0.0875888
-0.0873345
-0.0870789
-0.0868248
-0.0865748
-0.0863315
-0.0860968
-0.0858729
-0.0856616
-0.0854645
-0.0852831
-0.0851187
-0.0849724
-0.0848451
-0.0847378
-0.0846512
-0.0845857
-0.0845419
-0.0845199
-0.0849806
-0.0850761
-0.0851453
-0.0851816
-0.0851756
-0.0851326
-0.0850572
-0.0849536
-0.0848262
-0.0846791
-0.0845163
-0.0843413
-0.0841576
-0.0839683
-0.0837763
-0.0835842
-0.0833947
-0.0832098
-0.0830316
-0.0828621
-0.0827028
-0.0825553
-0.082421
-0.0823009
-0.0821961
-0.0821075
-0.0820358
-0.0819815
-0.0819451
-0.0819268
-0.080782
-0.0809817
-0.0811525
-0.0812887
-0.0813802
-0.0814312
-0.0814459
-0.0814285
-0.0813831
-0.0813141
-0.0812252
-0.0811201
-0.0810023
-0.080875
-0.0807411
-0.0806034
-0.0804643
-0.080326
-0.0801908
-0.0800605
-0.0799368
-0.0798213
-0.0797152
-0.0796198
-0.0795362
-0.0794652
-0.0794075
-0.0793637
-0.0793343
-0.0793195
-0.076694
-0.0769886
-0.0772521
-0.0774795
-0.0776601
-0.0777974
-0.077895
-0.077957
-0.0779875
-0.0779906
-0.0779702
-0.0779301
-0.0778736
-0.077804
-0.0777243
-0.0776371
-0.077545
-0.0774504
-0.0773554
-0.0772617
-0.0771713
-0.0770856
-0.077006
-0.0769338
-0.07687
-0.0768155
-0.076771
-0.0767371
-0.0767142
-0.0767027
-0.0727201
-0.0731003
-0.0734476
-0.0737576
-0.0740194
-0.0742352
-0.0744087
-0.0745435
-0.0746436
-0.0747131
-0.0747558
-0.0747756
-0.0747758
-0.0747596
-0.07473
-0.0746897
-0.0746414
-0.0745873
-0.0745295
-0.0744701
-0.0744106
-0.0743528
-0.0742979
-0.0742473
-0.0742019
-0.0741628
-0.0741306
-0.0741059
-0.0740892
-0.0740808
-0.0688625
-0.0693193
-0.0697418
-0.0701263
-0.0704611
-0.0707481
-0.0709904
-0.0711914
-0.071355
-0.0714851
-0.0715858
-0.0716605
-0.0717127
-0.0717456
-0.0717623
-0.0717653
-0.0717573
-0.0717407
-0.0717174
-0.0716896
-0.0716588
-0.0716268
-0.0715948
-0.0715642
-0.0715361
-0.0715112
-0.0714904
-0.0714743
-0.0714633
-0.0714577
-0.0651228
-0.0656475
-0.0661369
-0.0665876
-0.0669879
-0.0673388
-0.067643
-0.0679037
-0.0681248
-0.0683101
-0.0684633
-0.0685881
-0.0686878
-0.0687657
-0.0688246
-0.0688674
-0.0688965
-0.0689142
-0.0689227
-0.0689239
-0.0689196
-0.0689114
-0.0689005
-0.0688884
-0.0688761
-0.0688644
-0.0688541
-0.0688459
-0.0688402
-0.0688373
-0.0615017
-0.062086
-0.0626341
-0.0631434
-0.0636016
-0.0640093
-0.0643688
-0.0646831
-0.0649558
-0.0651907
-0.0653914
-0.0655614
-0.0657042
-0.0658229
-0.0659203
-0.0659992
-0.066062
-0.0661111
-0.0661486
-0.0661765
-0.0661964
-0.0662099
-0.0662184
-0.0662233
-0.0662254
-0.0662259
-0.0662253
-0.0662244
-0.0662235
-0.066223
-0.0579991
-0.0586349
-0.0592342
-0.0597945
-0.0603035
-0.0607612
-0.0611696
-0.0615314
-0.06185
-0.0621291
-0.0623723
-0.062583
-0.0627645
-0.0629198
-0.0630519
-0.0631634
-0.0632568
-0.0633344
-0.0633982
-0.0634502
-0.063492
-0.0635254
-0.0635515
-0.0635718
-0.0635872
-0.0635987
-0.0636069
-0.0636126
-0.0636161
-0.0636178
-0.0546144
-0.0552942
-0.0559373
-0.0565415
-0.0570945
-0.0575957
-0.0580467
-0.0584501
-0.0588092
-0.0591274
-0.0594082
-0.0596549
-0.0598708
-0.0600589
-0.060222
-0.0603627
-0.0604835
-0.0605866
-0.060674
-0.0607477
-0.0608094
-0.0608606
-0.0609027
-0.0609369
-0.0609642
-0.0609857
-0.0610019
-0.0610136
-0.0610211
-0.0610248
-0.0513463
-0.052063
-0.052743
-0.0533844
-0.0539748
-0.0545132
-0.0550009
-0.0554404
-0.0558345
-0.0561868
-0.0565004
-0.0567788
-0.057025
-0.057242
-0.0574324
-0.057599
-0.0577441
-0.0578698
-0.0579783
-0.0580714
-0.0581507
-0.0582179
-0.0582742
-0.0583208
-0.0583589
-0.0583893
-0.0584127
-0.0584297
-0.0584409
-0.0584464
-0.0481935
-0.0489402
-0.0496506
-0.0503227
-0.0509443
-0.051514
-0.0520328
-0.0525029
-0.052927
-0.0533085
-0.0536505
-0.0539562
-0.0542286
-0.0544707
-0.0546851
-0.0548742
-0.0550406
-0.0551862
-0.0553132
-0.0554233
-0.0555182
-0.0555995
-0.0556683
-0.055726
-0.0557736
-0.0558119
-0.0558416
-0.0558634
-0.0558777
-0.0558848
-0.0451538
-0.0459242
-0.0466588
-0.0473557
-0.0480026
-0.0485979
-0.0491424
-0.0496378
-0.0500871
-0.0504931
-0.050859
-0.0511879
-0.0514827
-0.0517462
-0.0519811
-0.0521897
-0.0523743
-0.0525372
-0.0526802
-0.0528051
-0.0529135
-0.053007
-0.0530868
-0.0531541
-0.05321
-0.0532552
-0.0532905
-0.0533165
-0.0533336
-0.053342
-0.0422251
-0.0430134
-0.0437663
-0.0444822
-0.045149
-0.0457645
-0.0463295
-0.0468454
-0.0473151
-0.0477412
-0.0481268
-0.0484749
-0.0487883
-0.0490697
-0.0493217
-0.0495467
-0.0497468
-0.0499242
-0.0500808
-0.0502183
-0.0503383
-0.0504423
-0.0505314
-0.050607
-0.05067
-0.0507211
-0.0507612
-0.0507908
-0.0508103
-0.0508199
-0.0394049
-0.0402054
-0.0409714
-0.0417009
-0.0423822
-0.0430129
-0.0435934
-0.0441251
-0.0446106
-0.0450525
-0.0454537
-0.0458171
-0.0461455
-0.0464414
-0.0467074
-0.0469458
-0.0471586
-0.0473481
-0.0475159
-0.0476639
-0.0477935
-0.0479062
-0.0480032
-0.0480857
-0.0481546
-0.0482108
-0.0482549
-0.0482875
-0.048309
-0.0483197
-0.0366908
-0.0374984
-0.0382723
-0.0390105
-0.0397013
-0.0403423
-0.0409336
-0.0414767
-0.0419737
-0.0424273
-0.0428402
-0.0432153
-0.0435551
-0.0438622
-0.0441391
-0.044388
-0.0446109
-0.0448099
-0.0449867
-0.045143
-0.0452804
-0.0454001
-0.0455035
-0.0455917
-0.0456654
-0.0457257
-0.0457731
-0.0458082
-0.0458313
-0.0458428
-0.0340799
-0.0348898
-0.0356668
-0.0364088
-0.0371044
-0.0377511
-0.0383488
-0.0388988
-0.0394033
-0.0398646
-0.0402855
-0.0406686
-0.0410165
-0.0413317
-0.0416164
-0.041873
-0.0421034
-0.0423095
-0.0424931
-0.0426559
-0.0427992
-0.0429244
-0.0430327
-0.0431252
-0.0432027
-0.0432662
-0.0433162
-0.0433532
-0.0433777
-0.0433898
-0.0315699
-0.0323775
-0.0331531
-0.0338944
-0.0345905
-0.0352385
-0.0358383
-0.0363912
-0.0368991
-0.0373644
-0.0377896
-0.0381773
-0.0385301
-0.0388502
-0.0391401
-0.0394017
-0.039637
-0.039848
-0.0400363
-0.0402035
-0.040351
-0.0404801
-0.0405919
-0.0406876
-0.0407679
-0.0408337
-0.0408855
-0.040924
-0.0409494
-0.0409621
-0.0291576
-0.0299586
-0.0307285
-0.0314648
-0.032157
-0.0328021
-0.0334
-0.0339518
-0.0344593
-0.0349249
-0.035351
-0.03574
-0.0360945
-0.0364167
-0.0367088
-0.0369728
-0.0372108
-0.0374244
-0.0376153
-0.0377851
-0.0379351
-0.0380665
-0.0381806
-0.0382782
-0.0383603
-0.0384276
-0.0384807
-0.0385201
-0.0385462
-0.0385591
-0.026841
-0.0276314
-0.0283915
-0.0291188
-0.029803
-0.0304413
-0.0310334
-0.0315803
-0.0320838
-0.0325462
-0.0329698
-0.033357
-0.0337102
-0.0340316
-0.0343233
-0.0345873
-0.0348255
-0.0350396
-0.0352312
-0.0354018
-0.0355527
-0.0356851
-0.0358
-0.0358985
-0.0359814
-0.0360494
-0.0361031
-0.036143
-0.0361694
-0.0361825
-0.0246168
-0.0253925
-0.0261389
-0.0268531
-0.0275254
-0.0281529
-0.0287353
-0.0292737
-0.0297697
-0.0302254
-0.0306433
-0.0310256
-0.0313746
-0.0316925
-0.0319812
-0.0322428
-0.0324791
-0.0326917
-0.032882
-0.0330517
-0.0332019
-0.0333338
-0.0334484
-0.0335467
-0.0336295
-0.0336975
-0.0337512
-0.033791
-0.0338174
-0.0338306
-0.0224831
-0.0232406
-0.0239696
-0.024667
-0.0253236
-0.0259367
-0.0265059
-0.0270322
-0.0275172
-0.0279632
-0.0283722
-0.0287467
-0.0290887
-0.0294004
-0.0296838
-0.0299407
-0.0301729
-0.0303819
-0.0305693
-0.0307364
-0.0308845
-0.0310146
-0.0311277
-0.0312248
-0.0313066
-0.0313738
-0.0314269
-0.0314663
-0.0314925
-0.0315054
-0.0204366
-0.021172
-0.0218796
-0.0225563
-0.0231935
-0.0237883
-0.0243406
-0.0248514
-0.0253222
-0.0257551
-0.0261523
-0.026516
-0.0268484
-0.0271514
-0.027427
-0.027677
-0.0279031
-0.0281067
-0.0282894
-0.0284523
-0.0285968
-0.0287238
-0.0288344
-0.0289293
-0.0290093
-0.029075
-0.0291269
-0.0291656
-0.0291911
-0.0292039
-0.018476
-0.0191859
-0.0198688
-0.0205214
-0.0211355
-0.0217086
-0.0222407
-0.0227325
-0.0231859
-0.0236027
-0.0239852
-0.0243355
-0.0246557
-0.0249476
-0.0252133
-0.0254543
-0.0256723
-0.0258688
-0.0260451
-0.0262025
-0.026342
-0.0264648
-0.0265717
-0.0266634
-0.0267408
-0.0268044
-0.0268547
-0.0268921
-0.0269169
-0.0269292
-0.0165972
-0.0172776
-0.0179317
-0.0185562
-0.0191435
-0.0196912
-0.0201995
-0.0206691
-0.0211018
-0.0214996
-0.0218645
-0.0221987
-0.0225041
-0.0227826
-0.0230361
-0.0232661
-0.0234742
-0.0236618
-0.0238301
-0.0239805
-0.0241139
-0.0242312
-0.0243334
-0.0244212
-0.0244953
-0.0245562
-0.0246043
-0.0246401
-0.0246638
-0.0246757
-0.0148001
-0.0154479
-0.01607
-0.016663
-0.01722
-0.017739
-0.0182202
-0.0186644
-0.0190735
-0.0194494
-0.0197941
-0.0201096
-0.020398
-0.0206609
-0.0209002
-0.0211174
-0.0213138
-0.021491
-0.02165
-0.021792
-0.0219181
-0.022029
-0.0221256
-0.0222086
-0.0222786
-0.0223362
-0.0223818
-0.0224156
-0.022438
-0.0224491
-0.0130794
-0.0136899
-0.0142755
-0.0148328
-0.0153556
-0.0158421
-0.0162926
-0.0167082
-0.0170906
-0.0174416
-0.0177634
-0.0180578
-0.0183268
-0.018572
-0.0187951
-0.0189975
-0.0191807
-0.0193459
-0.0194942
-0.0196266
-0.0197441
-0.0198476
-0.0199377
-0.0200152
-0.0200806
-0.0201343
-0.0201768
-0.0202084
-0.0202294
-0.0202399
-0.0114364
-0.0120069
-0.0125529
-0.0130712
-0.0135565
-0.0140072
-0.014424
-0.0148079
-0.0151607
-0.0154844
-0.0157808
-0.0160519
-0.0162994
-0.016525
-0.0167301
-0.0169163
-0.0170847
-0.0172366
-0.0173729
-0.0174947
-0.0176027
-0.0176979
-0.0177808
-0.017852
-0.0179121
-0.0179616
-0.0180007
-0.0180298
-0.018049
-0.0180585
-0.00986344
-0.0103882
-0.0108893
-0.0113639
-0.0118073
-0.0122183
-0.0125977
-0.0129467
-0.013267
-0.0135604
-0.013829
-0.0140743
-0.0142983
-0.0145022
-0.0146877
-0.0148559
-0.0150081
-0.0151453
-0.0152684
-0.0153785
-0.0154761
-0.015562
-0.0156369
-0.0157013
-0.0157556
-0.0158003
-0.0158357
-0.015862
-0.0158794
-0.0158883
-0.00836462
-0.0088413
-0.00929475
-0.00972256
-0.0101208
-0.010489
-0.0108281
-0.0111393
-0.0114246
-0.0116856
-0.0119241
-0.0121419
-0.0123406
-0.0125214
-0.0126857
-0.0128348
-0.0129696
-0.013091
-0.0132001
-0.0132975
-0.0133839
-0.01346
-0.0135263
-0.0135833
-0.0136314
-0.013671
-0.0137022
-0.0137255
-0.0137409
-0.0137484
-0.00692776
-0.00734866
-0.0077478
-0.00812313
-0.00847146
-0.00879263
-0.00908765
-0.00935793
-0.00960515
-0.00983104
-0.0100373
-0.0102254
-0.0103967
-0.0105527
-0.0106944
-0.0108228
-0.0109389
-0.0110435
-0.0111374
-0.0112213
-0.0112957
-0.0113612
-0.0114183
-0.0114674
-0.0115088
-0.0115428
-0.0115698
-0.0115899
-0.0116032
-0.0116102
-0.00556171
-0.00592559
-0.00626824
-0.00658838
-0.00688391
-0.00715523
-0.00740359
-0.00763053
-0.00783768
-0.00802665
-0.00819895
-0.00835596
-0.00849891
-0.0086289
-0.00874693
-0.00885388
-0.00895055
-0.00903764
-0.00911579
-0.00918557
-0.00924749
-0.009302
-0.00934949
-0.00939031
-0.00942475
-0.00945308
-0.00947548
-0.00949214
-0.00950313
-0.00950823
-0.00424529
-0.00454122
-0.0048187
-0.00507681
-0.00531402
-0.00553097
-0.00572892
-0.0059093
-0.0060736
-0.00622321
-0.00635944
-0.00648345
-0.00659625
-0.00669877
-0.00679181
-0.00687608
-0.00695223
-0.00702082
-0.00708236
-0.0071373
-0.00718605
-0.00722895
-0.00726633
-0.00729846
-0.00732558
-0.00734787
-0.00736551
-0.00737865
-0.00738747
-0.00739244
-0.0029967
-0.00322518
-0.00343657
-0.00363086
-0.00380759
-0.00396799
-0.00411358
-0.00424578
-0.00436589
-0.00447511
-0.00457445
-0.0046648
-0.00474695
-0.00482158
-0.00488927
-0.00495057
-0.00500594
-0.0050558
-0.00510053
-0.00514045
-0.00517586
-0.00520703
-0.00523418
-0.00525752
-0.0052772
-0.00529338
-0.00530616
-0.00531564
-0.00532179
-0.00532414
-0.00177545
-0.00192061
-0.0020542
-0.002176
-0.00228578
-0.00238476
-0.00247419
-0.00255511
-0.00262845
-0.00269501
-0.00275548
-0.00281044
-0.00286037
-0.0029057
-0.00294681
-0.00298402
-0.00301763
-0.00304788
-0.00307501
-0.00309923
-0.0031207
-0.0031396
-0.00315606
-0.00317021
-0.00318214
-0.00319195
-0.00319968
-0.00320541
-0.00320939
-0.0032123
-0.000616024
-0.000680518
-0.000737023
-0.000785533
-0.000827095
-0.000863453
-0.000895747
-0.000924727
-0.000950938
-0.000974756
-0.000996441
-0.00101619
-0.00103416
-0.0010505
-0.00106531
-0.00107872
-0.00109083
-0.00110172
-0.00111148
-0.00112018
-0.0011279
-0.00113469
-0.00114059
-0.00114566
-0.00114994
-0.00115345
-0.00115622
-0.0011582
-0.00115905
-0.00115807
-0.229415
-0.228583
-0.227447
-0.226034
-0.224349
-0.222422
-0.220204
-0.217557
-0.215037
-0.212341
-0.209439
-0.206344
-0.203055
-0.19958
-0.195932
-0.19212
-0.188151
-0.184033
-0.179774
-0.175384
-0.170874
-0.166255
-0.161541
-0.156744
-0.151878
-0.146958
-0.141999
-0.137017
-0.132026
-0.127041
-0.122078
-0.117149
-0.112269
-0.10745
-0.102703
-0.098038
-0.0934651
-0.0889916
-0.0846244
-0.080369
-0.0762298
-0.0722102
-0.0683123
-0.0645376
-0.0608866
-0.057359
-0.0539539
-0.05067
-0.0475055
-0.044458
-0.0415253
-0.0387045
-0.035993
-0.0333877
-0.0308861
-0.028485
-0.026182
-0.0239739
-0.0218587
-0.019833
-0.0178955
-0.0160423
-0.0142729
-0.012583
-0.0109726
-0.00943662
-0.00797582
-0.00658364
-0.0052619
-0.00400026
-0.00280398
-0.00165161
-0.000557854
-0.233661
-0.232838
-0.231703
-0.230291
-0.228617
-0.226681
-0.224434
-0.221852
-0.219345
-0.216694
-0.213817
-0.210741
-0.207487
-0.204054
-0.200449
-0.196679
-0.192752
-0.188674
-0.184452
-0.180094
-0.175609
-0.171009
-0.166304
-0.161507
-0.156631
-0.151691
-0.1467
-0.141675
-0.136631
-0.131582
-0.126545
-0.121533
-0.11656
-0.111641
-0.106787
-0.102009
-0.097319
-0.0927245
-0.0882337
-0.0838531
-0.0795881
-0.0754428
-0.0714205
-0.067523
-0.0637515
-0.0601063
-0.0565869
-0.0531922
-0.0499206
-0.0467701
-0.0437382
-0.0408224
-0.0380198
-0.0353276
-0.0327426
-0.0302622
-0.0278831
-0.0256029
-0.0234184
-0.0213274
-0.0193268
-0.0174149
-0.0155886
-0.0138464
-0.0121856
-0.0106043
-0.00910062
-0.0076711
-0.00631595
-0.005028
-0.00381072
-0.00265144
-0.00155491
-0.000505702
-0.236421
-0.235307
-0.23392
-0.23228
-0.230386
-0.228228
-0.225839
-0.22325
-0.22066
-0.217876
-0.214869
-0.211674
-0.208308
-0.204771
-0.201065
-0.197199
-0.193179
-0.189011
-0.184702
-0.180259
-0.175693
-0.171013
-0.166232
-0.161361
-0.156414
-0.151406
-0.146352
-0.141266
-0.136164
-0.131062
-0.125976
-0.120918
-0.115905
-0.110949
-0.106063
-0.101258
-0.096544
-0.0919301
-0.087424
-0.0830321
-0.0787594
-0.07461
-0.0705868
-0.0666915
-0.062925
-0.0592875
-0.0557781
-0.0523955
-0.049138
-0.0460033
-0.0429888
-0.0400918
-0.0373091
-0.0346379
-0.032075
-0.0296175
-0.0272621
-0.0250063
-0.0228469
-0.0207817
-0.0188076
-0.0169228
-0.0151246
-0.013411
-0.0117803
-0.010229
-0.00875858
-0.00736078
-0.00604366
-0.00478915
-0.00361784
-0.00249361
-0.00145689
-0.000447748
-0.238864
-0.237515
-0.235922
-0.234099
-0.232041
-0.229745
-0.22708
-0.224548
-0.221836
-0.218904
-0.215774
-0.21247
-0.209003
-0.205371
-0.201577
-0.197627
-0.193527
-0.189282
-0.184898
-0.180383
-0.175747
-0.170999
-0.166152
-0.161218
-0.15621
-0.151143
-0.146033
-0.140893
-0.135741
-0.130592
-0.125461
-0.120363
-0.115313
-0.110323
-0.105407
-0.100576
-0.095839
-0.0912062
-0.0866846
-0.0822806
-0.0779992
-0.0738443
-0.0698185
-0.0659235
-0.06216
-0.0585278
-0.0550261
-0.0516533
-0.0484074
-0.0452861
-0.0422864
-0.0394057
-0.0366406
-0.0339881
-0.0314449
-0.029008
-0.0266741
-0.0244406
-0.0223043
-0.0202627
-0.0183132
-0.0164535
-0.0146815
-0.0129943
-0.0113919
-0.00986865
-0.00842938
-0.00706126
-0.00578025
-0.00455669
-0.00343009
-0.00233724
-0.00136109
-0.00038545
-0.240857
-0.239299
-0.237521
-0.235522
-0.23326
-0.230699
-0.228208
-0.225556
-0.222703
-0.219657
-0.216432
-0.213042
-0.209492
-0.205782
-0.201915
-0.197895
-0.193726
-0.189416
-0.184968
-0.180392
-0.175697
-0.170892
-0.165989
-0.161001
-0.155941
-0.150824
-0.145666
-0.140481
-0.135286
-0.130097
-0.124929
-0.119796
-0.114714
-0.109696
-0.104754
-0.0999007
-0.0951451
-0.0904965
-0.0859622
-0.0815485
-0.0772604
-0.0731016
-0.0690745
-0.0651809
-0.061421
-0.0577948
-0.054301
-0.050938
-0.0477038
-0.0445956
-0.0416106
-0.0387458
-0.0359978
-0.0333634
-0.0308393
-0.0284224
-0.0261093
-0.0238972
-0.021783
-0.0197643
-0.0178383
-0.0160026
-0.0142555
-0.0125937
-0.011018
-0.00952153
-0.00811181
-0.00677173
-0.00552506
-0.00433025
-0.00324698
-0.00218181
-0.0012666
-0.00031761
-0.243887
-0.242382
-0.240657
-0.238725
-0.236567
-0.234173
-0.231654
-0.229044
-0.226266
-0.223306
-0.220171
-0.216869
-0.213407
-0.209788
-0.206013
-0.202085
-0.198006
-0.193781
-0.189416
-0.184916
-0.180289
-0.175545
-0.170692
-0.165743
-0.16071
-0.155608
-0.15045
-0.145252
-0.14003
-0.1348
-0.129577
-0.124378
-0.119217
-0.114108
-0.109067
-0.104105
-0.0992328
-0.0944618
-0.0898003
-0.085256
-0.0808348
-0.0765418
-0.0723806
-0.0683535
-0.064462
-0.0607065
-0.0570866
-0.053601
-0.050248
-0.0470253
-0.0439301
-0.0409595
-0.0381102
-0.0353789
-0.0327622
-0.0302567
-0.0278592
-0.0255662
-0.0233749
-0.0212822
-0.0192855
-0.0173822
-0.0155696
-0.0138465
-0.012209
-0.0106588
-0.00918783
-0.0078061
-0.00649257
-0.00527841
-0.00411028
-0.00306869
-0.00202748
-0.0011734
-0.000243723
-0.24514
-0.243481
-0.241627
-0.239591
-0.237348
-0.234805
-0.232262
-0.229571
-0.226703
-0.223664
-0.22046
-0.217095
-0.213575
-0.209901
-0.206073
-0.202095
-0.197969
-0.193699
-0.18929
-0.184748
-0.18008
-0.175296
-0.170406
-0.16542
-0.160353
-0.155217
-0.150027
-0.144798
-0.139547
-0.134289
-0.12904
-0.123816
-0.118633
-0.113505
-0.108445
-0.103467
-0.0985808
-0.093798
-0.0891269
-0.0845751
-0.0801487
-0.0758525
-0.0716902
-0.067664
-0.0637754
-0.0600246
-0.0564111
-0.0529337
-0.0495904
-0.0463788
-0.0432962
-0.0403393
-0.0375049
-0.0347895
-0.0321897
-0.0297019
-0.0273229
-0.0250492
-0.0228778
-0.0208056
-0.0188299
-0.0169482
-0.0151577
-0.0134574
-0.0118429
-0.0103169
-0.00887
-0.00751445
-0.00622594
-0.00504206
-0.00389859
-0.00289647
-0.0018755
-0.00108227
-0.000163637
-0.245983
-0.244206
-0.242247
-0.240094
-0.237699
-0.235242
-0.232629
-0.229851
-0.226909
-0.223807
-0.220548
-0.217134
-0.213566
-0.209847
-0.205978
-0.20196
-0.197796
-0.193489
-0.189046
-0.184471
-0.179772
-0.174958
-0.170039
-0.165026
-0.159932
-0.154771
-0.149558
-0.144307
-0.139034
-0.133757
-0.128489
-0.123248
-0.118049
-0.112907
-0.107834
-0.102844
-0.0979491
-0.0931582
-0.0884808
-0.0839242
-0.0794947
-0.0751972
-0.0710351
-0.0670108
-0.0631257
-0.0593799
-0.055773
-0.0523035
-0.0489696
-0.0457686
-0.0426978
-0.0397539
-0.0369336
-0.0342332
-0.0316494
-0.0291784
-0.0268169
-0.0245614
-0.0224088
-0.020356
-0.0184003
-0.016539
-0.0147694
-0.0130904
-0.0114978
-0.00999427
-0.00857011
-0.0072388
-0.0059737
-0.00481764
-0.00369688
-0.00273149
-0.00172721
-0.000993951
-7.71945e-05
-0.246488
-0.244623
-0.242592