/*--------------------------------*- C++ -*----------------------------------*\
  =========                 |
  \\      /  F ield         | OpenFOAM: The Open Source CFD Toolbox
   \\    /   O peration     | Website:  https://openfoam.org
    \\  /    A nd           | Version:  7
     \\/     M anipulation  |
\*---------------------------------------------------------------------------*/
FoamFile
{
    version     2.0;
    format      ascii;
    class       surfaceScalarField;
    location    "54.999";
    object      phi;
}
// * * * * * * * * * * * * * * * * * * * * * * * * * * * * * * * * * * * * * //

dimensions      [0 3 -1 0 0 0 0];

internalField   nonuniform List<scalar> 
7273
(
0.000545604
0.0121989
-0.000480395
0.000577745
0.0125899
0.000587412
0.0127201
0.000585186
0.0127307
0.0005769
0.0126942
0.000565032
0.0126406
0.00055062
0.0125815
0.000534228
0.0125219
0.000516243
0.0124644
0.00049694
0.01241
0.000476513
0.0123587
0.000455105
0.0123105
0.000432839
0.0122649
0.000409829
0.0122219
0.000386181
0.0121813
0.000361995
0.0121431
0.00033736
0.0121074
0.000312353
0.0120742
0.000287044
0.0120435
0.00026149
0.0120153
0.00023574
0.0119896
0.000209835
0.0119665
0.000183809
0.011946
0.000157689
0.011928
0.000131499
0.0119126
0.000105255
0.0118997
7.89724e-05
0.0118895
5.26604e-05
0.0118817
2.633e-05
0.0118766
0.0118741
0.00046103
0.0121341
-0.000396241
0.00049581
0.0125552
0.000509078
0.0127068
0.000510398
0.0127293
0.000505525
0.0126991
0.000497052
0.0126491
0.000486063
0.0125925
0.000473103
0.0125348
0.00045853
0.012479
0.000442598
0.0124259
0.000425489
0.0123758
0.000407341
0.0123286
0.000388271
0.012284
0.000368387
0.0122418
0.000347793
0.0122019
0.000326585
0.0121643
0.000304852
0.0121292
0.000282673
0.0120964
0.000260118
0.012066
0.000237249
0.0120382
0.000214119
0.0120128
0.000190773
0.0119899
0.000167252
0.0119695
0.000143589
0.0119517
0.000119813
0.0119364
9.59489e-05
0.0119236
7.20171e-05
0.0119134
4.80349e-05
0.0119057
2.40207e-05
0.0119006
0.0118981
0.000380291
0.0120704
-0.000316568
0.000417262
0.0125182
0.000433853
0.0126902
0.000438519
0.0127247
0.000436854
0.0127008
0.000431547
0.0126544
0.000423737
0.0126003
0.00041397
0.0125446
0.000402585
0.0124903
0.000389819
0.0124387
0.000375843
0.0123898
0.000360786
0.0123437
0.000344758
0.0123
0.000327862
0.0122587
0.000310196
0.0122195
0.000291854
0.0121827
0.000272924
0.0121481
0.000253483
0.0121158
0.000233606
0.0120859
0.000213354
0.0120584
0.000192784
0.0120333
0.000171948
0.0120107
0.000150888
0.0119906
0.000129643
0.0119729
0.000108249
0.0119578
8.67349e-05
0.0119451
6.51284e-05
0.011935
4.34529e-05
0.0119274
2.17332e-05
0.0119224
0.0119199
0.000303374
0.0120082
-0.000241164
0.000342072
0.0124795
0.000361615
0.0126707
0.000369385
0.0127169
0.000370759
0.0126994
0.000368455
0.0126567
0.000363641
0.0126051
0.000356871
0.0125514
0.000348476
0.0124987
0.000338688
0.0124484
0.000327668
0.0124008
0.000315539
0.0123558
0.000302402
0.0123132
0.000288356
0.0122727
0.000273492
0.0122344
0.000257902
0.0121983
0.000241671
0.0121643
0.000224877
0.0121326
0.000207594
0.0121032
0.000189886
0.0120761
0.000171812
0.0120514
0.000153426
0.0120291
0.000134776
0.0120092
0.000115904
0.0119918
9.68495e-05
0.0119768
7.76486e-05
0.0119643
5.8333e-05
0.0119543
3.89321e-05
0.0119468
1.94763e-05
0.0119418
0.0119393
0.000229931
0.011948
-0.000169724
0.000270113
0.0124393
0.000292247
0.0126485
0.000302849
0.0127063
0.000307116
0.0126951
0.000307681
0.0126561
0.000305711
0.012607
0.000301771
0.0125553
0.0002962
0.0125043
0.000289225
0.0124554
0.000281002
0.0124091
0.000271648
0.0123652
0.000261261
0.0123235
0.000249931
0.012284
0.000237748
0.0122466
0.000224797
0.0122112
0.000211163
0.0121779
0.000196923
0.0121468
0.000182149
0.012118
0.000166908
0.0120914
0.00015126
0.0120671
0.000135262
0.0120451
0.000118964
0.0120255
0.000102412
0.0120083
8.56504e-05
0.0119936
6.87183e-05
0.0119813
5.16523e-05
0.0119714
3.44866e-05
0.011964
1.72565e-05
0.011959
0.0119566
0.000160394
0.0118894
-0.00010178
0.000201494
0.0123982
0.000225654
0.0126244
0.000238871
0.0126931
0.000245903
0.0126881
0.000249182
0.0126529
0.000249892
0.0126063
0.000248627
0.0125566
0.000245731
0.0125072
0.000241423
0.0124597
0.000235855
0.0124146
0.000229138
0.0123719
0.000221368
0.0123313
0.000212629
0.0122928
0.000203009
0.0122562
0.000192589
0.0122216
0.000181451
0.0121891
0.000169671
0.0121586
0.000157321
0.0121303
0.000144468
0.0121042
0.000131174
0.0120803
0.000117497
0.0120588
0.00010349
0.0120395
8.92021e-05
0.0120226
7.46801e-05
0.0120081
5.99671e-05
0.011996
4.51036e-05
0.0119862
3.01281e-05
0.0119789
1.50799e-05
0.0119741
0.0119717
9.40387e-05
0.0118333
-3.8002e-05
0.000135978
0.0123563
0.000161666
0.0125987
0.000177472
0.0126773
0.000187112
0.0126785
0.000192922
0.0126471
0.000196149
0.0126031
0.000197415
0.0125553
0.000197055
0.0125076
0.000195278
0.0124615
0.000192231
0.0124177
0.000188023
0.0123761
0.000182745
0.0123366
0.000176481
0.012299
0.000169311
0.0122634
0.000161316
0.0122296
0.000152576
0.0121978
0.000143164
0.012168
0.000133152
0.0121403
0.000122607
0.0121148
0.000111593
0.0120914
0.000100168
0.0120702
8.83869e-05
0.0120513
7.63023e-05
0.0120347
6.39629e-05
0.0120204
5.14149e-05
0.0120085
3.87022e-05
0.011999
2.58667e-05
0.0119918
1.29513e-05
0.011987
0.0119846
3.31008e-05
0.0117781
2.21088e-05
7.341e-05
0.012316
0.000100562
0.0125715
0.000118779
0.0126591
0.00013074
0.0126665
0.000138871
0.0126389
0.000144464
0.0125975
0.000148125
0.0125517
0.000150168
0.0125055
0.000150792
0.0124609
0.00015014
0.0124183
0.000148318
0.0123779
0.000145415
0.0123395
0.000141511
0.0123029
0.000136684
0.0122682
0.000131013
0.0122353
0.000124572
0.0122043
0.000117437
0.0121752
0.000109678
0.0121481
0.000101361
0.0121231
9.25498e-05
0.0121002
8.3305e-05
0.0120794
7.3683e-05
0.0120609
6.37377e-05
0.0120447
5.35202e-05
0.0120307
4.30792e-05
0.012019
3.24613e-05
0.0120096
2.17115e-05
0.0120025
1.08755e-05
0.0119978
0.0119955
-2.57841e-05
0.0117268
7.7042e-05
1.30883e-05
0.0122771
4.27163e-05
0.0125419
6.27063e-05
0.0126391
7.66708e-05
0.0126525
8.69789e-05
0.0126286
9.48222e-05
0.0125897
0.000100752
0.0125457
0.000105069
0.0125012
0.000107967
0.012458
0.000109588
0.0124167
0.000110036
0.0123775
0.000109395
0.0123401
0.000107743
0.0123046
0.000105155
0.0122708
0.000101706
0.0122387
9.74709e-05
0.0122085
9.25217e-05
0.0121801
8.69283e-05
0.0121537
8.07574e-05
0.0121292
7.40729e-05
0.0121069
6.69353e-05
0.0120866
5.94025e-05
0.0120685
5.153e-05
0.0120525
4.33706e-05
0.0120388
3.49751e-05
0.0120274
2.63924e-05
0.0120182
1.76701e-05
0.0120113
8.8564e-06
0.0120067
0.0120044
-8.33709e-05
0.0116791
0.000131154
-4.29047e-05
0.0122366
-1.25056e-05
0.0125115
8.89736e-06
0.0126177
2.48199e-05
0.0126366
3.72358e-05
0.0126162
4.72089e-05
0.0125797
5.5281e-05
0.0125377
6.17471e-05
0.0124947
6.68023e-05
0.0124529
7.05824e-05
0.0124129
7.31877e-05
0.0123749
7.47e-05
0.0123386
7.5194e-05
0.0123041
7.47427e-05
0.0122712
7.34189e-05
0.0122401
7.1295e-05
0.0122106
6.84422e-05
0.012183
6.49293e-05
0.0121572
6.08226e-05
0.0121333
5.61861e-05
0.0121115
5.10809e-05
0.0120917
4.55657e-05
0.012074
3.96971e-05
0.0120584
3.35295e-05
0.012045
2.71153e-05
0.0120338
2.05053e-05
0.0120248
1.37492e-05
0.012018
6.89727e-06
0.0120135
0.0120113
-0.000137275
0.0116335
0.000182801
-9.71494e-05
0.0121965
-6.62389e-05
0.0124806
-4.28256e-05
0.0125943
-2.48505e-05
0.0126186
-1.04016e-05
0.0126018
1.59214e-06
0.0125677
1.16841e-05
0.0125276
2.01882e-05
0.0124862
2.72909e-05
0.0124458
3.31218e-05
0.0124071
3.77777e-05
0.0123702
4.13383e-05
0.0123351
4.38765e-05
0.0123016
4.54629e-05
0.0122697
4.61685e-05
0.0122394
4.60638e-05
0.0122107
4.52184e-05
0.0121838
4.37004e-05
0.0121587
4.15758e-05
0.0121355
3.89084e-05
0.0121142
3.57598e-05
0.0120948
3.21892e-05
0.0120775
2.8254e-05
0.0120623
2.40098e-05
0.0120492
1.95104e-05
0.0120383
1.4808e-05
0.0120295
9.95416e-06
0.0120229
5.00088e-06
0.0120185
0.0120163
-0.000188606
0.0115903
0.000231826
-0.000149104
0.012157
-0.000117117
0.0124486
-9.2204e-05
0.0125693
-7.23988e-05
0.0125988
-5.60415e-05
0.0125854
-4.21148e-05
0.0125538
-3.00743e-05
0.0125155
-1.96247e-05
0.0124758
-1.05764e-05
0.0124368
-2.79903e-06
0.0123993
3.80511e-06
0.0123636
9.31408e-06
0.0123296
1.3798e-05
0.0122971
1.73258e-05
0.0122661
1.9967e-05
0.0122367
2.17908e-05
0.0122089
2.2865e-05
0.0121827
2.32568e-05
0.0121583
2.30324e-05
0.0121357
2.22551e-05
0.0121149
2.09865e-05
0.0120961
1.92863e-05
0.0120792
1.72126e-05
0.0120644
1.48218e-05
0.0120516
1.21687e-05
0.0120409
9.30697e-06
0.0120323
6.28945e-06
0.0120259
3.16943e-06
0.0120216
0.0120194
-0.000237466
0.0115493
0.00027844
-0.000198386
0.0121179
-0.00016562
0.0124158
-0.000139284
0.012543
-0.000117784
0.0125773
-9.9629e-05
0.0125672
-8.38749e-05
0.012538
-6.99985e-05
0.0125016
-5.77042e-05
0.0124635
-4.68073e-05
0.0124259
-3.71797e-05
0.0123897
-2.87259e-05
0.0123551
-2.13679e-05
0.0123222
-1.50355e-05
0.0122907
-9.66111e-06
0.0122608
-5.17744e-06
0.0122322
-1.51684e-06
0.0122052
1.38972e-06
0.0121798
3.6087e-06
0.0121561
5.20335e-06
0.0121341
6.23703e-06
0.0121139
6.77156e-06
0.0120956
6.86702e-06
0.0120792
6.58194e-06
0.0120647
5.97337e-06
0.0120522
5.09701e-06
0.0120418
4.00738e-06
0.0120334
2.75851e-06
0.0120271
1.4047e-06
0.0120229
0.0120208
-0.00028383
0.0115104
0.000322764
-0.000245177
0.0120793
-0.000211778
0.0123825
-0.000184128
0.0125154
-0.000161033
0.0125542
-0.000141188
0.0125474
-0.000123711
0.0125206
-0.000108097
0.012486
-9.40577e-05
0.0124494
-8.14113e-05
0.0124132
-7.00318e-05
0.0123783
-5.98242e-05
0.0123449
-5.07109e-05
0.0123131
-4.26227e-05
0.0122827
-3.54928e-05
0.0122536
-2.92548e-05
0.012226
-2.38419e-05
0.0121998
-1.91886e-05
0.0121752
-1.52293e-05
0.0121521
-1.18989e-05
0.0121308
-9.13454e-06
0.0121111
-6.8748e-06
0.0120933
-5.05956e-06
0.0120773
-3.63006e-06
0.0120633
-2.52879e-06
0.0120511
-1.6995e-06
0.012041
-1.08688e-06
0.0120328
-6.36031e-07
0.0120267
-2.91914e-07
0.0120226
0.0120205
-0.000327749
0.0114733
0.000364849
-0.000289576
0.0120411
-0.000255607
0.0123485
-0.000226752
0.0124865
-0.00020217
0.0125296
-0.000180736
0.012526
-0.000161634
0.0125015
-0.00014438
0.0124688
-0.000128693
0.0124338
-0.000114393
0.0123989
-0.000101358
0.0123653
-8.9491e-05
0.0123331
-7.87161e-05
0.0123023
-6.89643e-05
0.0122729
-6.01699e-05
0.0122448
-5.22675e-05
0.0122181
-4.51915e-05
0.0121928
-3.88766e-05
0.0121689
-3.32579e-05
0.0121465
-2.82717e-05
0.0121258
-2.38552e-05
0.0121067
-1.99472e-05
0.0120894
-1.64875e-05
0.0120739
-1.34173e-05
0.0120602
-1.06788e-05
0.0120484
-8.21544e-06
0.0120385
-5.97137e-06
0.0120306
-3.89114e-06
0.0120246
-1.91911e-06
0.0120206
0.0120186
-0.000369293
0.0114379
0.000404733
-0.000331608
0.0120034
-0.000297131
0.012314
-0.000267175
0.0124565
-0.000241211
0.0125037
-0.000218286
0.012503
-0.000197655
0.0124808
-0.000178857
0.01245
-0.000161617
0.0124165
-0.000145761
0.0123831
-0.000131163
0.0123507
-0.000117731
0.0123196
-0.000105386
0.01229
-9.40619e-05
0.0122616
-8.36924e-05
0.0122345
-7.42132e-05
0.0122086
-6.55599e-05
0.0121841
-5.76676e-05
0.012161
-5.04724e-05
0.0121393
-4.39111e-05
0.0121192
-3.79215e-05
0.0121007
-3.24425e-05
0.0120839
-2.74143e-05
0.0120689
-2.27779e-05
0.0120556
-1.84754e-05
0.0120441
-1.44501e-05
0.0120345
-1.06457e-05
0.0120268
-7.00651e-06
0.012021
-3.47644e-06
0.0120171
0.0120151
-0.000408505
0.0114039
0.000442448
-0.000371289
0.0119662
-0.000336369
0.0122791
-0.00030541
0.0124256
-0.000278167
0.0124764
-0.000253851
0.0124787
-0.000231788
0.0124588
-0.00021154
0.0124297
-0.000192842
0.0123978
-0.000175522
0.0123657
-0.000159455
0.0123346
-0.000144549
0.0123047
-0.000130726
0.0122761
-0.000117919
0.0122488
-0.000106062
0.0122226
-9.50933e-05
0.0121977
-8.49475e-05
0.012174
-7.55613e-05
0.0121516
-6.68714e-05
0.0121306
-5.88153e-05
0.0121112
-5.13312e-05
0.0120932
-4.43584e-05
0.012077
-3.78373e-05
0.0120623
-3.1709e-05
0.0120494
-2.59159e-05
0.0120383
-2.0401e-05
0.012029
-1.5108e-05
0.0120215
-9.98085e-06
0.0120158
-4.9634e-06
0.0120121
0.0120102
-0.000445409
0.0113713
0.000478016
-0.000408637
0.0119294
-0.000373334
0.0122438
-0.000341468
0.0123937
-0.000313049
0.012448
-0.000287441
0.0124531
-0.000264041
0.0124354
-0.000242439
0.0124081
-0.000222377
0.0123778
-0.000203686
0.0123471
-0.000186243
0.0123172
-0.000169954
0.0122884
-0.000154742
0.0122609
-0.000140541
0.0122346
-0.000127284
0.0122094
-0.000114911
0.0121853
-0.000103357
0.0121624
-9.25595e-05
0.0121408
-8.24561e-05
0.0121205
-7.29847e-05
0.0121017
-6.40842e-05
0.0120843
-5.56943e-05
0.0120686
-4.77558e-05
0.0120544
-4.02101e-05
0.0120419
-3.29996e-05
0.0120311
-2.60676e-05
0.012022
-1.93576e-05
0.0120148
-1.28137e-05
0.0120093
-6.37972e-06
0.0120056
0.0120038
-0.000480022
0.0113399
0.000511443
-0.000443666
0.0118931
-0.000408039
0.0122082
-0.000375359
0.012361
-0.000345863
0.0124185
-0.000319063
0.0124263
-0.000294425
0.0124107
-0.000271564
0.0123853
-0.000250233
0.0123564
-0.000230264
0.0123271
-0.000211535
0.0122984
-0.000193954
0.0122709
-0.000177443
0.0122444
-0.000161934
0.0122191
-0.000147365
0.0121948
-0.000133672
0.0121716
-0.000120793
0.0121495
-0.000108666
0.0121287
-9.72292e-05
0.0121091
-8.64214e-05
0.0120909
-7.61821e-05
0.0120741
-6.64515e-05
0.0120588
-5.71706e-05
0.0120451
-4.82815e-05
0.012033
-3.97268e-05
0.0120225
-3.14498e-05
0.0120138
-2.33946e-05
0.0120067
-1.55051e-05
0.0120014
-7.7254e-06
0.0119979
0.0119961
-0.000512352
0.0113095
0.000542728
-0.000476388
0.0118571
-0.000440493
0.0121723
-0.00040709
0.0123276
-0.00037662
0.0123881
-0.000348729
0.0123984
-0.00032295
0.0123849
-0.000298928
0.0123612
-0.000276421
0.0123339
-0.000255267
0.0123059
-0.000235345
0.0122785
-0.000216561
0.0122521
-0.000198838
0.0122267
-0.00018211
0.0122023
-0.000166312
0.012179
-0.000151383
0.0121567
-0.000137261
0.0121354
-0.000123886
0.0121153
-0.000111196
0.0120964
-9.91297e-05
0.0120788
-8.76284e-05
0.0120626
-7.66326e-05
0.0120478
-6.60841e-05
0.0120346
-5.59251e-05
0.0120228
-4.60988e-05
0.0120127
-3.65489e-05
0.0120042
-2.72197e-05
0.0119974
-1.80555e-05
0.0119922
-9.00067e-06
0.0119888
0.0119871
-0.000542407
0.0112801
0.000571865
-0.000506815
0.0118215
-0.000470707
0.0121362
-0.00043667
0.0122936
-0.000405328
0.0123567
-0.000376448
0.0123695
-0.000349629
0.0123581
-0.000324542
0.0123362
-0.000300955
0.0123103
-0.000278709
0.0122837
-0.000257683
0.0122575
-0.000237786
0.0122322
-0.000218939
0.0122078
-0.000201077
0.0121845
-0.000184135
0.012162
-0.000168054
0.0121406
-0.000152771
0.0121201
-0.000138227
0.0121007
-0.000124362
0.0120825
-0.000111115
0.0120656
-9.84278e-05
0.0120499
-8.62419e-05
0.0120356
-7.44995e-05
0.0120228
-6.31436e-05
0.0120115
-5.21178e-05
0.0120017
-4.13665e-05
0.0119935
-3.08342e-05
0.0119868
-2.04658e-05
0.0119819
-1.02059e-05
0.0119785
0.0119769
-0.000570193
0.0112514
0.000598842
-0.000534957
0.0117863
-0.000498692
0.0120999
-0.000464114
0.012259
-0.000432
0.0123246
-0.000402235
0.0123398
-0.000374477
0.0123304
-0.000348422
0.0123101
-0.00032385
0.0122858
-0.000300604
0.0122604
-0.000278567
0.0122355
-0.000257644
0.0122113
-0.000237761
0.012188
-0.000218849
0.0121656
-0.000200848
0.012144
-0.000183695
0.0121234
-0.000167332
0.0121038
-0.000151699
0.0120851
-0.000136736
0.0120676
-0.000122385
0.0120512
-0.000108587
0.0120361
-9.52847e-05
0.0120223
-8.24215e-05
0.01201
-6.99409e-05
0.011999
-5.77871e-05
0.0119895
-4.59051e-05
0.0119816
-3.42399e-05
0.0119752
-2.27371e-05
0.0119704
-1.13418e-05
0.0119671
0.0119655
-0.000595717
0.0112235
0.000623653
-0.00056083
0.0117514
-0.000524465
0.0120635
-0.000489435
0.012224
-0.000456654
0.0122918
-0.000426107
0.0123092
-0.00039751
0.0123018
-0.000370586
0.0122832
-0.000345125
0.0122603
-0.000320972
0.0122363
-0.000298012
0.0122125
-0.000276153
0.0121894
-0.000255318
0.0121671
-0.000235442
0.0121457
-0.000216463
0.0121251
-0.00019832
0.0121053
-0.000180956
0.0120864
-0.000164311
0.0120685
-0.000148327
0.0120516
-0.000132947
0.0120358
-0.000118113
0.0120213
-0.000103768
0.012008
-8.98559e-05
0.011996
-7.63219e-05
0.0119855
-6.31106e-05
0.0119763
-5.01678e-05
0.0119686
-3.74392e-05
0.0119624
-2.48709e-05
0.0119578
-1.2409e-05
0.0119547
0.0119531
-0.000618991
0.0111962
0.000646292
-0.000584452
0.0117168
-0.000548045
0.0120271
-0.000512656
0.0121886
-0.00047931
0.0122585
-0.000448085
0.012278
-0.000418751
0.0122724
-0.000391056
0.0122555
-0.0003648
0.012234
-0.000339832
0.0122113
-0.00031604
0.0121887
-0.000293331
0.0121667
-0.00027163
0.0121454
-0.000250873
0.0121249
-0.000230997
0.0121052
-0.000211944
0.0120862
-0.000193657
0.0120681
-0.000176077
0.0120509
-0.000159148
0.0120347
-0.000142813
0.0120195
-0.000127015
0.0120055
-0.000111699
0.0119927
-9.68095e-05
0.0119812
-8.22923e-05
0.0119709
-6.80931e-05
0.0119621
-5.41583e-05
0.0119547
-4.04348e-05
0.0119487
-2.68692e-05
0.0119442
-1.34085e-05
0.0119412
0.0119397
-0.000640032
0.0111694
0.000666761
-0.000605847
0.0116827
-0.00056946
0.0119907
-0.000533802
0.0121529
-0.000499994
0.0122247
-0.000468195
0.0122462
-0.000438226
0.0122425
-0.000409858
0.0122271
-0.000382901
0.0122071
-0.00035721
0.0121856
-0.000332673
0.0121642
-0.0003092
0.0121432
-0.000286718
0.0121229
-0.00026516
0.0121034
-0.000244468
0.0120845
-0.000224584
0.0120663
-0.00020545
0.012049
-0.000187011
0.0120325
-0.000169211
0.0120169
-0.000151993
0.0120023
-0.000135304
0.0119888
-0.000119087
0.0119765
-0.00010329
0.0119654
-8.78587e-05
0.0119555
-7.27399e-05
0.011947
-5.78811e-05
0.0119398
-4.32299e-05
0.0119341
-2.87341e-05
0.0119297
-1.43413e-05
0.0119268
0.0119254
-0.000658866
0.0111432
0.000685071
-0.000625048
0.0116488
-0.000588744
0.0119544
-0.000552907
0.0121171
-0.000518739
0.0121905
-0.00048647
0.0122139
-0.000455965
0.012212
-0.00042702
0.0121982
-0.000399456
0.0121795
-0.000373132
0.0121593
-0.000347938
0.012139
-0.000323786
0.0121191
-0.000300604
0.0120998
-0.000278327
0.0120811
-0.000256897
0.0120631
-0.000236258
0.0120457
-0.000216353
0.0120291
-0.000197129
0.0120132
-0.000178529
0.0119983
-0.000160501
0.0119843
-0.00014299
0.0119713
-0.000125943
0.0119594
-0.000109307
0.0119487
-9.30287e-05
0.0119392
-7.70574e-05
0.011931
-6.1341e-05
0.0119241
-4.58283e-05
0.0119186
-3.04679e-05
0.0119144
-1.52087e-05
0.0119116
0.0119102
-0.000675527
0.0111175
0.000701243
-0.000642095
0.0116154
-0.000605936
0.0119183
-0.000570012
0.0120812
-0.000535583
0.0121561
-0.000502945
0.0121813
-0.000472004
0.012181
-0.000442578
0.0121687
-0.000414498
0.0121514
-0.000387629
0.0121324
-0.000361864
0.0121132
-0.000337116
0.0120943
-0.000313315
0.012076
-0.000290398
0.0120582
-0.000268307
0.012041
-0.000246987
0.0120244
-0.000226386
0.0120085
-0.000206448
0.0119933
-0.000187121
0.0119789
-0.000168351
0.0119655
-0.000150088
0.011953
-0.000132277
0.0119416
-0.000114869
0.0119313
-9.78106e-05
0.0119222
-8.10524e-05
0.0119143
-6.45436e-05
0.0119076
-4.8234e-05
0.0119023
-3.20735e-05
0.0118982
-1.6012e-05
0.0118955
0.0118942
-0.000690059
0.0110923
0.000715308
-0.000657037
0.0115824
-0.000621089
0.0118823
-0.000585164
0.0120453
-0.000550573
0.0121215
-0.000517664
0.0121484
-0.000486384
0.0121497
-0.00045657
0.0121389
-0.000428064
0.0121229
-0.000400737
0.0121051
-0.000374483
0.012087
-0.000349221
0.0120691
-0.00032488
0.0120516
-0.000301399
0.0120347
-0.000278722
0.0120183
-0.000256796
0.0120025
-0.000235568
0.0119872
-0.000214987
0.0119727
-0.000195001
0.011959
-0.000175559
0.011946
-0.00015661
0.0119341
-0.000138102
0.0119231
-0.000119987
0.0119132
-0.000102213
0.0119044
-8.47323e-05
0.0118968
-6.74947e-05
0.0118904
-5.04515e-05
0.0118852
-3.35538e-05
0.0118813
-1.67528e-05
0.0118787
0.0118774
-0.000702517
0.0110675
0.000727311
-0.000669933
0.0115498
-0.000634258
0.0118466
-0.000598419
0.0120094
-0.00056376
0.0120868
-0.000530677
0.0121153
-0.000499151
0.0121182
-0.00046904
0.0121088
-0.000440195
0.0120941
-0.000412493
0.0120774
-0.000385833
0.0120603
-0.000360135
0.0120434
-0.00033533
0.0120268
-0.000311359
0.0120107
-0.000288169
0.0119951
-0.000265707
0.01198
-0.000243924
0.0119655
-0.000222768
0.0119516
-0.000202191
0.0119384
-0.000182142
0.011926
-0.000162572
0.0119145
-0.000143432
0.011904
-0.000124673
0.0118944
-0.000106247
0.011886
-8.81055e-05
0.0118786
-7.02009e-05
0.0118725
-5.24856e-05
0.0118675
-3.4912e-05
0.0118637
-1.74325e-05
0.0118612
0.01186
-0.000712967
0.0110431
0.000737309
-0.000680851
0.0115177
-0.000645512
0.0118113
-0.000609839
0.0119737
-0.000575203
0.0120522
-0.000542039
0.0120821
-0.000510357
0.0120865
-0.000480035
0.0120785
-0.000450936
0.012065
-0.000422941
0.0120494
-0.000395953
0.0120333
-0.000369894
0.0120173
-0.000344699
0.0120016
-0.000320311
0.0119863
-0.000296677
0.0119715
-0.000273749
0.0119571
-0.000251477
0.0119432
-0.000229813
0.0119299
-0.000208709
0.0119173
-0.000188118
0.0119054
-0.00016799
0.0118944
-0.00014828
0.0118843
-0.000128939
0.0118751
-0.000109922
0.011867
-9.11804e-05
0.0118599
-7.26691e-05
0.011854
-5.43415e-05
0.0118492
-3.61515e-05
0.0118455
-1.80529e-05
0.0118431
0.0118419
-0.000721484
0.0110193
0.000745371
-0.000689868
0.0114861
-0.000654924
0.0117764
-0.000619496
0.0119383
-0.000584968
0.0120177
-0.00055181
0.012049
-0.000520058
0.0120548
-0.00048961
0.0120481
-0.000460336
0.0120357
-0.000432125
0.0120212
-0.000404884
0.0120061
-0.000378538
0.011991
-0.000353024
0.0119761
-0.000328287
0.0119616
-0.000304278
0.0119475
-0.000280949
0.0119337
-0.000258254
0.0119205
-0.000236145
0.0119078
-0.000214578
0.0118957
-0.000193505
0.0118843
-0.000172882
0.0118738
-0.000152662
0.011864
-0.000132799
0.0118552
-0.000113249
0.0118474
-9.39664e-05
0.0118406
-7.49066e-05
0.0118349
-5.60247e-05
0.0118303
-3.7276e-05
0.0118268
-1.86158e-05
0.0118245
0.0118233
-0.000728152
0.0109958
0.000751576
-0.000697069
0.011455
-0.000662577
0.0117419
-0.000627465
0.0119032
-0.000593127
0.0119833
-0.000560056
0.0120159
-0.000528316
0.012023
-0.000497819
0.0120176
-0.000468447
0.0120063
-0.000440094
0.0119928
-0.000412672
0.0119786
-0.000386108
0.0119644
-0.000360343
0.0119503
-0.000335324
0.0119366
-0.000311004
0.0119231
-0.000287338
0.0119101
-0.000264282
0.0118974
-0.00024179
0.0118853
-0.000219819
0.0118737
-0.000198326
0.0118628
-0.000177265
0.0118527
-0.000156593
0.0118434
-0.000136266
0.0118349
-0.00011624
0.0118274
-9.64732e-05
0.0118209
-7.69211e-05
0.0118153
-5.75408e-05
0.0118109
-3.82892e-05
0.0118075
-1.91232e-05
0.0118053
0.0118042
-0.000733065
0.0109729
0.000756014
-0.000702545
0.0114245
-0.000668557
0.0117079
-0.000633829
0.0118685
-0.000599754
0.0119492
-0.000566848
0.011983
-0.000535196
0.0119914
-0.000504724
0.0119871
-0.000475326
0.0119769
-0.0004469
0.0119644
-0.000419364
0.0119511
-0.000392649
0.0119377
-0.000366697
0.0119244
-0.000341459
0.0119113
-0.00031689
0.0118986
-0.000292948
0.0118861
-0.00026959
0.0118741
-0.000246774
0.0118625
-0.000224458
0.0118514
-0.0002026
0.011841
-0.000181158
0.0118313
-0.00016009
0.0118223
-0.000139354
0.0118142
-0.000118908
0.0118069
-9.8711e-05
0.0118007
-7.87208e-05
0.0117954
-5.88961e-05
0.0117911
-3.91954e-05
0.0117878
-1.9577e-05
0.0117857
0.0117846
-0.000736323
0.0109504
0.000758785
-0.000706396
0.0113945
-0.000672959
0.0116744
-0.000638676
0.0118342
-0.000604932
0.0119155
-0.00057226
0.0119503
-0.000540766
0.0119599
-0.000510389
0.0119567
-0.000481031
0.0119476
-0.000452598
0.011936
-0.000425011
0.0119235
-0.000398206
0.0119109
-0.000372128
0.0118983
-0.000346731
0.0118859
-0.000321972
0.0118738
-0.000297811
0.011862
-0.000274208
0.0118505
-0.000251124
0.0118394
-0.000228518
0.0118288
-0.00020635
0.0118188
-0.000184581
0.0118095
-0.000163171
0.0118009
-0.000142079
0.0117931
-0.000121265
0.0117861
-0.00010069
0.0117801
-8.0314e-05
0.011775
-6.00967e-05
0.0117709
-3.99985e-05
0.0117678
-1.99794e-05
0.0117657
0.0117646
-0.000738033
0.0109285
0.000759995
-0.000708725
0.0113652
-0.00067588
0.0116416
-0.000642096
0.0118004
-0.000608744
0.0118821
-0.000576371
0.011918
-0.000545098
0.0119286
-0.000514878
0.0119265
-0.000485622
0.0119183
-0.000457243
0.0119076
-0.000429665
0.0118959
-0.000402829
0.011884
-0.000376682
0.0118722
-0.000351181
0.0118604
-0.000326287
0.0118489
-0.000301962
0.0118376
-0.000278168
0.0118267
-0.000254868
0.0118161
-0.000232024
0.011806
-0.000209599
0.0117964
-0.000187555
0.0117874
-0.000165853
0.0117792
-0.000144456
0.0117717
-0.000123325
0.011765
-0.000102422
0.0117592
-8.17095e-05
0.0117543
-6.11492e-05
0.0117503
-4.07029e-05
0.0117473
-2.03324e-05
0.0117453
0.0117443
-0.000738306
0.010907
0.000759756
-0.000709639
0.0113366
-0.000677422
0.0116094
-0.000644184
0.0117672
-0.000611278
0.0118492
-0.00057926
0.0118859
-0.000548265
0.0118976
-0.00051826
0.0118965
-0.000489163
0.0118892
-0.000460893
0.0118793
-0.000433379
0.0118684
-0.000406565
0.0118572
-0.000380403
0.011846
-0.000354851
0.0118349
-0.000329874
0.0118239
-0.000305436
0.0118132
-0.000281501
0.0118027
-0.000258036
0.0117926
-0.000235004
0.0117829
-0.000212371
0.0117738
-0.0001901
0.0117652
-0.000168155
0.0117572
-0.000146501
0.01175
-0.0001251
0.0117436
-0.000103917
0.011738
-8.29161e-05
0.0117333
-6.20602e-05
0.0117294
-4.13131e-05
0.0117266
-2.06384e-05
0.0117246
0.0117236
-0.000737256
0.0108861
0.000758185
-0.000709246
0.0113086
-0.000677688
0.0115778
-0.000645035
0.0117345
-0.000612622
0.0118168
-0.000581009
0.0118543
-0.000550344
0.011867
-0.000520605
0.0118667
-0.000491718
0.0118604
-0.000463608
0.0118512
-0.000436208
0.011841
-0.000409466
0.0118305
-0.000383337
0.0118199
-0.000357783
0.0118093
-0.000332771
0.0117989
-0.000308267
0.0117887
-0.00028424
0.0117787
-0.000260657
0.011769
-0.000237484
0.0117598
-0.000214689
0.011751
-0.000192237
0.0117427
-0.000170096
0.0117351
-0.00014823
0.0117282
-0.000126605
0.011722
-0.000105188
0.0117166
-8.3943e-05
0.011712
-6.28364e-05
0.0117083
-4.18335e-05
0.0117056
-2.08994e-05
0.0117037
0.0117027
-0.000734996
0.0108657
0.000755397
-0.000707657
0.0112812
-0.00067678
0.0115469
-0.000644746
0.0117025
-0.000612865
0.0117849
-0.0005817
0.0118232
-0.00055141
0.0118367
-0.000521983
0.0118373
-0.000493352
0.0118317
-0.000465446
0.0118233
-0.000438206
0.0118138
-0.000411582
0.0118038
-0.000385531
0.0117938
-0.000360021
0.0117838
-0.000335018
0.0117739
-0.000310494
0.0117642
-0.000286418
0.0117546
-0.000262761
0.0117454
-0.000239491
0.0117365
-0.000216577
0.0117281
-0.000193989
0.0117201
-0.000171694
0.0117128
-0.00014966
0.0117061
-0.000127854
0.0117002
-0.000106245
0.011695
-8.47993e-05
0.0116906
-6.34849e-05
0.011687
-4.22687e-05
0.0116843
-2.11179e-05
0.0116825
0.0116816
-0.000731641
0.0108458
0.000751511
-0.000704981
0.0112546
-0.000674802
0.0115168
-0.000643412
0.0116711
-0.000612095
0.0117536
-0.000581415
0.0117925
-0.000551539
0.0118068
-0.000522463
0.0118082
-0.000494128
0.0118034
-0.000466469
0.0117957
-0.00043943
0.0117867
-0.000412963
0.0117774
-0.000387033
0.0117679
-0.000361607
0.0117584
-0.000336655
0.011749
-0.000312152
0.0117397
-0.000288068
0.0117306
-0.000264378
0.0117217
-0.000241052
0.0117132
-0.000218061
0.0117051
-0.000195377
0.0116974
-0.000172969
0.0116904
-0.000150807
0.011684
-0.000128861
0.0116782
-0.0001071
0.0116732
-8.54945e-05
0.011669
-6.40125e-05
0.0116655
-4.26234e-05
0.0116629
-2.12961e-05
0.0116612
0.0116603
-0.000727302
0.0108265
0.000746641
-0.000701324
0.0112286
-0.000671855
0.0114873
-0.000641128
0.0116404
-0.000610401
0.0117229
-0.000580236
0.0117623
-0.000550806
0.0117774
-0.000522116
0.0117795
-0.000494112
0.0117754
-0.000466735
0.0117683
-0.000439933
0.0117599
-0.000413663
0.0117511
-0.00038789
0.0117421
-0.000362585
0.0117331
-0.000337722
0.0117241
-0.000313277
0.0117152
-0.000289224
0.0117065
-0.000265539
0.011698
-0.000242195
0.0116898
-0.000219165
0.011682
-0.000196423
0.0116747
-0.00017394
0.0116679
-0.000151688
0.0116617
-0.00012964
0.0116562
-0.000107766
0.0116513
-8.60379e-05
0.0116472
-6.44263e-05
0.0116439
-4.29022e-05
0.0116414
-2.14364e-05
0.0116397
0.0116389
-0.000722087
0.0108077
0.000740899
-0.000696789
0.0112033
-0.000668035
0.0114585
-0.000637985
0.0116103
-0.000607868
0.0116928
-0.000578242
0.0117327
-0.000549285
0.0117484
-0.000521009
0.0117513
-0.000493367
0.0117477
-0.000466304
0.0117412
-0.000439771
0.0117334
-0.000413729
0.0117251
-0.000388147
0.0117165
-0.000362998
0.0117079
-0.000338259
0.0116994
-0.000313906
0.0116909
-0.000289919
0.0116825
-0.000266274
0.0116744
-0.000242947
0.0116665
-0.000219914
0.011659
-0.000197149
0.0116519
-0.000174626
0.0116454
-0.000152321
0.0116394
-0.000130206
0.0116341
-0.000108254
0.0116294
-8.64389e-05
0.0116254
-6.47334e-05
0.0116222
-4.31099e-05
0.0116198
-2.15412e-05
0.0116182
0.0116174
-0.000716101
0.0107894
0.000734394
-0.000691477
0.0111787
-0.000663438
0.0114305
-0.000634072
0.011581
-0.000604579
0.0116633
-0.00057551
0.0117036
-0.000547048
0.0117199
-0.00051921
0.0117234
-0.000491956
0.0117205
-0.000465233
0.0117145
-0.000438998
0.0117072
-0.000413214
0.0116993
-0.000387852
0.0116912
-0.000362889
0.011683
-0.000338304
0.0116748
-0.000314076
0.0116666
-0.000290186
0.0116586
-0.000266614
0.0116508
-0.000243336
0.0116432
-0.000220331
0.011636
-0.000197576
0.0116292
-0.000175048
0.0116229
-0.000152721
0.0116171
-0.000130572
0.0116119
-0.000108576
0.0116074
-8.6707e-05
0.0116036
-6.49407e-05
0.0116005
-4.32511e-05
0.0115981
-2.16126e-05
0.0115965
0.0115957
-0.000709441
0.0107716
0.000727225
-0.000685481
0.0111547
-0.000658152
0.0114032
-0.000629473
0.0115523
-0.000600612
0.0116344
-0.000572114
0.0116751
-0.000544163
0.011692
-0.000516784
0.0116961
-0.000489938
0.0116936
-0.000463579
0.0116881
-0.000437666
0.0116813
-0.000412165
0.0116738
-0.00038705
0.0116661
-0.0003623
0.0116582
-0.000337896
0.0116504
-0.000313822
0.0116426
-0.000290058
0.0116349
-0.000266587
0.0116273
-0.000243388
0.01162
-0.000220442
0.011613
-0.000197728
0.0116065
-0.000175223
0.0116004
-0.000152906
0.0115948
-0.000130753
0.0115898
-0.000108743
0.0115854
-8.68515e-05
0.0115817
-6.50552e-05
0.0115787
-4.33304e-05
0.0115764
-2.16532e-05
0.0115749
0.0115741
-0.000702199
0.0107543
0.000719489
-0.00067889
0.0111314
-0.000652263
0.0113765
-0.000624269
0.0115243
-0.000596045
0.0116062
-0.000568125
0.0116472
-0.000540699
0.0116646
-0.000513792
0.0116691
-0.000487372
0.0116672
-0.000461396
0.0116622
-0.000435825
0.0116557
-0.000410629