/*--------------------------------*- C++ -*----------------------------------*\
  =========                 |
  \\      /  F ield         | OpenFOAM: The Open Source CFD Toolbox
   \\    /   O peration     | Website:  https://openfoam.org
    \\  /    A nd           | Version:  7
     \\/     M anipulation  |
\*---------------------------------------------------------------------------*/
FoamFile
{
    version     2.0;
    format      ascii;
    class       volVectorField;
    location    "54.999";
    object      U;
}
// * * * * * * * * * * * * * * * * * * * * * * * * * * * * * * * * * * * * * //

dimensions      [0 1 -1 0 0 0 0];

internalField   nonuniform List<vector> 
3700
(
(1.24843 -0.0479744 0)
(1.28674 -0.0510824 0)
(1.2989 -0.0524687 0)
(1.29936 -0.0526691 0)
(1.29531 -0.0521262 0)
(1.28964 -0.0511727 0)
(1.28346 -0.04997 0)
(1.27728 -0.0485776 0)
(1.27133 -0.0470305 0)
(1.2657 -0.0453564 0)
(1.26042 -0.0435748 0)
(1.25544 -0.0416996 0)
(1.25075 -0.0397425 0)
(1.24632 -0.0377139 0)
(1.24214 -0.0356238 0)
(1.23821 -0.0334814 0)
(1.23455 -0.0312951 0)
(1.23113 -0.0290725 0)
(1.22798 -0.02682 0)
(1.22509 -0.0245433 0)
(1.22246 -0.0222472 0)
(1.22009 -0.0199355 0)
(1.21799 -0.0176117 0)
(1.21615 -0.0152784 0)
(1.21457 -0.0129379 0)
(1.21325 -0.0105919 0)
(1.2122 -0.00824221 0)
(1.21141 -0.00588915 0)
(1.21089 -0.00353255 0)
(1.21063 -0.00118081 0)
(1.24177 -0.0403351 0)
(1.28332 -0.0435303 0)
(1.29774 -0.0452913 0)
(1.29944 -0.0458261 0)
(1.29603 -0.0455873 0)
(1.29073 -0.0449366 0)
(1.28481 -0.0440404 0)
(1.27882 -0.042956 0)
(1.27302 -0.0417156 0)
(1.26753 -0.0403449 0)
(1.26236 -0.0388625 0)
(1.25748 -0.0372817 0)
(1.25288 -0.0356136 0)
(1.24852 -0.033868 0)
(1.24441 -0.0320545 0)
(1.24054 -0.0301819 0)
(1.23692 -0.0282587 0)
(1.23355 -0.0262924 0)
(1.23043 -0.0242895 0)
(1.22757 -0.0222561 0)
(1.22496 -0.0201971 0)
(1.22261 -0.018117 0)
(1.22052 -0.0160196 0)
(1.21869 -0.0139081 0)
(1.21712 -0.0117853 0)
(1.21581 -0.0096536 0)
(1.21476 -0.00751527 0)
(1.21398 -0.00537146 0)
(1.21346 -0.00322292 0)
(1.2132 -0.00107675 0)
(1.23518 -0.0330665 0)
(1.27961 -0.0362899 0)
(1.29618 -0.0383984 0)
(1.2991 -0.0392502 0)
(1.29633 -0.0392989 0)
(1.29141 -0.0389315 0)
(1.28576 -0.03832 0)
(1.27997 -0.0375219 0)
(1.27435 -0.0365677 0)
(1.26899 -0.0354818 0)
(1.26394 -0.0342814 0)
(1.25918 -0.0329793 0)
(1.25467 -0.0315857 0)
(1.2504 -0.03011 0)
(1.24636 -0.0285612 0)
(1.24256 -0.0269479 0)
(1.239 -0.0252783 0)
(1.23567 -0.0235598 0)
(1.2326 -0.0217992 0)
(1.22977 -0.0200025 0)
(1.22719 -0.0181751 0)
(1.22486 -0.0163217 0)
(1.22279 -0.0144464 0)
(1.22098 -0.0125531 0)
(1.21943 -0.0106449 0)
(1.21813 -0.00872476 0)
(1.21709 -0.00679539 0)
(1.21631 -0.00485865 0)
(1.21579 -0.00291608 0)
(1.21554 -0.000973893 0)
(1.22873 -0.0261706 0)
(1.27572 -0.0293515 0)
(1.2943 -0.0317804 0)
(1.29842 -0.032931 0)
(1.29631 -0.0332512 0)
(1.29177 -0.0331509 0)
(1.28637 -0.0328072 0)
(1.28079 -0.0322777 0)
(1.27534 -0.0315922 0)
(1.27013 -0.0307738 0)
(1.26521 -0.0298393 0)
(1.26055 -0.0288007 0)
(1.25614 -0.0276676 0)
(1.25197 -0.0264489 0)
(1.24801 -0.025153 0)
(1.24428 -0.0237883 0)
(1.24078 -0.0223626 0)
(1.23752 -0.0208833 0)
(1.23449 -0.0193571 0)
(1.2317 -0.0177902 0)
(1.22916 -0.0161882 0)
(1.22686 -0.0145559 0)
(1.22482 -0.012898 0)
(1.22303 -0.0112185 0)
(1.22149 -0.00952105 0)
(1.22021 -0.00780893 0)
(1.21918 -0.00608535 0)
(1.21841 -0.00435272 0)
(1.21789 -0.00261324 0)
(1.21764 -0.000872564 0)
(1.22247 -0.0195965 0)
(1.27168 -0.022701 0)
(1.29216 -0.0254348 0)
(1.29746 -0.0268597 0)
(1.296 -0.027432 0)
(1.29184 -0.0275843 0)
(1.2867 -0.0274948 0)
(1.28132 -0.0272198 0)
(1.27603 -0.026788 0)
(1.27097 -0.0262222 0)
(1.26618 -0.0255389 0)
(1.26164 -0.0247498 0)
(1.25733 -0.0238642 0)
(1.25325 -0.0228902 0)
(1.24939 -0.0218359 0)
(1.24574 -0.0207092 0)
(1.2423 -0.0195178 0)
(1.2391 -0.018269 0)
(1.23612 -0.0169693 0)
(1.23338 -0.015625 0)
(1.23088 -0.0142418 0)
(1.22862 -0.0128248 0)
(1.2266 -0.0113789 0)
(1.22483 -0.00990832 0)
(1.22332 -0.00841711 0)
(1.22205 -0.00690894 0)
(1.22103 -0.00538735 0)
(1.22027 -0.00385524 0)
(1.21976 -0.00231538 0)
(1.21951 -0.000773026 0)
(1.21641 -0.0133971 0)
(1.26754 -0.0163476 0)
(1.28979 -0.0193774 0)
(1.29624 -0.0210366 0)
(1.29542 -0.0218349 0)
(1.29164 -0.0222256 0)
(1.28676 -0.0223782 0)
(1.28158 -0.0223443 0)
(1.27646 -0.0221525 0)
(1.27154 -0.0218257 0)
(1.26687 -0.0213806 0)
(1.26245 -0.0208284 0)
(1.25826 -0.020178 0)
(1.25427 -0.0194372 0)
(1.25049 -0.0186136 0)
(1.24692 -0.017715 0)
(1.24356 -0.0167485 0)
(1.24042 -0.0157214 0)
(1.2375 -0.0146402 0)
(1.23481 -0.0135112 0)
(1.23235 -0.0123401 0)
(1.23013 -0.0111323 0)
(1.22815 -0.00989259 0)
(1.22641 -0.00862571 0)
(1.22491 -0.00733589 0)
(1.22366 -0.00602711 0)
(1.22266 -0.00470322 0)
(1.22191 -0.00336753 0)
(1.22141 -0.00202328 0)
(1.22116 -0.000675497 0)
(1.21056 -0.00740622 0)
(1.26333 -0.010292 0)
(1.28723 -0.0136167 0)
(1.29476 -0.0154501 0)
(1.29458 -0.0164515 0)
(1.29117 -0.0170722 0)
(1.28656 -0.0174553 0)
(1.28158 -0.0176491 0)
(1.27662 -0.0176838 0)
(1.27185 -0.0175835 0)
(1.26731 -0.0173644 0)
(1.26301 -0.0170374 0)
(1.25892 -0.0166109 0)
(1.25504 -0.0160924 0)
(1.25135 -0.0154893 0)
(1.24786 -0.0148089 0)
(1.24458 -0.0140583 0)
(1.2415 -0.0132444 0)
(1.23864 -0.0123738 0)
(1.236 -0.0114526 0)
(1.23359 -0.0104868 0)
(1.23141 -0.0094816 0)
(1.22946 -0.00844223 0)
(1.22775 -0.00737347 0)
(1.22628 -0.00627979 0)
(1.22505 -0.00516544 0)
(1.22407 -0.00403452 0)
(1.22333 -0.00289071 0)
(1.22284 -0.00173763 0)
(1.22259 -0.000580178 0)
(1.20491 -0.00194611 0)
(1.2591 -0.0045567 0)
(1.2845 -0.00815142 0)
(1.29303 -0.0100859 0)
(1.29347 -0.0112828 0)
(1.29046 -0.0121258 0)
(1.2861 -0.0127257 0)
(1.28132 -0.0131326 0)
(1.27653 -0.013381 0)
(1.2719 -0.0134952 0)
(1.2675 -0.0134907 0)
(1.26331 -0.0133778 0)
(1.25933 -0.0131645 0)
(1.25555 -0.0128581 0)
(1.25196 -0.0124655 0)
(1.24856 -0.0119939 0)
(1.24535 -0.0114502 0)
(1.24234 -0.0108412 0)
(1.23955 -0.0101732 0)
(1.23696 -0.00945247 0)
(1.2346 -0.00868482 0)
(1.23246 -0.00787575 0)
(1.23055 -0.00703049 0)
(1.22887 -0.00615398 0)
(1.22743 -0.00525088 0)
(1.22622 -0.00432567 0)
(1.22526 -0.00338264 0)
(1.22453 -0.00242578 0)
(1.22405 -0.00145904 0)
(1.22381 -0.000487251 0)
(1.19947 0.00332755 0)
(1.25497 0.000806216 0)
(1.28163 -0.00294754 0)
(1.29108 -0.00492116 0)
(1.29214 -0.00633153 0)
(1.28951 -0.00738565 0)
(1.28541 -0.00818607 0)
(1.28083 -0.0087926 0)
(1.27621 -0.00924314 0)
(1.27172 -0.00956097 0)
(1.26744 -0.00976031 0)
(1.26338 -0.00985084 0)
(1.25951 -0.00984037 0)
(1.25583 -0.00973595 0)
(1.25233 -0.0095444 0)
(1.24902 -0.0092725 0)
(1.24589 -0.00892698 0)
(1.24296 -0.00851442 0)
(1.24023 -0.00804119 0)
(1.2377 -0.0075134 0)
(1.23539 -0.00693688 0)
(1.2333 -0.0063172 0)
(1.23143 -0.00565966 0)
(1.22978 -0.0049693 0)
(1.22837 -0.00425097 0)
(1.22718 -0.0035093 0)
(1.22624 -0.00274877 0)
(1.22552 -0.00197361 0)
(1.22505 -0.00118804 0)
(1.22481 -0.000396883 0)
(1.19437 0.00835811 0)
(1.25092 0.00584926 0)
(1.27858 0.00209603 0)
(1.28895 2.47485e-05 0)
(1.2906 -0.00160146 0)
(1.28835 -0.00284588 0)
(1.2845 -0.00383135 0)
(1.28011 -0.00462659 0)
(1.27565 -0.00526923 0)
(1.27131 -0.00578045 0)
(1.26717 -0.00617326 0)
(1.26322 -0.00645704 0)
(1.25946 -0.00663949 0)
(1.25589 -0.00672751 0)
(1.25249 -0.00672768 0)
(1.24926 -0.00664655 0)
(1.24621 -0.00649062 0)
(1.24335 -0.00626636 0)
(1.24069 -0.00598002 0)
(1.23822 -0.00563768 0)
(1.23597 -0.00524515 0)
(1.23392 -0.00480801 0)
(1.23209 -0.00433164 0)
(1.23048 -0.00382118 0)
(1.2291 -0.00328158 0)
(1.22794 -0.00271762 0)
(1.22701 -0.00213393 0)
(1.22631 -0.00153494 0)
(1.22585 -0.000925087 0)
(1.22562 -0.000309213 0)
(1.1896 0.0131242 0)
(1.24687 0.0106582 0)
(1.27543 0.00695716 0)
(1.28665 0.00473072 0)
(1.28887 0.0029262 0)
(1.28697 0.00150608 0)
(1.28338 0.000344065 0)
(1.27918 -0.000632289 0)
(1.27488 -0.00145819 0)
(1.27069 -0.00215295 0)
(1.26667 -0.0027293 0)
(1.26285 -0.00319661 0)
(1.2592 -0.00356253 0)
(1.25573 -0.00383374 0)
(1.25243 -0.00401663 0)
(1.24929 -0.00411754 0)
(1.24633 -0.00414281 0)
(1.24354 -0.00409874 0)
(1.24094 -0.0039915 0)
(1.23854 -0.0038271 0)
(1.23634 -0.00361136 0)
(1.23434 -0.00334985 0)
(1.23255 -0.003048 0)
(1.23098 -0.00271102 0)
(1.22963 -0.00234394 0)
(1.22849 -0.00195166 0)
(1.22759 -0.00153894 0)
(1.2269 -0.00111036 0)
(1.22645 -0.000670549 0)
(1.22622 -0.000224359 0)
(1.18509 0.0176588 0)
(1.24282 0.0152522 0)
(1.2722 0.0116021 0)
(1.28419 0.00921441 0)
(1.28695 0.0072575 0)
(1.2854 0.00567362 0)
(1.28205 0.00434171 0)
(1.27805 0.00319206 0)
(1.27391 0.00219188 0)
(1.26986 0.00132281 0)
(1.26597 0.00057217 0)
(1.26227 -6.95061e-05 0)
(1.25874 -0.000609771 0)
(1.25537 -0.00105523 0)
(1.25216 -0.0014121 0)
(1.24912 -0.00168653 0)
(1.24623 -0.00188473 0)
(1.24353 -0.00201285 0)
(1.241 -0.00207698 0)
(1.23866 -0.00208307 0)
(1.23651 -0.0020369 0)
(1.23456 -0.00194406 0)
(1.23282 -0.00181 0)
(1.23129 -0.00163996 0)
(1.22996 -0.00143907 0)
(1.22886 -0.00121229 0)
(1.22797 -0.000964489 0)
(1.2273 -0.000700381 0)
(1.22686 -0.000424726 0)
(1.22664 -0.000142415 0)
(1.18081 0.0219779 -2.64371e-11)
(1.23879 0.0196289 -2.5829e-11)
(1.2689 0.0160212 0)
(1.28157 0.0134903 -2.46004e-11)
(1.28484 0.0113947 -2.40013e-11)
(1.28364 0.00965604 -6.75133e-28)
(1.28053 0.00816188 2.28671e-11)
(1.27673 0.00684753 2.23362e-11)
(1.27275 0.00568215 0)
(1.26884 0.00464782 0)
(1.26508 0.00373182 0)
(1.2615 0.00292463 0)
(1.25808 0.00221877 0)
(1.25482 0.00160772 0)
(1.25171 0.0010854 0)
(1.24875 0.00064578 0)
(1.24595 0.00028275 0)
(1.24332 -9.70617e-06 0)
(1.24086 -0.000237518 0)
(1.23858 -0.000406629 0)
(1.23649 -0.000522826 1.76373e-11)
(1.2346 -0.000591672 3.48787e-11)
(1.2329 -0.000618597 1.72639e-11)
(1.2314 -0.0006089 0)
(1.23012 -0.000567746 -1.69798e-11)
(1.22904 -0.000500171 -1.68709e-11)
(1.22817 -0.000411108 0)
(1.22752 -0.000305381 -1.67187e-11)
(1.22709 -0.00018786 -1.66753e-11)
(1.22687 -6.34614e-05 -4.80474e-28)
(1.17674 0.0260834 2.64377e-11)
(1.23482 0.0237884 2.5829e-11)
(1.26553 0.0202184 0)
(1.27882 0.0175639 2.46004e-11)
(1.28256 0.0153389 2.40013e-11)
(1.2817 0.0134532 6.75133e-28)
(1.27884 0.0118051 -2.28671e-11)
(1.27522 0.010335 -2.23362e-11)
(1.2714 0.00901347 0)
(1.26764 0.00782278 0)
(1.26401 0.00675015 0)
(1.26054 0.0057861 0)
(1.25724 0.00492319 0)
(1.25408 0.00415501 0)
(1.25107 0.00347557 0)
(1.2482 0.00287892 0)
(1.24549 0.00235908 0)
(1.24293 0.00191013 0)
(1.24055 0.0015262 0)
(1.23833 0.00120142 0)
(1.2363 0.000930047 -1.76373e-11)
(1.23445 0.000706531 -3.48787e-11)
(1.2328 0.000525443 -1.72639e-11)
(1.23134 0.000381467 0)
(1.23009 0.000269402 1.69798e-11)
(1.22904 0.000184168 1.68709e-11)
(1.22819 0.000120775 0)
(1.22756 7.43236e-05 1.67187e-11)
(1.22714 3.98621e-05 1.66753e-11)
(1.22693 1.24451e-05 4.80474e-28)
(1.17286 0.0299781 0)
(1.2309 0.0277342 0)
(1.26209 0.0241992 0)
(1.27593 0.0214371 0)
(1.28012 0.0190906 0)
(1.27959 0.0170658 0)
(1.27697 0.0152723 0)
(1.27354 0.0136554 0)
(1.26988 0.0121867 0)
(1.26626 0.0108483 0)
(1.26276 0.00962765 0)
(1.25941 0.00851524 0)
(1.25622 0.0075037 0)
(1.25316 0.00658671 0)
(1.25025 0.00575832 0)
(1.24748 0.0050127 0)
(1.24485 0.00434394 0)
(1.24237 0.0037462 0)
(1.24005 0.00321367 0)
(1.23791 0.00274056 0)
(1.23593 0.00232117 0)
(1.23414 0.00194999 0)
(1.23253 0.00162159 0)
(1.23111 0.00133064 0)
(1.22989 0.00107193 0)
(1.22887 0.000840341 0)
(1.22805 0.000630853 0)
(1.22743 0.000438508 0)
(1.22702 0.000258293 0)
(1.22681 8.52523e-05 0)
(1.16916 0.0336656 0)
(1.22703 0.0314703 0)
(1.25859 0.0279675 0)
(1.27292 0.0251108 0)
(1.27754 0.0226506 0)
(1.27732 0.020495 0)
(1.27494 0.0185649 0)
(1.2717 0.01681 0)
(1.2682 0.0152027 0)
(1.26472 0.0137252 0)
(1.26135 0.0123649 0)
(1.25812 0.0111125 0)
(1.25504 0.00996065 0)
(1.25209 0.00890303 0)
(1.24927 0.00793377 0)
(1.24659 0.0070471 0)
(1.24404 0.0062372 0)
(1.24164 0.00549828 0)
(1.2394 0.00482461 0)
(1.23731 0.00421046 0)
(1.2354 0.00365021 0)
(1.23366 0.00313835 0)
(1.23209 0.00266948 0)
(1.23072 0.00223828 0)
(1.22953 0.00183952 0)
(1.22853 0.00146808 0)
(1.22774 0.0011189 0)
(1.22713 0.000787007 0)
(1.22673 0.000467335 0)
(1.22653 0.00015493 0)
(1.16563 0.0371491 0)
(1.22321 0.0349993 0)
(1.25505 0.0315256 0)
(1.26981 0.0285855 0)
(1.27482 0.0260195 0)
(1.27491 0.023742 0)
(1.27276 0.0216841 0)
(1.2697 0.0197998 0)
(1.26637 0.0180623 0)
(1.26302 0.0164541 0)
(1.25978 0.0149625 0)
(1.25667 0.0135785 0)
(1.2537 0.0122945 0)
(1.25085 0.0111044 0)
(1.24813 0.0100022 0)
(1.24554 0.00898229 0)
(1.24308 0.00803892 0)
(1.24076 0.00716637 0)
(1.23859 0.00635896 0)
(1.23657 0.00561103 0)
(1.23471 0.00491701 0)
(1.23302 0.00427144 0)
(1.2315 0.00366893 0)
(1.23017 0.00310418 0)
(1.22901 0.00257198 0)
(1.22805 0.0020672 0)
(1.22727 0.00158479 0)
(1.22669 0.00111972 0)
(1.2263 0.000666924 0)
(1.2261 0.000221458 0)
(1.16224 0.0404308 0)
(1.21943 0.0383225 0)
(1.25146 0.0348751 0)
(1.2666 0.0318617 0)
(1.27198 0.0291983 0)
(1.27236 0.0268076 0)
(1.27043 0.0246307 0)
(1.26756 0.0226257 0)
(1.26439 0.0207666 0)
(1.26118 0.0190359 0)
(1.25807 0.0174214 0)
(1.25508 0.0159139 0)
(1.25221 0.0145059 0)
(1.24947 0.0131912 0)
(1.24685 0.011964 0)
(1.24435 0.0108186 0)
(1.24197 0.00974937 0)
(1.23973 0.00875065 0)
(1.23762 0.00781683 0)
(1.23567 0.00694231 0)
(1.23387 0.00612158 0)
(1.23223 0.00534923 0)
(1.23076 0.00461989 0)
(1.22947 0.0039283 0)
(1.22835 0.00326926 0)
(1.22741 0.00263766 0)
(1.22666 0.00202844 0)
(1.22609 0.00143659 0)
(1.22571 0.00085703 0)
(1.22552 0.000284827 0)
(1.15897 0.0435123 0)
(1.2157 0.0414407 0)
(1.24784 0.0380173 0)
(1.26331 0.0349401 0)
(1.26902 0.0321876 0)
(1.26968 0.0296928 0)
(1.26798 0.0274058 0)
(1.26529 0.0252887 0)
(1.26227 0.0233163 0)
(1.25921 0.0214717 0)
(1.25622 0.0197425 0)
(1.25335 0.0181196 0)
(1.25059 0.0165956 0)
(1.24795 0.0151643 0)
(1.24543 0.0138198 0)
(1.24302 0.0125566 0)
(1.24072 0.011369 0)
(1.23856 0.0102515 0)
(1.23652 0.00919852 0)
(1.23463 0.00820454 0)
(1.23289 0.0072641 0)
(1.23131 0.00637184 0)
(1.22988 0.00552245 0)
(1.22863 0.00471068 0)
(1.22754 0.00393139 0)
(1.22663 0.00317946 0)
(1.2259 0.00244988 0)
(1.22535 0.00173763 0)
(1.22498 0.00103766 0)
(1.2248 0.000345037 0)
(1.15582 0.0463942 0)
(1.21201 0.0443542 0)
(1.24419 0.0409535 0)
(1.25993 0.0378212 0)
(1.26596 0.0349881 0)
(1.26689 0.0323983 0)
(1.2654 0.0300102 0)
(1.2629 0.0277897 0)
(1.26003 0.0257127 0)
(1.25711 0.0237624 0)
(1.25424 0.0219267 0)
(1.25149 0.0201966 0)
(1.24884 0.0185646 0)
(1.24631 0.0170245 0)
(1.24388 0.0155704 0)
(1.24155 0.0141969 0)
(1.23934 0.0128984 0)
(1.23725 0.0116695 0)
(1.23529 0.0105045 0)
(1.23346 0.0093981 0)
(1.23178 0.0083449 0)
(1.23025 0.00733956 0)
(1.22887 0.00637682 0)
(1.22765 0.00545151 0)
(1.2266 0.00455849 0)
(1.22572 0.00369272 0)
(1.22501 0.00284918 0)
(1.22448 0.0020229 0)
(1.22412 0.00120883 0)
(1.22394 0.000402099 0)
(1.15277 0.0490771 0)
(1.20836 0.0470636 0)
(1.24052 0.0436847 0)
(1.25649 0.0405057 0)
(1.2628 0.0376007 0)
(1.26399 0.034925 0)
(1.26272 0.032445 0)
(1.26039 0.0301299 0)
(1.25768 0.0279568 0)
(1.25489 0.0259092 0)
(1.25215 0.0239753 0)
(1.24951 0.022146 0)
(1.24697 0.0204139 0)
(1.24454 0.0187727 0)
(1.2422 0.0172168 0)
(1.23997 0.0157405 0)
(1.23784 0.0143384 0)
(1.23583 0.0130052 0)
(1.23393 0.0117354 0)
(1.23217 0.0105235 0)
(1.23054 0.00936443 0)
(1.22906 0.00825277 0)
(1.22773 0.00718335 0)
(1.22655 0.00615106 0)
(1.22553 0.00515081 0)
(1.22468 0.00417761 0)
(1.224 0.00322648 0)
(1.22348 0.00229247 0)
(1.22313 0.0013706 0)
(1.22296 0.00045603 0)
(1.14981 0.0515611 0)
(1.20475 0.0495692 0)
(1.23682 0.0462122 0)
(1.25299 0.0429946 0)
(1.25956 0.0400265 0)
(1.26099 0.0372742 0)
(1.25993 0.0347114 0)
(1.25778 0.0323106 0)
(1.25522 0.0300499 0)
(1.25256 0.0279135 0)
(1.24995 0.0258896 0)
(1.24743 0.0239691 0)
(1.245 0.0221448 0)
(1.24266 0.0204103 0)
(1.24042 0.0187599 0)
(1.23827 0.0171883 0)
(1.23622 0.01569 0)
(1.23428 0.0142596 0)
(1.23246 0.0128919 0)
(1.23076 0.0115816 0)
(1.22919 0.0103233 0)
(1.22776 0.00911199 0)
(1.22647 0.00794248 0)
(1.22533 0.0068097 0)
(1.22435 0.00570865 0)
(1.22352 0.00463437 0)
(1.22286 0.00358196 0)
(1.22236 0.0025465 0)
(1.22203 0.00152306 0)
(1.22186 0.000506858 0)
(1.14693 0.0538466 0)
(1.20117 0.0518718 0)
(1.23311 0.0485374 0)
(1.24943 0.0452892 0)
(1.25625 0.0422669 0)
(1.25791 0.0394474 0)
(1.25705 0.036811 0)
(1.25507 0.0343334 0)
(1.25266 0.0319939 0)
(1.25014 0.029777 0)
(1.24765 0.0276712 0)
(1.24524 0.0256676 0)
(1.24292 0.0237588 0)
(1.24068 0.0219385 0)
(1.23853 0.0202013 0)
(1.23647 0.0185416 0)
(1.2345 0.0169541 0)
(1.23263 0.0154337 0)
(1.23088 0.013975 0)
(1.22924 0.0125729 0)
(1.22773 0.0112223 0)
(1.22635 0.00991788 0)
(1.2251 0.00865477 0)
(1.224 0.00742792 0)
(1.22305 0.00623241 0)
(1.22226 0.00506334 0)
(1.22161 0.00391586 0)
(1.22113 0.00278514 0)
(1.22081 0.0016663 0)
(1.22065 0.000554615 0)
(1.14411 0.0559341 0)
(1.19763 0.0539725 0)
(1.2294 0.0506623 0)
(1.24584 0.0473914 0)
(1.25287 0.0443238 0)
(1.25476 0.0414465 0)
(1.25409 0.0387457 0)
(1.25228 0.0362002 0)
(1.25002 0.0337905 0)
(1.24763 0.0315016 0)
(1.24527 0.029322 0)
(1.24296 0.0272431 0)
(1.24074 0.0252575 0)
(1.2386 0.0233591 0)
(1.23654 0.0215423 0)
(1.23457 0.0198017 0)
(1.23268 0.0181322 0)
(1.23089 0.0165286 0)
(1.2292 0.0149858 0)
(1.22762 0.0134987 0)
(1.22616 0.0120621 0)
(1.22483 0.0106712 0)
(1.22363 0.00932087 0)
(1.22257 0.00800627 0)
(1.22165 0.00672255 0)
(1.22088 0.00546488 0)
(1.22026 0.00422849 0)
(1.2198 0.00300862 0)
(1.21948 0.00180045 0)
(1.21933 0.000599344 0)
(1.14135 0.0578246 0)
(1.19412 0.0558732 0)
(1.22568 0.0525892 0)
(1.24221 0.0493034 0)
(1.24944 0.0461996 0)
(1.25154 0.0432738 0)
(1.25106 0.0405179 0)
(1.24942 0.0379134 0)
(1.2473 0.0354421 0)
(1.24505 0.0330893 0)
(1.2428 0.0308441 0)
(1.24061 0.0286977 0)
(1.23849 0.0266429 0)
(1.23644 0.0246737 0)
(1.23447 0.0227846 0)
(1.23258 0.0209703 0)
(1.23077 0.0192257 0)
(1.22905 0.0175458 0)
(1.22742 0.0159255 0)
(1.2259 0.0143599 0)
(1.2245 0.0128439 0)
(1.22322 0.0113728 0)
(1.22206 0.00994153 0)
(1.22104 0.00854541 0)
(1.22016 0.00717962 0)
(1.21941 0.00583944 0)
(1.21881 0.00452018 0)
(1.21836 0.00321716 0)
(1.21806 0.00192565 0)
(1.21791 0.000641091 0)
(1.13865 0.0595198 0)
(1.19065 0.0575764 0)
(1.22197 0.0543213 0)
(1.23856 0.0510283 0)
(1.24597 0.0478971 0)
(1.24827 0.0449322 0)
(1.24797 0.0421303 0)
(1.24649 0.0394757 0)
(1.24452 0.0369512 0)
(1.24239 0.0345429 0)
(1.24026 0.0322399 0)
(1.23817 0.0300337 0)
(1.23615 0.0279173 0)
(1.2342 0.0258845 0)
(1.23232 0.0239302 0)
(1.23051 0.022049 0)
(1.22877 0.0202361 0)
(1.22712 0.0184866 0)
(1.22556 0.0167954 0)
(1.2241 0.0151577 0)
(1.22275 0.0135687 0)
(1.22152 0.0120236 0)
(1.22041 0.0105176 0)
(1.21942 0.00904605 0)
(1.21857 0.00760422 0)
(1.21785 0.00618751 0)
(1.21727 0.00479131 0)
(1.21684 0.00341105 0)
(1.21654 0.00204207 0)
(1.2164 0.000679912 0)
(1.13601 0.0610223 0)
(1.18722 0.0590853 0)
(1.21827 0.0558622 0)
(1.23489 0.0525697 0)
(1.24246 0.04942 0)
(1.24495 0.0464251 0)
(1.24484 0.0435863 0)
(1.24351 0.0408902 0)
(1.24167 0.038321 0)
(1.23967 0.0358651 0)
(1.23765 0.0335121 0)
(1.23567 0.0312537 0)
(1.23375 0.0290828 0)
(1.23189 0.0269938 0)
(1.2301 0.0249811 0)
(1.22836 0.02304 0)
(1.2267 0.0211654 0)
(1.22512 0.0193527 0)
(1.22363 0.017597 0)
(1.22222 0.0158936 0)
(1.22093 0.0142377 0)
(1.21974 0.0126248 0)
(1.21867 0.0110501 0)
(1.21772 0.009509 0)
(1.21689 0.00799704 0)
(1.2162 0.00650964 0)
(1.21565 0.00504232 0)
(1.21523 0.00359057 0)
(1.21494 0.00214989 0)
(1.2148 0.000715867 0)
(1.13341 0.0623354 0)
(1.18382 0.0604042 0)
(1.21459 0.0572166 0)
(1.23122 0.0539321 0)
(1.23894 0.0507723 0)
(1.2416 0.0477565 0)
(1.24166 0.0448895 0)
(1.24048 0.0421605 0)
(1.23878 0.0395546 0)
(1.2369 0.0370591 0)
(1.235 0.0346638 0)
(1.23312 0.0323604 0)
(1.23129 0.0301424 0)
(1.22952 0.0280039 0)
(1.22781 0.0259397 0)
(1.22616 0.0239452 0)
(1.22457 0.0220155 0)
(1.22305 0.020146 0)
(1.22162 0.018332 0)
(1.22027 0.016569 0)
(1.21903 0.0148523 0)
(1.21788 0.0131774 0)
(1.21685 0.0115399 0)
(1.21594 0.00993516 0)
(1.21515 0.00835882 0)
(1.21448 0.00680644 0)
(1.21394 0.00527366 0)
(1.21354 0.00375608 0)
(1.21327 0.00224929 0)
(1.21313 0.000749022 0)
(1.13085 0.0634636 0)
(1.18048 0.0615382 0)
(1.21093 0.0583898 0)
(1.22756 0.0551204 0)
(1.2354 0.051959 0)
(1.23823 0.0489308 0)
(1.23845 0.0460442 0)
(1.23742 0.0432906 0)
(1.23585 0.0406561 0)
(1.23409 0.0381285 0)
(1.23229 0.0356982 0)
(1.23052 0.0333571 0)
(1.22878 0.0310987 0)
(1.2271 0.0289176 0)
(1.22547 0.0268085 0)
(1.22389 0.024767 0)
(1.22237 0.0227884 0)
(1.22092 0.0208683 0)
(1.21955 0.0190021 0)
(1.21826 0.0171855 0)
(1.21706 0.0154138 0)
(1.21596 0.0136829 0)
(1.21497 0.0119882 0)
(1.21409 0.0103255 0)
(1.21333 0.00869035 0)
(1.21268 0.00707856 0)
(1.21217 0.00548584 0)
(1.21178 0.00390792 0)
(1.21151 0.00234051 0)
(1.21138 0.000779449 0)
(1.12834 0.0644122 0)
(1.17717 0.0624933 0)
(1.20731 0.0593878 0)
(1.22391 0.0561406 0)
(1.23186 0.0529855 0)
(1.23485 0.0499533 0)
(1.23522 0.0470553 0)
(1.23434 0.0442849 0)
(1.2329 0.0416294 0)
(1.23125 0.0390773 0)
(1.22955 0.036619 0)
(1.22787 0.0342471 0)
(1.22623 0.0319551 0)
(1.22463 0.0297378 0)
(1.22308 0.0275902 0)
(1.22157 0.025508 0)
(1.22012 0.0234866 0)
(1.21873 0.0215218 0)
(1.21742 0.0196093 0)
(1.21618 0.0177448 0)
(1.21503 0.0159239 0)
(1.21398 0.0141425 0)
(1.21302 0.0123962 0)
(1.21218 0.010681 0)
(1.21144 0.00899251 0)
(1.21082 0.0073267 0)
(1.21033 0.00567941 0)
(1.20995 0.00404649 0)
(1.2097 0.00242377 0)
(1.20957 0.000807223 0)
(1.12588 0.0651875 0)
(1.17392 0.0632763 0)
(1.20372 0.0602176 0)
(1.22028 0.056999 0)
(1.22833 0.0538579 0)
(1.23146 0.0508295 0)
(1.23198 0.047928 0)
(1.23123 0.0451484 0)
(1.22991 0.0424792 0)
(1.22838 0.0399095 0)
(1.22679 0.0374302 0)
(1.2252 0.0350341 0)
(1.22364 0.032715 0)
(1.22212 0.0304677 0)
(1.22064 0.0282877 0)
(1.21921 0.0261707 0)
(1.21782 0.0241124 0)
(1.2165 0.0221088 0)
(1.21524 0.0201556 0)
(1.21405 0.0182487 0)
(1.21295 0.0163841 0)
(1.21194 0.0145576 0)
(1.21102 0.0127652 0)
(1.21021 0.0110027 0)
(1.2095 0.0092662 0)
(1.2089 0.0075516 0)
(1.20842 0.00585493 0)
(1.20806 0.00417218 0)
(1.20782 0.00249932 0)
(1.2077 0.000832427 0)
(1.12347 0.0657967 0)
(1.17072 0.063895 0)
(1.20017 0.0608866 0)
(1.21668 0.0577029 0)
(1.22482 0.0545827 0)
(1.22808 0.0515656 0)
(1.22874 0.0486679 0)
(1.22812 0.0458863 0)
(1.22692 0.0432104 0)
(1.22549 0.0406298 0)
(1.22399 0.038136 0)
(1.2225 0.0357219 0)
(1.22102 0.0333818 0)
(1.21958 0.0311106 0)
(1.21817 0.0289041 0)
(1.21681 0.026758 0)
(1.21549 0.0246685 0)
(1.21422 0.0226315 0)
(1.21301 0.0206431 0)
(1.21188 0.0186993 0)
(1.21082 0.0167962 0)
(1.20985 0.0149299 0)
(1.20897 0.0130964 0)
(1.20819 0.0112919 0)
(1.20751 0.00951237 0)
(1.20693 0.00775404 0)
(1.20647 0.00601302 0)
(1.20612 0.00428544 0)
(1.20589 0.00256741 0)
(1.20577 0.000855146 0)
(1.1211 0.0662479 0)
(1.16757 0.0643576 0)
(1.19668 0.0614031 0)
(1.21311 0.0582597 0)
(1.22132 0.0551672 0)
(1.22471 0.0521682 0)
(1.2255 0.0492811 0)
(1.22501 0.0465042 0)
(1.22392 0.0438281 0)
(1.22259 0.041243 0)
(1.22119 0.0387408 0)
(1.21978 0.0363147 0)
(1.21838 0.0339594 0)
(1.21701 0.03167 0)
(1.21568 0.0294425 0)
(1.21438 0.0272729 0)
(1.21312 0.0251575 0)
(1.21191 0.0230924 0)
(1.21075 0.021074 0)
(1.20966 0.0190984 0)
(1.20865 0.017162 0)
(1.20772 0.0152609 0)
(1.20687 0.0133913 0)
(1.20612 0.0115496 0)
(1.20546 0.00973204 0)
(1.20491 0.00793483 0)
(1.20447 0.00615429 0)
(1.20413 0.0043867 0)
(1.20391 0.0026283 0)
(1.20379 0.00087547 0)
(1.11878 0.0665498 0)
(1.16449 0.0646731 0)
(1.19324 0.0617755 0)
(1.20959 0.0586778 0)
(1.21786 0.0556187 0)
(1.22136 0.0526441 0)
(1.22228 0.049774 0)
(1.2219 0.0470081 0)
(1.22092 0.0443378 0)
(1.21969 0.0417541 0)
(1.21837 0.0392492 0)
(1.21704 0.0368168 0)
(1.21572 0.0344518 0)
(1.21443 0.0321496 0)
(1.21316 0.0299064 0)
(1.21192 0.0277185 0)
(1.21072 0.0255822 0)
(1.20956 0.0234941 0)
(1.20846 0.0214507 0)
(1.20742 0.0194483 0)
(1.20644 0.0174833 0)
(1.20555 0.0155522 0)
(1.20473 0.0136514 0)
(1.20401 0.0117772 0)
(1.20338 0.00992625 0)
(1.20285 0.00809483 0)
(1.20242 0.00627942 0)
(1.2021 0.00447643 0)
(1.20188 0.00268229 0)
(1.20177 0.000893491 0)
(1.11651 0.0667119 0)
(1.16146 0.0648511 0)
(1.18985 0.0620131 0)
(1.20611 0.0589654 0)
(1.21443 0.0559451 0)
(1.21804 0.0530007 0)
(1.21907 0.0501533 0)
(1.2188 0.047404 0)
(1.21792 0.0447451 0)
(1.21679 0.0421683 0)
(1.21556 0.0396661 0)
(1.2143 0.0372327 0)
(1.21306 0.0348631 0)
(1.21183 0.0325532 0)
(1.21062 0.0302992 0)
(1.20944 0.0280978 0)
(1.2083 0.0259456 0)
(1.20719 0.0238393 0)
(1.20614 0.0217756 0)
(1.20514 0.0197509 0)
(1.20421 0.0177621 0)
(1.20335 0.0158055 0)
(1.20257 0.013878 0)
(1.20187 0.011976 0)
(1.20126 0.0100961 0)
(1.20075 0.00823491 0)
(1.20034 0.00638907 0)
(1.20003 0.00455513 0)
(1.19982 0.00272966 0)
(1.19972 0.000909306 0)
(1.1143 0.0667439 0)
(1.1585 0.0649013 0)
(1.18653 0.0621252 0)
(1.20269 0.0591314 0)
(1.21105 0.0561547 0)
(1.21475 0.0532454 0)
(1.21589 0.0504259 0)
(1.21573 0.0476984 0)
(1.21494 0.045056 0)
(1.21389 0.042491 0)
(1.21274 0.0399965 0)
(1.21156 0.0375669 0)
(1.21039 0.0351975 0)
(1.20922 0.0328845 0)
(1.20808 0.0306245 0)
(1.20695 0.0284143 0)
(1.20586 0.0262507 0)
(1.2048 0.0241307 0)
(1.20379 0.0220511 0)
(1.20284 0.0200087 0)
(1.20194 0.0180003 0)
(1.20112 0.0160227 0)
(1.20037 0.0140728 0)
(1.1997 0.0121471 0)
(1.19912 0.0102426 0)
(1.19862 0.00835597 0)
(1.19823 0.00648394 0)
(1.19793 0.00462328 0)
(1.19772 0.0027707 0)
(1.19762 0.000923013 0)
(1.11213 0.066656 0)
(1.15561 0.0648337 0)
(1.18327 0.0621213 0)
(1.19932 0.0591846 0)
(1.20771 0.0562555 0)
(1.2115 0.0533857 0)
(1.21275 0.0505988 0)
(1.21268 0.0478976 0)
(1.21198 0.0452764 0)
(1.21101 0.0427278 0)
(1.20994 0.0402454 0)
(1.20883 0.0378241 0)
(1.20772 0.0354594 0)
(1.20661 0.0331477 0)
(1.20552 0.030886 0)
(1.20445 0.0286712 0)
(1.20341 0.0265005 0)
(1.2024 0.024371 0)
(1.20143 0.0222797 0)
(1.20052 0.0202237 0)
(1.19966 0.0182 0)
(1.19887 0.0162055 0)
(1.19814 0.0142372 0)
(1.1975 0.0122921 0)
(1.19694 0.010367 0)
(1.19647 0.00845892 0)
(1.19608 0.00656475 0)
(1.19579 0.00468139 0)
(1.1956 0.00280573 0)
(1.1955 0.000934714 0)
(1.11002 0.0664584 0)
(1.15278 0.0646584 0)
(1.18009 0.062011 0)
(1.19602 0.0591341 0)
(1.20443 0.0562558 0)
(1.2083 0.0534295 0)
(1.20963 0.050679 0)
(1.20966 0.0480083 0)
(1.20905 0.0454123 0)
(1.20815 0.0428842 0)
(1.20715 0.0404181 0)
(1.2061 0.038009 0)
(1.20505 0.035653 0)
(1.20401 0.0333468 0)
(1.20297 0.0310873 0)
(1.20195 0.028872 0)
(1.20096 0.0266982 0)
(1.19999 0.0245631 0)
(1.19906 0.0224641 0)
(1.19818 0.0203985 0)
(1.19736 0.0183633 0)
(1.1966 0.0163557 0)
(1.1959 0.014373 0)
(1.19528 0.0124122 0)
(1.19474 0.0104704 0)
(1.19429 0.0085447 0)
(1.19392 0.00663221 0)
(1.19364 0.00472997 0)
(1.19345 0.00283503 0)
(1.19336 0.00094451 0)
(1.10797 0.0661614 0)
(1.15003 0.0643855 0)
(1.17697 0.0618037 0)
(1.19278 0.0589887 0)
(1.20121 0.0561641 0)
(1.20514 0.0533842 0)
(1.20656 0.0506736 0)
(1.20667 0.0480369 0)
(1.20614 0.0454696 0)
(1.20532 0.0429657 0)
(1.20438 0.0405195 0)
(1.20339 0.0381264 0)
(1.2024 0.0357828 0)
(1.2014 0.0334857 0)
(1.20042 0.0312322 0)
(1.19945 0.0290201 0)
(1.1985 0.0268468 0)
(1.19757 0.0247099 0)
(1.19668 0.0226068 0)
(1.19584 0.0205351 0)
(1.19505 0.0184921 0)
(1.19431 0.0164752 0)
(1.19365 0.0144817 0)
(1.19305 0.0125088 0)
(1.19253 0.0105539 0)
(1.19209 0.00861426 0)
(1.19173 0.00668705 0)
(1.19146 0.00476954 0)
(1.19128 0.00285894 0)
(1.19119 0.000952506 0)
(1.10597 0.065775 0)
(1.14734 0.0640246 0)
(1.17392 0.0615089 0)
(1.18961 0.058757 0)
(1.19804 0.0559883 0)
(1.20204 0.0532575 0)
(1.20353 0.0505895 0)
(1.20372 0.0479898 0)
(1.20326 0.0454545 0)
(1.20251 0.0429779 0)
(1.20163 0.0405549 0)
(1.2007 0.0381811 0)
(1.19976 0.0358532 0)
(1.19881 0.0335685 0)
(1.19788 0.0313244 0)
(1.19695 0.0291188 0)
(1.19604 0.0269494 0)
(1.19515 0.0248141 0)
(1.1943 0.0227104 0)
(1.19349 0.0206361 0)
(1.19273 0.0185887 0)
(1.19202 0.0165658 0)
(1.19138 0.0145649 0)
(1.1908 0.0125834 0)
(1.1903 0.0106188 0)
(1.18988 0.00866854 0)
(1.18953 0.00673001 0)
(1.18927 0.00480063 0)
(1.1891 0.00287775 0)
(1.18901 0.000958804 0)
(1.10402 0.065309 0)
(1.14472 0.0635854 0)
(1.17095 0.0611355 0)
(1.18651 0.0584477 0)
(1.19493 0.0557363 0)
(1.19898 0.0530566 0)
(1.20055 0.0504337 0)
(1.20081 0.0478735 0)
(1.20042 0.0453728 0)
(1.19973 0.0429263 0)
(1.19891 0.0405293 0)
(1.19803 0.0381777 0)
(1.19714 0.0358685 0)
(1.19624 0.0335992 0)
(1.19534 0.0313676 0)
(1.19446 0.0291716 0)
(1.19359 0.0270093 0)
(1.19274 0.0248786 0)
(1.19192 0.0227774 0)
(1.19114 0.0207037 0)
(1.1904 0.0186551 0)
(1.18972 0.0166294 0)
(1.1891 0.0146242 0)
(1.18855 0.0126373 0)
(1.18806 0.0106662 0)
(1.18765 0.00870849 0)
(1.18732 0.00676183 0)
(1.18707 0.00482375 0)
(1.1869 0.00289179 0)
(1.18682 0.000963511 0)
(1.10212 0.0647728 0)
(1.14218 0.0630769 0)
(1.16805 0.0606922 0)
(1.18348 0.058069 0)
(1.19189 0.055416 0)
(1.19599 0.0527889 0)
(1.19762 0.0502128 0)
(1.19795 0.0476942 0)
(1.19762 0.0452303 0)
(1.19698 0.0428163 0)
(1.19621 0.0404477 0)
(1.19538 0.0381209 0)
(1.19454 0.0358331 0)
(1.19368 0.0335819 0)
(1.19283 0.0313654 0)
(1.19198 0.0291818 0)
(1.19114 0.0270294 0)
(1.19033 0.0249062 0)
(1.18954 0.0228105 0)
(1.18879 0.0207402 0)
(1.18808 0.0186933 0)
(1.18742 0.0166677 0)
(1.18683 0.0146613 0)
(1.18629 0.0126718 0)
(1.18582 0.0106972 0)
(1.18542 0.00873505 0)
(1.1851 0.00678324 0)
(1.18486 0.00483944 0)
(1.18469 0.00290136 0)
(1.18461 0.000966728 0)
(1.10028 0.0641754 0)
(1.1397 0.0625078 0)
(1.16523 0.0601874 0)
(1.18052 0.0576285 0)
(1.18891 0.0550345 0)
(1.19305 0.052461 0)
(1.19474 0.0499332 0)
(1.19513 0.0474578 0)
(1.19486 0.0450325 0)
(1.19427 0.042653 0)
(1.19355 0.040315 0)
(1.19277 0.0380152 0)
(1.19196 0.035751 0)
(1.19114 0.0335203 0)
(1.19032 0.0313215 0)
(1.18951 0.0291528 0)
(1.18871 0.0270128 0)
(1.18792 0.0248998 0)
(1.18717 0.0228121 0)
(1.18644 0.0207479 0)
(1.18576 0.0187054 0)
(1.18513 0.0166826 0)
(1.18455 0.0146776 0)
(1.18403 0.0126884 0)
(1.18357 0.010713 0)
(1.18319 0.00874918 0)
(1.18288 0.00679497 0)
(1.18264 0.00484821 0)
(1.18248 0.00290678 0)
(1.1824 0.000968563 0)
(1.09849 0.063525 0)