/*--------------------------------*- C++ -*----------------------------------*\
  =========                 |
  \\      /  F ield         | OpenFOAM: The Open Source CFD Toolbox
   \\    /   O peration     | Website:  https://openfoam.org
    \\  /    A nd           | Version:  7
     \\/     M anipulation  |
\*---------------------------------------------------------------------------*/
FoamFile
{
    version     2.0;
    format      ascii;
    class       surfaceScalarField;
    location    "24.999";
    object      phi;
}
// * * * * * * * * * * * * * * * * * * * * * * * * * * * * * * * * * * * * * //

dimensions      [0 3 -1 0 0 0 0];

internalField   nonuniform List<scalar> 
7273
(
0.000521663
0.0122278
-0.000459593
0.000551739
0.0126082
0.000560176
0.012732
0.00055723
0.0127389
0.000548513
0.0127
0.000536402
0.0126443
0.000521904
0.0125833
0.00050557
0.012522
0.000487781
0.0124628
0.00046881
0.0124066
0.000448849
0.0123537
0.000428039
0.0123038
0.000406502
0.0122565
0.000384346
0.0122119
0.000361674
0.0121697
0.000338579
0.01213
0.000315145
0.0120929
0.000291443
0.0120583
0.000267534
0.0120263
0.000243469
0.011997
0.000219289
0.0119702
0.000195027
0.0119461
0.000170708
0.0119247
0.000146354
0.011906
0.000121977
0.0118899
9.75889e-05
0.0118765
7.31941e-05
0.0118657
4.87945e-05
0.0118577
2.43931e-05
0.0118523
0.0118497
0.000435448
0.0121664
-0.000374085
0.000467959
0.0125757
0.000479851
0.0127201
0.000480335
0.0127384
0.000474942
0.0127054
0.000466169
0.0126531
0.000455059
0.0125945
0.000442142
0.0125349
0.000427765
0.0124771
0.000412181
0.0124222
0.000395568
0.0123703
0.000378063
0.0123213
0.000359778
0.0122748
0.000340818
0.0122308
0.000321281
0.0121893
0.000301256
0.0121501
0.000280825
0.0121133
0.00026006
0.0120791
0.000239022
0.0120474
0.000217766
0.0120182
0.000196335
0.0119917
0.000174768
0.0119677
0.000153095
0.0119464
0.000131341
0.0119277
0.000109526
0.0119117
8.76668e-05
0.0118983
6.5775e-05
0.0118876
4.3859e-05
0.0118796
2.19285e-05
0.0118742
0.0118716
0.000353137
0.0121064
-0.000293088
0.000387533
0.0125413
0.00040253
0.0127051
0.000406199
0.0127347
0.000403902
0.0127076
0.000398226
0.0126588
0.000390256
0.0126024
0.000380512
0.0125447
0.000369321
0.0124883
0.000356919
0.0124346
0.000343473
0.0123838
0.000329108
0.0123356
0.000313929
0.01229
0.000298034
0.0122467
0.000281514
0.0122058
0.000264455
0.0121671
0.000246937
0.0121309
0.00022903
0.012097
0.000210797
0.0120656
0.000192293
0.0120367
0.000173565
0.0120104
0.000154653
0.0119866
0.000135592
0.0119655
0.000116412
0.0119469
9.71376e-05
0.011931
7.77903e-05
0.0119177
5.83876e-05
0.011907
3.89436e-05
0.011899
1.94741e-05
0.0118937
0.0118911
0.000274199
0.0120483
-0.000216182
0.000310246
0.0125053
0.000328046
0.0126873
0.000334611
0.0127282
0.000335228
0.012707
0.000332487
0.0126615
0.000327469
0.0126074
0.000320697
0.0125514
0.000312495
0.0124965
0.000303089
0.012444
0.000292637
0.0123942
0.000281255
0.012347
0.000269039
0.0123022
0.000256079
0.0122597
0.00024246
0.0122194
0.000228264
0.0121813
0.000213567
0.0121456
0.000198438
0.0121121
0.000182939
0.0120811
0.000167125
0.0120525
0.000151045
0.0120265
0.000134743
0.0120029
0.000118255
0.0119819
0.000101615
0.0119635
8.48526e-05
0.0119477
6.79922e-05
0.0119345
5.10565e-05
0.0119239
3.40648e-05
0.011916
1.70378e-05
0.0119107
0.0119081
0.000198924
0.0119928
-0.000143415
0.000236232
0.0124679
0.000256218
0.0126673
0.00026537
0.012719
0.000268789
0.0127036
0.000268841
0.0126615
0.000266606
0.0126097
0.000262634
0.0125554
0.000257255
0.0125019
0.000250686
0.0124506
0.000243076
0.0124018
0.000234533
0.0123556
0.000225147
0.0123116
0.000215
0.0122698
0.000204171
0.0122302
0.000192738
0.0121928
0.000180772
0.0121575
0.000168339
0.0121246
0.000155502
0.012094
0.000142315
0.0120657
0.000128828
0.01204
0.000115085
0.0120167
0.000101127
0.0119959
8.69884e-05
0.0119777
7.27024e-05
0.011962
5.82979e-05
0.0119489
4.38008e-05
0.0119384
2.92352e-05
0.0119306
1.46258e-05
0.0119253
0.0119227
0.000126769
0.0119394
-7.32966e-05
0.000165277
0.0124294
0.000186753
0.0126459
0.000198456
0.0127073
0.000204539
0.0126975
0.000207196
0.0126588
0.00020757
0.0126093
0.000206246
0.0125567
0.000203547
0.0125046
0.000199677
0.0124545
0.000194774
0.0124067
0.000188942
0.0123614
0.000182265
0.0123183
0.000174819
0.0122773
0.000166677
0.0122384
0.00015791
0.0122015
0.000148588
0.0121668
0.000138774
0.0121344
0.000128528
0.0121042
0.000117903
0.0120764
0.000106951
0.0120509
9.57156e-05
0.0120279
8.42392e-05
0.0120074
7.25597e-05
0.0119894
6.07117e-05
0.0119739
4.87274e-05
0.0119609
3.6636e-05
0.0119505
2.44651e-05
0.0119427
1.2243e-05
0.0119376
0.011935
5.96669e-05
0.0118862
-6.49308e-06
9.70122e-05
0.0123921
0.000119663
0.0126232
0.00013395
0.012693
0.000142437
0.012689
0.000147468
0.0126538
0.000150288
0.0126065
0.000151476
0.0125555
0.000151327
0.0125048
0.000150027
0.0124558
0.00014771
0.012409
0.000144474
0.0123646
0.000140396
0.0123224
0.000135547
0.0122821
0.000129995
0.0122439
0.000123806
0.0122077
0.000117045
0.0121736
0.000109773
0.0121417
0.000102047
0.0121119
9.39214e-05
0.0120845
8.54448e-05
0.0120594
7.66634e-05
0.0120367
6.76198e-05
0.0120164
5.83535e-05
0.0119986
4.89015e-05
0.0119833
3.9298e-05
0.0119705
2.9575e-05
0.0119603
1.97632e-05
0.0119526
9.894e-06
0.0119474
0.0119449
-2.48101e-06
0.0118366
5.20338e-05
3.10016e-05
0.0123586
5.58345e-05
0.0125984
7.18997e-05
0.012677
8.23318e-05
0.0126786
8.95526e-05
0.0126466
9.47023e-05
0.0126013
9.82787e-05
0.012552
0.000100553
0.0125025
0.000101706
0.0124546
0.000101863
0.0124089
0.000101116
0.0123654
9.95368e-05
0.0123239
9.719e-05
0.0122845
9.41379e-05
0.012247
9.04424e-05
0.0122114
8.61637e-05
0.0121779
8.13601e-05
0.0121465
7.60866e-05
0.0121172
7.03955e-05
0.0120902
6.43358e-05
0.0120655
5.79534e-05
0.0120431
5.12915e-05
0.0120231
4.43908e-05
0.0120055
3.72897e-05
0.0119904
3.00244e-05
0.0119778
2.26293e-05
0.0119677
1.51374e-05
0.01196
7.58269e-06
0.011955
0.0119525
-6.75418e-05
0.011793
0.000111158
-3.16135e-05
0.0123227
-5.23563e-06
0.012572
1.18172e-05
0.0126599
2.40822e-05
0.0126663
3.34176e-05
0.0126372
4.07666e-05
0.012594
4.66003e-05
0.0125461
5.11817e-05
0.0124979
5.46796e-05
0.0124511
5.72101e-05
0.0124064
5.88562e-05
0.0123637
5.96836e-05
0.0123231
5.97506e-05
0.0122844
5.91146e-05
0.0122476
5.78324e-05
0.0122127
5.59608e-05
0.0121798
5.35549e-05
0.0121489
5.06672e-05
0.0121201
4.7348e-05
0.0120935
4.36457e-05
0.0120692
3.96065e-05
0.0120471
3.52737e-05
0.0120274
3.06889e-05
0.0120101
2.58915e-05
0.0119952
2.09193e-05
0.0119828
1.58084e-05
0.0119728
1.05941e-05
0.0119653
5.31243e-06
0.0119603
0.0119578
-0.000127385
0.0117521
0.000168329
-9.20252e-05
0.0122873
-6.60175e-05
0.012546
-4.68125e-05
0.0126407
-3.24716e-05
0.012652
-2.10738e-05
0.0126258
-1.16223e-05
0.0125845
-3.62977e-06
0.0125381
3.1623e-06
0.0124911
8.91212e-06
0.0124454
1.37254e-05
0.0124015
1.76771e-05
0.0123598
2.08262e-05
0.01232
2.32256e-05
0.012282
2.49273e-05
0.0122459
2.59837e-05
0.0122116
2.64475e-05
0.0121793
2.63707e-05
0.0121489
2.58039e-05
0.0121207
2.47944e-05
0.0120945
2.33913e-05
0.0120706
2.16396e-05
0.0120489
1.95828e-05
0.0120295
1.72627e-05
0.0120124
1.47199e-05
0.0119978
1.19934e-05
0.0119855
9.12072e-06
0.0119756
6.13905e-06
0.0119682
3.08606e-06
0.0119633
0.0119609
-0.000185151
0.0117141
0.000223136
-0.00015103
0.0122532
-0.000124118
0.0125191
-0.000103603
0.0126202
-8.74507e-05
0.0126359
-7.40859e-05
0.0126125
-6.2591e-05
0.012573
-5.25004e-05
0.012528
-4.35668e-05
0.0124822
-3.56404e-05
0.0124374
-2.8622e-05
0.0123945
-2.24424e-05
0.0123536
-1.7048e-05
0.0123146
-1.23911e-05
0.0122774
-8.42494e-06
0.0122419
-5.10153e-06
0.0122083
-2.37233e-06
0.0121766
-1.89122e-07
0.0121468
1.49914e-06
0.012119
2.74184e-06
0.0120933
3.58153e-06
0.0120697
4.06255e-06
0.0120484
4.22857e-06
0.0120293
4.12194e-06
0.0120125
3.78382e-06
0.0119981
3.25427e-06
0.011986
2.57225e-06
0.0119763
1.77636e-06
0.011969
9.05865e-07
0.0119642
0.0119618
-0.000241192
0.0116793
0.000276029
-0.000207983
0.01222
-0.000180511
0.0124916
-0.000158693
0.0125984
-0.000140868
0.012618
-0.000125639
0.0125972
-0.000112182
0.0125596
-0.000100066
0.0125159
-8.90597e-05
0.0124712
-7.90242e-05
0.0124274
-6.98683e-05
0.0123854
-6.15287e-05
0.0123453
-5.39568e-05
0.012307
-4.71094e-05
0.0122705
-4.09441e-05
0.0122358
-3.54168e-05
0.0122028
-3.04822e-05
0.0121716
-2.60937e-05
0.0121424
-2.22066e-05
0.0121151
-1.87758e-05
0.0120898
-1.57554e-05
0.0120667
-1.31006e-05
0.0120457
-1.07684e-05
0.012027
-8.7162e-06
0.0120105
-6.9025e-06
0.0119963
-5.28659e-06
0.0119844
-3.82846e-06
0.0119749
-2.4883e-06
0.0119677
-1.22567e-06
0.0119629
0.0119605
-0.000295511
0.0116474
0.000327367
-0.000263205
0.0121877
-0.000235356
0.0124638
-0.000212299
0.0125753
-0.000192853
0.0125986
-0.000175827
0.0125802
-0.000160471
0.0125442
-0.000146389
0.0125018
-0.000133368
0.0124582
-0.000121281
0.0124153
-0.000110047
0.0123741
-9.96077e-05
0.0123348
-8.99192e-05
0.0122973
-8.0943e-05
0.0122615
-7.26406e-05
0.0122275
-6.49717e-05
0.0121951
-5.78944e-05
0.0121646
-5.13653e-05
0.0121358
-4.53409e-05
0.0121091
-3.97766e-05
0.0120843
-3.46287e-05
0.0120615
-2.98537e-05
0.012041
-2.54084e-05
0.0120225
-2.125e-05
0.0120063
-1.73365e-05
0.0119924
-1.36265e-05
0.0119807
-1.0079e-05
0.0119713
-6.65311e-06
0.0119643
-3.3073e-06
0.0119596
0.0119572
-0.000348296
0.0116183
0.000377402
-0.000316969
0.0121564
-0.000288771
0.0124356
-0.000264546
0.0125511
-0.000243528
0.0125776
-0.000224744
0.0125614
-0.000207532
0.012527
-0.000191528
0.0124858
-0.000176539
0.0124432
-0.000162451
0.0124012
-0.00014919
0.0123609
-0.000136703
0.0123223
-0.000124953
0.0122856
-0.000113903
0.0122505
-0.000103521
0.0122171
-9.37674e-05
0.0121854
-8.46047e-05
0.0121554
-7.59917e-05
0.0121272
-6.78862e-05
0.0121009
-6.02457e-05
0.0120766
-5.30269e-05
0.0120543
-4.61869e-05
0.0120341
-3.96827e-05
0.012016
-3.34718e-05
0.0120001
-2.75115e-05
0.0119864
-2.17598e-05
0.0119749
-1.6175e-05
0.0119657
-1.07151e-05
0.0119588
-5.33762e-06
0.0119542
0.0119519
-0.000399816
0.0115917
0.000426376
-0.000369446
0.012126
-0.000340904
0.012407
-0.000315549
0.0125257
-0.000292995
0.012555
-0.00027248
0.0125409
-0.000253437
0.012508
-0.000235542
0.012468
-0.000218621
0.0124262
-0.000202571
0.0123852
-0.000187325
0.0123456
-0.000172837
0.0123078
-0.000159073
0.0122718
-0.000146001
0.0122374
-0.00013359
0.0122047
-0.000121806
0.0121736
-0.000110612
0.0121442
-9.99702e-05
0.0121166
-8.98388e-05
0.0120908
-8.0177e-05
0.012067
-7.09424e-05
0.0120451
-6.20925e-05
0.0120253
-5.35842e-05
0.0120075
-4.53749e-05
0.0119919
-3.74216e-05
0.0119784
-2.96818e-05
0.0119672
-2.21128e-05
0.0119582
-1.46718e-05
0.0119514
-7.31531e-06
0.0119469
0.0119446
-0.000450308
0.0115675
0.000474534
-0.000420804
0.0120965
-0.000391898
0.0123781
-0.000365421
0.0124993
-0.000341344
0.0125309
-0.000319111
0.0125187
-0.000298251
0.0124871
-0.000278484
0.0124482
-0.000259655
0.0124074
-0.000241673
0.0123672
-0.000224478
0.0123284
-0.000208028
0.0122914
-0.000192293
0.0122561
-0.000177245
0.0122224
-0.000162854
0.0121903
-0.000149089
0.0121598
-0.000135916
0.012131
-0.000123298
0.012104
-0.000111194
0.0120787
-9.95653e-05
0.0120553
-8.83693e-05
0.0120339
-7.75639e-05
0.0120145
-6.71063e-05
0.0119971
-5.69532e-05
0.0119817
-4.70615e-05
0.0119686
-3.73878e-05
0.0119575
-2.78887e-05
0.0119487
-1.85206e-05
0.011942
-9.23914e-06
0.0119376
0.0119353
-0.000499969
0.0115454
0.000522106
-0.000471201
0.0120677
-0.000441881
0.0123488
-0.000414265
0.0124716
-0.000388656
0.0125053
-0.000364701
0.0124947
-0.000342026
0.0124644
-0.000320395
0.0124266
-0.000299674
0.0123867
-0.000279783
0.0123473
-0.000260667
0.0123093
-0.00024229
0.012273
-0.000224622
0.0122384
-0.000207639
0.0122054
-0.000191314
0.012174
-0.000175617
0.0121441
-0.000160514
0.0121159
-0.00014597
0.0120894
-0.000131947
0.0120647
-0.000118405
0.0120418
-0.000105301
0.0120208
-9.25951e-05
0.0120017
-8.02428e-05
0.0119847
-6.8201e-05
0.0119697
-5.64258e-05
0.0119568
-4.48734e-05
0.011946
-3.34994e-05
0.0119373
-2.22593e-05
0.0119308
-1.11079e-05
0.0119264
0.0119242
-0.000548971
0.011525
0.000569299
-0.000520774
0.0120395
-0.000490962
0.012319
-0.000462165
0.0124428
-0.000434998
0.0124782
-0.000409301
0.012469
-0.000384802
0.0124399
-0.000361308
0.0124031
-0.000338704
0.0123641
-0.000316919
0.0123255
-0.000295905
0.0122883
-0.00027563
0.0122527
-0.000256064
0.0122188
-0.000237186
0.0121865
-0.000218969
0.0121557
-0.000201384
0.0121265
-0.0001844
0.0120989
-0.000167982
0.012073
-0.000152091
0.0120488
-0.000136688
0.0120264
-0.000121731
0.0120058
-0.000107179
0.0119872
-9.29874e-05
0.0119705
-7.91124e-05
0.0119558
-6.55096e-05
0.0119432
-5.21344e-05
0.0119326
-3.89416e-05
0.0119241
-2.58857e-05
0.0119177
-1.29205e-05
0.0119135
0.0119113
-0.000597455
0.0115062
0.000616285
-0.000569638
0.0120117
-0.000539226
0.0122886
-0.000509183
0.0124128
-0.000480415
0.0124494
-0.000452948
0.0124416
-0.000426606
0.0124136
-0.000401241
0.0123777
-0.000376756
0.0123396
-0.000353089
0.0123018
-0.000330197
0.0122654
-0.000308049
0.0122306
-0.000286618
0.0121974
-0.000265881
0.0121658
-0.000245813
0.0121357
-0.000226386
0.0121071
-0.000207568
0.0120801
-0.000189325
0.0120548
-0.000171618
0.0120311
-0.000154407
0.0120092
-0.000137652
0.0119891
-0.000121308
0.0119709
-0.000105333
0.0119545
-8.96812e-05
0.0119402
-7.43075e-05
0.0119278
-5.91664e-05
0.0119175
-4.42119e-05
0.0119091
-2.93974e-05
0.0119029
-1.46758e-05
0.0118987
0.0118966
-0.000645529
0.0114885
0.000663196
-0.000617871
0.011984
-0.000586727
0.0122574
-0.000555357
0.0123814
-0.000524932
0.012419
-0.000495657
0.0124123
-0.000467448
0.0123854
-0.000440198
0.0123504
-0.000413831
0.0123132
-0.000388291
0.0122763
-0.000363538
0.0122407
-0.000339541
0.0122066
-0.000316275
0.0121741
-0.000293715
0.0121432
-0.000271837
0.0121138
-0.000250611
0.0120859
-0.000230007
0.0120595
-0.000209988
0.0120347
-0.000190517
0.0120116
-0.000171553
0.0119902
-0.000153053
0.0119706
-0.000134974
0.0119528
-0.000117272
0.0119368
-9.99007e-05
0.0119228
-8.28138e-05
0.0119107
-6.59648e-05
0.0119006
-4.93068e-05
0.0118925
-3.27921e-05
0.0118864
-1.63726e-05
0.0118823
0.0118803
-0.000693258
0.0114717
0.000710116
-0.000665517
0.0119563
-0.000633491
0.0122254
-0.000600697
0.0123486
-0.000568551
0.0123868
-0.000537423
0.0123812
-0.000507318
0.0123553
-0.00047817
0.0123213
-0.000449917
0.012285
-0.000422511
0.0122489
-0.000395912
0.0122141
-0.000370091
0.0121808
-0.00034502
0.0121491
-0.000320673
0.0121189
-0.000297025
0.0120901
-0.000274046
0.0120629
-0.000251703
0.0120372
-0.00022996
0.012013
-0.000208777
0.0119904
-0.000188113
0.0119696
-0.000167925
0.0119504
-0.000148168
0.011933
-0.000128796
0.0119175
-0.000109763
0.0119038
-9.10221e-05
0.011892
-7.25245e-05
0.0118821
-5.42225e-05
0.0118742
-3.60672e-05
0.0118682
-1.80095e-05
0.0118643
0.0118623
-0.000740656
0.0114553
0.000757074
-0.000712577
0.0119282
-0.000679504
0.0121923
-0.000645181
0.0123143
-0.000611246
0.0123529
-0.000578219
0.0123481
-0.000546188
0.0123232
-0.000515126
0.0122902
-0.000484986
0.0122548
-0.000455722
0.0122196
-0.000427296
0.0121856
-0.000399675
0.0121531
-0.00037283
0.0121222
-0.000346735
0.0120928
-0.000321359
0.0120648
-0.000296672
0.0120382
-0.00027264
0.0120131
-0.000249223
0.0119896
-0.000226383
0.0119676
-0.000204075
0.0119472
-0.000182255
0.0119286
-0.000160878
0.0119116
-0.000139896
0.0118965
-0.000119261
0.0118831
-9.89257e-05
0.0118716
-7.884e-05
0.011862
-5.89548e-05
0.0118543
-3.922e-05
0.0118485
-1.95852e-05
0.0118446
0.0118427
-0.000787685
0.0114389
0.00080404
-0.000759004
0.0118995
-0.000724715
0.012158
-0.000688757
0.0122784
-0.000652963
0.0123171
-0.000617992
0.0123132
-0.000584011
0.0122893
-0.000551024
0.0122572
-0.000518996
0.0122228
-0.000487885
0.0121885
-0.000457652
0.0121554
-0.00042826
0.0121238
-0.000399677
0.0120936
-0.000371872
0.012065
-0.000344813
0.0120377
-0.000318467
0.0120119
-0.000292796
0.0119875
-0.00026776
0.0119645
-0.000243317
0.0119432
-0.000219422
0.0119233
-0.00019603
0.0119052
-0.000173092
0.0118887
-0.000150561
0.011874
-0.000128386
0.011861
-0.000106517
0.0118498
-8.49056e-05
0.0118404
-6.34995e-05
0.0118329
-4.22476e-05
0.0118272
-2.10983e-05
0.0118235
0.0118216
-0.000834252
0.0114223
0.000850918
-0.000804706
0.01187
-0.000769034
0.0121224
-0.000731337
0.0122407
-0.000693621
0.0122794
-0.000656669
0.0122762
-0.000620717
0.0122533
-0.0005858
0.0122223
-0.000551892
0.0121889
-0.000518952
0.0121556
-0.000486936
0.0121234
-0.000455806
0.0120926
-0.000425522
0.0120633
-0.000396051
0.0120355
-0.000367357
0.012009
-0.000339402
0.0119839
-0.000312146
0.0119602
-0.000285548
0.0119379
-0.000259561
0.0119172
-0.000234139
0.0118979
-0.000209235
0.0118803
-0.000184798
0.0118643
-0.000160779
0.0118499
-0.000137127
0.0118373
-0.000113789
0.0118264
-9.0715e-05
0.0118173
-6.78518e-05
0.01181
-4.51469e-05
0.0118045
-2.25473e-05
0.0118009
0.011799
-0.000880205
0.0114049
0.000897549
-0.000849543
0.0118393
-0.00081233
0.0120852
-0.000772801
0.0122011
-0.00073311
0.0122397
-0.00069415
0.0122372
-0.000656218
0.0122154
-0.000619375
0.0121855
-0.000583603
0.0121531
-0.000548858
0.0121208
-0.000515093
0.0120896
-0.000482262
0.0120598
-0.000450323
0.0120314
-0.000419234
0.0120044
-0.000388957
0.0119787
-0.000359448
0.0119544
-0.000330665
0.0119314
-0.000302563
0.0119098
-0.000275093
0.0118897
-0.000248207
0.011871
-0.000221854
0.0118539
-0.000195982
0.0118384
-0.00017054
0.0118245
-0.000145475
0.0118122
-0.000120733
0.0118017
-9.62619e-05
0.0117929
-7.20072e-05
0.0117858
-4.79148e-05
0.0117804
-2.39306e-05
0.0117769
0.0117751
-0.00092534
0.0113865
0.000943706
-0.000893329
0.0118073
-0.000854434
0.0120463
-0.000812997
0.0121597
-0.000771294
0.012198
-0.000730316
0.0121963
-0.000690409
0.0121755
-0.000651657
0.0121467
-0.000614047
0.0121155
-0.000577532
0.0120843
-0.000542058
0.0120541
-0.000507574
0.0120253
-0.000474029
0.0119979
-0.000441377
0.0119717
-0.000409573
0.0119469
-0.000378571
0.0119234
-0.000348323
0.0119012
-0.00031878
0.0118803
-0.000289891
0.0118608
-0.000261605
0.0118428
-0.000233869
0.0118262
-0.000206628
0.0118112
-0.00017983
0.0117977
-0.000153419
0.0117858
-0.00012734
0.0117756
-0.000101539
0.0117671
-7.59604e-05
0.0117602
-5.0548e-05
0.011755
-2.52464e-05
0.0117516
0.0117499
-0.000969403
0.0113668
0.000989106
-0.000935837
0.0117738
-0.000895145
0.0120056
-0.000851745
0.0121163
-0.000808017
0.0121543
-0.000765026
0.0121533
-0.000723167
0.0121336
-0.000682539
0.0121061
-0.000643131
0.0120761
-0.000604892
0.0120461
-0.000567761
0.012017
-0.000531678
0.0119892
-0.000496586
0.0119628
-0.000462432
0.0119376
-0.000429165
0.0119137
-0.000396734
0.011891
-0.000365086
0.0118695
-0.00033417
0.0118494
-0.00030393
0.0118306
-0.000274313
0.0118131
-0.000245262
0.0117971
-0.000216722
0.0117826
-0.000188636
0.0117696
-0.000160949
0.0117581
-0.000133602
0.0117483
-0.00010654
0.01174
-7.97064e-05
0.0117334
-5.30431e-05
0.0117284
-2.64933e-05
0.011725
0.0117234
-0.0010121
0.0113455
0.00103341
-0.000976806
0.0117385
-0.000934232
0.011963
-0.000888845
0.0120709
-0.0008431
0.0121085
-0.000798128
0.0121083
-0.000754358
0.0120898
-0.000711904
0.0120637
-0.000670753
0.012035
-0.000630849
0.0120062
-0.000592124
0.0119783
-0.000554507
0.0119516
-0.000517936
0.0119262
-0.000482348
0.011902
-0.000447688
0.011879
-0.000413899
0.0118572
-0.000380923
0.0118366
-0.000348705
0.0118172
-0.000317186
0.011799
-0.000286309
0.0117823
-0.000256016
0.0117668
-0.000226247
0.0117528
-0.000196946
0.0117403
-0.000168053
0.0117293
-0.00013951
0.0117197
-0.000111259
0.0117117
-8.32403e-05
0.0117053
-5.53968e-05
0.0117005
-2.76694e-05
0.0116973
0.0116957
-0.00105309
0.0113224
0.00107624
-0.00101595
0.0117013
-0.000971444
0.0119185
-0.000924075
0.0120235
-0.000876352
0.0120608
-0.000829455
0.0120614
-0.000783839
0.0120442
-0.000739627
0.0120194
-0.000696807
0.0119921
-0.000655312
0.0119647
-0.000615067
0.011938
-0.000575993
0.0119125
-0.000538018
0.0118882
-0.000501074
0.0118651
-0.000465098
0.011843
-0.000430026
0.0118221
-0.000395799
0.0118023
-0.000362355
0.0117837
-0.000329633
0.0117663
-0.000297572
0.0117502
-0.000266111
0.0117354
-0.000235189
0.0117219
-0.000204746
0.0117099
-0.000174721
0.0116992
-0.000145055
0.0116901
-0.000115687
0.0116824
-8.6557e-05
0.0116762
-5.76058e-05
0.0116716
-2.87733e-05
0.0116685
0.0116669
-0.00109202
0.0112972
0.00111718
-0.00105295
0.0116623
-0.00100651
0.0118721
-0.000957207
0.0119742
-0.000907576
0.0120112
-0.000858836
0.0120127
-0.000811462
0.0119969
-0.000765583
0.0119736
-0.000721181
0.0119477
-0.000678186
0.0119217
-0.000636509
0.0118964
-0.000596065
0.0118721
-0.000556773
0.0118489
-0.000518557
0.0118268
-0.000481348
0.0118058
-0.000445078
0.0117858
-0.000409681
0.0117669
-0.000375092
0.0117491
-0.000341247
0.0117325
-0.00030808
0.011717
-0.00027553
0.0117028
-0.000243532
0.0116899
-0.000212024
0.0116784
-0.000180943
0.0116681
-0.000150229
0.0116593
-0.000119819
0.011652
-8.96518e-05
0.011646
-5.9667e-05
0.0116416
-2.98033e-05
0.0116386
0.0116371
-0.00112852
0.0112699
0.0011558
-0.0010875
0.0116212
-0.00103917
0.0118237
-0.000988006
0.0119231
-0.000936571
0.0119597
-0.000886099
0.0119622
-0.000837079
0.0119478
-0.000789643
0.0119261
-0.000743768
0.0119019
-0.000699375
0.0118773
-0.000656369
0.0118534
-0.000614653
0.0118304
-0.00057414
0.0118084
-0.000534746
0.0117875
-0.000496396
0.0117675
-0.000459017
0.0117485
-0.000422538
0.0117305
-0.000386889
0.0117135
-0.000352004
0.0116976
-0.000317815
0.0116828
-0.000284256
0.0116693
-0.000251262
0.0116569
-0.000218767
0.0116459
-0.000186709
0.0116361
-0.000155024
0.0116277
-0.000123648
0.0116206
-9.25204e-05
0.0116149
-6.15777e-05
0.0116106
-3.07581e-05
0.0116078
0.0116064
-0.00116223
0.0112405
0.00119166
-0.00111928
0.0115783
-0.00106914
0.0117736
-0.00101625
0.0118702
-0.000963141
0.0119066
-0.000911076
0.0119101
-0.000860547
0.0118973
-0.000811684
0.0118773
-0.000764462
0.0118546
-0.000718792
0.0118316
-0.00067457
0.0118091
-0.000631692
0.0117875
-0.000590063
0.0117668
-0.000549593
0.011747
-0.000510201
0.0117281
-0.000471807
0.0117101
-0.000434338
0.011693
-0.000397721
0.0116769
-0.000361884
0.0116618
-0.000326758
0.0116477
-0.000292274
0.0116348
-0.000258366
0.011623
-0.000224966
0.0116125
-0.00019201
0.0116031
-0.000159433
0.0115951
-0.00012717
0.0115883
-9.51589e-05
0.0115829
-6.33353e-05
0.0115788
-3.16364e-05
0.0115761
0.0115747
-0.00119279
0.0112089
0.00122437
-0.001148
0.0115335
-0.00109619
0.0117218
-0.00104171
0.0118157
-0.000987103
0.011852
-0.00093361
0.0118566
-0.000881731
0.0118454
-0.000831593
0.0118271
-0.000783165
0.0118062
-0.000736351
0.0117848
-0.000691041
0.0117638
-0.000647122
0.0117436
-0.000604491
0.0117242
-0.000563055
0.0117055
-0.000522724
0.0116877
-0.000483417
0.0116708
-0.000445056
0.0116546
-0.000407563
0.0116394
-0.000370866
0.0116251
-0.000334892
0.0116117
-0.000299571
0.0115995
-0.000264833
0.0115883
-0.000230612
0.0115782
-0.00019684
0.0115694
-0.000163451
0.0115617
-0.000130381
0.0115553
-9.75642e-05
0.0115501
-6.49376e-05
0.0115462
-3.24373e-05
0.0115436
0.0115423
-0.00121988
0.0111753
0.00125351
-0.00117338
0.011487
-0.00112007
0.0116685
-0.0010642
0.0117598
-0.00100829
0.0117961
-0.000953561
0.0118019
-0.000900511
0.0117924
-0.000849267
0.0117759
-0.00079979
0.0117567
-0.000751981
0.011737
-0.000705719
0.0117176
-0.000660888
0.0116988
-0.000617379
0.0116806
-0.000575092
0.0116633
-0.000533935
0.0116466
-0.000493821
0.0116306
-0.000454668
0.0116155
-0.000416399
0.0116011
-0.000378936
0.0115876
-0.000342205
0.011575
-0.000306135
0.0115634
-0.000270656
0.0115528
-0.000235697
0.0115433
-0.000201192
0.0115349
-0.000167073
0.0115276
-0.000133275
0.0115215
-9.97336e-05
0.0115165
-6.63832e-05
0.0115128
-3.31598e-05
0.0115104
0.0115091
-0.00124321
0.0111398
0.00127876
-0.0011952
0.011439
-0.00114059
0.0116139
-0.00108356
0.0117028
-0.00102656
0.0117391
-0.000970809
0.0117462
-0.000916786
0.0117384
-0.000864619
0.0117237
-0.000814265
0.0117064
-0.000765617
0.0116884
-0.000718552
0.0116705
-0.000672948
0.0116531
-0.00062869
0.0116364
-0.000585675
0.0116202
-0.000543806
0.0116047
-0.000502996
0.0115898
-0.000463158
0.0115756
-0.000424212
0.0115622
-0.00038608
0.0115495
-0.000348687
0.0115376
-0.00031196
0.0115267
-0.000275826
0.0115167
-0.000240216
0.0115077
-0.000205062
0.0114997
-0.000170296
0.0114928
-0.000135852
0.011487
-0.000101666
0.0114824
-6.76708e-05
0.0114788
-3.38035e-05
0.0114765
0.0114753
-0.00126255
0.0111025
0.00129981
-0.00121324
0.0113897
-0.00115759
0.0115582
-0.00109965
0.0116449
-0.00104181
0.0116813
-0.000985257
0.0116896
-0.000930476
0.0116836
-0.000877583
0.0116708
-0.000826532
0.0116553
-0.000777214
0.011639
-0.000729501
0.0116228
-0.000683268
0.0116069
-0.000638397
0.0115915
-0.000594781
0.0115766
-0.000552321
0.0115623
-0.000510928
0.0115484
-0.000470513
0.0115352
-0.000430994
0.0115226
-0.000392293
0.0115108
-0.000354333
0.0114997
-0.000317039
0.0114894
-0.000280341
0.01148
-0.000244167
0.0114715
-0.000208448
0.011464
-0.000173118
0.0114575
-0.000138111
0.011452
-0.00010336
0.0114476
-6.88002e-05
0.0114443
-3.43682e-05
0.0114421
0.011441
-0.00127772
0.0110637
0.00131646
-0.00122738
0.0113393
-0.00117095
0.0115018
-0.00111237
0.0115863
-0.00105394
0.0116228
-0.00099684
0.0116325
-0.000941524
0.0116283
-0.000888111
0.0116174
-0.000836553
0.0116038
-0.00078674
0.0115892
-0.00073854
0.0115746
-0.000691827
0.0115602
-0.000646482
0.0115462
-0.000602396
0.0115325
-0.000559469
0.0115193
-0.000517609
0.0115066
-0.000476727
0.0114943
-0.000436741
0.0114827
-0.00039757
0.0114716
-0.000359139
0.0114612
-0.000321373
0.0114516
-0.0002842
0.0114428
-0.000247549
0.0114348
-0.000211351
0.0114278
-0.000175541
0.0114217
-0.000140051
0.0114165
-0.000104816
0.0114124
-6.97715e-05
0.0114092
-3.4854e-05
0.0114072
0.0114061
-0.0012886
0.0110238
0.00132854
-0.00123752
0.0112883
-0.00118061
0.0114449
-0.00112167
0.0115273
-0.00106293
0.0115641
-0.00100552
0.0115751
-0.000949902
0.0115726
-0.000896181
0.0115637
-0.000844311
0.0115519
-0.00079418
0.0115391
-0.000745659
0.0115261
-0.00069862
0.0115132
-0.000652943
0.0115005
-0.00060852
0.0114881
-0.000565249
0.0114761
-0.000523039
0.0114644
-0.000481802
0.0114531
-0.000441454
0.0114423
-0.000401915
0.0114321
-0.00036311
0.0114224
-0.000324964
0.0114135
-0.000287406
0.0114052
-0.000250365
0.0113978
-0.000213774
0.0113912
-0.000177565
0.0113855
-0.000141674
0.0113806
-0.000106036
0.0113767
-7.05859e-05
0.0113738
-3.52615e-05
0.0113718
0.0113708
-0.00129515
0.010983
0.00133598
-0.00124364
0.0112367
-0.00118655
0.0113878
-0.00112753
0.0114683
-0.00106876
0.0115053
-0.0010113
0.0115176
-0.000955608
0.0115169
-0.000901793
0.0115099
-0.000849806
0.0114999
-0.000799539
0.0114888
-0.000750862
0.0114774
-0.00070365
0.0114659
-0.000657785
0.0114546
-0.000613158
0.0114435
-0.000569669
0.0114326
-0.000527228
0.0114219
-0.000485746
0.0114116
-0.000445141
0.0114017
-0.000405335
0.0113923
-0.000366252
0.0113833
-0.000327819
0.011375
-0.000289965
0.0113674
-0.000252621
0.0113605
-0.00021572
0.0113543
-0.000179196
0.0113489
-0.000142985
0.0113444
-0.000107022
0.0113408
-7.1245e-05
0.011338
-3.55915e-05
0.0113362
0.0113352
-0.00129739
0.0109416
0.00133879
-0.00124576
0.0111851
-0.00118879
0.0113308
-0.00113
0.0114095
-0.00107145
0.0114468
-0.0010142
0.0114604
-0.00095867
0.0114614
-0.000904974
0.0114562
-0.000853066
0.011448
-0.00080284
0.0114386
-0.000754173
0.0114287
-0.000706941
0.0114187
-0.000661029
0.0114087
-0.00061633
0.0113988
-0.000572748
0.011389
-0.000530191
0.0113794
-0.000488575
0.01137
-0.000447818
0.0113609
-0.000407844
0.0113523
-0.000368579
0.0113441
-0.00032995
0.0113364
-0.000291889
0.0113293
-0.000254327
0.0113229
-0.000217199
0.0113172
-0.00018044
0.0113122
-0.000143987
0.011308
-0.000107778
0.0113046
-7.17514e-05
0.011302
-3.58454e-05
0.0113003
0.0112994
-0.0012954
0.0108999
0.00133705
-0.00124396
0.0111337
-0.00118742
0.0112743
-0.00112914
0.0113512
-0.00107109
0.0113887
-0.00101428
0.0114036
-0.000959143
0.0114063
-0.000905772
0.0114028
-0.000854133
0.0113964
-0.000804125
0.0113886
-0.000755629
0.0113802
-0.000708527
0.0113716
-0.000662707
0.0113629
-0.000618066
0.0113542
-0.000574511
0.0113454
-0.000531954
0.0113368
-0.000490311
0.0113284
-0.000449505
0.0113201
-0.000409461
0.0113122
-0.000370107
0.0113047
-0.000331372
0.0112977
-0.000293189
0.0112911
-0.000255493
0.0112852
-0.000218219
0.0112799
-0.000181305
0.0112753
-0.000144689
0.0112714
-0.00010831
0.0112682
-7.21085e-05
0.0112658
-3.60247e-05
0.0112642
0.0112634
-0.00128933
0.0108583
0.00133091
-0.00123839
0.0110827
-0.00118257
0.0112185
-0.00112507
0.0112937
-0.00106777
0.0113314
-0.00101165
0.0113475
-0.000957109
0.0113517
-0.000904263
0.01135
-0.000853076
0.0113452
-0.000803454
0.011339
-0.000755285
0.0113321
-0.000708457
0.0113248
-0.000662863
0.0113173
-0.000618407
0.0113097
-0.000574997
0.011302
-0.00053255
0.0112944
-0.000490987
0.0112868
-0.000450231
0.0112794
-0.000410212
0.0112722
-0.000370859
0.0112654
-0.000332105
0.0112589
-0.000293885
0.0112529
-0.000256135
0.0112475
-0.000218795
0.0112426
-0.000181802
0.0112383
-0.000145098
0.0112346
-0.000108624
0.0112317
-7.23206e-05
0.0112295
-3.61317e-05
0.011228
0.0112272
-0.00127939
0.0108172
0.00132059
-0.00122924
0.0110326
-0.0011744
0.0111636
-0.00111793
0.0112372
-0.00106162
0.0112751
-0.0010064
0.0112922
-0.000952673
0.011298
-0.00090054
0.0112978
-0.000849977
0.0112946
-0.000800901
0.0112899
-0.000753208
0.0112844
-0.000706792
0.0112784
-0.000661554
0.0112721
-0.000617403
0.0112655
-0.000574252
0.0112589
-0.000532022
0.0112521
-0.000490638
0.0112454
-0.000450028
0.0112388
-0.000410125
0.0112323
-0.000370861
0.0112261
-0.000332172
0.0112202
-0.000293996
0.0112147
-0.000256272
0.0112097
-0.00021894
0.0112052
-0.000181944
0.0112013
-0.000145224
0.0111979
-0.000108726
0.0111952
-7.23925e-05
0.0111932
-3.61687e-05
0.0111918
0.0111911
-0.00126582
0.0107766
0.00130635
-0.00121672
0.0109835
-0.00116313
0.01111
-0.00110792
0.011182
-0.00105282
0.01122
-0.000998704
0.0112381
-0.000945967
0.0112453
-0.000894719
0.0112466
-0.000844942
0.0112448
-0.000796562
0.0112415
-0.000749483
0.0112373
-0.000703609
0.0112325
-0.000658848
0.0112273
-0.000615115