/*--------------------------------*- C++ -*----------------------------------*\
  =========                 |
  \\      /  F ield         | OpenFOAM: The Open Source CFD Toolbox
   \\    /   O peration     | Website:  https://openfoam.org
    \\  /    A nd           | Version:  7
     \\/     M anipulation  |
\*---------------------------------------------------------------------------*/
FoamFile
{
    version     2.0;
    format      ascii;
    class       volVectorField;
    location    "24.999";
    object      U;
}
// * * * * * * * * * * * * * * * * * * * * * * * * * * * * * * * * * * * * * //

dimensions      [0 1 -1 0 0 0 0];

internalField   nonuniform List<vector> 
3700
(
(1.25121 -0.0459576 0)
(1.2885 -0.0488084 0)
(1.30005 -0.05007 0)
(1.30016 -0.0501938 0)
(1.29587 -0.0496016 0)
(1.29001 -0.0486184 0)
(1.28365 -0.0474015 0)
(1.27729 -0.0460081 0)
(1.27117 -0.0444723 0)
(1.26538 -0.0428219 0)
(1.25993 -0.0410759 0)
(1.25479 -0.0392483 0)
(1.24993 -0.0373505 0)
(1.24534 -0.0353928 0)
(1.24101 -0.0333846 0)
(1.23694 -0.0313348 0)
(1.23313 -0.0292512 0)
(1.22958 -0.0271408 0)
(1.22631 -0.0250095 0)
(1.2233 -0.0228622 0)
(1.22056 -0.0207031 0)
(1.2181 -0.0185353 0)
(1.21591 -0.0163616 0)
(1.21399 -0.0141839 0)
(1.21234 -0.0120037 0)
(1.21097 -0.00982204 0)
(1.20988 -0.00764 0)
(1.20905 -0.00545717 0)
(1.20851 -0.00327267 0)
(1.20824 -0.001094 0)
(1.24489 -0.0381803 0)
(1.2853 -0.0410964 0)
(1.29903 -0.0427205 0)
(1.30032 -0.0431664 0)
(1.29664 -0.0428693 0)
(1.29112 -0.0421831 0)
(1.285 -0.0412687 0)
(1.27883 -0.0401809 0)
(1.27285 -0.0389511 0)
(1.26718 -0.0376048 0)
(1.26182 -0.0361601 0)
(1.25677 -0.0346302 0)
(1.25198 -0.033026 0)
(1.24745 -0.0313569 0)
(1.24318 -0.0296321 0)
(1.23915 -0.0278598 0)
(1.23538 -0.0260479 0)
(1.23186 -0.0242032 0)
(1.22861 -0.0223317 0)
(1.22562 -0.0204384 0)
(1.22289 -0.0185278 0)
(1.22044 -0.0166035 0)
(1.21826 -0.0146685 0)
(1.21634 -0.0127253 0)
(1.2147 -0.0107759 0)
(1.21334 -0.00882186 0)
(1.21224 -0.00686471 0)
(1.21142 -0.00490482 0)
(1.21087 -0.00294219 0)
(1.2106 -0.000983 0)
(1.23867 -0.0307875 0)
(1.28183 -0.0336942 0)
(1.29762 -0.0356454 0)
(1.30007 -0.036394 0)
(1.297 -0.0363735 0)
(1.29184 -0.0359629 0)
(1.28597 -0.0353281 0)
(1.27998 -0.0345238 0)
(1.27415 -0.0335794 0)
(1.2686 -0.0325185 0)
(1.26335 -0.031358 0)
(1.25839 -0.0301105 0)
(1.25369 -0.0287859 0)
(1.24923 -0.027393 0)
(1.24502 -0.0259403 0)
(1.24104 -0.0244359 0)
(1.23731 -0.022887 0)
(1.23383 -0.0213005 0)
(1.23061 -0.0196822 0)
(1.22765 -0.0180375 0)
(1.22494 -0.0163708 0)
(1.22251 -0.0146861 0)
(1.22034 -0.0129866 0)
(1.21843 -0.0112753 0)
(1.2168 -0.0095546 0)
(1.21544 -0.00782644 0)
(1.21435 -0.00609283 0)
(1.21353 -0.00435475 0)
(1.21299 -0.00261294 0)
(1.21272 -0.000872676 0)
(1.23261 -0.0237195 0)
(1.2782 -0.0265661 0)
(1.29591 -0.0288314 0)
(1.29951 -0.0298636 0)
(1.29705 -0.0301008 0)
(1.29224 -0.0299481 0)
(1.2866 -0.0295758 0)
(1.2808 -0.0290372 0)
(1.27512 -0.0283604 0)
(1.2697 -0.0275678 0)
(1.26456 -0.0266758 0)
(1.25969 -0.0256959 0)
(1.25508 -0.0246375 0)
(1.2507 -0.0235087 0)
(1.24655 -0.0223172 0)
(1.24263 -0.0210707 0)
(1.23895 -0.0197762 0)
(1.23552 -0.0184401 0)
(1.23233 -0.0170684 0)
(1.22939 -0.0156663 0)
(1.22672 -0.0142385 0)
(1.2243 -0.0127889 0)
(1.22215 -0.0113212 0)
(1.22026 -0.00983857 0)
(1.21864 -0.00834371 0)
(1.21729 -0.00683906 0)
(1.2162 -0.00532691 0)
(1.21539 -0.00380879 0)
(1.21485 -0.00228604 0)
(1.21458 -0.000763327 0)
(1.22679 -0.0170292 0)
(1.27446 -0.0197193 0)
(1.29396 -0.0222777 0)
(1.29868 -0.0235648 0)
(1.29682 -0.0240368 0)
(1.29235 -0.0241261 0)
(1.28695 -0.0240024 0)
(1.28133 -0.0237151 0)
(1.2758 -0.0232908 0)
(1.2705 -0.0227517 0)
(1.26547 -0.0221139 0)
(1.2607 -0.0213885 0)
(1.25617 -0.0205839 0)
(1.25187 -0.0197077 0)
(1.24779 -0.0187671 0)
(1.24393 -0.0177691 0)
(1.24031 -0.0167204 0)
(1.23692 -0.0156273 0)
(1.23377 -0.0144953 0)
(1.23087 -0.0133298 0)
(1.22822 -0.0121354 0)
(1.22583 -0.0109163 0)
(1.2237 -0.00967621 0)
(1.22183 -0.00841855 0)
(1.22022 -0.00714632 0)
(1.21888 -0.00586226 0)
(1.21781 -0.00456895 0)
(1.217 -0.00326837 0)
(1.21646 -0.00196236 0)
(1.2162 -0.000655182 0)
(1.2212 -0.01062 0)
(1.27063 -0.0131259 0)
(1.29183 -0.016012 0)
(1.29761 -0.0174939 0)
(1.29634 -0.0181675 0)
(1.29221 -0.0184872 0)
(1.28704 -0.0186005 0)
(1.28159 -0.0185506 0)
(1.2762 -0.018365 0)
(1.27102 -0.0180663 0)
(1.2661 -0.0176704 0)
(1.26143 -0.0171876 0)
(1.25698 -0.0166258 0)
(1.25276 -0.0159919 0)
(1.24875 -0.0152924 0)
(1.24496 -0.0145341 0)
(1.24139 -0.0137231 0)
(1.23805 -0.0128654 0)
(1.23495 -0.0119665 0)
(1.23209 -0.0110316 0)
(1.22947 -0.0100652 0)
(1.22711 -0.00907161 0)
(1.225 -0.00805472 0)
(1.22315 -0.00701805 0)
(1.22156 -0.00596484 0)
(1.22023 -0.00489805 0)
(1.21916 -0.00382054 0)
(1.21836 -0.00273463 0)
(1.21783 -0.00164259 0)
(1.21757 -0.000548431 0)
(1.21585 -0.00467428 0)
(1.26676 -0.00682266 0)
(1.28954 -0.0100269 0)
(1.29629 -0.0116228 0)
(1.2956 -0.0124847 0)
(1.29182 -0.0130283 0)
(1.28688 -0.013365 0)
(1.28159 -0.013538 0)
(1.27634 -0.0135779 0)
(1.27129 -0.013508 0)
(1.26647 -0.0133429 0)
(1.26189 -0.0130921 0)
(1.25753 -0.0127629 0)
(1.25338 -0.0123617 0)
(1.24945 -0.0118945 0)
(1.24572 -0.0113675 0)
(1.24221 -0.0107865 0)
(1.23892 -0.0101572 0)
(1.23586 -0.00948487 0)
(1.23304 -0.0087745 0)
(1.23046 -0.00803066 0)
(1.22813 -0.00725761 0)
(1.22604 -0.0064593 0)
(1.22422 -0.00563939 0)
(1.22264 -0.00480128 0)
(1.22133 -0.00394815 0)
(1.22028 -0.00308302 0)
(1.21948 -0.00220855 0)
(1.21896 -0.00132734 0)
(1.2187 -0.000443242 0)
(1.21064 0.00114569 0)
(1.263 -0.000870908 0)
(1.28712 -0.00433299 0)
(1.29475 -0.00593007 0)
(1.29463 -0.00698849 0)
(1.29119 -0.00774608 0)
(1.28647 -0.00828966 0)
(1.28135 -0.00867112 0)
(1.27623 -0.00892509 0)
(1.27129 -0.00907339 0)
(1.26657 -0.00912907 0)
(1.26209 -0.00910067 0)
(1.25782 -0.00899483 0)
(1.25375 -0.00881746 0)
(1.24988 -0.00857422 0)
(1.24622 -0.00827072 0)
(1.24277 -0.00791245 0)
(1.23954 -0.00750472 0)
(1.23652 -0.0070526 0)
(1.23374 -0.0065609 0)
(1.2312 -0.00603413 0)
(1.2289 -0.00547654 0)
(1.22685 -0.0048921 0)
(1.22504 -0.00428455 0)
(1.22349 -0.00365742 0)
(1.22219 -0.00301403 0)
(1.22115 -0.00235759 0)
(1.22037 -0.00169099 0)
(1.21985 -0.00101714 0)
(1.21959 -0.000339774 0)
(1.20579 0.00670958 0)
(1.25943 0.00468913 0)
(1.28455 0.00124461 0)
(1.29303 -0.000400982 0)
(1.29345 -0.00168569 0)
(1.29034 -0.00263287 0)
(1.28583 -0.00336495 0)
(1.28087 -0.00394361 0)
(1.27588 -0.00440213 0)
(1.27105 -0.00475934 0)
(1.26643 -0.00502657 0)
(1.26204 -0.00521162 0)
(1.25785 -0.00532066 0)
(1.25386 -0.0053591 0)
(1.25007 -0.00533211 0)
(1.24647 -0.00524482 0)
(1.24308 -0.00510232 0)
(1.2399 -0.00490964 0)
(1.23694 -0.00467159 0)
(1.2342 -0.00439279 0)
(1.2317 -0.00407764 0)
(1.22943 -0.00373036 0)
(1.22741 -0.00335495 0)
(1.22562 -0.0029552 0)
(1.22409 -0.00253472 0)
(1.22281 -0.00209695 0)
(1.22179 -0.00164524 0)
(1.22101 -0.00118269 0)
(1.2205 -0.000712426 0)
(1.22025 -0.000238164 0)
(1.20141 0.012002 0)
(1.25588 0.0100245 0)
(1.28186 0.00669516 0)
(1.29117 0.00491926 0)
(1.29209 0.00345769 0)
(1.28928 0.0023337 0)
(1.28496 0.00142033 0)
(1.28016 0.00065114 0)
(1.2753 -4.2248e-06 0)
(1.27058 -0.000562033 0)
(1.26606 -0.00103253 0)
(1.26175 -0.00142305 0)
(1.25765 -0.00173927 0)
(1.25374 -0.00198611 0)
(1.25001 -0.00216822 0)
(1.24648 -0.00229029 0)
(1.24315 -0.00235702 0)
(1.24003 -0.00237315 0)
(1.23711 -0.00234316 0)
(1.23442 -0.00227156 0)
(1.23196 -0.00216269 0)
(1.22973 -0.00202063 0)
(1.22773 -0.00184937 0)
(1.22598 -0.00165276 0)
(1.22447 -0.00143445 0)
(1.2232 -0.00119799 0)
(1.22219 -0.000946842 0)
(1.22143 -0.000684273 0)
(1.22093 -0.000413601 0)
(1.22067 -0.000138534 0)
(1.19742 0.0170978 0)
(1.25236 0.0152025 0)
(1.27913 0.0119837 0)
(1.28915 0.0100572 0)
(1.29054 0.00845223 0)
(1.28801 0.00716415 0)
(1.28389 0.00607419 0)
(1.27923 0.00511992 0)
(1.27449 0.00427443 0)
(1.26988 0.00352314 0)
(1.26545 0.00285646 0)
(1.26123 0.00226747 0)
(1.25721 0.00175094 0)
(1.25337 0.00130244 0)
(1.24972 0.000917808 0)
(1.24626 0.00059279 0)
(1.24299 0.000323042 0)
(1.23992 0.000104019 0)
(1.23706 -6.85125e-05 0)
(1.23441 -0.000198542 0)
(1.23198 -0.000290464 0)
(1.22979 -0.000348504 0)
(1.22783 -0.000376516 0)
(1.2261 -0.000378308 0)
(1.22461 -0.000357603 0)
(1.22337 -0.000318017 0)
(1.22237 -0.000263098 0)
(1.22162 -0.000196262 0)
(1.22113 -0.000120981 0)
(1.22088 -4.09826e-05 0)
(1.19373 0.022032 0)
(1.2489 0.0202332 0)
(1.27635 0.0171053 0)
(1.28699 0.0150439 0)
(1.2888 0.0133084 0)
(1.28655 0.0118638 0)
(1.28262 0.0106025 0)
(1.2781 0.00946885 0)
(1.27347 0.00843935 0)
(1.26896 0.00750072 0)
(1.26462 0.00664393 0)
(1.26049 0.00586255 0)
(1.25654 0.0051518 0)
(1.25278 0.00450774 0)
(1.2492 0.0039266 0)
(1.2458 0.00340453 0)
(1.24259 0.00293753 0)
(1.23958 0.00252147 0)
(1.23677 0.00215212 0)
(1.23417 0.00182562 0)
(1.23179 0.00153795 0)
(1.22963 0.00128489 0)
(1.2277 0.00106258 0)
(1.226 0.000867192 0)
(1.22454 0.000694976 0)
(1.22331 0.000542256 0)
(1.22233 0.000405414 0)
(1.2216 0.000280919 0)
(1.2211 0.000165166 0)
(1.22086 5.44025e-05 0)
(1.19034 0.0268176 -3.28161e-11)
(1.24555 0.0251218 -3.21389e-11)
(1.27353 0.0220739 0)
(1.28469 0.0198977 -3.07423e-11)
(1.28689 0.0180371 -3.00583e-11)
(1.2849 0.0164396 -8.47319e-28)
(1.28114 0.0150115 2.876e-11)
(1.27676 0.0137038 2.81511e-11)
(1.27224 0.0124956 0)
(1.26783 0.0113749 0)
(1.26358 0.0103333 0)
(1.25953 0.00936482 0)
(1.25566 0.00846527 0)
(1.25197 0.00763111 0)
(1.24846 0.00685897 0)
(1.24513 0.00614536 0)
(1.24198 0.00548656 0)
(1.23902 0.00487877 0)
(1.23626 0.004318 0)
(1.23371 0.00380036 0)
(1.23137 0.00332198 2.27679e-11)
(1.22925 0.00287886 4.50847e-11)
(1.22735 0.00246713 2.23426e-11)
(1.22568 0.00208296 0)
(1.22424 0.00172256 -2.20193e-11)
(1.22304 0.0013822 -2.18954e-11)
(1.22208 0.00105819 0)
(1.22135 0.000746901 -2.17224e-11)
(1.22087 0.000444613 -2.16731e-11)
(1.22063 0.000147547 -6.2458e-28)
(1.18722 0.0314718 3.28169e-11)
(1.24229 0.029882 3.21389e-11)
(1.27067 0.0269069 0)
(1.28228 0.0246308 3.07423e-11)
(1.28483 0.0226479 3.00583e-11)
(1.28307 0.0209001 8.47319e-28)
(1.27948 0.0193085 -2.876e-11)
(1.27522 0.0178308 -2.81511e-11)
(1.27081 0.0164482 0)
(1.26649 0.0151498 0)
(1.26233 0.0139277 0)
(1.25836 0.0127768 0)
(1.25457 0.0116932 0)
(1.25095 0.0106739 0)
(1.24751 0.00971577 0)
(1.24424 0.0088157 0)
(1.24115 0.00797024 0)
(1.23825 0.0071758 0)
(1.23554 0.00642865 0)
(1.23303 0.00572498 0)
(1.23074 0.00506098 -2.27679e-11)
(1.22865 0.00443277 -4.50847e-11)
(1.22679 0.00383651 -2.23426e-11)
(1.22515 0.00326839 0)
(1.22374 0.00272457 2.20193e-11)
(1.22256 0.00220129 2.18954e-11)
(1.22161 0.0016948 0)
(1.2209 0.00120136 2.17224e-11)
(1.22042 0.000717162 2.16731e-11)
(1.22018 0.000238389 6.2458e-28)
(1.18438 0.036016 0)
(1.23915 0.0345324 0)
(1.26777 0.0316211 0)
(1.27974 0.0292539 0)
(1.2826 0.02715 0)
(1.28106 0.0252536 0)
(1.27763 0.0235007 0)
(1.27349 0.0218557 0)
(1.26918 0.0203018 0)
(1.26495 0.0188289 0)
(1.26087 0.01743 0)
(1.25698 0.0161006 0)
(1.25326 0.0148372 0)
(1.24972 0.0136372 0)
(1.24634 0.0124977 0)
(1.24314 0.0114159 0)
(1.24011 0.0103886 0)
(1.23726 0.00941244 0)
(1.23461 0.00848379 0)
(1.23215 0.007599 0)
(1.22989 0.00675433 0)
(1.22785 0.00594598 0)
(1.22602 0.00517011 0)
(1.22441 0.00442289 0)
(1.22303 0.00370049 0)
(1.22187 0.00299909 0)
(1.22094 0.00231487 0)
(1.22024 0.00164402 0)
(1.21977 0.000982644 0)
(1.21954 0.000326874 0)
(1.1818 0.0404711 0)
(1.23609 0.0390909 0)
(1.26484 0.0362316 0)
(1.2771 0.0337774 0)
(1.28022 0.0315518 0)
(1.27888 0.0295074 0)
(1.27559 0.0275946 0)
(1.27157 0.0257838 0)
(1.26736 0.0240605 0)
(1.26321 0.0224155 0)
(1.25922 0.0208428 0)
(1.2554 0.0193382 0)
(1.25176 0.0178987 0)
(1.24828 0.016522 0)
(1.24497 0.0152054 0)
(1.24183 0.0139463 0)
(1.23886 0.0127417 0)
(1.23607 0.0115885 0)
(1.23347 0.0104831 0)
(1.23106 0.00942201 0)
(1.22885 0.00840153 0)
(1.22685 0.0074179 0)
(1.22505 0.00646731 0)
(1.22347 0.00554589 0)
(1.22211 0.00464979 0)
(1.22098 0.00377513 0)
(1.22006 0.00291804 0)
(1.21938 0.00207462 0)
(1.21892 0.0012409 0)
(1.21869 0.000412948 0)
(1.17944 0.044856 0)
(1.23312 0.0435731 0)
(1.26187 0.0407517 0)
(1.27434 0.0382107 0)
(1.27768 0.0358614 0)
(1.27652 0.0336683 0)
(1.27337 0.0315954 0)
(1.26945 0.0296193 0)
(1.26534 0.0277276 0)
(1.26128 0.0259123 0)
(1.25736 0.024168 0)
(1.25362 0.022491 0)
(1.25005 0.0208787 0)
(1.24665 0.0193288 0)
(1.24341 0.017839 0)
(1.24033 0.0164068 0)
(1.23742 0.0150294 0)
(1.23469 0.0137036 0)
(1.23214 0.0124261 0)
(1.22978 0.0111935 0)
(1.22761 0.010002 0)
(1.22565 0.00884799 0)
(1.22389 0.00772756 0)
(1.22234 0.00663686 0)
(1.22101 0.00557198 0)
(1.21989 0.00452899 0)
(1.219 0.00350396 0)
(1.21832 0.00249291 0)
(1.21788 0.00149177 0)
(1.21765 0.000496559 0)
(1.17727 0.0491875 0)
(1.23022 0.0479919 0)
(1.25885 0.0451929 0)
(1.27146 0.0425619 0)
(1.27499 0.0400852 0)
(1.27399 0.0377412 0)
(1.27096 0.0355072 0)
(1.26715 0.0333654 0)
(1.26313 0.0313057 0)
(1.25915 0.0293211 0)
(1.25531 0.027407 0)
(1.25165 0.02556 0)
(1.24815 0.0237778 0)
(1.24482 0.022058 0)
(1.24164 0.0203987 0)
(1.23863 0.0187973 0)
(1.23578 0.0172511 0)
(1.23311 0.0157573 0)
(1.23061 0.0143123 0)
(1.2283 0.0129128 0)
(1.22618 0.0115552 0)
(1.22425 0.0102356 0)
(1.22253 0.00895026 0)
(1.22102 0.00769523 0)
(1.21971 0.00646656 0)
(1.21862 0.00526025 0)
(1.21774 0.00407229 0)
(1.21708 0.00289863 0)
(1.21664 0.0017351 0)
(1.21643 0.000577656 0)
(1.17528 0.0534799 0)
(1.22736 0.0523581 0)
(1.25578 0.0495639 0)
(1.26846 0.0468372 0)
(1.27214 0.0442279 0)
(1.27128 0.04173 0)
(1.26837 0.0393326 0)
(1.26466 0.037024 0)
(1.26073 0.034796 0)
(1.25683 0.0326428 0)
(1.25307 0.0305603 0)
(1.24948 0.0285454 0)
(1.24606 0.0265957 0)
(1.24279 0.0247092 0)
(1.23969 0.0228838 0)
(1.23674 0.0211171 0)
(1.23395 0.0194065 0)
(1.23134 0.0177488 0)
(1.22889 0.0161409 0)
(1.22663 0.0145793 0)
(1.22456 0.0130603 0)
(1.22267 0.0115801 0)
(1.22099 0.0101348 0)
(1.21951 0.00872043 0)
(1.21823 0.00733302 0)
(1.21716 0.00596847 0)
(1.2163 0.00462269 0)
(1.21566 0.00329153 0)
(1.21523 0.00197074 0)
(1.21502 0.000656187 0)
(1.17343 0.0577444 0)
(1.22454 0.0566794 0)
(1.25264 0.0538709 0)
(1.26533 0.0510403 0)
(1.26912 0.0482924 0)
(1.26838 0.0456363 0)
(1.26559 0.0430729 0)
(1.26197 0.0405957 0)
(1.25813 0.0381987 0)
(1.25432 0.0358773 0)
(1.25064 0.0336275 0)
(1.24713 0.0314465 0)
(1.24377 0.0293319 0)
(1.24058 0.0272817 0)
(1.23755 0.0252937 0)
(1.23466 0.0233655 0)
(1.23194 0.0214944 0)
(1.22938 0.0196774 0)
(1.22699 0.0179111 0)
(1.22478 0.016192 0)
(1.22276 0.0145164 0)
(1.22092 0.0128805 0)
(1.21927 0.0112803 0)
(1.21782 0.00971179 0)
(1.21657 0.00817079 0)
(1.21553 0.00665318 0)
(1.21469 0.00515478 0)
(1.21406 0.00367134 0)
(1.21364 0.00219852 0)
(1.21343 0.000732098 0)
(1.17168 0.061988 0)
(1.22172 0.06096 0)
(1.24942 0.0581169 0)
(1.26205 0.0551726 0)
(1.26593 0.0522789 0)
(1.2653 0.04946 0)
(1.26261 0.0467272 0)
(1.2591 0.0440794 0)
(1.25534 0.0415128 0)
(1.25162 0.0390233 0)
(1.24802 0.0366073 0)
(1.24458 0.0342621 0)
(1.24131 0.0319851 0)
(1.23819 0.0297741 0)
(1.23522 0.0276269 0)
(1.23241 0.0255411 0)
(1.22975 0.0235137 0)
(1.22725 0.0215416 0)
(1.22492 0.0196216 0)
(1.22276 0.0177498 0)
(1.22078 0.0159227 0)
(1.21898 0.0141361 0)
(1.21738 0.0123862 0)
(1.21596 0.0106686 0)
(1.21474 0.00897925 0)
(1.21372 0.00731387 0)
(1.2129 0.00566816 0)
(1.21229 0.00403778 0)
(1.21188 0.00241827 0)
(1.21167 0.000805333 0)
(1.16999 0.0662135 0)
(1.21888 0.0652003 0)
(1.24611 0.0623012 0)
(1.25863 0.0592323 0)
(1.26256 0.0561853 0)
(1.26203 0.0531984 0)
(1.25944 0.050293 0)
(1.25602 0.0474728 0)
(1.25236 0.0447357 0)
(1.24873 0.0420784 0)
(1.24521 0.0394974 0)
(1.24186 0.0369899 0)
(1.23866 0.034553 0)
(1.23561 0.0321844 0)
(1.23272 0.0298817 0)
(1.22997 0.0276421 0)
(1.22738 0.0254626 0)
(1.22494 0.0233401 0)
(1.22267 0.021271 0)
(1.22057 0.0192516 0)
(1.21864 0.0172779 0)
(1.21688 0.0153459 0)
(1.21532 0.0134513 0)
(1.21394 0.0115901 0)
(1.21275 0.00975775 0)
(1.21175 0.00794999 0)
(1.21095 0.00616241 0)
(1.21035 0.00439053 0)
(1.20995 0.00262981 0)
(1.20975 0.000875828 0)
(1.16833 0.0704185 0)
(1.21599 0.0693963 0)
(1.24267 0.0664196 0)
(1.25505 0.0632147 0)
(1.259 0.0600067 0)
(1.25856 0.056847 0)
(1.25607 0.0537658 0)
(1.25276 0.0507715 0)
(1.24919 0.0478636 0)
(1.24564 0.0450391 0)
(1.24222 0.0422946 0)
(1.23895 0.0396268 0)
(1.23583 0.0370329 0)
(1.23286 0.0345101 0)
(1.23004 0.0320555 0)
(1.22737 0.0296664 0)
(1.22484 0.0273394 0)
(1.22247 0.0250711 0)
(1.22026 0.0228579 0)
(1.21821 0.0206958 0)
(1.21633 0.0185807 0)
(1.21462 0.0165085 0)
(1.21309 0.0144749 0)
(1.21175 0.0124754 0)
(1.21059 0.0105056 0)
(1.20962 0.00856096 0)
(1.20885 0.00663707 0)
(1.20826 0.00472929 0)
(1.20787 0.00283295 0)
(1.20768 0.000943521 0)
(1.16665 0.0745955 0)
(1.21302 0.0735392 0)
(1.23911 0.0704637 0)
(1.2513 0.0671115 0)
(1.25525 0.0637355 0)
(1.25489 0.0603985 0)
(1.25251 0.0571391 0)
(1.24929 0.0539696 0)
(1.24583 0.050891 0)
(1.24238 0.0479004 0)
(1.23904 0.0449944 0)
(1.23586 0.0421691 0)
(1.23282 0.0394214 0)
(1.22994 0.036748 0)
(1.2272 0.0341457 0)
(1.2246 0.0316114 0)
(1.22214 0.0291416 0)
(1.21983 0.0267325 0)
(1.21768 0.0243803 0)
(1.21569 0.0220808 0)
(1.21386 0.0198298 0)
(1.2122 0.0176229 0)
(1.21072 0.0154557 0)
(1.20941 0.0133235 0)
(1.20828 0.0112219 0)
(1.20734 0.00914615 0)
(1.20659 0.00709165 0)
(1.20602 0.00505369 0)
(1.20564 0.00302747 0)
(1.20545 0.00100834 0)
(1.16493 0.0787316 0)
(1.20996 0.0776158 0)
(1.2354 0.0744215 0)
(1.24736 0.0709115 0)
(1.25131 0.0673612 0)
(1.25102 0.0638437 0)
(1.24874 0.0604046 0)
(1.24563 0.0570598 0)
(1.24227 0.0538114 0)
(1.23892 0.0506566 0)
(1.23568 0.0475915 0)
(1.23259 0.044612 0)
(1.22965 0.0417142 0)
(1.22685 0.0388943 0)
(1.22419 0.0361489 0)
(1.22166 0.0334743 0)
(1.21928 0.0308667 0)
(1.21704 0.0283221 0)
(1.21495 0.0258363 0)
(1.21302 0.0234049 0)
(1.21124 0.0210236 0)
(1.20963 0.0186877 0)
(1.20819 0.0163926 0)
(1.20692 0.0141336 0)
(1.20583 0.0119059 0)
(1.20491 0.0097049 0)
(1.20418 0.00752566 0)
(1.20363 0.00536339 0)
(1.20326 0.00321317 0)
(1.20307 0.00107022 0)
(1.16312 0.0828088 0)
(1.20677 0.0816085 0)
(1.23152 0.0782769 0)
(1.24323 0.0746003 0)
(1.24716 0.0708711 0)
(1.24695 0.067171 0)
(1.24477 0.063552 0)
(1.24177 0.0600331 0)
(1.23853 0.0566169 0)
(1.23529 0.0533007 0)
(1.23215 0.05008 0)
(1.22916 0.0469502 0)
(1.22631 0.0439066 0)
(1.22359 0.0409451 0)
(1.22102 0.0380615 0)
(1.21857 0.0352518 0)
(1.21627 0.0325119 0)
(1.2141 0.0298373 0)
(1.21207 0.0272236 0)
(1.2102 0.0246662 0)
(1.20848 0.0221603 0)
(1.20692 0.0197014 0)
(1.20552 0.0172844 0)
(1.20429 0.0149045 0)
(1.20323 0.0125569 0)
(1.20235 0.0102365 0)
(1.20163 0.00793857 0)
(1.2011 0.00565801 0)
(1.20074 0.00338982 0)
(1.20056 0.00112909 0)
(1.16119 0.0868042 0)
(1.20343 0.0854953 0)
(1.22746 0.0820108 0)
(1.23891 0.0781607 0)
(1.2428 0.0742501 0)
(1.24266 0.0703673 0)
(1.24059 0.0665699 0)
(1.23772 0.0628792 0)
(1.2346 0.0592986 0)
(1.23147 0.0558249 0)
(1.22845 0.052453 0)
(1.22555 0.0491776 0)
(1.2228 0.0459934 0)
(1.22018 0.0428956 0)
(1.21769 0.0398794 0)
(1.21534 0.0369405 0)
(1.21311 0.034074 0)
(1.21101 0.0312754 0)
(1.20906 0.0285399 0)
(1.20724 0.0258625 0)
(1.20558 0.0232384 0)
(1.20407 0.0206625 0)
(1.20272 0.0181298 0)
(1.20153 0.0156352 0)
(1.20051 0.0131738 0)
(1.19965 0.0107403 0)
(1.19896 0.00832984 0)
(1.19844 0.00593718 0)
(1.19809 0.0035572 0)
(1.19792 0.00118486 0)
(1.15911 0.0906906 0)
(1.19993 0.089251 0)
(1.22322 0.085601 0)
(1.23438 0.0815735 0)
(1.23823 0.0774811 0)
(1.23817 0.0734176 0)
(1.23623 0.0694452 0)
(1.23348 0.065587 0)
(1.23049 0.0618467 0)
(1.22748 0.0582207 0)
(1.22457 0.0547032 0)
(1.22179 0.051288 0)
(1.21914 0.0479691 0)
(1.21662 0.044741 0)
(1.21423 0.0415985 0)
(1.21195 0.0385366 0)
(1.20981 0.03555 0)
(1.20779 0.0326338 0)
(1.2059 0.0297828 0)
(1.20416 0.0269919 0)
(1.20255 0.0242559 0)
(1.2011 0.0215695 0)
(1.19979 0.0189275 0)
(1.19864 0.0163247 0)
(1.19765 0.0137558 0)
(1.19682 0.0112156 0)
(1.19616 0.00869894 0)
(1.19566 0.00620053 0)
(1.19532 0.00371508 0)
(1.19515 0.00123747 0)
(1.15685 0.0944373 0)
(1.19624 0.0928474 0)
(1.21878 0.0890233 0)
(1.22965 0.0848176 0)
(1.23347 0.080546 0)
(1.23349 0.0763062 0)
(1.23166 0.0721642 0)
(1.22906 0.0681446 0)
(1.2262 0.064251 0)
(1.22333 0.0604792 0)
(1.22054 0.0568228 0)
(1.21788 0.0532745 0)
(1.21534 0.0498278 0)
(1.21292 0.0464764 0)
(1.21062 0.0432145 0)
(1.20844 0.0400363 0)
(1.20638 0.0369365 0)
(1.20444 0.0339096 0)
(1.20262 0.03095 0)
(1.20094 0.0280523 0)
(1.1994 0.0252111 0)
(1.198 0.0224209 0)
(1.19674 0.0196763 0)
(1.19563 0.0169718 0)
(1.19468 0.014302 0)
(1.19388 0.0116617 0)
(1.19324 0.00904535 0)
(1.19276 0.00644768 0)
(1.19243 0.00386326 0)
(1.19227 0.00128685 0)
(1.15439 0.0980111 0)
(1.19235 0.0962545 0)
(1.21414 0.0922521 0)
(1.22471 0.0878709 0)
(1.2285 0.0834255 0)
(1.2286 0.0790165 0)
(1.22692 0.0747127 0)
(1.22446 0.0705397 0)
(1.22175 0.0665009 0)
(1.21901 0.0625914 0)
(1.21636 0.0588039 0)
(1.21382 0.0551305 0)
(1.21139 0.0515638 0)
(1.20908 0.0480967 0)
(1.20688 0.0447229 0)
(1.2048 0.0414361 0)
(1.20282 0.0382305 0)
(1.20096 0.0351 0)
(1.19922 0.032039 0)
(1.19761 0.0290417 0)
(1.19613 0.0261024 0)
(1.19478 0.0232153 0)
(1.19358 0.0203749 0)
(1.19251 0.0175756 0)
(1.1916 0.0148117 0)
(1.19083 0.0120779 0)
(1.19021 0.00936858 0)
(1.18975 0.0066783 0)
(1.18944 0.00400153 0)
(1.18928 0.00133292 0)
(1.15172 0.101377 0)
(1.18827 0.0994414 0)
(1.20931 0.0952611 0)
(1.21959 0.090711 0)
(1.22334 0.0861004 0)
(1.22354 0.0815319 0)
(1.222 0.0770764 0)
(1.2197 0.0727601 0)
(1.21714 0.0685858 0)
(1.21455 0.0645482 0)
(1.21204 0.0606389 0)
(1.20962 0.0568493 0)
(1.20732 0.0531713 0)
(1.20512 0.049597 0)
(1.20303 0.0461196 0)
(1.20104 0.0427322 0)
(1.19915 0.0394286 0)
(1.19738 0.0362025 0)
(1.19571 0.0330477 0)
(1.19417 0.0299582 0)
(1.19275 0.026928 0)
(1.19147 0.0239513 0)
(1.19031 0.0210222 0)
(1.18929 0.018135 0)
(1.18841 0.0152841 0)
(1.18767 0.0124636 0)
(1.18708 0.00966817 0)
(1.18664 0.00689205 0)
(1.18634 0.0041297 0)
(1.18619 0.00137563 0)
(1.14883 0.104501 0)
(1.18399 0.102377 0)
(1.20428 0.0980247 0)
(1.21428 0.0933158 0)
(1.218 0.0885519 0)
(1.2183 0.0838363 0)
(1.21691 0.0792416 0)
(1.21478 0.0747939 0)
(1.21239 0.0704957 0)
(1.20995 0.0663409 0)
(1.20758 0.0623203 0)
(1.2053 0.0584246 0)
(1.20312 0.0546448 0)
(1.20104 0.0509727 0)
(1.19906 0.0474006 0)
(1.19717 0.0439213 0)
(1.19537 0.0405282 0)
(1.19369 0.0372145 0)
(1.1921 0.0339738 0)
(1.19063 0.0307999 0)
(1.18928 0.0276865 0)
(1.18805 0.0246276 0)
(1.18694 0.0216172 0)
(1.18597 0.0186494 0)
(1.18513 0.0157184 0)
(1.18442 0.0128184 0)
(1.18386 0.00994371 0)
(1.18343 0.00708867 0)
(1.18315 0.00424759 0)
(1.183 0.00141491 0)
(1.14572 0.107349 0)
(1.17951 0.105033 0)
(1.19908 0.100518 0)
(1.20879 0.0956647 0)
(1.2125 0.0907621 0)
(1.21291 0.0859146 0)
(1.21168 0.0811952 0)
(1.20972 0.0766301 0)
(1.2075 0.0722212 0)
(1.20523 0.0679614 0)
(1.20301 0.0638412 0)
(1.20087 0.0598505 0)
(1.19882 0.0559795 0)
(1.19686 0.0522195 0)
(1.19499 0.0485623 0)
(1.1932 0.0450004 0)
(1.1915 0.0415265 0)
(1.1899 0.0381338 0)
(1.1884 0.0348156 0)
(1.187 0.0315653 0)
(1.18572 0.0283766 0)
(1.18454 0.0252431 0)
(1.18349 0.0221589 0)
(1.18256 0.0191179 0)
(1.18176 0.0161141 0)
(1.18109 0.0131417 0)
(1.18055 0.0101949 0)
(1.18014 0.00726791 0)
(1.17987 0.00435508 0)
(1.17973 0.00145073 0)
(1.14239 0.109888 0)
(1.17485 0.107383 0)
(1.19371 0.10272 0)
(1.20316 0.0977389 0)
(1.20686 0.0927153 0)
(1.20739 0.0877531 0)
(1.20633 0.0829258 0)
(1.20455 0.078259 0)
(1.2025 0.0737538 0)
(1.2004 0.0694028 0)
(1.19833 0.0651957 0)
(1.19634 0.0611218 0)
(1.19442 0.0571709 0)
(1.19258 0.0533337 0)
(1.19082 0.0496016 0)
(1.18914 0.0459667 0)
(1.18754 0.0424215 0)
(1.18603 0.0389587 0)
(1.18461 0.0355715 0)
(1.18329 0.0322532 0)
(1.18207 0.0289972 0)
(1.18096 0.0257971 0)
(1.17996 0.0226467 0)
(1.17908 0.0195399 0)
(1.17831 0.0164707 0)
(1.17767 0.0134331 0)
(1.17716 0.0104214 0)
(1.17677 0.0074296 0)
(1.17651 0.00445205 0)
(1.17638 0.00148305 0)
(1.13886 0.112093 0)
(1.17002 0.109401 0)
(1.1882 0.104611 0)
(1.19739 0.0995221 0)
(1.20109 0.0943976 0)
(1.20174 0.0893404 0)
(1.20086 0.0844236 0)
(1.19927 0.079672 0)
(1.1974 0.0750865 0)
(1.19547 0.0706589 0)
(1.19357 0.0663786 0)
(1.19172 0.0622344 0)
(1.18994 0.0582155 0)
(1.18823 0.0543124 0)
(1.18658 0.0505161 0)
(1.18501 0.0468183 0)
(1.18351 0.0432113 0)
(1.18209 0.0396877 0)
(1.18075 0.0362404 0)
(1.1795 0.0328626 0)
(1.17835 0.0295475 0)
(1.1773 0.0262888 0)
(1.17636 0.02308 0)
(1.17552 0.0199151 0)
(1.1748 0.0167879 0)
(1.17419 0.0136925 0)
(1.1737 0.010623 0)
(1.17333 0.0075736 0)
(1.17308 0.00453843 0)
(1.17296 0.00151184 0)
(1.13514 0.113937 0)
(1.16505 0.111071 0)
(1.18256 0.106175 0)
(1.19152 0.101001 0)
(1.19522 0.0957981 0)
(1.19601 0.0906671 0)
(1.1953 0.0856806 0)
(1.1939 0.0808628 0)
(1.19222 0.0762138 0)
(1.19047 0.0717253 0)
(1.18873 0.0673862 0)
(1.18703 0.0631849 0)
(1.18539 0.0591107 0)
(1.1838 0.0551534 0)
(1.18228 0.0513038 0)
(1.18081 0.0475536 0)
(1.17941 0.0438948 0)
(1.17808 0.0403198 0)
(1.17683 0.0368215 0)
(1.17566 0.0333929 0)
(1.17457 0.0300272 0)
(1.17358 0.0267179 0)
(1.17269 0.0234587 0)
(1.1719 0.0202433 0)
(1.17122 0.0170656 0)
(1.17064 0.0139198 0)
(1.17018 0.0107998 0)
(1.16983 0.00769989 0)
(1.1696 0.00461421 0)
(1.16948 0.00153711 0)
(1.13125 0.115404 0)
(1.15996 0.112376 0)
(1.17684 0.1074 0)
(1.18556 0.102168 0)
(1.18928 0.0969091 0)
(1.1902 0.0917268 0)
(1.18967 0.0866916 0)
(1.18847 0.0818267 0)
(1.18698 0.0771319 0)
(1.18541 0.0725987 0)
(1.18383 0.0682158 0)
(1.18228 0.0639715 0)
(1.18078 0.0598547 0)
(1.17932 0.0558553 0)
(1.17792 0.0519639 0)
(1.17656 0.048172 0)
(1.17526 0.0444714 0)
(1.17402 0.0408547 0)
(1.17285 0.0373145 0)
(1.17176 0.0338438 0)
(1.17074 0.030436 0)
(1.16981 0.0270843 0)
(1.16897 0.0237825 0)
(1.16823 0.0205244 0)
(1.16758 0.0173038 0)
(1.16704 0.0141149 0)
(1.16661 0.0109517 0)
(1.16628 0.00780847 0)
(1.16606 0.0046794 0)
(1.16595 0.00155884 0)
(1.12723 0.116481 0)
(1.15477 0.113309 0)
(1.17104 0.108282 0)
(1.17956 0.103015 0)
(1.1833 0.0977263 0)
(1.18435 0.0925161 0)
(1.18401 0.0874538 0)
(1.183 0.0825616 0)
(1.1817 0.0778391 0)
(1.1803 0.0732778 0)
(1.17889 0.0688665 0)
(1.17749 0.0645933 0)
(1.17613 0.0604472 0)
(1.1748 0.0564179 0)
(1.17351 0.0524961 0)
(1.17227 0.0486733 0)
(1.17107 0.0449413 0)
(1.16992 0.0412925 0)
(1.16883 0.0377196 0)
(1.16781 0.0342158 0)
(1.16686 0.0307742 0)
(1.16599 0.0273884 0)
(1.16521 0.0240519 0)
(1.16451 0.0207588 0)
(1.16391 0.0175028 0)
(1.1634 0.0142781 0)
(1.16299 0.0110789 0)
(1.16268 0.00789948 0)
(1.16247 0.00473406 0)
(1.16237 0.00157707 0)
(1.1231 0.117161 0)
(1.14953 0.113867 0)
(1.16522 0.108816 0)
(1.17353 0.103543 0)
(1.17729 0.0982489 0)
(1.17848 0.0930344 0)
(1.17832 0.0879669 0)
(1.1775 0.0830674 0)
(1.17639 0.0783356 0)
(1.17517 0.0737631 0)
(1.17392 0.0693387 0)
(1.17268 0.0650509 0)
(1.17146 0.0608887 0)
(1.17026 0.0568419 0)
(1.16908 0.0529013 0)
(1.16794 0.0490583 0)
(1.16684 0.045305 0)
(1.16578 0.0416339 0)
(1.16478 0.0380376 0)
(1.16383 0.0345094 0)
(1.16295 0.0310426 0)
(1.16214 0.0276306 0)
(1.16141 0.0242674 0)
(1.16076 0.0209468 0)
(1.16019 0.0176629 0)
(1.15971 0.0144097 0)
(1.15933 0.0111817 0)
(1.15904 0.0079731 0)
(1.15884 0.00477832 0)
(1.15875 0.00159184 0)
(1.11889 0.117445 0)
(1.14425 0.11405 0)
(1.15939 0.109007 0)
(1.16751 0.103753 0)
(1.1713 0.0984798 0)
(1.17262 0.0932847 0)
(1.17264 0.0882335 0)
(1.17201 0.0833466 0)
(1.17108 0.0786236 0)
(1.17004 0.0740565 0)
(1.16895 0.0696345 0)
(1.16786 0.0653462 0)
(1.16677 0.061181 0)
(1.16569 0.057129 0)
(1.16464 0.053181 0)
(1.1636 0.0493287 0)
(1.1626 0.0455642 0)
(1.16163 0.0418803 0)
(1.16071 0.0382697 0)
(1.15983 0.0347258 0)
(1.15902 0.0312421 0)
(1.15827 0.0278121 0)
(1.15758 0.0244299 0)
(1.15698 0.0210893 0)
(1.15645 0.0177847 0)
(1.156 0.0145103 0)
(1.15564 0.0112604 0)
(1.15537 0.00802964 0)
(1.15519 0.00481235 0)
(1.1551 0.00160321 0)
(1.11464 0.117338 0)
(1.13898 0.113869 0)
(1.15359 0.108861 0)
(1.16152 0.103654 0)
(1.16534 0.0984253 0)
(1.16679 0.0932726 0)
(1.16698 0.0882589 0)
(1.16654 0.0834038 0)
(1.16579 0.0787074 0)
(1.16492 0.074162 0)
(1.16399 0.0697573 0)
(1.16304 0.0654825 0)
(1.16208 0.0613273 0)
(1.16113 0.0572819 0)
(1.16019 0.0533377 0)
(1.15926 0.0494866 0)
(1.15835 0.045721 0)
(1.15746 0.0420337 0)
(1.15662 0.0384177 0)
(1.15582 0.0348667 0)
(1.15507 0.0313742 0)
(1.15437 0.027934 0)
(1.15374 0.0245403 0)
(1.15318 0.0211873 0)
(1.15269 0.0178692 0)
(1.15227 0.0145805 0)
(1.15194 0.0113157 0)
(1.15168 0.00806945 0)
(1.15151 0.00483639 0)
(1.15143 0.00161124 0)
(1.11038 0.116853 0)
(1.13375 0.113335 0)
(1.14784 0.108391 0)
(1.15561 0.103255 0)
(1.15944 0.0980953 0)
(1.16102 0.0930068 0)
(1.16138 0.0880508 0)
(1.16111 0.0832461 0)
(1.16054 0.0785933 0)
(1.15983 0.0740853 0)
(1.15905 0.0697125 0)
(1.15824 0.0654645 0)
(1.15741 0.0613316 0)
(1.15658 0.0573046 0)
(1.15574 0.0533752 0)
(1.15491 0.0495355 0)
(1.1541 0.0457783 0)
(1.1533 0.0420967 0)
(1.15253 0.0384841 0)
(1.1518 0.0349342 0)
(1.15111 0.0314408 0)
(1.15047 0.0279982 0)
(1.14989 0.0246004 0)
(1.14937 0.0212419 0)
(1.14891 0.0179173 0)
(1.14853 0.0146211 0)
(1.14822 0.0113481 0)
(1.14798 0.00809302 0)
(1.14782 0.0048507 0)
(1.14775 0.00161604 0)
(1.10614 0.116007 0)
(1.12858 0.112467 0)
(1.14219 0.107613 0)
(1.14978 0.102572 0)
(1.15364 0.0975023 0)
(1.15533 0.0924986 0)
(1.15585 0.0876191 0)
(1.15575 0.0828824 0)
(1.15534 0.0782892 0)
(1.15479 0.0738335 0)
(1.15415 0.0695063 0)
(1.15348 0.0652979 0)
(1.15277 0.0611993 0)
(1.15205 0.0572018 0)
(1.15132 0.0532974 0)
(1.15059 0.049479 0)
(1.14986 0.0457395 0)
(1.14914 0.0420724 0)
(1.14845 0.0384715 0)
(1.14778 0.0349307 0)
(1.14715 0.0314442 0)
(1.14657 0.0280064 0)
(1.14604 0.0246117 0)
(1.14556 0.0212547 0)
(1.14514 0.0179303 0)
(1.14478 0.0146332 0)
(1.14449 0.0113584 0)
(1.14427 0.0081009 0)
(1.14413 0.00485562 0)
(1.14405 0.00161771 0)
(1.10196 0.114823 0)
(1.1235 0.111286 0)
(1.13664 0.106547 0)
(1.14407 0.101621 0)
(1.14795 0.0966621 0)
(1.14975 0.0917619 0)
(1.15041 0.0869763 0)
(1.15047 0.0823235 0)
(1.15022 0.077805 0)
(1.14981 0.0734154 0)