/*--------------------------------*- C++ -*----------------------------------*\
  =========                 |
  \\      /  F ield         | OpenFOAM: The Open Source CFD Toolbox
   \\    /   O peration     | Website:  https://openfoam.org
    \\  /    A nd           | Version:  7
     \\/     M anipulation  |
\*---------------------------------------------------------------------------*/
FoamFile
{
    version     2.0;
    format      ascii;
    class       volScalarField;
    location    "25";
    object      p;
}
// * * * * * * * * * * * * * * * * * * * * * * * * * * * * * * * * * * * * * //

dimensions      [0 2 -2 0 0 0 0];

internalField   nonuniform List<scalar> 
1360
(
-0.311055
0.848041
0.79896
0.848041
0.79896
0.819452
0.771834
0.76357
0.718819
0.682917
0.642326
0.614874
0.581105
0.545811
0.523262
0.510477
0.462647
0.433585
0.416649
0.409486
0.332702
0.310576
0.299682
0.29839
0.301715
0.196797
0.182061
0.177351
0.181831
0.191379
0.203066
0.214838
0.0605326
0.0533474
0.0547071
0.0645476
0.0797665
0.0975629
0.115726
0.132693
0.147547
-0.0707033
-0.0705432
-0.0634392
-0.0488938
-0.0288547
-0.00585769
0.0178464
0.0405641
0.0612172
0.0792629
0.0945544
-0.192515
-0.184939
-0.172745
-0.154383
-0.130551
-0.103537
-0.0754555
-0.0480391
-0.0224872
0.00051015
0.0206754
0.0380169
0.05272
0.0650589
-0.300546
-0.286387
-0.269705
-0.248378
-0.222021
-0.1923
-0.16119
-0.13037
-0.101074
-0.0741298
-0.0499309
-0.0285876
-0.010005
0.00603273
0.0197872
0.0315217
0.0415772
-0.392071
-0.372147
-0.351747
-0.328374
-0.300602
-0.269534
-0.236842
-0.204045
-0.172357
-0.142646
-0.115435
-0.0909524
-0.0692084
-0.0500682
-0.0333228
-0.0187397
-0.00602377
0.00529887
0.0153788
0.0221519
-0.465386
-0.440683
-0.417378
-0.392793
-0.364634
-0.333462
-0.300572
-0.26723
-0.234535
-0.203355
-0.174285
-0.14766
-0.1236
-0.102068
-0.0829271
-0.0659956
-0.0510366
-0.0376831
-0.0256908
-0.0164063
-0.519948
-0.491611
-0.466226
-0.441141
-0.413433
-0.383182
-0.351289
-0.318706
-0.286342
-0.254991
-0.225266
-0.197573
-0.172131
-0.149005
-0.128146
-0.10944
-0.0927179
-0.0777049
-0.0641895
-0.0529393
-0.556336
-0.525602
-0.498959
-0.473952
-0.447301
-0.418715
-0.388728
-0.357964
-0.327089
-0.296758
-0.267536
-0.239854
-0.213999
-0.190123
-0.168267
-0.148395
-0.130411
-0.11414
-0.0993939
-0.0864823
-0.576078
-0.544209
-0.517108
-0.492643
-0.467435
-0.44096
-0.413455
-0.385242
-0.356732
-0.328394
-0.300689
-0.274018
-0.248688
-0.224909
-0.2028
-0.182399
-0.163686
-0.146584
-0.130949
-0.116687
-0.581415
-0.54963
-0.52283
-0.499282
-0.475729
-0.451548
-0.426775
-0.401493
-0.375878
-0.350206
-0.324795
-0.299964
-0.275995
-0.253115
-0.231489
-0.211214
-0.192339
-0.174881
-0.158768
-0.143608
-0.575024
-0.544419
-0.518622
-0.496308
-0.474513
-0.452624
-0.430569
-0.408274
-0.385737
-0.363058
-0.34041
-0.317999
-0.296039
-0.274734
-0.254256
-0.234733
-0.21626
-0.198925
-0.182744
-0.16712
-0.559729
-0.531221
-0.507041
-0.486247
-0.466265
-0.446567
-0.427048
-0.407558
-0.387986
-0.368305
-0.348559
-0.328844
-0.309288
-0.290039
-0.27124
-0.253021
-0.23549
-0.218777
-0.202987
-0.187346
-0.53824
-0.512526
-0.490471
-0.471455
-0.453336
-0.435705
-0.418475
-0.401482
-0.384568
-0.367635
-0.350641
-0.333593
-0.31654
-0.299564
-0.282765
-0.266247
-0.250107
-0.234496
-0.219616
-0.204488
-0.512947
-0.490494
-0.470945
-0.453934
-0.437741
-0.422081
-0.406908
-0.39208
-0.377441
-0.362868
-0.348277
-0.333626
-0.318908
-0.304159
-0.289441
-0.274836
-0.260435
-0.246427
-0.233227
-0.219704
-0.485793
-0.466852
-0.450061
-0.43523
-0.421033
-0.40729
-0.393996
-0.381048
-0.368316
-0.355683
-0.343059
-0.330379
-0.31761
-0.304758
-0.291865
-0.279008
-0.26628
-0.253956
-0.242952
-0.232517
-0.458225
-0.442878
-0.428971
-0.416432
-0.404283
-0.392429
-0.380895
-0.369618
-0.358502
-0.347454
-0.336394
-0.325258
-0.314007
-0.302634
-0.291177
-0.27973
-0.268417
-0.25748
-0.248153
-0.24275
-0.431249
-0.419456
-0.408447
-0.398231
-0.388136
-0.378133
-0.368265
-0.358502
-0.348779
-0.339027
-0.329177
-0.31916
-0.308915
-0.298383
-0.287511
-0.276277
-0.264646
-0.252102
-0.237272
-0.225743
-0.405556
-0.397182
-0.388996
-0.38105
-0.372953
-0.364727
-0.356429
-0.348058
-0.339579
-0.330952
-0.322128
-0.313055
-0.303681
-0.293948
-0.283805
-0.273244
-0.262311
-0.250578
-0.236493
-0.225485
-0.381687
-0.376542
-0.371006
-0.365186
-0.358952
-0.35237
-0.345511
-0.338397
-0.331025
-0.323384
-0.315451
-0.307199
-0.298599
-0.289616
-0.280225
-0.27045
-0.260374
-0.249644
-0.23707
-0.227805
-0.360175
-0.357987
-0.354852
-0.350937
-0.346355
-0.341224
-0.335621
-0.329595
-0.323173
-0.31637
-0.30919
-0.301633
-0.293694
-0.285365
-0.276647
-0.267592
-0.258286
-0.248446
-0.237291
-0.229303
-0.341647
-0.342047
-0.34098
-0.338676
-0.335479
-0.331549
-0.32698
-0.321845
-0.316197
-0.310076
-0.303513
-0.296533
-0.289157
-0.281407
-0.273312
-0.264945
-0.256394
-0.247474
-0.237766
-0.230609
-0.326821
-0.329323
-0.329906
-0.328863
-0.326736
-0.323727
-0.319944
-0.315482
-0.310418
-0.304815
-0.298725
-0.292197
-0.285276
-0.27801
-0.270456
-0.262697
-0.254825
-0.246764
-0.238366
-0.231676
-0.316424
-0.320417
-0.322151
-0.321975
-0.320574
-0.318186
-0.31493
-0.310917
-0.306242
-0.300985
-0.295217
-0.289001
-0.282404
-0.275492
-0.26834
-0.261039
-0.253683
-0.24629
-0.238876
-0.232402
-0.311055
-0.315823
-0.318151
-0.318416
-0.317382
-0.315305
-0.312313
-0.308523
-0.304043
-0.29896
-0.293353
-0.287298
-0.280869
-0.274145
-0.267209
-0.260155
-0.253077
-0.24605
-0.239164
-0.232762
0.0243796
0.0258747
0.0262313
0.0272655
0.0284733
0.0296811
0.0308698
0.0320137
0.0330757
0.0340368
0.034891
0.0356376
0.0362781
0.0368153
0.0372523
0.0375921
0.0378377
0.0379876
0.0380307
0.0380073
-0.00966597
-0.00346939
0.00105481
0.00534133
0.00912722
0.0123664
0.0152078
0.0177426
0.019952
0.021866
0.0235168
0.0249304
0.0261283
0.0271291
0.0279476
0.0285959
0.0290843
0.0294177
0.0295886
0.0296271
-0.0420293
-0.0312102
-0.022899
-0.0157104
-0.009559
-0.00450404
-0.000147541
0.00374308
0.00704483
0.00986877
0.0122833
0.0143381
0.0160737
0.0175234
0.0187133
0.0196643
0.0203933
0.0209116
0.0212175
0.0213269
-0.0720735
-0.0573416
-0.0456227
-0.0358539
-0.0276262
-0.0206704
-0.0147555
-0.00972205
-0.00544598
-0.00179322
0.00132646
0.00398004
0.0062224
0.0080982
0.00964321
0.0108858
0.0118486
0.012548
0.0129888
0.0131816
-0.0992347
-0.0813939
-0.0668488
-0.0547855
-0.0446883
-0.0361566
-0.0289233
-0.0227921
-0.0175773
-0.0131261
-0.0093291
-0.00610097
-0.00337222
-0.00108675
0.000800257
0.00232438
0.00351387
0.00439038
0.00496417
0.00523427
-0.123684
-0.103346
-0.0865222
-0.072528
-0.0607937
-0.0508776
-0.0424698
-0.0353221
-0.0292273
-0.0240234
-0.0195858
-0.0158132
-0.0126228
-0.00994823
-0.00773618
-0.00594446
-0.0045396
-0.00349477
-0.00279416
-0.00245059
-0.145195
-0.123067
-0.104646
-0.0891055
-0.0759159
-0.0647394
-0.0552665
-0.0471959
-0.0402962
-0.0343982
-0.0293654
-0.0250837
-0.0214599
-0.0184193
-0.0159016
-0.0138587
-0.0122525
-0.0110516
-0.0102341
-0.00982162
-0.163592
-0.140685
-0.121612
-0.104851
-0.0902667
-0.0778932
-0.0674113
-0.058451
-0.0507759
-0.0442164
-0.0386206
-0.0338592
-0.0298285
-0.0264456
-0.0236432
-0.0213675
-0.0195764
-0.0182344
-0.017314
-0.0168405
-0.178603
-0.156112
-0.137159
-0.119211
-0.10334
-0.09002
-0.0787152
-0.068978
-0.0606106
-0.0534507
-0.0473333
-0.0421217
-0.0377077
-0.0340023
-0.0309329
-0.0284409
-0.0264802
-0.0250121
-0.0240037
-0.0234793
-0.191651
-0.171693
-0.153236
-0.133671
-0.116362
-0.101933
-0.0895759
-0.078918
-0.0698116
-0.0620496
-0.0554288
-0.0497949
-0.0450277
-0.041029
-0.0377192
-0.0350347
-0.032926
-0.0313519
-0.0302749
-0.0297128
-0.202534
-0.185066
-0.165442
-0.144736
-0.127234
-0.112442
-0.0994595
-0.0881783
-0.0784946
-0.0701922
-0.0630848
-0.0570297
-0.051906
-0.0476106
-0.0440593
-0.0411842
-0.0389321
-0.0372595
-0.0361257
-0.0355361
-0.226958
-0.208905
-0.18439
-0.160699
-0.140781
-0.123709
-0.109076
-0.0967237
-0.0862887
-0.0774197
-0.0698718
-0.0634642
-0.0580531
-0.0535245
-0.0497876
-0.0467701
-0.044415
-0.0426779
-0.0415172
-0.0409236
-0.219519
-0.207279
-0.188547
-0.169114
-0.150723
-0.133744
-0.118657
-0.105569
-0.0943087
-0.0846594
-0.0764225
-0.0694214
-0.0635071
-0.058558
-0.054476
-0.0511825
-0.0486154
-0.0467285
-0.0454803
-0.0448454
-0.219456
-0.206387
-0.189173
-0.171455
-0.154039
-0.137609
-0.122768
-0.109687
-0.0983058
-0.0884863
-0.0800667
-0.0728883
-0.0668111
-0.061718
-0.0575124
-0.0541161
-0.0514672
-0.0495193
-0.0482336
-0.0475826
-0.218987
-0.204061
-0.186775
-0.169785
-0.153265
-0.137729
-0.123621
-0.111081
-0.100085
-0.0905328
-0.082296
-0.0752412
-0.0692472
-0.0642097
-0.0600407
-0.0566682
-0.0540342
-0.0520954
-0.0508168
-0.0501744
-0.216228
-0.200528
-0.183726
-0.167488
-0.151827
-0.137153
-0.123791
-0.111845
-0.101304
-0.0920916
-0.0841047
-0.0772327
-0.0713723
-0.0664321
-0.0623337
-0.0590119
-0.0564138
-0.0544991
-0.0532367
-0.0526056
-0.211932
-0.196516
-0.180788
-0.165478
-0.150663
-0.136763
-0.12405
-0.112622
-0.102481
-0.0935713
-0.0858096
-0.0791041
-0.0733661
-0.0685155
-0.0644822
-0.0612072
-0.0586422
-0.05675
-0.0555021
-0.0548796
-0.207008
-0.192347
-0.177811
-0.163461
-0.149484
-0.136317
-0.12421
-0.113267
-0.103505
-0.0948869
-0.087346
-0.0808067
-0.0751931
-0.0704348
-0.0664697
-0.0632444
-0.060715
-0.0588471
-0.0576148
-0.0570009
-0.201843
-0.188062
-0.174645
-0.161214
-0.148055
-0.135606
-0.124099
-0.113644
-0.104269
-0.0959549
-0.0886498
-0.082292
-0.0768172
-0.0721645
-0.0682788
-0.0651126
-0.0626261
-0.0607882
-0.0595749
-0.058971
-0.196545
-0.183673
-0.171296
-0.15874
-0.146378
-0.13463
-0.123717
-0.113752
-0.104775
-0.0967775
-0.0897232
-0.0835619
-0.0782402
-0.0737057
-0.0699106
-0.0668128
-0.0643767
-0.0625741
-0.0613835
-0.0607911
-0.191181
-0.179219
-0.167819
-0.1561
-0.144511
-0.133444
-0.123112
-0.113633
-0.105056
-0.0973827
-0.0905881
-0.0846336
-0.0794751
-0.0750686
-0.0713727
-0.0683505
-0.0659707
-0.0642079
-0.0630428
-0.0624632
-0.185812
-0.174738
-0.164242
-0.153345
-0.142493
-0.132083
-0.122318
-0.113318
-0.105138
-0.0977909
-0.0912614
-0.0855204
-0.0805327
-0.0762614
-0.0726714
-0.0697308
-0.067412
-0.0656926
-0.0645555
-0.0639897
-0.180484
-0.17026
-0.160603
-0.150483
-0.140341
-0.130567
-0.121353
-0.112821
-0.105036
-0.0980154
-0.0917543
-0.0862319
-0.0814207
-0.0772907
-0.0738122
-0.0709581
-0.0687045
-0.0670317
-0.0659247
-0.0653738
-0.175222
-0.165799
-0.156922
-0.147531
-0.138075
-0.128911
-0.120231
-0.112159
-0.104762
-0.0980679
-0.0920771
-0.0867769
-0.0821467
-0.0781627
-0.0748005
-0.0720371
-0.0698522
-0.0682289
-0.0671537
-0.0666186
-0.170042
-0.16137
-0.153213
-0.144513
-0.13571
-0.127131
-0.118969
-0.111345
-0.104332
-0.0979608
-0.0922404
-0.0871645
-0.0827185
-0.0788842
-0.075642
-0.0729729
-0.0708597
-0.069288
-0.0682464
-0.0677277
-0.164952
-0.156982
-0.149492
-0.141445
-0.13326
-0.125246
-0.117583
-0.110395
-0.103757
-0.0977059
-0.0922549
-0.0874041
-0.0831443
-0.0794623
-0.0763428
-0.0737706
-0.0717315
-0.0702134
-0.0692065
-0.068705
-0.159958
-0.152643
-0.145771
-0.13834
-0.130743
-0.123268
-0.116086
-0.109322
-0.103051
-0.0973147
-0.0921309
-0.0875046
-0.0834319
-0.0799038
-0.076909
-0.0744357
-0.0724725
-0.0710094
-0.0700384
-0.0695546
-0.155064
-0.14836
-0.142063
-0.135212
-0.128172
-0.121211
-0.114493
-0.108139
-0.102226
-0.0967981
-0.091878
-0.0874749
-0.083589
-0.0802155
-0.0773467
-0.0749737
-0.0730877
-0.0716808
-0.0707464
-0.0702807
-0.150272
-0.144138
-0.138376
-0.132071
-0.125559
-0.119089
-0.112815
-0.106858
-0.101292
-0.0961663
-0.0915057
-0.0873234
-0.0836234
-0.0804044
-0.077662
-0.0753901
-0.0735821
-0.0722322
-0.071335
-0.0708877
-0.145584
-0.139982
-0.134719
-0.128926
-0.122915
-0.116911
-0.111064
-0.105488
-0.100261
-0.095429
-0.0910229
-0.0870582
-0.0835424
-0.0804772
-0.0778611
-0.0756905
-0.0739611
-0.0726685
-0.0718089
-0.0713801
-0.141002
-0.135897
-0.131098
-0.125788
-0.120248
-0.114689
-0.10925
-0.104042
-0.0991406
-0.0945955
-0.0904382
-0.0866873
-0.0833532
-0.0804405
-0.07795
-0.0758805
-0.0742297
-0.0729947
-0.0721728
-0.0717626
-0.136526
-0.131885
-0.127519
-0.122662
-0.117569
-0.112432
-0.107382
-0.102528
-0.0979415
-0.0936745
-0.0897598
-0.0862183
-0.083063
-0.0803007
-0.0779347
-0.0759657
-0.0743931
-0.0732156
-0.0724314
-0.0720399
-0.132157
-0.127949
-0.123988
-0.119556
-0.114884
-0.110148
-0.10547
-0.100954
-0.096672
-0.0926742
-0.0889954
-0.0856585
-0.0826784
-0.0800642
-0.077821
-0.0759516
-0.0744567
-0.0733363
-0.0725896
-0.0722168
-0.127896
-0.124092
-0.120509
-0.116476
-0.112201
-0.107844
-0.103522
-0.0993301
-0.09534
-0.0916023
-0.0881525
-0.0850148
-0.0822061
-0.0797371
-0.0776149
-0.0758436
-0.0744255
-0.0733616
-0.0726522
-0.0722978
-0.123742
-0.120316
-0.117086
-0.113427
-0.109526
-0.105529
-0.101544
-0.0976624
-0.0939531
-0.0904662
-0.087238
-0.084294
-0.0816523
-0.0793255
-0.0773218
-0.0756471
-0.0743046
-0.0732966
-0.072624
-0.0722878
-0.119696
-0.116622
-0.113722
-0.110414
-0.106865
-0.103209
-0.099544
-0.0959584
-0.0925181
-0.0892728
-0.0862587
-0.0835024
-0.0810233
-0.078835
-0.249513
-0.245605
-0.234933
-0.227103
-0.220414
-0.213636
-0.206975
-0.200586
-0.194421
-0.188436
-0.182621
-0.176969
-0.171468
-0.166109
-0.160886
-0.155793
-0.150826
-0.145983
-0.141262
-0.136661
-0.132179
-0.127815
-0.123568
-0.250739
-0.248469
-0.236486
-0.227452
-0.22041
-0.213432
-0.206468
-0.199766
-0.193331
-0.187105
-0.181067
-0.175208
-0.169517
-0.163986
-0.158607
-0.153375
-0.148285
-0.143334
-0.13852
-0.133841
-0.129295
-0.124879
-0.248433
-0.245298
-0.233688
-0.224483
-0.21725
-0.21029
-0.203384
-0.196714
-0.190306
-0.184111
-0.1781
-0.172261
-0.166586
-0.161067
-0.155697
-0.150474
-0.145394
-0.140454
-0.135653
-0.13099
-0.126463
-0.243515
-0.239321
-0.228985
-0.220451
-0.213423
-0.20669
-0.200036
-0.193565
-0.1873
-0.181213
-0.175284
-0.169507
-0.163878
-0.158394
-0.153053
-0.147854
-0.142796
-0.137879
-0.133101
-0.128463
-0.237971
-0.232865
-0.223951
-0.216246
-0.209514
-0.203014
-0.196605
-0.190338
-0.184231
-0.17827
-0.172445
-0.166755
-0.1612
-0.155781
-0.150498
-0.145352
-0.140344
-0.135474
-0.130743
-0.12615
-0.233003
-0.22729
-0.219607
-0.212613
-0.206154
-0.199852
-0.193639
-0.187541
-0.181568
-0.175718
-0.16999
-0.164385
-0.158905
-0.153555
-0.148335
-0.143248
-0.138296
-0.133479
-0.128799
-0.229333
-0.223316
-0.216506
-0.209993
-0.203726
-0.197561
-0.191478
-0.185493
-0.179613
-0.173843
-0.168185
-0.162644
-0.157224
-0.151928
-0.14676
-0.141722
-0.136816
-0.132044
-0.127408
-0.227397
-0.221273
-0.214908
-0.208631
-0.202458
-0.196361
-0.190342
-0.184412
-0.178579
-0.172849
-0.167229
-0.161722
-0.156334
-0.151068
-0.145929
-0.140918
-0.136039
-0.131292
-0.12668
)
;

boundaryField
{
    inlet
    {
        type            zeroGradient;
    }
    outlet
    {
        type            fixedValue;
        value           nonuniform 0();
    }
    cylinder
    {
        type            zeroGradient;
    }
    top
    {
        type            symmetryPlane;
    }
    bottom
    {
        type            symmetryPlane;
    }
    defaultFaces
    {
        type            empty;
    }
    procBoundary1to0
    {
        type            processor;
        value           nonuniform List<scalar> 
50
(
0.763405
0.737694
0.687431
0.687431
0.597069
0.597069
0.501248
0.406416
0.406416
0.306734
0.306734
0.311634
0.22533
0.22533
0.233814
0.159901
0.159901
0.169725
0.107199
0.107199
0.117445
0.125597
0.075326
0.075326
0.0837989
0.0908526
0.0505157
0.0505157
0.0583992
0.0624242
0.0597496
0.0561812
0.0521611
0.0498052
0.0483349
0.0473993
0.0468388
0.0465289
0.046381
0.046334
0.046347
0.0463919
0.0464493
0.0465053
0.0465498
0.0465757
0.0465779
0.0465485
0.0464745
0.0464014
)
;
    }
    procBoundary1to2
    {
        type            processor;
        value           nonuniform List<scalar> 
34
(
-0.0769474
-0.0753673
-0.0740991
-0.0731461
-0.0725097
-0.0721915
-0.115758
-0.119438
-0.113013
-0.11042
-0.107441
-0.104223
-0.100888
-0.0975278
-0.0942244
-0.0910417
-0.0880283
-0.0852208
-0.0826462
-0.0803247
-0.0769474
-0.0782713
-0.119438
-0.120594
-0.120594
-0.122071
-0.122071
-0.123962
-0.123962
-0.121695
-0.124256
-0.124256
-0.122906
-0.122202
)
;
    }
    procBoundary1to4
    {
        type            processor;
        value           uniform 0.763405;
    }
    procBoundary1to5
    {
        type            processor;
        value           nonuniform List<scalar> 
42
(
-0.315823
-0.316424
-0.315823
-0.318151
-0.318416
-0.317382
-0.315305
-0.312313
-0.308523
-0.304043
-0.29896
-0.293353
-0.287298
-0.280869
-0.274145
-0.267209
-0.260155
-0.253077
-0.24605
-0.239164
-0.232762
0.819452
0.771834
-0.227397
-0.221273
-0.214908
-0.208631
-0.202458
-0.196361
-0.190342
-0.184412
-0.178579
-0.172849
-0.167229
-0.161722
-0.156334
-0.151068
-0.145929
-0.140918
-0.136039
-0.131292
-0.12668
)
;
    }
}


// ************************************************************************* //
