/*--------------------------------*- C++ -*----------------------------------*\
  =========                 |
  \\      /  F ield         | OpenFOAM: The Open Source CFD Toolbox
   \\    /   O peration     | Website:  https://openfoam.org
    \\  /    A nd           | Version:  7
     \\/     M anipulation  |
\*---------------------------------------------------------------------------*/
FoamFile
{
    version     2.0;
    format      ascii;
    class       volVectorField;
    location    "20";
    object      U;
}
// * * * * * * * * * * * * * * * * * * * * * * * * * * * * * * * * * * * * * //

dimensions      [0 1 -1 0 0 0 0];

internalField   nonuniform List<vector> 
3313
(
(-0.0600498 0.00437208 -1.74961e-20)
(-0.0676477 0.00426491 -3.47859e-20)
(-0.0750819 0.00419127 1.87008e-20)
(-0.0824291 0.00417661 -5.3567e-22)
(-0.0898008 0.0042401 -2.27243e-20)
(-0.0974353 0.00439297 2.33231e-20)
(-0.0595101 0.0129648 1.99036e-20)
(-0.0667434 0.0126332 7.68185e-20)
(-0.0737646 0.012403 -4.21629e-20)
(-0.0806528 0.0123531 -1.9467e-20)
(-0.0875176 0.0125448 1.59791e-20)
(-0.094629 0.0130127 1.28983e-20)
(-0.0584409 0.0211104 -1.60146e-19)
(-0.0649483 0.0205229 1.52493e-20)
(-0.0711456 0.020107 -1.15382e-19)
(-0.0771158 0.0200031 2.13474e-19)
(-0.0829653 0.0203258 -3.07855e-20)
(-0.0890304 0.0211395 2.38094e-21)
(-0.0568518 0.028526 4.22607e-20)
(-0.0622781 0.0276274 4.81272e-20)
(-0.0672429 0.0269722 -8.08644e-20)
(-0.0718345 0.0267768 1.05238e-19)
(-0.076153 0.0272321 -2.24999e-20)
(-0.0806392 0.028449 8.86941e-20)
(-0.0547315 0.0349552 -6.00824e-20)
(-0.0587259 0.033664 5.97976e-20)
(-0.0620488 0.0326848 -6.16764e-20)
(-0.0647939 0.0323315 -2.44764e-19)
(-0.0670475 0.0329081 1.22355e-21)
(-0.0693846 0.0346121 1.7485e-19)
(-0.0520111 0.040187 2.05085e-20)
(-0.0542198 0.0383954 -2.58971e-19)
(-0.0554814 0.0369712 2.24823e-19)
(-0.0558954 0.0363512 -2.13998e-19)
(-0.0555216 0.0370042 2.78023e-19)
(-0.055043 0.0392835 -1.49966e-19)
(-0.0485564 0.0416634 3.76251e-19)
(-0.0473042 0.0396408 -2.27405e-19)
(-0.0448629 0.038595 4.76973e-19)
(-0.041278 0.0392288 -5.3366e-19)
(-0.0371633 0.0421892 -1.54602e-19)
(-0.041305 0.0434254 -4.52382e-19)
(-0.0370033 0.0406357 5.74354e-19)
(-0.0310641 0.038944 -4.13475e-19)
(-0.0235809 0.0393814 3.91073e-19)
(-0.0150069 0.0433991 -4.04205e-19)
(-0.0236853 0.0400969 2.63055e-19)
(-0.0134181 0.0375313 -1.04878e-19)
(-0.000800919 0.0376315 -1.35751e-19)
(0.0132204 0.0427428 -8.28083e-21)
(-0.00589453 0.0384384 -2.58435e-19)
(0.00977535 0.0348665 1.99708e-19)
(0.0288054 0.0343476 -2.66549e-20)
(0.0501154 0.0403336 -1.96677e-19)
(0.0409569 0.0318683 -2.76696e-19)
(0.0679835 0.0305612 7.52806e-20)
(0.0989454 0.0374841 -4.17967e-19)
(0.120196 0.0279879 -3.8134e-19)
(0.163646 0.0363316 2.60244e-19)
(0.188897 0.0288109 -3.4957e-19)
(0.247304 0.0401795 7.66626e-19)
(0.349304 0.052956 -1.35141e-19)
(-0.111928 0.00476541 -1.09673e-20)
(-0.133114 0.00437239 4.05931e-21)
(-0.152572 0.00450713 5.22721e-22)
(-0.173402 0.00455663 4.89492e-21)
(-0.194126 0.00464163 -1.12131e-20)
(-0.215413 0.00470811 8.84266e-21)
(-0.236895 0.00475101 -8.55376e-22)
(-0.25856 0.00476115 4.98773e-21)
(-0.2802 0.00472806 -3.67756e-21)
(-0.301617 0.00463884 -2.32913e-21)
(-0.322522 0.00447745 2.44726e-21)
(-0.342556 0.00422633 6.51288e-22)
(-0.361272 0.00386813 -1.2787e-21)
(-0.378145 0.00338717 -7.31721e-22)
(-0.392606 0.00277427 2.08393e-21)
(-0.404059 0.00203233 1.87089e-21)
(-0.411811 0.00116581 3.80425e-22)
(-0.415107 0.000208095 -4.18209e-21)
(-0.413588 -0.000905031 6.5574e-21)
(-0.406969 -0.0020524 -2.63791e-21)
(-0.394968 -0.00320993 -6.16436e-22)
(-0.37762 -0.00433189 -1.75286e-21)
(-0.355153 -0.00537072 2.98762e-21)
(-0.328009 -0.00628676 -5.74842e-21)
(-0.296842 -0.00704352 4.83854e-21)
(-0.262382 -0.0076349 1.48108e-22)
(-0.225369 -0.00806318 1.84117e-21)
(-0.186605 -0.00831913 -3.06423e-21)
(-0.146784 -0.00844471 9.07489e-22)
(-0.106512 -0.00844313 -4.37388e-22)
(-0.0663235 -0.00835065 5.93121e-22)
(-0.0265991 -0.00818672 -4.94199e-22)
(0.0123547 -0.00797171 2.07912e-22)
(0.0503231 -0.00772187 2.04535e-22)
(0.0871614 -0.00745188 -1.93597e-22)
(0.122795 -0.00717208 3.91885e-23)
(0.15716 -0.00689077 1.44896e-24)
(0.190301 -0.00661389 5.64975e-23)
(0.222142 -0.00634602 -3.85461e-23)
(0.252911 -0.00608974 -1.08451e-23)
(0.28231 -0.0058488 3.99021e-23)
(0.311049 -0.00562109 -7.61584e-23)
(0.338039 -0.00541636 3.34561e-23)
(0.365415 -0.0052185 -8.81379e-23)
(0.389685 -0.00506211 4.15835e-23)
(0.417094 -0.00488897 -1.3342e-23)
(0.437325 -0.00480316 -5.00314e-23)
(0.467947 -0.00464886 -1.80906e-23)
(0.480336 -0.00465946 4.18395e-23)
(0.52181 -0.004585 -1.32355e-23)
(-0.108412 0.0141406 1.79052e-20)
(-0.129114 0.0129361 6.95981e-21)
(-0.147775 0.0133419 -1.11908e-20)
(-0.167908 0.013483 2.21277e-21)
(-0.187856 0.0137254 -1.31983e-20)
(-0.208313 0.0139134 2.75579e-22)
(-0.228907 0.0140317 2.10868e-20)
(-0.249633 0.014054 -1.55472e-20)
(-0.27029 0.0139495 -2.79633e-20)
(-0.290692 0.0136801 1.17177e-20)
(-0.310561 0.0131979 -2.87116e-21)
(-0.329552 0.0124506 4.4403e-21)
(-0.347232 0.011386 -3.27486e-21)
(-0.363089 0.00995703 -8.71825e-21)
(-0.376569 0.00813475 -2.33349e-20)
(-0.387095 0.00592696 1.42743e-20)
(-0.393983 0.0033442 1.9408e-20)
(-0.396534 0.000473127 -7.84627e-21)
(-0.394383 -0.0028183 -1.57211e-20)
(-0.387213 -0.00623269 7.72609e-21)
(-0.374797 -0.00967739 -1.03266e-20)
(-0.357165 -0.013018 5.99829e-21)
(-0.334548 -0.016111 -7.40742e-21)
(-0.307379 -0.0188373 -2.08003e-21)
(-0.276316 -0.0210875 2.67729e-21)
(-0.24208 -0.0228434 1.13676e-21)
(-0.205386 -0.0241138 -5.57665e-21)
(-0.167033 -0.0248677 7.75919e-22)
(-0.127691 -0.0252369 -9.01542e-22)
(-0.087952 -0.0252243 1.02979e-21)
(-0.0483361 -0.0249427 2.69411e-21)
(-0.00920668 -0.0244483 -3.00637e-21)
(0.0291411 -0.023802 -6.07454e-22)
(0.0665023 -0.0230537 4.83869e-22)
(0.102739 -0.0222458 -4.93406e-22)
(0.137785 -0.0214092 -2.76988e-23)
(0.171577 -0.0205687 -1.66469e-23)
(0.204168 -0.0197416 -1.09117e-22)
(0.235474 -0.0189421 4.04921e-22)
(0.265739 -0.0181769 -2.09391e-22)
(0.294643 -0.0174584 5.03119e-22)
(0.322928 -0.0167786 1.29908e-22)
(0.34946 -0.0161687 1.88387e-22)
(0.376432 -0.015578 -1.53591e-22)
(0.400276 -0.0151127 3.51095e-22)
(0.427325 -0.0145964 -2.72201e-23)
(0.447174 -0.0143405 1.80291e-22)
(0.477433 -0.0138835 1.21595e-22)
(0.489558 -0.01391 5.37389e-24)
(0.530479 -0.0136939 5.85342e-23)
(-0.101437 0.0230675 -1.6881e-20)
(-0.121226 0.0209778 1.7149e-20)
(-0.138349 0.0216585 5.36952e-20)
(-0.157141 0.0218701 -4.14219e-20)
(-0.175598 0.0222329 -1.89001e-21)
(-0.194453 0.0225084 1.87979e-20)
(-0.213339 0.0226706 -3.94195e-20)
(-0.232253 0.0226797 -9.87582e-21)
(-0.251017 0.0224866 4.64818e-20)
(-0.269463 0.0220292 -1.47183e-20)
(-0.287337 0.021229 1.36612e-20)
(-0.304319 0.0199995 2.62834e-20)
(-0.320006 0.0182545 -3.41232e-21)
(-0.333915 0.0159151 3.7028e-21)
(-0.345517 0.0129305 -2.93407e-20)
(-0.354271 0.00930834 -1.38225e-20)
(-0.359518 0.00506494 4.41816e-20)
(-0.360646 0.000316566 -8.76664e-21)
(-0.35729 -0.00504259 -1.05393e-20)
(-0.349092 -0.0106421 1.35551e-20)
(-0.335904 -0.0162889 -3.23682e-20)
(-0.317753 -0.0217694 2.22177e-20)
(-0.294876 -0.0268429 -2.05592e-22)
(-0.26769 -0.0313106 -3.27989e-21)
(-0.236852 -0.0349908 1.40222e-21)
(-0.20307 -0.0378538 -1.34938e-20)
(-0.167009 -0.0399243 8.22272e-21)
(-0.129459 -0.0411314 1.36934e-21)
(-0.0910499 -0.0417255 3.41815e-21)
(-0.0523398 -0.041677 3.2531e-22)
(-0.0138252 -0.0411937 -1.42887e-21)
(0.024164 -0.0403595 -7.68658e-22)
(0.0613532 -0.0392825 6.02941e-22)
(0.0975556 -0.0380403 1.93896e-23)
(0.132647 -0.0367022 6.07279e-22)
(0.166575 -0.0353184 -3.33351e-22)
(0.199278 -0.0339307 -2.42953e-23)
(0.230824 -0.0325656 -2.01673e-22)
(0.261116 -0.0312482 9.41792e-23)
(0.290424 -0.0299867 -5.57165e-22)
(0.318389 -0.028805 6.09996e-22)
(0.345811 -0.0276845 2.74046e-22)
(0.371473 -0.0266838 -1.15262e-21)
(0.397679 -0.0257102 4.19022e-22)
(0.420713 -0.0249488 2.20607e-22)
(0.447074 -0.0240999 -4.07013e-22)
(0.466196 -0.0236798 -2.28979e-22)
(0.495756 -0.0229379 1.80514e-22)
(0.507384 -0.0229664 -1.38301e-22)
(0.547241 -0.0226305 -4.66353e-23)
(-0.0910777 0.0312956 -5.26748e-20)
(-0.109635 0.0282028 5.09153e-21)
(-0.12458 0.029162 3.60036e-20)
(-0.14149 0.0294124 -2.64784e-20)
(-0.157854 0.0298366 2.25406e-20)
(-0.174452 0.0301451 2.63056e-20)
(-0.190929 0.0303011 2.5826e-21)
(-0.207288 0.0302568 -6.88116e-20)
(-0.223381 0.0299476 -2.46921e-20)
(-0.239067 0.0292898 9.43247e-20)
(-0.254129 0.0281765 -9.8278e-21)
(-0.268282 0.0264878 -3.25728e-20)
(-0.281167 0.0241043 2.20249e-20)
(-0.29234 0.0209158 -1.31728e-20)
(-0.301313 0.0168477 -2.62397e-20)
(-0.307597 0.0118967 1.3063e-20)
(-0.310567 0.00609141 6.46439e-21)
(-0.309717 -0.000439601 6.41453e-20)
(-0.304694 -0.00772685 -9.65197e-20)
(-0.295105 -0.0153829 7.18122e-20)
(-0.280881 -0.0230975 -3.48277e-20)
(-0.262058 -0.0305921 2.84932e-20)
(-0.238877 -0.0375294 -2.26342e-20)
(-0.211731 -0.0436323 -1.62387e-20)
(-0.181266 -0.0486437 2.65362e-20)
(-0.148181 -0.0525214 6.89198e-21)
(-0.113057 -0.0553447 -7.95451e-21)
(-0.0766772 -0.05694 8.31208e-21)
(-0.0396128 -0.0577145 1.00579e-21)
(-0.00236196 -0.0576005 -8.2714e-21)
(0.0345958 -0.0568937 8.26706e-21)
(0.070982 -0.0557162 -4.12785e-21)
(0.106549 -0.0542111 2.51616e-21)
(0.141137 -0.0524832 -3.48298e-21)
(0.174638 -0.0506281 4.46053e-22)
(0.207017 -0.0487135 4.41003e-22)
(0.238213 -0.0467978 -1.69719e-22)
(0.268316 -0.0449143 -2.68407e-22)
(0.297207 -0.0431008 3.85432e-22)
(0.325195 -0.0413624 3.13582e-22)
(0.351866 -0.03974 -1.18045e-21)
(0.378098 -0.0381964 5.94042e-22)
(0.40256 -0.0368269 2.33828e-22)
(0.427704 -0.0354859 -2.39372e-22)
(0.449622 -0.0344475 -5.51759e-22)
(0.475023 -0.0332826 3.97763e-22)
(0.493148 -0.0327062 2.25453e-22)
(0.52172 -0.0317067 -2.98356e-22)
(0.532672 -0.0317173 -2.69059e-23)
(0.571032 -0.031292 -7.19843e-24)
(-0.0773453 0.0386423 -9.59894e-20)
(-0.0945174 0.034388 4.80864e-20)
(-0.106794 0.0356263 -6.29709e-20)
(-0.121417 0.0358775 -1.57263e-20)
(-0.135239 0.0362862 4.87365e-21)
(-0.149082 0.0365554 8.46655e-20)
(-0.162613 0.0366398 4.79835e-20)
(-0.175844 0.036489 -4.82226e-21)
(-0.188666 0.0360278 2.34239e-20)
(-0.200973 0.0351538 -1.65109e-19)
(-0.212592 0.0337338 6.76825e-20)
(-0.223286 0.0316165 3.24306e-20)
(-0.232747 0.0286502 -4.13931e-20)
(-0.240587 0.0246936 7.63732e-20)
(-0.246364 0.0196472 1.89894e-20)
(-0.249655 0.013487 -4.15959e-20)
(-0.249877 0.00625749 -7.63284e-20)
(-0.246645 -0.00191279 4.69308e-20)
(-0.239622 -0.0109578 3.61981e-20)
(-0.228397 -0.0205021 -3.34243e-20)
(-0.212975 -0.030109 3.80763e-20)
(-0.19341 -0.0394508 -2.78309e-20)
(-0.169948 -0.0480982 2.40866e-20)
(-0.142953 -0.0557083 -1.34953e-20)
(-0.11303 -0.0619288 -1.81651e-20)
(-0.080901 -0.0667124 -8.79582e-23)
(-0.0470155 -0.0702152 -3.45489e-21)
(-0.0121249 -0.0721635 2.28033e-20)
(0.0232202 -0.0729785 -1.51689e-20)
(0.0586515 -0.0728083 9.76109e-21)
(0.0936761 -0.0718686 -1.96765e-21)
(0.128087 -0.0703491 -7.7139e-22)
(0.161672 -0.0684215 -5.71674e-22)
(0.194299 -0.0662217 -1.82045e-22)
(0.225877 -0.0638695 3.77026e-22)
(0.25639 -0.061447 4.92188e-22)
(0.285778 -0.0590295 -3.30923e-22)
(0.314152 -0.0566536 2.51181e-22)
(0.341369 -0.0543726 1.97179e-22)
(0.367781 -0.0521825 -2.17364e-22)
(0.392907 -0.0501479 -3.63149e-22)
(0.417719 -0.0482037 3.59057e-22)
(0.440747 -0.0464926 7.76772e-22)
(0.464621 -0.044804 -4.09971e-22)
(0.485208 -0.0435115 -2.01521e-22)
(0.50945 -0.0420518 -9.70249e-23)
(0.526391 -0.0413281 -8.80793e-23)
(0.553749 -0.0401043 7.03234e-23)
(0.563914 -0.0400741 8.72231e-23)
(0.60044 -0.0395914 2.69765e-24)
(-0.0600763 0.044992 2.27287e-20)
(-0.0759422 0.0394094 5.67658e-20)
(-0.0852317 0.0409122 -5.62546e-20)
(-0.097323 0.0411225 -2.98103e-20)
(-0.108335 0.0414262 6.96033e-20)
(-0.119102 0.0415694 -2.35255e-20)
(-0.129338 0.0415047 4.41855e-21)
(-0.139065 0.0411847 -9.2077e-20)
(-0.14822 0.0405287 3.86966e-20)
(-0.156738 0.0394189 5.45695e-20)
(-0.164496 0.0376995 3.89989e-20)
(-0.171312 0.0351892 -1.77647e-20)
(-0.176937 0.0317055 3.51425e-20)
(-0.181045 0.0270758 6.62289e-20)
(-0.183251 0.0211748 -2.07559e-19)
(-0.183207 0.0139554 1.07558e-19)
(-0.180375 0.00547149 -3.55129e-20)
(-0.174497 -0.00415855 4.65155e-20)
(-0.165266 -0.014759 1.40894e-20)
(-0.15227 -0.0260039 -6.35568e-21)
(-0.135569 -0.0372938 -1.28021e-20)
(-0.115258 -0.0482835 -3.87971e-20)
(-0.0915888 -0.0584613 4.10824e-20)
(-0.0649006 -0.0674227 -4.42851e-22)
(-0.0357058 -0.0747277 3.23592e-20)
(-0.00478589 -0.0803706 -4.30277e-20)
(0.0275389 -0.0842598 1.5221e-20)
(0.0606907 -0.0865732 -7.08988e-21)
(0.0939999 -0.0874032 6.50401e-21)
(0.127259 -0.0871551 -1.05706e-21)
(0.16006 -0.0859787 6.80742e-21)
(0.192212 -0.0841184 -1.34243e-20)
(0.223548 -0.0817829 7.66644e-21)
(0.253967 -0.0791334 1.22194e-21)
(0.283393 -0.0763121 -1.81387e-22)
(0.311832 -0.0734119 -2.39317e-22)
(0.339218 -0.0705258 -1.54635e-22)
(0.365685 -0.0676892 -9.55135e-24)
(0.39106 -0.0649746 -5.24959e-22)
(0.415742 -0.0623625 1.27891e-21)
(0.439173 -0.0599488 -2.61939e-21)
(0.462429 -0.0576298 2.03408e-22)
(0.48389 -0.0556078 1.02491e-22)
(0.506366 -0.0535941 7.70934e-22)
(0.525502 -0.0520722 -2.0571e-22)
(0.548452 -0.0503422 -2.86867e-22)
(0.564115 -0.0494796 5.83316e-23)
(0.590097 -0.0480667 1.9956e-22)
(0.599425 -0.0479742 2.05386e-24)
(0.633888 -0.0474609 -1.56887e-22)
(-0.0388127 0.050143 8.35685e-20)
(-0.0537352 0.0433629 -2.75945e-20)
(-0.0599147 0.0449722 2.86104e-20)
(-0.0693956 0.0450998 3.53015e-20)
(-0.0775135 0.0452016 5.14239e-20)
(-0.0850696 0.0451211 -3.3211e-21)
(-0.0918542 0.0448218 -1.93413e-19)
(-0.0979054 0.0442631 8.38032e-22)
(-0.103207 0.0433642 1.89584e-19)
(-0.107742 0.0419959 -1.91093e-20)
(-0.11144 0.0399828 2.16808e-20)
(-0.114174 0.0371165 -5.10365e-20)
(-0.11576 0.033185 -1.67264e-19)
(-0.115937 0.0279836 1.87723e-19)
(-0.114381 0.0213616 -5.76012e-21)
(-0.110823 0.0132543 -2.16787e-19)
(-0.104783 0.00372402 8.27445e-20)
(-0.0961194 -0.00717422 -6.98818e-20)
(-0.0845789 -0.0191151 1.34327e-19)
(-0.0697658 -0.0318548 2.70527e-20)
(-0.0517667 -0.0445998 -1.136e-19)
(-0.030753 -0.0570243 6.11138e-20)
(-0.00698164 -0.0685543 -3.8262e-20)
(0.0192125 -0.0786026 2.02946e-20)
(0.0474461 -0.0868421 -8.90081e-21)
(0.0769915 -0.0932242 -2.49185e-20)
(0.107479 -0.0974228 2.93475e-20)
(0.138511 -0.100004 -3.13644e-20)
(0.169542 -0.100897 2.06593e-20)
(0.200371 -0.100518 -8.53165e-21)
(0.230702 -0.0991 -9.10376e-21)
(0.260377 -0.0969135 5.72268e-21)
(0.289273 -0.0941963 3.2644e-21)
(0.317317 -0.0911294 4.68142e-22)
(0.344449 -0.087876 -6.72717e-22)
(0.370689 -0.0845363 1.92832e-22)
(0.395966 -0.0812215 4.41927e-22)
(0.420435 -0.0779617 3.44678e-22)
(0.443887 -0.0748524 2.17764e-22)
(0.466769 -0.0718518 -6.14761e-22)
(0.488443 -0.0690949 9.59235e-22)
(0.510083 -0.0664296 -5.7119e-22)
(0.529923 -0.0641286 9.2534e-22)
(0.550943 -0.0618147 -1.5265e-22)
(0.568587 -0.0600877 -8.0599e-22)
(0.590174 -0.0581131 7.38137e-24)
(0.604538 -0.0571198 5.51249e-22)
(0.629042 -0.055551 -2.15999e-22)
(0.637535 -0.0553793 1.49225e-22)
(0.669804 -0.0548533 1.25375e-22)
(-0.0127407 0.0535468 1.4505e-19)
(-0.0272869 0.04672 -8.15201e-20)
(-0.0305357 0.0478119 6.19283e-20)
(-0.0374421 0.0478535 -1.42627e-19)
(-0.0427561 0.0476533 1.30761e-20)
(-0.0471453 0.0472441 1.96845e-20)
(-0.0505053 0.0466203 -2.28286e-20)
(-0.0529015 0.0457503 -1.46105e-20)
(-0.0543687 0.0445573 2.86643e-20)
(-0.0549352 0.0429044 8.45979e-20)
(-0.0545845 0.0405998 -3.44706e-20)
(-0.0532412 0.0374108 2.53797e-20)
(-0.0507861 0.0330991 1.15854e-20)
(-0.0470233 0.0274264 -1.37589e-20)
(-0.041686 0.020215 5.72068e-20)
(-0.0345841 0.0113992 -4.49757e-20)
(-0.0253274 0.00107953 2.3304e-21)
(-0.0138546 -0.0109451 4.06937e-20)
(7.6691e-06 -0.024073 -6.23022e-20)
(0.0165961 -0.0379043 4.55709e-20)
(0.0358551 -0.0519152 -8.38775e-20)
(0.0574695 -0.0655458 -2.26928e-20)
(0.0812412 -0.0781984 1.38408e-19)
(0.106773 -0.0891425 -3.68994e-20)
(0.133775 -0.0981463 -1.50676e-20)
(0.161657 -0.105063 4.40515e-20)
(0.190074 -0.109673 4.72957e-22)
(0.218725 -0.112385 -2.79599e-20)
(0.247225 -0.113293 -4.43967e-21)
(0.275407 -0.112778 -2.74469e-20)
(0.303072 -0.111133 1.45176e-20)
(0.330109 -0.108649 6.26331e-22)
(0.356433 -0.105589 1.03649e-21)
(0.381999 -0.102149 -7.77023e-21)
(0.406756 -0.0985101 2.35407e-21)
(0.43074 -0.094777 -2.50852e-21)
(0.453866 -0.0910801 1.63852e-21)
(0.476308 -0.0874398 -1.32594e-22)
(0.497819 -0.0839786 -1.89741e-22)
(0.518889 -0.0806263 6.14189e-22)
(0.538802 -0.077564 2.32104e-22)
(0.558821 -0.0745829 7.50078e-22)
(0.577049 -0.0720349 -1.7983e-22)
(0.596603 -0.0694467 -2.30773e-22)
(0.612775 -0.0675381 1.73332e-22)
(0.63297 -0.0653446 5.24741e-22)
(0.646068 -0.0642289 -5.27264e-22)
(0.669041 -0.0625326 5.42378e-22)
(0.676737 -0.0622715 -1.6043e-22)
(0.706762 -0.0617398 3.83601e-23)
(0.019245 0.0556814 -1.01636e-19)
(0.00470144 0.0493396 2.67346e-19)
(0.00364195 0.0495372 -1.2372e-19)
(-0.000715213 0.0495 -8.56291e-20)
(-0.00347559 0.0488993 6.89371e-20)
(-0.00489934 0.0480575 -3.77002e-20)
(-0.00502526 0.0470203 1.55796e-19)
(-0.00396383 0.0457674 -1.92811e-19)
(-0.00180232 0.0442287 2.11091e-20)
(0.00138645 0.042262 1.59691e-19)
(0.00557208 0.0396626 -1.19418e-19)
(0.0107856 0.0361771 1.23615e-19)
(0.0170881 0.031544 -6.57949e-20)
(0.0246138 0.0254912 -4.44081e-20)
(0.0335818 0.0178138 -5.11703e-20)
(0.0441246 0.00845444 1.76241e-19)
(0.0564345 -0.00258251 -1.50226e-19)
(0.070576 -0.0154105 4.91631e-20)
(0.086753 -0.0294621 1.18478e-19)
(0.105017 -0.0441372 -5.5283e-20)
(0.125339 -0.0591639 -8.60264e-20)
(0.147403 -0.0737388 -7.65642e-20)
(0.170966 -0.0872455 8.28028e-20)
(0.19563 -0.0989597 4.03306e-20)
(0.221156 -0.108563 -3.86015e-21)
(0.247099 -0.115878 4.91505e-20)
(0.273192 -0.120785 -9.67371e-20)
(0.299233 -0.123588 3.60334e-20)
(0.324985 -0.124485 1.21194e-21)
(0.350343 -0.123848 1.12939e-20)
(0.375199 -0.122007 -4.19648e-21)
(0.399488 -0.119269 3.88788e-21)
(0.423161 -0.115917 2.90127e-21)
(0.446197 -0.112157 -2.28334e-21)
(0.468551 -0.108189 6.39674e-21)
(0.490267 -0.104115 -1.57611e-21)
(0.511247 -0.100088 1.78101e-21)
(0.531676 -0.0961142 -6.67316e-22)
(0.551272 -0.0923466 2.5968e-22)
(0.570555 -0.0886817 -2.36926e-22)
(0.588746 -0.0853527 -1.14883e-21)
(0.60717 -0.0820874 1.00305e-21)
(0.623834 -0.0793239 -5.75924e-22)
(0.641939 -0.0764877 -5.21961e-22)
(0.656696 -0.0744199 -2.95692e-23)
(0.6755 -0.0720317 -5.65089e-22)
(0.687399 -0.070803 -2.86931e-22)
(0.708825 -0.0690003 1.99128e-22)
(0.715779 -0.0686476 -5.89742e-22)
(0.743572 -0.0681073 3.99211e-23)
(0.0593302 0.0574586 -4.6201e-20)
(0.043939 0.0509132 1.07929e-19)
(0.0442934 0.0504414 -6.07104e-20)
(0.0422189 0.0502081 2.62221e-19)
(0.0416594 0.0491182 -2.12766e-19)
(0.0428593 0.0477463 5.57503e-20)
(0.0456288 0.0462118 8.0896e-20)
(0.0497875 0.0445106 -1.4304e-19)
(0.0551936 0.0425795 9.37485e-20)
(0.0617343 0.0402715 -1.92376e-21)
(0.0693418 0.037371 -4.31754e-20)
(0.0780161 0.0336069 9.56678e-20)
(0.0877714 0.0286995 2.66212e-20)
(0.0986874 0.0223426 -2.26632e-19)
(0.110948 0.0143053 4.25095e-20)
(0.124592 0.00454206 2.81505e-20)
(0.1397 -0.00709389 -1.64731e-20)
(0.156298 -0.0204076 -1.4319e-20)
(0.174491 -0.0350861 6.20798e-20)
(0.194205 -0.0505169 1.94422e-20)
(0.215343 -0.0662531 3.55899e-20)
(0.23758 -0.0815169 -5.67277e-20)
(0.260639 -0.0956417 -8.58277e-20)
(0.284151 -0.107909 -1.48448e-20)
(0.307921 -0.117941 1.55361e-19)
(0.331648 -0.125545 -8.59531e-20)
(0.35517 -0.13065 2.49464e-20)
(0.3784 -0.13352 1.66192e-20)
(0.401234 -0.134403 -4.19756e-20)
(0.423646 -0.133671 2.81004e-20)
(0.445605 -0.131677 -1.8691e-20)
(0.467094 -0.12874 3.54928e-21)
(0.488092 -0.125157 -6.7214e-22)
(0.508596 -0.12114 1.60343e-21)
(0.528563 -0.116904 1.72141e-21)
(0.548039 -0.112548 -5.16582e-21)
(0.566911 -0.108246 1.71999e-21)
(0.58537 -0.103989 -9.72828e-22)
(0.603103 -0.0999619 7.55133e-22)
(0.62065 -0.0960254 -7.14516e-22)
(0.637179 -0.0924683 3.62536e-22)
(0.654054 -0.0889517 -1.57125e-22)
(0.669223 -0.086003 -1.60501e-22)
(0.685912 -0.0829455 1.6831e-21)
(0.699333 -0.0807398 -2.94248e-22)
(0.71676 -0.0781787 -2.38802e-23)
(0.727544 -0.0768489 2.9025e-22)
(0.747428 -0.0749533 2.77769e-22)
(0.753704 -0.0745146 1.38203e-22)
(0.779312 -0.0739545 -2.14636e-22)
(0.110137 0.0589305 2.23564e-19)
(0.0929388 0.0519559 -3.3485e-19)
(0.093896 0.0508171 3.0131e-19)
(0.0936685 0.0502297 9.75742e-20)
(0.0948738 0.0485624 -1.26079e-19)
(0.0982201 0.0465677 -5.31046e-20)
(0.103393 0.0444582 1.05502e-20)
(0.110118 0.0422516 6.24799e-21)
(0.118196 0.0398889 -9.14598e-21)
(0.127482 0.0372166 1.24803e-19)
(0.137884 0.0340073 -2.49252e-19)
(0.149388 0.0299751 6.76651e-20)
(0.161976 0.0248274 -1.99147e-20)
(0.175684 0.0182252 -4.4686e-21)
(0.190683 0.00990782 7.55602e-20)
(0.206902 -0.000115258 -3.85492e-20)
(0.224316 -0.0120889 -1.10666e-20)
(0.242907 -0.025783 -3.62587e-20)
(0.262658 -0.040885 1.12043e-19)
(0.283393 -0.0568088 -1.89227e-19)
(0.304927 -0.0730059 1.07177e-19)
(0.326914 -0.0887124 -7.17532e-20)
(0.349061 -0.103226 9.31726e-20)
(0.371047 -0.115837 -6.05095e-20)
(0.392734 -0.126137 9.04758e-21)
(0.413963 -0.133924 -5.96058e-20)
(0.434695 -0.139161 -1.3448e-21)
(0.454955 -0.14208 4.95828e-20)
(0.474765 -0.142963 -4.90561e-20)
(0.494173 -0.142176 1.34556e-20)
(0.513216 -0.140087 2.58572e-20)
(0.531914 -0.137019 2.15139e-21)
(0.55027 -0.133276 -7.15529e-21)
(0.568289 -0.129074 5.38062e-22)
(0.585926 -0.124639 3.13459e-21)
(0.603225 -0.120067 -5.09794e-21)
(0.620058 -0.11555 1.6482e-21)
(0.636613 -0.111064 4.59984e-22)
(0.652556 -0.106828 -3.95479e-22)
(0.668427 -0.102665 1.89731e-22)
(0.68337 -0.0989193 -4.74763e-22)
(0.698748 -0.0951865 1.19449e-21)
(0.712501 -0.0920831 -6.36859e-22)
(0.727812 -0.0888317 -1.23215e-21)
(0.739984 -0.08651 1.27571e-21)
(0.756055 -0.0837954 -8.27194e-22)
(0.765813 -0.0823797 3.10341e-22)
(0.784172 -0.0803971 6.48863e-23)
(0.789834 -0.0798859 4.62872e-22)
(0.813325 -0.0792881 4.7724e-23)
(0.17458 0.0607467 8.32615e-20)
(0.15505 0.0530069 -5.42542e-20)
(0.155899 0.0510084 -1.3593e-19)
(0.156996 0.0498937 2.48743e-19)
(0.159415 0.047553 -1.03151e-19)
(0.164252 0.044854 5.55499e-20)
(0.171126 0.0421017 -1.07426e-19)
(0.17966 0.0393422 -2.49986e-20)
(0.189597 0.0365167 -3.93575e-20)
(0.20077 0.0334599 1.31519e-19)
(0.213079 0.0299316 -2.23007e-19)
(0.226516 0.0256329 1.06752e-19)
(0.241047 0.0202667 -9.03114e-20)
(0.256676 0.0134641 1.15961e-19)
(0.273589 0.00490167 3.70765e-20)
(0.291589 -0.0052581 -1.40972e-19)
(0.310536 -0.0173996 1.83781e-19)
(0.330383 -0.0313032 -2.03162e-20)
(0.350986 -0.0466194 -2.20298e-20)
(0.372072 -0.0627788 4.86628e-20)
(0.393366 -0.0791871 2.27912e-20)
(0.414509 -0.095086 -5.962e-20)
(0.435214 -0.109762 2.7371e-20)
(0.455226 -0.122524 -7.30305e-20)
(0.474477 -0.132948 6.28113e-20)
(0.492945 -0.140833 1.16817e-20)
(0.510713 -0.146159 -1.80027e-20)
(0.527913 -0.149137 4.30883e-20)
(0.544669 -0.150058 -8.97062e-20)
(0.561094 -0.149281 2.44279e-20)
(0.577275 -0.147176 3.84047e-20)
(0.593259 -0.144061 -1.19903e-20)
(0.609061 -0.140246 -4.27029e-21)
(0.624689 -0.135943 1.29181e-21)
(0.640093 -0.131388 4.16423e-21)
(0.655308 -0.126671 -8.02491e-22)
(0.670193 -0.122006 1.5063e-21)
(0.684928 -0.11735 3.37797e-22)
(0.699165 -0.112958 4.42308e-22)
(0.713432 -0.108613 -3.68502e-22)
(0.726871 -0.10472 1.29731e-21)
(0.740809 -0.100807 -1.10581e-22)
(0.753229 -0.0975791 -1.33658e-21)
(0.767201 -0.0941606 -4.02271e-22)
(0.778209 -0.0917456 1.96872e-22)
(0.792949 -0.0888933 -4.77776e-22)
(0.801767 -0.0874118 -6.94527e-22)
(0.818625 -0.0853399 3.23543e-22)
(0.823733 -0.0847797 -2.96018e-22)
(0.845185 -0.0841196 3.77614e-23)
(0.255561 0.0641202 -6.02031e-20)
(0.234558 0.0542099 -5.91132e-22)
(0.235006 0.0509563 -3.30736e-20)
(0.236792 0.0491954 -2.73466e-19)
(0.239637 0.0461627 4.56854e-19)
(0.244991 0.0427747 -2.06175e-19)
(0.252508 0.039394 8.48715e-20)
(0.26173 0.0360983 -8.08657e-21)
(0.272353 0.0328264 1.53334e-20)
(0.284204 0.0293972 -8.07878e-20)
(0.297192 0.025557 -1.41818e-19)
(0.31133 0.0209979 -1.48552e-19)
(0.326588 0.0154311 1.95697e-20)
(0.342924 0.00844923 2.79799e-19)
(0.360601 -0.000305725 -1.99796e-19)
(0.37927 -0.0104939 2.98321e-20)
(0.398659 -0.022682 -3.58448e-20)
(0.418712 -0.0366365 -2.55765e-20)
(0.439179 -0.0519812 -1.62398e-20)
(0.459691 -0.0681644 8.5307e-20)
(0.47991 -0.0845734 3.66549e-20)
(0.499471 -0.100467 -1.09684e-19)
(0.518119 -0.115141 4.79122e-20)
(0.535677 -0.127934 -3.12932e-20)
(0.55216 -0.138416 1.00929e-19)
(0.567664 -0.146383 -1.81089e-20)
(0.582377 -0.151819 2.41052e-20)
(0.596517 -0.154911 -7.21649e-20)
(0.610281 -0.155943 1.82934e-20)
(0.623829 -0.155257 8.10707e-21)
(0.637277 -0.153217 -3.08181e-20)
(0.650687 -0.150134 2.03861e-20)
(0.664078 -0.146318 4.89334e-21)
(0.677452 -0.141976 2.81911e-21)
(0.690753 -0.137355 -7.59124e-21)
(0.704001 -0.13254 4.0795e-21)
(0.71705 -0.127765 -2.78315e-22)
(0.730061 -0.122975 -3.80899e-22)
(0.742687 -0.118456 -6.03615e-23)
(0.755426 -0.113958 -3.09847e-22)
(0.767445 -0.10994 -5.56284e-22)
(0.78 -0.105868 7.28451e-22)
(0.791169 -0.102534 1.53208e-22)
(0.803842 -0.098964 8.61392e-22)
(0.813771 -0.096473 -6.88421e-22)
(0.827204 -0.0934889 4.15968e-22)
(0.835164 -0.0919642 2.27759e-22)
(0.850544 -0.0897896 -2.68618e-22)
(0.855158 -0.089215 1.04997e-22)
(0.874646 -0.0884631 2.64899e-23)
(0.356161 0.0691456 3.86715e-19)
(0.33732 0.0542615 -4.25791e-19)
(0.33761 0.0498253 1.60265e-19)
(0.339076 0.047649 -1.37736e-19)
(0.340982 0.044207 6.45418e-20)
(0.34525 0.0403637 -5.57838e-20)
(0.351711 0.0365367 3.42492e-19)
(0.359897 0.0328479 -1.51283e-19)
(0.369482 0.0292492 -5.78854e-20)
(0.380302 0.0255447 -1.07603e-19)
(0.39229 0.0214656 3.46575e-19)
(0.405482 0.0166928 1.83925e-20)
(0.41986 0.0109556 -3.60732e-19)
(0.435328 0.00372147 2.33608e-19)
(0.452255 -0.00498755 -2.2747e-20)
(0.470116 -0.0151254 -1.52608e-19)
(0.488528 -0.0273537 1.99796e-19)
(0.507449 -0.0413295 -6.13837e-20)
(0.526538 -0.0566736 1.36952e-20)
(0.54536 -0.0728551 -1.78562e-20)
(0.563535 -0.0892591 -2.87555e-20)
(0.580719 -0.105165 -1.81574e-20)
(0.596703 -0.119884 3.60507e-20)
(0.611391 -0.132773 3.2477e-20)
(0.624872 -0.143398 -9.23893e-20)
(0.637327 -0.151537 3.43059e-20)
(0.649019 -0.157164 -4.46413e-20)
(0.660219 -0.160436 5.76604e-20)
(0.671162 -0.161623 8.5728e-22)
(0.682028 -0.161053 1.71554e-20)
(0.692948 -0.159083 -5.31774e-20)
(0.703983 -0.156019 3.0649e-20)
(0.715149 -0.152177 2.52618e-21)
(0.72644 -0.147764 3.4102e-21)
(0.737791 -0.143042 -1.42522e-21)
(0.749208 -0.138092 -5.02293e-21)
(0.760541 -0.133173 4.48879e-21)
(0.77193 -0.128217 4.21918e-22)
(0.783042 -0.123543 -2.68945e-22)
(0.79433 -0.118872 -5.78503e-22)
(0.805011 -0.114711 -5.73952e-23)
(0.816241 -0.110471 3.84563e-22)
(0.826235 -0.10702 -5.03191e-22)
(0.837648 -0.103298 5.43436e-22)
(0.846574 -0.100727 -7.44394e-22)
(0.858723 -0.0976121 3.16143e-22)
(0.865901 -0.0960497 3.2665e-24)
(0.879825 -0.0937652 -1.90415e-23)
(0.884 -0.0931969 1.02756e-22)
(0.901599 -0.0923384 3.49981e-23)
(0.484805 0.0744112 -1.60081e-19)
(0.473342 0.0560371 1.84126e-19)
(0.472565 0.0511692 -2.6062e-20)
(0.471233 0.0484231 -1.58589e-19)
(0.469555 0.0445325 1.29733e-19)
(0.46996 0.0401383 -9.18612e-20)
(0.472608 0.0356934 -1.61507e-19)
(0.477119 0.0314246 2.93409e-19)
(0.483179 0.0273302 -3.16007e-19)
(0.490624 0.0232125 4.29678e-20)
(0.499395 0.0187884 6.67756e-20)
(0.509527 0.0137223 1.55992e-19)
(0.520988 0.00775571 -1.88639e-19)
(0.53372 0.000330139 -1.56739e-19)
(0.548058 -0.00834383 3.35158e-19)
(0.563268 -0.0185941 -7.22005e-20)
(0.579029 -0.0308718 -6.84004e-20)
(0.595288 -0.044841 6.77369e-20)
(0.611631 -0.060159 -1.66341e-20)
(0.627591 -0.0763105 1.43086e-19)
(0.642787 -0.0926827 -1.68979e-19)
(0.656906 -0.108575 4.21889e-20)
(0.669781 -0.123311 1.09666e-19)
(0.681375 -0.136269 -1.11723e-19)
(0.691818 -0.147013 6.30648e-20)
(0.701335 -0.155312 -7.84259e-20)
(0.710211 -0.161127 -1.22807e-20)
(0.718731 -0.164593 -1.10578e-20)
(0.727136 -0.165964 8.49971e-20)
(0.735603 -0.16555 -5.68568e-20)
(0.744259 -0.1637 -1.02537e-20)
(0.753159 -0.160715 3.88464e-20)
(0.762313 -0.156914 -2.97326e-20)
(0.771705 -0.152502 1.45897e-20)
(0.781267 -0.14775 2.07234e-21)
(0.790989 -0.142741 -1.04072e-21)
(0.800725 -0.137744 -2.00621e-21)
(0.810588 -0.132692 7.0331e-22)
(0.820276 -0.127917 7.75042e-22)
(0.830183 -0.123135 -3.76952e-22)
(0.839602 -0.118866 2.67333e-22)
(0.849556 -0.114516 -1.02057e-22)
(0.858444 -0.110964 1.6489e-22)
(0.868633 -0.107147 -4.84855e-22)
(0.876623 -0.104486 -1.87571e-22)
(0.887511 -0.101302 6.02712e-22)
(0.893972 -0.0996641 -2.05754e-22)
(0.906464 -0.0973324 -2.1147e-22)
(0.910248 -0.096712 1.52159e-22)
(0.926025 -0.0957853 -6.46518e-23)
(1.05657 0.131013 0)
(1.02889 0.113382 0)
(1.00917 0.0989262 0)
(0.9889 0.0858734 0)
(0.968044 0.0739584 0)
(0.94853 0.062866 0)
(0.931587 0.0524557 0)
(0.917484 0.0427208 0)
(0.906016 0.0335815 0)
(0.896946 0.0248854 0)
(0.890132 0.0164052 0)
(0.885502 0.00789176 0)
(0.883021 -0.000884481 0)
(0.882458 -0.0101647 0)
(0.883754 -0.0201008 0)
(0.886362 -0.030966 0)
(0.88998 -0.0426774 0)
(0.894267 -0.055121 0)
(0.89879 -0.0681045 0)
(0.903123 -0.0813377 0)
(0.906924 -0.0944725 0)
(0.909954 -0.107121 0)
(0.912119 -0.118905 0)
(0.913454 -0.129495 0)
(0.914116 -0.138648 0)
(0.914331 -0.146211 0)
(0.914364 -0.152125 0)
(0.914456 -0.15641 0)
(0.914822 -0.159169 0)
(0.915608 -0.160528 0)
(0.916918 -0.16067 0)
(0.918784 -0.159751 0)
(0.921215 -0.15798 0)
(0.924171 -0.155484 0)
(0.927595 -0.152479 0)
(0.93143 -0.14902 0)
(0.93557 -0.145339 0)
(0.940033 -0.141388 0)
(0.944648 -0.137465 0)
(0.949586 -0.133383 0)
(0.954455 -0.129574 0)
(0.959763 -0.125645 0)
(0.964633 -0.122242 0)
(0.970314 -0.118678 0)
(0.974885 -0.115915 0)
(0.981114 -0.112894 0)
(0.984933 -0.11096 0)
(0.992151 -0.108681 0)
(0.994453 -0.107706 0)
(1.00362 -0.106487 0)
(1.21039 0.142453 0)
(1.21348 0.13318 0)
(1.21195 0.123564 0)
(1.20835 0.113311 0)
(1.20424 0.102849 0)
(1.20034 0.0924941 0)
(1.19691 0.0823092 0)
(1.1939 0.072206 0)
(1.1912 0.062052 0)
(1.18871 0.0516958 0)
(1.18645 0.0410197 0)
(1.1844 0.0299072 0)
(1.18256 0.0182867 0)
(1.18084 0.00611609 0)