/*--------------------------------*- C++ -*----------------------------------*\
  =========                 |
  \\      /  F ield         | OpenFOAM: The Open Source CFD Toolbox
   \\    /   O peration     | Website:  https://openfoam.org
    \\  /    A nd           | Version:  7
     \\/     M anipulation  |
\*---------------------------------------------------------------------------*/
FoamFile
{
    version     2.0;
    format      ascii;
    class       surfaceScalarField;
    location    "35";
    object      phi;
}
// * * * * * * * * * * * * * * * * * * * * * * * * * * * * * * * * * * * * * //

dimensions      [0 3 -1 0 0 0 0];

internalField   nonuniform List<scalar> 
2625
(
-3.73527e-05
2.59597e-05
-7.24048e-05
3.50521e-05
-0.000112222
3.98173e-05
-0.000153217
4.09952e-05
-0.00019234
3.91227e-05
-0.000226932
3.45916e-05
-0.000254608
2.76768e-05
-0.000273173
1.85642e-05
-0.00028055
7.37716e-06
-0.000274754
-5.79583e-06
-0.000253882
-2.08721e-05
-0.000216142
-3.77401e-05
-0.000159938
-5.6204e-05
-8.40176e-05
-7.59202e-05
1.22948e-05
-9.63123e-05
0.000128785
-0.000116491
0.000263948
-0.000135163
0.000414291
-0.000150343
-0.000158955
0.000573246
-9.94036e-06
2.13334e-05
-3.20268e-05
4.80462e-05
-6.09596e-05
6.39848e-05
-9.24781e-05
7.13358e-05
-0.000122997
7.1514e-05
-0.00014942
6.55455e-05
-0.000169007
5.41787e-05
-0.000179266
3.79364e-05
-0.000177871
1.71687e-05
-0.000162596
-7.89754e-06
-0.000131287
-3.71047e-05
-8.18362e-05
-7.03233e-05
-1.22071e-05
-0.000107369
7.95079e-05
-0.000147919
0.000194966
-0.000191378
0.000335362
-0.000236708
0.000501097
-0.000282226
0.000691297
-0.000325363
0.00090297
-0.000362016
-0.000385495
0.00112951
-7.18437e-06
2.85177e-05
-2.18634e-05
6.27252e-05
-3.90382e-05
8.11596e-05
-5.45588e-05
8.68564e-05
-6.4832e-05
8.17872e-05
-6.66687e-05
6.73822e-05
-5.71713e-05
4.46813e-05
-3.36418e-05
1.4407e-05
6.48808e-06
-2.29612e-05
6.57127e-05
-6.71221e-05
0.000146494
-0.000117886
0.000251276
-0.000175105
0.000382493
-0.000238587
0.000542549
-0.000307975
0.000733742
-0.000382572
0.00095811
-0.000461076
0.00121711
-0.000541221
0.00151101
-0.000619268
0.00183783
-0.000688832
-0.000738585
0.00219092
-3.37979e-06
3.18975e-05
-7.70407e-06
6.70495e-05
-8.32491e-06
8.17805e-05
-1.21245e-06
7.97439e-05
1.72549e-05
6.33198e-05
5.04042e-05
3.42329e-05
0.000101353
-6.26785e-06
0.000173072
-5.73114e-05
0.000268446
-0.000118335
0.000390308
-0.000188984
0.000541467
-0.000269045
0.00072473
-0.000358368
0.000942919
-0.000456776
0.00119888
-0.000563937
0.00149548
-0.000679173
0.00183554
-0.000801134
0.0022216
-0.000927277
0.00265532
-0.00105299
0.00313613
-0.00116964
-0.00126017
0.00365771
1.18612e-06
3.07114e-05
9.48044e-06
5.87552e-05
2.92013e-05
6.20596e-05
6.42759e-05
4.46694e-05
0.000118376
9.21949e-06
0.000194989
-4.23796e-05
0.00029747
-0.000108749
0.000429085
-0.000188927
0.000593027
-0.000282277
0.000792431
-0.000388388
0.00103038
-0.000506992
0.0013099
-0.000637888
0.00163397
-0.000780852
0.00200556
-0.000935525
0.00242763
-0.00110124
0.00290319
-0.0012767
0.00343528
-0.00145937
0.00402655
-0.00164426
0.004678
-0.00182109
-0.00196689
0.00538472
6.26848e-06
2.44429e-05
2.8824e-05
3.61997e-05
7.17069e-05
1.91767e-05
0.000138755
-2.23791e-05
0.000233681
-8.57062e-05
0.000360106
-0.000168805
0.00052157
-0.000270213
0.000721534
-0.000388891
0.000963365
-0.000524108
0.00125031
-0.000675331
0.00158545
-0.000842137
0.0019717
-0.00102413
0.00241171
-0.00122087
0.00290794
-0.00143176
0.00346264
-0.00165593
0.00407795
-0.00189201
0.00475612
-0.00213754
0.00549956
-0.0023877
0.00631039
-0.00263192
-0.00284395
0.00718745
1.17141e-05
1.27288e-05
4.97148e-05
-1.80092e-06
0.000117776
-4.88841e-05
0.000219618
-0.000124222
0.000358915
-0.000225003
0.000539286
-0.000349176
0.000764269
-0.000495195
0.00103726
-0.000661885
0.00136148
-0.00084832
0.00173984
-0.0010537
0.00217496
-0.00127725
0.00266899
-0.00151816
0.00322359
-0.00177547
0.00383986
-0.00204803
0.00451834
-0.00233441
0.0052591
-0.00263277
0.00606206
-0.00294051
0.00692757
-0.0032532
0.00785779
-0.00356214
-0.0038455
0.00885934
1.74711e-05
-4.74227e-06
7.17818e-05
-5.61116e-05
0.000166403
-0.000143505
0.000304773
-0.000262592
0.000490322
-0.000410552
0.000726387
-0.000585242
0.00101612
-0.000784931
0.0013624
-0.00100816
0.00176768
-0.0012536
0.00223394
-0.00151996
0.00276252
-0.00180583
0.00335407
-0.00210971
0.00400846
-0.00242986
0.00472476
-0.00276432
0.0055012
-0.00311085
0.0063353
-0.00346687
0.00722406
-0.00382926
0.00816413
-0.00419328
0.00915276
-0.00455077
-0.00489616
0.0102034
2.35177e-05
-2.826e-05
9.4794e-05
-0.000127388
0.000216713
-0.000265424
0.000392161
-0.00043804
0.000623942
-0.000642333
0.000914625
-0.000875925
0.00126638
-0.00113669
0.00168083
-0.0014226
0.00215886
-0.00173164
0.00270057
-0.00206166
0.0033051
-0.00241037
0.00397068
-0.00277529
0.00469463
-0.00315381
0.00547348
-0.00354317
0.00630326
-0.00394063
0.00717988
-0.00434349
0.00809985
-0.00474923
0.00906219
-0.00515562
0.0100738
-0.00556234
-0.00597501
0.0111526
2.98268e-05
-5.80868e-05
0.000118363
-0.000215924
0.000267491
-0.000414552
0.000479064
-0.000649612
0.000754689
-0.000917958
0.00109548
-0.00121672
0.00150183
-0.00154304
0.0019732
-0.00189397
0.00250795
-0.00226639
0.00310327
-0.00265698
0.00375514
-0.00306223
0.00445837
-0.00347852
0.00520674
-0.00390218
0.00599321
-0.00432964
0.00681015
-0.00475758
0.00764966
-0.00518301
0.00850388
-0.00560345
0.00936537
-0.00601711
0.0102262
-0.00642322
-0.0068193
0.0110705
3.6264e-05
-9.43508e-05
0.000141782
-0.000321442
0.000316836
-0.000589607
0.000561608
-0.000894385
0.000875795
-0.00123214
0.00125826
-0.00159919
0.00170679
-0.00199156
0.00221784
-0.00240502
0.00278653
-0.00283508
0.0034066
-0.00327705
0.00407057
-0.0037262
0.00476993
-0.00417788
0.00549552
-0.00462776
0.00623782
-0.00507195
0.0069874
-0.00550716
0.00773523
-0.00593084
0.00847297
-0.00634118
0.00919294
-0.00673709
0.00988734
-0.00711762
-0.0074792
0.0105472
4.25606e-05
-0.000136911
0.000163895
-0.000442777
0.000361982
-0.000787694
0.000634601
-0.001167
0.000978773
-0.00157632
0.00139037
-0.00201078
0.00186385
-0.00246505
0.00239223
-0.0029334
0.0029671
-0.00340995
0.00357889
-0.00388884
0.00421721
-0.00436452
0.00487134
-0.00483201
0.00553069
-0.00528711
0.00618534
-0.0057266
0.00682649
-0.0061483
0.00744681
-0.00655116
0.0080407
-0.00693507
0.0086043
-0.00730069
0.00913543
-0.00764875
-0.00797791
0.00963415
4.83154e-05
-0.000185227
0.000183151
-0.000577613
0.000399468
-0.00100401
0.000691945
-0.00145948
0.00105427
-0.00193865
0.0014788
-0.00243531
0.0019564
-0.00294265
0.00247664
-0.00345364
0.00302803
-0.00396135
0.00359862
-0.00445942
0.00417648
-0.00494238
0.0047504
-0.00540594
0.00531045
-0.00584716
0.00584846
-0.00626461
0.00635837
-0.00665822
0.0068364
-0.00702918
0.00728097
-0.00737965
0.00769259
-0.00771231
0.00807351
-0.00802967
-0.00833244
0.00842804
5.30364e-05
-0.000238263
0.000197772
-0.000722348
0.000425564
-0.0012318
0.000727467
-0.00176138
0.00109348
-0.00230466
0.00151231
-0.00285414
0.00197149
-0.00340184
0.00245779
-0.00393994
0.00295779
-0.00446135
0.00345859
-0.00496022
0.00394852
-0.00543231
0.00441776
-0.00587517
0.00485881
-0.00628821
0.00526673
-0.00667252
0.00563916
-0.00703065
0.00597615
-0.00736617
0.00627974
-0.00768323
0.00655351
-0.00798609
0.0068022
-0.00827836
-0.00856192
0.00703169
5.62075e-05
-0.000294471
0.000206005
-0.000872146
0.000436822
-0.00146262
0.000735897
-0.00206046
0.00108959
-0.00265835
0.00148337
-0.00324792
0.00190225
-0.00382071
0.0023314
-0.00436909
0.00275697
-0.00488692
0.00316681
-0.00537007
0.00355116
-0.00581666
0.00390301
-0.00622703
0.00421829
-0.00660349
0.00449571
-0.00694994
0.0047364
-0.00727135
0.00494342
-0.00757318
0.00512108
-0.00786089
0.00527439
-0.0081394
0.00540862
-0.00841259
-0.0086826
0.0055293
5.7358e-05
-0.000351829
0.000206375
-0.00102116
0.000430604
-0.00168685
0.000713699
-0.00234355
0.00103892
-0.00298357
0.00138942
-0.00359842
0.0017489
-0.0041802
0.00210245
-0.00472263
0.0024373
-0.00522177
0.00274352
-0.00567629
0.00301434
-0.00608748
0.0032462
-0.00645889
0.00343851
-0.00679579
0.0035931
-0.00710453
0.00371362
-0.00739188
0.00380482
-0.00766438
0.00387186
-0.00792793
0.00391982
-0.00818736
0.00395336
-0.00844613
-0.00870606
0.00397682
5.61254e-05
-0.000407954
0.000197889
-0.00116293
0.000405452
-0.00189441
0.000659577
-0.00259768
0.000941412
-0.00326541
0.00123304
-0.00389005
0.0015183
-0.00446546
0.00178361
-0.00498794
0.00201857
-0.00545673
0.0022163
-0.00587403
0.00237343
-0.00624461
0.00248968
-0.00657514
0.00256728
-0.00687339
0.0026102
-0.00714745
0.00262338
-0.00740506
0.00261206
-0.00765305
0.00258119
-0.00789706
0.00253516
-0.00814133
0.00247756
-0.00838853
-0.00864003
0.00241153
5.22994e-05
-0.000460253
0.000180155
-0.00129078
0.000361258
-0.00207551
0.000574572
-0.00281099
0.000800425
-0.00349126
0.00102124
-0.00411086
0.00122233
-0.00466655
0.00139258
-0.00515818
0.00152468
-0.00558883
0.00161507
-0.00596443
0.00166351
-0.00629305
0.00167233
-0.00658395
0.0016456
-0.00684666
0.00158834
-0.00709019
0.00150576
-0.00732247
0.00140272
-0.00755002
0.00128343
-0.00777777
0.00115122
-0.00800912
0.00100861
-0.00824592
-0.00848894
0.000857524
4.58455e-05
-0.000506099
0.000153423
-0.00139836
0.000299235
-0.00222133
0.000461816
-0.00297357
0.000622091
-0.00365153
0.000764138
-0.00425291
0.000875843
-0.00477826
0.000949203
-0.00523154
0.000980216
-0.00561984
0.000968384
-0.00595259
0.000915935
-0.0062406
0.000826921
-0.00649494
0.000706326
-0.00672607
0.000559311
-0.00694318
0.000390668
-0.00715383
0.000204489
-0.00736384
4.03036e-06
-0.00757731
-0.000208294
-0.0077968
-0.000431012
-0.0080232
-0.00825661
-0.000663345
3.69059e-05
-0.000543005
0.000118535
-0.00147999
0.000221716
-0.00232451
0.000326044
-0.0030779
0.000414391
-0.00373988
0.000473577
-0.00431209
0.000494728
-0.00479941
0.000473198
-0.00521001
0.000408064
-0.00555471
0.000301297
-0.00584583
0.000156827
-0.00609613
-2.04211e-05
-0.00631769
-0.000225324
-0.00652116
-0.000453147
-0.00671535
-0.000699871
-0.00690711
-0.000962311
-0.0071014
-0.00123808
-0.00730155
-0.00152549
-0.00182335
-0.00213086
2.57854e-05
-0.00056879
7.68221e-05
-0.00153103
0.000131867
-0.00237955
0.000172996
-0.00311903
0.000186216
-0.0037531
0.000161806
-0.00428768
9.443e-05
-0.00473203
-1.73439e-05
-0.00509824
-0.000171874
-0.00540018
-0.000365374
-0.00565233
-0.000592967
-0.00586854
-0.000849531
-0.00606113
-0.00113032
-0.00624037
-0.00143137
-0.00641431
-0.00174956
-0.00208265
1.29763e-05
-0.000581767
2.99754e-05
-0.00154802
3.33762e-05
-0.00238295
8.98207e-06
-0.00309464
-5.33902e-05
-0.00369073
-0.000159464
-0.00418161
-0.000311069
-0.00458043
-0.000506823
-0.00490248
-0.000743071
-0.00516393
-0.00101493
-0.00538047
-0.00131718
-0.00556629
-0.00164495
-0.00199417
-1.32034e-06
-0.000580446
-2.02498e-05
-0.00152909
-7.00098e-05
-0.00233319
-0.000160086
-0.00300456
-0.000296018
-0.0035548
-0.000479651
-0.00399797
-0.000709588
-0.00435049
-0.000982106
-0.00462997
-0.00129215
-0.00485388
-0.00163427
-1.59671e-05
-0.000564479
-7.17302e-05
-0.00147333
-0.000174374
-0.00223055
-0.000328085
-0.00285085
-0.000533785
-0.0033491
-0.000789461
-0.0037423
-0.00109089
-0.00404906
-0.00143257
-3.08735e-05
-0.000533606
-0.000122688
-0.00138152
-0.000276151
-0.00207709
-0.00048981
-0.00263719
-0.00075995
-0.00307896
-0.00108105
-4.52698e-05
-0.000488336
-0.000171297
-0.00125549
-0.000372089
-0.0018763
-0.0006406
-0.00236868
-5.86529e-05
-0.000429683
-0.000215964
-0.00109818
-0.000459379
-0.00163288
-0.00205149
-7.05553e-05
-0.000359128
-0.000255308
-0.000913425
-0.00053564
-0.00135255
-8.05747e-05
-0.000278553
-0.00028817
-0.00070583
-8.83822e-05
-0.000190171
-0.000480586
-9.37278e-05
0.00068433
-0.000111084
0.000788072
-0.000103742
0.000888998
-0.000100926
0.000989026
-0.000100028
0.00108903
-0.000100002
0.00118962
-0.000100597
0.00129128
-0.000101651
0.00139426
-0.000102989
0.00149874
-0.000104474
0.00160475
-0.000106007
0.00171226
-0.000107518
0.00182122
-0.000108955
0.0019315
-0.000110278
0.00204296
-0.000111461
0.00215544
-0.000112484
0.00226878
-0.000113336
0.00238279
-0.000114011
0.0024973
-0.000114507
-0.000114827
0.00123053
-0.000212104
0.00132485
-0.000198062
0.0014177
-0.000193779
0.00151055
-0.000192873
0.00160381
-0.000193264
0.00169793
-0.000194715
0.00179329
-0.000197014
0.00189014
-0.000199832
0.00198855
-0.000202893
0.00208856
-0.000206011
0.00219009
-0.000209053
0.00229306
-0.000211923
0.00239733
-0.000214546
0.00250274
-0.000216874
0.00260913
-0.000218873
0.00271632
-0.000220524
0.00282413
-0.000221821
0.00293238
-0.000222762
-0.000223355
0.00227072
-0.000291905
0.00234511
-0.000272458
0.00242089
-0.000269554
0.00249866
-0.000270646
0.00257797
-0.000272576
0.00265886
-0.000275603
0.00274153
-0.000279686
0.00282607
-0.000284371
0.00291244
-0.000289265
0.00300055
-0.000294119
0.00309027
-0.000298767
0.00318143
-0.000303085
0.00327387
-0.000306982
0.00336739
-0.0003104
0.00346182
-0.000313303
0.00355697
-0.000315677
0.00365267
-0.000317518
0.00374874
-0.000318834
-0.000319643
0.00370342
-0.000337613
0.00374651
-0.000315551
0.00379542
-0.000318466
0.00384959
-0.000324814
0.00390735
-0.00033033
0.00396811
-0.000336364
0.00403172
-0.000343298
0.00409795
-0.000350601
0.00416649
-0.000357811
0.00423707
-0.000364694
0.00430941
-0.000371106
0.00438326
-0.000376937
0.00445839
-0.000382112
0.00453458
-0.000386588
0.00461162
-0.00039035
0.00468935
-0.000393397
0.00476757
-0.000395745
0.00484615
-0.000397417
0.00492495
-0.000398442
-0.000398855
0.0053829
-0.000335785
0.00538468
-0.000317338
0.00539817
-0.00033195
0.00542106
-0.000347705
0.0054504
-0.000359671
0.00548487
-0.000370832
0.00552372
-0.00038215
0.00556619
-0.000393079
0.00561162
-0.000403231
0.00565944
-0.000412522
0.00570926
-0.00042092
0.00576071
-0.000428392
0.00581352
-0.000434923
0.00586746
-0.000440521
0.00592231
-0.000445208
0.00597793
-0.000449016
0.00603417
-0.000451983
0.0060909
-0.000454151
0.00614803
-0.000455566
-0.000456273
0.00712871
-0.000277043
0.00708498
-0.000273615
0.00705952
-0.000306491
0.00704705
-0.000335229
0.00704375
-0.000356372
0.0070477
-0.000374785
0.0070574
-0.000391848
0.00707151
-0.000407189
0.00708905
-0.000420774
0.00710935
-0.000432822
0.00713192
-0.000443488
0.00715639
-0.000452866
0.0071825
-0.000461034
0.00721005
-0.000468068
0.00723888
-0.000474035
0.00726886
-0.000478999
0.00729989
-0.000483016
0.00733189
-0.000486144
0.00736476
-0.000488436
0.00739843
-0.000489944
-0.000490719
0.00874607
-0.00016377
0.00866717
-0.000194714
0.00860813
-0.000247449
0.0085607
-0.000287801
0.00852272
-0.00031839
0.00849249
-0.000344554
0.00846822
-0.000367579
0.00844865
-0.000387624
0.00843304
-0.000405157
0.00842086
-0.000420641
0.00841173
-0.000434364
0.00840538
-0.000446514
0.00840159
-0.000457241
0.00840018
-0.000466663
0.00840102
-0.000474876
0.00840398
-0.000481957
0.00840894
-0.000487975
0.00841579
-0.000492994
0.00842443
-0.000497071
0.00843474
-0.000500262
0.00844664
-0.000502619
-0.000504195
0.0100845
-4.48278e-05
0.00999926
-0.000109492
0.00991095
-0.000159144
0.00982616
-0.00020301
0.00974785
-0.000240079
0.00967587
-0.000272578
0.00960981
-0.000301518
0.00954955
-0.000327358
0.00949493
-0.000350542
0.00944573
-0.000371437
0.00940166
-0.000390293
0.00936243
-0.000407294
0.00932778
-0.000422587
0.00929742
-0.000436299
0.00927108
-0.000448536
0.00924851
-0.000459388
0.00922947
-0.00046894
0.00921374
-0.000477266
0.00920111
-0.000484439
0.00919138
-0.000490525
0.00918435
-0.00049559
0.00917985
-0.000499696
-0.000502902
0.0165553
0.000183477
-0.0167836
0.016335
0.000110755
0.0161322
4.36873e-05
0.0159447
-1.55014e-05
0.0157726
-6.79524e-05
0.0156147
-0.000114718
0.0154697
-0.000156466
0.0153361
-0.000193782
0.0152127
-0.000227202
0.0150985
-0.000257182
0.0149923
-0.000284102
0.0148933
-0.000308285
0.0148007
-0.000330006
0.0147139
-0.000349499
0.0146323
-0.000366961
0.0145555
-0.000382565
0.014483
-0.000396459
0.0144145
-0.000408775
0.0143497
-0.00041963
0.0142883
-0.000429131
0.0142301
-0.000437373
0.0141749
-0.000444446
0.0141224
-0.00045043
-0.000455404
0.0178813
0.000304864
-0.0180027
0.0177451
0.000247009
0.0176013
0.000187492
0.017456
0.00012975
0.0173125
7.5629e-05
0.0171722
2.55467e-05
0.0170363
-2.05866e-05
0.0169055
-6.29263e-05
0.0167799
-0.000101669
0.0166598
-0.000137064
0.016545
-0.000169319
0.0164354
-0.000198679
0.0163308
-0.000225372
0.0162309
-0.000249605
0.0161355
-0.000271567
0.0160444
-0.00029143
0.0159573
-0.000309352
0.015874
-0.000325474
0.0157942
-0.000339927
0.0157179
-0.000352831
0.0156449
-0.000364294
0.0155748
-0.000374418
0.0155077
-0.000383298
-0.00039102
0.0185745
0.000391667
-0.0186613
0.0184866
0.000334896
0.0183948
0.000279304
0.0182991
0.000225476
0.0182004
0.00017433
0.0180997
0.000126202
0.0179981
8.10824e-05
0.0178962
3.8913e-05
0.0177948
-2.2105e-07
0.0176945
-3.68212e-05
0.0175958
-7.0591e-05
0.017499
-0.000101812
0.0174042
-0.000130605
0.0173117
-0.000157104
0.0172216
-0.000181441
0.0171339
-0.000203743
0.0170487
-0.000224133
0.0169659
-0.000242728
0.0168856
-0.000259636
0.0168077
-0.000274964
0.0167323
-0.000288811
0.0166591
-0.000301269
0.0165882
-0.000312427
-0.00032237
0.0188958
0.000444082
-0.0189482
0.0188417
0.000388932
0.0187845
0.000336526
0.0187235
0.000286506
0.0186589
0.000238924
0.0185913
0.000193852
0.0185211
0.000151277
0.0184488
0.000111155
0.0183752
7.34361e-05
0.0183003
3.80366e-05
0.0182248
4.94014e-06
0.018149
-2.60006e-05
0.0180732
-5.48133e-05
0.0179977
-8.16085e-05
0.0179227
-0.000106472
0.0178485
-0.000129495
0.0177751
-0.000150766
0.0177027
-0.000170373
0.0176315
-0.000188403
0.0175615
-0.000204938
0.0174927
-0.000220058
0.0174253
-0.000233842
0.0173592
-0.000246364
-0.000257696
0.0189712
0.000466273
-0.0189934
0.0189448
0.000415337
0.0189143
0.000367019
0.0188797
0.000321113
0.0188412
0.000277391
0.0187993
0.000235796
0.0187542
0.000196316
0.0187065
0.000158922
0.0186563
0.000123569
0.0186042
9.02099e-05
0.0185503
5.879e-05
0.0184951
2.92512e-05
0.0184387
1.55514e-06
0.0183815
-2.44116e-05
0.0183237
-4.86664e-05
0.0182655
-7.12931e-05
0.0182071
-9.23576e-05
0.0181486
-0.000111927
0.0180903
-0.000130066
0.0180322
-0.000146842
0.0179745
-0.000162318
0.0179172
-0.000176557
0.0178604
-0.000189621
-0.00020157
0.0188993
0.000465554
-0.0188986
0.0188946
0.000420001
0.0188851
0.00037655
0.018871
0.000335191
0.0188527
0.000295664
0.0188307
0.000257881
0.0188051
0.000221845
0.0187765
0.000187553
0.0187451
0.000154983
0.0187112
0.0001241
0.0186751
9.48694e-05
0.0186371
6.72543e-05
0.0185975
4.12127e-05
0.0185563
1.66969e-05
0.018514
-6.33596e-06
0.0184707
-2.79406e-05
0.0184265
-4.81629e-05
0.0183816
-6.70559e-05
0.0183362
-8.46711e-05
0.0182904
-0.00010106
0.0182444
-0.000116275
0.0181982
-0.000130367
0.018152
-0.000143386
-0.000155381
0.0187541
0.000449273
-0.0187378
0.0187648
0.000409355
0.0187703
0.000371
0.0187712
0.000334309
0.0187678
0.000299068
0.0187605
0.000265205
0.0187496
0.000232744
0.0187354
0.000201708
0.0187183
0.000172095
0.0186985
0.000143893
0.0186763
0.000117084
0.0186519
9.16468e-05
0.0186256
6.7556e-05
0.0185975
4.47822e-05
0.0185678
2.32927e-05
0.0185368
3.05393e-06
0.0185047
-1.59759e-05
0.0184714
-3.38308e-05
0.0184373
-5.05522e-05
0.0184024
-6.61807e-05
0.0183669
-8.07574e-05
0.0183309
-9.43238e-05
0.0182944
-0.000106921
-0.00011859
0.0185826
0.000423497
-0.0185568
0.018603
0.000388934
0.0186185
0.000355456
0.0186296
0.000323235
0.0186365
0.000292121
0.0186397
0.00026207
0.0186393
0.000233122
0.0186357
0.000205318
0.0186291
0.000178675
0.0186198
0.000153196
0.018608
0.000128879
0.0185939
0.000105716
0.0185778
8.36965e-05
0.0185598
6.28033e-05
0.0185401
4.30162e-05
0.0185188
2.43119e-05
0.0184962
6.66423e-06
0.0184723
-9.95505e-06
0.0184473
-2.55756e-05
0.0184214
-4.02285e-05
0.0183945
-5.39462e-05
0.018367
-6.67614e-05
0.0183388
-7.87076e-05
-8.98183e-05
0.0184102
0.000392413
-0.0183791
0.0184364
0.000362664
0.0184582
0.000333638
0.0184759
0.000305537
0.0184898
0.000278261
0.0185001
0.000251792
0.018507
0.000226182
0.0185109
0.000201479
0.0185118
0.000177712
0.0185101
0.000154898
0.018506
0.000133044
0.0184995
0.000112154
0.018491
9.22278e-05
0.0184805
7.32574e-05
0.0184683
5.5233e-05
0.0184545
3.81407e-05
0.0184392
2.19632e-05
0.0184225
6.68138e-06
0.0184047
-7.7266e-06
0.0183858
-2.12842e-05
0.0183658
-3.40154e-05
0.018345
-4.59468e-05
0.0183234
-5.71046e-05
-6.75157e-05
0.0182488
0.000358551
-0.0182149
0.0182784
0.000333037
0.018304
0.000307999
0.0183259
0.00028363
0.0183443
0.000259868
0.0183594
0.000236713
0.0183714
0.000214218
0.0183804
0.000192438
0.0183867
0.000171407
0.0183905
0.000151149
0.0183918
0.000131679
0.018391
0.000113009
0.0183881
9.51446e-05
0.0183832
7.80865e-05
0.0183766
6.18317e-05
0.0183684
4.63735e-05
0.0183587
3.17018e-05
0.0183475
1.78042e-05
0.0183351
4.66573e-06
0.0183216
-7.73047e-06
0.018307
-1.94028e-05
0.0182914
-3.0371e-05
0.018275
-4.06558e-05
-5.02791e-05
0.0181027
0.000323313
-0.0180675
0.0181343
0.000301523
0.0181622
0.000280043
0.0181868
0.000259042
0.0182082
0.000238485
0.0182265
0.000218378
0.018242
0.000198776
0.0182547
0.000179733
0.0182648
0.000161285
0.0182725
0.000143459
0.0182779
0.000126276
0.0182811
0.000109751
0.0182824
9.3895e-05
0.0182818
7.87137e-05
0.0182794
6.42096e-05
0.0182754
5.03808e-05
0.0182699
3.72224e-05
0.0182629
2.47279e-05
0.0182547
1.28871e-05
0.0182453
1.68866e-06
0.0182348
-8.88098e-06
0.0182232
-1.88367e-05
0.0182108
-2.81943e-05
-3.69709e-05
0.017973
0.000287443
-0.0179371
0.0180055
0.000268952
0.0180349
0.000250659
0.0180613
0.000232709
0.0180847
0.000215078
0.0181053
0.00019778
0.0181232
0.000180865
0.0181385
0.000164384
0.0181514
0.000148372
0.018162
0.000132858
0.0181705
0.000117863
0.0181768
0.000103405
0.0181812
8.94969e-05
0.0181838
7.61489e-05
0.0181846
6.33659e-05
0.0181838
5.11501e-05
0.0181816
3.95006e-05
0.0181779
2.8414e-05
0.0181729
1.78849e-05
0.0181667
7.90545e-06
0.0181593
-1.53351e-06
0.0181509
-1.04429e-05
0.0181416
-1.88348e-05
-2.67221e-05
0.0178591
0.000251327
-0.017823
0.0178923
0.000235789
0.0179226
0.000220374
0.0179501
0.000205204
0.0179749
0.000190262
0.0179971
0.000175563
0.0180168
0.000161154
0.0180341
0.000147078
0.0180491
0.000133368
0.0180619
0.000120053
0.0180726
0.000107152
0.0180814
9.46858e-05
0.0180882
8.26674e-05
0.0180932
7.11076e-05
0.0180966
6.0014e-05
0.0180983
4.93906e-05
0.0180986
3.92393e-05
0.0180975
2.95598e-05
0.018095
2.03491e-05
0.0180913
1.16026e-05
0.0180865
3.31412e-06
0.0180805
-4.52393e-06
0.0180736
-1.19204e-05
-1.88853e-05
0.0177606
0.000215167
-0.0177244
0.0177941
0.000202303
0.0178249
0.000189514
0.0178532
0.000176898
0.017879
0.000164443
0.0179024
0.000152164
0.0179235
0.000140101
0.0179423
0.000128292
0.0179589
0.000116766
0.0179734
0.000105548
0.0179859
9.46585e-05
0.0179965
8.41141e-05
0.0180052
7.3929e-05
0.0180122
6.41143e-05
0.0180175
5.46779e-05
0.0180213
4.56254e-05
0.0180236
3.69601e-05
0.0180244
2.8683e-05
0.018024
2.07935e-05
0.0180223
1.32891e-05
0.0180195
6.16586e-06
0.0180155
-5.81272e-07
0.0180106
-6.95877e-06
-1.29738e-05
0.0176768
0.000179069
-0.0176407
0.0177104
0.000168657
0.0177417
0.000158287
0.0177705
0.000148038
0.0177971
0.000137902
0.0178213
0.000127892
0.0178434
0.000118041
0.0178633
0.00010838
0.0178811
9.89346e-05
0.017897
8.97257e-05
0.0179109
8.07713e-05
0.0179229
7.20863e-05
0.0179331
6.36837e-05
0.0179417
5.55741e-05
0.0179486
4.77644e-05
0.0179539
4.02615e-05
0.0179578
3.30685e-05
0.0179603
2.61876e-05
0.0179615
1.96195e-05
0.0179614
1.33628e-05
0.0179602
7.41588e-06
0.0179578
1.77455e-06
0.0179544
-3.56478e-06
-8.60787e-06
0.0176074
0.00014308
-0.0175714
0.0176411
0.000134942
0.0176726
0.000126827
0.0177018
0.000118795
0.0177289
0.000110841
0.0177538
0.000102976
0.0177766
9.52255e-05
0.0177974
8.7614e-05
0.0178161
8.01622e-05
0.017833
7.2887e-05
0.0178479
6.58033e-05
0.0178611
5.89238e-05
0.0178725
5.22592e-05
0.0178823
4.58184e-05
0.0178904
3.96084e-05
0.0178971
3.36345e-05
0.0179022
2.79004e-05
0.017906
2.24085e-05
0.0179085
1.71599e-05
0.0179097
1.21544e-05
0.0179097
7.39087e-06
0.0179086
2.86723e-06
0.0179065
-1.41946e-06
-5.47291e-06
0.0175521
0.000107206
-0.0175162
0.0175858
0.000101205
0.0176174
9.52186e-05
0.0176469
8.9288e-05
0.0176744
8.34102e-05
0.0176998
7.75929e-05
0.0177231
7.18545e-05
0.0177445
6.62138e-05
0.017764
6.06862e-05
0.0177816
5.52839e-05
0.0177974
5.00187e-05
0.0178114
4.48997e-05
0.0178237
3.99359e-05
0.0178344
3.51342e-05
0.0178435
3.04997e-05
0.0178511
2.6037e-05
0.0178573
2.17496e-05
0.0178621
1.76393e-05
0.0178655
1.37074e-05
0.0178677
9.95412e-06
0.0178687
6.37901e-06
0.0178686
2.98085e-06
0.0178674
-2.4226e-07
-3.29276e-06
0.0175108
7.143e-05
-0.017475
0.0175445
6.74678e-05
0.0175762
6.35165e-05
0.0176059
5.96035e-05
0.0176336
5.57246e-05
0.0176593
5.18843e-05
0.0176831
4.80944e-05
0.0177049
4.43667e-05
0.0177249
4.07113e-05
0.017743
3.71365e-05
0.0177594
3.36498e-05
0.017774
3.02577e-05
0.017787
2.69659e-05
0.0177984
2.37791e-05
0.0178082
2.07014e-05
0.0178165
1.77356e-05
0.0178233
1.48842e-05
0.0178288
1.21488e-05
0.017833
9.53024e-06
0.0178359
7.02902e-06
0.0178377
4.64494e-06
0.0178383
2.37735e-06
0.0178378
2.25156e-07
-1.81312e-06
0.0174834
3.57216e-05
-0.0174477
0.0175172
3.37366e-05
0.0175489
3.17669e-05
0.0175787
2.98199e-05
0.0176065
2.78912e-05
0.0176324
2.59818e-05
0.0176564
2.40976e-05
0.0176786
2.22441e-05
0.0176988
2.0426e-05
0.0177173
1.86473e-05
0.0177341
1.69114e-05
0.0177491
1.52219e-05
0.0177625
1.35819e-05
0.0177743
1.19933e-05
0.0177845
1.04585e-05
0.0177933
8.97859e-06
0.0178006
7.55513e-06
0.0178066
6.18921e-06
0.0178112
4.88099e-06
0.0178146
3.63098e-06
0.0178168
2.43877e-06
0.0178179
1.30435e-06
0.0178179
2.27468e-07
-7.9296e-07
0.0174699
-0.0174342
0.0175037
0.0175354
0.0175652
0.0175931
0.0176191
0.0176432
0.0176655
0.0176859
0.0177045
0.0177214
0.0177367
0.0177502
0.0177622
0.0177727
0.0177817
0.0177892
0.0177954
0.0178003
0.0178039
0.0178064
0.0178077
0.0178079
0.0116161
-0.017247
0.0116698
-0.0180565
0.0114174
-0.0184089
0.0109341
-0.0184649
0.010307
-0.0183664
0.00960594
-0.0181975
0.0088748
-0.0180067
0.00813872
-0.0178207
0.00740994
-0.0176503
0.00669291
-0.0174979
0.00598831
-0.0173629
0.0052953
-0.0172441
0.00461256
-0.0171403
0.00393864
-0.0170505
0.00327209
-0.0169742
0.00261151
-0.0169108
0.00195544
-0.0168602
0.00130245
-0.016822
0.000651071
-0.0167964
-0.0167831
0.0113263
-0.0175027
0.0111423
-0.0178726
0.0106935
-0.01796
0.01009
-0.0178614
0.00941263
-0.017689
0.00871455
-0.0174994
0.00802137
-0.0173135
0.00734204
-0.0171414
0.0066784
-0.0169866
0.00602948
-0.016849
0.00539347
-0.0167269
0.00476857
-0.0166192
0.00415319
-0.0165249
0.00354592
-0.0164432
0.00294542
-0.0163737
0.00235042
-0.0163158
0.00175965
-0.0162694
0.00117182
-0.0162342
0.000585655
-0.0162102
-0.0161975
0.0104696
-0.0174251
0.0100953
-0.0174983
0.00956172
-0.0174264
0.00896192
-0.0172616
0.00833793
-0.017065
0.00771226
-0.0168737
0.00709663
-0.0166979
0.00649466
-0.0165394
0.00590644
-0.0163984
0.005331
-0.0162735
0.00476705
-0.0161629
0.00421322
-0.0160654
0.0036682
-0.0159799
0.00313077
-0.0159058
0.00259973
-0.0158426
0.00207391
-0.01579
0.00155217
-0.0157476
0.00103336
-0.0157154
0.000516321
-0.0156931
-0.0156811
0.00935471
-0.0171457
0.00890904
-0.0170526
0.00837166
-0.0168891
0.00780374
-0.0166936
0.00723451
-0.0164958
0.00667551
-0.0163148
0.0061319
-0.0161543
0.00560459
-0.0160121
0.00509209
-0.0158859
0.00459246
-0.0157739
0.00410397
-0.0156745
0.00362511
-0.0155865
0.00315454
-0.0155093
0.00269107
-0.0154423
0.00223361
-0.0153852
0.0017811
-0.0153375
0.00133249
-0.015299
0.000886786
-0.0152697
0.000442943
-0.0152493
-0.0152382
0.00804321
-0.0167609
0.00757581
-0.0165852
0.00706972
-0.016383
0.00655975
-0.0161837
0.00606349
-0.0159995
0.00558489
-0.0158361
0.00512348
-0.0156929
0.00467773
-0.0155664
0.00424566
-0.0154539
0.00382537
-0.0153536
0.00341529
-0.0152644
0.00301413
-0.0151853
0.00262072
-0.0151159
0.00223398
-0.0150556
0.00185292
-0.0150041
0.00147658
-0.0149611
0.00110403
-0.0149265
0.000734361
-0.0149
0.00036665
-0.0148816
-0.0148716
0.00661678
-0.016346
0.00617212
-0.0161406
0.00572326
-0.0159341
0.00528652
-0.0157469
0.00486957
-0.0155826
0.00447257
-0.0154391
0.00409311
-0.0153134
0.00372883
-0.0152021
0.00337766
-0.0151027
0.00303778
-0.0150137
0.00270768
-0.0149343
0.00238608
-0.0148637
0.00207184
-0.0148016
0.00176394
-0.0147477
0.00146143
-0.0147016
0.00116344
-0.0146631
0.000869121
-0.0146322
0.000577659
-0.0146085
0.000288231
-0.0145922
-0.0145833
0.00512979
-0.0159465
0.004732
-0.0157428
0.00435071
-0.0155528
0.00399216
-0.0153884
0.00365715
-0.0152476
0.00334312
-0.0151251
0.00304669
-0.015017
0.00276505
-0.0149204
0.00249597
-0.0148336
0.00223771
-0.0147554
0.00198877
-0.0146853
0.00174794
-0.0146229
0.0015141
-0.0145678
0.00128629
-0.0145199
0.00106362
-0.0144789
0.000845264
-0.0144448
0.000630468
-0.0144174
0.000418491
-0.0143966
0.000208596
-0.0143823
-0.0143747
0.00361783
-0.0155875
0.00328087
-0.0154058
0.0029733
-0.0152453
0.00269505
-0.0151101
0.00244245
-0.0149949
0.00221102
-0.0148937
0.00199699
-0.0148029
0.00179749
-0.0147209
0.00161032
-0.0146464
0.00143369
-0.0145788
0.00126614
-0.0145178
0.00110639
-0.0144632
0.000953362
-0.0144148
0.00080609
-0.0143726
0.00066372
-0.0143365
0.00052548
-0.0143066
0.000390662
-0.0142826
0.000258599
-0.0142645
0.000128625
-0.0142523
-0.0142461
0.00210745
-0.0152834
0.00183853
-0.0151369
0.00160648
-0.0150132
0.0014079
-0.0149116
0.00123665
-0.0148237
0.00108635
-0.0147434
0.000953149
-0.0146697
0.000834864
-0.0146027
0.000728961
-0.0145405
0.000633507
-0.0144834
0.000546927
-0.0144312
0.000467914
-0.0143841
0.000395358
-0.0143422
0.000328304
-0.0143055
0.000265915
-0.0142742
0.000207451
-0.0142481
0.000152247
-0.0142274
9.96933e-05
-0.0142119
4.91874e-05
-0.0142018
-0.0141969
0.000610311
-0.0150362
0.000410013
-0.0149366
0.000253416
-0.0148566
0.000132195
-0.0147903
3.85706e-05
-0.0147301
-3.09804e-05
-0.0146738
-8.13259e-05
-0.0146194
-0.000117822
-0.0145662
-0.000142516
-0.0145158
-0.000157216
-0.0144687
-0.000163436
-0.014425
-0.000162446
-0.0143851
-0.000155335
-0.0143493
-0.000143038
-0.0143178