/*--------------------------------*- C++ -*----------------------------------*\
  =========                 |
  \\      /  F ield         | OpenFOAM: The Open Source CFD Toolbox
   \\    /   O peration     | Website:  https://openfoam.org
    \\  /    A nd           | Version:  7
     \\/     M anipulation  |
\*---------------------------------------------------------------------------*/
FoamFile
{
    version     2.0;
    format      ascii;
    class       volScalarField;
    location    "99.999";
    object      p;
}
// * * * * * * * * * * * * * * * * * * * * * * * * * * * * * * * * * * * * * //

dimensions      [0 2 -2 0 0 0 0];

internalField   nonuniform List<scalar> 
3700
(
-0.309202
-0.294675
-0.28461
-0.280691
-0.282882
-0.29054
-0.300291
-0.308256
-0.311086
-0.305674
-0.290878
-0.267667
-0.23859
-0.207341
-0.177563
-0.151941
-0.131909
-0.117845
-0.109469
-0.106305
-0.108145
-0.115179
-0.127487
-0.144206
-0.163075
-0.180755
-0.193734
-0.199267
-0.196164
-0.18487
-0.167385
-0.146588
-0.125314
-0.10569
-0.0889265
-0.0754605
-0.0652428
-0.0580157
-0.0534822
-0.0513662
-0.051458
-0.053705
-0.0582741
-0.0654276
-0.0751791
-0.0869293
-0.0993603
-0.110677
-0.11906
-0.123107
-0.122151
-0.11645
-0.106943
-0.0950046
-0.0820378
-0.069204
-0.0572971
-0.0467491
-0.0377215
-0.0302186
-0.024181
-0.0195169
-0.0161427
-0.0140041
-0.0131648
-0.0137376
-0.0158303
-0.0192537
-0.0235369
-0.0278178
-0.0312066
-0.0328445
-0.0320969
-0.0288625
-0.0228105
-0.0149873
-0.00503871
-0.322034
-0.30039
-0.282342
-0.270213
-0.264978
-0.266259
-0.2714
-0.276677
-0.279094
-0.274474
-0.262056
-0.242427
-0.217623
-0.190879
-0.165421
-0.14369
-0.127052
-0.115908
-0.110062
-0.109191
-0.113296
-0.122724
-0.137521
-0.156587
-0.177348
-0.196219
-0.209572
-0.214606
-0.210426
-0.197424
-0.177878
-0.154933
-0.131624
-0.110188
-0.0918582
-0.0770426
-0.0656439
-0.0573491
-0.0518123
-0.0487209
-0.0478305
-0.0490393
-0.052456
-0.0583141
-0.0666633
-0.0770069
-0.0881664
-0.0984899
-0.106279
-0.110216
-0.109652
-0.104795
-0.0964568
-0.0858744
-0.0743166
-0.0628422
-0.0521846
-0.0427518
-0.034709
-0.0280803
-0.0228318
-0.0188945
-0.0162098
-0.0147527
-0.0146235
-0.0159615
-0.018881
-0.0231633
-0.028285
-0.0333025
-0.0372481
-0.0391591
-0.0383297
-0.0345723
-0.0275343
-0.0182234
-0.00639611
-0.333508
-0.304969
-0.279069
-0.258818
-0.245909
-0.240502
-0.240586
-0.242517
-0.244707
-0.240881
-0.230798
-0.214943
-0.194565
-0.172466
-0.151459
-0.133742
-0.12059
-0.112416
-0.109114
-0.110549
-0.116944
-0.128782
-0.146036
-0.167361
-0.189887
-0.209839
-0.223516
-0.227967
-0.222898
-0.208331
-0.186898
-0.161989
-0.136833
-0.113759
-0.0940114
-0.0779674
-0.0654844
-0.0562002
-0.0497242
-0.0457106
-0.0438839
-0.044099
-0.0464087
-0.0510126
-0.0579912
-0.0669495
-0.0768517
-0.0861912
-0.0933893
-0.0972101
-0.0970396
-0.0929731
-0.0857607
-0.0764936
-0.0663092
-0.0561677
-0.0467431
-0.0384185
-0.0313619
-0.0256151
-0.0211678
-0.0179722
-0.015995
-0.0152413
-0.0158486
-0.0179824
-0.0217633
-0.0269433
-0.0329487
-0.0387525
-0.0433081
-0.0455406
-0.0446694
-0.0404103
-0.032387
-0.0215612
-0.00780517
-0.342861
-0.307879
-0.274537
-0.246609
-0.226148
-0.214018
-0.208774
-0.207652
-0.207856
-0.205159
-0.19765
-0.185577
-0.169646
-0.152212
-0.135677
-0.121999
-0.112348
-0.107136
-0.106358
-0.110086
-0.118784
-0.133029
-0.15269
-0.176162
-0.20032
-0.221259
-0.235289
-0.239811
-0.233414
-0.217416
-0.194311
-0.167673
-0.140898
-0.116391
-0.0953988
-0.0782666
-0.0648101
-0.054625
-0.0472832
-0.0424089
-0.0397006
-0.0389753
-0.0402343
-0.0436398
-0.0492951
-0.0569038
-0.0655736
-0.0739443
-0.0805551
-0.0842457
-0.0844241
-0.0811051
-0.0749657
-0.0669564
-0.0580922
-0.0492404
-0.0410171
-0.0337807
-0.0277003
-0.0228336
-0.0191907
-0.0167437
-0.0154842
-0.015448
-0.0168103
-0.0197612
-0.024429
-0.0305361
-0.0374623
-0.0440959
-0.0493116
-0.0519141
-0.051045
-0.0463152
-0.0373203
-0.0249683
-0.00925278
-0.349505
-0.308679
-0.26862
-0.233833
-0.206225
-0.187613
-0.176848
-0.172269
-0.170508
-0.168066
-0.163294
-0.154708
-0.143118
-0.130238
-0.118092
-0.108388
-0.102175
-0.0998672
-0.101571
-0.107583
-0.118595
-0.13524
-0.157239
-0.182732
-0.208384
-0.230213
-0.244553
-0.248806
-0.241709
-0.224537
-0.200024
-0.171933
-0.1438
-0.118091
-0.0960466
-0.077981
-0.0636721
-0.0526827
-0.0445548
-0.0388882
-0.0353596
-0.0337546
-0.0340278
-0.0363022
-0.0406952
-0.0470021
-0.054473
-0.0618943
-0.0679207
-0.0714605
-0.0719294
-0.0693103
-0.0641764
-0.0573519
-0.0497397
-0.04212
-0.0350534
-0.028873
-0.0237484
-0.0197501
-0.0169063
-0.0152064
-0.0146669
-0.0153545
-0.0174809
-0.0212606
-0.0268295
-0.0338826
-0.0417568
-0.0492558
-0.0551769
-0.0581975
-0.0573783
-0.0522157
-0.0422771
-0.0284068
-0.0107235
-0.307229
-0.261366
-0.220831
-0.186685
-0.162221
-0.145805
-0.137423
-0.133471
-0.1306
-0.129255
-0.122779
-0.115282
-0.106707
-0.0987598
-0.0928732
-0.0899668
-0.0904644
-0.0946048
-0.10292
-0.116272
-0.135301
-0.159552
-0.18692
-0.213914
-0.236539
-0.251176
-0.255277
-0.247679
-0.229609
-0.203986
-0.174747
-0.145543
-0.118881
-0.0959935
-0.077159
-0.062126
-0.0504338
-0.0416036
-0.0352174
-0.030935
-0.0285167
-0.0278751
-0.0290941
-0.0322966
-0.0373595
-0.0436722
-0.0501665
-0.0556107
-0.0589763
-0.0596915
-0.0577018
-0.053491
-0.0477654
-0.0413246
-0.0348671
-0.0289004
-0.0237332
-0.0195339
-0.0163832
-0.0143242
-0.013362
-0.0135369
-0.0149456
-0.0178358
-0.0224448
-0.0289176
-0.0369232
-0.0457616
-0.0541522
-0.0608175
-0.0643026
-0.0635846
-0.0580332
-0.047193
-0.0318341
-0.0121998
-0.303797
-0.253562
-0.207592
-0.167765
-0.138669
-0.116607
-0.104334
-0.0976943
-0.0937166
-0.0938827
-0.0901376
-0.0864306
-0.0817975
-0.0777688
-0.0754686
-0.0756945
-0.0788764
-0.0854293
-0.0960864
-0.11182
-0.133212
-0.159601
-0.188672
-0.216848
-0.240171
-0.255113
-0.259188
-0.251288
-0.232599
-0.206185
-0.176122
-0.14615
-0.118803
-0.0952882
-0.0758548
-0.0602295
-0.0479387
-0.0384919
-0.0314608
-0.026494
-0.0233319
-0.0218516
-0.0220967
-0.0241883
-0.0280735
-0.0332744
-0.0388669
-0.0437308
-0.0468981
-0.0478116
-0.0463761
-0.0429987
-0.038277
-0.0329168
-0.0275411
-0.0226075
-0.018401
-0.0150875
-0.0127549
-0.0114585
-0.0112164
-0.0120921
-0.0142105
-0.0178543
-0.0232816
-0.0306484
-0.0396
-0.0494061
-0.0587032
-0.0661439
-0.0701359
-0.0695729
-0.0636865
-0.0520004
-0.0352037
-0.0136623
-0.298847
-0.245241
-0.195196
-0.151445
-0.116749
-0.0898095
-0.0741217
-0.0642004
-0.0587681
-0.0590328
-0.0575945
-0.0569218
-0.0557549
-0.055277
-0.0562812
-0.0594298
-0.0651949
-0.0741586
-0.0872055
-0.105351
-0.129057
-0.157447
-0.188036
-0.217223
-0.24115
-0.256405
-0.26057
-0.252554
-0.233526
-0.206642
-0.17609
-0.14567
-0.11791
-0.0939881
-0.0741266
-0.0580414
-0.0452561
-0.0352786
-0.0276774
-0.0220962
-0.0182612
-0.0160199
-0.015377
-0.0164429
-0.019223
-0.0233631
-0.028081
-0.0323675
-0.0353135
-0.0363712
-0.0354127
-0.0327776
-0.0289591
-0.0245818
-0.0201998
-0.0162244
-0.012918
-0.0104427
-0.00889093
-0.008327
-0.00878003
-0.010335
-0.0131432
-0.01752
-0.0237429
-0.0319807
-0.0418579
-0.0526217
-0.0628281
-0.0710655
-0.0756013
-0.075248
-0.0690904
-0.0566315
-0.0384679
-0.0150902
-0.292951
-0.23713
-0.184258
-0.137298
-0.0983377
-0.0677304
-0.0470694
-0.033942
-0.0268413
-0.0258622
-0.0261407
-0.0273121
-0.0290112
-0.031615
-0.0355797
-0.0414239
-0.0496863
-0.0610656
-0.0765388
-0.0970922
-0.123021
-0.153238
-0.18514
-0.215164
-0.239599
-0.255176
-0.259516
-0.251554
-0.232444
-0.205413
-0.174717
-0.14417
-0.11627
-0.0921565
-0.0720346
-0.0556192
-0.0424419
-0.032018
-0.0239204
-0.0177934
-0.0133556
-0.0104304
-0.00898749
-0.00911698
-0.0108691
-0.0140031
-0.0178752
-0.0215874
-0.0242891
-0.0254398
-0.0248797
-0.0228954
-0.0198763
-0.0163796
-0.012898
-0.00980001
-0.00732647
-0.00563511
-0.00481988
-0.00495143
-0.00606764
-0.00827323
-0.0117427
-0.0168221
-0.0238061
-0.0328789
-0.0436468
-0.0553437
-0.0664486
-0.0754935
-0.0806037
-0.0805139
-0.074158
-0.0610136
-0.0415763
-0.016462
-0.286584
-0.229817
-0.175334
-0.126052
-0.0839456
-0.0500357
-0.0251781
-0.00848458
0.00123133
0.00426214
0.00394283
0.00157298
-0.00229297
-0.00737654
-0.0138547
-0.0221498
-0.0328042
-0.0465789
-0.0644729
-0.0873745
-0.115379
-0.14721
-0.180198
-0.210875
-0.235712
-0.251599
-0.256179
-0.248419
-0.229467
-0.202599
-0.172094
-0.141734
-0.113957
-0.0898606
-0.0696391
-0.0530182
-0.0395476
-0.028759
-0.0202362
-0.0136299
-0.00865677
-0.00512255
-0.0029649
-0.00225084
-0.00305623
-0.0052416
-0.00829773
-0.0114391
-0.0138739
-0.015069
-0.0148374
-0.0134095
-0.0110838
-0.00836454
-0.00568728
-0.00338184
-0.00166923
-0.000702049
-0.000573035
-0.0013571
-0.00309827
-0.00591876
-0.010013
-0.0157553
-0.0234545
-0.0333135
-0.0449231
-0.057514
-0.0694922
-0.0793439
-0.0850511
-0.0852787
-0.0788021
-0.0650712
-0.0444769
-0.0177557
-0.280096
-0.22361
-0.168684
-0.118111
-0.0738535
-0.0371503
-0.00876846
0.0114623
0.0242587
0.030038
0.0309867
0.0284431
0.0233829
0.0166002
0.00812975
-0.00229846
-0.0151739
-0.0312541
-0.0514834
-0.0765924
-0.106462
-0.139652
-0.17348
-0.204614
-0.229736
-0.245907
-0.250753
-0.243316
-0.224741
-0.198328
-0.168334
-0.138459
-0.111053
-0.0871691
-0.0669987
-0.0502895
-0.0366195
-0.0255443
-0.0166643
-0.00964217
-0.00419781
-0.000125428
0.00266486
0.00413207
0.0041877
0.00288995
0.000618785
-0.00195503
-0.00410129
-0.00529949
-0.00535241
-0.00436105
-0.00262667
-0.000584354
0.00138471
0.00298441
0.00401122
0.00431825
0.00381603
0.00242752
0.000105112
-0.00328848
-0.00796382
-0.0143205
-0.0226788
-0.0332629
-0.0456516
-0.0590823
-0.0718946
-0.0825397
-0.0888589
-0.0894531
-0.0829357
-0.0687328
-0.0471201
-0.0189493
-0.21861
-0.164311
-0.113445
-0.067963
-0.0291776
0.00208953
0.0256212
0.0416681
0.0505607
0.0536489
0.0520744
0.0468595
0.0392435
0.029409
0.0172771
0.00246056
-0.015722
-0.0380874
-0.0651637
-0.0966135
-0.130868
-0.165272
-0.196657
-0.221933
-0.238378
-0.243463
-0.236439
-0.218435
-0.192751
-0.163566
-0.13445
-0.107642
-0.0841496
-0.0641686
-0.0474797
-0.0336981
-0.0224099
-0.0132377
-0.00585954
-4.03145e-06
0.00454039
0.00788625
0.0100197
0.0108508
0.0103751
0.00885563
0.00684635
0.00501017
0.00384924
0.00353862
0.00422588
0.00545882
0.00691941
0.00827485
0.0092556
0.00967315
0.00938698
0.008312
0.00637124
0.00351594
-0.000403668
-0.00561007
-0.012525
-0.0214767
-0.0327139
-0.0458062
-0.0600089
-0.0736018
-0.085014
-0.0919516
-0.0929573
-0.0864817
-0.0719295
-0.0494586
-0.0200218
-0.214735
-0.161983
-0.11173
-0.0658824
-0.0257731
0.0076939
0.0340717
0.0532529
0.0653604
0.0711381
0.0713843
0.0670073
0.0594426
0.0489612
0.0356701
0.019324
-0.000619854
-0.0247932
-0.0534926
-0.0861705
-0.12116
-0.155863
-0.187285
-0.212554
-0.229294
-0.234518
-0.227988
-0.210734
-0.186032
-0.157929
-0.129818
-0.103812
-0.0808696
-0.0612023
-0.0446324
-0.0308199
-0.0193874
-0.00998356
-0.00230553
0.00390551
0.00886116
0.0126915
0.0154092
0.0169325
0.0172117
0.016407
0.0149582
0.0134537
0.012382
0.0119831
0.0123396
0.0131436
0.0141123
0.0149448
0.0153914
0.0152765
0.0144653
0.0128785
0.0104408
0.00710461
0.00271044
-0.00297166
-0.0103821
-0.0198539
-0.0316626
-0.0453718
-0.0602657
-0.0745724
-0.0867129
-0.0942647
-0.0957226
-0.0893727
-0.0746019
-0.0514494
-0.0209542
-0.211798
-0.161307
-0.112423
-0.0669744
-0.0262859
0.00867602
0.0373143
0.0592791
0.0744584
0.0831407
0.0856343
0.0829731
0.0762711
0.0658798
0.0520569
0.0347118
0.0134785
-0.0120541
-0.0419399
-0.0754366
-0.110805
-0.145525
-0.176776
-0.201842
-0.218037
-0.224086
-0.21817
-0.201837
-0.178349
-0.15157
-0.12468
-0.0996507
-0.0773962
-0.0581513
-0.041788
-0.0280173
-0.016503
-0.00692363
0.0010025
0.00751821
0.0128299
0.01708
0.020306
0.0224414
0.023408
0.0232791
0.0223836
0.0212303
0.0202902
0.0198411
0.0199513
0.0204038
0.0209658
0.0213612
0.021355
0.020783
0.0195151
0.0174787
0.0146015
0.0108391
0.0060252
-7.30985e-05
-0.00791141
-0.0178236
-0.0301142
-0.0443444
-0.0598373
-0.0747789
-0.0875974
-0.0957491
-0.0976933
-0.0915532
-0.076697
-0.0530572
-0.0217297
-0.209574
-0.16184
-0.114884
-0.0704437
-0.0298439
0.00591306
0.0361489
0.060387
0.0783227
0.0898367
0.0947984
0.0943628
0.0891548
0.0795272
0.0658202
0.0480793
0.0261232
-0.000230067
-0.0307997
-0.0646694
-0.100051
-0.134509
-0.165393
-0.190171
-0.206391
-0.212512
-0.207212
-0.191947
-0.169879
-0.144635
-0.119146
-0.0952359
-0.0737824
-0.0550514
-0.0389706
-0.0253064
-0.0137676
-0.00406452
0.00406117
0.0108344
0.0164517
0.0210625
0.0247263
0.027397
0.0289832
0.0294883
0.0291365
0.028351
0.0275781
0.0271142
0.0270456
0.0272223
0.027458
0.0274952
0.0271133
0.0261567
0.0244994
0.022076
0.0188179
0.0146858
0.00950931
0.0030572
-0.00513756
-0.0154062
-0.0280836
-0.0427316
-0.058722
-0.0742095
-0.087644
-0.0963724
-0.0988331
-0.0929842
-0.0781744
-0.0542525
-0.0223346
-0.163189
-0.118536
-0.0755875
-0.035602
0.000414962
0.0316524
0.0575288
0.0777038
0.0919434
0.0993563
0.101242
0.0979232
0.0896094
0.0766215
0.0590984
0.0370246
0.0104312
-0.0202893
-0.0540737
-0.0891019
-0.12303
-0.153358
-0.177712
-0.19384
-0.199981
-0.195317
-0.181254
-0.160784
-0.137241
-0.11329
-0.0906059
-0.070042
-0.0519017
-0.0361713
-0.0226744
-0.0111663
-0.00139101
0.00688586
0.0138701
0.0197452
0.0246614
0.0286971
0.0318291
0.0339656
0.0350585
0.0352373
0.0348353
0.0342604
0.033815
0.0336234
0.0335925
0.033573
0.0333231
0.0326367
0.0313644
0.0293832
0.0266347
0.0230546
0.01861
0.0131295
0.00638756
-0.00209027
-0.012629
-0.0255943
-0.0405521
-0.0569313
-0.072867
-0.0868471
-0.0961225
-0.099119
-0.0936383
-0.0790012
-0.0550182
-0.0227583
-0.165023
-0.122911
-0.0818072
-0.0428415
-0.0070568
0.0246872
0.0517468
0.0737146
0.0917877
0.10003
0.104049
0.102762
0.0961553
0.0844022
0.0676702
0.04607
0.0198113
-0.0105385
-0.0437962
-0.0781264
-0.111268
-0.140842
-0.164605
-0.180525
-0.186699
-0.18272
-0.169981
-0.151247
-0.129524
-0.107202
-0.0858235
-0.0662206
-0.0487381
-0.0334206
-0.0201482
-0.00872256
0.00107703
0.00946031
0.0166134
0.0227039
0.0278775
0.0322269
0.0357526
0.0383723
0.040004
0.0406952
0.0406894
0.0403457
0.0399616
0.0396897
0.0395154
0.0393035
0.0388284
0.0379008
0.0363762
0.0341337
0.0311205
0.0272768
0.0225772
0.0168517
0.00988443
0.00119805
-0.00952403
-0.022677
-0.0378359
-0.0544916
-0.0707734
-0.0852191
-0.0950048
-0.0985522
-0.0935123
-0.079152
-0.0553481
-0.0229963
-0.166915
-0.127428
-0.0883528
-0.0507182
-0.0155772
0.0161553
0.0437372
0.0664978
0.0837078
0.0969713
0.103406
0.104163
0.0994798
0.0893316
0.0738635
0.0532589
0.0278646
-0.00161873
-0.0339275
-0.0672285
-0.0993475
-0.128029
-0.150972
-0.166572
-0.172879
-0.169717
-0.158455
-0.141605
-0.121818
-0.101215
-0.0812101
-0.0626234
-0.0458423
-0.030972
-0.0179507
-0.00662929
0.00317526
0.0116461
0.0189491
0.0252341
0.0306376
0.0352611
0.0391306
0.0421818
0.044314
0.0455033
0.0459011
0.0458126
0.0455368
0.0452153
0.0449807
0.0446319
0.0439928
0.0428861
0.0411688
0.0387231
0.0355021
0.0314514
0.0265527
0.0206406
0.0135109
0.00468881
-0.0061321
-0.0193717
-0.0346209
-0.0514346
-0.0679566
-0.0827808
-0.0930383
-0.0971525
-0.0926279
-0.078616
-0.0552613
-0.0230572
-0.169478
-0.132563
-0.0955454
-0.0593452
-0.0249499
0.00671471
0.0348749
0.0589656
0.079471
0.0920854
0.0999741
0.102695
0.100112
0.0918515
0.0780463
0.0588704
0.0347492
0.00648171
-0.02459
-0.0566199
-0.0875141
-0.115032
-0.13716
-0.151915
-0.158262
-0.156143
-0.14667
-0.131977
-0.114322
-0.0955559
-0.0769876
-0.0594432
-0.0433697
-0.0289436
-0.0161673
-0.00494428
0.00486799
0.0134247
0.0208731
0.0273457
0.0329636
0.0378306
0.0419996
0.0454394
0.0480487
0.0497395
0.0505538
0.0507173
0.0505438
0.0502618
0.0499503
0.0495087
0.0487611
0.0475432
0.045702
0.0431188
0.039751
0.0355512
0.0305092
0.0244695
0.0172408
0.00835741
-0.00248194
-0.0157156
-0.0309615
-0.0478278
-0.0644939
-0.0796019
-0.0902763
-0.0949443
-0.0910144
-0.0774368
-0.0548115
-0.0229551
-0.138002
-0.103275
-0.0688886
-0.0359099
-0.00521694
0.0224967
0.0465355
0.0653479
0.0829391
0.0938789
0.0985885
0.0978317
0.0916319
0.0798408
0.0626259
0.040458
0.0141385
-0.0149983
-0.0451671
-0.0743377
-0.100472
-0.121684
-0.136075
-0.142675
-0.141515
-0.133786
-0.121129
-0.105457
-0.0884224
-0.0712657
-0.0548193
-0.0395677
-0.0257335
-0.0133629
-0.00239764
0.00727179
0.0157753
0.0232445
0.0297975
0.0355346
0.0405454
0.0449005
0.0486123
0.0516072
0.053759
0.055002
0.055444
0.0553507
0.055012
0.0545556
0.054076
0.0532218
0.0518947
0.0499473
0.0472648
0.0438014
0.0395116
0.0343849
0.0282764
0.021006
0.0121321
0.00135711
-0.0117577
-0.0268801
-0.0436622
-0.0603628
-0.07566
-0.0867237
-0.0919482
-0.088746
-0.0756479
-0.0540294
-0.0226508
-0.130018
-0.0977953
-0.0658221
-0.0350088
-0.00608817
0.0203125
0.0434899
0.0628871
0.0781055
0.0885547
0.0942975
0.0950561
0.0903662
0.0800363
0.0641737
0.043215
0.018071
-0.0097687
-0.0383941
-0.0659136
-0.0902561
-0.109236
-0.122046
-0.126788
-0.124749
-0.116889
-0.104874
-0.0904191
-0.0749226
-0.0594066
-0.0445395
-0.030699
-0.018054
-0.00664052
0.00358505
0.0127067
0.0208257
0.0280492
0.0344753
0.0401815
0.0452305
0.0496807
0.0535664
0.0568582
0.0594582
0.0612682
0.0622929
0.0626742
0.0626094
0.0624628
0.0615027
0.0603687
0.0587749
0.0565557
0.0536174
0.0499287
0.0454691
0.0402297
0.0340775
0.0268094
0.0180007
0.00731468
-0.00565556
-0.0206732
-0.0373568
-0.0541362
-0.0696236
-0.0812025
-0.0870953
-0.0851081
-0.0747066
-0.052503
-0.021856
-0.116259
-0.0885195
-0.0608253
-0.0340365
-0.00890119
0.0139752
0.034261
0.0512357
0.0653761
0.0753818
0.0810054
0.0820191
0.0781924
0.0694555
0.0559596
0.0381516
0.0168838
-0.00649798
-0.0302338
-0.0523708
-0.0714216
-0.0861299
-0.0952335
-0.098657
-0.0965622
-0.0901145
-0.0805317
-0.0690086
-0.0565471
-0.0438918
-0.031547
-0.0198228
-0.00888854
0.00118534
0.0103906
0.0187543
0.0263259
0.0331687
0.0393446
0.0449029
0.0498886
0.0543556
0.0583474
0.0618473
0.0647528
0.0669245
0.0682831
0.0688854
0.0688829
0.06833
0.0677466
0.0666821
0.0650927
0.0628791
0.05995
0.0562786
0.0518514
0.0466661
0.0406022
0.0334759
0.0248933
0.0145392
0.00201789
-0.0124759
-0.0286271
-0.0449894
-0.0602387
-0.0719017
-0.0782831
-0.0772895
-0.0677301
-0.0483488
-0.0201433
-0.106562
-0.0823947
-0.0581634
-0.0346641
-0.0125057
0.00784608
0.0260094
0.0415539
0.054116
0.0631606
0.068377
0.0695867
0.0666341
0.0594998
0.0483897
0.0337946
0.0165569
-0.00213393
-0.0208987
-0.0383719
-0.0534146
-0.0652254
-0.0723041
-0.0749148
-0.0734089
-0.0685538
-0.0611524
-0.0520251
-0.0419091
-0.0313916
-0.0209046
-0.0107434
-0.00109294
0.0079456
0.0163305
0.024058
0.031148
0.0376363
0.0435651
0.0489702
0.0538776
0.0583137
0.0623073
0.0658621
0.0689222
0.0713771
0.0731152
0.0740983
0.0743835
0.0740582
0.0732982
0.0720869
0.0703923
0.0681345
0.0652218
0.0616162
0.0572906
0.0522416
0.0463545
0.0394771
0.0312459
0.0213949
0.00953807
-0.00412856
-0.0193712
-0.0348472
-0.0494353
-0.0608833
-0.0677129
-0.0678082
-0.059976
-0.0431693
-0.0180576
-0.0977209
-0.07672
-0.0555818
-0.0349941
-0.015481
0.0025305
0.0186371
0.0324512
0.0436472
0.0518605
0.0568325
0.0583986
0.0564548
0.0510348
0.0423707
0.0309212
0.0173886
0.0026951
-0.0121033
-0.0259368
-0.0378278
-0.0469607
-0.0526337
-0.0549045
-0.0539656
-0.0502954
-0.0444911
-0.0371715
-0.0289014
-0.0201451
-0.0112579
-0.00249591
0.00596752
0.014024
0.021614
0.0287116
0.035313
0.0414297
0.0470825
0.0522923
0.0570732
0.0614359
0.0653927
0.0689493
0.0720777
0.0747025
0.0767168
0.0780323
0.078622
0.0785275
0.0778567
0.0766621
0.0749559
0.0727075
0.0698552
0.0663682
0.062213
0.0573859
0.0517789
0.045269
0.037527
0.0283338
0.0173232
0.00467476
-0.00947463
-0.0239446
-0.0378253
-0.0490483
-0.0562949
-0.0574524
-0.0514567
-0.0372967
-0.0156171
-0.0900481
-0.0717943
-0.0533449
-0.0353035
-0.01815
-0.00227394
0.0119795
0.024294
0.0343492
0.0418744
0.0466586
0.0485677
0.0475484
0.043667
0.0371427
0.0283637
0.0178973
0.0064802
-0.00503768
-0.0157923
-0.0249563
-0.0321335
-0.0367171
-0.0386527
-0.0380601
-0.0352729
-0.0307168
-0.0248339
-0.0180401
-0.0106968
-0.00309833
0.00452835
0.0120169
0.0192526
0.0261623
0.032704
0.038858
0.0446193
0.0499934
0.0549899
0.0596157
0.0638716
0.0677564
0.0712674
0.0743881
0.0770735
0.0792472
0.0808203
0.0817243
0.0819426
0.0815041
0.0804618
0.0788562
0.0767034
0.0739822
0.0706821
0.0667736
0.062254
0.0570228
0.0509772
0.0438185
0.0353568
0.0252369
0.0136017
0.000508791
-0.0129946
-0.0261504
-0.0370516
-0.0445926
-0.0467203
-0.0425703
-0.0310829
-0.013039
-0.0833037
-0.0674105
-0.0512969
-0.035486
-0.0204002
-0.00638176
0.00626639
0.0172514
0.0263163
0.0332323
0.0378308
0.0400149
0.0397638
0.0371549
0.0323864
0.0257922
0.017845
0.00913309
0.000308134
-0.00797439
-0.0151351
-0.0206093
-0.0242018
-0.0257631
-0.0253425
-0.0231465
-0.0194627
-0.0146108
-0.0089085
-0.00264547
0.00393228
0.0106271
0.0172877
0.023804
0.0300998
0.036126
0.0418529
0.0472651
0.052356
0.0571254
0.0615728
0.0656937
0.0694795
0.0729194
0.0759988
0.0786891
0.08094
0.0826869
0.0838454
0.0843721
0.0842459
0.0834815
0.0821106
0.0801692
0.0776679
0.0746217
0.071014
0.0668466
0.0620267
0.056464
0.0498838
0.0421151
0.032818
0.0221146
0.0100237
-0.00252007
-0.0149124
-0.0254352
-0.0331864
-0.0361683
-0.0337663
-0.0248573
-0.01046
-0.0772759
-0.0634191
-0.0493335
-0.0354649
-0.0221823
-0.00979064
0.00144223
0.0112641
0.0194566
0.0258302
0.0302514
0.03265
0.0330241
0.0314555
0.0281244
0.0233154
0.0174106
0.0108699
0.00419882
-0.00208962
-0.00754069
-0.0117166
-0.0144489
-0.0156067
-0.015195
-0.0133401
-0.0102414
-0.00613394
-0.00125987
0.00415328
0.0099054
0.0158292
0.0217909
0.0276877
0.0334438
0.0390061
0.0443387
0.0494186
0.0542316
0.0587695
0.0630261
0.0669937
0.0706604
0.0740108
0.0770275
0.0796884
0.0819592
0.0837988
0.0851342
0.0859158
0.0861032
0.0856827
0.0846547
0.0830432
0.080865
0.0781476
0.0748862
0.0710875
0.0666675
0.0615477
0.0554794
0.0483168
0.0397484
0.0298903
0.0187305
0.00708632
-0.00457672
-0.0147067
-0.0225556
-0.0262144
-0.0253724
-0.0188346
-0.00799038
-0.0718384
-0.0597406
-0.0474127
-0.0352342
-0.023528
-0.0125616
-0.00256475
0.00624162
0.0136703
0.0195651
0.0238192
0.0263814
0.0272616
0.0265394
0.0243723
0.020996
0.0167183
0.0119061
0.006963
0.00229681
-0.00175783
-0.00485922
-0.0068405
-0.00758689
-0.00708565
-0.00541432
-0.00270937
0.000859284
0.00510939
0.00986285
0.0149568
0.0202502
0.0256255
0.0309893
0.0362695
0.0414124
0.0463794
0.0511434
0.0556852
0.0599913
0.0640509
0.0678533
0.0713852
0.0746303
0.0775691
0.0801804
0.0824393
0.0843097
0.0857534
0.0867173
0.0871633
0.0870651
0.0864055
0.0851875
0.0834111
0.0810943
0.0782281
0.0748166
0.0707821
0.0660581
0.0604266
0.0537719
0.0458185
0.0366808
0.0263253
0.0154753
0.0044984
-0.00519265
-0.0129718
-0.0170611
-0.0173161
-0.0131734
-0.00572011
-0.0668968
-0.0563202
-0.0455154
-0.0348061
-0.0244738
-0.0147568
-0.00583349
0.00208737
0.00884758
0.0143176
0.0184116
0.0210921
0.0223741
0.02233
0.0210944
0.0188632
0.015888
0.0124603
0.00890483
0.00556264
0.00264234
0.000440127
-0.000888508
-0.00124218
-0.000601105
0.000990338
0.00344018
0.00662544
0.010408
0.0146481
0.0192138
0.0239872
0.0288673
0.0337708
0.0386311
0.0433962
0.0480269
0.0524938
0.0567747
0.0608527
0.0647138
0.0683451
0.0717322
0.0748595
0.0777078
0.080256
0.0824825
0.084355
0.0858497
0.0869284
0.0875581
0.0877132
0.0873695
0.0865181
0.0851434
0.0832452
0.0807955
0.0777827
0.0741244
0.0697603
0.0644993
0.0582569
0.0508006
0.0422558
0.0325916
0.0224634
0.0121745
0.00301194
-0.00453231
-0.00891182
-0.0103095
-0.0081125
-0.00372239
-0.0623773
-0.0531179
-0.0436329
-0.0341988
-0.0250624
-0.0164492
-0.0084475
-0.00130081
0.00487069
0.00996063
0.0138992
0.016658
0.0182531
0.0187486
0.0182589
0.0169465
0.0150158
0.0127017
0.0102608
0.0079406
0.00597759
0.00454078
0.00378208
0.00379173
0.00459725
0.00617599
0.00846593
0.0113778
0.0148071
0.0186446
0.022784
0.0271276
0.0315893
0.0360956
0.040586
0.0450116
0.049334
0.053523
0.057555
0.0614113
0.0650757
0.0685339
0.0717709
0.0747712
0.0775173
0.0799904
0.0821707
0.0840228
0.0855342
0.0866768
0.0874236
0.0877527
0.08764
0.0870729
0.0860266
0.0844871
0.0824084
0.0797594
0.0764451
0.0724033
0.0674635
0.0615712
0.0545433
0.0465262
0.0375091
0.0280945
0.0185451
0.0100082
0.00282152
-0.00173527
-0.00409662
-0.00370103
-0.00202447
-0.0582247
-0.0501073
-0.0417666
-0.0334382
-0.0253285
-0.0176015
-0.0104774
-0.00402322
0.00162584
0.00637376
0.0101612
0.0129652
0.014801
0.0157245
0.0158312
0.0152547
0.0141613
0.0127433
0.011206
0.00973494
0.00852859
0.00772993
0.00746107
0.00779924
0.0087753
0.0103804
0.0125736
0.0152903
0.0184516
0.0219721
0.0257664
0.0297536
0.0338605
0.0380233
0.0421875
0.0463082
0.0503486
0.0542791
0.0580756
0.0617185
0.0651906
0.0684766
0.0715615
0.0744297
0.0770643
0.07945
0.0815727
0.0833857
0.0848896
0.0860604
0.0868744
0.0873123
0.0873508
0.0869751
0.0861564
0.0848732
0.0830699
0.0807031
0.0776692
0.0739049
0.0692579
0.0637002
0.0570953
0.0496093
0.0412553
0.0325886
0.0238317
0.015968
0.00916886
0.00445024
0.00121787
-8.72148e-06
-0.000633036
-0.0543979
-0.0472717
-0.0399244
-0.0325589
-0.0253542
-0.0184621
-0.0120401
-0.00618251
-0.000993353
0.00344686
0.00708784
0.00991041
0.0119281
0.0131877
0.0137687
0.013781
0.0133599
0.0126618
0.0118547
0.0110775
0.0104918
0.0102226
0.01037
0.0109986
0.0121395
0.0137925
0.015931
0.0185086
0.0214655
0.0247348
0.0282478
0.0319377
0.0357429
0.0396078
0.0434843
0.0473313
0.0511147
0.0548057
0.0583809
0.0618202
0.0651061
0.0682231
0.0711563
0.0738902
0.0764084
0.0786946
0.0807268
0.0825035
0.0839847
0.0851577
0.0860025
0.0865009
0.0866298
0.0863719
0.0856957
0.0845756
0.0829529
0.0807814
0.0779594
0.0744293
0.0700594
0.0648437
0.0586838
0.0517566
0.0440912
0.036188
0.0282132
0.0209761
0.0144958
0.00956874
0.00554798
0.00292596
0.000463248
-0.0508653
-0.0446003
-0.0381158
-0.0315878
-0.0251742
-0.0190022
-0.0132008
-0.00786485
-0.00308179
0.00108092
0.00458043
0.00740023
0.00955131
0.0110724
0.0120294
0.0125121
0.0126309
0.0125128
0.0122848
0.0120764
0.012005
0.0121776
0.0126769
0.0135588
0.0148527
0.0165637
0.0186749
0.021153
0.0239526
0.0270212
0.0303035
0.0337444
0.0372918
0.040898
0.0445204
0.0481222
0.0516717
0.055142
0.0585102
0.0617566
0.0648643
0.0678174
0.0706009
0.0732005
0.0756006
0.0777855
0.0797367
0.0814454
0.0828841
0.0840369
0.0848839
0.0854073
0.0855831
0.0853917
0.0847997
0.0837791
0.0822726
0.0802357
0.0775767
0.074249
0.0701439
0.065273
0.0595666
0.0532004
0.0462048
0.0390142
0.0317258
0.0249905
0.0187217
0.0135567
0.00887278
0.00512646
0.00129171
-0.0476028
-0.0420857
-0.0363511
-0.0305518
-0.0248269
-0.0192789
-0.0140236
-0.00914675
-0.00472369
-0.000811912
0.00255146
0.00535173
0.00759734
0.00931982
0.0105731
0.0114303
0.0119815
0.0123309
0.0125745
0.0128242
0.0131758
0.0137153
0.0145111
0.0156114
0.0170436
0.0188152
0.0209164
0.0233229
0.0260003
0.0289072
0.031999
0.0352301
0.0385566
0.0419376
0.0453356
0.0487177
0.0520549
0.0553223
0.058498
0.0615633
0.0645014
0.0672969
0.0699351
0.0724019
0.0746834
0.0767649
0.0786283
0.0802611
0.0816432
0.0827579
0.0835853
0.0841067
0.0842977
0.084137
0.0835906
0.0826294
0.0811995
0.0792611
0.0767348
0.0735863
0.0697287
0.065186
0.0599078
0.0540582
0.0476563
0.0410671
0.0343283
0.0279611
0.0218233
0.0164422
0.0112664
0.00667522
0.00188993
-0.0445925
-0.0397243
-0.0346409
-0.0294743
-0.0243387
-0.019342
-0.014568
-0.0100963
-0.00599311
-0.00230865
0.000924422
0.0036925
0.00600158
0.00787683
0.00936151
0.0105156
0.0114123
0.0121314
0.0127628
0.0133869
0.0140852
0.0149281
0.0159725
0.0172595
0.0188139
0.0206445
0.0227458
0.0251004
0.0276818
0.0304573
0.0333907
0.0364442
0.0395808
0.0427653
0.045965
0.0491505
0.0522955
0.055377
0.0583747
0.0612706
0.0640486
0.0666939
0.0691925
0.0715305
0.0736947
0.075671
0.0774416
0.0789939
0.0803102
0.0813738
0.0821649
0.0826641
0.0828471
0.0826913
0.0821631
0.0812338
0.079854
0.077989
0.0755718
0.0725786
0.0689405
0.0646887
0.0597836
0.0543726
0.0484603
0.0423485
0.0360328
0.0299353
0.0238934
0.0183544
0.0128885
0.0076868
0.00229951
-0.0418191
-0.0375138
-0.0329959
-0.0283806
-0.0237637
-0.0192413
-0.0148882
-0.0107735
-0.00695474
-0.00347628
-0.00036724
0.00235946
0.00470741
0.00669635
0.00836093
0.00974973
0.0109226
0.0119431
0.0128834
0.0138117
0.0147936
0.0158869
0.0171386
0.018584
0.0202448
0.0221301
0.0242372
0.0265535
0.0290586
0.0317263
0.0345271
0.0374295
0.0404024
0.0434152
0.0464396
0.0494493
0.0524207
0.0553327
0.0581665
0.060905
0.063533
0.0660363
0.0684016
0.0706156
0.0726654
0.0745376
0.0762136
0.0776823
0.0789268
0.0799304
0.0806734
0.0811361
0.0812941
0.0811245
0.0805947
0.0796771
0.0783269
0.0765145
0.0741836
0.0713185
0.0678642
0.0638549
0.0592573
0.0542008
0.0486782
0.0429392
0.036954
0.0310673
0.0251134
0.0194522
0.0136307
0.00825503
0.0025607
-0.0392705
-0.0354532
-0.0314261
-0.0272856
-0.023123
-0.0190153
-0.015031
-0.0112306
-0.00766472
-0.00437273
-0.00138096
0.00129808
0.00366584
0.00573738
0.00754041
0.00911359
0.0105044
0.0117671
0.0129578
0.0141333
0.0153469
0.0166462
0.0180704
0.019649
0.0214011
0.0233354
0.025451
0.0277386
0.0301821
0.0327606
0.0354497
0.0382232
0.0410544
0.0439171
0.0467865
0.0496394
0.0524545
0.0552124
0.0578959
0.0604891
0.0629775
0.0653477
0.0675868
0.0696821
0.0716215
0.0733944
0.0749747
0.0763588
0.0775286
0.078467
0.0791544
0.079571
0.0796926
0.0794963
0.0789509
0.0780302
0.0766939
0.0749168
0.0726513
0.0698878
0.0665815
0.0627673
0.0584163
0.0536414
0.0484276
0.0429832
0.0372661
0.0315617
0.0257157
0.0200399
0.0142077
0.00858711
0.00272163
-0.0369373
-0.0335415
-0.029939
-0.0262138
-0.022444
-0.0186982
-0.0150366
-0.0115126
-0.00817133
-0.00504781
-0.00216613
0.000461506
0.00283466
0.00496432
0.00687227
0.00858935
0.0101537
0.0116092
0.0130019
0.0143776
0.0157801
0.0172484
0.0188153
0.0205053
0.022335
0.0243122
0.026437
0.0287024
0.0310956
0.0335996
0.0361941
0.038857
0.0415655
0.044297
0.0470296
0.0497428
0.0524174
0.055036
0.0575825
0.0600422
0.0624017
0.0646479
0.0667687
0.0687516
0.0705842
0.0722515
0.0737484
0.0750508
0.0761455
0.0770165
0.0776443
0.0780093
0.0780877
0.0778567
0.0772866
0.076353
0.0750193
0.073264
0.0710468
0.0683622
0.0651736
0.0615147
0.0573606
0.0528099
0.0478437
0.0426379
0.0371453
0.0316058
0.0258823
0.0202443