/*--------------------------------*- C++ -*----------------------------------*\
  =========                 |
  \\      /  F ield         | OpenFOAM: The Open Source CFD Toolbox
   \\    /   O peration     | Website:  https://openfoam.org
    \\  /    A nd           | Version:  7
     \\/     M anipulation  |
\*---------------------------------------------------------------------------*/
FoamFile
{
    version     2.0;
    format      ascii;
    class       surfaceScalarField;
    location    "99.999";
    object      phi;
}
// * * * * * * * * * * * * * * * * * * * * * * * * * * * * * * * * * * * * * //

dimensions      [0 3 -1 0 0 0 0];

internalField   nonuniform List<scalar> 
7273
(
-0.00117491
-0.00467415
-0.00106697
-0.0051631
-0.000912281
-0.0054336
-0.000698971
-0.00543432
-0.000421927
-0.00512496
-9.06947e-05
-0.00449277
0.000283717
-0.00356695
0.000671282
-0.00239239
0.00105859
-0.00105835
0.00143718
0.000353886
0.00180449
0.00175802
0.00215246
0.00306622
0.00246824
0.00419202
0.00273674
0.00507512
0.00294603
0.00569597
0.00309058
0.0060761
0.00316926
0.00626663
0.00317942
0.00634
0.00311674
0.0063815
0.00298733
0.0064569
0.00282159
0.00655898
0.00267179
0.00658178
0.00258962
0.00636493
0.00260083
0.00578656
0.00270005
0.00482648
0.00286562
0.0035531
0.00307496
0.00207335
0.0033098
0.000501402
0.0035536
-0.00104524
0.0037924
-0.00245858
0.0040115
-0.00364216
0.00419806
-0.00454028
0.00434402
-0.00514787
0.00444726
-0.00550224
0.00451016
-0.00566377
0.00453747
-0.00569724
0.0045352
-0.00565767
0.00450966
-0.00558133
0.00446452
-0.00548888
0.00439752
-0.00540208
0.00430216
-0.00535506
0.00417525
-0.00537765
0.00402438
-0.00545809
0.0038684
-0.00552101
0.00373018
-0.00544747
0.0036277
-0.00512705
0.00357003
-0.00450429
0.00355887
-0.00359142
0.00359166
-0.00245214
0.0036633
-0.00117856
0.00376567
0.000126615
0.00388844
0.00136616
0.0040197
0.00245973
0.00414763
0.00335652
0.00426247
0.00403879
0.00435755
0.00451778
0.0044292
0.00482516
0.00447634
0.00500236
0.00450016
0.00509003
0.0045035
0.00511891
0.00448886
0.0051115
0.00445632
0.00508875
0.00440332
0.00508032
0.00432724
0.00511049
0.00422889
0.00518507
0.00411397
0.00526281
0.00399163
0.00527585
0.00387113
0.00513683
0.00375921
0.00479386
0.00366067
0.00422012
0.00357708
0.00344812
0.00351244
0.00250412
0.00346607
0.00147377
0.00344195
0.000396231
0.00343499
-0.000684329
0.00344736
-0.00155545
-0.00271162
-0.00115393
-0.00469494
-0.00111108
-0.00520595
-0.00103146
-0.00551321
-0.000895445
-0.00557034
-0.000687377
-0.00533303
-0.000404884
-0.00477527
-6.5262e-05
-0.00390657
0.000324603
-0.00278226
0.000725655
-0.0014594
0.00112853
-4.89852e-05
0.00152382
0.00136272
0.00190231
0.00268773
0.0022506
0.00384373
0.00255286
0.00477286
0.00279598
0.00545285
0.00297228
0.0058998
0.00307741
0.0061615
0.00310684
0.00631057
0.00305959
0.00642876
0.00295054
0.00656596
0.00281837
0.00669114
0.0027159
0.00668426
0.00268586
0.00639497
0.00274227
0.00573015
0.00287293
0.00469582
0.00305504
0.00337099
0.00326739
0.001861
0.00349484
0.000273952
0.00372346
-0.00127386
0.00394211
-0.00267722
0.00413803
-0.00383808
0.0043001
-0.00470236
0.00442182
-0.00526959
0.00450245
-0.00558287
0.00454545
-0.00570677
0.00455592
-0.00570772
0.00453946
-0.0056412
0.00450183
-0.0055437
0.0044469
-0.00543394
0.004373
-0.00532818
0.0042732
-0.00525527
0.00414226
-0.00524671
0.0039853
-0.00530113
0.00382021
-0.00535592
0.00367125
-0.00529852
0.00355904
-0.00501484
0.00349472
-0.00443997
0.00348066
-0.00357736
0.00351396
-0.00248543
0.00358867
-0.00125328
0.00369625
1.90351e-05
0.00382545
0.00123696
0.00396409
0.00232109
0.00410006
0.00322055
0.0042233
0.00391554
0.00432681
0.00441427
0.0044066
0.00474536
0.00446145
0.0049475
0.00449265
0.00505883
0.00450301
0.00510855
0.0044948
0.0051197
0.00446784
0.00511572
0.00441961
0.00512855
0.00434799
0.00518211
0.0042543
0.00527876
0.00414434
0.00537277
0.0040267
0.00539349
0.00390979
0.00525374
0.00379961
0.00490404
0.00370083
0.0043189
0.00361524
0.00353371
0.00354733
0.00257202
0.00349708
0.00152402
0.00346869
0.000424625
0.00345769
-0.00067333
0.00346571
-0.00156347
-0.00273107
-0.00098931
-0.00466812
-0.00101009
-0.00518517
-0.00100962
-0.00551368
-0.000962209
-0.00561775
-0.000841599
-0.00545364
-0.000631967
-0.0049849
-0.000338198
-0.00420034
1.51212e-05
-0.00313557
0.00042595
-0.00187023
0.000842548
-0.000465584
0.00126152
0.000943751
0.00166686
0.0022824
0.00204435
0.00346624
0.00237735
0.00443987
0.00265156
0.00517864
0.00285696
0.00569439
0.00298645
0.00603201
0.00303536
0.00626166
0.00300794
0.00645618
0.00292739
0.0066465
0.00283734
0.00678119
0.00278709
0.00673451
0.00280905
0.00637302
0.00290724
0.00563197
0.00306488
0.00453818
0.00325923
0.00317663
0.0034709
0.00164933
0.00368706
5.77861e-05
0.00389818
-0.00148498
0.00409472
-0.00287376
0.00426595
-0.0040093
0.00440241
-0.00483882
0.00449921
-0.00536638
0.00455698
-0.00564064
0.00458015
-0.00572995
0.00457421
-0.00570177
0.00454428
-0.00561127
0.00449541
-0.00549483
0.0044314
-0.00536994
0.00435131
-0.00524809
0.00424825
-0.0051522
0.00411517
-0.00511363
0.00395438
-0.00514034
0.00378208
-0.00518362
0.00362333
-0.00513977
0.00350139
-0.00489289
0.00342983
-0.00436841
0.00341208
-0.00355961
0.00344497
-0.00251833
0.00352185
-0.00133016
0.0036337
-9.282e-05
0.00376835
0.00110231
0.00391348
0.00217596
0.00405668
0.00307734
0.00418767
0.00378456
0.00429907
0.00430286
0.00438664
0.0046578
0.00444904
0.0048851
0.00448761
0.00502027
0.00450509
0.00509107
0.0045035
0.0051213
0.00448241
0.0051368
0.00443946
0.00517151
0.00437302
0.00524856
0.00428482
0.00536695
0.00418062
0.00547698
0.00406831
0.00550579
0.00395549
0.00536657
0.00384747
0.00501206
0.00374885
0.00441751
0.00366162
0.00362094
0.00359077
0.00264286
0.00353676
0.00157803
0.0035042
0.000457192
0.00348906
-0.000658197
0.00349248
-0.00156689
-0.00274651
-0.000686825
-0.00460186
-0.000764268
-0.00510773
-0.00083997
-0.00543798
-0.000884958
-0.00557276
-0.000864593
-0.00547401
-0.000749054
-0.00510044
-0.000528465
-0.00442093
-0.000216235
-0.0034478
0.000165492
-0.00225196
0.000587369
-0.000887461
0.00102105
0.00051007
0.00144782
0.00185562
0.00185008
0.00306398
0.00220999
0.00407995
0.00251185
0.00487678
0.00274336
0.00546289
0.00289571
0.00587965
0.00296587
0.00619149
0.002964
0.00645805
0.00292002
0.00669048
0.00287887
0.00682235
0.00288338
0.00673001
0.00295547
0.00630092
0.00309131
0.00549613
0.00327146
0.00435803
0.00347378
0.00297431
0.00368156
0.00144154
0.00388365
-0.000144304
0.00407539
-0.00167672
0.00424843
-0.0030468
0.00439387
-0.00415474
0.00450395
-0.0049489
0.00457544
-0.00543787
0.00461033
-0.00567553
0.00461395
-0.00573357
0.0045921
-0.00567992
0.00454949
-0.00556867
0.0044903
-0.00543563
0.00441801
-0.00529765
0.0043324
-0.00516248
0.00422706
-0.00504686
0.00409358
-0.00498015
0.00393128
-0.00497804
0.00375391
-0.00500626
0.0035866
-0.00497246
0.00345498
-0.00476128
0.00337552
-0.00428895
0.00335311
-0.0035372
0.00338463
-0.00254985
0.00346278
-0.00140831
0.00357762
-0.000207659
0.00371686
0.000963072
0.00386761
0.00202522
0.00401728
0.00292766
0.00415534
0.0036465
0.00427413
0.00418408
0.00436911
0.00456282
0.00443892
0.00481529
0.00448486
0.00497432
0.00450957
0.00506636
0.00451476
0.00511611
0.00449986
0.0051517
0.00446272
0.00520865
0.00440218
0.00530909
0.00432029
0.00544884
0.00422261
0.00557466
0.00411631
0.00561209
0.00400815
0.00547472
0.00390281
0.0051174
0.00380486
0.00451546
0.00371643
0.00370937
0.00364301
0.00271629
0.00358552
0.00163551
0.00354885
0.000493865
0.00352954
-0.00063889
0.00352815
-0.0015655
-0.00275763
-0.00026462
-0.000387845
-0.00498451
-0.000529238
-0.00529659
-0.000660717
-0.00544128
-0.00074365
-0.00539108
-0.000736864
-0.00510722
-0.000614114
-0.00454368
-0.000372467
-0.00368945
-4.39994e-05
-0.00258042
0.00036816
-0.00129962
0.000804589
7.36412e-05
0.00124553
0.00141468
0.00166695
0.00264256
0.00204925
0.00369765
0.00237487
0.00455116
0.00262974
0.00520802
0.00280472
0.00570468
0.00289964
0.00609658
0.00293016
0.00642753
0.00293004
0.0066906
0.00294236
0.00681003
0.00300184
0.00667052
0.00312086
0.0061819
0.00328982
0.00532717
0.003488
0.00415986
0.00369447
0.00276784
0.00389501
0.00124099
0.00408188
-0.000331174
0.00425267
-0.00184751
0.00440134
-0.00319547
0.00452035
-0.00427375
0.00460362
-0.00503217
0.00464968
-0.00548393
0.00466189
-0.00568774
0.00464641
-0.00571809
0.00460929
-0.0056428
0.00455484
-0.00551422
0.00448629
-0.00536709
0.00440659
-0.00521796
0.00431611
-0.00507199
0.00420928
-0.00494003
0.0040769
-0.00484777
0.00391537
-0.0048165
0.00373531
-0.0048262
0.00356094
-0.00479809
0.00341992
-0.00462026
0.00333184
-0.00420087
0.00330369
-0.00350904
0.00333272
-0.00257888
0.00341097
-0.00148656
0.00352783
-0.000324515
0.00367067
0.000820232
0.00382615
0.00186974
0.00398154
0.00277228
0.00412603
0.00350201
0.00425169
0.00405843
0.00435377
0.00446073
0.00443085
0.00473822
0.00448417
0.004921
0.00451619
0.00503434
0.00452834
0.00510397
0.00451996
0.00516008
0.00448915
0.00523946
0.00443522
0.00536302
0.00436044
0.00552362
0.00427003
0.00566507
0.00417042
0.0057117
0.00406755
0.00557759
0.00396551
0.00521945
0.00386883
0.00461214
0.00377982
0.00379838
0.00370424
0.00279187
0.0036436
0.00169615
0.00360295
0.000534507
0.00357946
-0.000615399
0.0035731
-0.00155913
-0.00276412
8.72139e-05
-0.00482561
-0.000101379
-0.00510799
-0.000301899
-0.00524076
-0.00047833
-0.00521465
-0.000583536
-0.00500202
-0.000574737
-0.00455248
-0.000431406
-0.00383278
-0.000168025
-0.0028438
0.000194804
-0.00166245
0.000617362
-0.000348917
0.00106124
0.000970804
0.00149415
0.00220965
0.00189345
0.00329835
0.00223898
0.00420564
0.00251536
0.00493163
0.00271415
0.00550589
0.00283857
0.00597215
0.0029084
0.0063577
0.00295825
0.00664076
0.00302646
0.00674181
0.00313911
0.00655787
0.00330076
0.00602024
0.00349802
0.00512992
0.00370986
0.00394802
0.00391713
0.00256057
0.00410785
0.00105027
0.00427828
-0.000501607
0.0044276
-0.00199682
0.00455157
-0.00331944
0.00464391
-0.00436609
0.00470024
-0.0050885
0.00472098
-0.00550467
0.00471096
-0.00567772
0.00467704
-0.00568416
0.0046254
-0.00559117
0.00455998
-0.0054488
0.00448309
-0.0052902
0.00439691
-0.00513178
0.00430219
-0.00497727
0.00419449
-0.00483233
0.00406444
-0.00471772
0.0039058
-0.00465787
0.00372554
-0.00464594
0.00354599
-0.00461854
0.00339612
-0.00447039
0.00329878
-0.00410353
0.00326365
-0.00347392
0.00328888
-0.00260411
0.00336608
-0.00156377
0.00348392
-0.000442352
0.00362937
0.000674782
0.00378873
0.00171037
0.00394907
0.00261194
0.00409936
0.00335172
0.00423141
0.00392638
0.00434031
0.00435183
0.00442453
0.00465399
0.00448525
0.00486029
0.00452466
0.00499492
0.00454393
0.00508469
0.00454239
0.00516162
0.00451844
0.00526342
0.00447181
0.00540964
0.00440488
0.00559055
0.0043225
0.00574745
0.00423027
0.00580393
0.00413339
0.00567447
0.00403534
0.0053175
0.00394065
0.00470683
0.00385171
0.00388733
0.00377461
0.00286897
0.00371107
0.00175969
0.00366671
0.000578858
0.00363906
-0.000587744
0.0036276
-0.00154767
-0.00276575
0.000647364
-0.00465171
0.000425547
-0.00488618
0.000167364
-0.00498258
-8.73898e-05
-0.00495989
-0.000290612
-0.0047988
-0.000398512
-0.00444458
-0.000372369
-0.00385893
-0.000203827
-0.00301235
8.47258e-05
-0.001951
0.000471014
-0.000735206
0.00090075
0.000541069
0.00133437
0.00177602
0.00174369
0.00288904
0.00210511
0.00384421
0.00240199
0.00463476
0.00262686
0.00528102
0.00278589
0.00581312
0.0029008
0.00624279
0.00300444
0.00653712
0.00312873
0.00661753
0.00329135
0.00639525
0.0034907
0.00582089
0.00371124
0.00490938
0.00393256
0.0037267
0.00413728
0.00235586
0.00431687
0.000870679
0.00447008
-0.000654815
0.00459797
-0.00212472
0.00469735
-0.00341882
0.00476307
-0.00443181
0.00479258
-0.00511801
0.00478837
-0.00550046
0.00475679
-0.00564615
0.0047053
-0.00563267
0.00464003
-0.0055259
0.00456454
-0.00537331
0.00448032
-0.00520597
0.00438863
-0.00504009
0.00429034
-0.00487898
0.00418223
-0.00472423
0.0040554
-0.00459089
0.00390152
-0.00450398
0.0037236
-0.00446802
0.00354108
-0.00443602
0.0033833
-0.00431261
0.00327621
-0.00399644
0.00323283
-0.00343053
0.00325279
-0.00262407
0.00332768
-0.00163866
0.00344538
-0.00056005
0.00359248
0.000527684
0.00375487
0.00154799
0.00391943
0.00244738
0.00407492
0.00319623
0.00421291
0.00378838
0.00432836
0.00423639
0.00441963
0.00456272
0.00448773
0.00479218
0.00453461
0.00494805
0.00456117
0.00505813
0.00456679
0.005156
0.0045502
0.00528
0.00451152
0.00544832
0.00445316
0.00564891
0.00437953
0.00582108
0.00429539
0.00588807
0.00420524
0.00576462
0.00411196
0.00541078
0.00402005
0.00479874
0.00393194
0.00397544
0.00385392
0.00294699
0.00378808
0.00182554
0.0037401
0.000626841
0.00370844
-0.000556081
0.00369182
-0.00153105
-0.00276231
0.00124094
-0.00446854
0.00100869
-0.00465392
0.000731655
-0.00470555
0.000425907
-0.00465414
0.000128503
-0.00450139
-8.99574e-05
-0.00422612
-0.000182805
-0.00376608
-0.000129013
-0.00306614
6.51718e-05
-0.00214519
0.000386167
-0.0010562
0.000779011
0.000148225
0.00119758
0.00135746
0.001607
0.00247961
0.00197915
0.00347206
0.00229526
0.00431864
0.00254845
0.00502783
0.00274619
0.00561539
0.00290981
0.00607916
0.00306824
0.0063787
0.00324622
0.00643955
0.00345409
0.00618739
0.00368583
0.00558914
0.00392486
0.00467036
0.00415174
0.00349981
0.00435171
0.00215588
0.00451876
0.000703633
0.00465488
-0.000790938
0.00476181
-0.00223165
0.00483698
-0.00349399
0.00487632
-0.00447114
0.00487933
-0.00512102
0.00485081
-0.00547194
0.00479861
-0.00559395
0.0047306
-0.00556465
0.00465272
-0.00544802
0.00456812
-0.0052887
0.00447754
-0.0051154
0.00438134
-0.00494389
0.00428018
-0.00477782
0.00417202
-0.00461606
0.00404898
-0.00446785
0.00390136
-0.00435635
0.00372825
-0.00429492
0.00354526
-0.00425303
0.00338096
-0.0041483
0.00326396
-0.00387944
0.00321103
-0.00337761
0.00322418
-0.00263722
0.00329523
-0.00170971
0.00341175
-0.000676571
0.00355948
0.000379957
0.00372406
0.00138341
0.00389212
0.00227931
0.00405223
0.00303612
0.00419577
0.00364485
0.00431752
0.00411464
0.00441575
0.00446449
0.00449124
0.00471669
0.00454564
0.00489365
0.00457966
0.00502412
0.00459274
0.00514291
0.00458399
0.00528876
0.00455385
0.00547845
0.00450472
0.00569804
0.00444053
0.00588528
0.00436519
0.0059634
0.00428254
0.00584728
0.00419488
0.00549844
0.00410662
0.004887
0.00402015
0.00406191
0.00394198
0.00302516
0.00387437
0.00189314
0.00382308
0.000678128
0.00378756
-0.00052056
0.0037658
-0.00150929
-0.00275367
0.00183587
-0.00427778
0.00160204
-0.00442009
0.00132352
-0.00442703
0.00100398
-0.00433461
0.000668856
-0.00416626
0.000363347
-0.00392061
0.000147653
-0.00355038
7.56913e-05
-0.00299418
0.000164289
-0.00223379
0.000389054
-0.00128097
0.000718845
-0.000181566
0.00110191
0.000974395
0.00149774
0.00208378
0.00187275
0.00309706
0.00220515
0.00398624
0.00248709
0.0047459
0.00272514
0.00537734
0.00293802
0.00586628
0.00314916
0.00616756
0.00337612
0.00621259
0.00362314
0.00594036
0.00388127
0.00533101
0.00413378
0.00441784
0.00436285
0.00327075
0.00455615
0.00196257
0.00471085
0.000548938
0.00483045
-0.000910539
0.00491717
-0.00231837
0.0049686
-0.00354542
0.00498196
-0.00448451
0.00495916
-0.00509822
0.00490731
-0.00542009
0.00483565
-0.0055223
0.00475236
-0.00548136
0.00466301
-0.00535867
0.00457027
-0.00519596
0.00447431
-0.00501943
0.00437457
-0.00484416
0.0042713
-0.00467455
0.00416338
-0.00450814
0.0040444
-0.00434887
0.00390412
-0.00421607
0.00373804
-0.00412884
0.00355729
-0.00407228
0.00338835
-0.00397936
0.00326171
-0.0037528
0.00319813
-0.00331403
0.00320277
-0.00264186
0.00326855
-0.00177549
0.00338234
-0.000790354
0.00352981
0.000232478
0.00369574
0.00121748
0.00386663
0.00210842
0.00403082
0.00287193
0.00417952
0.00349615
0.00430737
0.00398679
0.00441247
0.00435939
0.00449534
0.00463382
0.00455733
0.00483167
0.00459894
0.00498251
0.00461977
0.00512208
0.00461927
0.00528926
0.00459822
0.00549951
0.00455892
0.00573735
0.0045048
0.00593939
0.00443898
0.00602922
0.00436462
0.00592164
0.00428346
0.0055796
0.00419978
0.00497068
0.00411589
0.0041458
0.00403832
0.00310273
0.00396951
0.00196195
0.00391549
0.000732146
0.00387626
-0.000481329
0.00384946
-0.00148249
-0.00273976
0.00240598
-0.00407754
0.00217245
-0.00418655
0.00190282
-0.0041574
0.00159298
-0.00402477
0.0012516
-0.00382489
0.000907173
-0.00357618
0.00061379
-0.003257
0.000430018
-0.0028104
0.000391985
-0.00219575
0.000503757
-0.00139274
0.000744283
-0.000422093
0.00107025
0.000648431
0.0014356
0.00171842
0.00180227
0.00273039
0.00214485
0.00364365
0.00245255
0.0044382
0.00272886
0.00510103
0.0029879
0.00560723
0.00324667
0.00590879
0.00351594
0.00594333
0.00379508
0.00566121
0.00407332
0.00505278
0.00433436
0.0041568
0.00456226
0.00304286
0.00474756
0.00177728
0.00488997
0.000406523
0.00499416
-0.00101473
0.00506177
-0.00238598
0.00509029
-0.00357393
0.00507846
-0.00447269
0.00503084
-0.00505059
0.0049569
-0.00534615
0.00486718
-0.00543258
0.00477
-0.00538418
0.00467043
-0.0052591
0.00457058
-0.00509611
0.00447014
-0.00491899
0.00436782
-0.00474184
0.00426322
-0.00456994
0.00415584
-0.00440077
0.00404095
-0.00423398
0.00390862
-0.00408374
0.00375145
-0.00397167
0.00357566
-0.00389649
0.00340445
-0.00380815
0.00326902
-0.00361736
0.00319397
-0.00323899
0.00318841
-0.00263629
0.00324709
-0.00183417
0.00335688
-0.000900139
0.00350297
8.63802e-05
0.00366939
0.00105107
0.00384242
0.00193538
0.00401018
0.00270417
0.0041637
0.00334264
0.00429745
0.00385303
0.00440935
0.00424749
0.00449959
0.00454358
0.00456919
0.00476206
0.00461853
0.00493317
0.00464736
0.00509324
0.0046555
0.00528112
0.00464399
0.00551101
0.00461504
0.00576629
0.0045716
0.00598284
0.00451596
0.00608486
0.0044507
0.00598691
0.00437695
0.00565334
0.00429884
0.0050488
0.00421846
0.00422618
0.00414239
0.0031788
0.00407316
0.00203118
0.00401675
0.000788564
0.00397418
-0.000438768
0.00394254
-0.00145084
-0.00272061
0.00293151
0.00269666
-0.0039517
0.0024386
-0.00389934
0.00215084
-0.003737
0.00182949
-0.00350353
0.00148454
-0.00323123
0.00115265
-0.00292511
0.000888498
-0.00254625
0.000741583
-0.00204884
0.000737882
-0.00138904
0.00087578
-0.000559991
0.00112454
0.000399673
0.00144114
0.00140182
0.00178549
0.00238604
0.00212836
0.00330078
0.00245465
0.00411191
0.00276298
0.00479271
0.00306142
0.00530879
0.00336008
0.00561013
0.00366346
0.00563994
0.0039671
0.00535757
0.00425907
0.00476081
0.00452392
0.00389195
0.00474778
0.00281899
0.00492402
0.00160104
0.00505466
0.000275886
0.00514458
-0.00110465
0.00519413
-0.00243553
0.00520055
-0.00358035
0.00516443
-0.00443657
0.00509319
-0.00497935
0.00499869
-0.00525164
0.00489253
-0.00532642
0.00478299
-0.00527464
0.00467453
-0.00515063
0.00456862
-0.0049902
0.00446458
-0.00481495
0.00436055
-0.00463781
0.00425542
-0.00446481
0.00414893
-0.00429428
0.004038
-0.00412304
0.00391379
-0.00395953
0.00376691
-0.0038248
0.00359872
-0.0037283
0.00342799
-0.00363741
0.00328523
-0.00347461
0.0031984
-0.00315215
0.00318106
-0.00261895
0.00323077
-0.00188389
0.00333487
-0.00100424
0.00347846
-5.72126e-05
0.00364445
0.000885083
0.00381898
0.00176085
0.00398982
0.00253332
0.00414784
0.00318462
0.00428733
0.00371354
0.00440593
0.00412889
0.00450351
0.004446
0.00458076
0.00468481
0.00463793
0.004876
0.00467497
0.0050562
0.00469205
0.00526405
0.00469047
0.00551259
0.00467232
0.00578445
0.00464008
0.00601508
0.00459527
0.00612966
0.00453988
0.0060423
0.00447448
0.00571874
0.00440292
0.00512037
0.00432707
0.00430203
0.00425341
0.00325245
0.00418453
0.00210006
0.00412635
0.000846744
0.00408083
-0.000393251
0.00404463
-0.00141464
-0.00269634
0.00315903
-0.00371361
0.00291099
-0.0036513
0.00264816
-0.00347418
0.00236119
-0.00321656
0.00204567
-0.00291571
0.00171684
-0.00259628
0.0014147
-0.00224411
0.00119009
-0.00182422
0.00108515
-0.0012841
0.00111869
-0.000593529
0.00127807
0.000240299
0.00153014
0.00114974
0.00183719
0.002079
0.0021675
0.00297047
0.00250143
0.00377797
0.00283176
0.00446238
0.00315972
0.00498082
0.00348842
0.00528144
0.00381669
0.00531167
0.00413688
0.00503739
0.0044363
0.00446138
0.00470049
0.00362776
0.00491781
0.00260167
0.00508453
0.00143432
0.00520399
0.000156425
0.00528075
-0.00118141
0.00531305
-0.00246782
0.00529805
-0.00356536
0.0052386
-0.00437711
0.00514519
-0.00488595
0.00503189
-0.00513834
0.0049111
-0.00520563
0.00479085
-0.00515439
0.00467487
-0.00503465
0.00456399
-0.00487932
0.00445718
-0.00470815
0.00435224
-0.00453286
0.00424736
-0.00435993
0.00414219
-0.00418911
0.00403501
-0.00401587
0.00391871
-0.00384322
0.00378295
-0.00368905
0.00362467
-0.00357001
0.00345739
-0.00347013
0.00330946
-0.00332668
0.00321114
-0.00305383
0.0031807
-0.00258851
0.00321948
-0.00192267
0.00331639
-0.00110115
0.00345572
-0.000196539
0.00362046
0.000720339
0.00379581
0.0015855
0.00396927
0.00235987
0.00413148
0.00302241
0.00427653
0.0035685
0.00440175
0.00400366
0.00450663
0.00434112
0.00459154
0.00459991
0.00465661
0.00481093
0.00470202
0.00501079
0.00472828
0.00523779
0.00473694
0.00550393
0.00472994
0.00579144
0.00470935
0.00603567
0.00467596
0.00616305
0.0046312
0.00608706
0.00457505
0.00577489
0.00451103
0.00518439
0.00444075
0.00437231
0.00437049
0.00332271
0.00430268
0.00216787
0.00424358
0.000905843
0.00419553
-0.000345209
0.0041552
-0.0013743
-0.00266718
0.00354961
-0.00347192
0.00330934
-0.00341103
0.00306884
-0.00323368
0.00281912
-0.00296684
0.00254888
-0.00264547
0.00225564
-0.00230304
0.00195896
-0.00194743
0.00169835
-0.00156361
0.00152123
-0.00110699
0.0014631
-0.0005354
0.0015314
0.000171996
0.00170887
0.000972268
0.00196525
0.00182262
0.00226919
0.00266653
0.00259752
0.00344964
0.00293724
0.00412266
0.00328272
0.00463534
0.00363032
0.00493384
0.00397373
0.00496827
0.0043025
0.00470861
0.00460335
0.00416053
0.0048628
0.00336831
0.00507151
0.00239296
0.00522817
0.00127766
0.00533794
4.66582e-05
0.00540204
-0.00124552
0.0054175
-0.00248328
0.00538156
-0.00352942
0.0052998
-0.00429535
0.0051859
-0.00477205
0.00505582
-0.00500826
0.00492239
-0.0050722
0.00479315
-0.00502515
0.00467106
-0.00491256
0.0045563
-0.00476456
0.00444753
-0.00459938
0.00434237
-0.00442771
0.00423849
-0.00425605
0.00413512
-0.00408574
0.00403155
-0.0039123
0.00392264
-0.00373431
0.00379826
-0.00356467
0.00365172
-0.00342347
0.0034909
-0.00330931
0.0033405
-0.00317628
0.00323175
-0.00294509
0.00318742
-0.00254418
0.00321343
-0.00194868
0.00330111
-0.00118883
0.00343471
-0.000330147
0.00359707
0.00055798
0.0037725
0.00141008
0.00394809
0.00218428
0.0041142
0.0028563
0.00426462
0.00341807
0.00439637
0.00387192
0.00450849
0.004229
0.00460103
0.00450736
0.00467406
0.00473789
0.00472795
0.00495691
0.00476355
0.00520219
0.00478265
0.00548483
0.00478707
0.00578702
0.00477849
0.00604424
0.00475704
0.0061845
0.00472359
0.00612051
0.00467757
0.00582091
0.00462209
0.00523987
0.00455838
0.00443602
0.00449249
0.0033886
0.00442688
0.00223347
0.0043673
0.000965426
0.00431748
-0.000295386
0.00427351
-0.00133034
-0.00263344
0.00386327
-0.00322819
0.00362971
-0.00317747
0.00340757
-0.00301154
0.00319094
-0.00275022
0.00296831
-0.00242283
0.00272778
-0.00206251
0.00247044
-0.00169009
0.00221694
-0.00131011
0.00200709
-0.000897136
0.00188375
-0.000412059
0.00187125
0.000184493
0.00197233
0.000871191
0.00216889
0.00162606
0.00243399
0.00240144
0.00274316
0.00314046
0.00307874
0.00378708
0.00342889
0.0042852
0.00378384
0.00457889
0.00413263
0.00461947
0.0044623
0.00437894
0.00475897
0.00386387
0.00501013
0.00311714
0.00520876
0.00219434
0.0053556
0.00113082
0.00545599
-5.37296e-05
0.00550794
-0.00129748
0.00550652
-0.00248187
0.00544993
-0.00347283
0.00534702
-0.00419244
0.00521456
-0.00463959
0.00506996
-0.00486367
0.004926
-0.00492823
0.00478953
-0.00488869
0.00466275
-0.00478577
0.00454519
-0.004647
0.00443524
-0.00448943
0.00433049
-0.00432295
0.00422826
-0.00415382
0.00412722
-0.0039847
0.0040272
-0.00381227
0.00392503
-0.00363215
0.00381175
-0.00345139
0.00367819
-0.00328992
0.00352663
-0.00315775
0.00337689
-0.00302654
0.00325958
-0.00282778
0.00320121
-0.00248581
0.00321285
-0.00196032
0.00328929
-0.00126527
0.00341531
-0.000456167
0.00357407
0.000399222
0.00374874
0.00123541
0.00392593
0.00200709
0.0040956
0.00268662
0.00425121
0.00326246
0.00438935
0.00373379
0.00450862
0.00410973
0.00460876
0.00440722
0.00468976
0.0046569
0.00475218
0.00489448
0.00479721
0.00515716
0.00482686
0.00545519
0.00484286
0.00577102
0.00484657
0.00604053
0.00483748
0.00619359
0.00481597
0.00614202
0.0047809
0.00585598
0.00473489
0.00528588
0.00467879
0.00449212
0.00461824
0.00344914
0.00455562
0.0022961
0.00449677
0.00102427
0.0044457
-0.000244315
0.00439876
-0.0012834
-0.00259555
0.00409967
0.00387308
-0.00295087
0.00366589
-0.00280435
0.00347572
-0.00256005
0.00329457
-0.00224168
0.00310892
-0.00187687
0.00290865
-0.00148982
0.00269601
-0.00109746
0.00249439
-0.000695523
0.00234275
-0.000260417
0.00227201
0.000255232
0.00230495
0.00083825
0.002439
0.00149201
0.0026562
0.00218424
0.00293422
0.00286245
0.00325279
0.00346851
0.00359515
0.00394284
0.00394632
0.00422772
0.00429129
0.00427451
0.00461478
0.00405545
0.00490228
0.00357636
0.00514224
0.00287718
0.00532981
0.00200677
0.00546742
0.000993216
0.00555843
-0.000144747
0.00559803
-0.00133707
0.00557918
-0.00246301
0.00550211
-0.00339576
0.00537941
-0.00406974
0.00523063
-0.00449081
0.00507399
-0.00470703
0.00492173
-0.00477598
0.00477982
-0.00474678
0.00464971
-0.00465566
0.00453039
-0.00452768
0.00442002
-0.00437906
0.00431622
-0.00421916
0.00421619
-0.0040538
0.00411804
-0.00388654
0.00402162
-0.00371585
0.00392551
-0.00353604
0.00382262
-0.0033485
0.00370261
-0.00316991
0.00356271
-0.00301785
0.00341695
-0.00288077
0.00329365
-0.00270448
0.00322193
-0.00241409
0.00321805
-0.00195644
0.00328109
-0.00132831
0.0033979
-0.000572981
0.00355143
0.000245691
0.00372434
0.00106251
0.00390251
0.00182892
0.00407537
0.00251375
0.00423593
0.00310191
0.00438029
0.00358943
0.0045066
0.00398341
0.00461427
0.00429955
0.00470319
0.00456797
0.00477415
0.00482353
0.00482862
0.00510269
0.00486884
0.00541496
0.00489648
0.00574338
0.00491264
0.00602437
0.00491626
0.00618997
0.00490722
0.00615107
0.00488383
0.00587937
0.00484818
0.00532153
0.00480066
0.00453964
0.00474642
0.00350338
0.00468804
0.00235447
0.00463046
0.00108185
0.00457913
-0.000192979
0.00452994
-0.00123421
-0.00255404
0.00404441
-0.00273247
0.00385038
-0.00261033
0.00368191
-0.00239157
0.00353417
-0.00209394
0.00339527
-0.00173797
0.0032523
-0.00134685
0.00309723
-0.000942392
0.00293562
-0.000533906
0.00279395
-0.000118755
0.00269747
0.000351718
0.00268165
0.000854066
0.0027593
0.00141436
0.00292515
0.00201839
0.00316322
0.00262438
0.00345381
0.00317792
0.00377725
0.00361939
0.00411461
0.00389037
0.00444749
0.00394162
0.00475862
0.00374433
0.00503285
0.00330214
0.00525953
0.00265049
0.00543576
0.00183054
0.0055643
0.000864672
0.00564578
-0.000226227
0.00567177
-0.00136306
0.00563441
-0.00242565
0.00553709
-0.00329844
0.00539634
-0.00392898
0.00523383
-0.0043283
0.00506782
-0.00454102
0.00490954
-0.0046177
0.00476394
-0.00460118
0.00463179
-0.00452351
0.0045117
-0.00440759
0.0044016
-0.00426896
0.00429924
-0.00411679
0.00420185
-0.00395642
0.00410708
-0.00379177
0.00401446
-0.00362323
0.00392379
-0.00344538
0.00383029
-0.00325499
0.00372376
-0.00306338
0.00359734
-0.00289143
0.00345883
-0.00274227
0.00333267
-0.00257831
0.00324912
-0.00233054
0.00322927
-0.0019366
0.00327724
-0.00137627
0.0033827
-0.000678447
0.00352935
9.90381e-05
0.00369928
0.000892587
0.00387767
0.00165053
0.00405326
0.00233816
0.00421845
0.00293671
0.00436883
0.00343905
0.00450203
0.00385021
0.0046171
0.00418448
0.00471389
0.00447119
0.00479331
0.0047441
0.00485717
0.00503884
0.00490789
0.00536424
0.00494714
0.00570413
0.0049758
0.00599571
0.00499236
0.00617341
0.00499621
0.00614722
0.00498517
0.00589041
0.00496069
0.00534601
0.00492268
0.00457765
0.00487571
0.00355035
0.00482245
0.00240774
0.00476744
0.00113686
0.00471658
-0.000142118
0.004666
-0.00118363
-0.00250953
0.00415218
-0.0025242
0.00397118
-0.00242933
0.00382127
-0.00224166
0.00370004
-0.00197271
0.00359872
-0.00163665
0.0035053
-0.00125343
0.0034073
-0.000844391
0.00329886
-0.000425474
0.00319392
-1.38064e-05
0.00310613
0.000439501
0.00306986
0.00089034
0.00310706
0.00137715
0.00322593
0.00189953
0.00342041
0.00242989
0.00367523
0.0029231
0.00397069
0.00332393
0.0042857
0.00357536
0.00459949
0.00362784
0.00489313
0.00345068
0.00515096
0.00304431
0.00536315
0.0024383
0.00552808
0.00166561
0.00564776
0.000744992
0.00571822
-0.000296682
0.00572821
-0.00137305
0.0056708
-0.00236824
0.00555366
-0.0031813
0.00539702
-0.00377235
0.00522368
-0.00415496
0.00505106
-0.00436839
0.00488899
-0.00445563
0.00474135
-0.00445354
0.00460839
-0.00439054
0.00448846
-0.00428767
0.00437936
-0.00415986
0.00427891
-0.00401634
0.00418455
-0.00386206
0.00409364
-0.00370086
0.00400513
-0.00353472
0.00391951
-0.00335976
0.00383427
-0.00316975
0.00374057
-0.00296968
0.00362879
-0.00277965
0.00350056
-0.00261404
0.00337505
-0.0024528
0.00328196
-0.00223745
0.00324647
-0.0019011
0.00327812
-0.00140792
0.00337038
-0.000770707
0.00350828
-3.88673e-05
0.00367379
0.000727083
0.00385143
0.00147289
0.00402911
0.00216048
0.00419854
0.00276727
0.00435465
0.00328294
0.00449453
0.00371034
0.00461686
0.00406215
0.00472138
0.00436666
0.00480918
0.00465631
0.00488228
0.00496573
0.00494336
0.00530315
0.0049941
0.0056534
0.00503522
0.00595459
0.00506485
0.00614377
0.0050819
0.00613018
0.00508374
0.00588856
0.00507112
0.00535864
0.0050435
0.00460527
0.00500474
0.00358911
0.00495765
0.00245482
0.00490625
0.00118826
0.00485683
-9.27002e-05
0.00480576
-0.00113256
-0.00246274
0.00420408
-0.00232773
0.00403602
-0.00226128
0.00390184
-0.00210748
0.00380137
-0.00187224
0.00372887
-0.00156415
0.00367523
-0.00119979
0.0036288
-0.000797955
0.00357838
-0.000375063
0.00351649
4.80847e-05
0.00346386
0.000492132
0.0034346
0.000919606
0.00345474
0.00135701
0.00353986
0.00181441
0.00369404
0.00227571
0.00390985
0.00270728
0.0041711
0.00306268
0.00445714
0.00328932
0.00474629
0.00333869
0.00501864
0.00317833
0.00525821
0.00280474
0.00545557
0.00224094
0.00560922
0.00151196
0.00571917
0.000635039
0.00577594
-0.000353447