/*--------------------------------*- C++ -*----------------------------------*\
  =========                 |
  \\      /  F ield         | OpenFOAM: The Open Source CFD Toolbox
   \\    /   O peration     | Website:  https://openfoam.org
    \\  /    A nd           | Version:  7
     \\/     M anipulation  |
\*---------------------------------------------------------------------------*/
FoamFile
{
    version     2.0;
    format      ascii;
    class       volVectorField;
    location    "99.999";
    object      U;
}
// * * * * * * * * * * * * * * * * * * * * * * * * * * * * * * * * * * * * * //

dimensions      [0 1 -1 0 0 0 0];

internalField   nonuniform List<vector> 
3700
(
(-0.198847 -0.438202 2.55095e-22)
(-0.183636 -0.482573 -3.16387e-21)
(-0.162452 -0.505679 3.42066e-21)
(-0.132331 -0.502671 -4.19216e-21)
(-0.0915036 -0.470105 2.21593e-21)
(-0.0398002 -0.407536 -9.24044e-22)
(0.0201399 -0.317995 3.89453e-21)
(0.0841412 -0.206545 -2.21492e-21)
(0.149294 -0.0808784 2.09588e-21)
(0.213991 0.0515992 -9.9541e-22)
(0.277317 0.183124 -1.54995e-21)
(0.338486 0.305228 -6.97723e-22)
(0.39557 0.409591 7.47313e-22)
(0.44604 0.490439 -4.54547e-22)
(0.487491 0.54607 6.54095e-22)
(0.518409 0.57878 -2.05524e-22)
(0.538371 0.593546 -5.65038e-22)
(0.547179 0.597113 1.19038e-21)
(0.543758 0.597547 -1.32321e-21)
(0.527213 0.601672 -2.48291e-22)
(0.500107 0.609965 1.23011e-21)
(0.470364 0.613302 -1.57545e-22)
(0.448801 0.596297 -2.00881e-22)
(0.443467 0.546139 3.85661e-22)
(0.455936 0.459562 -1.58538e-21)
(0.482892 0.342415 1.33809e-21)
(0.519779 0.204821 1.53983e-22)
(0.562722 0.0577618 -4.33333e-22)
(0.608525 -0.0877622 -1.97932e-21)
(0.654373 -0.221213 1.64123e-21)
(0.697583 -0.333631 7.5814e-22)
(0.735595 -0.419706 -1.38498e-21)
(0.766556 -0.478754 -1.53846e-23)
(0.789697 -0.514025 -3.12192e-22)
(0.805235 -0.531006 8.11064e-22)
(0.813924 -0.535708 -4.93654e-22)
(0.816737 -0.533267 1.14842e-22)
(0.814837 -0.527083 -2.09211e-22)
(0.809314 -0.519209 -4.8643e-23)
(0.800399 -0.511963 1.19909e-22)
(0.787062 -0.508781 -5.4474e-23)
(0.767945 -0.512349 3.68176e-23)
(0.74313 -0.521056 -6.4101e-23)
(0.715119 -0.527245 1.0294e-22)
(0.68811 -0.519489 -1.00456e-23)
(0.666155 -0.487608 -1.34836e-22)
(0.651763 -0.426825 3.87699e-23)
(0.645803 -0.338664 -6.27608e-22)
(0.648135 -0.229339 6.80089e-22)
(0.65809 -0.107637 -2.31839e-22)
(0.674518 0.0166515 -4.43245e-22)
(0.695758 0.134261 2.79334e-22)
(0.719789 0.237573 -2.65129e-22)
(0.744412 0.321812 -2.11446e-23)
(0.767612 0.385405 -1.51981e-22)
(0.787869 0.42955 6.29387e-23)
(0.804235 0.457368 4.33533e-23)
(0.816242 0.472882 -5.57505e-23)
(0.823847 0.48003 2.06872e-23)
(0.82744 0.48178 7.61582e-24)
(0.827578 0.480226 -6.96262e-24)
(0.824593 0.477227 -1.87967e-23)
(0.818106 0.475456 1.19552e-23)
(0.807518 0.477206 1.76487e-23)
(0.792313 0.483188 -2.56442e-25)
(0.773348 0.48974 -3.53661e-23)
(0.75178 0.490619 -1.06038e-23)
(0.730114 0.477601 3.841e-24)
(0.709132 0.445686 -6.06874e-24)
(0.690889 0.392271 9.37062e-24)
(0.674732 0.320275 2.73691e-23)
(0.662184 0.232292 -3.21736e-23)
(0.652948 0.136168 -3.28888e-23)
(0.646863 0.0358038 -6.12381e-24)
(0.646506 -0.0650845 -7.85591e-24)
(0.64522 -0.146159 -5.1771e-24)
(0.654406 -0.25444 -4.94813e-24)
(-0.17309 -0.44334 -2.25505e-21)
(-0.16678 -0.490415 5.59018e-21)
(-0.157394 -0.517397 -5.33421e-21)
(-0.141124 -0.519673 -3.27733e-21)
(-0.114653 -0.493349 -1.93785e-21)
(-0.0759258 -0.436745 3.10727e-21)
(-0.0256003 -0.351779 -4.66809e-21)
(0.0324212 -0.243447 1.33378e-20)
(0.0940006 -0.118363 -6.01271e-21)
(0.157068 0.0144319 -1.10288e-21)
(0.220329 0.146224 2.06202e-21)
(0.28267 0.269774 -2.83431e-21)
(0.342137 0.376949 3.04092e-21)
(0.396169 0.462197 -1.88534e-21)
(0.442136 0.523509 -2.35853e-21)
(0.478132 0.56258 -4.59166e-22)
(0.503082 0.583999 3.12883e-21)
(0.515947 0.594607 -6.08149e-22)
(0.515354 0.602385 4.01378e-21)
(0.501454 0.612863 -4.28744e-21)
(0.478799 0.624177 -7.30539e-22)
(0.45673 0.625458 2.52794e-21)
(0.445609 0.601839 -3.08616e-22)
(0.451424 0.543132 1.32402e-21)
(0.473777 0.448788 -3.8922e-21)
(0.508482 0.325898 5.54922e-21)
(0.550852 0.18462 -3.96158e-21)
(0.597154 0.0355211 2.35684e-21)
(0.64447 -0.110833 -6.99658e-22)
(0.690231 -0.243744 2.7467e-21)
(0.731952 -0.354239 -2.5281e-23)
(0.76731 -0.437184 -1.36053e-21)
(0.794798 -0.492358 -1.32527e-21)
(0.814055 -0.523591 3.17424e-21)
(0.825696 -0.536801 -1.52594e-21)
(0.830784 -0.538196 8.71985e-23)
(0.830401 -0.533003 3.32289e-22)
(0.825652 -0.524651 -8.48246e-22)
(0.817606 -0.514974 8.47147e-22)
(0.806652 -0.505744 -4.29725e-22)
(0.791905 -0.499939 -1.16571e-22)
(0.77183 -0.500479 4.96402e-22)
(0.745988 -0.506764 3.93348e-22)
(0.716373 -0.512282 -1.17483e-21)
(0.687044 -0.506103 9.8868e-22)
(0.662346 -0.477649 -1.28156e-21)
(0.645229 -0.421273 2.80426e-21)
(0.636868 -0.337741 -1.38287e-21)
(0.637251 -0.232808 -1.18401e-21)
(0.645745 -0.114989 1.44961e-21)
(0.661231 0.00619549 -4.94767e-22)
(0.682047 0.121737 2.24384e-22)
(0.706141 0.224143 -1.15704e-23)
(0.731295 0.308625 -1.11118e-22)
(0.755436 0.373414 9.96673e-22)
(0.776947 0.419414 -3.61267e-22)
(0.794748 0.449457 2.29511e-22)
(0.808263 0.467312 -1.48683e-22)
(0.817398 0.476688 -3.2739e-22)
(0.822529 0.4804 -1.06669e-22)
(0.824167 0.480584 2.35828e-22)
(0.822556 0.479329 -5.17664e-23)
(0.817249 0.479543 -1.0278e-23)
(0.807697 0.483504 8.67634e-23)
(0.793498 0.491593 2.67599e-24)
(0.775638 0.499708 1.21059e-23)
(0.755244 0.501312 4.28242e-23)
(0.73473 0.488185 -7.5512e-23)
(0.714664 0.45556 1.61663e-22)
(0.697036 0.400992 1.34266e-22)
(0.681095 0.327688 -2.89743e-22)
(0.668514 0.237998 6.33638e-23)
(0.658871 0.14021 2.35607e-22)
(0.652388 0.0377975 -3.80149e-23)
(0.651202 -0.0647015 7.18944e-24)
(0.64945 -0.147557 1.09639e-23)
(0.657182 -0.256848 1.06457e-23)
(-0.123561 -0.443928 1.19252e-20)
(-0.125374 -0.492437 -2.00575e-20)
(-0.127585 -0.522199 1.49123e-20)
(-0.125977 -0.529314 -7.87312e-22)
(-0.115938 -0.509727 -9.05665e-21)
(-0.0933188 -0.460655 1.13289e-20)
(-0.0565601 -0.382246 3.41954e-22)
(-0.00762349 -0.27887 4.77378e-21)
(0.0487329 -0.157027 -4.32093e-21)
(0.108314 -0.0242925 -2.50351e-21)
(0.17018 0.10735 1.19356e-20)
(0.232823 0.232102 -1.58167e-20)
(0.293697 0.34185 9.51337e-21)
(0.350329 0.431294 1.0369e-21)
(0.399889 0.498175 -1.21419e-20)
(0.440064 0.543716 6.7122e-21)
(0.469091 0.572213 -7.28347e-22)
(0.485278 0.590413 -1.2838e-21)
(0.487422 0.605671 -2.82061e-22)
(0.477038 0.621803 -3.69421e-21)
(0.460412 0.634801 1.63371e-21)
(0.447555 0.632847 -1.70828e-21)
(0.447682 0.602376 4.41757e-21)
(0.464634 0.535931 -2.10904e-21)
(0.496435 0.435169 5.52764e-21)
(0.53834 0.307946 -4.92887e-21)
(0.585627 0.1642 5.80668e-21)
(0.634695 0.014073 -8.22055e-21)
(0.683002 -0.132364 -4.6482e-21)
(0.728273 -0.264244 5.85476e-21)
(0.768113 -0.372531 1.96382e-21)
(0.800441 -0.452228 -3.47769e-21)
(0.824129 -0.503564 -1.02124e-21)
(0.839254 -0.530928 3.77143e-21)
(0.846835 -0.540635 -2.60671e-21)
(0.848231 -0.53903 4.82611e-22)
(0.844647 -0.53135 -2.27896e-21)
(0.837114 -0.521035 1.83808e-21)
(0.826617 -0.509769 -1.16028e-21)
(0.813658 -0.498832 8.83155e-22)
(0.797545 -0.490663 -4.98373e-22)
(0.776662 -0.488253 -1.55749e-22)
(0.750091 -0.491938 -3.23146e-22)
(0.719236 -0.49648 -1.19e-21)
(0.687892 -0.491677 1.97234e-21)
(0.660625 -0.466695 3.56157e-22)
(0.640849 -0.414986 -9.78417e-22)
(0.6301 -0.336424 8.348e-22)
(0.628514 -0.236201 -1.00801e-22)
(0.635488 -0.122512 4.83685e-22)
(0.649937 -0.00459637 1.08547e-22)
(0.670196 0.108703 -6.11737e-23)
(0.694187 0.210084 -2.70754e-21)
(0.719696 0.294719 7.39345e-22)
(0.744603 0.36064 -3.83972e-22)
(0.767198 0.408465 6.56072e-22)
(0.786284 0.440737 -6.0944e-22)
(0.801191 0.460951 2.30772e-23)
(0.811783 0.472569 -3.59701e-22)
(0.818413 0.478263 5.40421e-22)
(0.821529 0.480231 -8.61121e-23)
(0.821287 0.480792 -2.08353e-23)
(0.817185 0.483054 -1.71129e-23)
(0.80874 0.489239 4.04401e-23)
(0.795658 0.499406 3.49812e-23)
(0.779032 0.509052 1.22669e-22)
(0.75993 0.511408 -6.70364e-23)
(0.740667 0.498284 -1.63909e-22)
(0.721595 0.465134 1.9393e-22)
(0.704663 0.40961 -5.98422e-23)
(0.689005 0.335184 3.20946e-22)
(0.676469 0.243931 -8.02654e-23)
(0.666448 0.144566 6.78688e-23)
(0.659607 0.0401693 6.77177e-23)
(0.65756 -0.0639207 -1.10684e-22)
(0.655344 -0.148496 1.26152e-22)
(0.661486 -0.258821 -3.78712e-24)
(-0.0517994 -0.440462 1.40552e-20)
(-0.0603256 -0.488838 -1.77337e-20)
(-0.0729724 -0.519736 1.98582e-20)
(-0.085657 -0.530566 -2.05294e-21)
(-0.0929542 -0.517508 4.99698e-21)
(-0.0888642 -0.477025 4.76863e-21)
(-0.0691779 -0.407357 -9.57415e-21)
(-0.0337724 -0.310923 4.504e-21)
(0.0144716 -0.194953 -9.48091e-21)
(0.0689016 -0.0641879 -3.8762e-22)
(0.127613 0.0669518 2.0697e-20)
(0.189371 0.192476 -1.70095e-20)
(0.250576 0.30453 -1.55913e-21)
(0.308764 0.397957 9.53034e-21)
(0.36087 0.470298 -7.15437e-22)
(0.404171 0.522429 -2.02428e-21)
(0.436299 0.558357 1.1425e-21)
(0.455233 0.584429 1.33676e-21)
(0.460361 0.606885 1.14585e-21)
(0.454636 0.627659 -3.4209e-22)
(0.445593 0.641041 -5.54684e-21)
(0.443158 0.635049 2.88654e-21)
(0.454928 0.597939 4.60817e-21)
(0.482742 0.524833 5.35784e-21)
(0.523431 0.419081 -1.67484e-20)
(0.571891 0.288942 1.43016e-20)
(0.62347 0.143943 -7.91603e-21)
(0.67477 -0.00638287 4.73087e-21)
(0.72364 -0.15213 -9.30638e-21)
(0.768067 -0.282529 1.08202e-20)
(0.805691 -0.388354 -2.51002e-21)
(0.834668 -0.464716 1.80196e-21)
(0.854281 -0.512289 2.84131e-21)
(0.865083 -0.535992 1.87027e-21)
(0.868492 -0.542499 -1.45674e-21)
(0.866152 -0.538232 4.72833e-23)
(0.859386 -0.528364 5.90864e-22)
(0.849152 -0.516305 -1.8407e-21)
(0.836305 -0.503655 -1.33321e-22)
(0.821398 -0.491286 1.3025e-21)
(0.803954 -0.481053 -7.74144e-22)
(0.782381 -0.475841 1.38943e-21)
(0.755354 -0.476797 5.75806e-22)
(0.723638 -0.480034 -1.3798e-21)
(0.690626 -0.476315 1.11648e-21)
(0.660997 -0.454752 -2.49462e-22)
(0.638632 -0.407907 1.1939e-21)
(0.625493 -0.334632 -5.26485e-22)
(0.621907 -0.239432 -2.98841e-22)
(0.62731 -0.130111 -2.68549e-22)
(0.64061 -0.0156559 4.50151e-22)
(0.660162 0.0952523 1.65154e-21)
(0.683903 0.195489 -2.30566e-21)
(0.709599 0.280178 1.26911e-21)
(0.735097 0.347156 5.3218e-22)
(0.758608 0.396766 2.82456e-22)
(0.778831 0.431254 -2.86058e-22)
(0.795019 0.453824 8.80049e-22)
(0.806996 0.467683 -3.84799e-22)
(0.815084 0.47537 -3.9515e-22)
(0.819653 0.47916 6.07048e-23)
(0.820773 0.481594 4.26106e-22)
(0.817903 0.485945 1.36906e-22)
(0.810638 0.494347 -2.19771e-22)
(0.798783 0.50655 3.06084e-23)
(0.783517 0.517697 -2.6374e-23)
(0.765822 0.520846 1.07359e-23)
(0.747914 0.507846 2.55732e-22)
(0.729925 0.474361 -5.18309e-22)
(0.713787 0.418084 5.00298e-22)
(0.698494 0.342722 -1.24698e-22)
(0.686096 0.250059 -1.45015e-22)
(0.675741 0.149221 -1.33762e-22)
(0.668594 0.0429225 -2.51021e-22)
(0.665657 -0.0627316 1.83458e-22)
(0.662986 -0.14895 -8.04857e-23)
(0.667409 -0.260325 2.69173e-23)
(0.0390223 -0.433716 2.2684e-21)
(0.0255916 -0.48037 -1.55561e-20)
(0.00450927 -0.510545 2.65017e-20)
(-0.0208274 -0.523355 -2.37138e-20)
(-0.0448355 -0.515659 2.11251e-20)
(-0.0602878 -0.483894 -7.97307e-21)
(-0.0604764 -0.424527 -2.24738e-21)
(-0.0427345 -0.337862 -2.05112e-20)
(-0.00675059 -0.22896 3.16469e-20)
(0.039769 -0.104043 -3.05472e-20)
(0.0931625 0.0259603 2.22612e-20)
(0.152425 0.151345 -4.39945e-21)
(0.212764 0.265342 -2.72691e-23)
(0.271386 0.362498 -2.871e-21)
(0.324922 0.440187 -7.12084e-22)
(0.370269 0.498989 5.14779e-21)
(0.404643 0.542523 -2.56419e-21)
(0.426061 0.57638 -1.47525e-21)
(0.434773 0.605376 -2.31487e-21)
(0.435 0.629643 -4.21354e-21)
(0.434921 0.642306 7.46308e-21)
(0.443716 0.631896 -1.03763e-20)
(0.467145 0.588747 7.58267e-21)
(0.505318 0.510234 3.40092e-21)
(0.55421 0.40095 -1.04262e-20)
(0.608501 0.26927 1.14674e-20)
(0.663687 0.124221 -8.31114e-21)
(0.716753 -0.025458 8.30713e-21)
(0.765879 -0.169932 -6.88555e-21)
(0.809157 -0.298465 -9.13051e-21)
(0.844293 -0.401596 -9.16821e-21)
(0.869654 -0.474562 1.49713e-20)
(0.884972 -0.51848 5.09651e-22)
(0.891313 -0.538767 3.32559e-22)
(0.890498 -0.542403 -5.98629e-21)
(0.884422 -0.535836 1.93295e-22)
(0.874521 -0.524103 2.33218e-21)
(0.861687 -0.510539 -3.43125e-21)
(0.846612 -0.496701 1.77303e-21)
(0.829836 -0.48316 -1.11313e-21)
(0.811093 -0.471188 -8.80831e-22)
(0.788916 -0.463393 -8.38861e-22)
(0.761671 -0.461559 1.9843e-21)
(0.729472 -0.463159 -5.48229e-22)
(0.695175 -0.460149 -9.74413e-22)
(0.663432 -0.441837 6.87144e-22)
(0.638561 -0.399972 -2.43389e-23)
(0.623015 -0.33227 -1.72409e-21)
(0.617381 -0.242396 2.89808e-21)
(0.621141 -0.137702 -3.43448e-21)
(0.633192 -0.0269231 -5.33313e-22)
(0.65191 0.0814758 2.32787e-21)
(0.675249 0.180448 -2.84574e-21)
(0.700966 0.265084 1.53537e-21)
(0.726885 0.333037 1.00203e-21)
(0.751147 0.384379 -1.77813e-21)
(0.772364 0.421053 3.28015e-22)
(0.789726 0.445958 -3.80849e-22)
(0.80302 0.462041 -2.04063e-22)
(0.812523 0.471722 3.44783e-22)
(0.818517 0.477365 -1.93548e-22)
(0.820992 0.481713 -1.59029e-22)
(0.819382 0.488171 1.57068e-22)
(0.813372 0.498764 1.20018e-22)
(0.802849 0.512951 -1.48978e-22)
(0.789064 0.525573 -3.34193e-22)
(0.772889 0.529562 -2.55944e-22)
(0.756443 0.516816 1.05465e-22)
(0.739638 0.483189 3.05296e-22)
(0.724406 0.426359 -4.8758e-22)
(0.709578 0.350253 -2.17374e-22)
(0.697429 0.256338 5.0289e-22)
(0.686793 0.154159 -3.87622e-22)
(0.679401 0.0460523 -1.60376e-22)
(0.675549 -0.0611278 -2.7939e-22)
(0.672443 -0.148897 -5.83118e-23)
(0.675026 -0.261324 -5.76584e-23)
(0.127944 -0.468011 3.24576e-20)
(0.100865 -0.495946 -3.84096e-20)
(0.0656535 -0.508667 4.48191e-21)
(0.0272444 -0.504457 1.11331e-20)
(-0.00688339 -0.480328 -1.10674e-20)
(-0.0281528 -0.431692 -1.43516e-20)
(-0.0310599 -0.356843 1.03502e-20)
(-0.0123612 -0.257527 1.25063e-20)
(0.0225758 -0.141334 -2.81418e-21)
(0.0680527 -0.0142662 1.18874e-20)
(0.122268 0.109534 -1.66967e-20)
(0.180241 0.224879 -5.31875e-21)
(0.237998 0.325375 1.41351e-20)
(0.291823 0.40822 -3.77837e-21)
(0.338244 0.473636 3.14676e-21)
(0.374291 0.524657 -1.33922e-20)
(0.398315 0.56583 1.38867e-20)
(0.411494 0.600453 -1.07452e-20)
(0.418955 0.62709 8.12558e-22)
(0.428899 0.638249 1.48912e-20)
(0.44929 0.623465 -7.12382e-21)
(0.484041 0.57516 2.35617e-21)
(0.531871 0.492587 3.11572e-21)
(0.588153 0.3812 -1.94255e-20)
(0.647504 0.249307 4.25221e-21)
(0.705641 0.105246 3.54947e-21)
(0.760023 -0.0429283 3.29533e-21)
(0.809149 -0.185661 7.73035e-21)
(0.851083 -0.311973 -1.15383e-21)
(0.883521 -0.412192 6.75353e-21)
(0.905051 -0.481713 -2.97249e-21)
(0.915909 -0.522112 2.97109e-21)
(0.917709 -0.539262 -6.80493e-21)
(0.912673 -0.540382 7.12115e-21)
(0.902911 -0.531891 -3.84897e-21)
(0.889952 -0.518635 4.2323e-21)
(0.87463 -0.503818 8.39018e-22)
(0.857467 -0.48898 2.51139e-21)
(0.838926 -0.474504 -3.046e-21)
(0.81892 -0.461128 -1.25696e-22)
(0.796189 -0.451038 5.11531e-22)
(0.768919 -0.446432 1.1499e-21)
(0.736598 -0.446089 2.43508e-21)
(0.701427 -0.443344 2.42605e-22)
(0.667868 -0.427992 -3.10467e-21)
(0.6406 -0.391119 2.14115e-21)
(0.622624 -0.329225 2.04335e-21)
(0.614869 -0.244974 -2.04192e-21)
(0.616903 -0.14517 -6.94619e-23)
(0.627609 -0.0382584 1.73092e-23)
(0.645373 0.067476 1.90582e-21)
(0.668162 0.165054 1.6652e-22)
(0.693742 0.249523 -1.07131e-21)
(0.719918 0.318357 5.69819e-22)
(0.744774 0.371363 3.2225e-22)
(0.76685 0.410176 -8.91695e-23)
(0.785286 0.437378 9.16267e-22)
(0.799828 0.455656 2.23142e-22)
(0.810702 0.467324 -3.79167e-22)
(0.81809 0.47484 -2.10443e-22)
(0.821913 0.481128 4.09284e-22)
(0.821592 0.489691 -3.91595e-23)
(0.816907 0.50243 -6.09412e-23)
(0.807816 0.518541 3.78617e-22)
(0.795626 0.532613 1.0132e-22)
(0.78108 0.537494 2.99656e-23)
(0.766208 0.525132 5.44139e-22)
(0.750697 0.491556 -1.95008e-23)
(0.736499 0.434375 1.19418e-21)
(0.722247 0.357721 1.55148e-22)
(0.710478 0.262722 3.19321e-22)
(0.699628 0.159335 -1.10337e-22)
(0.692059 0.0495519 1.29204e-21)
(0.687274 -0.0591052 2.83363e-22)
(0.683763 -0.148318 1.59951e-22)
(0.684398 -0.261791 1.04997e-22)
(0.241607 -0.453282 -2.6802e-20)
(0.210569 -0.477371 3.34716e-20)
(0.168779 -0.487679 -1.65634e-20)
(0.119697 -0.484893 -1.2135e-21)
(0.0698811 -0.466639 1.01294e-20)
(0.0285238 -0.427943 9.98807e-21)
(0.00360785 -0.365707 -1.08397e-20)
(0.00135473 -0.278605 -9.17686e-21)
(0.0204334 -0.172474 1.8675e-20)
(0.0541355 -0.052615 -1.71252e-20)
(0.100088 0.0683023 1.56232e-21)
(0.153588 0.183972 1.43192e-20)
(0.208842 0.287161 -9.05439e-22)
(0.261748 0.374781 -9.3444e-21)
(0.308431 0.446503 -2.18675e-21)
(0.345886 0.50454 1.23218e-21)
(0.372952 0.552263 5.54698e-21)
(0.391591 0.591481 -1.41205e-20)
(0.407361 0.619517 1.45329e-20)
(0.427953 0.628755 -1.36721e-20)
(0.459842 0.610009 -6.68517e-21)
(0.50526 0.557633 1.36487e-20)
(0.561857 0.472373 -2.13665e-22)
(0.624614 0.36026 3.02017e-20)
(0.688182 0.229363 -2.27958e-20)
(0.748655 0.0872426 -1.85289e-20)
(0.804017 -0.0587457 4.28328e-20)
(0.852957 -0.199268 -2.50003e-20)
(0.893407 -0.323019 -5.15784e-21)
(0.922977 -0.42011 -1.68073e-20)
(0.94051 -0.486148 3.22534e-21)
(0.946796 -0.523189 -1.66742e-22)
(0.944032 -0.537511 -1.94679e-21)
(0.934831 -0.536492 4.41078e-21)
(0.921485 -0.526461 3.59193e-22)
(0.905574 -0.51203 -5.61206e-22)
(0.887891 -0.496225 1.83829e-21)
(0.868789 -0.480572 -2.53679e-21)
(0.848607 -0.465369 2.07848e-21)
(0.827385 -0.450913 -2.844e-21)
(0.804124 -0.43887 1.61877e-21)
(0.776966 -0.431603 -1.72548e-21)
(0.744847 -0.429062 6.13886e-22)
(0.70923 -0.426096 2.7529e-23)
(0.674205 -0.413292 4.53016e-22)
(0.644693 -0.381297 1.09348e-21)
(0.624268 -0.32538 -2.54943e-21)
(0.614302 -0.247038 -1.66083e-21)
(0.614509 -0.152381 4.30936e-21)
(0.623768 -0.0495483 -2.20701e-22)
(0.640461 0.0533546 -8.99083e-24)
(0.662565 0.1494 -2.53132e-21)
(0.687858 0.233577 -1.57055e-22)
(0.714134 0.303189 -1.17725e-21)
(0.739434 0.357778 1.14337e-21)
(0.762243 0.398666 2.89272e-24)
(0.781659 0.428108 -8.3773e-22)
(0.797386 0.448541 6.81711e-22)
(0.809583 0.462181 -5.88448e-22)
(0.818333 0.47158 7.26e-23)
(0.823497 0.479817 -1.21815e-23)
(0.824492 0.490465 -4.00804e-22)
(0.821199 0.505289 6.04952e-22)
(0.813632 0.523257 6.6202e-23)
(0.803143 0.538751 -5.37422e-23)
(0.79033 0.544579 -4.14879e-22)
(0.777146 0.532732 -1.64045e-22)
(0.763045 0.499397 7.58007e-24)
(0.750022 0.442065 -2.12838e-23)
(0.73647 0.365061 -2.7005e-24)
(0.72522 0.269162 -9.67056e-22)
(0.714243 0.16471 -1.48811e-22)
(0.70658 0.0533893 -1.41953e-22)
(0.700841 -0.0566699 4.62136e-23)
(0.696969 -0.147203 -3.32858e-22)
(0.695566 -0.261699 -5.02715e-23)
(0.361635 -0.437531 4.12357e-20)
(0.328179 -0.456789 -3.61222e-20)
(0.282454 -0.463006 2.64361e-20)
(0.226562 -0.458822 -2.28152e-20)
(0.165696 -0.443366 1.30685e-20)
(0.107916 -0.413154 1.20588e-20)
(0.0621234 -0.363254 -1.50254e-20)
(0.0374279 -0.289729 1.55847e-20)
(0.0365482 -0.195617 -1.06979e-20)
(0.0543938 -0.0867067 -4.64859e-21)
(0.08874 0.0295282 1.27031e-21)
(0.134637 0.143807 9.54794e-21)
(0.185241 0.248616 -9.23407e-21)
(0.235811 0.340275 9.1218e-21)
(0.281972 0.417622 -3.90539e-22)
(0.320736 0.481886 1.842e-21)
(0.351377 0.535204 -4.17107e-21)
(0.37632 0.577993 4.2222e-21)
(0.40108 0.606692 1.90685e-22)
(0.432429 0.613939 -4.57059e-21)
(0.475275 0.591919 1.54692e-20)
(0.530417 0.536671 -1.53037e-20)
(0.594722 0.450082 2.3716e-20)
(0.662944 0.33854 1.13104e-21)
(0.729894 0.209737 -2.3338e-20)
(0.792144 0.0703932 -1.60776e-20)
(0.848202 -0.0728541 2.12049e-20)
(0.89685 -0.210751 -1.95347e-20)
(0.935717 -0.331604 -2.02767e-20)
(0.962275 -0.42534 4.58596e-20)
(0.97568 -0.487866 -1.8427e-20)
(0.977335 -0.521739 -7.28217e-21)
(0.970042 -0.533577 -3.29078e-21)
(0.95679 -0.530812 2.06175e-20)
(0.940006 -0.519624 -1.01527e-20)
(0.921286 -0.504365 -2.86075e-22)
(0.901376 -0.487844 3.27607e-21)
(0.880492 -0.471559 1.53518e-21)
(0.85881 -0.455809 -2.49035e-21)
(0.836434 -0.440568 4.75062e-22)
(0.812646 -0.426947 -1.20799e-21)
(0.785681 -0.417229 1.55727e-21)
(0.754036 -0.412317 -8.26363e-22)
(0.718399 -0.40863 7.27916e-24)
(0.682309 -0.39785 1.41881e-21)
(0.650762 -0.370478 -2.54784e-21)
(0.62789 -0.320619 2.15268e-21)
(0.615609 -0.248445 -3.06929e-21)
(0.613864 -0.159215 3.59538e-21)
(0.621563 -0.0606564 -2.1138e-21)
(0.637075 0.039221 -1.22923e-21)
(0.658367 0.133579 -4.39004e-22)
(0.683231 0.217331 9.65864e-22)
(0.70946 0.287605 -2.64023e-22)
(0.735066 0.34368 4.89048e-22)
(0.758491 0.386561 7.48212e-22)
(0.778799 0.418174 -2.929e-22)
(0.795647 0.440712 -5.34958e-23)
(0.809121 0.4563 -1.14362e-22)
(0.8192 0.467583 -2.88408e-22)
(0.825695 0.477764 4.1445e-22)
(0.82803 0.490456 -2.30979e-22)
(0.826189 0.507292 -7.82098e-22)
(0.820228 0.527042 1.67037e-22)
(0.811538 0.54393 9.01174e-23)
(0.800556 0.550758 -6.35098e-22)
(0.789176 0.539549 1.01807e-22)
(0.776606 0.50664 -1.76215e-22)
(0.764907 0.449354 -1.63789e-21)
(0.752188 0.372204 9.2516e-22)
(0.741608 0.275595 -1.6522e-21)
(0.730595 0.170253 -7.18309e-22)
(0.722942 0.0575195 -1.59513e-22)
(0.716246 -0.053835 -5.3286e-22)
(0.712061 -0.145544 2.76589e-23)
(0.708549 -0.261029 -9.88216e-23)
(0.483219 -0.42096 -1.02635e-19)
(0.447953 -0.435779 -4.08256e-21)
(0.400435 -0.437543 5.02449e-20)
(0.341619 -0.429685 -5.85994e-21)
(0.27445 -0.413709 1.48134e-20)
(0.205207 -0.388602 -8.30383e-21)
(0.142604 -0.348966 1.1488e-21)
(0.096841 -0.289283 3.21491e-21)
(0.0739672 -0.209552 -7.29596e-22)
(0.0725612 -0.113075 -2.84764e-21)
(0.0918199 -0.00426267 3.24537e-21)
(0.12655 0.106028 1.27483e-22)
(0.169855 0.210796 -1.13926e-21)
(0.216298 0.305214 8.45969e-23)
(0.260972 0.38707 5.83704e-21)
(0.30084 0.456508 -3.09521e-21)
(0.335369 0.514351 -6.4176e-21)
(0.367049 0.559783 -1.30819e-21)
(0.400926 0.588672 1.27349e-20)
(0.44259 0.594151 -1.02675e-20)
(0.495445 0.569727 1.25642e-20)
(0.559129 0.512828 -2.29133e-20)
(0.629957 0.4262 -2.26188e-21)
(0.702581 0.316405 4.20652e-20)
(0.772078 0.190655 -2.79071e-20)
(0.835612 0.0547535 -3.46522e-21)
(0.89218 -0.0852733 4.62208e-21)
(0.940458 -0.220147 1.71158e-20)
(0.977641 -0.337746 -3.97992e-20)
(1.00105 -0.427897 2.54838e-21)
(1.01021 -0.486901 1.64673e-21)
(1.00723 -0.517829 1.88173e-20)
(0.995505 -0.527548 1.23176e-20)
(0.978372 -0.523442 -6.73706e-21)
(0.958344 -0.511475 3.60905e-21)
(0.936986 -0.495722 -8.62525e-21)
(0.914999 -0.478759 2.06457e-21)
(0.892485 -0.462027 -3.4771e-21)
(0.869456 -0.445882 3.36691e-21)
(0.846007 -0.430114 -2.72309e-22)
(0.821687 -0.415295 -1.16466e-21)
(0.794941 -0.403422 3.37123e-22)
(0.763975 -0.396074 -1.55589e-22)
(0.728719 -0.391195 4.94949e-22)
(0.692006 -0.381824 5.19005e-22)
(0.658704 -0.35867 -1.5692e-21)
(0.633427 -0.314828 1.55991e-21)
(0.61872 -0.249041 -1.56939e-22)
(0.614893 -0.165525 2.65924e-23)
(0.620896 -0.0714924 -1.02507e-21)
(0.635093 0.0251682 -5.29052e-22)
(0.655459 0.117681 1.11651e-21)
(0.679765 0.200864 6.39929e-22)
(0.705813 0.271672 -5.91838e-22)
(0.731597 0.329123 2.52459e-22)
(0.755532 0.373899 -9.89996e-23)
(0.776653 0.4076 -5.12847e-22)
(0.794562 0.432183 3.76833e-22)
(0.809264 0.449691 1.48151e-22)
(0.820637 0.462848 -4.95414e-23)
(0.828452 0.474954 8.47218e-23)
(0.832147 0.489636 3.5761e-22)
(0.83181 0.508398 -1.10368e-22)
(0.827525 0.529848 -6.49697e-22)
(0.820718 0.548097 7.75583e-22)
(0.811661 0.555974 4.22851e-23)
(0.802195 0.545519 1.33912e-21)
(0.79128 0.513212 -8.55013e-22)
(0.781061 0.456166 1.08276e-21)
(0.769316 0.379071 1.45557e-21)
(0.759568 0.281954 -4.60347e-22)
(0.748613 0.175911 4.38943e-22)
(0.741088 0.0619523 1.00904e-21)
(0.733455 -0.0506014 8.26934e-24)
(0.729013 -0.14334 7.36453e-22)
(0.723345 -0.259766 -8.83613e-23)
(0.602508 -0.403375 -1.02025e-20)
(0.565269 -0.414556 -7.50052e-20)
(0.516809 -0.412422 5.05047e-20)
(0.457702 -0.400553 1.607e-20)
(0.38901 -0.382066 -1.86701e-20)
(0.314295 -0.357955 -2.88257e-21)
(0.240445 -0.325065 -1.87756e-21)
(0.177349 -0.277569 4.60438e-21)
(0.133726 -0.212444 -6.73734e-22)
(0.111914 -0.129342 4.86751e-22)
(0.112933 -0.0312585 -2.29785e-22)
(0.133059 0.0725144 -3.08468e-23)
(0.166283 0.175027 -3.19496e-22)
(0.206431 0.270331 5.38608e-22)
(0.248304 0.355184 2.62214e-22)
(0.288681 0.428486 -1.59155e-21)
(0.326902 0.489709 3.9314e-21)
(0.365138 0.536977 -3.6647e-21)
(0.407617 0.565821 -7.47358e-21)
(0.458618 0.569964 1.44542e-20)
(0.520182 0.544088 -4.24481e-21)
(0.591032 0.486722 1.97945e-20)
(0.667102 0.40123 -3.46816e-20)
(0.743043 0.294208 2.8386e-20)
(0.814305 0.172288 1.74912e-20)
(0.878708 0.0403694 -2.99045e-20)
(0.93564 -0.0960659 1.58001e-20)
(0.983475 -0.227533 -5.34091e-21)
(1.01884 -0.341495 -3.1847e-20)
(1.03892 -0.427823 4.549e-21)
(1.04377 -0.483323 2.11573e-20)
(1.03619 -0.511554 -3.39075e-21)
(1.0202 -0.519539 5.56787e-22)
(0.99941 -0.5145 -2.08925e-21)
(0.976371 -0.502119 1.57356e-20)
(0.952578 -0.486191 -8.01093e-21)
(0.928673 -0.469052 6.61253e-22)
(0.904681 -0.45206 3.17006e-21)
(0.880461 -0.435655 -1.78354e-21)
(0.85604 -0.419566 9.57871e-22)
(0.831184 -0.403912 -1.25527e-21)
(0.804634 -0.390245 2.06615e-22)
(0.774478 -0.380518 -2.20474e-22)
(0.739958 -0.374047 2.10004e-22)
(0.703086 -0.365419 1.52011e-22)
(0.668383 -0.345929 1.10874e-22)
(0.64081 -0.307917 -6.4649e-22)
(0.623582 -0.248666 1.23436e-22)
(0.617502 -0.171142 -5.2381e-22)
(0.621659 -0.0819289 3.56777e-22)
(0.634423 0.0113081 9.70058e-22)
(0.653741 0.101802 -7.73461e-22)
(0.677363 0.184255 6.90863e-22)
(0.703105 0.255457 -3.37916e-22)
(0.728952 0.314157 1.27308e-23)
(0.753302 0.360716 2.38121e-22)
(0.775161 0.396411 1.18204e-22)
(0.794073 0.422972 5.91633e-24)
(0.809955 0.442366 -9.36879e-23)
(0.822584 0.457379 -9.31628e-24)
(0.831705 0.471375 -5.98634e-24)
(0.836772 0.487981 -1.45823e-22)
(0.837982 0.508571 -1.58288e-22)
(0.83543 0.531635 1.07259e-21)
(0.830581 0.551206 1.60089e-22)
(0.823529 0.560173 -1.01153e-21)
(0.816086 0.550578 1.80613e-21)
(0.806948 0.519039 -1.32835e-21)
(0.798369 0.462419 -2.01847e-21)
(0.787742 0.385587 1.96385e-22)
(0.778995 0.288166 1.20064e-21)
(0.768215 0.181626 2.87123e-22)
(0.760942 0.0666497 6.30297e-22)
(0.752387 -0.0469898 -1.67593e-22)
(0.747764 -0.140601 -4.15315e-23)
(0.73992 -0.257905 2.14023e-22)
(0.716212 -0.384481 3.12634e-20)
(0.676666 -0.393043 -1.47689e-20)
(0.627365 -0.388118 3.15531e-20)
(0.569076 -0.372869 -1.23662e-20)
(0.501958 -0.351119 -2.52899e-20)
(0.427212 -0.325534 -3.30836e-21)
(0.348775 -0.295498 5.46578e-21)
(0.274495 -0.256366 1.47316e-21)
(0.213919 -0.2038 -2.65211e-21)
(0.17268 -0.134707 7.97232e-21)
(0.154444 -0.0496629 -3.20074e-21)
(0.157785 0.0452601 -9.07102e-22)
(0.178176 0.14284 -1.97141e-21)
(0.209705 0.236724 -2.19291e-21)
(0.247085 0.322685 9.6351e-22)
(0.286821 0.398278 -4.79445e-22)
(0.32788 0.461672 -1.44934e-21)
(0.371788 0.510063 6.35318e-21)
(0.421716 0.538779 3.17619e-21)
(0.480604 0.54212 8.57219e-23)
(0.549292 0.515739 -9.66227e-21)
(0.625788 0.458996 1.91852e-20)
(0.705759 0.375677 -3.6059e-20)
(0.783937 0.272282 3.13484e-20)
(0.856243 0.154777 -3.24963e-20)
(0.921175 0.0272131 3.30947e-20)
(0.978361 -0.105324 -2.69855e-20)
(1.02564 -0.232995 3.18612e-20)
(1.05898 -0.342919 -3.94953e-20)
(1.07555 -0.425192 1.67832e-20)
(1.07601 -0.477229 -2.06386e-20)
(1.06396 -0.503042 2.44247e-20)
(1.04393 -0.50969 -1.7153e-20)
(1.01975 -0.504121 7.04778e-21)
(0.993972 -0.491675 2.58144e-21)
(0.967971 -0.475864 5.25023e-22)
(0.94232 -0.458801 -4.8974e-21)
(0.916996 -0.441737 7.60913e-22)
(0.891737 -0.425195 2.39364e-21)
(0.866463 -0.408948 -2.07214e-21)
(0.841081 -0.392781 5.03687e-22)
(0.814671 -0.377719 4.96952e-23)
(0.785376 -0.365786 -3.38232e-22)
(0.75188 -0.357434 7.32206e-22)
(0.715311 -0.348878 -3.11794e-22)
(0.679631 -0.332369 -2.07287e-22)
(0.649951 -0.299835 1.08423e-23)
(0.630149 -0.247165 2.17719e-22)
(0.621641 -0.1759 -1.9097e-22)
(0.623769 -0.0918031 -1.53743e-22)
(0.63495 -0.00220105 -2.18841e-22)
(0.653097 0.0860352 2.79344e-22)
(0.675918 0.167583 -1.05108e-22)
(0.701242 0.239023 5.95452e-23)
(0.727051 0.298832 8.12731e-23)
(0.75173 0.347048 -1.08747e-22)
(0.774261 0.384631 -1.39735e-22)
(0.794117 0.413099 2.69335e-22)
(0.811129 0.434338 6.91113e-23)
(0.824976 0.451181 -2.40694e-22)
(0.835386 0.467025 1.87276e-23)
(0.841832 0.485474 -7.18374e-23)
(0.844618 0.507789 2.70222e-22)
(0.843843 0.532373 6.34356e-23)
(0.84101 0.55322 -6.62467e-22)
(0.836035 0.563308 5.1928e-22)
(0.830716 0.554665 1.08773e-21)
(0.82347 0.524047 -1.66148e-21)
(0.816689 0.468035 -1.27407e-21)
(0.807326 0.391671 1.76163e-21)
(0.799752 0.294158 1.75229e-22)
(0.789265 0.187344 -1.20169e-21)
(0.782384 0.0715402 5.58209e-22)
(0.772951 -0.0430336 1.47369e-22)
(0.768231 -0.137343 -5.52187e-22)
(0.758219 -0.255446 8.77512e-23)
(0.77936 -0.370974 -2.55149e-20)
(0.729189 -0.36458 -1.10675e-21)
(0.671975 -0.347301 -6.7211e-21)
(0.607822 -0.322762 2.31862e-20)
(0.53662 -0.29452 -1.29037e-20)
(0.459535 -0.264251 3.69756e-21)
(0.381209 -0.229488 3.14848e-21)
(0.309857 -0.186222 -4.63467e-21)
(0.25289 -0.129716 -4.34395e-21)
(0.216572 -0.0580812 -1.1455e-20)
(0.202416 0.0257905 2.63978e-20)
(0.208153 0.115818 -1.6827e-20)
(0.228994 0.205779 6.8027e-21)
(0.259979 0.290651 -7.62752e-22)
(0.297437 0.366748 -1.5274e-21)
(0.339845 0.431026 1.74903e-21)
(0.387895 0.479859 -7.91792e-21)
(0.443575 0.508418 1.15988e-20)
(0.508525 0.511486 -5.46436e-21)
(0.582551 0.485458 -1.84594e-21)
(0.663082 0.430289 2.30786e-20)
(0.74559 0.350013 7.12676e-21)
(0.824952 0.250918 -3.68658e-20)
(0.89766 0.138237 1.93709e-20)
(0.962862 0.0151885 1.01487e-21)
(1.0202 -0.113139 -2.64978e-21)
(1.06674 -0.236606 1.12961e-21)
(1.09776 -0.342076 -3.86803e-21)
(1.11059 -0.420082 -7.60707e-22)
(1.10663 -0.46874 2.20262e-20)
(1.09028 -0.492446 -1.46125e-20)
(1.06651 -0.49816 -9.6917e-22)
(1.03927 -0.492452 -5.14904e-21)
(1.01104 -0.480268 2.32383e-21)
(0.98308 -0.464838 -5.87949e-21)
(0.955865 -0.448079 6.94579e-21)
(0.929351 -0.431132 -9.39282e-22)
(0.903197 -0.414571 -6.93707e-22)
(0.877197 -0.398287 -8.49144e-24)
(0.851321 -0.381875 -4.95043e-23)
(0.82498 -0.365826 -5.83789e-22)
(0.796523 -0.351965 3.11691e-22)
(0.764251 -0.341574 3.16054e-24)
(0.72842 -0.332467 -7.03375e-22)
(0.692239 -0.318164 2.62965e-22)
(0.66074 -0.290587 9.30484e-22)
(0.638371 -0.244405 1.42666e-22)
(0.627262 -0.17962 -3.0269e-22)
(0.627177 -0.100957 -2.74377e-22)
(0.636594 -0.0152756 1.62218e-22)
(0.653413 0.0704732 8.56969e-23)