/*--------------------------------*- C++ -*----------------------------------*\
  =========                 |
  \\      /  F ield         | OpenFOAM: The Open Source CFD Toolbox
   \\    /   O peration     | Website:  https://openfoam.org
    \\  /    A nd           | Version:  7
     \\/     M anipulation  |
\*---------------------------------------------------------------------------*/
FoamFile
{
    version     2.0;
    format      ascii;
    class       volVectorField;
    location    "25";
    object      U;
}
// * * * * * * * * * * * * * * * * * * * * * * * * * * * * * * * * * * * * * //

dimensions      [0 1 -1 0 0 0 0];

internalField   nonuniform List<vector> 
1360
(
(0.184906 -0.00847584 2.16456e-20)
(0.193015 -0.00847873 -2.12189e-20)
(0.20113 -0.00847048 -4.62772e-21)
(0.209241 -0.00845172 1.35257e-20)
(0.217337 -0.00842313 1.21785e-20)
(0.225411 -0.00838543 -6.15763e-21)
(0.233453 -0.00833933 -2.54048e-21)
(0.241455 -0.00828554 -4.50753e-21)
(0.249411 -0.00822476 -1.87109e-21)
(0.257313 -0.00815766 4.35446e-21)
(0.265156 -0.00808487 -8.47013e-21)
(0.272935 -0.00800703 3.55471e-21)
(0.280644 -0.00792469 7.86163e-21)
(0.288279 -0.0078384 -2.02677e-20)
(0.295837 -0.00774867 2.35149e-20)
(0.303314 -0.00765598 -1.08058e-20)
(0.310708 -0.00756074 -6.06481e-21)
(0.318016 -0.00746338 1.18175e-20)
(0.325235 -0.00736426 -1.76739e-20)
(0.332365 -0.00726371 1.63955e-20)
(0.339403 -0.00716207 4.16263e-21)
(0.346348 -0.0070596 -1.94197e-20)
(0.353201 -0.00695658 5.07235e-21)
(0.359959 -0.00685324 1.13035e-20)
(0.366623 -0.00674978 -2.06261e-21)
(0.373192 -0.00664642 -4.5234e-22)
(0.379667 -0.00654333 -1.0862e-20)
(0.386047 -0.00644065 4.58342e-21)
(0.392332 -0.00633854 -2.97577e-21)
(0.398524 -0.00623712 9.65929e-21)
(0.404622 -0.00613651 -9.90504e-21)
(0.410628 -0.00603681 8.01768e-22)
(0.416541 -0.00593809 6.27024e-21)
(0.422364 -0.00584045 -7.44854e-21)
(0.428096 -0.00574396 7.91388e-21)
(0.433739 -0.00564866 -1.911e-21)
(0.439293 -0.00555462 -8.56335e-23)
(0.44476 -0.00546187 -3.26215e-21)
(0.450141 -0.00537045 1.77201e-21)
(0.455437 -0.0052804 2.25211e-21)
(0.46065 -0.00519174 4.42142e-21)
(0.46578 -0.00510448 -4.73603e-21)
(0.470828 -0.00501865 8.8438e-22)
(0.475797 -0.00493426 2.41736e-21)
(0.480686 -0.00485131 -3.24045e-21)
(0.485498 -0.0047698 -5.26766e-22)
(0.490234 -0.00468974 1.06464e-21)
(0.494895 -0.00461113 1.27805e-21)
(0.499482 -0.00453395 -4.13568e-22)
(0.503997 -0.00445821 -2.24085e-21)
(0.21891 -0.0250049 -9.96637e-20)
(0.226625 -0.0250092 1.80842e-20)
(0.234338 -0.0249806 5.5253e-20)
(0.242041 -0.0249213 8.16326e-21)
(0.249725 -0.0248333 -7.0513e-20)
(0.257381 -0.0247187 2.77987e-20)
(0.265002 -0.0245797 -3.11067e-20)
(0.27258 -0.0244183 -1.36166e-20)
(0.28011 -0.0242366 -5.789e-20)
(0.287585 -0.0240366 6.73523e-20)
(0.295001 -0.0238201 1.09754e-20)
(0.302353 -0.0235891 -4.25617e-20)
(0.309636 -0.023345 2.12341e-20)
(0.316848 -0.0230896 -1.63644e-20)
(0.323984 -0.0228242 9.17378e-20)
(0.331043 -0.0225503 -1.00378e-19)
(0.338021 -0.0222692 7.16169e-20)
(0.344917 -0.0219819 3.43828e-21)
(0.351728 -0.0216896 -4.93201e-20)
(0.358454 -0.0213932 -1.36186e-20)
(0.365094 -0.0210938 2.46505e-20)
(0.371645 -0.020792 -1.95e-20)
(0.378108 -0.0204886 5.34411e-20)
(0.384482 -0.0201844 -1.71598e-20)
(0.390767 -0.01988 -1.52922e-20)
(0.396962 -0.0195759 -5.57849e-21)
(0.403069 -0.0192726 2.95721e-21)
(0.409086 -0.0189706 4.96689e-21)
(0.415015 -0.0186703 -4.75298e-21)
(0.420855 -0.0183721 -5.50993e-21)
(0.426607 -0.0180763 1.68388e-20)
(0.432273 -0.0177832 5.21006e-21)
(0.437852 -0.017493 -1.8398e-20)
(0.443345 -0.017206 3.51121e-21)
(0.448754 -0.0169223 -6.98154e-21)
(0.454079 -0.0166422 1.02143e-20)
(0.459321 -0.0163658 -3.73292e-21)
(0.464482 -0.0160932 4.19968e-21)
(0.469561 -0.0158246 4.59257e-21)
(0.474561 -0.0155599 3.53516e-21)
(0.479483 -0.0152994 -3.68482e-21)
(0.484327 -0.0150429 2.69583e-21)
(0.489095 -0.0147907 -1.34484e-20)
(0.493788 -0.0145427 6.20576e-21)
(0.498408 -0.0142989 3.30705e-21)
(0.502954 -0.0140594 -7.69127e-21)
(0.507429 -0.0138241 2.97622e-21)
(0.511834 -0.0135931 -3.44026e-21)
(0.516171 -0.0133663 1.002e-20)
(0.520439 -0.0131437 -8.3574e-21)
(0.284485 -0.0402632 -3.85636e-20)
(0.291404 -0.0402583 -5.86882e-20)
(0.29831 -0.0402011 2.26528e-19)
(0.305195 -0.0400951 -6.13101e-20)
(0.312054 -0.0399436 2.49177e-20)
(0.318878 -0.0397503 -1.09975e-19)
(0.325664 -0.0395186 1.05953e-19)
(0.332404 -0.0392519 -7.70706e-20)
(0.339095 -0.0389535 3.51962e-20)
(0.345731 -0.0386265 4.36072e-21)
(0.35231 -0.038274 -5.84674e-20)
(0.358828 -0.0378988 5.55642e-20)
(0.365282 -0.0375035 2.61087e-20)
(0.371669 -0.0370906 1.43254e-20)
(0.377988 -0.0366623 -5.93539e-20)
(0.384235 -0.0362209 2.50545e-20)
(0.390409 -0.0357683 1.4173e-20)
(0.396509 -0.0353063 -6.38858e-20)
(0.402534 -0.0348366 6.32586e-20)
(0.408483 -0.0343608 -1.99164e-20)
(0.414354 -0.0338803 2.00544e-20)
(0.420148 -0.0333963 -2.8825e-20)
(0.425864 -0.0329101 -9.33743e-21)
(0.431501 -0.0324226 5.47561e-20)
(0.43706 -0.031935 -2.26868e-20)
(0.442541 -0.031448 -2.62633e-20)
(0.447943 -0.0309625 -3.10203e-21)
(0.453268 -0.0304791 7.78858e-21)
(0.458515 -0.0299985 1.0243e-20)
(0.463684 -0.0295214 4.54588e-21)
(0.468777 -0.0290481 3.94955e-21)
(0.473795 -0.0285792 -4.18034e-20)
(0.478736 -0.028115 -2.41194e-21)
(0.483603 -0.027656 4.77565e-20)
(0.488397 -0.0272023 -1.92557e-20)
(0.493117 -0.0267544 1.85498e-21)
(0.497766 -0.0263123 -2.56952e-20)
(0.502343 -0.0258764 1.79678e-20)
(0.50685 -0.0254468 2.33643e-21)
(0.511287 -0.0250236 1.60932e-20)
(0.515656 -0.0246069 1.53309e-22)
(0.519958 -0.0241969 -4.44097e-21)
(0.524194 -0.0237935 -9.70877e-21)
(0.528364 -0.0233969 1.91994e-20)
(0.53247 -0.023007 -1.83063e-20)
(0.536513 -0.022624 7.20339e-21)
(0.540493 -0.0222477 -1.76162e-20)
(0.544413 -0.0218783 3.65231e-21)
(0.548272 -0.0215155 -4.5451e-21)
(0.552073 -0.0211595 2.25495e-20)
(0.555815 -0.0208102 -1.58654e-20)
(0.382673 -0.0533799 1.77416e-20)
(0.38836 -0.0532894 2.37425e-20)
(0.394021 -0.0531355 -2.75229e-19)
(0.39965 -0.0529228 1.85243e-19)
(0.405244 -0.0526561 -1.90005e-19)
(0.410798 -0.0523402 7.99601e-20)
(0.416311 -0.0519795 6.51611e-20)
(0.421779 -0.0515783 -1.01528e-19)
(0.427199 -0.0511407 7.91071e-20)
(0.432569 -0.0506705 -8.74682e-20)
(0.437887 -0.0501714 1.17163e-21)
(0.443152 -0.0496467 -8.04132e-21)
(0.448362 -0.0490997 -3.56155e-20)
(0.453515 -0.0485332 1.90655e-19)
(0.45861 -0.04795 -2.87527e-20)
(0.463647 -0.0473526 -1.59915e-19)
(0.468624 -0.0467434 1.07956e-19)
(0.473541 -0.0461244 -8.87986e-20)
(0.478397 -0.0454977 1.57652e-19)
(0.483192 -0.0448651 -1.27152e-19)
(0.487926 -0.0442281 6.44704e-20)
(0.492597 -0.0435884 3.08841e-20)
(0.497207 -0.0429472 -7.11882e-20)
(0.501755 -0.0423059 -2.39389e-20)
(0.506241 -0.0416655 7.34399e-20)
(0.510666 -0.0410271 9.83227e-21)
(0.515029 -0.0403916 -4.5681e-20)
(0.519331 -0.0397598 7.46674e-20)
(0.523572 -0.0391325 -1.32024e-19)
(0.527753 -0.0385102 5.56283e-20)
(0.531874 -0.0378937 -5.43504e-22)
(0.535936 -0.0372835 -5.24235e-21)
(0.539939 -0.0366799 -1.44414e-20)
(0.543884 -0.0360834 1.48016e-20)
(0.547771 -0.0354943 -1.80339e-20)
(0.551601 -0.034913 2.00632e-20)
(0.555375 -0.0343397 8.09721e-21)
(0.559094 -0.0337745 1.73601e-20)
(0.562757 -0.0332178 -2.16692e-20)
(0.566367 -0.0326697 8.69126e-21)
(0.569923 -0.0321302 -2.30775e-20)
(0.573427 -0.0315995 3.10224e-20)
(0.576879 -0.0310776 -1.09076e-20)
(0.580281 -0.0305646 3.28905e-22)
(0.583632 -0.0300604 1.63758e-20)
(0.586933 -0.0295652 -1.15304e-20)
(0.590186 -0.0290788 -6.11747e-21)
(0.593392 -0.0286013 -6.68509e-21)
(0.59655 -0.0281327 1.17718e-20)
(0.599662 -0.0276728 -3.98649e-21)
(0.493874 -0.0635731 5.0949e-20)
(0.497941 -0.0634618 1.17869e-19)
(0.501986 -0.0632764 -2.82572e-19)
(0.506009 -0.0630227 2.59789e-19)
(0.510007 -0.0627065 -9.50972e-20)
(0.513979 -0.0623331 7.21879e-20)
(0.517924 -0.0619078 9.2006e-21)
(0.521839 -0.0614356 3.25868e-20)
(0.525725 -0.0609211 -1.651e-19)
(0.529579 -0.0603688 -5.08241e-20)
(0.533401 -0.0597828 -3.46479e-20)
(0.53719 -0.0591671 1.48382e-19)
(0.540944 -0.0585251 -2.50879e-20)
(0.544663 -0.0578604 6.53813e-20)
(0.548347 -0.057176 1.09062e-20)
(0.551994 -0.0564748 5.17056e-21)
(0.555604 -0.0557596 -4.5631e-20)
(0.559176 -0.0550327 -2.56842e-20)
(0.56271 -0.0542965 3.88981e-20)
(0.566206 -0.0535531 -1.0511e-19)
(0.569662 -0.0528043 4.88678e-20)
(0.573079 -0.052052 1.27983e-20)
(0.576457 -0.0512977 -2.8097e-20)
(0.579795 -0.0505429 -2.56604e-20)
(0.583094 -0.0497889 1.963e-21)
(0.586352 -0.049037 -1.60903e-20)
(0.589571 -0.0482882 8.60018e-20)
(0.592749 -0.0475434 -5.19254e-21)
(0.595888 -0.0468036 -3.06234e-21)
(0.598987 -0.0460696 -6.986e-20)
(0.602047 -0.0453421 8.92771e-20)
(0.605067 -0.0446216 2.5586e-20)
(0.608048 -0.0439088 -3.72015e-20)
(0.61099 -0.0432042 -1.22274e-20)
(0.613893 -0.0425081 -3.6526e-20)
(0.616759 -0.0418209 -2.90229e-20)
(0.619586 -0.041143 5.54865e-20)
(0.622375 -0.0404746 -4.04548e-21)
(0.625128 -0.039816 1.74243e-20)
(0.627843 -0.0391673 1.8983e-20)
(0.630522 -0.0385287 -4.98754e-22)
(0.633166 -0.0379003 -3.25678e-20)
(0.635773 -0.0372823 4.34122e-21)
(0.638346 -0.0366745 -6.66331e-21)
(0.640884 -0.0360773 2.12329e-20)
(0.643387 -0.0354904 7.81294e-21)
(0.645858 -0.0349139 -1.53661e-21)
(0.648295 -0.0343479 -2.2633e-22)
(0.650699 -0.0337922 -1.13783e-20)
(0.653071 -0.0332468 -9.01585e-21)
(0.619108 -0.0699844 1.07413e-20)
(0.621211 -0.0698205 -6.94817e-20)
(0.623322 -0.0695809 2.31745e-19)
(0.625438 -0.0692718 -4.78643e-20)
(0.62756 -0.0688989 5.72046e-21)
(0.629686 -0.068468 -1.46661e-19)
(0.631816 -0.0679842 2.41223e-19)
(0.633947 -0.0674527 -5.06928e-20)
(0.63608 -0.0668781 -1.59902e-19)
(0.638212 -0.066265 -1.45548e-20)
(0.640343 -0.0656176 1.62807e-20)
(0.642471 -0.0649398 -9.21669e-21)
(0.644596 -0.0642352 1.76693e-19)
(0.646716 -0.0635074 -1.93332e-20)
(0.64883 -0.0627595 -1.73267e-19)
(0.650937 -0.0619944 1.13012e-19)
(0.653036 -0.061215 3.02892e-20)
(0.655127 -0.0604238 3.4085e-20)
(0.657208 -0.0596231 -6.08094e-20)
(0.659278 -0.0588151 3.35963e-20)
(0.661336 -0.0580017 -6.90742e-20)
(0.663382 -0.0571849 2.80907e-20)
(0.665415 -0.0563662 -1.83841e-20)
(0.667435 -0.0555472 -3.09548e-20)
(0.66944 -0.0547293 -3.67935e-20)
(0.671431 -0.0539137 8.31978e-20)
(0.673406 -0.0531015 6.56437e-22)
(0.675365 -0.0522939 8.24577e-21)
(0.677309 -0.0514917 -9.89785e-20)
(0.679235 -0.0506958 4.86893e-20)
(0.681145 -0.0499069 -2.41191e-20)
(0.683038 -0.0491257 8.11439e-20)
(0.684913 -0.0483528 -3.2058e-20)
(0.68677 -0.0475886 -4.27083e-20)
(0.68861 -0.0468337 7.88249e-20)
(0.690432 -0.0460884 -1.96779e-20)
(0.692236 -0.0453531 -6.6611e-21)
(0.694022 -0.0446281 -3.61321e-20)
(0.69579 -0.0439137 1.08883e-20)
(0.697539 -0.0432099 2.1062e-20)
(0.699271 -0.0425171 8.19448e-21)
(0.700984 -0.0418353 -3.58706e-22)
(0.70268 -0.0411646 3.83332e-20)
(0.704357 -0.0405051 -8.69012e-20)
(0.706017 -0.0398569 7.68604e-20)
(0.707658 -0.0392199 -2.7413e-20)
(0.709283 -0.0385943 -7.08061e-21)
(0.71089 -0.0379798 1.92349e-20)
(0.712479 -0.0373766 2.53789e-21)
(0.743103 -0.0725266 -4.29613e-19)
(0.743139 -0.0723798 -5.96464e-20)
(0.743234 -0.0721565 6.59296e-19)
(0.743384 -0.0718624 -6.10538e-19)
(0.743588 -0.0715033 3.9796e-20)
(0.743842 -0.0710845 3.09765e-19)
(0.744145 -0.0706113 1.19881e-19)
(0.744493 -0.0700886 -2.66907e-19)
(0.744883 -0.069521 1.76105e-19)
(0.745314 -0.0689131 1.68898e-19)
(0.745783 -0.068269 -1.524e-19)
(0.746287 -0.0675927 -1.63744e-19)
(0.746824 -0.0668878 1.06874e-19)
(0.747391 -0.066158 -2.11406e-19)
(0.747988 -0.0654064 8.84342e-20)
(0.748611 -0.0646361 1.02713e-19)
(0.749259 -0.0638499 -9.01041e-20)
(0.749929 -0.0630503 1.12905e-19)
(0.75062 -0.06224 -1.59575e-19)
(0.75133 -0.061421 3.85132e-20)
(0.752058 -0.0605955 5.58314e-21)
(0.752801 -0.0597654 2.28996e-20)
(0.753559 -0.0589324 5.56185e-20)
(0.75433 -0.0580981 -2.39209e-20)
(0.755112 -0.057264 -2.89537e-20)
(0.755905 -0.0564315 -5.87625e-20)
(0.756707 -0.0556017 -6.295e-21)
(0.757517 -0.0547758 1.21693e-19)
(0.758335 -0.0539548 -1.26213e-19)
(0.759158 -0.0531395 1.0027e-19)
(0.759987 -0.0523309 3.36875e-20)
(0.76082 -0.0515295 -2.47122e-20)
(0.761657 -0.0507361 8.48396e-21)
(0.762496 -0.0499513 -5.30735e-20)
(0.763338 -0.0491755 5.82306e-20)
(0.764181 -0.0484091 -6.63463e-20)
(0.765026 -0.0476527 6.35505e-20)
(0.76587 -0.0469065 -8.59357e-20)
(0.766715 -0.0461708 6.149e-20)
(0.76756 -0.0454459 -1.22505e-20)
(0.768403 -0.0447319 -1.6964e-20)
(0.769245 -0.044029 -9.72475e-21)
(0.770086 -0.0433374 6.1697e-20)
(0.770925 -0.0426571 -8.14455e-20)
(0.771762 -0.0419882 4.86943e-20)
(0.772596 -0.0413308 2.85902e-20)
(0.773428 -0.0406849 -2.59137e-21)
(0.774257 -0.0400505 -5.98634e-20)
(0.775083 -0.0394275 1.31668e-20)
(0.857334 -0.0717068 1.49219e-19)
(0.855473 -0.0717078 -1.19172e-19)
(0.85373 -0.0716214 -1.05502e-20)
(0.852098 -0.071454 2.3744e-19)
(0.850572 -0.0712119 -3.33139e-19)
(0.849147 -0.0709009 -3.38948e-19)
(0.847816 -0.0705268 9.57377e-20)
(0.846575 -0.0700951 4.16329e-19)
(0.845419 -0.0696109 -5.37963e-19)
(0.844343 -0.0690792 2.68434e-19)
(0.843344 -0.0685046 3.61982e-19)
(0.842417 -0.0678917 -4.11751e-19)
(0.841559 -0.0672444 2.27381e-19)
(0.840765 -0.0665667 -1.79614e-19)
(0.840032 -0.0658623 4.61308e-20)
(0.839357 -0.0651345 5.11656e-21)
(0.838737 -0.0643866 5.35774e-20)
(0.838169 -0.0636215 -9.21919e-20)
(0.837649 -0.0628419 9.46654e-20)
(0.837176 -0.0620503 -2.54751e-20)
(0.836746 -0.0612491 -1.2699e-19)
(0.836358 -0.0604406 3.72884e-20)
(0.836008 -0.0596265 1.132e-19)
(0.835695 -0.0588089 -1.07022e-19)
(0.835417 -0.0579894 4.56221e-20)
(0.835171 -0.0571694 -5.14804e-20)
(0.834956 -0.0563505 3.08707e-20)
(0.83477 -0.0555338 1.0236e-19)
(0.834612 -0.0547205 -1.32951e-19)
(0.834479 -0.0539118 2.1864e-21)
(0.834372 -0.0531084 8.39344e-20)
(0.834287 -0.0523113 -6.33232e-20)
(0.834224 -0.0515213 -5.29449e-21)
(0.834182 -0.050739 1.11881e-20)
(0.834159 -0.0499649 3.66537e-20)
(0.834154 -0.0491998 -4.24317e-20)
(0.834167 -0.0484439 1.91243e-21)
(0.834197 -0.0476978 -1.27898e-20)
(0.834242 -0.0469618 1.29816e-20)
(0.834302 -0.0462361 1.35902e-20)
(0.834376 -0.0455211 1.67559e-20)
(0.834463 -0.044817 -2.17169e-20)
(0.834562 -0.0441239 -2.95484e-21)
(0.834674 -0.043442 3.1046e-20)
(0.834797 -0.0427714 -9.66909e-21)
(0.83493 -0.0421121 2.9272e-20)
(0.835074 -0.0414643 4.71088e-21)
(0.835228 -0.0408279 -2.41798e-20)
(0.955942 -0.0649728 0)
(0.952799 -0.0652705 0)
(0.94981 -0.0654665 1.23195e-27)
(0.946965 -0.0655683 -2.48104e-27)
(0.944257 -0.065583 0)
(0.941678 -0.0655171 2.81927e-27)
(0.939221 -0.0653771 -2.81926e-27)
(0.936881 -0.0651689 0)
(0.934651 -0.0648983 0)
(0.932526 -0.0645708 0)
(0.930499 -0.0641913 5.44398e-28)
(0.928568 -0.0637648 -3.76628e-28)
(0.926725 -0.0632956 2.11914e-11)
(0.924968 -0.0627882 2.04789e-11)
(0.923291 -0.0622465 8.21473e-28)
(0.921691 -0.0616742 -1.65235e-27)
(0.920164 -0.0610748 0)
(0.918706 -0.0604515 -1.22712e-27)
(0.917314 -0.0598074 4.77717e-28)
(0.915985 -0.0591454 6.91775e-28)
(0.914715 -0.058468 -1.39126e-27)
(0.913502 -0.0577777 0)
(0.912342 -0.0570767 0)
(0.911233 -0.056367 0)
(0.910174 -0.0556507 0)
(0.90916 -0.0549294 0)
(0.908191 -0.0542048 0)
(0.907264 -0.0534783 1.09266e-27)
(0.906376 -0.0527514 -5.07061e-28)
(0.905527 -0.0520253 0)
(0.904715 -0.051301 0)
(0.903936 -0.0505797 0)
(0.903191 -0.0498622 0)
(0.902478 -0.0491493 0)
(0.901795 -0.048442 8.57044e-28)
(0.901141 -0.0477408 -3.97594e-28)
(0.900514 -0.0470463 3.83926e-28)
(0.899914 -0.0463591 -7.71652e-28)
(0.899339 -0.0456797 0)
(0.898788 -0.0450085 0)
(0.898261 -0.0443459 0)
(0.897755 -0.0436921 0)
(0.897272 -0.0430476 0)
(0.896808 -0.0424124 2.99602e-28)
(0.896365 -0.0417869 -6.01584e-28)
(0.895941 -0.0411712 0)
(0.895535 -0.0405654 0)
(0.895146 -0.0399697 0)
(1.04871 -0.0579848 0)
(1.04459 -0.058575 0)
(1.04064 -0.0590477 -1.23352e-27)
(1.03685 -0.0594114 2.48422e-27)
(1.03321 -0.0596745 0)
(1.0297 -0.0598447 0)
(1.02634 -0.0599291 0)
(1.0231 -0.0599346 0)
(1.01999 -0.0598675 0)
(1.017 -0.059734 0)
(1.01412 -0.0595397 -5.45116e-28)
(1.01134 -0.0592898 3.77127e-28)
(1.00867 -0.0589895 -2.12196e-11)
(1.0061 -0.0586432 -2.05062e-11)
(1.00362 -0.0582555 -8.22571e-28)
(1.00123 -0.0578303 1.65456e-27)
(0.998931 -0.0573716 0)
(0.996709 -0.056883 -2.60912e-27)
(0.994566 -0.0563677 3.35953e-27)
(0.992497 -0.0558288 -6.92714e-28)
(0.9905 -0.0552693 1.39316e-27)
(0.98857 -0.0546918 0)
(0.986706 -0.0540988 0)
(0.984905 -0.0534926 0)
(0.983163 -0.0528754 0)
(0.981478 -0.0522492 0)
(0.979847 -0.0516156 0)
(0.978269 -0.0509765 -1.09417e-27)
(0.976741 -0.0503333 5.07762e-28)
(0.975261 -0.0496876 0)
(0.973827 -0.0490404 0)
(0.972436 -0.0483932 0)
(0.971088 -0.0477469 0)
(0.969781 -0.0471025 0)
(0.968512 -0.046461 -8.58233e-28)
(0.967281 -0.0458231 3.98145e-28)
(0.966086 -0.0451895 -3.84458e-28)
(0.964925 -0.044561 7.72722e-28)
(0.963797 -0.0439382 0)
(0.962701 -0.0433215 0)
(0.961636 -0.0427115 0)
(0.9606 -0.0421085 0)
(0.959593 -0.041513 0)
(0.958614 -0.0409252 -3.00015e-28)
(0.957661 -0.0403456 6.02412e-28)
(0.956734 -0.0397742 0)
(0.955832 -0.0392113 0)
(0.954953 -0.0386572 0)
(1.12177 -0.0489572 -6.87935e-29)
(1.11732 -0.0498799 0)
(1.11301 -0.0506711 0)
(1.10883 -0.0513403 0)
(1.10479 -0.051896 0)
(1.10088 -0.0523465 5.94249e-29)
(1.09709 -0.0526995 0)
(1.09342 -0.0529624 -6.53983e-28)
(1.08986 -0.0531419 0)
(1.08642 -0.0532445 0)
(1.08308 -0.0532764 0)
(1.07985 -0.0532431 0)
(1.07671 -0.0531502 0)
(1.07368 -0.0530026 -2.33111e-28)
(1.07073 -0.0528051 0)
(1.06788 -0.0525622 0)
(1.06511 -0.052278 -4.2303e-29)
(1.06242 -0.0519564 0)
(1.05981 -0.0516011 0)
(1.05728 -0.0512154 0)
(1.05483 -0.0508026 0)
(1.05244 -0.0503657 3.60708e-29)
(1.05012 -0.0499073 0)
(1.04787 -0.0494301 0)
(1.04568 -0.0489365 0)
(1.04355 -0.0484287 0)
(1.04148 -0.0479087 0)
(1.03947 -0.0473784 1.48977e-28)
(1.03751 -0.0468397 0)
(1.0356 -0.0462941 2.78357e-29)
(1.03374 -0.0457431 0)
(1.03193 -0.0451881 0)
(1.03016 -0.0446305 0)
(1.02845 -0.0440713 -2.44048e-29)
(1.02677 -0.0435116 0)
(1.02513 -0.0429524 2.28378e-29)
(1.02354 -0.0423947 -2.20887e-29)
(1.02198 -0.0418391 0)
(1.02046 -0.0412865 2.06554e-29)
(1.01898 -0.0407375 0)
(1.01753 -0.0401927 0)
(1.01612 -0.0396526 -1.86571e-29)
(1.01474 -0.0391179 0)
(1.01339 -0.0385888 0)
(1.01207 -0.0380659 0)
(1.01077 -0.0375493 0)
(1.00951 -0.0370395 0)
(1.00828 -0.0365367 1.51421e-29)
(1.1746 -0.0400361 6.87935e-29)
(1.17035 -0.0411982 0)
(1.16619 -0.0422253 0)
(1.16212 -0.0431261 0)
(1.15816 -0.0439089 0)
(1.15428 -0.0445815 -5.94249e-29)
(1.15051 -0.0451514 0)
(1.14682 -0.0456257 6.53983e-28)
(1.14322 -0.0460111 0)
(1.13972 -0.046314 0)
(1.1363 -0.0465403 0)
(1.13297 -0.0466959 0)
(1.12972 -0.0467861 0)
(1.12656 -0.046816 2.33111e-28)
(1.12347 -0.0467903 0)
(1.12046 -0.0467137 0)
(1.11753 -0.0465903 4.2303e-29)
(1.11467 -0.0464242 0)
(1.11188 -0.0462192 0)
(1.10916 -0.0459787 0)
(1.10651 -0.0457061 0)
(1.10392 -0.0454045 -3.60708e-29)
(1.1014 -0.0450768 0)
(1.09894 -0.0447257 0)
(1.09653 -0.0443537 0)
(1.09419 -0.0439633 0)
(1.0919 -0.0435565 0)
(1.08966 -0.0431355 -1.48977e-28)
(1.08748 -0.0427022 0)
(1.08534 -0.0422584 -2.78357e-29)
(1.08326 -0.0418056 0)
(1.08122 -0.0413453 0)
(1.07923 -0.0408791 0)
(1.07728 -0.0404082 2.44048e-29)
(1.07537 -0.0399338 0)
(1.07351 -0.039457 -2.28378e-29)
(1.07168 -0.0389788 2.20887e-29)
(1.0699 -0.0385001 0)
(1.06815 -0.0380218 -2.06554e-29)
(1.06644 -0.0375447 0)
(1.06476 -0.0370694 0)
(1.06312 -0.0365967 1.86571e-29)
(1.06151 -0.0361271 0)
(1.05994 -0.0356612 0)
(1.05839 -0.0351994 0)
(1.05687 -0.0347422 0)
(1.05539 -0.03429 0)
(1.05393 -0.033843 -1.51421e-29)
(1.20955 -0.0319782 0)
(1.2058 -0.0332801 0)
(1.20211 -0.034451 0)
(1.19847 -0.0354986 0)
(1.19488 -0.0364303 0)
(1.19135 -0.037253 2.81282e-27)
(1.18788 -0.0379736 -2.81282e-27)
(1.18448 -0.0385985 0)
(1.18113 -0.0391338 0)
(1.17785 -0.0395856 0)
(1.17463 -0.0399594 0)
(1.17147 -0.0402606 0)
(1.16837 -0.0404943 0)
(1.16533 -0.0406653 0)
(1.16236 -0.0407783 -8.14647e-28)
(1.15944 -0.0408376 1.64825e-27)
(1.15659 -0.0408473 0)
(1.15379 -0.0408113 0)
(1.15105 -0.0407334 0)
(1.14837 -0.040617 0)
(1.14574 -0.0404654 0)
(1.14316 -0.0402816 0)
(1.14064 -0.0400686 1.55559e-11)
(1.13817 -0.0398291 1.50999e-11)
(1.13575 -0.0395657 0)
(1.13338 -0.0392807 0)
(1.13106 -0.0389765 0)
(1.12879 -0.038655 0)
(1.12656 -0.0383184 0)
(1.12438 -0.0379683 0)
(1.12223 -0.0376065 0)
(1.12014 -0.0372347 0)
(1.11808 -0.0368541 0)
(1.11606 -0.0364664 0)
(1.11408 -0.0360726 0)
(1.11214 -0.0356741 0)
(1.11024 -0.0352718 0)
(1.10837 -0.0348668 0)
(1.10654 -0.03446 0)
(1.10474 -0.0340523 0)
(1.10297 -0.0336445 0)
(1.10124 -0.0332372 0)
(1.09954 -0.0328312 0)
(1.09786 -0.032427 0)
(1.09622 -0.0320252 0)
(1.0946 -0.0316262 0)
(1.09302 -0.0312307 0)
(1.09146 -0.0308389 0)
(1.23038 -0.0251547 0)
(1.22725 -0.0265131 0)
(1.22414 -0.0277487 0)
(1.22105 -0.0288679 0)
(1.21798 -0.0298771 0)
(1.21494 -0.0307825 2.59718e-27)
(1.21193 -0.03159 -2.59718e-27)
(1.20895 -0.0323053 0)
(1.206 -0.032934 0)
(1.2031 -0.0334814 0)
(1.20023 -0.0339524 0)
(1.1974 -0.0343521 0)
(1.1946 -0.0346852 0)
(1.19185 -0.0349559 0)
(1.18915 -0.0351687 8.14647e-28)
(1.18648 -0.0353275 -1.64825e-27)
(1.18385 -0.0354362 0)
(1.18127 -0.0354986 0)
(1.17873 -0.035518 0)
(1.17623 -0.0354978 0)
(1.17378 -0.0354411 0)
(1.17136 -0.0353509 0)
(1.16898 -0.0352299 -1.55559e-11)
(1.16665 -0.0350809 -1.50999e-11)
(1.16436 -0.0349062 0)
(1.1621 -0.0347083 0)
(1.15988 -0.0344893 0)
(1.15771 -0.0342513 0)
(1.15556 -0.0339963 0)
(1.15346 -0.033726 0)
(1.15139 -0.0334422 0)
(1.14936 -0.0331465 0)
(1.14736 -0.0328403 0)
(1.1454 -0.0325251 0)
(1.14347 -0.0322021 0)
(1.14157 -0.0318725 0)
(1.1397 -0.0315375 0)
(1.13786 -0.0311981 0)
(1.13606 -0.0308552 0)
(1.13428 -0.0305098 0)
(1.13253 -0.0301627 0)
(1.13081 -0.0298146 0)
(1.12912 -0.0294662 0)
(1.12746 -0.0291182 0)
(1.12582 -0.0287712 0)
(1.1242 -0.0284257 0)
(1.12262 -0.0280822 0)
(1.12105 -0.0277412 0)
(1.24102 -0.0196117 -2.65946e-11)
(1.23849 -0.0209676 -2.60697e-11)
(1.23595 -0.0222101 0)
(1.23341 -0.0233448 0)
(1.23088 -0.0243774 0)
(1.22834 -0.0253129 0)
(1.22582 -0.0261567 0)
(1.2233 -0.0269138 0)
(1.2208 -0.027589 0)
(1.21831 -0.0281871 0)
(1.21585 -0.0287125 0)
(1.2134 -0.0291697 0)
(1.21097 -0.0295628 0)
(1.20857 -0.0298959 0)
(1.2062 -0.0301728 8.90482e-28)
(1.20385 -0.0303972 -1.19825e-27)
(1.20152 -0.0305727 8.46162e-28)
(1.19923 -0.0307027 -1.13802e-27)
(1.19696 -0.0307904 0)
(1.19472 -0.0308388 0)
(1.19251 -0.0308508 0)
(1.19033 -0.0308293 0)
(1.18818 -0.0307768 0)
(1.18606 -0.0306959 0)
(1.18397 -0.0305889 0)
(1.18191 -0.030458 0)
(1.17988 -0.0303054 0)
(1.17787 -0.030133 0)
(1.1759 -0.0299426 0)
(1.17395 -0.0297361 0)
(1.17204 -0.0295151 0)
(1.17015 -0.0292812 0)
(1.16829 -0.0290357 0)
(1.16645 -0.0287801 0)
(1.16465 -0.0285156 0)
(1.16287 -0.0282434 4.98301e-28)
(1.16111 -0.0279647 -4.83625e-28)
(1.15938 -0.0276804 0)
(1.15768 -0.0273916 0)
(1.156 -0.0270991 0)
(1.15434 -0.0268038 0)
(1.15271 -0.0265063 0)
(1.1511 -0.0262076 0)
(1.14952 -0.0259081 0)
(1.14795 -0.0256085 0)
(1.14641 -0.0253095 0)
(1.14489 -0.0250114 0)
(1.14339 -0.0247148 0)
(1.24484 -0.0152118 2.65946e-11)
(1.24284 -0.0165268 2.60697e-11)
(1.24081 -0.0177383 0)
(1.23876 -0.0188511 0)
(1.23669 -0.0198699 0)
(1.23462 -0.0207993 2.31091e-27)
(1.23254 -0.0216439 -2.31091e-27)
(1.23045 -0.0224079 0)
(1.22836 -0.0230958 0)
(1.22628 -0.0237115 0)
(1.2242 -0.0242592 0)
(1.22212 -0.0247427 0)
(1.22006 -0.0251658 0)
(1.218 -0.0255321 0)
(1.21596 -0.0258451 -8.90482e-28)
(1.21393 -0.0261081 1.19825e-27)
(1.21192 -0.0263243 -8.46162e-28)
(1.20992 -0.0264968 1.13802e-27)
(1.20794 -0.0266286 0)
(1.20598 -0.0267225 0)
(1.20404 -0.0267811 0)
(1.20212 -0.026807 0)
(1.20021 -0.0268027 0)
(1.19833 -0.0267704 0)
(1.19647 -0.0267124 0)
(1.19463 -0.0266307 0)
(1.19282 -0.0265273 0)
(1.19102 -0.0264041 0)
(1.18924 -0.0262629 0)
(1.18749 -0.0261053 0)
(1.18576 -0.0259328 0)
(1.18405 -0.025747 0)
(1.18236 -0.0255492 0)
(1.1807 -0.0253408 0)
(1.17905 -0.025123 0)
(1.17743 -0.0248969 -4.98301e-28)
(1.17582 -0.0246636 4.83625e-28)
(1.17424 -0.0244242 0)
(1.17268 -0.0241794 0)
(1.17113 -0.0239303 0)
(1.16961 -0.0236777 0)
(1.16811 -0.0234222 0)
(1.16662 -0.0231647 0)
(1.16516 -0.0229057 0)
(1.16371 -0.0226459 0)
(1.16228 -0.0223859 0)
(1.16087 -0.0221261 0)
(1.15948 -0.021867 0)
(1.24445 -0.0117579 -2.48357e-11)
(1.24287 -0.0130079 -2.44472e-11)
(1.24126 -0.0141642 0)
(1.23961 -0.0152309 0)
(1.23794 -0.0162119 -9.64296e-28)
(1.23625 -0.0171112 1.63019e-27)
(1.23454 -0.0179327 -2.23886e-11)
(1.23282 -0.0186802 -2.19624e-11)
(1.23109 -0.0193575 2.1534e-11)
(1.22935 -0.0199682 2.11042e-11)
(1.2276 -0.0205158 4.96085e-28)
(1.22585 -0.0210037 0)
(1.2241 -0.0214354 0)
(1.22236 -0.021814 0)
(1.22061 -0.0221427 -7.87111e-28)
(1.21888 -0.0224245 0)
(1.21714 -0.0226622 0)
(1.21542 -0.0228586 0)
(1.21371 -0.0230165 0)
(1.212 -0.0231383 7.00866e-28)
(1.21031 -0.0232265 -1.6481e-11)
(1.20863 -0.0232835 -1.6083e-11)
(1.20697 -0.0233115 0)
(1.20531 -0.0233127 0)
(1.20368 -0.023289 6.19369e-28)
(1.20205 -0.0232424 0)
(1.20044 -0.0231746 0)
(1.19885 -0.0230876 -1.38093e-11)
(1.19728 -0.0229828 -2.69014e-11)
(1.19572 -0.0228619 -1.30981e-11)
(1.19417 -0.0227264 1.10187e-27)
(1.19265 -0.0225775 -5.15203e-28)
(1.19114 -0.0224167 0)
(1.18964 -0.0222452 4.87705e-28)
(1.18817 -0.0220641 0)
(1.18671 -0.0218744 -4.6122e-28)
(1.18526 -0.0216774 1.08009e-11)
(1.18384 -0.0214738 1.04969e-11)
(1.18243 -0.0212647 0)
(1.18103 -0.0210508 0)
(1.17965 -0.0208329 9.62039e-12)
(1.17829 -0.0206118 1.86796e-11)
(1.17695 -0.0203882 1.81297e-11)
(1.17561 -0.0201627 8.79546e-12)
(1.1743 -0.0199358 8.53157e-12)
(1.173 -0.0197082 1.65462e-11)
(1.17172 -0.0194803 8.01991e-12)
(1.17045 -0.0192527 0)
(1.24167 -0.00905442 2.48357e-11)
(1.24042 -0.0102242 2.44472e-11)
(1.23913 -0.0113098 0)
(1.23781 -0.0123146 0)
(1.23646 -0.013242 9.64296e-28)
(1.23507 -0.0140954 -9.46923e-28)
(1.23367 -0.0148781 2.23886e-11)
(1.23224 -0.0155933 2.19624e-11)
(1.2308 -0.0162445 -2.1534e-11)
(1.22934 -0.0168346 -2.11042e-11)
(1.22787 -0.0173668 -4.96085e-28)
(1.22639 -0.0178442 0)
(1.2249 -0.0182697 0)
(1.22341 -0.0186462 0)
(1.22191 -0.0189764 7.87111e-28)
(1.22042 -0.019263 0)
(1.21892 -0.0195086 0)
(1.21743 -0.0197157 0)
(1.21594 -0.0198868 0)
(1.21446 -0.0200241 -7.00866e-28)
(1.21298 -0.0201298 1.6481e-11)
(1.21151 -0.0202061 1.6083e-11)
(1.21005 -0.020255 0)
(1.2086 -0.0202785 0)
(1.20716 -0.0202784 -6.19369e-28)
(1.20572 -0.0202564 0)
(1.2043 -0.0202144 0)
(1.20289 -0.0201538 1.38093e-11)
(1.20149 -0.0200761 2.69014e-11)
(1.20011 -0.019983 1.30981e-11)
(1.19873 -0.0198756 -1.10187e-27)
(1.19737 -0.0197553 5.15203e-28)
(1.19603 -0.0196233 0)
(1.19469 -0.0194808 -4.87705e-28)
(1.19337 -0.0193288 0)
(1.19206 -0.0191684 4.6122e-28)
(1.19077 -0.0190006 -1.08009e-11)
(1.18949 -0.0188262 -1.04969e-11)
(1.18822 -0.0186461 0)
(1.18697 -0.018461 0)
(1.18573 -0.0182719 -9.62039e-12)
(1.1845 -0.0180793 -1.86796e-11)
(1.18329 -0.0178838 -1.81297e-11)
(1.18209 -0.0176862 -8.79546e-12)
(1.18091 -0.017487 -8.53157e-12)
(1.17973 -0.0172866 -1.65462e-11)
(1.17857 -0.0170857 -8.01991e-12)
(1.17742 -0.0168846 0)
(1.2377 -0.00693477 0)
(1.23671 -0.00801427 0)
(1.23568 -0.00901877 -9.4278e-28)
(1.23461 -0.00995109 0)
(1.2335 -0.0108141 9.1703e-28)
(1.23236 -0.0116106 -6.52453e-28)
(1.23119 -0.0123435 -2.37193e-28)
(1.23 -0.0130156 0)
(1.22878 -0.0136296 0)
(1.22754 -0.0141884 3.50198e-28)
(1.22629 -0.0146946 0)
(1.22503 -0.0151509 -3.37843e-28)
(1.22375 -0.0155598 0)
(1.22246 -0.0159238 1.63651e-27)
(1.22116 -0.0162455 -7.70905e-28)
(1.21986 -0.0165272 0)
(1.21856 -0.0167711 7.40327e-28)
(1.21726 -0.0169796 0)
(1.21595 -0.0171547 0)
(1.21465 -0.0172986 0)
(1.21334 -0.0174132 -1.41459e-27)
(1.21204 -0.0175004 0)
(1.21075 -0.0175621 1.35237e-27)
(1.20946 -0.0176001 0)
(1.20818 -0.017616 -6.20261e-28)
(1.2069 -0.0176114 0)
(1.20564 -0.0175879 0)
(1.20438 -0.0175469 1.20162e-27)
(1.20313 -0.0174898 -5.63242e-28)
(1.20189 -0.0174179 0)
(1.20066 -0.0173325 1.11526e-27)
(1.19944 -0.0172348 -5.22297e-28)
(1.19823 -0.0171259 0)
(1.19703 -0.0170069 4.95946e-28)
(1.19584 -0.0168788 0)
(1.19466 -0.0167425 0)
(1.1935 -0.0165989 0)
(1.19234 -0.0164488 0)
(1.1912 -0.0162932 -4.33545e-28)
(1.19007 -0.0161326 0)
(1.18895 -0.0159678 4.10001e-28)
(1.18785 -0.0157995 0)
(1.18675 -0.0156283 -8.06141e-28)
(1.18567 -0.0154547 0)
(1.18459 -0.0152793 0)
(1.18353 -0.0151026 3.54656e-28)
(1.18248 -0.0149251 -7.16455e-28)
(1.18144 -0.0147471 0)
(1.2333 -0.0052684 0)
(1.23251 -0.00625028 0)
(1.23168 -0.00716607 9.4278e-28)
(1.23081 -0.0080181 0)
(1.22989 -0.00880873 -9.1703e-28)
(1.22894 -0.00954033 0)
(1.22796 -0.0102153 8.89646e-28)
(1.22695 -0.010836 0)
(1.22591 -0.0114049 0)
(1.22485 -0.0119242 -3.50198e-28)
(1.22376 -0.0123964 0)
(1.22266 -0.0128236 3.37843e-28)
(1.22155 -0.0132081 0)
(1.22042 -0.0135522 -1.63651e-27)
(1.21928 -0.0138579 7.70905e-28)
(1.21813 -0.0141273 0)
(1.21698 -0.0143625 -7.40327e-28)
(1.21582 -0.0145653 0)
(1.21466 -0.0147378 0)
(1.2135 -0.0148818 0)
(1.21233 -0.014999 1.41459e-27)
(1.21117 -0.015091 0)
(1.21 -0.0151597 -1.35237e-27)
(1.20885 -0.0152064 0)
(1.20769 -0.0152328 6.20261e-28)
(1.20654 -0.0152403 0)
(1.20539 -0.0152303 0)
(1.20426 -0.015204 -1.20162e-27)
(1.20312 -0.0151627 5.63242e-28)
(1.202 -0.0151077 0)
(1.20088 -0.0150401 -1.11526e-27)
(1.19977 -0.0149608 5.22297e-28)
(1.19867 -0.0148711 0)
(1.19758 -0.0147718 -4.95946e-28)
(1.1965 -0.0146638 0)
(1.19543 -0.0145481 0)
(1.19437 -0.0144254 0)
(1.19332 -0.0142965 0)
(1.19228 -0.0141622 4.33545e-28)
(1.19125 -0.0140231 0)
(1.19023 -0.0138799 -4.10001e-28)
(1.18922 -0.0137332 0)
(1.18822 -0.0135836 8.06141e-28)
(1.18723 -0.0134315 0)
(1.18625 -0.0132775 0)
(1.18529 -0.0131221 -3.54656e-28)
(1.18433 -0.0129657 7.16455e-28)
(1.18338 -0.0128087 0)
(1.22892 -0.00395718 0)
(1.22829 -0.00483572 1.88399e-27)
(1.22762 -0.0056568 0)
(1.2269 -0.00642231 -1.84634e-27)
(1.22614 -0.00713418 0)
(1.22534 -0.00779436 -2.06663e-27)
(1.2245 -0.00840486 3.84763e-27)
(1.22363 -0.00896765 -2.03365e-11)
(1.22273 -0.00948474 -2.00526e-11)
(1.2218 -0.00995811 -3.39409e-28)
(1.22085 -0.0103897 -1.94609e-11)