/*--------------------------------*- C++ -*----------------------------------*\
  =========                 |
  \\      /  F ield         | OpenFOAM: The Open Source CFD Toolbox
   \\    /   O peration     | Website:  https://openfoam.org
    \\  /    A nd           | Version:  7
     \\/     M anipulation  |
\*---------------------------------------------------------------------------*/
FoamFile
{
    version     2.0;
    format      ascii;
    class       volScalarField;
    location    "5";
    object      p;
}
// * * * * * * * * * * * * * * * * * * * * * * * * * * * * * * * * * * * * * //

dimensions      [0 2 -2 0 0 0 0];

internalField   nonuniform List<scalar> 
14000
(
-0.327932
-0.341273
-0.355524
-0.377128
-0.403544
-0.431236
-0.455372
-0.47
-0.466137
-0.432461
-0.333709
-0.34597
-0.360102
-0.381885
-0.408842
-0.437594
-0.46328
-0.480035
-0.482323
-0.448413
-0.343661
-0.353821
-0.367446
-0.389113
-0.416402
-0.446179
-0.473961
-0.49234
-0.505073
-0.472188
-0.355314
-0.362509
-0.374833
-0.39544
-0.421933
-0.451231
-0.480933
-0.497338
-0.520844
-0.487797
-0.366333
-0.36999
-0.379928
-0.398081
-0.42225
-0.449269
-0.478144
-0.493811
-0.517638
-0.489673
-0.375225
-0.375199
-0.381841
-0.395955
-0.416399
-0.440036
-0.466168
-0.480396
-0.50033
-0.477469
-0.38155
-0.378187
-0.38074
-0.389922
-0.405852
-0.425805
-0.448918
-0.462352
-0.474794
-0.453383
-0.385746
-0.379738
-0.378096
-0.382301
-0.393796
-0.410689
-0.430258
-0.441315
-0.445099
-0.420698
-0.388901
-0.381005
-0.375763
-0.375778
-0.383609
-0.397427
-0.411574
-0.417574
-0.411814
-0.383509
-0.392489
-0.383215
-0.375365
-0.372233
-0.376708
-0.386272
-0.393072
-0.391771
-0.375806
-0.346038
-0.397964
-0.387447
-0.377822
-0.372075
-0.372725
-0.376142
-0.374829
-0.365648
-0.342223
-0.311067
-0.40633
-0.394353
-0.383035
-0.374609
-0.370316
-0.366097
-0.356852
-0.340538
-0.315099
-0.285568
-0.418114
-0.403978
-0.390381
-0.378748
-0.368109
-0.355741
-0.339285
-0.318175
-0.291643
-0.263302
-0.433443
-0.415532
-0.399562
-0.383376
-0.365103
-0.344838
-0.322498
-0.297833
-0.270988
-0.244541
-0.452124
-0.42828
-0.410182
-0.387305
-0.360625
-0.333309
-0.306211
-0.27917
-0.252343
-0.226552
-0.473616
-0.442234
-0.420551
-0.389206
-0.354251
-0.32091
-0.290156
-0.261407
-0.234535
-0.209449
-0.495339
-0.457717
-0.428443
-0.387893
-0.345579
-0.307362
-0.273794
-0.2439
-0.217147
-0.192352
-0.515072
-0.473629
-0.432602
-0.38267
-0.334228
-0.292243
-0.256654
-0.226068
-0.199492
-0.175242
-0.530815
-0.486975
-0.432348
-0.37325
-0.319819
-0.275126
-0.238224
-0.207386
-0.181258
-0.157825
-0.541311
-0.494636
-0.426524
-0.359348
-0.302019
-0.255576
-0.218068
-0.187447
-0.162031
-0.139867
-0.545657
-0.494229
-0.414128
-0.340572
-0.280513
-0.233232
-0.195821
-0.165944
-0.141592
-0.120719
-0.542802
-0.48442
-0.394554
-0.316524
-0.255003
-0.207832
-0.171274
-0.142724
-0.119826
-0.0999735
-0.531333
-0.46452
-0.367425
-0.286849
-0.225305
-0.179305
-0.144431
-0.117743
-0.0965837
-0.0779462
-0.509653
-0.434211
-0.332412
-0.251348
-0.191569
-0.14781
-0.115455
-0.0910617
-0.0714297
-0.0551383
-0.476401
-0.393541
-0.289256
-0.210243
-0.154222
-0.113569
-0.0842342
-0.0624648
-0.0448357
-0.0314649
-0.430848
-0.342809
-0.238194
-0.16458
-0.112906
-0.0766107
-0.050998
-0.0322389
-0.0172791
-0.00720035
-0.373
-0.281999
-0.180709
-0.114036
-0.068312
-0.037302
-0.0160994
-0.000946021
0.0105894
0.0168652
-0.303275
-0.210655
-0.118767
-0.0596434
-0.0210564
0.00387396
0.0200481
0.0308102
0.037878
0.0396611
-0.22208
-0.132656
-0.052406
-0.00246081
0.0281281
0.0463638
0.0569775
0.0625593
0.0641026
0.0609608
-0.131175
-0.0508137
0.0171644
0.0564899
0.0783803
0.0894701
0.0940964
0.0940172
0.0898839
0.0826913
-0.0339359
0.0334207
0.088241
0.116067
0.12875
0.132353
0.130639
0.124769
0.115779
0.109741
0.0662488
0.118269
0.159039
0.17498
0.178214
0.174145
0.165904
0.154461
0.141861
0.135283
0.16587
0.201548
0.227788
0.231866
0.225696
0.214025
0.199487
0.183074
0.167313
0.158004
0.261453
0.280959
0.292753
0.285351
0.270097
0.251104
0.230659
0.209821
0.191043
0.178384
0.349669
0.354254
0.352265
0.334122
0.310413
0.284665
0.258872
0.234034
0.212203
0.196088
0.427621
0.419263
0.404723
0.376915
0.345651
0.313926
0.283491
0.255181
0.230485
0.211072
0.493169
0.473779
0.448624
0.412611
0.37496
0.338213
0.303912
0.27269
0.245488
0.223156
0.544312
0.516097
0.482687
0.440256
0.397618
0.356971
0.319684
0.286194
0.256969
0.232238
0.579382
0.544994
0.505938
0.459105
0.413046
0.369732
0.330413
0.295373
0.264732
0.238281
0.597215
0.55965
0.517727
0.468658
0.420859
0.376191
0.335843
0.300016
0.268645
0.24129
0.597215
0.55965
0.517727
0.468658
0.420859
0.376191
0.335843
0.300016
0.268645
0.24129
0.579382
0.544994
0.505938
0.459105
0.413046
0.369732
0.330413
0.295373
0.264732
0.238281
0.544312
0.516097
0.482687
0.440256
0.397618
0.356971
0.319684
0.286194
0.256969
0.232238
0.493169
0.473779
0.448624
0.412611
0.37496
0.338213
0.303912
0.27269
0.245488
0.223156
0.427621
0.419263
0.404723
0.376915
0.345651
0.313926
0.283491
0.255181
0.230485
0.211072
0.349669
0.354254
0.352265
0.334122
0.310413
0.284665
0.258872
0.234034
0.212203
0.196088
0.261453
0.280959
0.292753
0.285351
0.270097
0.251104
0.230659
0.209821
0.191043
0.178384
0.16587
0.201548
0.227788
0.231866
0.225696
0.214025
0.199487
0.183074
0.167313
0.158004
0.0662488
0.118269
0.159039
0.17498
0.178214
0.174145
0.165904
0.154461
0.141861
0.135283
-0.0339359
0.0334207
0.088241
0.116067
0.12875
0.132353
0.130639
0.124769
0.115779
0.109741
-0.131175
-0.0508137
0.0171644
0.0564899
0.0783803
0.0894701
0.0940964
0.0940172
0.0898839
0.0826913
-0.22208
-0.132656
-0.052406
-0.00246081
0.0281281
0.0463638
0.0569775
0.0625593
0.0641026
0.0609608
-0.303275
-0.210655
-0.118767
-0.0596434
-0.0210564
0.00387396
0.0200481
0.0308102
0.037878
0.0396611
-0.373
-0.281999
-0.180709
-0.114036
-0.068312
-0.037302
-0.0160994
-0.000946023
0.0105894
0.0168652
-0.430848
-0.342809
-0.238194
-0.16458
-0.112906
-0.0766107
-0.050998
-0.0322389
-0.0172791
-0.00720036
-0.476401
-0.393541
-0.289256
-0.210243
-0.154222
-0.113569
-0.0842342
-0.0624648
-0.0448357
-0.0314649
-0.509653
-0.434211
-0.332412
-0.251348
-0.191569
-0.14781
-0.115455
-0.0910617
-0.0714297
-0.0551383
-0.531333
-0.46452
-0.367425
-0.286849
-0.225305
-0.179305
-0.144431
-0.117743
-0.0965837
-0.0779462
-0.542802
-0.48442
-0.394554
-0.316524
-0.255003
-0.207832
-0.171274
-0.142724
-0.119826
-0.0999735
-0.545657
-0.494229
-0.414128
-0.340572
-0.280513
-0.233232
-0.195821
-0.165944
-0.141592
-0.120719
-0.541311
-0.494636
-0.426524
-0.359348
-0.302019
-0.255576
-0.218068
-0.187447
-0.162031
-0.139867
-0.530815
-0.486975
-0.432348
-0.37325
-0.319819
-0.275126
-0.238224
-0.207386
-0.181258
-0.157825
-0.515072
-0.473629
-0.432602
-0.38267
-0.334228
-0.292243
-0.256654
-0.226068
-0.199492
-0.175242
-0.495339
-0.457717
-0.428443
-0.387893
-0.345579
-0.307362
-0.273794
-0.2439
-0.217147
-0.192352
-0.473616
-0.442234
-0.420551
-0.389206
-0.354251
-0.32091
-0.290156
-0.261407
-0.234535
-0.209449
-0.452124
-0.42828
-0.410182
-0.387305
-0.360625
-0.333309
-0.306211
-0.27917
-0.252343
-0.226552
-0.433443
-0.415532
-0.399562
-0.383376
-0.365103
-0.344838
-0.322498
-0.297833
-0.270988
-0.244541
-0.418114
-0.403978
-0.390381
-0.378748
-0.368109
-0.355741
-0.339285
-0.318175
-0.291643
-0.263302
-0.40633
-0.394353
-0.383035
-0.374609
-0.370316
-0.366097
-0.356852
-0.340538
-0.315099
-0.285568
-0.397964
-0.387447
-0.377822
-0.372075
-0.372725
-0.376142
-0.374829
-0.365648
-0.342223
-0.311067
-0.392489
-0.383215
-0.375365
-0.372233
-0.376708
-0.386272
-0.393072
-0.391771
-0.375806
-0.346038
-0.388901
-0.381005
-0.375763
-0.375778
-0.383609
-0.397427
-0.411574
-0.417574
-0.411814
-0.383509
-0.385746
-0.379738
-0.378096
-0.382301
-0.393796
-0.410689
-0.430258
-0.441315
-0.445099
-0.420698
-0.38155
-0.378187
-0.38074
-0.389922
-0.405852
-0.425805
-0.448918
-0.462352
-0.474794
-0.453383
-0.375225
-0.375199
-0.381841
-0.395955
-0.416399
-0.440036
-0.466168
-0.480396
-0.50033
-0.477469
-0.366333
-0.36999
-0.379928
-0.398081
-0.42225
-0.449269
-0.478144
-0.493811
-0.517638
-0.489673
-0.355314
-0.362509
-0.374833
-0.39544
-0.421933
-0.451231
-0.480933
-0.497338
-0.520844
-0.487797
-0.343661
-0.353821
-0.367446
-0.389113
-0.416402
-0.446179
-0.473961
-0.49234
-0.505073
-0.472188
-0.333709
-0.34597
-0.360102
-0.381885
-0.408842
-0.437594
-0.46328
-0.480035
-0.482323
-0.448413
-0.327932
-0.341273
-0.355524
-0.377128
-0.403544
-0.431236
-0.455372
-0.47
-0.466137
-0.432461
-0.394577
-0.364134
-0.330204
-0.293589
-0.255529
-0.217033
-0.179107
-0.142653
-0.108399
-0.0768262
-0.0483618
-0.0232358
-0.00153879
0.0168132
0.0319843
0.0442167
0.0538019
0.0610552
0.0662956
0.069831
0.0719475
0.0729025
0.0729221
0.0722058
0.0709244
0.06922
0.0672084
0.0649837
0.0626212
0.0601802
0.0577066
0.0552355
0.0527929
0.050398
0.0480644
0.0458013
0.0436147
0.0415081
0.0394831
0.03754
0.0356784
0.0338968
0.0321938
0.0305672
0.0290151
0.0275352
0.0261252
0.0247827
0.0235055
0.0222914
0.0211379
0.020043
0.0190043
0.0180198
0.0170873
0.0162045
0.0153694
0.0145798
0.0138333
0.0131278
0.0124612
0.0118312
0.0112357
0.0106728
0.0101404
0.00963667
0.00915992
0.00870845
0.00828076
0.00787543
0.00749115
0.00712707
0.00678259
0.00645353
0.00614124
0.00584375
0.00556066
0.00529117
0.00503446
0.00478982
0.00455659
0.00433417
0.00412197
0.00391946
0.00372612
0.00354145
0.00336499
0.00319626
0.00303484
0.00288032
0.00273231
0.00259044
0.00245435
0.00232373
0.00219825
0.00207762
0.00196156
0.0018498
0.00174207
0.00163813
0.00153775
0.00144069
0.00134673
0.00125567
0.0011673
0.00108144
0.00099787
0.00091644
0.000836944
0.000759252
0.000683131
0.000608533
0.000535108
0.000463028
0.000391588
0.000321571
0.000251219
0.000182981
0.000111855
4.43372e-05
-0.412998
-0.382815
-0.348889
-0.311835
-0.273191
-0.233872
-0.194982
-0.157546
-0.122092
-0.0892095
-0.0596644
-0.0335332
-0.0108855
0.00834088
0.0243113
0.0372689
0.0475081
0.0553497
0.0611193
0.0651322
0.067682
0.0690335
0.0694182
0.0690308
0.0680432
0.0666031
0.0648314
0.0628249
0.0606604
0.058399
0.0560884
0.0537653
0.0514573
0.0491849
0.0469629
0.0448016
0.0427078
0.040686
0.0387385
0.0368663
0.0350694
0.033347
0.031698
0.0301208
0.0286137
0.0271747
0.0258019
0.0244932
0.0232465
0.0220598
0.0209311
0.0198582
0.0188392
0.0178721
0.016955
0.0160858
0.0152627
0.0144835
0.0137462
0.0130489
0.0123894
0.0117657
0.0111758
0.0106178
0.0100898
0.00959002
0.00911675
0.0086684
0.00824347
0.00784058
0.00745843
0.00709568
0.00675101
0.00642377
0.00611473
0.00581958
0.00553802
0.00526996
0.00501461
0.00477117
0.00453898
0.0043175
0.00410617
0.00390448
0.00371194
0.00352804
0.00335231
0.00318429
0.00302353
0.00286964
0.00272222
0.0025809
0.00244534
0.00231522
0.00219021
0.00207003
0.0019544
0.00184305
0.00173572
0.00163217
0.00153215
0.00143545
0.00134184
0.00125112
0.00116308
0.00107753
0.000994268
0.000913137
0.000833934
0.000756527
0.000680684
0.000606358
0.0005332
0.000461382
0.0003902
0.000320434
0.000250331
0.000182335
0.000111459
4.41737e-05
-0.440757
-0.411145
-0.378305
-0.338689
-0.300316
-0.260439
-0.220675
-0.182018
-0.145303
-0.111185
-0.0801763
-0.05256
-0.0284524
-0.00782261
0.00947743
0.0236829
0.035086
0.0440085
0.0507792
0.0557175
0.0591217
0.0612623
0.0623771
0.0626681
0.0622983
0.061413
0.0601401
0.0585843
0.0568278
0.0549352
0.0529575
0.0509347
0.0488975
0.0468695
0.044868
0.0429059
0.0409923
0.0391337
0.0373341
0.0355962
0.0339213
0.0323099
0.0307618
0.0292764
0.0278528
0.0264898
0.025186
0.0239399
0.0227499
0.0216145
0.0205318
0.0195003
0.0185183
0.0175842
0.0166964
0.0158532
0.0150529
0.014294
0.0135746
0.012893
0.0122474
0.0116361
0.0110571
0.0105088
0.00998946
0.00949739
0.00903103
0.00858886
0.00816944
0.00777143
0.00739358
0.00703445
0.00669305
0.00637181
0.00606202
0.00577116
0.00549324
0.00522766
0.00497471
0.00473364
0.00450365
0.00428415
0.00407461
0.0038746
0.00368367
0.00350133
0.00332706
0.00316042
0.00300098
0.00284833
0.00270207
0.00256185
0.00242733
0.00229819
0.00217412
0.00205484
0.00194008
0.00182955
0.00172302
0.00162023
0.00152096
0.00142497
0.00133206
0.00124201
0.00115462
0.0010697
0.000987059
0.000906528
0.000827909
0.000751072
0.000675787
0.000602007
0.000529383
0.000458088
0.00038742
0.000318157
0.000248554
0.00018104
0.000110665
4.38458e-05
-0.458773
-0.433018
-0.401785
-0.366404
-0.328497
-0.289142
-0.249504
-0.210568
-0.173202
-0.138182
-0.106067
-0.0771976
-0.0517359
-0.0296923
-0.0109528
0.00469094
0.0175098
0.0278088
0.035904
0.0421052
0.046704
0.0499661
0.0521284
0.0533959
0.0539397
0.0538931
0.0533753
0.0524956
0.051346
0.0499996
0.0485134
0.0469325
0.0452922
0.0436202
0.0419381
0.0402626
0.0386063
0.0369789
0.0353874
0.033837
0.0323313
0.0308729
0.0294633
0.0281034
0.0267935
0.0255337
0.0243235
0.0231623
0.0220493
0.0209834
0.0199636
0.0189887
0.0180576
0.0171691
0.016322
0.0155151
0.0147472
0.0140169
0.0133229
0.0126639
0.0120383
0.0114447
0.0108816
0.0103474
0.00984061
0.00935981
0.00890357
0.0084705
0.0080593
0.0076687
0.00729752
0.00694469
0.00660871
0.00628799
0.00598553
0.00569417
0.00542461
0.00516524
0.00491626
0.0046782
0.00445082
0.00423384
0.00402676
0.00382922
0.00364087
0.00346104
0.00328911
0.00312465
0.00296723
0.00281647
0.00267198
0.00253341
0.00240043
0.00227274
0.00215006
0.00203212
0.00191862
0.00180933
0.00170398
0.00160234
0.00150418
0.00140927
0.00131739
0.00122835
0.00114193
0.00105796
0.000976238
0.000896603
0.00081886
0.000742879
0.00066843
0.000595469
0.000523647
0.000453138
0.000383243
0.000314735
0.000245883
0.000179092
0.00010947
4.33511e-05
-0.459597
-0.437225
-0.411852
-0.381603
-0.34742
-0.310898
-0.273536
-0.236279
-0.199911
-0.165261
-0.133032
-0.103679
-0.0774427
-0.0543945
-0.0344761
-0.0175277
-0.00332206
0.00840602
0.0179384
0.0255574
0.0315324
0.0361122
0.0395207
0.0419566
0.0435918
0.0445706
0.0450029
0.044982
0.0445996
0.0439372
0.0430626
0.0420297
0.0408808
0.0396491
0.0383614
0.0370389
0.0356989
0.0343548
0.0330174
0.0316951
0.0303945
0.0291208
0.0278778
0.0266683
0.0254945
0.0243578
0.0232593
0.0221992
0.0211779
0.0201951
0.0192505
0.0183437
0.0174741
0.016641
0.0158436
0.0150814
0.0143534
0.0136589
0.0129968
0.0123662
0.011766
0.011195
0.010652
0.0101359
0.00964531
0.00917907
0.00873593
0.0083147
0.00791422
0.00753338
0.00717111
0.00682636
0.00649818
0.00618553
0.00588736
0.00560562
0.00533362
0.0050759
0.00483604
0.00460563
0.0043824
0.00416836
0.0039638
0.00376897
0.00358381
0.00340722
0.00323834
0.00307674
0.002922
0.00277375
0.00263164
0.00249534
0.00236448
0.00223878
0.00211799
0.00200183
0.00189005
0.00178239
0.00167862
0.0015785
0.0014818
0.00138832
0.00129784
0.00121015
0.00112504
0.00104233
0.000961829
0.000883383
0.0008068
0.000731954
0.000658617
0.000586744
0.00051599
0.000446527
0.000377663
0.000310162
0.000242313
0.000176488
0.000107871
4.2686e-05
-0.443871
-0.424563
-0.406667
-0.382575
-0.352999
-0.320787
-0.287603
-0.254158
-0.220828
-0.18833
-0.157432
-0.128716
-0.102562
-0.0791671
-0.0585693
-0.0406799
-0.0253354
-0.012333
-0.00144619
0.00756226
0.014926
0.0208646
0.0255797
0.0292536
0.0320486
0.0341077
0.0355531
0.0364825
0.0369697
0.0370873
0.0369074
0.0364938
0.0358982
0.0351614
0.0343166
0.0333908
0.0324061
0.0313805
0.0303288
0.029263
0.028193
0.0271266
0.0260703
0.0250291
0.0240072
0.0230078
0.0220333
0.0210858
0.0201664
0.019276
0.0184154
0.0175846
0.016784
0.0160133
0.0152724
0.0145611
0.0138791
0.0132258
0.0126008
0.0120035
0.0114332
0.010889
0.0103701
0.00987558
0.00940448
0.00895581
0.00852855
0.00812171
0.00773431
0.00736539
0.00701402
0.00667932
0.00636043
0.00605659
0.00576703
0.00549067
0.00522512
0.0049734
0.00473092
0.00450644
0.00428799
0.00408105
0.00388186
0.00369214
0.0035137
0.00334196
0.00317671
0.00301841
0.00286679
0.0027214
0.00258187
0.00244801
0.00231955
0.00219622
0.00207774
0.00196381
0.00185418
0.00174859
0.00164682
0.00154862
0.00145377
0.00136205
0.00127328
0.00118725
0.0011038
0.00102269
0.000943741
0.000866799
0.00079168
0.000718261
0.000646318
0.00057581
0.000506395
0.000438244
0.000370671
0.000304431
0.000237839
0.000173223
0.000105868
4.18491e-05
-0.417944
-0.401288
-0.389805
-0.371446
-0.346962
-0.319901
-0.291606
-0.262458
-0.23312
-0.204337
-0.176416
-0.149746
-0.124776
-0.101884
-0.0812733
-0.0629669
-0.0468886
-0.032921
-0.020914
-0.0106903
-0.00206369
0.00514696
0.0111129
0.0159938
0.0199358
0.0230706
0.0255151
0.0273726
0.0287324
0.0296633
0.0302227
0.0304735
0.0304727
0.0302681
0.0298994
0.0293998
0.0287967
0.0281133
0.0273689
0.0265797
0.025759
0.0249177
0.0240648
0.0232074
0.0223516
0.0215024
0.0206638
0.0198393
0.0190314
0.0182421
0.0174731
0.0167255
0.0160003
0.0152981
0.0146193
0.0139642
0.0133331
0.0127258
0.0121424
0.0115825
0.0110459
0.0105322
0.0100408
0.00957099
0.00912224
0.00869377
0.00828482
0.00789461
0.00752234
0.00716724
0.00682851
0.00650541
0.0061972
0.00590312
0.00562246
0.00535451
0.0050987
0.00485552
0.00462234
0.00439493
0.0041819
0.00397524
0.00377759
0.0035826
0.00342095
0.00325867
0.00309943
0.00294621
0.00279937
0.00265871
0.0025233
0.00239288
0.00226715
0.00214638
0.00203045
0.001919
0.00181177
0.00170852
0.00160903
0.00151308
0.00142044
0.00133089
0.00124418
0.00116007
0.00107844
0.000999141
0.000921991
0.00084683
0.000773456
0.000701746
0.000631479
0.000562616
0.000494816
0.000428247
0.000362234
0.000297515
0.000232438
0.000169277
0.000103445
4.08304e-05
-0.38628
-0.37287
-0.366213
-0.352212
-0.332545
-0.310982
-0.288092
-0.263761
-0.238592
-0.213453
-0.188979
-0.16536
-0.142624
-0.12114
-0.101266
-0.0831531
-0.0668317
-0.0522918
-0.0394817
-0.0283002
-0.0186189
-0.0103031
-0.00321867
0.0027659
0.0077761
0.0119291
0.0153326
0.0180845
0.0202722
0.0219724
0.0232517
0.024167
0.0247714
0.0251141
0.0252383
0.0251815
0.0249755
0.0246472
0.0242201
0.0237149
0.0231497
0.022539
0.0218948
0.0212268
0.0205432
0.0198506
0.0191547
0.01846
0.0177703
0.0170889
0.0164181
0.0157601
0.0151165
0.0144887
0.0138776
0.0132841
0.0127089
0.0121525
0.0116152
0.0110972
0.0105985
0.0101191
0.0096588
0.00921729
0.00879417
0.00838899
0.00800122
0.0076303
0.00727564
0.00693662
0.00661262
0.00630303
0.00600724
0.00572462
0.0054546
0.00519657
0.00494994
0.0047141
0.00448816
0.00427224
0.00406945
0.00387782
0.00369647
0.00352844
0.00334193
0.00317147
0.00301258
0.00286106
0.00271634
0.00257912
0.00244686
0.00232232
0.00220146
0.00208484
0.00197273
0.00186484
0.00176092
0.00166077
0.0015642
0.001471
0.00138102
0.00129411
0.00121014
0.00112868
0.00104955
0.000972346
0.000897159
0.00082396
0.000752526
0.000682727
0.000614349
0.000547353
0.0004814
0.000416652
0.000352441
0.000289483
0.000226166
0.000164686
0.000100621
3.96415e-05
-0.354398
-0.345034
-0.340979
-0.329648
-0.314217
-0.297769
-0.279901
-0.260257
-0.23937
-0.217951
-0.196577
-0.175699
-0.15543
-0.135892
-0.117366
-0.100034
-0.0839907
-0.0693252
-0.0560978
-0.044297
-0.0338607
-0.0247068
-0.0167418
-0.00986479
-0.0039722
0.00103751
0.00526169
0.00879253
0.0117168
0.0141142
0.0160542
0.0175916
0.0187776
0.0196609
0.0202854
0.0206898
0.0209076
0.0209672
0.0208917
0.0207018
0.0204182
0.020059
0.0196397
0.0191731
0.0186704
0.0181406
0.0175915
0.0170295
0.0164601
0.0158877
0.0153161
0.0147484
0.0141871
0.0136344
0.013092
0.0125613
0.0120435
0.0115394
0.0110498
0.0105753
0.0101161
0.00967257
0.00924481
0.00883281
0.0084365
0.00805569
0.00769012
0.00733947
0.00700337
0.00668139
0.00637307
0.00607795
0.00579553
0.00552531
0.0052668
0.0050195
0.00478295
0.00455674
0.00434047
0.00413397
0.00393705
0.00374911
0.00356968
0.00339797
0.003231
0.00307214
0.00292071
0.00277592
0.002637
0.00250252
0.00237436
0.00224925
0.00213073
0.00201736
0.00190828
0.00180336
0.00170243
0.00160521
0.00151148
0.00142103
0.0013336
0.00124904
0.00116747
0.00108798
0.00101276
0.000938884
0.000866571
0.000796073
0.000727224
0.000659908
0.000593928
0.000529256
0.000465566
0.000403024
0.000340979
0.000280126
0.000218897
0.000159392
9.73527e-05
3.81983e-05
-0.329885
-0.32489
-0.320146
-0.309092
-0.296347
-0.283728
-0.2702
-0.255198
-0.2389
-0.221675
-0.203901
-0.185946
-0.168134
-0.150725
-0.133933
-0.117921
-0.102731
-0.0884266
-0.0751409
-0.0629508
-0.0518728
-0.0418941
-0.0329816
-0.0250843
-0.0181391
-0.0120754
-0.00681925
-0.0022959
0.00156739
0.00483981
0.00758618
0.00986582
0.011733
0.0132387
0.0144295
0.0153475
0.0160311
0.0165152
0.0168318
0.0170064
0.0170582
0.0170052
0.0168641
0.0166501
0.0163759
0.0160529
0.0156907
0.0152977
0.0148809
0.0144464
0.0139992
0.0135439
0.013084
0.012623
0.0121635
0.011708
0.0112585
0.0108167
0.0103841
0.00996172
0.00955038
0.00915069
0.00876305
0.00838771
0.0080248
0.00767434
0.00733631
0.00701061
0.00669711
0.00639564
0.00610597
0.00582785
0.00556099
0.00530507
0.00505977
0.00482472
0.00459957
0.00438395
0.00417755
0.00398012
0.00379143
0.00361113
0.00343861
0.00327319
0.00311384
0.0029607
0.00281395
0.00267331
0.00253835
0.00240881
0.00228528
0.00216722
0.00205418
0.00194548
0.00184087
0.00174022
0.00164331
0.00154993
0.00145989
0.00137303
0.00128921
0.00120819
0.00112947
0.00105361
0.000978054
0.00090556
0.000835517
0.000767314
0.000700772
0.0006358
0.000572173
0.000509846
0.000448497
0.00038828
0.000328565
0.000270007
0.00021111
0.000153842
9.41595e-05
3.70098e-05
-0.297824
-0.307964
-0.30229
-0.289373
-0.275734
-0.263046
-0.250672
-0.237664
-0.223612
-0.208632
-0.19308
-0.177323
-0.161636
-0.146205
-0.131178
-0.116706
-0.102922
-0.0899315
-0.0778093
-0.0666031
-0.056334
-0.0470002
-0.0385799
-0.0310363
-0.024322
-0.0183829
-0.0131608
-0.00859638
-0.00463072
-0.00120702
0.00172988
0.00423235
0.00634851
0.00812089
0.00958858
0.0107881
0.0117529
0.0125127
0.0130932
0.0135168
0.0138038
0.0139731
0.0140416
0.0140245
0.013935
0.0137848
0.0135842
0.0133422
0.0130665
0.0127638
0.0124398
0.0120994
0.0117466
0.0113849
0.0110172
0.0106461
0.0102739
0.00990245
0.0095336
0.00916897
0.00881
0.00845793
0.00811383
0.00777856
0.00745277
0.0071369
0.00683126
0.00653596
0.00625102
0.00597637
0.00571184
0.00545725
0.00521236
0.00497693
0.0047507
0.00453341
0.0043248
0.00412463
0.00393266
0.00374863
0.00357225
0.00340315
0.00324093
0.00308523
0.00293572
0.00279227
0.00265475
0.00252293
0.00239658
0.00227547
0.0021593
0.00204764
0.00194035
0.00183728
0.00173821
0.0016429
0.00155114
0.00146273
0.00137748
0.00129517
0.00121556
0.00113846
0.00106372
0.000991453
0.00092151
0.000853837
0.000788009
0.000723824
0.000661166
0.000599942
0.000539951
0.000481156
0.000423275
0.000366433
0.000310081
0.000254774
0.000199209
0.000145069
8.88174e-05
3.46926e-05
-0.24815
-0.260658
-0.259366
-0.249488
-0.237728
-0.226849
-0.216755
-0.206478
-0.195401
-0.183488
-0.171028
-0.158349
-0.145687
-0.133196
-0.120987
-0.109167
-0.0978281
-0.0870441
-0.0768686
-0.0673438
-0.0584979
-0.0503418
-0.0428711
-0.0360703
-0.0299158
-0.0243776
-0.0194213
-0.0150092
-0.0111013
-0.00765698
-0.00463611
-0.00200097
0.000283747
0.00225124
0.00393309
0.00535911
0.00655686
0.00755155
0.00836632
0.00902253
0.00953951
0.00993456
0.0102231
0.0104191
0.0105349
0.0105815
0.0105688
0.0105055
0.0103992
0.0102566
0.0100837
0.00988554
0.00966671
0.00943116
0.00918238
0.00892344
0.00865708
0.00838569
0.0081114
0.00783605
0.00756128
0.00728845
0.00701875
0.00675314
0.00649245
0.00623729
0.00598818
0.00574549
0.0055095
0.00528041
0.00505834
0.00484334
0.00463542
0.00443456
0.00424069
0.00405371
0.00387353
0.0037
0.00353297
0.00337226
0.00321768
0.00306905
0.00292614
0.00278876
0.00265668
0.0025297
0.00240762
0.00229028
0.00217745
0.00206892
0.00196453
0.00186416
0.00176767
0.00167486
0.00158552
0.00149944
0.00141645
0.00133637
0.00125904
0.00118431
0.00111206
0.00104217
0.000974535
0.000908993
0.000845297
0.000783306
0.000722935
0.000664085
0.000606615
0.000550433
0.000495368
0.000441385
0.000388228
0.000336009
0.000284228
0.000233392
0.000182322
0.000132553
8.0924e-05
3.13878e-05
-0.215786
-0.227501
-0.227779
-0.220595
-0.211336
-0.202529
-0.194332
-0.186044
-0.177125
-0.167486
-0.157322
-0.146892
-0.136394
-0.125957
-0.115669
-0.10561
-0.0958569
-0.0864803
-0.0775408
-0.0690858
-0.0611486
-0.0537483
-0.0468922
-0.0405778
-0.034795
-0.029527
-0.0247521
-0.0204445
-0.0165761
-0.0131174
-0.0100389
-0.0073112
-0.00490574
-0.00279473
-0.000951588
0.000648885
0.00203039
0.00321505
0.00422336
0.00507409
0.00578427
0.00636935
0.00684344
0.00721941
0.00750894
0.0077226
0.00786989
0.00795933
0.00799856
0.00799438
0.00795284
0.00787929
0.00777848
0.00765461
0.00751139
0.00735213
0.00717974
0.00699686
0.00680582
0.00660869
0.00640731
0.00620333
0.00599816
0.00579305
0.00558904
0.00538703
0.00518775
0.00499181
0.00479969
0.00461177
0.00442836
0.00424966
0.00407584
0.00390701
0.00374324
0.00358454
0.00343092
0.00328235
0.00313879
0.00300016
0.00286637
0.00273732
0.00261288
0.00249289
0.00237724
0.00226576
0.00215835
0.00205487
0.0019552
0.00185921
0.00176678
0.00167775
0.00159198
0.0015093
0.00142958
0.00135266
0.00127842
0.00120672
0.00113743
0.00107043
0.00100558
0.000942753
0.000881794
0.000822583
0.000765024
0.000709043
0.00065453
0.000601369
0.000549429
0.000498628
0.000448814
0.000399958
0.00035183
0.000304535
0.000257626
0.00021157
0.000165305
0.00012025
7.35193e-05
2.86783e-05
-0.189955
-0.199479
-0.20023
-0.194892
-0.187561
-0.180366
-0.173581
-0.166728
-0.159383
-0.151446
-0.143051
-0.134397
-0.125643
-0.116898
-0.108236
-0.099721
-0.0914178
-0.0833864
-0.0756788
-0.0683352
-0.0613848
-0.0548469
-0.0487323
-0.0430444
-0.0377801
-0.0329313
-0.0284853
-0.0244263
-0.0207357
-0.0173937
-0.014379
-0.01167
-0.009245
-0.00708263
-0.00516214
-0.00346351
-0.0019676
-0.000656289
0.00048738
0.00147922
0.00233392
0.00306514
0.0036855
0.00420662
0.00463916
0.00499282
0.00527644
0.00549803
0.00566486
0.00578345
0.00585969
0.00589885
0.00590567
0.0058844
0.00583885
0.00577245
0.00568826
0.00558907
0.00547737
0.00535539
0.00522513
0.0050884
0.00494675
0.00480159
0.00465412
0.00450538
0.00435628
0.00420757
0.0040599
0.00391381
0.00376974
0.00362807
0.0034891
0.00335306
0.00322017
0.00309055
0.00296433
0.00284159
0.00272236
0.00260668
0.00249453
0.00238589
0.00228071
0.00217895
0.00208054
0.00198543
0.00189353
0.00180477
0.00171905
0.00163629
0.00155638
0.00147922
0.00140471
0.00133275
0.00126324
0.00119607
0.00113113
0.00106832
0.00100752
0.000948629
0.000891539
0.000836153
0.000782382
0.000730143
0.00067934
0.000629875
0.000581645
0.00053456
0.000488515
0.000443445
0.000399219
0.000355818
0.00031304
0.000270988
0.000229265
0.000188296
0.000147133
0.000107041
6.54372e-05
2.55091e-05
-0.166979
-0.175417
-0.176652
-0.172693
-0.166914
-0.161137
-0.155651
-0.150098
-0.144138
-0.137678
-0.130811
-0.123688
-0.116437
-0.109147
-0.101878
-0.0946846
-0.0876186
-0.0807303
-0.0740643
-0.0676572
-0.0615379
-0.0557278
-0.0502416
-0.0450881
-0.0402708
-0.0357885
-0.0316361
-0.0278053
-0.024285
-0.0210622
-0.0181222
-0.0154496
-0.0130283
-0.0108421
-0.00887486
-0.00711059
-0.00553379
-0.00412955
-0.00288363
-0.0017825
-0.000813431
3.55412e-05
0.000775557
0.00141696
0.00196934
0.00244151
0.00284162
0.0031771
0.00345477
0.00368083
0.00386094
0.00400022
0.00410331
0.00417445
0.00421743
0.00423571
0.00423243
0.00421042
0.00417225
0.00412025
0.00405651
0.00398292
0.00390118
0.00381278
0.00371905
0.00362117
0.00352017
0.00341693
0.00331224
0.00320675
0.00310105
0.00299562
0.00289089
0.00278722
0.00268489
0.00258417
0.00248525
0.00238831
0.00229348
0.00220086
0.00211053
0.00202254
0.00193692
0.00185371
0.00177288
0.00169444
0.00161835
0.00154459
0.00147312
0.00140388
0.00133682
0.0012719
0.00120905
0.00114819
0.00108927
0.0010322
0.000976916
0.000923327
0.000871364
0.000820952
0.000772016
0.000724484
0.000678276
0.000633313
0.000589517
0.000546813
0.000505124
0.000464385
0.00042451
0.000385445
0.000347084
0.000309413
0.000272262
0.000235723
0.000199454
0.000163828
0.000128021
9.31397e-05
5.6936e-05
2.21997e-05
-0.147652
-0.155271
-0.156764
-0.153797
-0.149234
-0.144629
-0.140235
-0.135758
-0.130915
-0.125628
-0.119971
-0.114064
-0.108012
-0.101886
-0.0957394
-0.0896167
-0.0835629
-0.0776216
-0.0718326
-0.0662296
-0.06084
-0.0556852
-0.0507809
-0.0461381
-0.0417633
-0.0376592
-0.0338248
-0.0302563
-0.0269475
-0.02389
-0.0210742
-0.0184892
-0.0161234
-0.0139646
-0.0120005
-0.0102187
-0.00860691
-0.00715306
-0.0058455
-0.00467301
-0.0036249
-0.00269101
-0.00186176
-0.00112815
-0.000481744
8.53084e-05
0.000580314
0.00101004
0.00138072
0.00169812
0.00196752
0.00219376
0.00238129
0.00253416
0.00265608
0.00275043
0.00282031
0.00286856
0.00289774
0.0029102
0.00290809
0.00289334
0.00286769
0.00283273
0.00278986
0.00274033
0.00268526
0.00262564
0.00256234
0.00249611
0.00242764
0.00235752
0.00228625
0.00221428
0.00214201
0.00206977
0.00199785
0.0019265
0.00185593
0.00178631
0.0017178
0.00165051
0.00158454
0.00151996
0.00145684
0.00139521
0.00133511
0.00127654
0.00121953
0.00116406
0.00111012
0.0010577
0.00100676
0.000957269
0.000909197
0.0008625
0.000817133
0.000773052
0.000730206
0.000688546
0.000648016
0.000608563
0.00057013
0.000532664
0.000496111
0.000460417
0.000425524
0.000391381
0.000357921
0.000325105
0.000292846
0.000261139
0.000229844
0.000199042
0.000168448
0.000138382
0.000108149
7.86902e-05
4.81083e-05
1.87598e-05
-0.131752
-0.138318
-0.139817
-0.137593
-0.134001
-0.130339
-0.126824
-0.12321
-0.119264
-0.114921
-0.110243
-0.105329
-0.100265
-0.0951107
-0.0899081
-0.084696
-0.0795126
-0.0743951
-0.0693776
-0.06449
-0.0597569
-0.0551982
-0.0508297
-0.0466632
-0.0427072
-0.0389667
-0.0354439
-0.0321385
-0.0290479
-0.0261677
-0.0234922
-0.0210141
-0.0187255
-0.0166178
-0.0146818
-0.0129082
-0.0112874
-0.00980984
-0.00846626
-0.00724749
-0.00614466
-0.00514924
-0.00425309
-0.00344846
-0.002728
-0.00208483
-0.00151244
-0.00100478
-0.000556204
-0.000161443
0.000184373
0.000485754
0.000746867
0.000971558
0.00116337
0.00132556
0.00146113
0.00157285
0.00166324
0.00173463
0.00178916
0.00182876
0.00185521
0.00187009
0.00187487
0.00187086
0.00185921
0.00184098
0.00181712
0.00178845
0.00175572
0.00171961
0.00168068
0.00163948
0.00159646
0.00155202
0.00150653
0.0014603
0.00141361
0.0013667
0.00131977
0.001273
0.00122655
0.00118055
0.0011351
0.0010903
0.00104622
0.00100292
0.000960461