/*--------------------------------*- C++ -*----------------------------------*\
  =========                 |
  \\      /  F ield         | OpenFOAM: The Open Source CFD Toolbox
   \\    /   O peration     | Website:  https://openfoam.org
    \\  /    A nd           | Version:  7
     \\/     M anipulation  |
\*---------------------------------------------------------------------------*/
FoamFile
{
    version     2.0;
    format      ascii;
    class       surfaceScalarField;
    location    "5";
    object      phi;
}
// * * * * * * * * * * * * * * * * * * * * * * * * * * * * * * * * * * * * * //

dimensions      [0 3 -1 0 0 0 0];

internalField   nonuniform List<scalar> 
27710
(
-0.00027847
0.00027847
-1.7571e-11
-0.00077754
0.00049907
-4.2937e-11
-0.00140318
0.000625645
-5.99533e-11
-0.00212105
0.000717864
-7.29921e-11
-0.00290956
0.000788516
-8.76858e-11
-0.00373347
0.000823906
-9.71368e-11
-0.00453402
0.000800547
-9.88337e-11
-0.00523232
0.000698299
-9.17413e-11
-0.00574979
0.000517471
-7.09566e-11
1.16965e-05
-3.22451e-11
-0.00576148
-0.000233513
0.000511983
-0.000664426
0.000929982
-0.00120261
0.00116383
-0.00180407
0.00131933
-0.00243699
0.00142144
-0.00306068
0.00144759
-0.00361769
0.00135756
-0.00400511
0.00108572
-0.00420336
0.000715715
-0.000333671
-0.00385799
-0.000155212
0.000667195
-0.000464252
0.00123902
-0.000846529
0.00154611
-0.00124408
0.00171688
-0.00160925
0.00178661
-0.00189043
0.00172878
-0.00205079
0.00151792
-0.00196058
0.000995503
-0.00161082
0.000365961
-0.00120195
-0.000742549
-6.32829e-05
0.000730478
-0.00022179
0.00139753
-0.000411492
0.00173581
-0.000564168
0.00186955
-0.0006191
0.00184154
-0.000515725
0.0016254
-0.00018823
0.00119043
0.000334371
0.000472902
0.00127871
-0.000578381
-0.00262854
0.0027053
2.04365e-05
0.000710041
1.17518e-05
0.00140621
1.41702e-05
0.00173339
0.000101914
0.00178181
0.000338729
0.00160472
0.000777759
0.00118637
0.00149541
0.000472776
0.00248645
-0.000518139
0.00385781
-0.00194974
-0.00457641
0.00580568
7.79909e-05
0.00063205
0.000190385
0.00129382
0.000360834
0.00156294
0.000647465
0.00149518
0.00111324
0.00113895
0.00180504
0.000494567
0.00281365
-0.000535834
0.00419275
-0.00189724
0.00602577
-0.00378275
-0.0068091
0.00825846
0.000100505
0.000531545
0.000286327
0.001108
0.000570013
0.00127925
0.000998805
0.00106638
0.00163587
0.000501884
0.00255949
-0.000429051
0.00385182
-0.00182817
0.00563639
-0.0036818
0.00788983
-0.00603619
-0.00904166
0.0101224
9.02703e-05
0.000441275
0.000298931
0.000899337
0.00064422
0.000933966
0.00117895
0.00053165
0.00199351
-0.000312674
0.00321569
-0.00165123
0.0048837
-0.00349618
0.00704244
-0.00584054
0.00938043
-0.00837419
-0.0109515
0.0112903
5.99887e-05
0.000381286
0.000260258
0.000699068
0.000649257
0.000544967
0.0013215
-0.000140594
0.00240876
-0.00139993
0.00401153
-0.003254
0.00602567
-0.00551032
0.00823955
-0.00805442
0.0101868
-0.0103214
-0.0123725
0.0116078
2.85446e-05
0.000352742
0.000224836
0.000502776
0.00069808
7.17232e-05
0.00160428
-0.0010468
0.00305403
-0.00284968
0.00495718
-0.00515716
0.00701436
-0.0075675
0.00884604
-0.0098861
0.0101834
-0.0116588
-0.0134478
0.0112587
1.33095e-05
0.000339432
0.000245657
0.000270429
0.000888105
-0.000570725
0.00210873
-0.00226742
0.00384599
-0.00458694
0.00576417
-0.00707534
0.00751228
-0.00931561
0.00883254
-0.0112064
0.00975049
-0.0125767
-0.0139785
0.0102812
2.21195e-05
0.000317313
0.000350719
-5.81711e-05
0.00124069
-0.0014607
0.00273684
-0.00376357
0.00451831
-0.0063684
0.00616979
-0.00872681
0.00747941
-0.0106252
0.00839595
-0.0121229
0.00913499
-0.0133158
-0.0145335
0.00968994
5.51943e-05
0.000262119
0.000538335
-0.000541312
0.00168852
-0.00261089
0.00329073
-0.00536578
0.00487852
-0.00795619
0.00616394
-0.0100122
0.00710663
-0.0115679
0.0077957
-0.012812
0.00835177
-0.0138719
-0.0149675
0.00878576
0.000109073
0.000153046
0.000785631
-0.00121787
0.0021153
-0.00394056
0.00362819
-0.00687867
0.00491857
-0.00924657
0.00587392
-0.0109676
0.00656095
-0.012255
0.0070747
-0.0133257
0.00753131
-0.0143285
-0.0154032
0.00796701
0.000182605
-2.95594e-05
0.00104979
-0.00208506
0.00242097
-0.00531173
0.00372626
-0.00818396
0.00471992
-0.0102402
0.00541573
-0.0116634
0.00591454
-0.0127538
0.00631879
-0.01373
0.00669916
-0.0147089
-0.0157404
0.0070364
0.000273886
-0.000303445
0.00128397
-0.00309514
0.00256734
-0.00659511
0.00362718
-0.0092438
0.00436403
-0.0109771
0.00486002
-0.0121594
0.00522672
-0.0131205
0.00553842
-0.0140417
0.00583508
-0.0150055
-0.0160354
0.00613005
0.000374508
-0.000677954
0.00145006
-0.00417069
0.00256626
-0.00771131
0.00338509
-0.0100626
0.00391047
-0.0115025
0.00425537
-0.0125043
0.00451597
-0.0133811
0.00474732
-0.014273
0.00497388
-0.0152321
-0.0162478
0.0051863
0.000468208
-0.00114616
0.0015243
-0.00522678
0.0024453
-0.00863231
0.00304671
-0.010664
0.00340151
-0.0118573
0.00362619
-0.012729
0.00379818
-0.0135531
0.00395212
-0.014427
0.00409712
-0.0153771
-0.0163904
0.00423976
0.000540781
-0.00168694
0.00150385
-0.00618985
0.00223332
-0.00936178
0.00264841
-0.0110791
0.00286421
-0.0120731
0.00298912
-0.0128539
0.00307867
-0.0136426
0.00315412
-0.0145024
0.00322206
-0.015445
-0.0164499
0.00328157
0.000582691
-0.00226963
0.00141343
-0.00702059
0.00195856
-0.00990692
0.00221593
-0.0113365
0.00231613
-0.0121732
0.00235229
-0.01289
0.00236247
-0.0136528
0.0023583
-0.0144982
0.00234288
-0.0154296
-0.0164321
0.00232506
0.000588864
-0.0028585
0.00126986
-0.00770158
0.00164415
-0.0102812
0.00176651
-0.0114589
0.00176759
-0.0121743
0.00172171
-0.0128442
0.00165303
-0.0135841
0.00156696
-0.0144122
0.00146515
-0.0153278
-0.0163266
0.00135965
0.000559888
-0.00341839
0.00108755
-0.00822924
0.00130732
-0.010501
0.00131277
-0.0114643
0.0012258
-0.0120874
0.00110094
-0.0127193
0.000953103
-0.0134363
0.000785781
-0.0142449
0.000594854
-0.0151368
-0.0161168
0.000385106
0.000501889
-0.00392027
0.000879824
-0.00860718
0.000961417
-0.0105826
0.000864122
-0.011367
0.000695065
-0.0119183
0.000492593
-0.0125168
0.000263878
-0.0132076
1.0434e-05
-0.0139914
-0.000255814
-0.0148706
-0.0158068
-0.000565807
0.000423435
-0.00434371
0.00065784
-0.00884158
0.000615585
-0.0105403
0.000426347
-0.0111778
0.000176129
-0.0116681
-0.000101463
-0.0122392
-0.000402278
-0.0129067
-0.000729685
-0.013664
-0.00109574
-0.0145045
-0.0154178
-0.00148483
0.000332716
-0.00467643
0.000430799
-0.00893967
0.00027662
-0.0103861
-5.40135e-06
-0.0108957
-0.000318459
-0.011355
-0.000665575
-0.0118921
-0.00104437
-0.0125279
-0.00145574
-0.0132526
-0.00190399
-0.0140563
-0.0149427
-0.00237905
0.000236282
-0.00491271
0.000207529
-0.00891091
-5.31117e-05
-0.0101255
-0.000399157
-0.0105497
-0.000789734
-0.0109645
-0.00121001
-0.0114718
-0.00166363
-0.0120743
-0.00215458
-0.0127617
-0.00268028
-0.0135306
-0.0143847
-0.00323831
0.000139053
-0.00505176
4.01428e-06
-0.00877587
-0.000355584
-0.00976589
-0.000781455
-0.0101238
-0.00124031
-0.0105056
-0.00173059
-0.0109815
-0.00225567
-0.0115493
-0.0028203
-0.012197
-0.00342257
-0.0129283
-0.0137469
-0.00406035
4.67173e-05
-0.00509848
-0.000222266
-0.00850689
-0.000648258
-0.0093399
-0.00114292
-0.00962917
-0.00166767
-0.00998085
-0.00222483
-0.0104244
-0.00281832
-0.0109558
-0.00345173
-0.0115636
-0.00412599
-0.0122541
-0.013038
-0.00483488
-5.06808e-05
-0.0050478
-0.000419498
-0.00813807
-0.000923814
-0.00883559
-0.00148138
-0.0090716
-0.00206956
-0.00939267
-0.00269147
-0.00980248
-0.00335105
-0.0102962
-0.00404941
-0.0108653
-0.00478082
-0.0115227
-0.0122656
-0.0055532
-0.000152163
-0.00489563
-0.000602465
-0.00768777
-0.00117874
-0.00825931
-0.00179627
-0.00845408
-0.00244419
-0.00874474
-0.00312774
-0.00911894
-0.00385132
-0.00957261
-0.00461738
-0.0100992
-0.00542899
-0.010711
-0.0114804
-0.00621415
-0.000241154
-0.00465448
-0.000771438
-0.00715749
-0.00141174
-0.00761901
-0.00208575
-0.00778006
-0.00278974
-0.00804076
-0.00353031
-0.00837837
-0.00431233
-0.00879059
-0.00513822
-0.00927332
-0.00600893
-0.00984034
-0.010462
-0.00702733
-0.000320833
-0.00433365
-0.000925126
-0.00655319
-0.00162281
-0.00692133
-0.00234902
-0.00705385
-0.00310498
-0.0072848
-0.0038974
-0.00758594
-0.00472947
-0.00795852
-0.0056048
-0.00839799
-0.00654375
-0.00890139
-0.00942366
-0.00758214
-0.000391588
-0.00394206
-0.00106238
-0.00588241
-0.00181133
-0.00617237
-0.00258492
-0.00628026
-0.00338834
-0.00648138
-0.00422927
-0.00674502
-0.00511399
-0.0070738
-0.00605134
-0.00746063
-0.00705611
-0.00789662
-0.0083607
-0.00811907
-0.000453197
-0.00348886
-0.00118255
-0.00515305
-0.00197685
-0.00537807
-0.00279259
-0.00546452
-0.0036376
-0.00563637
-0.00451946
-0.00586316
-0.00544602
-0.00614724
-0.0064282
-0.00647845
-0.00747707
-0.00684775
-0.00725099
-0.00858678
-0.000504789
-0.00298407
-0.00128501
-0.00437283
-0.002119
-0.00454408
-0.00297192
-0.0046116
-0.00385418
-0.00475411
-0.00477405
-0.00494329
-0.00574033
-0.00518096
-0.00676237
-0.00545641
-0.00784702
-0.0057631
-0.00610363
-0.00899438
-0.000544465
-0.00243961
-0.00136935
-0.00354795
-0.00223743
-0.00367599
-0.00312154
-0.0037275
-0.00403449
-0.00384116
-0.00498518
-0.00399259
-0.00598317
-0.00418297
-0.00703715
-0.00440243
-0.00815336
-0.00464689
-0.00492184
-0.00933514
-0.000578568
-0.00186104
-0.00143706
-0.00268946
-0.00233252
-0.00278053
-0.00324208
-0.00281794
-0.00418025
-0.00290299
-0.00515628
-0.00301657
-0.00617985
-0.0031594
-0.00725886
-0.00332342
-0.00839958
-0.00350617
-0.0037134
-0.00960802
-0.000605281
-0.00125576
-0.00148821
-0.00180653
-0.00240391
-0.00186482
-0.00333257
-0.00188928
-0.00428966
-0.00194591
-0.00528463
-0.00202159
-0.00632729
-0.00211675
-0.00742497
-0.00222574
-0.00858393
-0.00234721
-0.00248555
-0.00981178
-0.00062334
-0.000632418
-0.00152253
-0.000907342
-0.00245161
-0.00093574
-0.00339306
-0.000947833
-0.00436284
-0.000976127
-0.00537048
-0.00101395
-0.00642572
-0.0010615
-0.00753558
-0.00111589
-0.00870633
-0.00117645
-0.00124555
-0.00994633
-0.000632418
-3.92761e-12
-0.00153976
-6.59676e-12
-0.0024755
-7.08796e-12
-0.00342333
-6.49609e-12
-0.00439946
-7.3254e-12
-0.00541341
-7.98717e-12
-0.00647491
-8.53566e-12
-0.0075908
-7.66356e-12
-0.00876725
-7.38904e-12
-7.43192e-12
-0.0100128
-0.000632418
0.000632418
-0.00153976
0.000907342
-0.0024755
0.00093574
-0.00342333
0.000947833
-0.00439946
0.000976127
-0.00541341
0.00101395
-0.00647491
0.0010615
-0.0075908
0.00111589
-0.00876725
0.00117645
0.00124555
-0.0100128
-0.00062334
0.00125576
-0.00152253
0.00180653
-0.00245161
0.00186482
-0.00339306
0.00188928
-0.00436284
0.00194591
-0.00537048
0.00202159
-0.00642572
0.00211675
-0.00753558
0.00222574
-0.00870633
0.00234721
0.00248555
-0.00994633
-0.000605281
0.00186104
-0.00148821
0.00268946
-0.00240391
0.00278053
-0.00333257
0.00281794
-0.00428966
0.00290299
-0.00528463
0.00301657
-0.00632729
0.0031594
-0.00742497
0.00332342
-0.00858393
0.00350617
0.0037134
-0.00981178
-0.000578568
0.00243961
-0.00143706
0.00354795
-0.00233252
0.00367599
-0.00324208
0.0037275
-0.00418025
0.00384116
-0.00515628
0.00399259
-0.00617985
0.00418297
-0.00725886
0.00440243
-0.00839958
0.00464689
0.00492184
-0.00960802
-0.000544465
0.00298407
-0.00136935
0.00437283
-0.00223743
0.00454408
-0.00312154
0.0046116
-0.00403449
0.00475411
-0.00498518
0.00494329
-0.00598317
0.00518096
-0.00703715
0.00545641
-0.00815336
0.0057631
0.00610363
-0.00933514
-0.000504789
0.00348886
-0.00128501
0.00515305
-0.002119
0.00537807
-0.00297192
0.00546452
-0.00385418
0.00563637
-0.00477405
0.00586316
-0.00574033
0.00614724
-0.00676237
0.00647845
-0.00784702
0.00684775
0.00725099
-0.00899438
-0.000453197
0.00394206
-0.00118255
0.00588241
-0.00197685
0.00617237
-0.00279259
0.00628026
-0.0036376
0.00648138
-0.00451946
0.00674502
-0.00544602
0.0070738
-0.0064282
0.00746063
-0.00747707
0.00789662
0.0083607
-0.00858678
-0.000391588
0.00433365
-0.00106238
0.00655319
-0.00181133
0.00692133
-0.00258492
0.00705385
-0.00338834
0.0072848
-0.00422927
0.00758594
-0.00511399
0.00795852
-0.00605134
0.00839799
-0.00705611
0.00890139
0.00942366
-0.00811907
-0.000320833
0.00465448
-0.000925126
0.00715749
-0.00162281
0.00761901
-0.00234902
0.00778006
-0.00310498
0.00804076
-0.0038974
0.00837837
-0.00472947
0.00879059
-0.0056048
0.00927332
-0.00654375
0.00984034
0.010462
-0.00758214
-0.000241154
0.00489563
-0.000771438
0.00768777
-0.00141174
0.00825931
-0.00208575
0.00845408
-0.00278974
0.00874474
-0.00353031
0.00911894
-0.00431233
0.00957261
-0.00513822
0.0100992
-0.00600893
0.010711
0.0114804
-0.00702733
-0.000152163
0.0050478
-0.000602465
0.00813807
-0.00117874
0.00883559
-0.00179627
0.0090716
-0.00244419
0.00939267
-0.00312774
0.00980248
-0.00385132
0.0102962
-0.00461738
0.0108653
-0.00542899
0.0115227
0.0122656
-0.00621415
-5.06808e-05
0.00509848
-0.000419498
0.00850689
-0.000923814
0.0093399
-0.00148138
0.00962917
-0.00206956
0.00998085
-0.00269147
0.0104244
-0.00335105
0.0109558
-0.00404941
0.0115636
-0.00478082
0.0122541
0.013038
-0.0055532
4.67173e-05
0.00505176
-0.000222266
0.00877587
-0.000648258
0.00976589
-0.00114292
0.0101238
-0.00166767
0.0105056
-0.00222483
0.0109815
-0.00281832
0.0115493
-0.00345173
0.012197
-0.00412599
0.0129283
0.0137469
-0.00483488
0.000139053
0.00491271
4.01428e-06
0.00891091
-0.000355584
0.0101255
-0.000781455
0.0105497
-0.00124031
0.0109645
-0.00173059
0.0114718
-0.00225567
0.0120743
-0.0028203
0.0127617
-0.00342257
0.0135306
0.0143847
-0.00406035
0.000236282
0.00467643
0.000207529
0.00893967
-5.31117e-05
0.0103861
-0.000399157
0.0108957
-0.000789734
0.011355
-0.00121001
0.0118921
-0.00166363
0.0125279
-0.00215458
0.0132526
-0.00268028
0.0140563
0.0149427
-0.00323831
0.000332716
0.00434371
0.000430799
0.00884158
0.00027662
0.0105403
-5.40135e-06
0.0111778
-0.000318459
0.0116681
-0.000665575
0.0122392
-0.00104437
0.0129067
-0.00145574
0.013664
-0.00190399
0.0145045
0.0154178
-0.00237905
0.000423435
0.00392027
0.00065784
0.00860718
0.000615585
0.0105826
0.000426347
0.011367
0.000176129
0.0119183
-0.000101463
0.0125168
-0.000402278
0.0132076
-0.000729685
0.0139914
-0.00109574
0.0148706
0.0158068
-0.00148483
0.000501889
0.00341839
0.000879824
0.00822924
0.000961417
0.010501
0.000864122
0.0114643
0.000695065
0.0120874
0.000492593
0.0127193
0.000263878
0.0134363
1.0434e-05
0.0142449
-0.000255814
0.0151368
0.0161168
-0.000565807
0.000559888
0.0028585
0.00108755
0.00770158
0.00130732
0.0102812
0.00131277
0.0114589
0.0012258
0.0121743
0.00110094
0.0128442
0.000953103
0.0135841
0.000785781
0.0144122
0.000594854
0.0153278
0.0163266
0.000385106
0.000588864
0.00226963
0.00126986
0.00702059
0.00164415
0.00990692
0.00176651
0.0113365
0.00176759
0.0121732
0.00172171
0.01289
0.00165303
0.0136528
0.00156696
0.0144982
0.00146515
0.0154296
0.0164321
0.00135965
0.000582691
0.00168694
0.00141343
0.00618985
0.00195856
0.00936178
0.00221593
0.0110791
0.00231613
0.0120731
0.00235229
0.0128539
0.00236247
0.0136426
0.0023583
0.0145024
0.00234288
0.015445
0.0164499
0.00232506
0.000540781
0.00114616
0.00150385
0.00522678
0.00223332
0.00863231
0.00264841
0.010664
0.00286421
0.0118573
0.00298912
0.012729
0.00307867
0.0135531
0.00315412
0.014427
0.00322206
0.0153771
0.0163904
0.00328157
0.000468208
0.000677954
0.0015243
0.00417069
0.0024453
0.00771131
0.00304671
0.0100626
0.00340151
0.0115025
0.00362619
0.0125043
0.00379818
0.0133811
0.00395212
0.014273
0.00409712
0.0152321
0.0162478
0.00423976
0.000374508
0.000303445
0.00145006
0.00309514
0.00256626
0.00659511
0.00338509
0.0092438
0.00391047
0.0109771
0.00425537
0.0121594
0.00451597
0.0131205
0.00474732
0.0140417
0.00497388
0.0150055
0.0160354
0.0051863
0.000273886
2.95594e-05
0.00128397
0.00208506
0.00256734
0.00531173
0.00362718
0.00818396
0.00436403
0.0102402
0.00486002
0.0116634
0.00522672
0.0127538
0.00553842
0.01373
0.00583508
0.0147089
0.0157404
0.00613005
0.000182605
-0.000153046
0.00104979
0.00121787
0.00242097
0.00394056
0.00372626
0.00687867
0.00471992
0.00924657
0.00541573
0.0109676
0.00591454
0.012255
0.00631879
0.0133257
0.00669916
0.0143285
0.0154032
0.0070364
0.000109073
-0.000262119
0.000785631
0.000541312
0.0021153
0.00261089
0.00362819
0.00536578
0.00491857
0.00795619
0.00587392
0.0100122
0.00656095
0.0115679
0.0070747
0.012812
0.00753131
0.0138719
0.0149675
0.00796701
5.51943e-05
-0.000317313
0.000538335
5.81711e-05
0.00168852
0.0014607
0.00329073
0.00376357
0.00487852
0.0063684
0.00616394
0.00872681
0.00710663
0.0106252
0.0077957
0.0121229
0.00835177
0.0133158
0.0145335
0.00878576
2.21195e-05
-0.000339432
0.000350719
-0.000270429
0.00124069
0.000570725
0.00273684
0.00226742
0.00451831
0.00458694
0.00616979
0.00707534
0.00747941
0.00931561
0.00839595
0.0112064
0.00913499
0.0125767
0.0139785
0.00968994
1.33095e-05
-0.000352742
0.000245657
-0.000502776
0.000888105
-7.17231e-05
0.00210873
0.0010468
0.00384599
0.00284968
0.00576417
0.00515716
0.00751228
0.0075675
0.00883254
0.0098861
0.00975049
0.0116588
0.0134478
0.0102812
2.85446e-05
-0.000381286
0.000224836
-0.000699068
0.00069808
-0.000544967
0.00160428
0.000140594
0.00305403
0.00139993
0.00495718
0.003254
0.00701436
0.00551032
0.00884604
0.00805442
0.0101834
0.0103214
0.0123725
0.0112587
5.99887e-05
-0.000441275
0.000260258
-0.000899337
0.000649257
-0.000933966
0.0013215
-0.00053165
0.00240876
0.000312674
0.00401153
0.00165123
0.00602567
0.00349618
0.00823955
0.00584054
0.0101868
0.00837419
0.0109515
0.0116078
9.02703e-05
-0.000531545
0.000298931
-0.001108
0.00064422
-0.00127925
0.00117895
-0.00106638
0.00199351
-0.000501884
0.00321569
0.000429051
0.0048837
0.00182817
0.00704244
0.0036818
0.00938043
0.00603619
0.00904166
0.0112903
0.000100505
-0.00063205
0.000286327
-0.00129382
0.000570013
-0.00156294
0.000998805
-0.00149518
0.00163587
-0.00113895
0.00255949
-0.000494567
0.00385182
0.000535834
0.00563639
0.00189724
0.00788983
0.00378275
0.0068091
0.0101224
7.79909e-05
-0.000710041
0.000190385
-0.00140621
0.000360834
-0.00173339
0.000647465
-0.00178181
0.00111324
-0.00160472
0.00180504
-0.00118637
0.00281365
-0.000472776
0.00419275
0.000518139
0.00602577
0.00194974
0.00457641
0.00825846
2.04365e-05
-0.000730478
1.17517e-05
-0.00139753
1.41702e-05
-0.00173581
0.000101914
-0.00186955
0.000338728
-0.00184154
0.000777759
-0.0016254
0.00149541
-0.00119043
0.00248645
-0.000472902
0.00385781
0.000578381
0.00262854
0.00580568
-6.32829e-05
-0.000667195
-0.00022179
-0.00123902
-0.000411492
-0.00154611
-0.000564168
-0.00171688
-0.0006191
-0.00178661
-0.000515725
-0.00172878
-0.00018823
-0.00151792
0.000334371
-0.000995503
0.00127871
-0.000365961
0.00120195
0.0027053
-0.000155212
-0.000511983
-0.000464252
-0.000929982
-0.000846529
-0.00116383
-0.00124408
-0.00131933
-0.00160925
-0.00142144
-0.00189043
-0.00144759
-0.00205079
-0.00135756
-0.00196058
-0.00108572
-0.00161082
-0.000715715
0.000333671
-0.00074255
-0.000233513
-0.00027847
-0.000664426
-0.00049907
-0.00120261
-0.000625645
-0.00180407
-0.000717864
-0.00243699
-0.000788516
-0.00306068
-0.000823906
-0.00361769
-0.000800547
-0.00400511
-0.000698299
-0.00420336
-0.000517471
-1.16965e-05
-0.00385799
-0.00027847
-0.00077754
-0.00140318
-0.00212105
-0.00290956
-0.00373347
-0.00453402
-0.00523232
-0.00574979
-0.00576148
-0.00546578
-0.000295705
9.7145e-13
-0.00509101
-0.000374771
1.24338e-11
-0.00465067
-0.000440342
2.33791e-11
-0.00415177
-0.000498898
3.29809e-11
-0.0036045
-0.000547265
4.22349e-11
-0.00301767
-0.000586831
5.00975e-11
-0.00240061
-0.000617063
5.65807e-11
-0.00176273
-0.000637885
6.13712e-11
-0.0011118
-0.000650923
6.4618e-11
-0.000457662
-0.000654141
6.64391e-11
0.0001921
-0.000649762
6.64703e-11
0.000831278
-0.000639178
6.52325e-11
0.00145438
-0.000623104
6.28145e-11
0.00205685
-0.000602472
5.94663e-11
0.00263518
-0.000578326
5.53801e-11
0.00318682
-0.000551645
5.08176e-11
0.00371015
-0.000523328
4.60384e-11
0.00420433
-0.000494174
4.10503e-11
0.0046692
-0.000464871
3.59142e-11
0.00510519
-0.000435995
3.08945e-11
0.00551318
-0.00040799
2.60807e-11
0.00589429
-0.000381107
2.1428e-11
0.00624976
-0.000355469
1.70521e-11
0.00658101
-0.000331254
1.31553e-11
0.00688958
-0.000308567
9.79478e-12
0.00717702
-0.000287439
6.73479e-12
0.00744487
-0.000267857
3.74435e-12
0.00769465
-0.000249772
1.10198e-12
0.00792776
-0.000233112
-1.36801e-12
0.00814555
-0.000217787
-2.93856e-12
0.00834924
-0.000203697
-4.30395e-12
0.00853998
-0.000190735
-5.63367e-12
0.00871877
-0.000178791
-6.61728e-12
0.00888653
-0.000167758
-7.34958e-12
0.00904406
-0.000157533
-7.9002e-12
0.00919208
-0.000148017
-8.19098e-12
0.0093312
-0.000139119
-8.22504e-12
0.00946195
-0.000130755
-8.10167e-12
0.0095848
-0.000122853
-7.90327e-12
0.00970016
-0.000115351
-7.65631e-12
0.00980835
-0.000108194
-7.32717e-12
0.00990969
-0.000101343
-6.85671e-12
0.0100045
-9.47622e-05
-6.23927e-12
0.0100929
-8.84275e-05
-5.56356e-12
0.0101752
-8.2319e-05
-4.91465e-12
0.0102516
-7.64216e-05
-4.36575e-12
0.0103223
-7.07238e-05
-3.91647e-12
0.0103876
-6.52175e-05
-3.54625e-12
0.0104475
-5.98976e-05
-3.20633e-12
0.0105022
-5.47633e-05
-2.86611e-12
0.010552
-4.98186e-05
-2.54017e-12
0.0105971
-4.50725e-05
-2.24187e-12
0.0106377
-4.05389e-05
-1.99395e-12
0.0106739
-3.62359e-05
-1.82596e-12
0.0107061
-3.21833e-05
-1.74058e-12
0.0107345
-2.8401e-05
-1.71042e-12
0.0107594
-2.49059e-05
-1.70552e-12
0.0107811
-2.17096e-05
-1.7085e-12
0.0107999
-1.88169e-05
-1.71896e-12
0.0108161
-1.62246e-05
-1.70573e-12
0.0108301
-1.39214e-05
-1.65262e-12
0.0108419
-1.18891e-05
-1.58286e-12
0.010852
-1.01039e-05
-1.51799e-12
0.0108606
-8.53818e-06
-1.46794e-12
0.0108677
-7.1631e-06
-1.41934e-12
0.0108737
-5.94993e-06
-1.35625e-12
0.0108786
-4.87189e-06
-1.265e-12
0.0108825
-3.90511e-06
-1.12183e-12
0.0108855
-3.02922e-06
-9.64733e-13
0.0108877
-2.22746e-06
-8.06762e-13
0.0108892
-1.48578e-06
-6.51406e-13
0.01089
-7.92916e-07
-5.50135e-13
0.0108901
-1.26092e-07
-5.21052e-13
0.0108897
4.44607e-07
-4.59621e-13
0.0108887
9.91315e-07
-4.50322e-13
0.0108872
1.50545e-06
-4.97802e-13
0.0108852
1.98866e-06
-5.43009e-13
0.0108828
2.44203e-06
-5.68271e-13
0.0108799
2.86638e-06
-5.78879e-13
0.0108766
3.26296e-06
-5.67013e-13
0.010873
3.63308e-06
-5.28942e-13
0.010869
3.97825e-06
-4.83803e-13
0.0108647
4.3001e-06
-4.28182e-13
0.0108601
4.60017e-06
-3.5902e-13
0.0108552
4.87996e-06
-3.14838e-13
0.0108501
5.14098e-06
-3.01454e-13
0.0108447
5.3847e-06
-2.93157e-13
0.0108391
5.61241e-06
-2.73312e-13
0.0108333
5.82536e-06
-2.59394e-13
0.0108273
6.02463e-06
-2.58243e-13
0.010821
6.21128e-06
-2.45972e-13
0.0108147
6.38622e-06
-2.20846e-13
0.0108081
6.55038e-06
-1.88548e-13
0.0108014
6.70453e-06
-1.4485e-13
0.0107946
6.8494e-06
-9.8002e-14
0.0107876
6.98564e-06
-5.05123e-14
0.0107805
7.11382e-06
-3.17806e-15
0.0107732
7.2345e-06
3.43877e-14
0.0107659
7.34817e-06
6.93517e-14
0.0107584
7.45527e-06
1.02692e-13
0.0107509
7.55619e-06
1.41076e-13
0.0107432
7.65132e-06
1.67766e-13
0.0107355
7.741e-06
1.75514e-13
0.0107276
7.82556e-06
1.69796e-13
0.0107197
7.90528e-06
1.56641e-13
0.0107118
7.98044e-06
1.40259e-13
0.0107037
8.05129e-06
1.204e-13
0.0106956
8.1181e-06
9.67913e-14
0.0106874
8.18101e-06
8.64873e-14
0.0106792
8.24035e-06
9.24737e-14
0.0106709
8.29605e-06
1.03466e-13
0.0106625
8.34877e-06
1.29318e-13
0.0106541
8.3978e-06
1.29514e-13
0.0106457
8.44481e-06
1.60184e-13
0.0106372
8.48728e-06
2.43371e-13
0.0106287
8.52991e-06
2.24309e-13
0.0106201
8.56497e-06
1.58965e-13
0.0106115
8.60611e-06
1.89634e-13
0.0106029
8.63003e-06
2.63693e-13
8.6782e-06
2.91023e-13
-0.00359107
-0.000562624
-0.00325965
-0.000706196
-0.00286765
-0.000832337
-0.00242012
-0.000946431
-0.0019293
-0.00103808
-0.00140205
-0.00111408
-0.000846592
-0.00117252
-0.000271309
-0.00121317
0.000311697
-0.00123393
0.000897357
-0.0012398
0.00147948
-0.00123188
0.00205182
-0.00121152
0.00260913
-0.00118041
0.00314711
-0.00114046
0.00366246
-0.00109367
0.0041528
-0.00104199
0.00461667
-0.000987198
0.00505337
-0.000930872
0.00546285
-0.000874347
0.00584557
-0.000818721
0.00620244
-0.000764862
0.00653472
-0.000713379
0.0068438
-0.000664551
0.00713103
-0.000618484
0.00739783
-0.00057537
0.00764568
-0.000535291
0.00787605
-0.000498226
0.00809036
-0.000464075
0.00828993
-0.000432689
0.00847603
-0.000403884
0.00864979
-0.000377461
0.00881227
-0.000353211
0.0089644
-0.000330923
0.00910703
-0.000310391
0.00924091
-0.000291413
0.0093667
-0.000273803
0.00948496
-0.000257384
0.00959621
-0.000241998
0.00970086
-0.000227503
0.00979928
-0.000213778
0.00989181
-0.00020072
0.00997871
-0.000188244
0.0100602
-0.000176283
0.0101366
-0.000164784
0.010208
-0.000153705
0.0102746
-0.000143012
0.0103365
-0.000132676
0.010394
-0.000122676
0.0104471
-0.000112997
0.0104959
-0.00010363
0.0105407
-9.45781e-05
0.0105815
-8.58546e-05
0.0106184
-7.74846e-05
0.0106517
-6.95028e-05
0.0106815
-6.19497e-05
0.0107079
-5.48676e-05
0.0107313
-4.82942e-05
0.0107519
-4.22584e-05
0.0107698
-3.67758e-05
0.0107854
-3.18463e-05
0.010799
-2.74538e-05
0.0108107
-2.35677e-05
0.0108207
-2.01457e-05
0.0108293
-1.71374e-05
0.0108366
-1.4489e-05
0.0108428
-1.21465e-05
0.010848
-1.00591e-05
0.0108523
-8.18178e-06
0.0108557
-6.47586e-06
0.0108584
-4.90977e-06
0.0108604
-3.45784e-06
0.0108617
-2.09789e-06
0.0108624
-8.07502e-07
0.0108625
3.64992e-07
0.010862
1.43797e-06
0.0108611
2.45783e-06
0.0108596
3.41661e-06
0.0108577
4.31643e-06
0.0108555
5.15936e-06
0.0108528
5.94812e-06
0.0108497
6.68484e-06
0.0108463
7.37229e-06
0.0108426
8.01373e-06
0.0108386
8.61195e-06
0.0108343
9.16975e-06
0.0108298
9.69022e-06
0.010825
1.01763e-05
0.01082
1.06305e-05
0.0108147
1.10554e-05
0.0108093
1.14531e-05
0.0108037
1.18256e-05
0.0107979
1.21748e-05
0.0107919
1.25026e-05
0.0107858
1.28104e-05
0.0107796
1.30997e-05
0.0107732
1.33718e-05
0.0107667
1.36279e-05
0.01076
1.3869e-05
0.0107533
1.40962e-05
0.0107464
1.43102e-05
0.0107395
1.45119e-05
0.0107324
1.4702e-05
0.0107253
1.48813e-05
0.0107181
1.50503e-05
0.0107108
1.52096e-05
0.0107034
1.53598e-05
0.0106959
1.55014e-05
0.0106884
1.56349e-05
0.0106808
1.57606e-05
0.0106732
1.58792e-05
0.0106655
1.59905e-05
0.0106578
1.60959e-05
0.01065
1.61938e-05
0.0106421
1.62878e-05
0.0106342
1.63726e-05
0.0106263
1.64578e-05
0.0106183
1.65278e-05
0.0106103
1.661e-05
0.0106023
1.66578e-05
1.6754e-05
-0.000547499
-0.000757674
-0.000294568
-0.000959127
1.27259e-05
-0.00113963
0.000352632
-0.00128634
0.000730176
-0.00141563
0.00113903
-0.00152293
0.00157283
-0.00160633
0.00202425
-0.00166459
0.00248773
-0.00169741
0.00295606
-0.00170813
0.00342271
-0.00169852
0.00388193
-0.00167074
0.00432897
-0.00162745
0.00476004
-0.00157153
0.00517224
-0.00150587
0.00556353
-0.00143328
0.00593266
-0.00135633
0.00627907
-0.00127728
0.00660275
-0.00119803
0.00690415
-0.00112011
0.00718401
-0.00104472
0.00744338
-0.000972749
0.00768359
-0.000904766
0.00790608
-0.000840973
0.00811204
-0.000781323
0.00830265
-0.000725907
0.00847914
-0.000674719
0.00864271
-0.000627641
0.00879449
-0.000584469
0.00893555
-0.00054494
0.00906685
-0.000508765
0.00918929
-0.000475648
0.00930365
-0.000445291
0.00941067
-0.000417404
0.00951096
-0.00039171
0.00960511
-0.000367948
0.0096936
-0.000345877
0.00977688
-0.000325277
0.00985533
-0.000305954
0.00992929
-0.000287735
0.00999904
-0.000270473
0.0100648
-0.000254047
0.0101269
-0.000238356
0.0101855
-0.000223318
0.0102406
-0.000208863
0.0102925
-0.000194934
0.0103413
-0.000181478
0.0103871
-0.000168451
0.0104299
-0.000155816
0.0104698
-0.00014355
0.0105069
-0.000131642
0.0105412
-0.000120103
0.0105726
-0.00010896
0.0106014
-9.82609e-05
0.0106275
-8.80653e-05
0.0106511
-7.8439e-05
0.0106722
-6.94455e-05
0.0106911
-6.1137e-05
0.0107079
-5.35482e-05
0.0107227
-4.66912e-05
0.0107358
-4.05542e-05
0.0107474
-3.5103e-05
0.0107575
-3.0285e-05
0.0107664
-2.60342e-05
0.0107742
-2.22781e-05
0.010781
-1.89427e-05
0.0107869
-1.59583e-05
0.010792
-1.32622e-05
0.0107963
-1.08014e-05
0.0107999
-8.53284e-06
0.0108029
-6.42294e-06
0.0108052
-4.44593e-06
0.010807
-2.57885e-06
0.0108082
-7.88683e-07
0.0108088
8.01976e-07
0.0108089
2.29869e-06
0.0108086
3.71899e-06
0.0108079
5.05663e-06
0.0108068
6.3107e-06
0.0108052
7.48476e-06
0.0108033
8.58065e-06
0.0108011
9.60373e-06
0.0107985
1.05595e-05
0.0107957
1.14515e-05
0.0107926
1.22835e-05
0.0107892
1.30601e-05
0.0107856
1.37858e-05
0.0107818
1.44643e-05
0.0107777
1.50992e-05
0.0107735
1.56935e-05
0.0107691
1.62504e-05
0.0107645
1.67726e-05
0.0107597
1.72627e-05
0.0107548
1.77231e-05
0.0107497
1.81561e-05
0.0107445
1.85634e-05
0.0107392
1.89467e-05
0.0107338
1.93078e-05
0.0107282
1.96479e-05
0.0107226
1.99685e-05
0.0107168
2.02706e-05
0.010711
2.05555e-05
0.010705
2.0824e-05
0.010699
2.10772e-05
0.0106929
2.13159e-05
0.0106867
2.15409e-05
0.0106805
2.1753e-05
0.0106741
2.1953e-05
0.0106678
2.21414e-05
0.0106613
2.2319e-05
0.0106548
2.24858e-05
0.0106483
2.26436e-05
0.0106417
2.27903e-05
0.010635
2.29309e-05
0.0106284
2.3058e-05
0.0106216
2.31856e-05
0.0106149
2.32903e-05
0.0106081
2.34134e-05
0.0106012
2.34848e-05
2.36286e-05
0.00278936
-0.000841727
0.00293124
-0.00110101
0.00310856
-0.00131695
0.00331994
-0.00149772
0.00356004
-0.00165573
0.00382702
-0.00178991
0.0041157
-0.001895
0.00442024
-0.00196913
0.0047363
-0.00201348
0.0050583
-0.00203012
0.0053812
-0.00202143
0.00570069
-0.00199024
0.00601316
-0.00193992
0.00631567
-0.00187404
0.00660593
-0.00179613
0.00688228
-0.00170963
0.00714366
-0.00161771
0.00738953
-0.00152315
0.00761978
-0.00142827
0.0078346
-0.00133493
0.00803444
-0.00124457
0.00821993
-0.00115823
0.0083918
-0.00107664
0.00855104
-0.00100021
0.00869873
-0.000929015
0.00883567
-0.000862846
0.0089626
-0.00080165
0.00908028
-0.000745319
0.00918946
-0.000693651
0.00929088
-0.000646361
0.00938523
-0.000603115
0.00947315
-0.000563561
0.0095552
-0.000527345
0.00963191
-0.000494119
0.00970376
-0.000463552
0.00977115
-0.000435338
0.00983446
-0.000409195
0.00989406
-0.000384868
0.00995023
-0.00036213
0.0100033
-0.00034078
0.0100534
-0.000320645
0.010101
-0.000301578
0.0101461
-0.000283453
0.0101889
-0.000266163
0.0102297
-0.000249614
0.0102685
-0.000233722
0.0103054
-0.000218406
0.0103405
-0.000203595
0.0103739
-0.000189221
0.0104056
-0.000175234
0.0104356
-0.000161601
0.0104638
-0.000148317
0.0104902
-0.000135404
0.0105149
-0.000122911
0.0105377
-0.000110913
0.0105588
-9.94944e-05
0.0105781
-8.87453e-05
0.0105957
-7.87439e-05