/*--------------------------------*- C++ -*----------------------------------*\
  =========                 |
  \\      /  F ield         | OpenFOAM: The Open Source CFD Toolbox
   \\    /   O peration     | Website:  https://openfoam.org
    \\  /    A nd           | Version:  7
     \\/     M anipulation  |
\*---------------------------------------------------------------------------*/
FoamFile
{
    version     2.0;
    format      ascii;
    class       volScalarField;
    location    "15";
    object      p;
}
// * * * * * * * * * * * * * * * * * * * * * * * * * * * * * * * * * * * * * //

dimensions      [0 2 -2 0 0 0 0];

internalField   nonuniform List<scalar> 
3700
(
-0.332561
-0.335645
-0.338784
-0.341853
-0.344648
-0.346947
-0.348498
-0.349041
-0.348284
-0.345927
-0.341695
-0.335451
-0.327037
-0.316348
-0.303363
-0.288145
-0.270839
-0.251674
-0.230961
-0.20907
-0.186412
-0.16344
-0.140605
-0.118312
-0.0970303
-0.0770596
-0.0586908
-0.0420748
-0.0273255
-0.0144809
-0.00350742
0.00568233
0.0132151
0.0192433
0.0239335
0.0274555
0.029975
0.0316482
0.032618
0.0330121
0.0329425
0.0325064
0.0317866
0.0308523
0.0297612
0.0285605
0.0272886
0.0259761
0.0246474
0.0233216
0.0220131
0.0207328
0.0194887
0.0182863
0.0171293
0.0160195
0.014958
0.0139443
0.0129778
0.0120565
0.0111793
0.0103425
0.00954581
0.00878275
0.00805596
0.00735392
0.00668581
0.00602971
0.00540976
0.00478123
0.00420192
0.00357657
0.00303845
0.00237928
0.00190106
0.00113617
0.000739545
-0.332622
-0.335731
-0.338906
-0.342022
-0.344875
-0.34724
-0.348861
-0.34948
-0.348805
-0.346531
-0.342385
-0.336223
-0.327886
-0.317268
-0.304344
-0.289178
-0.271912
-0.252772
-0.232071
-0.210179
-0.187505
-0.164503
-0.141633
-0.119281
-0.0979524
-0.077924
-0.0594783
-0.0428081
-0.0280012
-0.015101
-0.00407555
0.00516242
0.0127395
0.0188084
0.0235357
0.0270917
0.0296424
0.0313442
0.0323402
0.0327583
0.0327108
0.0322949
0.0315935
0.030676
0.0296002
0.0284135
0.0271543
0.0258534
0.0245353
0.023219
0.0219192
0.0206469
0.0194101
0.0182143
0.0170633
0.015959
0.0149024
0.0138933
0.012931
0.0120135
0.0111399
0.0103063
0.00951257
0.00875231
0.00802808
0.0073285
0.00666261
0.00600876
0.00539069
0.00476433
0.00418645
0.00356344
0.0030259
0.00236974
0.00189015
0.00113027
0.000728234
-0.332711
-0.335865
-0.339108
-0.342311
-0.345271
-0.347759
-0.349514
-0.350276
-0.349754
-0.347629
-0.343563
-0.337643
-0.329466
-0.318984
-0.306182
-0.291118
-0.273933
-0.254845
-0.234175
-0.212286
-0.189593
-0.166541
-0.143621
-0.121152
-0.0997409
-0.0795718
-0.0610373
-0.0442517
-0.0293357
-0.0163313
-0.0052073
0.00412271
0.0117852
0.0179331
0.0227334
0.0263566
0.0289694
0.0307284
0.0317771
0.0322438
0.0322411
0.0318662
0.0312022
0.0303189
0.0292744
0.0281162
0.0268829
0.0256056
0.0243089
0.0230122
0.0217301
0.0204739
0.0192517
0.0180693
0.0169304
0.0158372
0.0147908
0.0137909
0.0128371
0.0119273
0.0110608
0.0102337
0.00944604
0.00869141
0.00797234
0.00727771
0.00661627
0.00596694
0.00535263
0.00473064
0.00415564
0.0035373
0.003001
0.00235078
0.00186868
0.00111859
0.000706398
-0.332773
-0.335984
-0.339314
-0.342632
-0.345734
-0.348387
-0.350327
-0.351281
-0.350973
-0.349079
-0.345397
-0.339556
-0.331569
-0.32128
-0.308654
-0.293742
-0.276685
-0.257685
-0.237072
-0.215204
-0.19251
-0.16941
-0.146475
-0.123726
-0.102255
-0.0819869
-0.0632932
-0.0463589
-0.0312982
-0.0181528
-0.00689353
0.00256476
0.0103481
0.0166094
0.0215158
0.0252382
0.0279433
0.0297883
0.0309168
0.0314574
0.031523
0.0312108
0.0306044
0.0297737
0.0287773
0.0276628
0.0264695
0.0252285
0.0239648
0.0226979
0.0214431
0.0202116
0.0190119
0.0178499
0.0167296
0.0156534
0.0146224
0.0136365
0.0126956
0.0117976
0.0109419
0.0101247
0.00934618
0.00860006
0.0078888
0.00720165
0.00654694
0.0059044
0.00529581
0.00468036
0.00410975
0.00349837
0.00296412
0.00232264
0.00183732
0.00110143
0.000675506
-0.332745
-0.336013
-0.339437
-0.342881
-0.346143
-0.348985
-0.35114
-0.352321
-0.352264
-0.350626
-0.347178
-0.341653
-0.33393
-0.32389
-0.311493
-0.296784
-0.279911
-0.261044
-0.240534
-0.218726
-0.19601
-0.172839
-0.149784
-0.127104
-0.105442
-0.0850278
-0.0661714
-0.0490727
-0.0338473
-0.0205383
-0.00911881
0.000494788
0.00842754
0.0148317
0.0198741
0.0237254
0.0265522
0.0285116
0.0297471
0.0303876
0.0305459
0.0303193
0.0297914
0.0290328
0.0281021
0.0270477
0.025909
0.0247177
0.0234991
0.0222733
0.0210556
0.0198579
0.0186888
0.0175547
0.0164597
0.0154065
0.0143965
0.0134297
0.0125062
0.0116241
0.010783
0.00997928
0.00921304
0.00847841
0.00777765
0.00710055
0.00645488
0.00582145
0.00522052
0.00461379
0.00404917
0.00344698
0.00291577
0.00228569
0.00179698
0.00107916
0.00063753
-0.335886
-0.339397
-0.342962
-0.346382
-0.349416
-0.351794
-0.353224
-0.35343
-0.352074
-0.348939
-0.343722
-0.336305
-0.326562
-0.314447
-0.3
-0.283359
-0.264587
-0.244244
-0.222527
-0.199886
-0.176755
-0.153635
-0.130918
-0.109134
-0.088591
-0.0695857
-0.0523258
-0.0369328
-0.0234519
-0.0118589
-0.00207238
0.00603107
0.0126023
0.0178068
0.0218143
0.0247906
0.0268919
0.0282614
0.0290276
0.0293033
0.0291856
0.0287579
0.0280912
0.0272446
0.026267
0.0251982
0.0240705
0.0229097
0.0217362
0.0205661
0.0194115
0.0182815
0.0171828
0.0161201
0.0150961
0.0141128
0.0131703
0.0122689
0.011407
0.0105843
0.00979761
0.00904693
0.00832678
0.00763928
0.00697481
0.00634052
0.0057185
0.00512725
0.00453138
0.00397441
0.00338357
0.00285663
0.00224036
0.00174878
0.00105229
0.000594712
-0.335559
-0.339135
-0.342806
-0.346365
-0.349573
-0.352165
-0.353838
-0.354306
-0.353212
-0.350417
-0.345534
-0.338448
-0.32903
-0.31723
-0.303073
-0.286688
-0.268239
-0.248073
-0.226507
-0.20396
-0.180893
-0.157781
-0.135059
-0.113208
-0.0925707
-0.0734453
-0.0560448
-0.0404961
-0.0268478
-0.0150787
-0.00511008
0.00317855
0.00993561
0.0153243
0.0195123
0.0226635
0.0249327
0.026462
0.0273791
0.0277962
0.0278102
0.0275041
0.0269492
0.0262051
0.025321
0.0243375
0.0232872
0.0221968
0.0210872
0.0199749
0.0188727
0.0177904
0.0167348
0.0157113
0.0147229
0.0137718
0.0128588
0.0119842
0.0111468
0.0103465
0.00958034
0.00884847
0.00814581
0.00747431
0.00682506
0.0062045
0.00559616
0.00501661
0.0044337
0.00388612
0.00330868
0.00278746
0.0021872
0.00169393
0.00102137
0.000549319
-0.335003
-0.338616
-0.342355
-0.346021
-0.349376
-0.35215
-0.354046
-0.354768
-0.354043
-0.351486
-0.34694
-0.340206
-0.331146
-0.319702
-0.30589
-0.289819
-0.271672
-0.251762
-0.230416
-0.208044
-0.185107
-0.162075
-0.139402
-0.117542
-0.0968618
-0.077659
-0.0601517
-0.0444714
-0.0306704
-0.0187311
-0.00857871
-9.64676e-05
0.00686023
0.012451
0.0168402
0.020189
0.0226496
0.0243624
0.0254536
0.0260345
0.0262018
0.0260378
0.0256136
0.0249893
0.0242148
0.0233311
0.0223718
0.0213639
0.0203292
0.0192848
0.0182442
0.0172176
0.0162127
0.0152351
0.0142884
0.0133752
0.0124967
0.0116535
0.0108448
0.0100707
0.00932858
0.00861872
0.00793651
0.0072837
0.0066522
0.00604767
0.00545524
0.0048894
0.00432148
0.00378507
0.00322296
0.00270912
0.00212679
0.00163364
0.000986995
0.000503419
-0.334227
-0.337839
-0.341607
-0.345339
-0.348798
-0.351716
-0.353797
-0.354739
-0.354262
-0.352023
-0.347813
-0.341436
-0.332749
-0.321686
-0.308254
-0.292552
-0.274761
-0.255172
-0.234114
-0.21199
-0.189257
-0.166382
-0.143824
-0.122027
-0.101364
-0.0821373
-0.0645663
-0.048787
-0.0348557
-0.0227589
-0.0124269
-0.00374783
0.00341764
0.0092242
0.0138316
0.0173969
0.0200693
0.0219863
0.0232722
0.0240371
0.0243769
0.0243734
0.0240971
0.0236086
0.0229583
0.0221881
0.021332
0.0204179
0.0194683
0.0185012
0.0175306
0.0165676
0.0156202
0.0146948
0.0137956
0.0129256
0.0120863
0.0112789
0.0105029
0.00975866
0.00904396
0.00835918
0.00770025
0.00706874
0.00645741
0.00587115
0.00529675
0.00474657
0.00419556
0.00367212
0.00312714
0.0026225
0.00205978
0.00156909
0.000949759
0.000458716
-0.333233
-0.336805
-0.34056
-0.344309
-0.347822
-0.350836
-0.353055
-0.354183
-0.353933
-0.351977
-0.348085
-0.342057
-0.333747
-0.323081
-0.31006
-0.294768
-0.277384
-0.258176
-0.237476
-0.215676
-0.193226
-0.170589
-0.148223
-0.126564
-0.105986
-0.0867937
-0.0692082
-0.0533681
-0.0393339
-0.0270973
-0.0165943
-0.00771961
-0.000340515
0.00569132
0.0105298
0.0143269
0.0172276
0.019366
0.0208638
0.0218296
0.0223582
0.022531
0.0224176
0.0220788
0.0215657
0.0209207
0.0201787
0.0193685
0.0185132
0.0176316
0.0167387
0.015846
0.0149626
0.0140952
0.0132487
0.0124267
0.0116311
0.0108635
0.0101238
0.00941278
0.0087286
0.00807178
0.00743878
0.00683102
0.00624214
0.00567627
0.00512189
0.00458926
0.00405694
0.00354826
0.00302203
0.00252852
0.00198684
0.00150129
0.000910228
0.000416459
-0.332012
-0.335514
-0.339211
-0.34293
-0.346446
-0.349507
-0.351831
-0.353086
-0.353015
-0.351305
-0.347708
-0.342018
-0.334083
-0.323822
-0.311228
-0.29638
-0.279446
-0.26068
-0.240405
-0.219006
-0.19692
-0.174604
-0.152509
-0.131065
-0.110644
-0.0915478
-0.0739995
-0.0581396
-0.0440329
-0.0316771
-0.0210152
-0.0119499
-0.00435618
0.00190635
0.00698464
0.0110246
0.0141659
0.0165389
0.0182623
0.0194423
0.0201727
0.0205345
0.0205965
0.0204189
0.0200536
0.0195438
0.0189251
0.0182272
0.017474
0.0166851
0.0158764
0.0150602
0.0142461
0.0134418
0.0126527
0.0118828
0.0111348
0.0104106
0.00971063
0.00903585
0.00838503
0.00775876
0.00715412
0.00657236
0.00600805
0.00546452
0.00493201
0.00441871
0.00390672
0.00341453
0.00290849
0.00242811
0.00190866
0.00143115
0.00086891
0.000377419
-0.33394
-0.337543
-0.341187
-0.344655
-0.3477
-0.350031
-0.351425
-0.351491
-0.349986
-0.346654
-0.341282
-0.333715
-0.323863
-0.311715
-0.297337
-0.280889
-0.262615
-0.242832
-0.221909
-0.200268
-0.178355
-0.156613
-0.13546
-0.115265
-0.0963267
-0.0788673
-0.063029
-0.0488814
-0.0364288
-0.0256226
-0.0163744
-0.0085688
-0.00207409
0.00324852
0.00753797
0.0109282
0.013545
0.0155034
0.0169075
0.0178494
0.0184094
0.0186561
0.018649
0.01844
0.0180733
0.0175854
0.0170066
0.0163619
0.0156717
0.0149526
0.0142178
0.0134778
0.0127408
0.012013
0.011299
0.0106018
0.00992413
0.00926677
0.00863095
0.00801598
0.00742261
0.00684851
0.00629478
0.00575692
0.00523754
0.00472856
0.00423623
0.00374604
0.00327201
0.00278745
0.00232215
0.00182592
0.00135938
0.000826252
0.000341933
-0.332026
-0.335511
-0.339042
-0.342424
-0.345429
-0.34775
-0.349176
-0.34934
-0.348006
-0.344909
-0.339833
-0.332622
-0.323181
-0.31149
-0.297609
-0.281686
-0.263953
-0.244714
-0.224336
-0.203219
-0.181791
-0.160479
-0.139691
-0.119788
-0.101067
-0.0837457
-0.067969
-0.0538114
-0.0412852
-0.0303509
-0.0209305
-0.0129189
-0.00619429
-0.000626872
0.00391461
0.00755781
0.0104234
0.0126227
0.014257
0.0154167
0.0161811
0.0166191
0.016789
0.0167428
0.0165252
0.0161737
0.0157194
0.0151881
0.0146012
0.0139761
0.0133269
0.0126647
0.0119986
0.0113353
0.0106801
0.0100368
0.00940818
0.00879585
0.0082013
0.00762435
0.0070659
0.00652424
0.00600033
0.0054906
0.00499698
0.00451301
0.00404318
0.0035761
0.00312177
0.0026598
0.00221148
0.00173929
0.00128654
0.000782623
0.000309985
-0.329691
-0.333046
-0.336439
-0.339696
-0.342647
-0.344926
-0.34632
-0.346553
-0.345356
-0.342466
-0.337668
-0.330803
-0.321773
-0.310553
-0.297194
-0.281832
-0.264686
-0.246048
-0.22627
-0.205746
-0.184878
-0.164071
-0.143716
-0.124167
-0.105716
-0.088578
-0.0729001
-0.0587623
-0.0461854
-0.0351404
-0.0255605
-0.0173517
-0.010403
-0.00459411
0.000198091
0.00409443
0.00721018
0.00965272
0.0115202
0.012901
0.0138735
0.0145061
0.0148575
0.0149785
0.0149143
0.0147033
0.0143774
0.0139633
0.0134833
0.0129556
0.012395
0.0118137
0.0112212
0.0106251
0.0100312
0.00944394
0.00886667
0.00830142
0.00775008
0.00721297
0.00669117
0.00618359
0.00569107
0.00521093
0.0047445
0.00428685
0.00384087
0.00339804
0.00296486
0.00252645
0.00209686
0.0016494
0.00121304
0.000738325
0.000281311
-0.32685
-0.330077
-0.333321
-0.336424
-0.3392
-0.341498
-0.342856
-0.343129
-0.342039
-0.339336
-0.334803
-0.328279
-0.319665
-0.30893
-0.296117
-0.28135
-0.264836
-0.246851
-0.22773
-0.207852
-0.187609
-0.167372
-0.147511
-0.12837
-0.110235
-0.0933214
-0.0777756
-0.0636848
-0.0510794
-0.0399415
-0.0302161
-0.0218211
-0.0146567
-0.00861247
-0.00357392
0.000572699
0.00393704
0.00662218
0.00872312
0.010326
0.0115079
0.0123366
0.0128712
0.0131621
0.0132541
0.0131863
0.0129915
0.0126973
0.0123267
0.0118988
0.0114293
0.0109311
0.0104144
0.00988747
0.00935689
0.00882753
0.00830333
0.00778684
0.00728029
0.00678454
0.00630085
0.00582872
0.00536893
0.00491964
0.00448166
0.00405145
0.00363056
0.00321297
0.00280224
0.00238822
0.00197899
0.00155681
0.00113917
0.000693591
0.0002555
-0.326551
-0.329653
-0.332609
-0.335265
-0.337437
-0.338791
-0.339087
-0.338087
-0.335558
-0.331282
-0.325099
-0.316909
-0.306675
-0.294433
-0.280296
-0.264454
-0.247168
-0.228754
-0.209571
-0.189995
-0.170381
-0.151064
-0.132376
-0.114596
-0.0979392
-0.0825535
-0.0685337
-0.0559203
-0.044707
-0.034851
-0.0262825
-0.018913
-0.0126423
-0.00736466
-0.00297356
0.00063486
0.00355922
0.00589122
0.00771464
0.00910502
0.0101295
0.0108469
0.0113083
0.0115577
0.0116344
0.0115721
0.0113992
0.0111395
0.0108131
0.0104363
0.0100227
0.00958336
0.0091272
0.00866136
0.00819135
0.00772158
0.00725517
0.00679469
0.00634155
0.00589717
0.00546165
0.00503572
0.00461835
0.0042099
0.0038081
0.00341337
0.00302188
0.00263478
0.00224585
0.00185844
0.00146201
0.00106511
0.000648579
0.000232076
-0.322481
-0.325461
-0.328273
-0.330756
-0.33281
-0.334156
-0.334468
-0.333552
-0.331192
-0.327171
-0.321332
-0.313575
-0.303858
-0.292209
-0.278728
-0.263591
-0.247039
-0.229368
-0.210915
-0.192036
-0.173074
-0.154337
-0.136134
-0.11874
-0.102367
-0.0871671
-0.0732416
-0.0606421
-0.0493738
-0.0394061
-0.0306815
-0.0231225
-0.0166392
-0.0111345
-0.00650924
-0.0026654
0.000491054
0.00304836
0.00508783
0.00668332
0.00790098
0.00879936
0.00942974
0.00983628
0.0100579
0.0101286
0.0100776
0.00992966
0.00970541
0.00942215
0.00909414
0.00873316
0.00834874
0.00794865
0.00753899
0.00712467
0.00670932
0.0062959
0.00588632
0.00548221
0.00508423
0.00469311
0.00430853
0.00393053
0.00355797
0.00319034
0.00282569
0.00246325
0.00210004
0.00173571
0.00136543
0.000990989
0.000603403
0.000210561
-0.317912
-0.320782
-0.323471
-0.325816
-0.327702
-0.329028
-0.329364
-0.328543
-0.326358
-0.322597
-0.317107
-0.309791
-0.300602
-0.28956
-0.276754
-0.262344
-0.24655
-0.229647
-0.211948
-0.193789
-0.175499
-0.157366
-0.139677
-0.122697
-0.106633
-0.0916418
-0.0778324
-0.0652673
-0.0539634
-0.0439019
-0.0350372
-0.0273029
-0.0206192
-0.0148978
-0.0100469
-0.00597455
-0.0025914
0.000187145
0.00243975
0.0042384
0.00564807
0.00672674
0.00752554
0.00808936
0.008457
0.00866225
0.00873474
0.00869979
0.00857895
0.00839031
0.00814889
0.00786718
0.0075554
0.00722192
0.00687345
0.00651538
0.00615191
0.00578634
0.0054211
0.00505803
0.00469835
0.0043428
0.00399175
0.00364498
0.00330233
0.00296261
0.00262541
0.00228852
0.00195153
0.00161136
0.00126757
0.000916987
0.000558247
0.000190607
-0.312763
-0.315614
-0.318291
-0.320629
-0.322452
-0.323686
-0.324016
-0.323284
-0.321279
-0.31779
-0.31267
-0.305822
-0.297198
-0.286806
-0.274723
-0.261088
-0.246101
-0.230011
-0.213107
-0.195696
-0.178093
-0.160579
-0.143417
-0.126858
-0.111108
-0.0963218
-0.0826207
-0.0700789
-0.0587264
-0.0485573
-0.0395385
-0.0316153
-0.0247181
-0.0187677
-0.0136799
-0.00936867
-0.00574953
-0.00274141
-0.000268281
0.00174007
0.00334753
0.00461148
0.00558286
0.00630661
0.00682227
0.00716465
0.00736353
0.00744453
0.00742973
0.007338
0.00718518
0.00698449
0.00674688
0.00648137
0.00619528
0.00589455
0.00558393
0.00526711
0.00494705
0.00462584
0.00430521
0.00398598
0.00366915
0.00335433
0.00304223
0.00273113
0.00242193
0.00211135
0.00180103
0.00148593
0.00116889
0.000843338
0.000513329
0.000172175
-0.309775
-0.312334
-0.314442
-0.316004
-0.317311
-0.317709
-0.31712
-0.315337
-0.312157
-0.30744
-0.301094
-0.293065
-0.283354
-0.27202
-0.259182
-0.245018
-0.229753
-0.213647
-0.196986
-0.180059
-0.163145
-0.146502
-0.130376
-0.11497
-0.100432
-0.0868843
-0.0744126
-0.0630585
-0.0528283
-0.0437004
-0.0356309
-0.02856
-0.022417
-0.0171252
-0.0126048
-0.00877587
-0.00556133
-0.00288788
-0.000687344
0.00110281
0.00253916
0.00367226
0.00454685
0.00520262
0.00567465
0.00599338
0.00618537
0.00627324
0.00627618
0.00621053
0.00609007
0.00592628
0.00572871
0.00550523
0.00526222
0.00500492
0.00473742
0.00446313
0.00418441
0.00390346
0.00362123
0.00333925
0.00305712
0.00277618
0.00249452
0.00221389
0.00193055
0.00164734
0.00135843
0.00106837
0.00076928
0.000467848
0.000155074
-0.302653
-0.305243
-0.307572
-0.309329
-0.310068
-0.310084
-0.309296
-0.307403
-0.304183
-0.299505
-0.293286
-0.285488
-0.276117
-0.265233
-0.252952
-0.239444
-0.224919
-0.20962
-0.193807
-0.177749
-0.161703
-0.145904
-0.130569
-0.115881
-0.101988
-0.0890018
-0.0769998
-0.0660231
-0.0560814
-0.0471586
-0.0392188
-0.032211
-0.0260738
-0.0207403
-0.0161398
-0.0122013
-0.0088551
-0.00603442
-0.00367657
-0.00172355
-0.000122382
0.00117484
0.00221109
0.00302432
0.00364789
0.00411127
0.00444027
0.00465715
0.00478116
0.00482886
0.00481432
0.00474942
0.00464408
0.00450659
0.00434373
0.0041612
0.00396343
0.0037543
0.00353648
0.00331265
0.00308407
0.0028527
0.00261845
0.00238308
0.00214501
0.0019063
0.00166374
0.00142023
0.00117083
0.000919857
0.000660915
0.000400181
0.000130695
-0.291061
-0.293266
-0.29494
-0.29611
-0.296774
-0.296666
-0.295557
-0.293357
-0.289949
-0.285231
-0.279142
-0.271658
-0.262799
-0.252628
-0.241252
-0.228819
-0.215513
-0.201539
-0.187117
-0.172474
-0.157827
-0.143378
-0.12931
-0.115784
-0.102931
-0.0908506
-0.0796123
-0.069259
-0.0598071
-0.0512508
-0.0435668
-0.036718
-0.0306574
-0.0253305
-0.0206788
-0.0166427
-0.0131628
-0.0101813
-0.00764323
-0.00549724
-0.00369568
-0.002195
-0.000955868
5.685e-05
0.000874571
0.00152533
0.00203388
0.00242194
0.00270841
0.00290969
0.00303985
0.00311094
0.00313313
0.00311513
0.00306409
0.00298621
0.00288637
0.00276898
0.00263714
0.00249407
0.0023414
0.00218166
0.00201508
0.00184401
0.00166715
0.00148724
0.0013013
0.0011131
0.000917767
0.000720836
0.000515619
0.000310359
9.71191e-05
-0.279642
-0.281657
-0.283158
-0.284142
-0.284458
-0.283991
-0.282626
-0.280248
-0.276775
-0.272135
-0.266282
-0.259201
-0.250916
-0.241485
-0.231001
-0.219592
-0.207413
-0.194639
-0.181457
-0.168058
-0.15463
-0.141349
-0.128376
-0.115851
-0.103892
-0.092591
-0.0820145
-0.0722066
-0.063189
-0.0549638
-0.0475172
-0.0408225
-0.0348432
-0.0295354
-0.0248512
-0.0207405
-0.0171527
-0.0140378
-0.0113475
-0.00903609
-0.0070607
-0.00538181
-0.00396331
-0.00277247
-0.00177972
-0.000958551
-0.000285328
0.000260859
0.000698359
0.00104324
0.00130944
0.00150905
0.00165241
0.00174845
0.00180467
0.00182762
0.00182255
0.00179429
0.00174632
0.00168232
0.00160425
0.00151514
0.00141552
0.00130826
0.00119237
0.00107119
0.000941944
0.000809222
0.000668094
0.000525454
0.000373778
0.000224073
6.58977e-05
-0.268587
-0.270471
-0.271777
-0.272495
-0.272569
-0.271903
-0.270388
-0.267937
-0.264486
-0.259985
-0.2544
-0.247725
-0.239985
-0.231234
-0.221555
-0.211059
-0.19988
-0.188166
-0.176081
-0.163787
-0.151448
-0.139216
-0.127233
-0.115621
-0.104487
-0.0939137
-0.0839646
-0.0746831
-0.0660939
-0.0582044
-0.0510081
-0.0444866
-0.0386123
-0.033351
-0.0286637
-0.0245088
-0.0208434
-0.0176245
-0.0148101
-0.0123596
-0.010235
-0.00840037
-0.00682287
-0.00547221
-0.00432088
-0.00334399
-0.0025192
-0.00182653
-0.0012483
-0.000768869
-0.000374526
-5.32436e-05
0.000205355
0.000410368
0.000569486
0.000689542
0.000776085
0.000834286
0.000867964
0.000881155
0.000876184
0.000856454
0.000822844
0.000778658
0.000723199
0.00066034
0.000587484
0.000509987
0.000422782
0.000334079
0.00023537
0.000140288
3.5495e-05
-0.257967
-0.259742
-0.260895
-0.261445
-0.261365
-0.260567
-0.258968
-0.256506
-0.253127
-0.248794
-0.243486
-0.237205
-0.229976
-0.22185
-0.212903
-0.203231
-0.19295
-0.182189
-0.171086
-0.159784
-0.148423
-0.137136
-0.126046
-0.115263
-0.10488
-0.0949743
-0.085606
-0.0768172
-0.0686343
-0.0610694
-0.0541214
-0.0477789
-0.042022
-0.0368241
-0.032154
-0.0279772
-0.0242577
-0.0209587
-0.0180435
-0.0154767
-0.0132243
-0.0112542
-0.00953631
-0.00804299
-0.00674876
-0.00563038
-0.00466682
-0.00383911
-0.00313029
-0.00252523
-0.00201055
-0.0015744
-0.00120647
-0.000897585
-0.000639955
-0.00042655
-0.000251598
-0.000109656
3.37094e-06
9.18384e-05
0.000158366
0.000206707
0.000238033
0.000256043
0.0002603
0.000255168
0.000238185
0.000215441
0.000181634
0.000146285
9.97431e-05
5.82283e-05
5.55193e-06
-0.247853
-0.24955
-0.250608
-0.251054
-0.25087
-0.249999
-0.248376
-0.245948
-0.242674
-0.238528
-0.2335
-0.227597
-0.220848
-0.213298
-0.205016
-0.196086
-0.18661
-0.176699
-0.166472
-0.156053
-0.145564
-0.135121
-0.124831
-0.114794
-0.105092
-0.0957968
-0.086964
-0.0786349
-0.0708368
-0.0635846
-0.056882
-0.0507227
-0.0450931
-0.0399729
-0.0353373
-0.0311581
-0.027405
-0.0240469
-0.0210521
-0.0183895
-0.016029
-0.013942
-0.0121013
-0.0104815
-0.00905935
-0.00781313
-0.00672315
-0.00577151
-0.00494203
-0.00422018
-0.003593
-0.00304888
-0.00257767
-0.00217023
-0.00181871
-0.00151598
-0.00125611
-0.00103344
-0.000843662
-0.00068215
-0.000546036
-0.000431261
-0.000336397
-0.000257384
-0.00019445
-0.000142754
-0.000104696
-7.3457e-05
-5.46683e-05
-3.75073e-05
-3.28621e-05
-2.18957e-05
-2.36537e-05
-0.238284
-0.239926
-0.240929
-0.241314
-0.241076
-0.240178
-0.238569
-0.236206
-0.233059
-0.229112
-0.224363
-0.218824
-0.212522
-0.2055
-0.197821
-0.189559
-0.180802
-0.171649
-0.162202
-0.15257
-0.142859
-0.13317
-0.1236
-0.114235
-0.105152
-0.0964158
-0.0880774
-0.0801769
-0.0727422
-0.06579
-0.0593273
-0.0533524
-0.0478563
-0.042824
-0.0382363
-0.0340703
-0.0303008
-0.0269015
-0.0238452
-0.0211048
-0.0186539
-0.0164667
-0.0145191
-0.0127878
-0.0112515
-0.00989016
-0.00868541
-0.0076204
-0.00667982
-0.00584976
-0.00511776
-0.00447253
-0.00390412
-0.00340351
-0.00296286
-0.002575
-0.00223388
-0.0019337
-0.00166999
-0.0014379
-0.00123436
-0.00105504
-0.000898286
-0.000759724
-0.000639405
-0.000532046
-0.000440029
-0.000355835
-0.000285481
-0.000216866
-0.000162154
-9.99169e-05
-5.20712e-05
-0.229268
-0.230874
-0.231846
-0.232204
-0.231949
-0.231057
-0.22949
-0.227215
-0.224212
-0.220472
-0.215997
-0.210803
-0.204916
-0.198379
-0.191246
-0.183585
-0.175473
-0.166997
-0.158247
-0.149317
-0.140302
-0.13129
-0.122367
-0.113611
-0.105091
-0.0968651
-0.0889823
-0.0814805
-0.0743873
-0.067721
-0.0614909
-0.0556986
-0.0503392
-0.0454021
-0.0408725
-0.0367322
-0.0329605
-0.0295351
-0.0264329
-0.0236305
-0.0211046
-0.0188324
-0.0167922
-0.014963
-0.0133253
-0.0118607
-0.0105521
-0.00938377
-0.00834122
-0.00741125
-0.00658191
-0.00584231
-0.00518273
-0.00459433
-0.00406936
-0.00360063
-0.00318205
-0.00280774
-0.00247308
-0.00217306
-0.00190443
-0.00166263
-0.00144585
-0.0012494
-0.0010732
-0.000911561
-0.000766881
-0.000630973
-0.00051027
-0.000391435
-0.000287909
-0.000175748
-7.96834e-05
-0.2208
-0.222384
-0.223344
-0.223699
-0.223452
-0.222591
-0.221088
-0.218918
-0.21607
-0.212537
-0.208328
-0.203459
-0.197958
-0.191865
-0.185228
-0.178109
-0.170577
-0.162707
-0.154581
-0.14628
-0.137888
-0.129484
-0.121145
-0.11294
-0.104931
-0.0971721
-0.0897087
-0.0825769
-0.0758039
-0.0694087
-0.0634024
-0.0577892
-0.0525675
-0.0477302
-0.0432664
-0.0391616
-0.0353992
-0.0319604
-0.0288258
-0.025975
-0.0233877
-0.0210438
-0.0189239
-0.0170092
-0.0152818
-0.0137249
-0.0123227
-0.0110604
-0.00992458
-0.00890264
-0.00798319
-0.00715576
-0.00641095
-0.00574011
-0.00513562
-0.00459033
-0.00409817
-0.00365318
-0.00325067
-0.0028855
-0.00255428
-0.00225226
-0.00197748
-0.00172498
-0.0014946
-0.00128025
-0.00108439
-0.000898191
-0.00072852
-0.000560857
-0.000409896
-0.000249272
-0.000106436
-0.21287
-0.214442
-0.215403
-0.215771
-0.215553
-0.214741
-0.213316
-0.211263
-0.208572
-0.205245
-0.201291
-0.196728
-0.191585
-0.185897
-0.179712
-0.173082
-0.166072
-0.158747
-0.15118
-0.143444
-0.135612
-0.127756
-0.119943
-0.112236
-0.104692
-0.0973604
-0.0902829
-0.0834939
-0.0770202
-0.0708811
-0.0650888
-0.0596499
-0.0545649
-0.04983
-0.0454372
-0.0413756
-0.0376317
-0.0341901
-0.0310342
-0.0281467
-0.0255099
-0.0231062
-0.0209182
-0.0189291
-0.0171226
-0.0154835
-0.0139971
-0.0126498
-0.0114288
-0.0103225
-0.00931986
-0.00841095
-0.0075867
-0.00683867
-0.00615943
-0.00554191
-0.00498008
-0.00446795
-0.0040008
-0.00357336
-0.00318218
-0.00282232
-0.00249172
-0.00218519
-0.00190248
-0.00163716
-0.00139175
-0.00115684
-0.000939731
-0.000724771
-0.000527872
-0.000320353
-0.000132273
-0.205463
-0.20703
-0.208003
-0.208395
-0.208218
-0.207468
-0.206132
-0.2042
-0.201668
-0.19854
-0.194829
-0.190554
-0.185741
-0.180426
-0.17465
-0.168465
-0.161924
-0.15509
-0.148026
-0.140797
-0.133469
-0.126106
-0.118768
-0.111513
-0.104392
-0.0974507
-0.0907278
-0.0842562
-0.0780615
-0.0721633
-0.0665748
-0.0613038
-0.0563532
-0.0517214
-0.0474032
-0.0433903
-0.0396721
-0.0362361
-0.0330684
-0.0301542
-0.0274782
-0.025025
-0.0227792
-0.0207257
-0.0188499
-0.0171378
-0.015576
-0.0141518
-0.0128535
-0.0116698
-0.0105907
-0.0096064
-0.00870831
-0.00788825
-0.00713897
-0.00645351
-0.00582593
-0.00525025
-0.00472171
-0.004235
-0.00378658
-0.00337139
-0.00298728
-0.00262885
-0.0022958
-0.00198139
-0.00168822
-0.00140633
-0.00114343
-0.000882831
-0.000641599
-0.000388855
-0.000157143
-0.198563
-0.200131
-0.201121
-0.201546
-0.201419
-0.200738
-0.199495
-0.197687
-0.195311
-0.192377
-0.188895
-0.184888
-0.18038
-0.175406
-0.170004
-0.16422
-0.158105
-0.151713
-0.145101
-0.138329
-0.131455
-0.124536
-0.117628
-0.110782
-0.104046
-0.0974609
-0.0910638
-0.0848852
-0.0789501
-0.0732778
-0.0678822
-0.0627722
-0.0579523
-0.0534228
-0.0491809
-0.0452207
-0.0415338
-0.0381102
-0.0349384
-0.0320059
-0.0292996
-0.0268059
-0.0245114
-0.0224024
-0.020466
-0.0186894
-0.0170602
-0.0155669
-0.0141983
-0.0129442
-0.0117948
-0.010741
-0.0097745
-0.00888743
-0.00807272
-0.00732359
-0.00663417
-0.00599853
-0.00541192
-0.00486897
-0.00436612
-0.0038982
-0.00346299
-0.00305491
-0.00267364
-0.00231214
-0.00197311
-0.00164608
-0.00133917
-0.0010347
-0.000750845
-0.000454645
-0.000180998
-0.192155
-0.193726
-0.194737
-0.1952
-0.195127
-0.194519
-0.193373
-0.191687
-0.189464
-0.186712
-0.183448
-0.17969
-0.175464
-0.170801
-0.165739
-0.16032
-0.154588
-0.148595
-0.142391
-0.136029
-0.129564
-0.123047
-0.116527
-0.110053
-0.103666
-0.0974067
-0.0913082
-0.0853998
-0.0797055
-0.0742443
-0.0690305
-0.0640738
-0.05938
-0.0549512
-0.050786
-0.0468808
-0.0432292
-0.0398234
-0.0366539
-0.0337102
-0.030981
-0.0284548
-0.0261194
-0.023963
-0.0219738
-0.0201403
-0.0184511
-0.0168957
-0.0154637
-0.0141454
-0.0129317
-0.011814
-0.0107843
-0.00983508
-0.00895947
-0.00815085
-0.00740347
-0.00671146
-0.0060701
-0.00547402
-0.00491961
-0.00440162
-0.00391781
-0.00346244
-0.00303516
-0.00262868
-0.0022458
-0.00187558
-0.00152654
-0.00118008
-0.000855393
-0.000517595
-0.000203795
-0.18622
-0.187797
-0.188831
-0.189334
-0.189317
-0.188783
-0.187733
-0.186167
-0.18409
-0.181513
-0.17845
-0.174923
-0.170956
-0.166579
-0.161827
-0.156737
-0.151352
-0.145718
-0.139882
-0.133891
-0.127794
-0.121639
-0.115471
-0.109333
-0.103264
-0.0973015
-0.0914765
-0.0858167
-0.0803452
-0.0750806
-0.0700374
-0.0652259
-0.0606529
-0.0563217
-0.0522327
-0.0483836
-0.0447702
-0.0413862
-0.038224
-0.0352749
-0.0325293
-0.0299771
-0.0276079
-0.0254112
-0.0233762
-0.0214927
-0.0197503
-0.0181392
-0.01665
-0.0152735
-0.0140012
-0.0128249
-0.011737
-0.0107304
-0.00979824
-0.00893424
-0.00813273
-0.00738793
-0.00669516
-0.00604905
-0.00544599
-0.00488068
-0.00435083
-0.00385059
-0.00337961
-0.00293035
-0.00250572
-0.00209437
-0.00170517
-0.00131866
-0.000955041
-0.000577585
-0.000225494
-0.180741
-0.182325
-0.183382
-0.183926
-0.183965
-0.183506
-0.182549
-0.181098
-0.17916
-0.176746
-0.173872
-0.170558
-0.166829
-0.162712
-0.158241
-0.15345
-0.148379
-0.143069
-0.137563
-0.131907
-0.126142
-0.120314
-0.114463
-0.108629
-0.102849
-0.097157
-0.091582
-0.0861505
-0.0808845
-0.0758024
-0.0709185
-0.0662438
-0.0617857
-0.0575485
-0.053534
-0.0497413
-0.0461677
-0.0428083
-0.0396574
-0.0367075
-0.0339508
-0.0313786
-0.0289816
-0.0267506
-0.0246762
-0.0227489
-0.0209594
-0.0192988
-0.0177581
-0.016329
-0.0150033
-0.0137735
-0.0126323
-0.0115727
-0.0105883
-0.00967292
-0.00882106
-0.008027
-0.00728615
-0.00659313
-0.00594437
-0.00533451
-0.00476125
-0.00421864
-0.00370632
-0.00321656
-0.00275238
-0.00230201
-0.00187469
-0.00145019
-0.0010496
-0.000634506
-0.000246059
-0.175701
-0.177291
-0.178372
-0.178955
-0.17905
-0.178662
-0.177795
-0.176454
-0.174647
-0.172385
-0.169686
-0.166568
-0.163057
-0.159177
-0.15496
-0.150439
-0.145651
-0.140634
-0.135426
-0.13007
-0.124605
-0.119071
-0.113507
-0.107948
-0.10243
-0.0969836
-0.0916366
-0.086414
-0.081337
-0.0764236
-0.0716879
-0.0671413
-0.0627917
-0.0586443
-0.054702
-0.050965
-0.0474318
-0.0440991
-0.0409622
-0.0380155
-0.035252
-0.0326645
-0.030245
-0.0279853
-0.0258769
-0.0239115
-0.0220805
-0.0203757
-0.0187889
-0.0173123
-0.0159384
-0.0146598
-0.0134698
-0.0123616
-0.0113291
-0.0103663
-0.00946774
-0.00862792
-0.00784228
-0.00710549
-0.00641398
-0.00576238
-0.00514838
-0.00456593
-0.00401471
-0.0034868
-0.0029853
-0.00249812
-0.00203482
-0.00157443
-0.00113891
-0.000688258
-0.000265457
-0.171081
-0.172677
-0.173781
-0.174402
-0.17455
-0.174231
-0.17345
-0.172212
-0.170526
-0.168406
-0.165867
-0.16293
-0.159616
-0.155952
-0.151966
-0.147689
-0.143156
-0.138401
-0.133462
-0.128376
-0.12318
-0.117911
-0.112605
-0.107295
-0.102014
-0.09679
-0.0916504
-0.0866185
-0.0817148
-0.0769566
-0.0723581
-0.0679308
-0.063683
-0.0596207
-0.0557475
-0.0520647
-0.0485718
-0.0452669
-0.0421463
-0.0392055
-0.0364388
-0.0338401
-0.0314025
-0.0291188
-0.0269814
-0.0249828
-0.0231154
-0.0213714
-0.0197435
-0.0182243
-0.0168068
-0.015484
-0.0142495
-0.0130969
-0.0120202
-0.0110138
-0.0100722
-0.00919007
-0.00836292
-0.00758546
-0.00685417
-0.00616364
-0.0055116
-0.00489191
-0.00430426
-0.00374059
-0.0032041
-0.00268236
-0.00218527
-0.00169116
-0.00122281
-0.000738751
-0.000283661
-0.166867
-0.168468
-0.169593
-0.17025
-0.170448
-0.170193
-0.169492
-0.16835
-0.166777
-0.164787
-0.162396
-0.159623
-0.156489
-0.153019
-0.149241