/*--------------------------------*- C++ -*----------------------------------*\
  =========                 |
  \\      /  F ield         | OpenFOAM: The Open Source CFD Toolbox
   \\    /   O peration     | Website:  https://openfoam.org
    \\  /    A nd           | Version:  7
     \\/     M anipulation  |
\*---------------------------------------------------------------------------*/
FoamFile
{
    version     2.0;
    format      ascii;
    class       surfaceScalarField;
    location    "15";
    object      phi;
}
// * * * * * * * * * * * * * * * * * * * * * * * * * * * * * * * * * * * * * //

dimensions      [0 3 -1 0 0 0 0];

internalField   nonuniform List<scalar> 
7273
(
-0.00174837
9.66292e-05
-0.00184349
9.5121e-05
-0.00193583
9.23432e-05
-0.00202386
8.80248e-05
-0.00210581
8.19574e-05
-0.00217978
7.39688e-05
-0.00224386
6.40738e-05
-0.00229614
5.22794e-05
-0.00233455
3.84153e-05
-0.00235708
2.25205e-05
-0.00236169
4.616e-06
-0.00234773
-1.39725e-05
-0.002314
-3.37263e-05
-0.00225953
-5.44754e-05
-0.00218374
-7.5794e-05
-0.00208644
-9.73041e-05
-0.0019678
-0.00011865
-0.00182841
-0.000139398
-0.00166923
-0.000159183
-0.00149166
-0.000177574
-0.00129732
-0.000194344
-0.00108847
-0.000208854
-0.000867409
-0.00022106
-0.000636487
-0.000230924
-0.000398673
-0.000237814
-0.000156678
-0.000241995
8.72458e-05
-0.000243923
0.000330179
-0.000242931
0.00057005
-0.000239868
0.00080491
-0.000234857
0.00103311
-0.0002282
0.00125334
-0.000220227
0.00146461
-0.000211262
0.00166622
-0.000201607
0.00185776
-0.000191533
0.00203904
-0.000181276
0.00221007
-0.000171027
0.00237101
-0.000160943
0.00252216
-0.000151143
0.00266387
-0.000141712
0.00279658
-0.000132702
0.00292073
-0.000124153
0.00303682
-0.000116084
0.00314532
-0.000108504
0.00324673
-0.000101409
0.00334152
-9.47855e-05
0.00343014
-8.86169e-05
0.00351302
-8.28815e-05
0.00359057
-7.75554e-05
0.00366319
-7.26137e-05
0.00373122
-6.80311e-05
0.003795
-6.37828e-05
0.00385484
-5.98441e-05
0.00391103
-5.61925e-05
0.00396384
-5.28053e-05
0.0040135
-4.96633e-05
0.00406025
-4.67461e-05
0.00410428
-4.40387e-05
0.0041458
-4.15217e-05
0.00418499
-3.9186e-05
0.004222
-3.70103e-05
0.00425699
-3.49937e-05
0.0042901
-3.31078e-05
0.00432146
-3.13664e-05
0.00435119
-2.97234e-05
0.00437941
-2.82207e-05
0.00440618
-2.67749e-05
0.00443166
-2.54846e-05
0.00445585
-2.41889e-05
0.00447895
-2.31e-05
0.00450085
-2.19016e-05
0.00452188
-2.10264e-05
0.00454174
-1.98595e-05
0.00456098
-1.92393e-05
0.00457899
-1.80174e-05
0.0045967
-1.77066e-05
-1.63555e-05
-0.00164296
0.000187051
-0.00173193
0.000184098
-0.00181826
0.000178668
-0.00190042
0.000170183
-0.00197669
0.000158232
-0.0020452
0.000142478
-0.00210403
0.000122899
-0.00215136
9.96102e-05
-0.00218518
7.22433e-05
-0.00220351
4.08452e-05
-0.0022043
5.40778e-06
-0.00218711
-3.11635e-05
-0.00215058
-7.02527e-05
-0.00209381
-0.000111246
-0.00201626
-0.000153344
-0.00191776
-0.000195805
-0.0017985
-0.000237917
-0.00165905
-0.000278841
-0.00150041
-0.000317824
-0.00132394
-0.000354042
-0.00113124
-0.000387052
-0.000924541
-0.000415548
-0.000706193
-0.000439408
-0.000478328
-0.000458789
-0.000244012
-0.00047213
-5.36657e-06
-0.00048064
0.000233654
-0.000482943
0.00047195
-0.000481227
0.000707022
-0.000474939
0.000936917
-0.000464753
0.00116004
-0.000451323
0.00137512
-0.000435312
0.00158123
-0.000417365
0.00177771
-0.000398085
0.00196418
-0.000378009
0.0021405
-0.000357598
0.00230671
-0.000337232
0.00246298
-0.000317217
0.00260962
-0.000297784
0.00274701
-0.000279102
0.00287558
-0.00026127
0.00299579
-0.000244361
0.00310812
-0.000228414
0.00321306
-0.000213442
0.00331108
-0.000199435
0.00340266
-0.000186366
0.00348825
-0.000174201
0.00356826
-0.000162895
0.00364311
-0.000152401
0.00371316
-0.000142667
0.00377877
-0.000133644
0.00384027
-0.000125282
0.00389796
-0.000117532
0.00395212
-0.000110349
0.004003
-0.000103688
0.00405085
-9.75112e-05
0.00409588
-9.17772e-05
0.0041383
-8.64569e-05
0.00417829
-8.15119e-05
0.00421603
-7.69241e-05
0.00425167
-7.26514e-05
0.00428537
-6.86924e-05
0.00431725
-6.49908e-05
0.00434746
-6.15736e-05
0.00437608
-5.83503e-05
0.00440327
-5.54031e-05
0.00442906
-5.25677e-05
0.00445361
-5.00379e-05
0.00447692
-4.74979e-05
0.00449919
-4.5363e-05
0.0045203
-4.30151e-05
0.00454057
-4.12983e-05
0.00455973
-3.90147e-05
0.00457828
-3.77955e-05
0.00459567
-3.54099e-05
0.00461276
-3.47945e-05
-3.21641e-05
-0.00144018
0.000265683
-0.00151753
0.000261442
-0.00159248
0.000253619
-0.00166359
0.000241295
-0.00172921
0.00022385
-0.00178753
0.000200801
-0.00183666
0.000172022
-0.00187485
0.00013781
-0.00190029
9.76754e-05
-0.00191102
5.15819e-05
-0.00190499
-6.25403e-07
-0.00188213
-5.40226e-05
-0.00184074
-0.000111647
-0.0017801
-0.000171886
-0.00169972
-0.000233726
-0.00159944
-0.000296082
-0.00147947
-0.000357882
-0.00134038
-0.000417935
-0.00118319
-0.000475016
-0.00100917
-0.000528061
-0.000819893
-0.000576326
-0.000617515
-0.000617927
-0.000404495
-0.000652428
-0.000182405
-0.000680878
4.51382e-05
-0.000699674
0.000275267
-0.000710768
0.000506657
-0.000714334
0.000736416
-0.000710987
0.000962522
-0.000701046
0.00118316
-0.000685395
0.00139684
-0.000665002
0.00160239
-0.000640857
0.00179894
-0.000613921
0.00198595
-0.000585087
0.00216308
-0.000555147
0.00233027
-0.000524781
0.00248758
-0.000494545
0.00263525
-0.000464881
0.00277359
-0.000436128
0.00290301
-0.000408524
0.00302395
-0.000382213
0.00313689
-0.000357293
0.00324229
-0.000333815
0.00334064
-0.000311793
0.00343241
-0.000291209
0.00351807
-0.000272021
0.00359804
-0.000254172
0.00367274
-0.000237597
0.00374256
-0.000222221
0.00380786
-0.00020797
0.00386898
-0.000194766
0.00392624
-0.000182538
0.00397992
-0.000171209
0.00403028
-0.000160715
0.00407758
-0.000150988
0.00412204
-0.000141972
0.00416387
-0.000133605
0.00420326
-0.000125846
0.00424038
-0.000118636
0.00427541
-0.000111951
0.00430848
-0.000105726
0.00433975
-9.99615e-05
0.00436934
-9.45736e-05
0.00439736
-8.96023e-05
0.00442393
-8.49146e-05
0.00444916
-8.06306e-05
0.0044731
-7.65105e-05
0.0044959
-7.28353e-05
0.00451755
-6.9147e-05
0.00453823
-6.60458e-05
0.00455785
-6.26399e-05
0.0045767
-6.01438e-05
0.00459452
-5.68376e-05
0.00461178
-5.50587e-05
0.00462799
-5.16183e-05
0.00464391
-5.07098e-05
-4.69341e-05
-0.00115466
0.000328071
-0.00121604
0.000322827
-0.00127543
0.000313008
-0.0013315
0.00029736
-0.00138269
0.000275042
-0.00142732
0.000245428
-0.00146358
0.000208286
-0.00148974
0.000163968
-0.00150423
0.000112167
-0.00150493
5.22797e-05
-0.0014911
-1.44528e-05
-0.00146094
-8.41864e-05
-0.00141375
-0.000158833
-0.00134876
-0.000236877
-0.00126548
-0.000317001
-0.00116375
-0.000397812
-0.00104379
-0.000477849
-0.000906046
-0.000555677
-0.000751676
-0.000629386
-0.000581756
-0.000697981
-0.000397786
-0.000760295
-0.000201577
-0.000814136
4.91654e-06
-0.000858921
0.000216277
-0.000892239
0.000433454
-0.00091685
0.000653414
-0.000930728
0.000873601
-0.000934521
0.00109163
-0.000929013
0.00130555
-0.00091497
0.0015137
-0.000893538
0.00171468
-0.000865991
0.00190747
-0.000833638
0.00209129
-0.00079775
0.0022657
-0.000759496
0.00243047
-0.000719912
0.00258557
-0.000679879
0.00273114
-0.000640118
0.00286745
-0.000601195
0.00299487
-0.00056354
0.0031138
-0.000527454
0.0032247
-0.000493119
0.00332805
-0.000460643
0.00342433
-0.000430089
0.003514
-0.000401465
0.00359753
-0.000374739
0.00367536
-0.000349853
0.00374792
-0.000326727
0.00381559
-0.000305272
0.00387876
-0.000285387
0.00393776
-0.000266972
0.00399292
-0.000249926
0.00404453
-0.000234149
0.00409287
-0.000219545
0.00413818
-0.000206025
0.00418069
-0.000193502
0.00422062
-0.000181901
0.00425816
-0.000171143
0.00429348
-0.000161171
0.00432676
-0.00015191
0.00435813
-0.000143328
0.00438775
-0.000135342
0.00441574
-0.000127951
0.00444221
-0.000121048
0.00446729
-0.000114682
0.00449106
-0.000108684
0.00451364
-0.000103206
0.00453507
-9.79399e-05
0.00455548
-9.32446e-05
0.00457487
-8.85363e-05
0.0045934
-8.4575e-05
0.00461099
-8.02339e-05
0.00462789
-7.70411e-05
0.00464389
-7.28394e-05
0.00465938
-7.05527e-05
0.00467397
-6.62039e-05
0.00468828
-6.50177e-05
-6.02756e-05
-0.00080486
-0.000847459
0.000365426
-0.000888559
0.000354107
-0.000927012
0.000335813
-0.000961425
0.000309455
-0.000990255
0.000274258
-0.00101188
0.000229911
-0.00102451
0.000176599
-0.00102689
0.000114547
-0.00101705
4.24382e-05
-0.000994301
-3.71994e-05
-0.000956929
-0.000121558
-0.000904142
-0.00021162
-0.000835267
-0.000305753
-0.000749867
-0.000402401
-0.000647711
-0.000499967
-0.000529005
-0.000596555
-0.000393899
-0.000690783
-0.000243692
-0.000779593
-7.91284e-05
-0.000862545
9.66502e-05
-0.000936074
0.000282593
-0.00100008
0.000477126
-0.00105345
0.000678725
-0.00109384
0.000884156
-0.00112228
0.0010913
-0.00113788
0.00129791
-0.00114113
0.00150184
-0.00113293
0.00170126
-0.00111439
0.00189464
-0.00108692
0.00208075
-0.0010521
0.00225868
-0.00101156
0.00242778
-0.000966857
0.00258771
-0.00091942
0.00273831
-0.000870515
0.00287964
-0.000821208
0.00301189
-0.000772367
0.00313536
-0.000724668
0.00325044
-0.000678619
0.00335756
-0.000634573
0.00345718
-0.000592742
0.00354978
-0.00055324
0.00363582
-0.000516128
0.00371576
-0.000481407
0.00379005
-0.000449029
0.00385911
-0.000418916
0.00392335
-0.000390965
0.00398314
-0.000365059
0.00403883
-0.000341076
0.00409074
-0.000318888
0.00413919
-0.000298367
0.00418443
-0.000279393
0.00422673
-0.000261845
0.00426632
-0.000245614
0.00430341
-0.00023059
0.00433819
-0.000216684
0.00437084
-0.000203798
0.00440154
-0.000191862
0.00443041
-0.000180786
0.00445761
-0.000170529
0.00448326
-0.000160993
0.00450749
-0.000152174
0.00453038
-0.000143944
0.00455206
-0.000136363
0.00457261
-0.000129225
0.00459211
-0.000122712
0.00461063
-0.000116458
0.00462827
-0.000110883
0.00464503
-0.000105301
0.00466106
-0.000100598
0.00467628
-9.54625e-05
0.00469091
-9.16657e-05
0.00470478
-8.67141e-05
0.00471821
-8.39777e-05
0.00473089
-7.88876e-05
0.00474332
-7.74416e-05
-7.19346e-05
-0.000432476
0.000388105
-0.000454165
0.000375797
-0.000473956
0.000355604
-0.000490657
0.000326156
-0.000502911
0.000286512
-0.000509299
0.000236299
-0.000508166
0.000175466
-0.000498354
0.000104734
-0.000477976
2.20603e-05
-0.000446749
-6.84258e-05
-0.000402669
-0.000165638
-0.000345009
-0.00026928
-0.000273085
-0.000377677
-0.000186426
-0.00048906
-8.46692e-05
-0.000601724
3.16473e-05
-0.000712872
0.00016056
-0.000819696
0.000303264
-0.000922297
0.00045838
-0.00101766
0.000624727
-0.00110242
0.000800547
-0.0011759
0.000983546
-0.00123645
0.00117208
-0.00128237
0.00136357
-0.00131377
0.00155593
-0.00133024
0.0017471
-0.00133229
0.00193512
-0.00132096
0.00211834
-0.00129762
0.0022954
-0.00126398
0.00246521
-0.00122192
0.00262699
-0.00117335
0.00278024
-0.00112011
0.00292469
-0.00106387
0.00306029
-0.00100611
0.00318713
-0.000948051
0.00330545
-0.000890693
0.00341559
-0.000834806
0.00351794
-0.000780962
0.00361292
-0.000729556
0.003701
-0.000680823
0.00378263
-0.000634874
0.00385827
-0.000591765
0.00392835
-0.000551484
0.00399329
-0.000513968
0.00405349
-0.000479116
0.00410932
-0.000446802
0.00416115
-0.000416885
0.00420929
-0.000389217
0.00425405
-0.000363646
0.0042957
-0.000340021
0.00433451
-0.000318198
0.00437069
-0.000298033
0.00440448
-0.0002794
0.00443606
-0.000262168
0.00446561
-0.000246232
0.00449329
-0.000231477
0.00451925
-0.000217823
0.00454362
-0.000205163
0.00456654
-0.00019345
0.00458812
-0.00018257
0.00460847
-0.000172519
0.00462767
-0.00016315
0.00464584
-0.000154529
0.00466304
-0.000146423
0.00467936
-0.000139034
0.00469485
-0.000131949
0.0047096
-0.000125635
0.00472363
-0.000119327
0.00473703
-0.000114004
0.00474979
-0.000108217
0.00476203
-0.000103909
0.00477367
-9.8357e-05
0.00478493
-9.52287e-05
0.00479561
-8.95675e-05
0.00480604
-8.78805e-05
-8.18103e-05
1.04786e-05
0.000391506
7.70576e-06
0.00037857
6.29593e-06
0.000357013
7.08828e-06
0.000325363
1.10933e-05
0.000282507
1.96332e-05
0.000227759
3.40004e-05
0.000161099
5.54447e-05
8.32894e-05
8.52505e-05
-7.7455e-06
0.000123998
-0.000107173
0.0001735
-0.00021514
0.000234456
-0.000330237
0.00030752
-0.000450741
0.000393114
-0.000574654
0.000491436
-0.000700045
0.000602475
-0.000823911
0.000726345
-0.000943566
0.000861806
-0.00105776
0.00100783
-0.00116369
0.00116346
-0.00125805
0.00132701
-0.00133945
0.00149655
-0.00140599
0.00167036
-0.00145617
0.00184622
-0.00148964
0.00202219
-0.00150621
0.00219638
-0.00150648
0.00236707
-0.00149164
0.00253279
-0.00146334
0.00269236
-0.00142355
0.00284488
-0.00137444
0.00298972
-0.00131818
0.00312649
-0.00125687
0.00325502
-0.0011924
0.00337533
-0.00112642
0.00348757
-0.00106029
0.00359199
-0.00099512
0.00368894
-0.000931757
0.0037788
-0.00087082
0.00386198
-0.000812737
0.00393892
-0.000757761
0.00401004
-0.000705998
0.00407577
-0.000657489
0.0041365
-0.000612211
0.00419261
-0.000570083
0.00424448
-0.000530985
0.00429245
-0.000494767
0.00433683
-0.000461268
0.00437793
-0.000430315
0.00441602
-0.000401735
0.00445135
-0.000375354
0.00448416
-0.000351007
0.00451466
-0.000328532
0.00454304
-0.000307783
0.00456948
-0.000288612
0.00459415
-0.000270897
0.00461718
-0.000254511
0.00463872
-0.00023936
0.00465888
-0.000225325
0.00467778
-0.000212353
0.00469553
-0.000200316
0.00471222
-0.00018921
0.00472794
-0.00017887
0.00474278
-0.00016937
0.00475681
-0.000160451
0.00477011
-0.00015233
0.00478272
-0.00014456
0.00479472
-0.000137636
0.00480613
-0.000130741
0.00481703
-0.000124906
0.00482742
-0.000118604
0.00483738
-0.000113869
0.00484688
-0.000107857
0.00485604
-0.00010439
0.00486479
-9.83147e-05
0.00487331
-9.64051e-05
-8.9954e-05
0.000470571
0.000378611
0.000484156
0.000364986
0.000498758
0.000342411
0.000514913
0.000309209
0.000533376
0.000264043
0.000555036
0.000206099
0.000581013
0.000135122
0.000612642
5.16606e-05
0.000650204
-4.53076e-05
0.000695476
-0.000152446
0.000749397
-0.000269061
0.000812795
-0.000393635
0.000886334
-0.000524279
0.000970463
-0.000658783
0.00106537
-0.000794955
0.00117116
-0.000929698
0.00128779
-0.0010602
0.00141436
-0.00118432
0.00154987
-0.0012992
0.00169335
-0.00140154
0.00184328
-0.00148937
0.00199795
-0.00156066
0.00215566
-0.00161389
0.00231451
-0.00164849
0.00247273
-0.00166443
0.00262866
-0.00166242
0.00278083
-0.00164381
0.002928
-0.00161051
0.00306921
-0.00156475
0.00320373
-0.00150896
0.00333111
-0.00144556
0.00345108
-0.00137684
0.00356357
-0.0013049
0.00366865
-0.0012315
0.00376651
-0.00115815
0.00385742
-0.00108602
0.00394168
-0.00101602
0.00401967
-0.000948806
0.00409175
-0.000884819
0.00415832
-0.000824327
0.00421975
-0.000767434
0.00427643
-0.000714161
0.00432869
-0.000664472
0.00437687
-0.000618272
0.00442131
-0.000575421
0.0044623
-0.000535754
0.00450012
-0.000499088
0.00453503
-0.000465232
0.00456729
-0.000433992
0.00459712
-0.000405178
0.00462471
-0.000378605
0.00465028
-0.000354095
0.00467398
-0.000331484
0.00469598
-0.00031061
0.00471642
-0.000291338
0.00473543
-0.000273524
0.00475314
-0.000257067
0.00476965
-0.000241837
0.00478507
-0.000227772
0.00479949
-0.000214737
0.004813
-0.000202724
0.00482569
-0.000191557
0.00483763
-0.000181309
0.00484889
-0.00017171
0.00485954
-0.000162979
0.00486962
-0.000154649
0.00487921
-0.000147224
0.00488833
-0.000139861
0.00489703
-0.000133607
0.00490534
-0.000126908
0.00491329
-0.000121819
0.0049209
-0.000115467
0.00492821
-0.000111706
0.00493525
-0.00010535
0.00494208
-0.000103236
-9.65522e-05
0.000941894
0.000354241
0.000967561
0.000339319
0.000994538
0.000315433
0.00102299
0.000280758
0.00105328
0.000233756
0.00108594
0.000173435
0.00112178
9.92829e-05
0.00116186
1.15755e-05
0.00120627
-8.97149e-05
0.00125654
-0.000202717
0.00131359
-0.00032611
0.00137823
-0.000458272
0.0014511
-0.000597154
0.00153268
-0.000740357
0.00162315
-0.00088543
0.00172265
-0.00102919
0.00183106
-0.00116861
0.00194768
-0.00130094
0.00207158
-0.0014231
0.00220182
-0.00153177
0.00233699
-0.00162454
0.00247557
-0.00169924
0.002616
-0.00175432
0.00275664
-0.00178914
0.00289597
-0.00180376
0.00303259
-0.00179903
0.00316529
-0.00177652
0.00329312
-0.00173833
0.00341533
-0.00168697
0.00353143
-0.00162506
0.00364111
-0.00155524
0.00374425
-0.00147998
0.00384085
-0.0014015
0.00393103
-0.00132168
0.00401499
-0.00124211
0.00409297
-0.00116401
0.00416528
-0.00108833
0.00423221
-0.00101574
0.00429409
-0.000946696
0.00435123
-0.000881473
0.00440397
-0.000820176
0.00445262
-0.000762805
0.00449746
-0.000709312
0.00453877
-0.000659587
0.00457683
-0.00061348
0.00461189
-0.00057081
0.00464418
-0.000531379
0.00467393
-0.000494982
0.00470135
-0.000461412
0.00472664
-0.000430462
0.00474996
-0.000401934
0.0047715
-0.000375634
0.00479141
-0.000351386
0.00480981
-0.000329015
0.00482685
-0.000308373
0.00484263
-0.000289306
0.00485726
-0.000271703
0.00487085
-0.000255424
0.00488348
-0.000240404
0.00489524
-0.000226497
0.00490622
-0.000213695
0.00491647
-0.000201814
0.00492609
-0.000190925
0.00493513
-0.00018075
0.00494365
-0.000171504
0.00495172
-0.000162714
0.00495937
-0.000154874
0.00496665
-0.000147141
0.00497359
-0.000140543
0.00498022
-0.000133542
0.00498656
-0.000128156
0.00499265
-0.000121563
0.00499849
-0.000117544
0.00500415
-0.00011101
0.00500962
-0.000108707
-0.000101898
0.00142722
0.000325317
0.00145883
0.000307706
0.00149275
0.000281509
0.00152876
0.000244748
0.00156679
0.000195724
0.00160695
0.000133279
0.00164974
5.64896e-05
0.00169574
-3.44218e-05
0.00174509
-0.00013906
0.00179881
-0.000256438
0.00185766
-0.000384967
0.00192233
-0.000522935
0.00199337
-0.000668203
0.00207129
-0.000818268
0.00215628
-0.000970424
0.00224845
-0.00112137
0.00234765
-0.00126781
0.00245327
-0.00140657
0.0025645
-0.00153433
0.00268039
-0.00164766
0.0027997
-0.00174385
0.00292107
-0.00182061
0.00304313
-0.00187638
0.00316453
-0.00191054
0.00328402
-0.00192325
0.0034005
-0.00191552
0.00351309
-0.0018891
0.0036211
-0.00184634
0.00372405
-0.00178992
0.00382165
-0.00172266
0.00391376
-0.00164735
0.00400036
-0.00156658
0.00408153
-0.00148267
0.00415741
-0.00139757
0.00422819
-0.00131289
0.00429409
-0.00122991
0.00435534
-0.00114957
0.00441218
-0.00107258
0.00446486
-0.000999379
0.00451364
-0.000930247
0.00455875
-0.000865293
0.00460045
-0.000804502
0.00463895
-0.000747814
0.00467448
-0.000695113
0.00470724
-0.000646237
0.00473743
-0.000600999
0.00476524
-0.000559192
0.00479086
-0.0005206
0.00481445
-0.000485006
0.00483618
-0.000452195
0.00485621
-0.000421957
0.00487466
-0.000394089
0.00489168
-0.000368403
0.00490738
-0.000344714
0.00492187
-0.000322864
0.00493525
-0.00030269
0.00494762
-0.000284074
0.00495906
-0.000266867
0.00496966
-0.000250999
0.00497948
-0.000236322
0.00498861
-0.000222822
0.00499711
-0.000210313
0.00500505
-0.000198863
0.00501249
-0.000188191
0.00501949
-0.000178502
0.0050261
-0.000169327
0.00503236
-0.000161137
0.00503833
-0.000153109
0.00504401
-0.000146222
0.00504946
-0.000138994
0.00505466
-0.000133354
0.00505969
-0.000126591
0.00506449
-0.000122345
0.00506918
-0.000115701
0.0050737
-0.000113226
-0.000106358
0.00193298
0.00196309
0.000277599
0.00199723
0.000247373
0.00203479
0.000207191
0.00207527
0.000155241
0.00211845
9.00969e-05
0.00216403
1.09054e-05
0.00221272
-8.31048e-05
0.00226409
-0.000190433
0.00231885
-0.000311193
0.0023775
-0.000443622
0.00244055
-0.000585985
0.00250842
-0.000736072
0.00258141
-0.000891257
0.00265964
-0.00104865
0.00274318
-0.0012049
0.00283189
-0.00135652
0.00292528
-0.00149995
0.00302257
-0.00163163
0.00312292
-0.00174801
0.00322521
-0.00184614
0.00332828
-0.00192368
0.003431
-0.0019791
0.0035323
-0.00201184
0.00363126
-0.00202221
0.00372712
-0.00201138
0.00381931
-0.0019813
0.00390745
-0.00193448
0.0039913
-0.00187377
0.00407078
-0.00180213
0.00414587
-0.00172244
0.00421664
-0.00163736
0.00428322
-0.00154924
0.00434573
-0.00146008
0.00440434
-0.0013715
0.0044592
-0.00128477
0.00451048
-0.00120085
0.00455833
-0.00112044
0.00460293
-0.00104398
0.00464444
-0.000971756
0.00468303
-0.000903879
0.00471886
-0.000840336
0.0047521
-0.000781047
0.00478288
-0.000725897
0.00481136
-0.000674722
0.00483769
-0.00062733
0.00486201
-0.000583512
0.00488446
-0.000543048
0.00490518
-0.000505718
0.00492428
-0.000471298
0.0049419
-0.000439575
0.00495815
-0.000410338
0.00497313
-0.000383391
0.00498696
-0.000358541
0.00499972
-0.000335624
0.0050115
-0.000314468
0.00502237
-0.000294949
0.00503242
-0.000276914
0.00504171
-0.000260287
0.00505031
-0.000244919
0.00505828
-0.000230791
0.00506568
-0.00021772
0.00507259
-0.000205767
0.00507905
-0.000194655
0.00508512
-0.000184575
0.00509087
-0.000175071
0.00509631
-0.000166578
0.00510151
-0.000158309
0.00510646
-0.000151175
0.00511124
-0.000143772
0.0051158
-0.000137912
0.00512023
-0.000131027
0.00512447
-0.000126577
0.00512863
-0.000119864
0.00513263
-0.000117233
-0.000110332
0.00248501
0.000256696
0.0025122
0.000220191
0.0025447
0.000174687
0.00258155
0.000118392
0.00262204
4.96041e-05
0.00266656
-3.36153e-05
0.00271335
-0.000129895
0.0027631
-0.000240178
0.00281571
-0.000363801
0.00287141
-0.000499327
0.00293044
-0.000645018
0.00299301
-0.00079864
0.00305925
-0.000957493
0.00312914
-0.00111855
0.0032026
-0.00127836
0.00327936
-0.00143328
0.003359
-0.00157959
0.00344094
-0.00171357
0.00352442
-0.00183149
0.00360853
-0.00193024
0.00369231
-0.00200746
0.00377488
-0.00206168
0.00385551
-0.00209247
0.00393363
-0.00210032
0.00400882
-0.00208657
0.00408083
-0.00205331
0.00414956
-0.00200321
0.004215
-0.00193921
0.00427723
-0.00186435
0.00433633
-0.00178154
0.00439242
-0.00169345
0.00444562
-0.00160244
0.00449603
-0.00151049
0.00454373
-0.0014192
0.00458883
-0.00132986
0.00463138
-0.00124341
0.00467147
-0.00116053
0.00470917
-0.00108168
0.00474456
-0.00100715
0.00477772
-0.00093704
0.00480875
-0.000871364
0.00483774
-0.000810031
0.00486476
-0.000752923
0.00488993
-0.000699883
0.00491332
-0.000650721
0.00493504
-0.00060523
0.00495518
-0.000563192
0.00497385
-0.000524386
0.00499114
-0.000488588
0.00500714
-0.000455582
0.00502196
-0.000425153
0.00503567
-0.000397104
0.00504836
-0.000371233
0.00506011
-0.000347373
0.00507099
-0.000325343
0.00508105
-0.000305018
0.00509038
-0.000286237
0.00509902
-0.000268925
0.00510703
-0.000252929
0.00511446
-0.000238229
0.00512139
-0.000224646
0.00512785
-0.000212232
0.00513392
-0.000200724
0.00513964
-0.000190289
0.00514506
-0.000180495
0.00515021
-0.000171732
0.00515516
-0.00016326
0.0051599
-0.000155909
0.00516449
-0.000148367
0.00516889
-0.000142312
0.0051732
-0.000135335
0.00517733
-0.000130702
0.0051814
-0.000123936
0.00518533
-0.000121164
-0.00011423
0.0030229
0.000251462
0.00303682
0.000206274
0.00305818
0.000153324
0.00308577
9.08026e-05
0.00311843
1.69424e-05
0.00315608
-7.12709e-05
0.00319689
-0.000170703
0.0032409
-0.000284184
0.00328773
-0.000410633
0.00333725
-0.000548849
0.00338938
-0.000697145
0.00344406
-0.00085332
0.00350121
-0.00101465
0.00356067
-0.00117801
0.0036222
-0.00133989
0.00368546
-0.00149653
0.00374995
-0.00164408
0.00381512
-0.00177875
0.00388049
-0.00189685
0.00394538
-0.00199514
0.00400912
-0.0020712
0.00407111
-0.00212366
0.00413094
-0.0021523
0.00418841
-0.00215779
0.00424344
-0.0021416
0.00429607
-0.00210594
0.00434644
-0.00205358
0.00439473
-0.0019875
0.0044411
-0.00191073
0.00448571
-0.00182615
0.00452867
-0.00173641
0.00457004
-0.00164382
0.00460988
-0.00155032
0.00464818
-0.0014575
0.00468494
-0.00136662
0.00472013
-0.0012786
0.00475375
-0.00119414
0.00478577
-0.0011137
0.00481618
-0.00103756
0.004845
-0.000965855
0.00487223
-0.000898601
0.00489793
-0.000835723
0.0049221
-0.000777099
0.0049448
-0.000722582
0.00496607
-0.000671993
0.00498597
-0.00062513
0.00500456
-0.000581782
0.00502191
-0.000541733
0.00503808
-0.000504761
0.00505315
-0.000470653
0.00506719
-0.000439192
0.00508027
-0.000410179
0.00509245
-0.000383412
0.00510379
-0.000358716
0.00511436
-0.00033591
0.0051242
-0.000314861
0.00513337
-0.000295409
0.00514192
-0.000277472
0.00514989
-0.000260902
0.00515734
-0.000245675
0.00516431
-0.00023162
0.00517086
-0.000218778
0.00517704
-0.000206905
0.00518289
-0.000196141
0.00518848
-0.000186085
0.00519383
-0.000177076
0.005199
-0.000168429
0.00520397
-0.000160883
0.00520883
-0.000153226
0.00521351
-0.000146998
0.00521812
-0.000139942
0.00522257
-0.000135145
0.00522695
-0.000128324
0.00523122
-0.000125429
-0.000118439
0.00356439
0.000265622
0.00356097
0.000209689
0.00356686
0.000147443
0.00358076
7.68965e-05
0.00360143
-3.72948e-06
0.00362768
-9.75172e-05
0.00365846
-0.000201488
0.00369292
-0.000318635
0.00373044
-0.000448156
0.00377053
-0.000588941
0.0038128
-0.000739413
0.00385692
-0.000897445
0.00390259
-0.00106032
0.00394947
-0.00122488
0.00399717
-0.00138759
0.00404528
-0.00154464
0.00409331
-0.00169211
0.00414074
-0.00182618
0.00418712
-0.00194323
0.00423218
-0.0020402
0.00427559
-0.00211461
0.00431709
-0.00216516
0.00435662
-0.00219183
0.00439428
-0.00219545
0.00443032
-0.00217763
0.00446502
-0.00214064
0.00449869
-0.00208725
0.00453161
-0.00202042
0.004564
-0.00194312
0.004596
-0.00185815
0.00462768
-0.00176809
0.00465903
-0.00167517
0.00469001
-0.0015813
0.00472052
-0.00148801
0.00475045
-0.00139655
0.00477968
-0.00130784
0.00480812
-0.00122258
0.00483565
-0.00114123
0.00486219
-0.0010641
0.00488768
-0.000991345
0.00491207
-0.000922992
0.00493534
-0.000858995
0.00495748
-0.000799237
0.00497848
-0.000743581
0.00499835
-0.000691861
0.00501711
-0.000643888
0.00503479
-0.000599461
0.00505143
-0.000558371
0.00506707
-0.000520404
0.00508177
-0.000485351
0.00509557
-0.000452998
0.00510854
-0.000423145
0.00512072
-0.00039559
0.00513215
-0.000370155
0.0051429
-0.000346656
0.005153
-0.000324957
0.00516249
-0.000304897
0.0051714
-0.000286391
0.0051798
-0.000269294
0.0051877
-0.000253578
0.00519516
-0.000239083
0.00520223
-0.000225841
0.00520895
-0.000213627
0.00521536
-0.000202553
0.00522153
-0.000192257
0.00522747
-0.000183019
0.00523326
-0.000174215
0.00523887
-0.000166493
0.00524438
-0.000158736
0.00524974
-0.000152352
0.00525502
-0.000145224
0.00526016
-0.000140282
0.00526522
-0.000133393
0.00527019
-0.000130391
-0.000123313
0.00408604
0.00406445
0.000231276
0.00405336
0.000158533
0.00405144
7.88163e-05
0.00405779
-1.00801e-05
0.00407007
-0.000109792
0.00408799
-0.000219411
0.00411013
-0.000340776
0.00413565
-0.000473672
0.00416374
-0.000617028
0.00419374
-0.000769418
0.00422511
-0.000928809
0.00425731
-0.00109252
0.00428984
-0.00125742
0.00432221
-0.00141996
0.00435393
-0.00157636
0.00438455
-0.00172273
0.00441364
-0.00185526
0.00444089
-0.00197049
0.0044662
-0.00206551
0.00448972
-0.00213813
0.00451157
-0.00218701
0.00453201
-0.00221227
0.00455146
-0.0022149
0.00457036
-0.00219654
0.00458919
-0.00215947
0.00460834
-0.0021064
0.00462813
-0.00204021
0.00464875
-0.00196374
0.0046703
-0.0018797
0.00469274
-0.00179053
0.00471599
-0.00169842
0.00473988
-0.00160519
0.00476423
-0.00151236
0.00478882
-0.00142114
0.00481345
-0.00133247
0.00483793
-0.00124706
0.0048621
-0.00116539
0.00488578
-0.00108779
0.00490887
-0.00101443
0.00493127
-0.000945387
0.0049529
-0.000880625
0.00497371
-0.000820053
0.00499367
-0.000763542
0.00501275
-0.000710941
0.00503095
-0.000662081
0.00504826
-0.00061677
0.0050647
-0.000574813
0.0050803
-0.000536005
0.00509509
-0.000500141
0.00510911
-0.000467016
0.00512239
-0.000436429
0.00513498
-0.000408181
0.00514692
-0.000382091
0.00515824
-0.000357975
0.00516897
-0.000335691
0.00517916
-0.000315081
0.00518882
-0.000296054
0.005198
-0.000278472
0.00520672
-0.0002623
0.00521503
-0.000247395
0.00522296
-0.000233774
0.00523058
-0.000221239
0.0052379
-0.000209873
0.00524499
-0.000199351
0.00525187
-0.000189899
0.00525861
-0.000180952
0.00526518
-0.000173069
0.00527167
-0.000165222
0.00527802
-0.0001587
0.00528429
-0.000151499
0.00529044
-0.00014643
0.0052965
-0.000139457
0.00530247
-0.000136364
-0.000129159
0.00452046
0.000268426
0.00449406
0.000184928
0.0044773
9.55813e-05
0.00446889
-1.67394e-06
0.00446728
-0.000108182
0.00447146
-0.000223591
0.00448023
-0.000349551
0.0044925
-0.00048594
0.00450727
-0.000631796
0.00452371
-0.000785854
0.00454106
-0.000946168
0.00455867
-0.00111012
0.00457589
-0.00127463
0.00459216
-0.00143623
0.00460698
-0.00159119
0.00461997
-0.00173571
0.00463084
-0.00186614
0.00463953
-0.00197917
0.00464612
-0.0020721
0.00465106
-0.00214307
0.00465493
-0.00219088
0.00465831
-0.00221566
0.00466183
-0.00221842
0.00466608
-0.0022008
0.0046716
-0.00216499
0.00467881
-0.0021136
0.00468797
-0.00204937
0.00469922
-0.00197499
0.00471255
-0.00189302
0.00472782
-0.00180581
0.00474485
-0.00171544
0.00476336
-0.0016237
0.00478308
-0.00153207
0.00480371
-0.00144177
0.00482498
-0.00135374
0.00484663
-0.0012687
0.00486841
-0.00118718
0.00489014
-0.00110952
0.00491164
-0.00103594
0.00493278
-0.000966522
0.00495344
-0.000901285
0.00497354
-0.000840158
0.00499303
-0.000783026
0.00501184
-0.000729755
0.00502995
-0.000680192
0.00504734
-0.000634163
0.00506402
-0.000591485
0.00507998
-0.000551964
0.00509524
-0.000515406
0.00510983
-0.00048161
0.00512379
-0.000450382
0.00513713
-0.000421522
0.00514989
-0.00039485
0.00516209
-0.000370182
0.00517377
-0.000347371
0.00518495
-0.000326262
0.00519566
-0.000306757
0.00520591
-0.000288727
0.00521574
-0.000272131
0.00522519
-0.000256841
0.00523428
-0.000242862
0.00524306
-0.000230022
0.00525157
-0.000218378
0.00525986
-0.000207643
0.00526795
-0.000197989
0.00527591
-0.00018891
0.00528372
-0.00018088
0.00529144
-0.000172949
0.00529905
-0.000166305
0.00530658
-0.000159029
0.005314
-0.000153851
0.00532132
-0.000146775
0.00532856
-0.000143607
-0.000136241
0.00490227
0.000315805
0.00486484
0.000222364
0.0048363
0.000124124
0.00481624
1.83822e-05
0.00480263
-9.45746e-05
0.00479435
-0.000215313
0.0047905
-0.000345699
0.00478992
-0.000485361
0.00479154
-0.000633412
0.00479441
-0.000788726
0.0047977
-0.000949452
0.00480063
-0.00111306
0.00480255
-0.00127655
0.00480289
-0.00143657
0.00480122
-0.00158952
0.00479728
-0.00173177
0.004791
-0.00185986
0.00478255
-0.00197072
0.00477234
-0.00206189
0.00476096
-0.00213169
0.00474936
-0.00217928
0.00473841
-0.00220471
0.00472887
-0.00220888
0.00472139
-0.00219331
0.00471647
-0.00216007
0.00471447
-0.0021116
0.00471558
-0.00205048
0.00471982
-0.00197923
0.00472707
-0.00190028
0.00473712
-0.00181585
0.00474965
-0.00172797
0.00476432
-0.00163837
0.00478078