/*--------------------------------*- C++ -*----------------------------------*\
  =========                 |
  \\      /  F ield         | OpenFOAM: The Open Source CFD Toolbox
   \\    /   O peration     | Website:  https://openfoam.org
    \\  /    A nd           | Version:  7
     \\/     M anipulation  |
\*---------------------------------------------------------------------------*/
FoamFile
{
    version     2.0;
    format      ascii;
    class       volVectorField;
    location    "15";
    object      U;
}
// * * * * * * * * * * * * * * * * * * * * * * * * * * * * * * * * * * * * * //

dimensions      [0 1 -1 0 0 0 0];

internalField   nonuniform List<vector> 
3700
(
(-0.290178 0.00476921 2.79623e-22)
(-0.306863 0.00470378 -3.66172e-21)
(-0.323389 0.00457535 4.01293e-21)
(-0.339292 0.00437137 -5.09742e-21)
(-0.354376 0.00408106 2.70736e-21)
(-0.368275 0.0036951 -1.05395e-21)
(-0.380678 0.00321073 4.51899e-21)
(-0.391248 0.00263534 -2.54951e-21)
(-0.39963 0.00196845 2.36817e-21)
(-0.405437 0.00121261 -1.0952e-21)
(-0.408308 0.000380771 -1.82245e-21)
(-0.408036 -0.000520268 -9.44728e-22)
(-0.404437 -0.00148564 9.38856e-22)
(-0.397294 -0.00249712 -7.55013e-22)
(-0.386467 -0.00353527 1.07139e-21)
(-0.371877 -0.00458216 -3.70693e-22)
(-0.353502 -0.00562061 -1.19263e-21)
(-0.331405 -0.00662949 2.50485e-21)
(-0.305705 -0.00759103 -2.75902e-21)
(-0.276596 -0.00848446 -3.51482e-22)
(-0.244324 -0.00929825 2.13564e-21)
(-0.209233 -0.0100023 -3.60727e-22)
(-0.171706 -0.0105942 -3.10394e-22)
(-0.132145 -0.0110693 2.18699e-22)
(-0.0910121 -0.0114046 -9.38874e-22)
(-0.0488079 -0.0116088 5.99877e-22)
(-0.00595805 -0.0117058 -2.48321e-23)
(0.0370811 -0.0116592 -1.46e-22)
(0.0798559 -0.0115143 -2.50532e-22)
(0.122018 -0.0112767 1.65009e-22)
(0.163246 -0.0109609 -2.39034e-23)
(0.203273 -0.0105828 2.1178e-23)
(0.241889 -0.010158 1.10901e-23)
(0.278941 -0.00970087 7.66208e-23)
(0.314323 -0.00922454 -2.20657e-22)
(0.347978 -0.00874008 1.57189e-22)
(0.379883 -0.0082567 -5.5802e-23)
(0.410049 -0.00778174 1.11538e-22)
(0.43851 -0.00732083 3.33786e-23)
(0.465319 -0.00687818 -7.56136e-23)
(0.490541 -0.00645653 3.62403e-23)
(0.514251 -0.00605732 -2.06755e-23)
(0.536526 -0.00568126 3.84584e-23)
(0.55745 -0.0053285 -4.18922e-23)
(0.577105 -0.00499869 1.64029e-23)
(0.595573 -0.00469117 5.16711e-23)
(0.612934 -0.00440504 -4.79159e-24)
(0.629263 -0.00413922 1.4576e-22)
(0.644633 -0.00389257 -1.44222e-22)
(0.659112 -0.00366389 4.73989e-23)
(0.672765 -0.00345196 8.14857e-23)
(0.685651 -0.00325562 -4.95539e-23)
(0.697826 -0.00307369 4.85088e-23)
(0.709341 -0.00290512 5.48548e-24)
(0.720246 -0.00274885 3.41033e-23)
(0.730581 -0.00260397 -1.18054e-23)
(0.740391 -0.00246952 -8.98942e-24)
(0.749709 -0.00234482 1.83535e-23)
(0.758577 -0.00222894 -4.47768e-24)
(0.767016 -0.00212147 -1.19903e-24)
(0.775074 -0.00202142 4.71171e-24)
(0.78275 -0.00192875 1.12248e-23)
(0.790111 -0.00184213 -6.08702e-24)
(0.797121 -0.0017622 -1.09251e-23)
(0.803891 -0.00168683 1.01241e-24)
(0.810308 -0.00161796 1.89587e-23)
(0.816587 -0.00155171 3.3985e-24)
(0.822454 -0.00149269 -1.96426e-24)
(0.828354 -0.00143338 1.45492e-24)
(0.833669 -0.00138369 -2.37723e-24)
(0.839343 -0.00132888 -3.03733e-24)
(0.844016 -0.00128912 3.80249e-24)
(0.849724 -0.00123576 2.85671e-24)
(0.853494 -0.00120782 4.34755e-25)
(0.859733 -0.00115199 5.16972e-25)
(0.861985 -0.00113819 3.78097e-25)
(0.869831 -0.0010768 6.10063e-25)
(-0.273817 0.0139871 -2.01273e-21)
(-0.28942 0.0137928 6.66165e-21)
(-0.304864 0.0134129 -6.00948e-21)
(-0.319697 0.0128078 -4.11201e-21)
(-0.333719 0.0119456 -2.5467e-21)
(-0.346576 0.0107991 4.05504e-21)
(-0.357954 0.00935929 -5.85747e-21)
(-0.367527 0.00764254 1.6857e-20)
(-0.374952 0.00565806 -7.54553e-21)
(-0.379851 0.0034119 -1.31443e-21)
(-0.38187 0.000930557 2.71351e-21)
(-0.380824 -0.00175218 -4.01093e-21)
(-0.376522 -0.00462747 4.67279e-21)
(-0.368753 -0.00763648 -3.08546e-21)
(-0.357388 -0.0107237 -4.65583e-21)
(-0.342356 -0.0138363 -1.42302e-21)
(-0.323639 -0.0169226 6.37567e-21)
(-0.301306 -0.0199204 -1.29316e-21)
(-0.275478 -0.0227758 8.31113e-21)
(-0.246356 -0.0254269 -8.22691e-21)
(-0.214171 -0.0278391 -5.82175e-22)
(-0.179279 -0.029923 3.75974e-21)
(-0.142064 -0.0316703 -2.94146e-22)
(-0.102907 -0.0330852 8.70763e-22)
(-0.0622715 -0.0340686 -2.06279e-21)
(-0.0206658 -0.0346879 2.30183e-21)
(0.0215189 -0.0348944 -1.17095e-21)
(0.0638297 -0.0347683 5.51331e-22)
(0.105801 -0.0343257 -4.56783e-23)
(0.147116 -0.0336042 2.10252e-22)
(0.18746 -0.0326504 -5.78672e-23)
(0.226578 -0.031512 3.01229e-23)
(0.264271 -0.030236 1.88415e-22)
(0.300394 -0.0288655 -5.17879e-22)
(0.334853 -0.0274392 3.4241e-22)
(0.367597 -0.0259903 -2.14425e-23)
(0.39861 -0.024546 -1.452e-22)
(0.427907 -0.023128 4.86751e-22)
(0.455526 -0.0217528 -5.05185e-22)
(0.481524 -0.020433 2.88415e-22)
(0.505968 -0.0191764 7.55438e-23)
(0.528933 -0.0179874 -3.19648e-22)
(0.550498 -0.0168679 -2.16258e-22)
(0.570745 -0.0158182 5.99073e-22)
(0.589757 -0.0148372 -4.43953e-22)
(0.607614 -0.0139229 4.41748e-22)
(0.624395 -0.0130724 -8.58996e-22)
(0.640176 -0.0122826 4.11082e-22)
(0.655026 -0.0115499 2.80405e-22)
(0.669013 -0.0108707 -3.01804e-22)
(0.6822 -0.0102415 1.0566e-22)
(0.694645 -0.00965869 -4.75606e-23)
(0.706403 -0.00911878 2.40506e-24)
(0.717522 -0.00861861 2.43123e-23)
(0.728052 -0.008155 -2.35826e-22)
(0.738032 -0.00772526 8.27624e-23)
(0.747507 -0.00732653 -7.47062e-23)
(0.756506 -0.00695675 3.71334e-23)
(0.765072 -0.00661321 1.20064e-22)
(0.773223 -0.00629463 5.66057e-23)
(0.781008 -0.00599808 -1.10717e-22)
(0.788426 -0.00572344 2.94871e-23)
(0.795541 -0.00546678 7.83238e-24)
(0.802317 -0.00522999 -5.09957e-23)
(0.808863 -0.00500672 -2.2606e-24)
(0.815069 -0.00480276 -5.70174e-24)
(0.821145 -0.00460657 -1.0015e-23)
(0.826822 -0.0044318 1.68097e-23)
(0.832535 -0.0042562 -2.89092e-23)
(0.83768 -0.00410908 -1.43427e-23)
(0.84318 -0.00394687 3.16061e-23)
(0.847704 -0.00382908 -6.20844e-24)
(0.853243 -0.00367129 -1.77553e-23)
(0.856893 -0.00358837 2.35405e-24)
(0.862953 -0.00342354 -5.40377e-25)
(0.865132 -0.00338239 -8.3859e-25)
(0.872757 -0.00320148 -1.16629e-24)
(-0.242187 0.0222777 1.14786e-20)
(-0.255737 0.0219622 -2.28919e-20)
(-0.269126 0.0213475 1.69775e-20)
(-0.281934 0.0203626 -1.32663e-21)
(-0.293955 0.0189553 -1.30868e-20)
(-0.304852 0.0170827 1.60979e-20)
(-0.314316 0.0147273 5.46124e-22)
(-0.322035 0.011902 6.90349e-21)
(-0.327688 0.00864578 -6.24973e-21)
(-0.330918 0.00496591 -3.54036e-21)
(-0.331387 0.000950318 1.82583e-20)
(-0.328936 -0.00351437 -2.45944e-20)
(-0.323373 -0.00823747 1.64707e-20)
(-0.314494 -0.0131681 3.03697e-21)
(-0.302189 -0.0182256 -2.4158e-20)
(-0.2864 -0.0233227 1.44762e-20)
(-0.267113 -0.0283729 -1.56074e-21)
(-0.244407 -0.0332759 -2.97871e-21)
(-0.218408 -0.0379401 -7.47835e-22)
(-0.18933 -0.0422673 -6.76213e-21)
(-0.157374 -0.046204 3.30968e-21)
(-0.122906 -0.0495943 -1.45762e-21)
(-0.0863351 -0.0524195 4.56768e-21)
(-0.0479797 -0.0547488 -1.62445e-21)
(-0.0083163 -0.0562944 2.585e-21)
(0.0321754 -0.0572392 -2.24791e-21)
(0.0730943 -0.0575218 1.30484e-21)
(0.113988 -0.057284 -1.8455e-21)
(0.154461 -0.0565124 -4.6629e-22)
(0.194188 -0.0552824 5.78696e-22)
(0.23288 -0.0536732 -4.69223e-23)
(0.270302 -0.0517645 -1.15353e-23)
(0.306275 -0.0496339 1.32627e-22)
(0.340673 -0.047353 -6.75365e-22)
(0.373418 -0.0449852 4.49204e-22)
(0.404471 -0.0425848 -2.50996e-22)
(0.433829 -0.0401962 9.73405e-22)
(0.461515 -0.0378548 -9.97517e-22)
(0.487576 -0.0355872 7.10914e-22)
(0.512071 -0.0334131 -6.19664e-22)
(0.535072 -0.0313456 3.59035e-22)
(0.556656 -0.0293913 1.19327e-22)
(0.576902 -0.0275529 1.92665e-22)
(0.595893 -0.0258307 6.37363e-22)
(0.61371 -0.0242224 -1.02496e-21)
(0.630433 -0.0227244 -1.0094e-22)
(0.646137 -0.0213321 3.75482e-22)
(0.660895 -0.0200397 -2.31197e-22)
(0.674777 -0.0188416 4.99931e-23)
(0.687846 -0.0177316 -1.0412e-22)
(0.700163 -0.0167037 -1.90847e-23)
(0.711784 -0.015752 7.69882e-24)
(0.72276 -0.0148708 6.1572e-22)
(0.73314 -0.0140547 -1.65507e-22)
(0.742968 -0.0132986 1.03745e-22)
(0.752283 -0.0125979 -1.86782e-22)
(0.761125 -0.011948 1.87444e-22)
(0.769525 -0.0113455 -6.94591e-24)
(0.777521 -0.0107859 1.55611e-22)
(0.785132 -0.0102671 -2.40087e-22)
(0.792403 -0.00978426 4.31974e-23)
(0.799331 -0.00933729 1.0437e-23)
(0.805981 -0.00891968 9.24091e-24)
(0.812315 -0.00853455 -2.40217e-23)
(0.818439 -0.00817149 -1.79493e-23)
(0.824244 -0.00783996 -4.81031e-23)
(0.829934 -0.00752111 2.65568e-23)
(0.835249 -0.00723713 2.95817e-23)
(0.840608 -0.0069519 -3.9266e-23)
(0.845428 -0.00671285 7.50775e-24)
(0.850597 -0.00644955 -3.06139e-23)
(0.854838 -0.00625798 8.06722e-24)
(0.860054 -0.0060023 -3.35871e-24)
(0.863475 -0.00586699 -3.09607e-24)
(0.869194 -0.00560077 6.55351e-24)
(0.871233 -0.00553289 -6.40207e-24)
(0.878435 -0.00524182 3.49226e-25)
(-0.197264 0.0291258 1.30796e-20)
(-0.207984 0.0287066 -2.05794e-20)
(-0.218546 0.0278861 2.32213e-20)
(-0.228575 0.0265596 -2.87705e-21)
(-0.237865 0.0246546 7.73915e-21)
(-0.246103 0.0221141 8.12897e-21)
(-0.252991 0.0189114 -1.59654e-20)
(-0.258231 0.0150477 7.74067e-21)
(-0.261528 0.0105942 -1.61323e-20)
(-0.262531 0.00555879 -8.92066e-22)
(-0.261026 5.05801e-05 3.62521e-20)
(-0.256805 -0.00604799 -3.10149e-20)
(-0.249615 -0.0124951 -3.83116e-21)
(-0.239356 -0.0192236 1.96211e-20)
(-0.225913 -0.0261262 -1.37931e-21)
(-0.209244 -0.0330815 -4.78122e-21)
(-0.189335 -0.039967 2.75646e-21)
(-0.166265 -0.0466547 3.20125e-21)
(-0.14017 -0.0529958 2.31782e-21)
(-0.111292 -0.0588844 -9.50438e-22)
(-0.079788 -0.0642589 -8.11691e-21)
(-0.0459988 -0.0688723 4.89023e-21)
(-0.010426 -0.0726991 4.555e-21)
(0.026747 -0.0756724 2.88851e-21)
(0.0650635 -0.0777552 -8.41089e-21)
(0.10394 -0.078953 5.79371e-21)
(0.143062 -0.0793076 -2.12539e-21)
(0.182012 -0.0788832 1.12163e-21)
(0.220418 -0.0777357 -9.63321e-22)
(0.257975 -0.0759642 1.19337e-21)
(0.29442 -0.0736777 5.38279e-24)
(0.329546 -0.0709874 1.19797e-22)
(0.3632 -0.0680006 -1.50259e-22)
(0.39528 -0.0648162 -3.59363e-22)
(0.425726 -0.0615215 2.3487e-22)
(0.454517 -0.0581906 -9.80398e-24)
(0.481665 -0.054884 -2.56728e-22)
(0.507204 -0.0516492 1.04783e-21)
(0.531189 -0.0485222 2.22029e-22)
(0.553684 -0.0455286 -9.00388e-22)
(0.574766 -0.0426859 6.19229e-22)
(0.594513 -0.0400027 -1.09738e-21)
(0.613007 -0.0374821 -4.12198e-22)
(0.630327 -0.0351234 9.31368e-22)
(0.646553 -0.0329232 -6.91389e-22)
(0.661763 -0.0308761 1.34969e-22)
(0.676031 -0.0289749 -4.45142e-22)
(0.689426 -0.027212 2.28087e-22)
(0.702013 -0.0255789 1.05227e-22)
(0.713854 -0.024067 6.2118e-23)
(0.725006 -0.022668 -1.18626e-22)
(0.735521 -0.0213736 -4.1819e-22)
(0.745448 -0.0201758 5.91122e-22)
(0.754832 -0.0190671 -3.28676e-22)
(0.763714 -0.0180405 -1.49566e-22)
(0.77213 -0.0170896 -9.12125e-23)
(0.780119 -0.0162081 1.04315e-22)
(0.787707 -0.0153912 -3.60325e-22)
(0.794931 -0.0146328 1.60339e-22)
(0.801807 -0.01393 2.0532e-22)
(0.808377 -0.0132763 -2.10041e-23)
(0.814639 -0.0126715 -2.54561e-22)
(0.820653 -0.0121066 -7.73165e-23)
(0.826381 -0.0115859 1.31158e-22)
(0.831926 -0.0110954 -9.11458e-24)
(0.837181 -0.0106476 1.35375e-23)
(0.842342 -0.0102172 1.38811e-24)
(0.847159 -0.00983388 -3.92768e-23)
(0.852029 -0.00944917 7.57944e-23)
(0.856403 -0.00912652 -5.30142e-23)
(0.861113 -0.00877183 1.32603e-23)
(0.864962 -0.0085129 1.21431e-23)
(0.86973 -0.00816935 7.15837e-24)
(0.872833 -0.00798557 1.28436e-23)
(0.878076 -0.00762957 -8.60596e-24)
(0.879922 -0.00753598 3.71967e-24)
(0.886533 -0.00714894 -1.6662e-24)
(-0.141515 0.0341543 2.12818e-21)
(-0.148888 0.0336613 -1.81674e-20)
(-0.156106 0.0326753 3.32021e-20)
(-0.162855 0.0310627 -3.46127e-20)
(-0.168936 0.0287286 3.51059e-20)
(-0.174067 0.0256026 -1.35876e-20)
(-0.177973 0.0216514 -4.42572e-21)
(-0.180366 0.0168659 -4.20092e-20)
(-0.180989 0.0113141 6.52663e-20)
(-0.179516 0.00503449 -6.3832e-20)
(-0.175792 -0.00189532 4.70975e-20)
(-0.169598 -0.00942269 -9.3287e-21)
(-0.160695 -0.0174355 4.44537e-23)
(-0.148998 -0.0258022 -7.02997e-21)
(-0.134409 -0.0343868 -1.9015e-21)
(-0.116905 -0.0430424 1.40964e-20)
(-0.096484 -0.0516195 -7.20399e-21)
(-0.0731811 -0.059978 -4.16448e-21)
(-0.047157 -0.0678453 -5.69037e-21)
(-0.0187135 -0.0751763 -7.77507e-21)
(0.0120405 -0.0817365 1.22194e-20)
(0.0448694 -0.0874233 -1.29692e-20)
(0.0792254 -0.0921519 7.7583e-21)
(0.114837 -0.0956776 1.48083e-21)
(0.151321 -0.0982252 -5.62651e-21)
(0.1882 -0.0996358 3.90031e-21)
(0.225116 -0.0999659 -2.77036e-21)
(0.261692 -0.0992997 1.27849e-21)
(0.297594 -0.0977318 -1.38737e-21)
(0.332541 -0.0953876 -8.73973e-22)
(0.366307 -0.0924057 -9.67807e-23)
(0.398714 -0.0889276 1.47742e-22)
(0.429639 -0.0850897 -2.81878e-22)
(0.459003 -0.0810166 -4.05392e-22)
(0.486772 -0.0768181 1.02976e-21)
(0.512941 -0.0725867 -3.61328e-23)
(0.537537 -0.0683973 -1.13745e-21)
(0.560606 -0.0643085 1.70949e-21)
(0.582208 -0.060364 -1.18806e-21)
(0.602415 -0.0565946 8.00652e-22)
(0.621304 -0.053021 7.64454e-22)
(0.638957 -0.0496535 7.43393e-22)
(0.655453 -0.0464948 -1.73807e-21)
(0.670871 -0.0435432 4.90024e-22)
(0.685288 -0.0407935 6.42258e-22)
(0.698778 -0.0382381 -4.17257e-22)
(0.711411 -0.0358677 1.48427e-23)
(0.723252 -0.0336719 6.49591e-22)
(0.734364 -0.0316398 -9.95472e-22)
(0.744804 -0.0297605 1.08791e-21)
(0.754624 -0.028023 1.42735e-22)
(0.763873 -0.0264167 -6.82369e-22)
(0.772598 -0.0249315 8.37757e-22)
(0.780838 -0.0235579 -4.53842e-22)
(0.788632 -0.0222868 -3.47973e-22)
(0.796012 -0.0211104 6.50523e-22)
(0.803015 -0.0200204 -1.24039e-22)
(0.809663 -0.019011 1.83546e-22)
(0.815991 -0.0180744 1.32983e-22)
(0.822013 -0.0172071 -1.89749e-22)
(0.827767 -0.0164009 1.30125e-22)
(0.833251 -0.0156555 9.91879e-23)
(0.83852 -0.0149597 -1.03217e-22)
(0.843539 -0.014319 -5.88081e-23)
(0.848402 -0.0137157 7.79751e-23)
(0.853011 -0.0131655 1.0123e-22)
(0.857545 -0.0126369 3.65625e-23)
(0.861775 -0.0121664 -2.9861e-23)
(0.866065 -0.0116946 -3.08263e-23)
(0.869909 -0.0112985 5.29195e-23)
(0.874072 -0.0108643 1.59118e-23)
(0.877457 -0.0105458 -2.72222e-23)
(0.881686 -0.0101268 2.05511e-23)
(0.884414 -0.00989929 5.69736e-24)
(0.889081 -0.00946779 1.22906e-23)
(0.8907 -0.00934975 2.14066e-24)
(0.896595 -0.008884 3.32141e-24)
(-0.0812114 0.0366268 3.86028e-20)
(-0.0848579 0.0355228 -4.68193e-20)
(-0.0881005 0.0336928 6.07924e-21)
(-0.0907564 0.0310148 2.19372e-20)
(-0.0925831 0.0274048 -2.2383e-20)
(-0.0933361 0.0228265 -3.63768e-20)
(-0.0927522 0.0172627 2.50962e-20)
(-0.0906066 0.0107576 3.28395e-20)
(-0.0865851 0.00341359 -7.47581e-21)
(-0.0806106 -0.00475617 3.27823e-20)
(-0.0724484 -0.0135992 -4.60474e-20)
(-0.0618752 -0.0230102 -1.63862e-20)
(-0.0488166 -0.0328427 4.29329e-20)
(-0.0331906 -0.0429373 -1.17264e-20)
(-0.0149969 -0.0531327 9.97109e-21)
(0.00572555 -0.0632016 -4.15522e-20)
(0.029056 -0.0729343 4.01533e-20)
(0.0548121 -0.0821919 -2.79129e-20)
(0.0826522 -0.0908131 3.36632e-21)
(0.112422 -0.0984276 2.37017e-20)
(0.143921 -0.105046 -1.20521e-20)
(0.176694 -0.110525 1.19327e-21)
(0.210436 -0.114667 9.98252e-22)
(0.244772 -0.117524 -9.46496e-21)
(0.279291 -0.119044 3.04593e-21)
(0.313641 -0.119276 1.79727e-21)
(0.347485 -0.118319 1.16952e-21)
(0.380528 -0.116294 1.35725e-21)
(0.412527 -0.113356 -2.96901e-23)
(0.44329 -0.109671 4.38329e-22)
(0.472676 -0.105411 -2.39324e-23)
(0.500593 -0.10074 -9.55383e-23)
(0.52699 -0.0958053 9.3419e-22)
(0.551854 -0.0907382 -1.00401e-21)
(0.5752 -0.0856476 1.35097e-21)
(0.597067 -0.0806214 -1.33133e-21)
(0.617508 -0.0757277 -3.46141e-22)
(0.636592 -0.0710166 -1.80783e-21)
(0.654392 -0.0665231 2.4298e-21)
(0.670986 -0.0622696 2.61462e-22)
(0.686454 -0.0582681 -4.71972e-22)
(0.700874 -0.0545207 -1.17996e-21)
(0.714319 -0.0510239 -2.20771e-21)
(0.726863 -0.0477708 4.93071e-23)
(0.738575 -0.0447513 2.22692e-21)
(0.74952 -0.0419537 -1.27452e-21)
(0.759759 -0.0393651 -8.80361e-22)
(0.769348 -0.0369721 9.37617e-22)
(0.778341 -0.0347614 9.90126e-24)
(0.786786 -0.0327194 -2.27226e-23)
(0.794728 -0.0308336 -6.57912e-22)
(0.802207 -0.0290915 -7.43505e-23)
(0.80926 -0.0274818 3.78373e-22)
(0.815924 -0.0259934 -2.14033e-22)
(0.822227 -0.0246169 -1.22937e-22)
(0.828201 -0.0233426 5.22302e-23)
(0.833867 -0.0221634 -5.13207e-22)
(0.839257 -0.0210702 -1.68101e-22)
(0.844382 -0.0200586 2.44366e-22)
(0.849277 -0.019119 1.63425e-22)
(0.85394 -0.0182511 -3.0474e-22)
(0.858421 -0.0174418 1.88602e-23)
(0.862687 -0.0166972 1.36449e-23)
(0.866825 -0.0159968 -1.70792e-22)
(0.870744 -0.0153586 -3.11605e-23)
(0.874609 -0.0147463 -1.55814e-23)
(0.878209 -0.0142012 -9.48315e-23)
(0.881875 -0.0136558 -9.59255e-24)
(0.88515 -0.013197 -1.02504e-22)
(0.88872 -0.0126963 -4.28358e-24)
(0.891605 -0.0123265 -1.45018e-23)
(0.895248 -0.0118454 4.99659e-24)
(0.897571 -0.0115792 -5.07373e-23)
(0.901607 -0.0110876 -9.94555e-24)
(0.902981 -0.0109466 -5.00134e-24)
(0.908089 -0.0104204 -4.634e-24)
(-0.00722052 0.0375753 -3.30415e-20)
(-0.00738545 0.0363959 4.16156e-20)
(-0.00717882 0.0344104 -2.86072e-20)
(-0.00645668 0.0314785 -7.48586e-21)
(-0.00501685 0.0275009 2.25189e-20)
(-0.00265745 0.0224241 3.15174e-20)
(0.000847798 0.0162353 -3.47145e-20)
(0.0057056 0.00895452 -3.44594e-20)
(0.0121729 0.000751465 6.90369e-20)
(0.0202923 -0.00848804 -6.4428e-20)
(0.0303248 -0.0184567 5.70384e-21)
(0.042441 -0.0290685 5.58471e-20)
(0.0567164 -0.0401678 -3.43647e-21)
(0.0732205 -0.0515722 -3.80525e-20)
(0.091963 -0.0631052 -8.19772e-21)
(0.112887 -0.0744711 5.23484e-21)
(0.136014 -0.0854017 1.81367e-20)
(0.161207 -0.0958714 -3.91341e-20)
(0.188192 -0.105581 3.58791e-20)
(0.216752 -0.114212 -2.31272e-20)
(0.246684 -0.121656 -3.80075e-21)
(0.277592 -0.127749 1.62192e-20)
(0.309163 -0.132343 1.32063e-22)
(0.341047 -0.135425 1.38468e-20)
(0.372881 -0.136974 -1.09341e-20)
(0.404342 -0.137048 -5.1912e-21)
(0.435137 -0.135757 8.77021e-21)
(0.465015 -0.133251 -5.14816e-21)
(0.493778 -0.129711 -9.18574e-22)
(0.521276 -0.125333 -1.17143e-21)
(0.547407 -0.120314 4.23905e-22)
(0.572114 -0.114843 2.74328e-22)
(0.595375 -0.109091 5.026e-22)
(0.617198 -0.103206 -4.63838e-22)
(0.637615 -0.0973123 -8.03652e-23)
(0.656676 -0.0915086 1.97071e-22)
(0.674443 -0.0858707 -1.12051e-21)
(0.690983 -0.0804539 1.57249e-21)
(0.70637 -0.0752963 -1.93268e-21)
(0.72068 -0.0704212 2.8758e-21)
(0.733987 -0.0658416 -1.8743e-21)
(0.746365 -0.0615588 2.1017e-21)
(0.757881 -0.0575678 -8.23084e-22)
(0.768601 -0.0538593 -1.13472e-22)
(0.778588 -0.0504212 -3.76229e-22)
(0.787901 -0.0472392 -6.82353e-22)
(0.796593 -0.0442981 1.56611e-21)
(0.804716 -0.041582 7.46002e-22)
(0.812316 -0.0390752 -1.98654e-21)
(0.819438 -0.0367622 1.1297e-22)
(0.826121 -0.0346281 -1.29147e-24)
(0.832403 -0.0326584 1.02872e-21)
(0.838315 -0.0308402 5.92681e-23)
(0.843889 -0.0291605 5.84911e-22)
(0.849152 -0.0276085 -5.85469e-22)
(0.854131 -0.0261729 -2.98125e-23)
(0.858846 -0.0248455 5.84542e-22)
(0.863324 -0.0236159 -5.51809e-22)
(0.867576 -0.0224793 4.90439e-22)
(0.871633 -0.0214245 -7.33331e-23)
(0.875492 -0.0204512 -8.90718e-24)
(0.8792 -0.0195447 2.44392e-22)
(0.882725 -0.0187118 -3.70765e-22)
(0.886147 -0.0179293 -4.29769e-25)
(0.889384 -0.017217 5.5739e-23)
(0.892583 -0.0165348 1.03e-22)
(0.895557 -0.0159276 2.52067e-23)
(0.8986 -0.0153216 4.69729e-24)
(0.901306 -0.0148105 6.59431e-24)
(0.904279 -0.0142561 5.85102e-24)
(0.906665 -0.013843 4.87276e-23)
(0.909711 -0.0133131 5.45918e-24)
(0.91163 -0.0130131 4.1436e-24)
(0.915019 -0.0124762 -6.7862e-25)
(0.916149 -0.0123137 9.79103e-24)
(0.920448 -0.0117445 2.34859e-24)
(0.0717754 0.0366855 4.63534e-20)
(0.0746635 0.0354495 -5.00269e-20)
(0.0779545 0.0333548 4.45197e-20)
(0.0817447 0.0302479 -5.4563e-20)
(0.0861784 0.0260103 3.13735e-20)
(0.0914103 0.0205678 4.82845e-20)
(0.0976182 0.0139055 -7.05779e-20)
(0.105004 0.00603072 8.45842e-20)
(0.113711 -0.00292179 -6.35317e-20)
(0.123798 -0.0129706 -2.78938e-20)
(0.135541 -0.0238524 7.82068e-21)
(0.149035 -0.0354591 5.63794e-20)
(0.164362 -0.0476164 -5.50948e-20)
(0.181578 -0.0601186 5.24882e-20)
(0.200691 -0.0727647 -3.20846e-21)
(0.221637 -0.0852605 6.46563e-21)
(0.244407 -0.0973384 -1.885e-20)
(0.268871 -0.108824 1.25836e-20)
(0.294787 -0.119451 -2.36644e-21)
(0.321921 -0.128904 -1.04966e-20)
(0.350053 -0.137018 1.87776e-20)
(0.378835 -0.143607 -1.84809e-20)
(0.407958 -0.14853 1.49378e-20)
(0.437102 -0.151745 -3.73017e-21)
(0.46595 -0.15325 -1.14152e-20)
(0.494222 -0.15311 -4.67031e-21)
(0.521675 -0.151453 5.03863e-21)
(0.54811 -0.148455 -3.496e-21)
(0.573381 -0.144322 -1.90082e-21)
(0.597388 -0.139275 4.44809e-21)
(0.620073 -0.133538 -1.21646e-21)
(0.641414 -0.127321 3.27588e-22)
(0.661419 -0.120814 9.63776e-22)
(0.680119 -0.114181 -2.44448e-21)
(0.697561 -0.107557 2.07908e-21)
(0.713801 -0.10105 4.73563e-22)
(0.728904 -0.0947417 -1.37827e-21)
(0.742937 -0.0886914 -1.24133e-21)
(0.75597 -0.082939 2.12701e-21)
(0.768072 -0.0775083 -5.07347e-22)
(0.779308 -0.0724121 1.802e-21)
(0.789745 -0.0676518 -2.46771e-21)
(0.799441 -0.0632205 1.35491e-21)
(0.808452 -0.0591067 -2.68498e-23)
(0.816833 -0.0552962 -1.59918e-21)
(0.824632 -0.0517726 2.56707e-21)
(0.831898 -0.0485186 -1.73435e-21)
(0.838673 -0.045516 2.01009e-21)
(0.844999 -0.0427472 -2.10808e-21)
(0.850912 -0.0401946 1.1463e-21)
(0.856447 -0.0378414 6.38798e-22)
(0.861637 -0.0356714 2.76054e-22)
(0.866509 -0.03367 -4.9519e-22)
(0.871091 -0.0318226 2.25966e-22)
(0.875406 -0.0301171 -2.82347e-22)
(0.879479 -0.0285408 -6.16789e-22)
(0.883325 -0.0270846 2.79161e-22)
(0.88697 -0.0257367 5.33749e-23)
(0.890421 -0.024492 1.42584e-22)
(0.893709 -0.0233381 3.39185e-22)
(0.896828 -0.0222745 -4.056e-22)
(0.899821 -0.0212854 2.52173e-22)
(0.902661 -0.0203776 4.34126e-22)
(0.905418 -0.0195264 -1.27284e-22)
(0.908019 -0.0187523 -4.3923e-23)
(0.910596 -0.0180127 1.07231e-22)
(0.912984 -0.0173542 -1.75176e-23)
(0.915438 -0.0166996 2.20819e-23)
(0.917612 -0.0161456 1.08798e-22)
(0.920018 -0.015549 -5.16089e-23)
(0.921933 -0.0150997 7.17105e-23)
(0.924407 -0.014533 2.42328e-23)
(0.925946 -0.0142035 3.91042e-24)
(0.928709 -0.0136348 1.46541e-23)
(0.929612 -0.0134524 -1.26631e-24)
(0.933125 -0.0128552 3.29376e-24)
(0.155722 0.0343424 -1.17694e-19)
(0.160873 0.0330243 -2.35388e-20)
(0.166559 0.0308305 7.91483e-20)
(0.172817 0.0275901 -2.04867e-20)
(0.179727 0.0231646 5.05058e-20)
(0.187383 0.0174671 -4.10035e-20)
(0.195903 0.0104616 2.19683e-21)
(0.205454 0.00216386 3.17179e-20)
(0.216125 -0.00739047 -9.29932e-21)
(0.227957 -0.0180387 -3.81096e-20)
(0.241165 -0.0296472 4.21549e-20)
(0.255834 -0.042062 1.59743e-21)
(0.272026 -0.0550899 -1.19294e-20)
(0.289781 -0.0685046 1.29706e-21)
(0.309095 -0.0820793 4.67609e-20)
(0.329898 -0.0955105 -2.67732e-20)
(0.352145 -0.108515 -3.30271e-20)
(0.375703 -0.12085 1.31008e-21)
(0.400347 -0.132233 3.88878e-20)
(0.425838 -0.142348 -2.32849e-20)
(0.451938 -0.150983 1.85017e-20)
(0.478336 -0.157937 -2.40952e-20)
(0.504739 -0.16307 2.20102e-21)
(0.530861 -0.166326 2.35746e-20)
(0.556436 -0.167714 -1.34322e-20)
(0.581235 -0.167312 -7.26675e-22)
(0.605074 -0.165268 1.44115e-21)
(0.627818 -0.16178 2.97681e-21)
(0.649379 -0.157078 -5.8964e-21)
(0.669709 -0.151407 1.188e-21)
(0.688799 -0.145013 9.86299e-22)
(0.706665 -0.138123 9.81783e-22)
(0.723344 -0.130943 -6.85792e-22)
(0.738887 -0.123648 2.32405e-23)
(0.75335 -0.116383 -1.36903e-21)
(0.766798 -0.109262 2.24184e-21)
(0.779293 -0.10237 -9.85198e-22)
(0.790897 -0.0957687 2.5236e-21)
(0.801673 -0.0894998 -3.07657e-21)
(0.811677 -0.0835867 1.48341e-24)
(0.820967 -0.0780413 2.02787e-21)
(0.829595 -0.0728652 -6.92575e-22)
(0.83761 -0.0680501 4.59938e-22)
(0.845058 -0.0635828 -1.17163e-21)
(0.851979 -0.059447 -7.54066e-22)
(0.858415 -0.0556247 2.52187e-21)
(0.864403 -0.0520966 -1.89699e-21)
(0.869979 -0.0488431 3.04048e-22)
(0.875175 -0.0458445 1.36579e-23)
(0.880022 -0.0430817 7.71423e-22)
(0.884549 -0.0405365 4.02917e-22)
(0.888783 -0.038191 -7.95986e-22)
(0.892746 -0.0360291 -5.10619e-22)
(0.896463 -0.034035 5.07248e-22)
(0.899952 -0.0321954 -2.904e-22)
(0.903235 -0.0304963 9.75171e-23)
(0.906324 -0.0289278 8.99025e-22)
(0.909242 -0.0274771 -6.20812e-22)
(0.911996 -0.0261387 -3.25634e-22)
(0.91461 -0.0248991 9.07483e-23)
(0.917082 -0.0237578 -1.23612e-22)
(0.919447 -0.022698 -3.01368e-22)
(0.921684 -0.0217266 1.43608e-22)
(0.923853 -0.0208178 2.50802e-22)
(0.925894 -0.0199921 -2.33273e-22)
(0.927916 -0.0192057 -3.36464e-24)
(0.929785 -0.018505 -1.4686e-22)
(0.931712 -0.0178119 7.60978e-23)
(0.933411 -0.0172226 -8.11229e-23)
(0.935303 -0.016594 -7.25078e-23)
(0.9368 -0.0161144 2.04086e-23)
(0.938752 -0.015521 -1.48409e-23)
(0.939952 -0.0151659 -2.94324e-23)
(0.942139 -0.014576 -2.70465e-25)
(0.94284 -0.0143754 -1.69429e-23)
(0.945626 -0.0137617 1.72536e-24)
(0.245735 0.0311198 -4.95194e-21)
(0.252024 0.0296316 -1.15888e-19)
(0.259094 0.027284 8.59703e-20)
(0.266928 0.0238916 5.57455e-20)
(0.275537 0.0192987 -6.15562e-20)
(0.284942 0.0134035 -2.62558e-20)
(0.295203 0.00614902 -6.70506e-20)
(0.306415 -0.00245335 1.34194e-19)
(0.318616 -0.012406 -2.56525e-20)
(0.331832 -0.0235286 -4.14502e-20)
(0.346192 -0.0356895 1.73122e-20)
(0.36176 -0.0487267 -3.77519e-23)
(0.378573 -0.0624347 -2.02662e-20)
(0.396643 -0.0765741 2.16846e-20)
(0.415944 -0.090893 5.1381e-22)
(0.436394 -0.105077 -1.963e-20)
(0.45791 -0.118817 2.96182e-20)
(0.480346 -0.131825 -2.34755e-20)
(0.503484 -0.143796 -2.16115e-20)
(0.52708 -0.154406 3.66044e-20)
(0.550888 -0.163408 -1.02467e-20)
(0.574625 -0.170594 1.83333e-20)
(0.598022 -0.175817 -3.02221e-20)
(0.620837 -0.179023 1.73267e-20)
(0.642858 -0.180228 5.38104e-21)
(0.663923 -0.179528 -1.17485e-20)
(0.683913 -0.177088 3.87921e-21)
(0.702761 -0.173129 -1.64743e-21)
(0.720443 -0.167901 -5.10995e-21)
(0.736971 -0.161671 1.50373e-21)
(0.75238 -0.154698 2.53853e-21)
(0.766726 -0.147228 2.36314e-23)
(0.780069 -0.139474 3.99883e-22)
(0.792477 -0.131621 6.92299e-22)
(0.804016 -0.123818 -2.26854e-21)
(0.814747 -0.116183 1.81406e-21)
(0.82473 -0.108804 -9.27804e-23)
(0.834018 -0.101743 -2.33252e-21)
(0.842661 -0.0950426 1.30705e-21)
(0.850704 -0.0887257 -2.10545e-21)
(0.85819 -0.0828025 2.63854e-21)
(0.865158 -0.0772751 -9.50776e-22)
(0.871644 -0.0721346 1.60548e-21)
(0.877681 -0.0673663 -1.74752e-21)
(0.883299 -0.0629527 -6.74345e-22)
(0.888527 -0.0588741 -3.66905e-25)
(0.893392 -0.0551101 1.59395e-21)
(0.89792 -0.0516396 -4.0658e-22)
(0.902137 -0.048442 4.87987e-22)
(0.906066 -0.0454967 -4.85907e-22)
(0.909729 -0.0427843 -1.08754e-21)
(0.913147 -0.0402858 8.87273e-22)
(0.916339 -0.0379839 -8.99447e-22)
(0.919323 -0.0358617 6.18802e-22)
(0.922116 -0.0339049 1.81947e-22)
(0.924734 -0.0320984 -5.6283e-22)
(0.927188 -0.0304317 -8.66355e-22)
(0.929496 -0.0288913 -1.9446e-22)
(0.931664 -0.0274708 9.18689e-22)
(0.933713 -0.0261566 -1.7014e-22)
(0.935641 -0.0249477 -2.27884e-23)
(0.937478 -0.0238269 1.30255e-22)
(0.939207 -0.0228007 1.7266e-23)
(0.940879 -0.0218431 -4.5889e-22)
(0.942444 -0.0209737 3.25773e-23)
(0.943995 -0.0201488 1.84549e-22)
(0.945423 -0.0194133 -1.8508e-22)
(0.946897 -0.0186898 1.38831e-22)
(0.948193 -0.0180715 1.1643e-22)
(0.949641 -0.0174187 -2.38402e-23)
(0.950781 -0.0169138 -5.10731e-23)
(0.952277 -0.0163016 -1.04291e-23)
(0.953191 -0.0159239 -1.63025e-23)
(0.954869 -0.015321 3.6558e-24)
(0.955401 -0.0151036 1.3163e-24)
(0.957542 -0.0144815 -5.12233e-24)
(0.343545 0.02777 3.89399e-20)
(0.349608 0.0259484 -1.70686e-20)
(0.35681 0.0233244 7.8646e-20)
(0.365084 0.0196941 -2.28632e-22)
(0.374378 0.014888 -9.49359e-20)
(0.384638 0.00878452 -6.77582e-20)
(0.395853 0.00125057 5.73838e-20)
(0.408046 -0.00754644 -5.53243e-21)
(0.42119 -0.0177652 4.47028e-20)
(0.435276 -0.0292322 -9.19594e-20)
(0.450346 -0.0417983 3.55464e-20)
(0.466421 -0.0552943 6.13253e-21)
(0.4835 -0.0695076 2.21384e-20)
(0.501557 -0.0841886 4.60658e-20)
(0.520536 -0.0990638 -2.65812e-20)
(0.540333 -0.113811 -8.85574e-21)
(0.560826 -0.1281 -7.42439e-21)
(0.581847 -0.141604 4.99447e-20)
(0.603177 -0.153991 1.10822e-21)
(0.62457 -0.16493 -8.9793e-21)
(0.645778 -0.17415 -2.02236e-20)
(0.666545 -0.181433 2.09277e-20)
(0.686636 -0.186636 -3.2398e-20)
(0.705859 -0.189708 2.06546e-20)
(0.72407 -0.190678 -1.582e-20)
(0.741174 -0.189659 1.25955e-20)
(0.757131 -0.186835 -8.25856e-21)
(0.771946 -0.182443 7.40669e-21)
(0.785659 -0.176754 -8.0081e-21)
(0.79834 -0.170048 2.88781e-21)
(0.810067 -0.162598 -2.34685e-21)
(0.820928 -0.154655 2.26074e-21)
(0.831004 -0.146442 -6.9779e-22)
(0.840372 -0.138145 1.19077e-22)
(0.849099 -0.129918 -3.52342e-22)
(0.857244 -0.121877 -4.73884e-22)
(0.864856 -0.114114 1.79937e-21)
(0.871976 -0.106689 -7.26247e-23)
(0.87864 -0.0996449 -2.93397e-21)
(0.884878 -0.0930044 3.63233e-21)
(0.890717 -0.0867767 -1.8085e-21)
(0.896181 -0.0809627 2.43566e-21)
(0.901294 -0.0755549 -3.17502e-21)
(0.906074 -0.0705378 3.93372e-21)
(0.91054 -0.0658926 -1.47572e-21)
(0.914708 -0.061599 -1.49444e-21)
(0.918596 -0.0576357 1.92355e-21)
(0.922221 -0.0539809 -2.33374e-21)
(0.9256 -0.0506132 1.24124e-21)
(0.928748 -0.0475112 4.46803e-22)
(0.931682 -0.0446546 6.7894e-22)
(0.934416 -0.0420237 -1.00488e-21)
(0.936965 -0.0396004 5.6824e-22)
(0.939342 -0.0373666 2.55335e-22)
(0.94156 -0.0353074 -2.05477e-22)
(0.943632 -0.033407 -4.60391e-22)
(0.945566 -0.0316542 -2.98308e-22)
(0.947376 -0.0300347 7.08972e-22)
(0.949066 -0.028542 3.37554e-22)
(0.950656 -0.0271621 -7.69928e-22)
(0.952141 -0.0258936 1.11311e-22)
(0.953548 -0.0247193 1.18987e-22)
(0.954864 -0.0236452 -2.10884e-22)
(0.956129 -0.0226455 3.54199e-23)
(0.957308 -0.0217386 1.74133e-22)
(0.958472 -0.0208817 -9.743e-23)
(0.95954 -0.0201167 -9.36761e-23)
(0.960641 -0.0193691 1.36221e-22)
(0.961606 -0.0187266 5.75105e-23)
(0.962686 -0.0180557 -7.81311e-23)
(0.963535 -0.0175292 -8.04811e-25)
(0.964648 -0.0169039 3.46341e-23)
(0.965328 -0.0165064 -1.21994e-23)
(0.966576 -0.0158956 -1.67089e-24)
(0.966971 -0.0156631 1.1049e-23)
(0.968565 -0.0150369 -1.52335e-24)
(0.454913 0.0227418 -3.51336e-20)
(0.460913 0.0196576 -4.53561e-21)
(0.468379 0.0156403 -3.07395e-20)
(0.477207 0.0105148 1.28928e-19)
(0.487236 0.00413398 -1.04941e-19)
(0.498499 -0.00361072 -5.88728e-20)
(0.51086 -0.0126437 1.19483e-20)
(0.524173 -0.0231129 5.28563e-20)
(0.538447 -0.0348467 3.05699e-20)
(0.553632 -0.0477114 7.39153e-20)
(0.569681 -0.0615386 -1.75938e-19)
(0.586541 -0.0761112 1.18759e-19)