0.517293 	0 	0 	-0.310665
0.517293 	0 	5.55112e-18 	-0.310665
0.55252 	1.72534e-18 	1.59461e-18 	-0.315433
0.589056 	0 	-2.35922e-17 	-0.317761
0.589056 	1.72534e-18 	3.23034e-18 	-0.317761
0.62695 	0 	-2.35922e-17 	-0.318026
0.62695 	1.72534e-18 	6.60932e-18 	-0.318026
0.666252 	0 	-2.35922e-17 	-0.316992
0.666252 	1.72534e-18 	8.26109e-18 	-0.316992
0.707014 	0 	-2.35922e-17 	-0.314916
0.707014 	1.72534e-18 	8.18481e-18 	-0.314916
0.749291 	0 	-2.35922e-17 	-0.311923
0.749291 	1.72534e-18 	8.11447e-18 	-0.311923
0.793139 	0 	-2.35922e-17 	-0.308134
0.793139 	1.72534e-18 	8.04945e-18 	-0.308134
0.838615 	0 	-2.35922e-17 	-0.303654
0.838615 	1.72534e-18 	7.98919e-18 	-0.303654
0.885781 	0 	-2.35922e-17 	-0.298571
0.885781 	1.72534e-18 	7.93324e-18 	-0.298571
0.9347 	0 	-2.35922e-17 	-0.292965
0.9347 	1.72534e-18 	7.88117e-18 	-0.292965
0.985436 	0 	-2.35922e-17 	-0.28691
0.985436 	1.72534e-18 	7.83264e-18 	-0.28691
1.03806 	0 	-2.35922e-17 	-0.280482
1.03806 	1.72534e-18 	7.78731e-18 	-0.280482
1.09263 	0 	-2.35922e-17 	-0.273758
1.09263 	1.72534e-18 	7.74492e-18 	-0.273758
1.14924 	0 	-2.498e-17 	-0.266823
1.14924 	1.72534e-18 	7.70521e-18 	-0.266823
1.20795 	0 	-2.498e-17 	-0.259769
1.20795 	1.72534e-18 	6.28017e-18 	-0.259769
1.26884 	0 	-2.35922e-17 	-0.252692
1.26884 	1.72534e-18 	4.8574e-18 	-0.252692
1.33199 	0 	-2.35922e-17 	-0.245666
1.33199 	1.72534e-18 	3.4367e-18 	-0.245666
1.39748 	0 	-2.35922e-17 	-0.23878
1.39748 	1.72534e-18 	2.83206e-19 	-0.23878
1.46541 	0 	-2.35922e-17 	-0.232379
1.46541 	1.72534e-18 	-1.48074e-18 	-0.232379
1.53542 	0 	-2.498e-17 	-0.227014
1.53542 	1.72534e-18 	-1.49468e-18 	-0.227014
1.60625 	0 	-2.63678e-17 	-0.220891
1.60625 	1.72534e-18 	-1.4942e-18 	-0.220891
1.67708 	0 	-2.63678e-17 	-0.214527
1.67708 	1.72534e-18 	-1.49372e-18 	-0.214527
1.74792 	0 	-2.498e-17 	-0.20825
1.74792 	1.72534e-18 	-1.49323e-18 	-0.20825
1.81875 	0 	-2.35922e-17 	-0.202078
1.81875 	1.72534e-18 	-1.49275e-18 	-0.202078
1.88958 	0 	-2.35922e-17 	-0.195982
1.88958 	1.72534e-18 	-1.49227e-18 	-0.195982
1.96042 	0 	-2.22045e-17 	-0.189964
1.96042 	1.72534e-18 	-1.49178e-18 	-0.189964
2.03125 	0 	-2.08167e-17 	-0.184035
2.03125 	1.72534e-18 	-4.6138e-18 	-0.184035
2.10208 	1.72534e-18 	-7.38887e-18 	-0.178203
2.10208 	0 	-2.08167e-17 	-0.178203
2.17292 	1.72534e-18 	-7.04144e-18 	-0.172474
2.17292 	0 	-1.94289e-17 	-0.172474
2.24375 	1.72534e-18 	-8.42873e-18 	-0.166854
2.24375 	0 	-1.66533e-17 	-0.166854
2.31458 	1.72534e-18 	-8.42824e-18 	-0.161349
2.31458 	0 	-1.52656e-17 	-0.161349
2.38542 	1.72534e-18 	-5.65219e-18 	-0.155962
2.38542 	0 	-1.38778e-17 	-0.155962
2.45625 	1.72534e-18 	-4.26392e-18 	-0.150697
2.45625 	0 	-1.249e-17 	-0.150697
2.52708 	1.72534e-18 	-5.99815e-18 	-0.145559
2.52708 	0 	-1.11022e-17 	-0.145559
2.59792 	1.72534e-18 	-7.38544e-18 	-0.140549
2.59792 	0 	-1.11022e-17 	-0.140549
2.66875 	1.72534e-18 	-8.42578e-18 	-0.135671
2.66875 	0 	-1.249e-17 	-0.135671
2.73958 	1.72534e-18 	-8.42529e-18 	-0.130926
2.73958 	0 	-1.249e-17 	-0.130926
2.81042 	1.72534e-18 	-7.33502e-18 	-0.126315
2.81042 	0 	-1.249e-17 	-0.126315
2.88125 	0 	9.71445e-18 	-0.121838
2.88125 	0 	1.73472e-18 	-0.121838
2.95208 	0 	1.73472e-18 	-0.117496
2.95208 	0 	9.71445e-18 	-0.117496
3.02292 	0 	0 	-0.113288
3.02292 	0 	9.71445e-18 	-0.113288
3.09375 	0 	1.73472e-18 	-0.109214
3.09375 	0 	8.32667e-18 	-0.109214
3.16458 	0 	3.46945e-18 	-0.105271
3.16458 	0 	8.32667e-18 	-0.105271
3.23542 	0 	3.46945e-18 	-0.101459
3.23542 	0 	1.11022e-17 	-0.101459
3.30625 	0 	5.20417e-18 	-0.0977745
3.30625 	0 	1.249e-17 	-0.0977745
3.37708 	0 	1.38778e-17 	-0.0942165
3.37708 	0 	6.93889e-18 	-0.0942165
3.44792 	0 	6.93889e-18 	-0.0907821
3.44792 	0 	1.38778e-17 	-0.0907821
3.51875 	0 	1.249e-17 	-0.0874684
3.51875 	0 	6.93889e-18 	-0.0874684
3.58958 	0 	6.93889e-18 	-0.0842728
3.58958 	0 	1.249e-17 	-0.0842728
3.66042 	0 	1.249e-17 	-0.0811921
3.66042 	0 	3.81639e-18 	-0.0811921
3.73125 	0 	2.42861e-18 	-0.0782233
3.73125 	0 	1.249e-17 	-0.0782233
3.80208 	0 	1.249e-17 	-0.0753631
3.80208 	0 	4.16334e-18 	-0.0753631
3.87292 	0 	4.16334e-18 	-0.0726083
3.87292 	0 	1.11022e-17 	-0.0726083
3.94375 	0 	2.77556e-18 	-0.0699556
3.94375 	0 	9.71445e-18 	-0.0699556
4.01458 	0 	1.38778e-18 	-0.0674018
4.01458 	0 	1.11022e-17 	-0.0674018
4.08542 	0 	1.04083e-18 	-0.0649434
4.08542 	0 	1.11022e-17 	-0.0649434
4.15625 	0 	2.08167e-18 	-0.0625773
4.15625 	0 	9.71445e-18 	-0.0625773
4.22708 	0 	1.73472e-18 	-0.0603001
4.22708 	0 	8.32667e-18 	-0.0603001
4.29792 	0 	0 	-0.0581087
4.29792 	0 	6.93889e-18 	-0.0581087
4.36875 	0 	0 	-0.0559999
4.36875 	0 	6.93889e-18 	-0.0559999
4.43958 	0 	6.93889e-18 	-0.0539706
4.43958 	0 	0 	-0.0539706
4.51042 	0 	-1.38778e-18 	-0.0520177
4.51042 	0 	6.93889e-18 	-0.0520177
4.58125 	0 	-1.38778e-18 	-0.0501384
4.58125 	0 	6.93889e-18 	-0.0501384
4.65208 	0 	6.93889e-18 	-0.0483296
4.65208 	0 	0 	-0.0483296
4.72292 	0 	8.32667e-18 	-0.0465886
4.72292 	0 	1.73472e-18 	-0.0465886
4.79375 	0 	3.46945e-18 	-0.0449127
4.79375 	0 	8.32667e-18 	-0.0449127
4.86458 	0 	3.46945e-18 	-0.0432992
4.86458 	0 	6.93889e-18 	-0.0432992
4.93542 	0 	6.93889e-18 	-0.0417455
4.93542 	0 	2.08167e-18 	-0.0417455
5.00625 	0 	6.93889e-19 	-0.0402492
5.00625 	0 	6.93889e-18 	-0.0402492
5.07708 	0 	6.93889e-19 	-0.0388078
5.07708 	0 	6.93889e-18 	-0.0388078
5.14792 	0 	2.42861e-18 	-0.0374192
5.14792 	0 	6.93889e-18 	-0.0374192
5.21875 	0 	4.16334e-18 	-0.036081
5.21875 	0 	6.93889e-18 	-0.036081
5.28958 	0 	4.16334e-18 	-0.0347911
5.28958 	0 	6.93889e-18 	-0.0347911
5.36042 	0 	4.16334e-18 	-0.0335474
5.36042 	0 	6.93889e-18 	-0.0335474
5.43125 	0 	5.55112e-18 	-0.032348
5.43125 	0 	6.93889e-18 	-0.032348
5.50208 	0 	6.93889e-18 	-0.031191
5.50208 	0 	6.93889e-18 	-0.031191
5.57292 	0 	6.93889e-18 	-0.0300746
5.57292 	0 	6.93889e-18 	-0.0300746
5.64375 	0 	6.93889e-18 	-0.028997
5.64375 	0 	6.93889e-18 	-0.028997
5.71458 	0 	6.93889e-18 	-0.0279565
5.71458 	0 	4.16334e-18 	-0.0279565
5.78542 	0 	6.93889e-18 	-0.0269516
5.78542 	0 	1.38778e-18 	-0.0269516
5.85625 	0 	6.93889e-18 	-0.0259807
5.85625 	0 	1.38778e-18 	-0.0259807
5.92708 	0 	6.93889e-18 	-0.0250424
5.92708 	0 	1.38778e-18 	-0.0250424
5.99792 	0 	6.93889e-18 	-0.0241352
5.99792 	0 	1.38778e-18 	-0.0241352
6.06875 	0 	6.93889e-18 	-0.0232579
6.06875 	0 	1.38778e-18 	-0.0232579
6.13958 	0 	6.93889e-18 	-0.022409
6.13958 	0 	0 	-0.022409
6.21042 	0 	6.93889e-18 	-0.0215875
6.28125 	0 	6.93889e-18 	-0.0207922
6.35208 	0 	6.93889e-18 	-0.0200219
6.42292 	0 	0 	-0.0192756
6.42292 	0 	0 	-0.0192756
6.49375 	0 	0 	-0.0185523
6.49375 	0 	0 	-0.0185523
6.56458 	0 	0 	-0.017851
6.56458 	0 	0 	-0.017851
6.63542 	0 	0 	-0.0171707
6.63542 	0 	0 	-0.0171707
6.70625 	0 	-1.73472e-18 	-0.0165107
6.70625 	0 	-1.38778e-18 	-0.0165107
6.77708 	0 	-1.73472e-18 	-0.0158701
6.77708 	0 	-1.38778e-18 	-0.0158701
6.84792 	0 	0 	-0.0152481
6.84792 	0 	0 	-0.0152481
6.91875 	0 	1.73472e-18 	-0.014644
6.91875 	0 	1.38778e-18 	-0.014644
6.98958 	0 	1.04083e-18 	-0.0140569
6.98958 	0 	1.73472e-18 	-0.0140569
7.06042 	0 	1.04083e-18 	-0.0134863
7.06042 	0 	0 	-0.0134863
7.13125 	0 	4.16334e-18 	-0.0129315
7.13125 	0 	0 	-0.0129315
7.20208 	0 	4.16334e-18 	-0.0123918
7.20208 	0 	0 	-0.0123918
7.27292 	0 	2.77556e-18 	-0.0118667
7.27292 	0 	0 	-0.0118667
7.34375 	0 	2.77556e-18 	-0.0113557
7.34375 	0 	0 	-0.0113557
7.41458 	0 	2.77556e-18 	-0.0108581
7.41458 	0 	0 	-0.0108581
7.48542 	0 	2.77556e-18 	-0.0103735
7.48542 	0 	0 	-0.0103735
7.55625 	0 	2.77556e-18 	-0.00990135
7.55625 	0 	0 	-0.00990135
7.62708 	0 	2.77556e-18 	-0.00944126
7.62708 	0 	1.73472e-18 	-0.00944126
7.69792 	0 	1.38778e-18 	-0.00899278
7.69792 	0 	1.73472e-18 	-0.00899278
7.76875 	0 	0 	-0.00855548
7.76875 	0 	0 	-0.00855548
7.83958 	0 	0 	-0.00812896
7.83958 	0 	0 	-0.00812896
7.91042 	0 	0 	-0.00771286
7.91042 	0 	-6.93889e-19 	-0.00771286
7.98125 	0 	0 	-0.0073068
7.98125 	0 	-1.38778e-18 	-0.0073068
8.05208 	0 	0 	-0.00691046
8.05208 	0 	-1.38778e-18 	-0.00691046
8.12292 	0 	0 	-0.00652349
8.12292 	0 	-1.38778e-18 	-0.00652349
8.19375 	0 	0 	-0.0061456
8.19375 	0 	-1.38778e-18 	-0.0061456
8.26458 	0 	6.93889e-19 	-0.00577647
8.26458 	0 	-3.1225e-18 	-0.00577647
8.33542 	0 	1.38778e-18 	-0.00541582
8.33542 	0 	-4.85723e-18 	-0.00541582
8.40625 	0 	1.38778e-18 	-0.00506338
8.40625 	0 	-4.85723e-18 	-0.00506338
8.47708 	0 	1.38778e-18 	-0.00471887
8.47708 	0 	-4.85723e-18 	-0.00471887
8.54792 	0 	3.46945e-19 	-0.00438204
8.54792 	0 	-4.85723e-18 	-0.00438204
8.61875 	0 	-6.93889e-19 	-0.00405263
8.61875 	0 	-4.85723e-18 	-0.00405263
8.68958 	0 	-6.93889e-19 	-0.00373038
8.68958 	0 	-4.85723e-18 	-0.00373038
8.76042 	0 	-6.93889e-19 	-0.00341506
8.76042 	0 	-4.85723e-18 	-0.00341506
8.83125 	0 	-6.93889e-19 	-0.0031064
8.83125 	0 	-4.85723e-18 	-0.0031064
8.90208 	0 	-6.93889e-19 	-0.00280415
8.90208 	0 	-4.85723e-18 	-0.00280415
8.97292 	0 	-6.93889e-19 	-0.00250805
8.97292 	0 	-4.85723e-18 	-0.00250805
9.04375 	0 	-6.93889e-19 	-0.00221783
9.04375 	0 	-4.85723e-18 	-0.00221783
9.11458 	0 	-6.93889e-19 	-0.00193319
9.11458 	0 	-4.85723e-18 	-0.00193319
9.18542 	0 	-6.93889e-19 	-0.0016538
9.18542 	0 	-4.85723e-18 	-0.00165381
9.25625 	0 	-6.93889e-19 	-0.00137934
9.25625 	0 	-4.85723e-18 	-0.00137934
9.32708 	0 	-6.93889e-19 	-0.0011094
9.32708 	0 	-4.85723e-18 	-0.0011094
9.39792 	0 	-6.93889e-19 	-0.000843554
9.39792 	0 	-4.85723e-18 	-0.000843555
9.46875 	0 	-6.93889e-19 	-0.0005813
9.46875 	0 	-4.85723e-18 	-0.0005813
9.53958 	0 	-6.93889e-19 	-0.000321973
9.53958 	0 	-4.85723e-18 	-0.000321973
9.61042 	0 	-6.93889e-19 	-6.45692e-05
9.61042 	0 	-4.85723e-18 	-6.45688e-05
9.68125 	0 	-6.93889e-19 	0.000190554
9.68125 	0 	-4.85723e-18 	0.000190554
9.75208 	0 	-6.93889e-19 	0.000437364
9.75208 	0 	-4.85723e-18 	0.000437364
9.82292 	0 	-6.93889e-19 	0.000696706
9.82292 	0 	-4.85723e-18 	0.000696707
9.89375 	0 	-6.93889e-19 	0.00113064
9.89375 	0 	-4.85723e-18 	0.00113064
9.96458 	0 	0 	0.00145174
9.96458 	0 	-4.85723e-18 	0.00145174
