/*--------------------------------*- C++ -*----------------------------------*\
  =========                 |
  \\      /  F ield         | OpenFOAM: The Open Source CFD Toolbox
   \\    /   O peration     | Website:  https://openfoam.org
    \\  /    A nd           | Version:  7
     \\/     M anipulation  |
\*---------------------------------------------------------------------------*/
FoamFile
{
    version     2.0;
    format      ascii;
    class       volScalarField;
    location    "25";
    object      p;
}
// * * * * * * * * * * * * * * * * * * * * * * * * * * * * * * * * * * * * * //

dimensions      [0 2 -2 0 0 0 0];

internalField   nonuniform List<scalar> 
3500
(
-0.222353
-0.214009
-0.206012
-0.198099
-0.190587
-0.183483
-0.176802
-0.17053
-0.16465
-0.159146
-0.154002
-0.149206
-0.144743
-0.140601
-0.136767
-0.133229
-0.129978
-0.127003
-0.124293
-0.121841
-0.119638
-0.117676
-0.11595
-0.114452
-0.113178
-0.112123
-0.111283
-0.110656
-0.11024
-0.110032
-0.220051
-0.211791
-0.203896
-0.196102
-0.188708
-0.181726
-0.175166
-0.169011
-0.163245
-0.15785
-0.15281
-0.148111
-0.14374
-0.139682
-0.135927
-0.132462
-0.129276
-0.126361
-0.123706
-0.121303
-0.119143
-0.11722
-0.115526
-0.114058
-0.112808
-0.111773
-0.11095
-0.110334
-0.109925
-0.109721
-0.217627
-0.209453
-0.201665
-0.193991
-0.186721
-0.179864
-0.173427
-0.167394
-0.161744
-0.156461
-0.151527
-0.146928
-0.14265
-0.138679
-0.135004
-0.131614
-0.128496
-0.125643
-0.123044
-0.120691
-0.118576
-0.116692
-0.115034
-0.113595
-0.11237
-0.111356
-0.110549
-0.109946
-0.109546
-0.109346
-0.215076
-0.206991
-0.199315
-0.191767
-0.184625
-0.177897
-0.171588
-0.165678
-0.160148
-0.154979
-0.150154
-0.145658
-0.141476
-0.137594
-0.134002
-0.130688
-0.12764
-0.12485
-0.122309
-0.120007
-0.117939
-0.116096
-0.114473
-0.113065
-0.111867
-0.110874
-0.110084
-0.109494
-0.109102
-0.108906
-0.212393
-0.204401
-0.196845
-0.189428
-0.182419
-0.175825
-0.169648
-0.163866
-0.15846
-0.153408
-0.148695
-0.144303
-0.140219
-0.13643
-0.132922
-0.129686
-0.12671
-0.123985
-0.121503
-0.119254
-0.117233
-0.115433
-0.113847
-0.11247
-0.111299
-0.110328
-0.109556
-0.108979
-0.108595
-0.108403
-0.209573
-0.201681
-0.194252
-0.186974
-0.180104
-0.173649
-0.167608
-0.161959
-0.156679
-0.151749
-0.14715
-0.142866
-0.138883
-0.135187
-0.131766
-0.12861
-0.125707
-0.123049
-0.120627
-0.118434
-0.116461
-0.114704
-0.113156
-0.111812
-0.110668
-0.10972
-0.108966
-0.108402
-0.108027
-0.10784
-0.206611
-0.198829
-0.191536
-0.184403
-0.177679
-0.17137
-0.165471
-0.159958
-0.154809
-0.150003
-0.145522
-0.141348
-0.137468
-0.133868
-0.130537
-0.127462
-0.124634
-0.122045
-0.119685
-0.117547
-0.115625
-0.113911
-0.112402
-0.111092
-0.109976
-0.109052
-0.108316
-0.107766
-0.1074
-0.107217
-0.203505
-0.195841
-0.188695
-0.181716
-0.175146
-0.168989
-0.163237
-0.157866
-0.152852
-0.148174
-0.143813
-0.139753
-0.135978
-0.132477
-0.129236
-0.126245
-0.123494
-0.120974
-0.118678
-0.116597
-0.114725
-0.113057
-0.111587
-0.110311
-0.109224
-0.108324
-0.107607
-0.107071
-0.106715
-0.106537
-0.200251
-0.192716
-0.185729
-0.178913
-0.172505
-0.166507
-0.160908
-0.155683
-0.150808
-0.146262
-0.142025
-0.138081
-0.134415
-0.131014
-0.127866
-0.12496
-0.122288
-0.119839
-0.117607
-0.115585
-0.113765
-0.112143
-0.110714
-0.109473
-0.108415
-0.107539
-0.106842
-0.10632
-0.105973
-0.1058
-0.196847
-0.189455
-0.182637
-0.175995
-0.169758
-0.163926
-0.158486
-0.153413
-0.148682
-0.144271
-0.140162
-0.136337
-0.132781
-0.129482
-0.126429
-0.123611
-0.121018
-0.118642
-0.116476
-0.114513
-0.112747
-0.111172
-0.109783
-0.108578
-0.10755
-0.106699
-0.106021
-0.105515
-0.105178
-0.105009
-0.193292
-0.186056
-0.179422
-0.172964
-0.166907
-0.161248
-0.155974
-0.151058
-0.146475
-0.142204
-0.138225
-0.134521
-0.131079
-0.127885
-0.124928
-0.122199
-0.119687
-0.117385
-0.115286
-0.113384
-0.111671
-0.110144
-0.108798
-0.107628
-0.106632
-0.105806
-0.105148
-0.104656
-0.104329
-0.104166
-0.189585
-0.182522
-0.176085
-0.169821
-0.163954
-0.158476
-0.153374
-0.148621
-0.144191
-0.140063
-0.136217
-0.132638
-0.129311
-0.126224
-0.123366
-0.120727
-0.118298
-0.116071
-0.11404
-0.112199
-0.110541
-0.109063
-0.107759
-0.106626
-0.105661
-0.10486
-0.104223
-0.103746
-0.103429
-0.103271
-0.185729
-0.178854
-0.172628
-0.16657
-0.160901
-0.155613
-0.15069
-0.146104
-0.141832
-0.13785
-0.134142
-0.13069
-0.127481
-0.124503
-0.121744
-0.119197
-0.116852
-0.114702
-0.11274
-0.110961
-0.109359
-0.10793
-0.106669
-0.105573
-0.104639
-0.103865
-0.103248
-0.102787
-0.10248
-0.102327
-0.181725
-0.175054
-0.169054
-0.163214
-0.157753
-0.152663
-0.147924
-0.143512
-0.139401
-0.13557
-0.132002
-0.12868
-0.125591
-0.122723
-0.120067
-0.117613
-0.115353
-0.11328
-0.111388
-0.109672
-0.108126
-0.106747
-0.10553
-0.104472
-0.10357
-0.102822
-0.102226
-0.10178
-0.101484
-0.101336
-0.177577
-0.171129
-0.165367
-0.159756
-0.154514
-0.149628
-0.145081
-0.140847
-0.136903
-0.133226
-0.1298
-0.12661
-0.123644
-0.120888
-0.118335
-0.115976
-0.113802
-0.111808
-0.109987
-0.108335
-0.106846
-0.105517
-0.104344
-0.103324
-0.102454
-0.101733
-0.101158
-0.100728
-0.100442
-0.100299
-0.17329
-0.167081
-0.161573
-0.156202
-0.151187
-0.146514
-0.142165
-0.138115
-0.13434
-0.130821
-0.127541
-0.124486
-0.121643
-0.119002
-0.116553
-0.114289
-0.112203
-0.110288
-0.108539
-0.106951
-0.10552
-0.104241
-0.103113
-0.102131
-0.101294
-0.1006
-0.100047
-0.0996325
-0.099357
-0.0992194
-0.168871
-0.162919
-0.157678
-0.152557
-0.147779
-0.143326
-0.13918
-0.135318
-0.131717
-0.128359
-0.125227
-0.122309
-0.119592
-0.117066
-0.114723
-0.112556
-0.110558
-0.108723
-0.107046
-0.105523
-0.10415
-0.102923
-0.101839
-0.100896
-0.100092
-0.0994249
-0.0988929
-0.0984948
-0.09823
-0.0980977
-0.164328
-0.158649
-0.153687
-0.148827
-0.144294
-0.140067
-0.136131
-0.132461
-0.129038
-0.125844
-0.122863
-0.120083
-0.117493
-0.115084
-0.112849
-0.110779
-0.10887
-0.107116
-0.105511
-0.104054
-0.102739
-0.101563
-0.100525
-0.099621
-0.0988499
-0.0982098
-0.0976993
-0.0973173
-0.0970631
-0.0969362
-0.159669
-0.15428
-0.149609
-0.145019
-0.140739
-0.136745
-0.133023
-0.12955
-0.126308
-0.123279
-0.120451
-0.117812
-0.115351
-0.11306
-0.110932
-0.108961
-0.107141
-0.105468
-0.103937
-0.102545
-0.101289
-0.100165
-0.0991719
-0.0983073
-0.0975693
-0.0969565
-0.0964677
-0.0961019
-0.0958584
-0.0957368
-0.154906
-0.149821
-0.145452
-0.141141
-0.137121
-0.133366
-0.129861
-0.126589
-0.12353
-0.120671
-0.117997
-0.115499
-0.113168
-0.110996
-0.108977
-0.107105
-0.105375
-0.103783
-0.102326
-0.101
-0.0998019
-0.0987303
-0.0977827
-0.0969573
-0.0962525
-0.0956671
-0.0952
-0.0948504
-0.0946177
-0.0945014
-0.150048
-0.145282
-0.141224
-0.1372
-0.133446
-0.129934
-0.126653
-0.123583
-0.120711
-0.118021
-0.115504
-0.113149
-0.110949
-0.108896
-0.106986
-0.105213
-0.103573
-0.102063
-0.10068
-0.0994196
-0.0982809
-0.0972614
-0.0963593
-0.0955732
-0.0949017
-0.0943437
-0.0938983
-0.0935649
-0.0933429
-0.093232
-0.145109
-0.140674
-0.136936
-0.133205
-0.129722
-0.126458
-0.123402
-0.120538
-0.117854
-0.115336
-0.112976
-0.110765
-0.108696
-0.106763
-0.104963
-0.103289
-0.10174
-0.100312
-0.0990017
-0.0978077
-0.0967279
-0.0957604
-0.0949039
-0.094157
-0.0935187
-0.0929881
-0.0925645
-0.0922473
-0.092036
-0.0919305
-0.140102
-0.136009
-0.132597
-0.129165
-0.125958
-0.122944
-0.120116
-0.11746
-0.114965
-0.11262
-0.110418
-0.108351
-0.106414
-0.104601
-0.10291
-0.101336
-0.0998772
-0.0985306
-0.0972942
-0.0961663
-0.0951452
-0.0942297
-0.0934186
-0.0927109
-0.0921058
-0.0916025
-0.0912005
-0.0908995
-0.0906989
-0.0905987
-0.13504
-0.131298
-0.128217
-0.125088
-0.12216
-0.119399
-0.116801
-0.114354
-0.112049
-0.109878
-0.107834
-0.105911
-0.104105
-0.102413
-0.100831
-0.0993566
-0.0979878
-0.0967227
-0.0955598
-0.0944977
-0.0935352
-0.0926715
-0.0919056
-0.0912369
-0.0906648
-0.0901887
-0.0898084
-0.0895234
-0.0893335
-0.0892386
-0.129938
-0.126555
-0.123808
-0.120985
-0.118337
-0.115831
-0.113463
-0.111225
-0.109111
-0.107113
-0.105227
-0.103449
-0.101775
-0.100202
-0.0987291
-0.0973538
-0.0960748
-0.0948909
-0.093801
-0.0928043
-0.0919002
-0.0910879
-0.090367
-0.0897371
-0.0891978
-0.0887489
-0.08839
-0.0881209
-0.0879417
-0.087852
-0.124811
-0.121791
-0.11938
-0.116864
-0.114498
-0.112247
-0.110109
-0.108081
-0.106157
-0.104332
-0.102604
-0.100969
-0.0994256
-0.0979722
-0.0966076
-0.0953307
-0.0941409
-0.0930376
-0.0920203
-0.0910886
-0.0902424
-0.0894812
-0.088805
-0.0882136
-0.0877069
-0.0872848
-0.0869472
-0.086694
-0.0865253
-0.0864409
-0.119674
-0.11702
-0.114945
-0.112736
-0.110651
-0.108653
-0.106746
-0.104926
-0.103191
-0.101539
-0.0999672
-0.098475
-0.0970616
-0.0957265
-0.0944694
-0.0932903
-0.0921889
-0.0911656
-0.0902202
-0.089353
-0.0885641
-0.0878536
-0.0872216
-0.0866684
-0.086194
-0.0857985
-0.085482
-0.0852445
-0.0850862
-0.085007
-0.114541
-0.112254
-0.110514
-0.10861
-0.106805
-0.105059
-0.10338
-0.101767
-0.10022
-0.0987383
-0.0973219
-0.0959711
-0.0946865
-0.0934685
-0.0923179
-0.0912354
-0.0902216
-0.0892773
-0.0884032
-0.0875997
-0.0868675
-0.0862071
-0.085619
-0.0851035
-0.084661
-0.0842918
-0.0839962
-0.0837743
-0.0836263
-0.0835523
-0.109428
-0.107507
-0.106097
-0.104496
-0.102968
-0.101471
-0.100018
-0.0986093
-0.097248
-0.0959351
-0.0946722
-0.0934612
-0.0923037
-0.0912015
-0.090156
-0.089169
-0.0882417
-0.0873755
-0.0865716
-0.0858311
-0.085155
-0.084544
-0.0839991
-0.0835209
-0.0831099
-0.0827667
-0.0824917
-0.0822852
-0.0821473
-0.0820784
-0.104348
-0.102791
-0.101706
-0.100403
-0.0991473
-0.0978967
-0.0966655
-0.0954589
-0.0942806
-0.093134
-0.0920225
-0.0909491
-0.089917
-0.0889287
-0.087987
-0.087094
-0.0862519
-0.0854627
-0.084728
-0.0840495
-0.0834285
-0.0828664
-0.082364
-0.0819225
-0.0815426
-0.081225
-0.0809703
-0.0807789
-0.0806511
-0.0805871
-0.0993172
-0.0981171
-0.0973505
-0.0963413
-0.0953524
-0.0943428
-0.09333
-0.0923215
-0.0913229
-0.0903397
-0.0893768
-0.0884387
-0.0875297
-0.0866535
-0.0858136
-0.0850131
-0.0842548
-0.0835412
-0.0828746
-0.0822571
-0.0816904
-0.0811762
-0.0807157
-0.0803103
-0.079961
-0.0796686
-0.0794338
-0.0792573
-0.0791394
-0.0790803
-0.0943476
-0.0934983
-0.0930418
-0.0923185
-0.0915906
-0.0908166
-0.0900173
-0.0892024
-0.0883798
-0.0875565
-0.0867392
-0.0859337
-0.0851454
-0.0843791
-0.083639
-0.0829292
-0.082253
-0.0816136
-0.0810138
-0.0804561
-0.0799427
-0.0794755
-0.0790561
-0.0786862
-0.0783668
-0.0780992
-0.077884
-0.0777221
-0.0776138
-0.0775596
-0.0894529
-0.0889455
-0.0887891
-0.0883438
-0.0878695
-0.0873246
-0.0867333
-0.0861072
-0.0854561
-0.0847889
-0.0841138
-0.0834378
-0.0827674
-0.0821084
-0.081466
-0.0808449
-0.080249
-0.0796823
-0.0791478
-0.0786487
-0.0781874
-0.0777662
-0.0773871
-0.0770519
-0.0767619
-0.0765185
-0.0763225
-0.0761749
-0.0760762
-0.0760267
-0.0846453
-0.084469
-0.0846018
-0.0844252
-0.0841962
-0.0838733
-0.0834836
-0.0830408
-0.0825564
-0.0820411
-0.0815043
-0.0809544
-0.0803989
-0.0798446
-0.0792974
-0.0787627
-0.0782453
-0.0777494
-0.0772788
-0.0768369
-0.0764265
-0.0760503
-0.0757106
-0.0754093
-0.075148
-0.0749283
-0.0747511
-0.0746175
-0.074528
-0.0744832
-0.0799364
-0.0800788
-0.0804885
-0.0805704
-0.0805776
-0.0804687
-0.0802738
-0.0800082
-0.0796852
-0.079317
-0.0789144
-0.0784869
-0.078043
-0.0775904
-0.0771359
-0.0766854
-0.0762443
-0.0758174
-0.075409
-0.0750227
-0.074662
-0.0743297
-0.0740283
-0.0737601
-0.0735269
-0.0733302
-0.0731713
-0.0730513
-0.0729709
-0.0729306
-0.0753366
-0.0757838
-0.0764572
-0.0767866
-0.0770201
-0.0771165
-0.0771089
-0.077014
-0.0768467
-0.0766205
-0.0763476
-0.0760385
-0.0757028
-0.0753487
-0.074984
-0.0746151
-0.0742481
-0.0738883
-0.0735402
-0.0732082
-0.0728957
-0.0726061
-0.072342
-0.072106
-0.0719
-0.0717258
-0.0715848
-0.0714781
-0.0714065
-0.0713706
-0.0708554
-0.0715922
-0.0725153
-0.0730804
-0.0735294
-0.073822
-0.0739938
-0.0740626
-0.0740448
-0.0739553
-0.0738073
-0.0736124
-0.073381
-0.0731222
-0.0728442
-0.0725544
-0.0722591
-0.0719642
-0.0716747
-0.0713951
-0.0711294
-0.0708812
-0.0706534
-0.0704486
-0.0702691
-0.0701167
-0.0699931
-0.0698993
-0.0698363
-0.0698046
-0.0665011
-0.0675115
-0.0686695
-0.0694576
-0.070111
-0.0705902
-0.0709329
-0.071158
-0.0712832
-0.0713247
-0.0712966
-0.0712115
-0.0710804
-0.0709133
-0.070719
-0.0705053
-0.0702793
-0.0700471
-0.0698141
-0.0695853
-0.069365
-0.0691568
-0.068964
-0.0687895
-0.0686356
-0.0685044
-0.0683976
-0.0683163
-0.0682616
-0.0682341
-0.062281
-0.063548
-0.0649257
-0.0659238
-0.0667698
-0.0674255
-0.0679303
-0.068304
-0.0685655
-0.068732
-0.0688185
-0.0688384
-0.0688035
-0.0687244
-0.0686105
-0.0684701
-0.0683107
-0.0681389
-0.0679604
-0.0677806
-0.0676039
-0.0674344
-0.0672755
-0.0671302
-0.0670011
-0.0668904
-0.0667997
-0.0667306
-0.0666839
-0.0666604
-0.0582013
-0.0597073
-0.061289
-0.0624836
-0.0635102
-0.064332
-0.0649897
-0.065504
-0.0658948
-0.0661801
-0.0663757
-0.0664958
-0.0665527
-0.0665578
-0.0665209
-0.0664507
-0.0663552
-0.0662414
-0.0661153
-0.0659826
-0.0658479
-0.0657156
-0.0655893
-0.0654722
-0.065367
-0.065276
-0.065201
-0.0651435
-0.0651045
-0.0650849
-0.054267
-0.0559941
-0.057764
-0.0591411
-0.0603361
-0.0613131
-0.0621145
-0.0627612
-0.063274
-0.0636716
-0.0639707
-0.0641859
-0.0643304
-0.0644156
-0.0644521
-0.064449
-0.0644146
-0.0643563
-0.0642804
-0.0641928
-0.0640985
-0.0640019
-0.0639069
-0.0638168
-0.0637346
-0.0636625
-0.0636026
-0.0635563
-0.0635248
-0.0635089
-0.0504823
-0.0524122
-0.0543542
-0.0558999
-0.0572506
-0.0583722
-0.0593076
-0.0600782
-0.0607056
-0.0612092
-0.0616059
-0.0619111
-0.0621384
-0.0622997
-0.062406
-0.0624668
-0.0624907
-0.0624852
-0.0624573
-0.0624128
-0.062357
-0.0622946
-0.0622296
-0.0621654
-0.0621052
-0.0620513
-0.0620058
-0.0619702
-0.0619459
-0.0619335
-0.0468502
-0.0489646
-0.0510626
-0.0527628
-0.0542567
-0.0555118
-0.0565716
-0.0574577
-0.0581922
-0.0587949
-0.0592834
-0.0596733
-0.0599787
-0.060212
-0.0603844
-0.0605057
-0.0605848
-0.0606297
-0.0606473
-0.0606439
-0.0606249
-0.060595
-0.0605586
-0.0605193
-0.06048
-0.0604435
-0.0604118
-0.0603865
-0.060369
-0.0603601
-0.0433727
-0.0456533
-0.0478916
-0.0497322
-0.0513567
-0.0527342
-0.0539087
-0.0549016
-0.0557356
-0.0564307
-0.057005
-0.0574743
-0.0578531
-0.0581541
-0.0583887
-0.0585672
-0.0586986
-0.0587911
-0.058852
-0.0588875
-0.0589033
-0.0589045
-0.0588953
-0.0588795
-0.0588603
-0.0588403
-0.0588217
-0.0588063
-0.0587953
-0.0587896
-0.040051
-0.0424798
-0.0448427
-0.0468097
-0.0485522
-0.0500413
-0.0513207
-0.0524119
-0.0533376
-0.0541184
-0.0547724
-0.0553157
-0.0557631
-0.0561275
-0.0564205
-0.0566527
-0.0568334
-0.0569708
-0.0570724
-0.0571448
-0.0571936
-0.0572242
-0.0572408
-0.0572473
-0.0572471
-0.0572428
-0.0572367
-0.0572306
-0.0572258
-0.0572232
-0.0368854
-0.0394447
-0.041917
-0.0439965
-0.0458447
-0.0474345
-0.0488091
-0.0499899
-0.0509998
-0.0518595
-0.052587
-0.0531989
-0.05371
-0.0541334
-0.0544811
-0.0547635
-0.0549903
-0.0551699
-0.0553098
-0.0554169
-0.0554969
-0.0555551
-0.055596
-0.0556237
-0.0556414
-0.0556519
-0.0556577
-0.0556604
-0.0556615
-0.0556618
-0.0338755
-0.036548
-0.0391147
-0.0412933
-0.0432351
-0.0449147
-0.046375
-0.0476369
-0.0487234
-0.049655
-0.0504501
-0.0511252
-0.0516951
-0.0521732
-0.0525715
-0.0529007
-0.0531705
-0.0533895
-0.0535653
-0.0537048
-0.053814
-0.0538982
-0.0539621
-0.0540096
-0.0540442
-0.0540688
-0.0540856
-0.0540967
-0.0541033
-0.0541064
-0.03102
-0.033789
-0.0364357
-0.0387001
-0.0407237
-0.0424827
-0.0440192
-0.0453538
-0.0465093
-0.0475062
-0.0483627
-0.0490955
-0.0497194
-0.0502478
-0.0506929
-0.0510654
-0.0513751
-0.0516306
-0.0518398
-0.0520096
-0.0521461
-0.0522546
-0.0523399
-0.052406
-0.0524564
-0.0524941
-0.0525215
-0.0525403
-0.0525521
-0.0525578
-0.0283171
-0.0311665
-0.0338793
-0.0362168
-0.0383106
-0.0401387
-0.0417421
-0.0431411
-0.0443581
-0.0454136
-0.0463256
-0.0471107
-0.0477837
-0.0483582
-0.0488461
-0.0492583
-0.0496048
-0.0498941
-0.0501343
-0.0503321
-0.0504939
-0.050625
-0.0507302
-0.0508136
-0.0508789
-0.0509288
-0.0509659
-0.0509921
-0.0510088
-0.0510169
-0.0257644
-0.0286787
-0.0314444
-0.0338427
-0.0359954
-0.0378826
-0.039544
-0.0409991
-0.0422705
-0.0433779
-0.0443395
-0.0451715
-0.0458889
-0.046505
-0.0470318
-0.0474804
-0.0478604
-0.0481808
-0.0484493
-0.048673
-0.0488582
-0.0490102
-0.0491338
-0.0492334
-0.0493123
-0.0493737
-0.0494198
-0.0494528
-0.049474
-0.0494844
-0.0233589
-0.0263236
-0.0291294
-0.0315765
-0.0337775
-0.0357141
-0.0374246
-0.038928
-0.0402465
-0.0413994
-0.0424047
-0.0432784
-0.0440354
-0.0446888
-0.0452508
-0.0457322
-0.0461427
-0.0464913
-0.0467858
-0.0470331
-0.0472397
-0.0474109
-0.0475515
-0.0476659
-0.0477575
-0.0478293
-0.0478839
-0.0479231
-0.0479485
-0.0479609
-0.0210973
-0.0240984
-0.0269323
-0.029417
-0.0316559
-0.0336325
-0.0353836
-0.0369276
-0.0382861
-0.0394783
-0.0405215
-0.0414318
-0.0422236
-0.0429102
-0.0435034
-0.0440142
-0.0444522
-0.0448262
-0.0451442
-0.045413
-0.045639
-0.0458277
-0.0459839
-0.0461117
-0.0462149
-0.0462964
-0.0463587
-0.0464037
-0.0464329
-0.0464472
-0.0189758
-0.0220003
-0.0248509
-0.0273623
-0.0296293
-0.0316369
-0.0334204
-0.0349975
-0.0363893
-0.0376144
-0.03869
-0.0396317
-0.0404538
-0.0411693
-0.0417901
-0.0423269
-0.0427893
-0.043186
-0.043525
-0.0438131
-0.0440567
-0.0442611
-0.0444314
-0.0445715
-0.0446852
-0.0447755
-0.0448448
-0.044895
-0.0449277
-0.0449439
-0.0169905
-0.0200259
-0.0228826
-0.0254104
-0.0276962
-0.0297261
-0.0315341
-0.0331371
-0.0345555
-0.0358077
-0.0369101
-0.0378783
-0.0387261
-0.0394665
-0.0401112
-0.0406706
-0.0411543
-0.0415711
-0.0419286
-0.0422339
-0.0424931
-0.0427117
-0.0428946
-0.0430458
-0.0431689
-0.0432671
-0.0433427
-0.0433977
-0.0434336
-0.0434513
-0.015137
-0.0181719
-0.0210246
-0.0235591
-0.0258547
-0.0278987
-0.0297236
-0.0313455
-0.0327843
-0.0340576
-0.0351816
-0.0361713
-0.0370406
-0.0378018
-0.0384667
-0.0390454
-0.0395476
-0.0399817
-0.0403555
-0.0406758
-0.0409488
-0.0411799
-0.0413738
-0.0415348
-0.0416664
-0.0417716
-0.0418529
-0.0419122
-0.0419509
-0.04197
-0.0134109
-0.0164346
-0.0192739
-0.021806
-0.0241029
-0.0261532
-0.0279877
-0.0296219
-0.0310748
-0.0323636
-0.033504
-0.0345107
-0.0353969
-0.0361752
-0.0368566
-0.0374515
-0.0379692
-0.0384181
-0.0388057
-0.039139
-0.0394239
-0.0396658
-0.0398695
-0.0400391
-0.0401781
-0.0402895
-0.0403758
-0.0404388
-0.04048
-0.0405004
-0.0118075
-0.0148101
-0.0176273
-0.0201484
-0.0224386
-0.0244878
-0.026325
-0.027965
-0.0294262
-0.0307251
-0.0318769
-0.0328958
-0.033795
-0.0345864
-0.035281
-0.0358889
-0.0364193
-0.0368803
-0.0372795
-0.0376237
-0.0379186
-0.0381698
-0.0383819
-0.0385589
-0.0387043
-0.038821
-0.0389116
-0.0389779
-0.0390213
-0.0390427
-0.0103222
-0.0132944
-0.0160814
-0.0185836
-0.0208596
-0.0229007
-0.024734
-0.0263737
-0.0278375
-0.0291412
-0.0302996
-0.0313264
-0.0322344
-0.0330352
-0.0337397
-0.0343575
-0.0348977
-0.0353684
-0.035777
-0.03613
-0.0364333
-0.0366921
-0.0369111
-0.0370943
-0.0372451
-0.0373665
-0.0374607
-0.0375298
-0.037575
-0.0375974
-0.00895014
-0.0118837
-0.0146329
-0.0171086
-0.0193635
-0.0213897
-0.0232128
-0.0248464
-0.0263074
-0.027611
-0.0287713
-0.0298017
-0.0307146
-0.0315213
-0.0322322
-0.032857
-0.0334044
-0.0338824
-0.0342981
-0.0346579
-0.0349678
-0.0352328
-0.0354574
-0.0356457
-0.0358009
-0.035926
-0.0360233
-0.0360947
-0.0361415
-0.0361647
-0.00768657
-0.0105737
-0.0132782
-0.0157205
-0.0179476
-0.0199527
-0.0217599
-0.0233818
-0.0248348
-0.0261333
-0.0272911
-0.0283211
-0.0292351
-0.0300441
-0.0307584
-0.0313873
-0.0319392
-0.032422
-0.0328427
-0.0332076
-0.0335223
-0.0337919
-0.0340209
-0.0342131
-0.0343718
-0.0344998
-0.0345995
-0.0346727
-0.0347208
-0.0347446
-0.00652676
-0.00936035
-0.0120139
-0.0144162
-0.0166095
-0.0185876
-0.0203731
-0.0219781
-0.0234182
-0.0247071
-0.0258581
-0.0268836
-0.0277951
-0.0286031
-0.0293177
-0.0299478
-0.0305018
-0.0309871
-0.0314107
-0.0317787
-0.0320967
-0.0323695
-0.0326015
-0.0327965
-0.0329577
-0.033088
-0.0331895
-0.0332641
-0.0333131
-0.0333374
-0.00546599
-0.00823966
-0.0108363
-0.0131927
-0.0153463
-0.017292
-0.0190506
-0.0206337
-0.0220561
-0.0233311
-0.0244712
-0.0254885
-0.0263939
-0.0271978
-0.0279096
-0.0285383
-0.0290918
-0.0295775
-0.0300019
-0.0303713
-0.0306908
-0.0309653
-0.0311991
-0.0313959
-0.0315588
-0.0316905
-0.0317933
-0.0318688
-0.0319185
-0.0319431
-0.00449965
-0.00720753
-0.009742
-0.0120469
-0.0141556
-0.0160635
-0.0177902
-0.0193467
-0.0207471
-0.0220039
-0.0231293
-0.0241346
-0.0250306
-0.0258272
-0.0265336
-0.0271582
-0.0277088
-0.0281926
-0.0286161
-0.028985
-0.0293045
-0.0295795
-0.0298139
-0.0300113
-0.030175
-0.0303075
-0.0304109
-0.030487
-0.030537
-0.0305618
-0.00362319
-0.00625999
-0.00872734
-0.0109756
-0.0130343
-0.0148997
-0.0165899
-0.0181154
-0.0194895
-0.0207241
-0.021831
-0.022821
-0.0237044
-0.0244907
-0.0251888
-0.0258068
-0.0263524
-0.0268323
-0.0272528
-0.0276195
-0.0279376
-0.0282116
-0.0284455
-0.0286427
-0.0288062
-0.0289387
-0.0290422
-0.0291184
-0.0291686
-0.0291934
-0.00283222
-0.00539311
-0.00778884
-0.00997576
-0.01198
-0.0137982
-0.0154475
-0.0169377
-0.0182815
-0.0194903
-0.0205752
-0.0215465
-0.0224142
-0.0231874
-0.0238746
-0.0244837
-0.0250219
-0.0254959
-0.0259116
-0.0262747
-0.0265899
-0.0268616
-0.0270937
-0.0272897
-0.0274524
-0.0275842
-0.0276873
-0.0277632
-0.0278132
-0.0278379
-0.00212243
-0.00460307
-0.00692306
-0.00904424
-0.0109896
-0.0127565
-0.0143608
-0.0158118
-0.0171216
-0.0183009
-0.0193604
-0.0203099
-0.021159
-0.0219164
-0.0225902
-0.023188
-0.0237168
-0.0241829
-0.0245922
-0.0249499
-0.0252608
-0.0255291
-0.0257585
-0.0259522
-0.0261132
-0.0262438
-0.0263459
-0.0264212
-0.0264707
-0.0264953
-0.00148971
-0.00388611
-0.00612659
-0.00817797
-0.0100605
-0.0117721
-0.0133276
-0.0147356
-0.0160078
-0.0171543
-0.0181852
-0.01911
-0.0199377
-0.0206766
-0.0213346
-0.021919
-0.0224363
-0.0228928
-0.023294
-0.0236449
-0.0239502
-0.0242138
-0.0244393
-0.02463
-0.0247886
-0.0249172
-0.0250179
-0.0250921
-0.025141
-0.0251652
-0.000930059
-0.0032386
-0.00539608
-0.00737394
-0.00918994
-0.0108426
-0.0123455
-0.0137071
-0.0149383
-0.0160488
-0.0170481
-0.0179453
-0.018749
-0.0194671
-0.020107
-0.0206758
-0.0211799
-0.0216249
-0.0220164
-0.0223591
-0.0226574
-0.0229153
-0.023136
-0.0233228
-0.0234782
-0.0236043
-0.0237031
-0.0237759
-0.0238239
-0.0238477
-0.000439641
-0.00265701
-0.0047283
-0.00662913
-0.00837515
-0.0099653
-0.0114123
-0.0127243
-0.0139113
-0.0149828
-0.0159477
-0.0168146
-0.0175918
-0.0182867
-0.0189065
-0.0194577
-0.0199466
-0.0203786
-0.0207588
-0.021092
-0.0213822
-0.0216332
-0.0218482
-0.0220302
-0.0221817
-0.0223048
-0.0224012
-0.0224723
-0.0225191
-0.0225424
-1.47781e-05
-0.00213791
-0.00412003
-0.0059406
-0.0076134
-0.00913782
-0.0105258
-0.0117849
-0.0129249
-0.0139545
-0.0148823
-0.0157165
-0.0164647
-0.0171343
-0.0177318
-0.0182637
-0.0187357
-0.019153
-0.0195207
-0.019843
-0.0201239
-0.020367
-0.0205754
-0.0207519
-0.0208989
-0.0210183
-0.0211119
-0.021181
-0.0212265
-0.0212491
0.000348055
-0.001678
-0.00356818
-0.00530547
-0.006902
-0.00835766
-0.00968356
-0.010887
-0.0119771
-0.0129622
-0.0138504
-0.0146494
-0.0153666
-0.0160087
-0.0165821
-0.0170929
-0.0175463
-0.0179476
-0.0183012
-0.0186115
-0.018882
-0.0191163
-0.0193172
-0.0194875
-0.0196293
-0.0197446
-0.019835
-0.0199017
-0.0199457
-0.0199675
0.000652224
-0.00127408
-0.00306969
-0.00472083
-0.00623825
-0.00762227
-0.0088833
-0.0100283
-0.0110659
-0.012004
-0.0128503
-0.013612
-0.014296
-0.0149087
-0.0154562
-0.0159441
-0.0163775
-0.0167613
-0.0170997
-0.0173967
-0.0176559
-0.0178804
-0.0180731
-0.0182364
-0.0183725
-0.0184832
-0.01857
-0.0186341
-0.0186763
-0.0186973
0.000900959
-0.000923077
-0.00262162
-0.00418392
-0.00561954
-0.00692923
-0.00812277
-0.0092068
-0.0101895
-0.0110783
-0.0118804
-0.0126026
-0.0132515
-0.0138331
-0.014353
-0.0148165
-0.0152285
-0.0155935
-0.0159155
-0.0161982
-0.0164451
-0.016659
-0.0168426
-0.0169984
-0.0171282
-0.0172339
-0.0173167
-0.0173779
-0.0174182
-0.0174382
0.00109732
-0.000621969
-0.00222103
-0.00369189
-0.00504315
-0.00627596
-0.00739952
-0.00842019
-0.00934568
-0.010183
-0.0109389
-0.0116198
-0.0122317
-0.0127804
-0.0132712
-0.0137089
-0.0140981
-0.0144431
-0.0147476
-0.015015
-0.0152486
-0.0154512
-0.0156251
-0.0157727
-0.0158957
-0.0159959
-0.0160744
-0.0161325
-0.0161707
-0.0161897
0.00124428
-0.000367887
-0.00186515
-0.0032421
-0.00450658
-0.00566011
-0.00671139
-0.00766648
-0.00853264
-0.00931643
-0.0100242
-0.010662
-0.0112354
-0.0117497
-0.0122098
-0.0126204
-0.0129857
-0.0133095
-0.0135954
-0.0138467
-0.0140663
-0.0142567
-0.0144203
-0.0145591
-0.0146749
-0.0147692
-0.0148431
-0.0148978
-0.0149338
-0.0149517
0.00134463
-0.000157948
-0.00155105
-0.00283166
-0.004007
-0.00507896
-0.00605574
-0.00694314
-0.00774799
-0.0084764
-0.00913431
-0.00972728
-0.0102605
-0.010739
-0.0111672
-0.0115495
-0.0118896
-0.0121913
-0.0124577
-0.012692
-0.0128967
-0.0130743
-0.013227
-0.0133566
-0.0134647
-0.0135527
-0.0136218
-0.0136728
-0.0137065
-0.0137232
0.00140119
1.05412e-05
-0.00127615
-0.00245813
-0.00354213
-0.0045304
-0.00543068
-0.0062485
-0.00699023
-0.00766157
-0.00826802
-0.00881471
-0.00930648
-0.00974781
-0.0101429
-0.0104957
-0.0108097
-0.0110883
-0.0113344
-0.0115509
-0.0117401
-0.0119043
-0.0120455
-0.0121654
-0.0122654
-0.0123469
-0.0124108
-0.012458
-0.0124892
-0.0125046
0.00141651
0.000140435
-0.0010374
-0.00211836
-0.00310879
-0.00401127
-0.00483308
-0.00557947
-0.00625637
-0.00686904
-0.00742253
-0.00792155
-0.00837052
-0.00877353
-0.00913441
-0.00945669
-0.00974365
-0.00999828
-0.0102233
-0.0104213
-0.0105944
-0.0107446
-0.0108738
-0.0109836
-0.0110751
-0.0111497
-0.0112083
-0.0112516
-0.0112801
-0.0112943
0.00139338
0.000234253
-0.000832518
-0.00181032
-0.00270524
-0.00352008
-0.00426174
-0.00493513
-0.00554573
-0.00609837
-0.00659765
-0.00704783
-0.0074529
-0.00781657
-0.00814228
-0.00843321
-0.00869231
-0.00892227
-0.00912555
-0.00930439
-0.00946082
-0.00959663
-0.00971344
-0.00981264
-0.00989547
-0.00996293
-0.0100159
-0.010055
-0.0100809
-0.0100937
0.00133407
0.000295022
-0.000657972
-0.00153015
-0.00232735
-0.00305259
-0.00371231
-0.00431108
-0.00485391
-0.00534516
-0.00578896
-0.00618914
-0.00654926
-0.0068726
-0.00716223
-0.00742098
-0.00765145
-0.00785604
-0.00803693
-0.0081961
-0.00833534
-0.00845626
-0.00856027
-0.00864863
-0.0087224
-0.0087825
-0.00882969
-0.00886457
-0.00888758
-0.00889904
0.00124168
0.000325013
-0.000512151
-0.00127683
-0.00197468
-0.00260887
-0.00318537
-0.00370837
-0.00418238
-0.00461127
-0.00499872
-0.00534809
-0.00566248
-0.00594479
-0.00619769
-0.00642365
-0.00662494
-0.00680364
-0.00696167
-0.00710074
-0.00722241
-0.00732809
-0.007419
-0.00749624
-0.00756073
-0.00761328
-0.00765454
-0.00768504
-0.00770517
-0.00771513
0.00111802
0.000327827
-0.000390206
-0.00104461
-0.00164083
-0.00218201
-0.00267359
-0.00311931
-0.00352315
-0.0038885
-0.0042185
-0.00451605
-0.00478382
-0.00502427
-0.00523969
-0.00543217
-0.00560365
-0.00575591
-0.00589056
-0.00600907
-0.00611277
-0.00620285
-0.00628034
-0.00634619
-0.00640118
-0.00644598
-0.00648117
-0.00650717
-0.00652435
-0.00653297
0.000967171
0.000305158
-0.000292209
-0.000835064
-0.00132866
-0.00177603
-0.00218204
-0.00254995
-0.00288317
-0.00318454
-0.00345673
-0.00370212
-0.00392294
-0.00412122
-0.00429886
-0.00445759
-0.004599
-0.00472456
-0.00483561
-0.00493335
-0.00501888
-0.00509318
-0.0051571
-0.00521141
-0.00525677
-0.00529374
-0.00532276
-0.00534421
-0.00535836
-0.00536532
0.000789733
0.000262081
-0.000209962
-0.000637721
-0.00102592
-0.00137719
-0.00169569
-0.00198412
-0.00224526
-0.00248139
-0.0026946
-0.00288681
-0.00305976
-0.00321505
-0.00335416
-0.00347847
-0.00358922
-0.00368755
-0.00377452
-0.00385107
-0.00391805
-0.00397624
-0.00402631
-0.00406885
-0.00410438
-0.00413333
-0.00415606
-0.00417286
-0.00418395
-0.00418971
0.000592152
0.000198773
-0.000147763
-0.000460613
-0.000743727
-0.000999259
-0.00123072
-0.00144015
-0.00162969
-0.00180101
-0.00195567
-0.00209506
-0.00222045
-0.00233303
-0.00243386
-0.00252394
-0.00260418
-0.00267542
-0.00273842
-0.00279386
-0.00284238
-0.00288451
-0.00292076
-0.00295156
-0.00297728
-0.00299824
-0.0030147
-0.00302684
-0.00303481
-0.00303853
0.000371296
0.000124203
-8.86002e-05
-0.000280726
-0.000454073
-0.000610025
-0.000751206
-0.000878824
-0.000994283
-0.0010986
-0.00119275
-0.00127759
-0.00135389
-0.00142238
-0.00148371
-0.0015385
-0.00158729
-0.0016306
-0.0016689
-0.0017026
-0.00173208
-0.00175768
-0.00177971
-0.00179842
-0.00181404
-0.00182677
-0.00183677
-0.00184414
-0.00184897
-0.00185177
0.000137915
3.5245e-05
-4.65942e-05
-0.000120411
-0.000185932
-0.000244311
-0.000297114
-0.00034471
-0.000387753
-0.000426599
-0.000461631
-0.000493164
-0.000521494
-0.000546894
-0.000569613
-0.000589882
-0.000607912
-0.000623898
-0.000638016
-0.000650425
-0.000661269
-0.000670676
-0.000678761
-0.000685623
-0.000691348
-0.000696009
-0.000699668
-0.000702366
-0.000703998
-0.00070386
-0.227049
-0.224694
-0.222215
-0.219607
-0.216862
-0.213975
-0.210941
-0.207753
-0.20441
-0.200907
-0.197242
-0.193415
-0.189426
-0.185278
-0.180973
-0.176517
-0.171916
-0.167179
-0.162316
-0.157336
-0.152252
-0.147078
-0.141828
-0.136516
-0.13116
-0.125774
-0.120375
-0.114981
-0.109609
-0.104273
-0.0989906
-0.0937745
-0.0886398
-0.0836004
-0.0786693
-0.0738579
-0.0691768
-0.064635
-0.0602405
-0.0560001
-0.0519191
-0.0480019
-0.0442515
-0.0406701
-0.0372585
-0.0340169
-0.0309443
-0.0280391
-0.025299
-0.022721
-0.0203016
-0.0180367
-0.0159221
-0.0139528
-0.0121242
-0.0104309
-0.00886768
-0.00742929
-0.00611033
-0.00490545
-0.00380936
-0.00281686
-0.00192285
-0.00112239
-0.000410673
0.000216921
0.000764836
0.00123732
0.00163843
0.00197202
0.00224176
0.0024511
0.00260333
0.00270149
0.00274858
0.00274721
0.00270028
0.00260991
0.00247919
0.00230934
0.00210451
0.001864
0.00159503
0.00129201
0.000969943
0.000609212
0.000241364
-0.231943
-0.229606
-0.22715
-0.224567
-0.221849
-0.218988
-0.215978
-0.212812
-0.209485
-0.205991
-0.202329
-0.198494
-0.194487
-0.190309
-0.185962
-0.18145
-0.176778
-0.171955
-0.166991
-0.161894
-0.156679
-0.151359