/*--------------------------------*- C++ -*----------------------------------*\
  =========                 |
  \\      /  F ield         | OpenFOAM: The Open Source CFD Toolbox
   \\    /   O peration     | Website:  https://openfoam.org
    \\  /    A nd           | Version:  7
     \\/     M anipulation  |
\*---------------------------------------------------------------------------*/
FoamFile
{
    version     2.0;
    format      ascii;
    class       surfaceScalarField;
    location    "25";
    object      phi;
}
// * * * * * * * * * * * * * * * * * * * * * * * * * * * * * * * * * * * * * //

dimensions      [0 3 -1 0 0 0 0];

internalField   nonuniform List<scalar> 
6869
(
-0.000337499
0.0151021
0.00035441
-0.00031246
0.0159714
-0.000287364
0.0163259
-0.000264185
0.0164076
-0.000242882
0.0163715
-0.000223136
0.0162935
-0.000204719
0.0162044
-0.000187495
0.0161153
-0.000171389
0.0160294
-0.000156351
0.0159471
-0.00014234
0.0158683
-0.000129312
0.0157927
-0.000117217
0.0157204
-0.000106002
0.0156515
-9.5609e-05
0.0155861
-8.59797e-05
0.0155243
-7.70541e-05
0.0154663
-6.87729e-05
0.0154122
-6.1078e-05
0.015362
-5.39123e-05
0.0153159
-4.72206e-05
0.0152739
-4.09494e-05
0.015236
-3.50466e-05
0.0152023
-2.9462e-05
0.0151727
-2.4147e-05
0.0151474
-1.90542e-05
0.0151262
-1.41377e-05
0.0151093
-9.35277e-06
0.0150966
-4.65504e-06
0.0150882
0.015084
-0.000365966
0.0150863
0.000381778
-0.000340879
0.0159463
-0.00031496
0.0163
-0.000290587
0.0163832
-0.000267973
0.0163489
-0.000246903
0.0162724
-0.000227183
0.0161847
-0.000208692
0.0160968
-0.000191355
0.016012
-0.00017512
0.0159309
-0.000159945
0.0158531
-0.000145785
0.0157786
-0.000132588
0.0157072
-0.000120301
0.0156392
-0.000108865
0.0155747
-9.82198e-05
0.0155137
-8.83041e-05
0.0154564
-7.90576e-05
0.0154029
-7.04206e-05
0.0153534
-6.23344e-05
0.0153078
-5.47421e-05
0.0152663
-4.75884e-05
0.0152288
-4.08195e-05
0.0151955
-3.43831e-05
0.0151663
-2.82287e-05
0.0151412
-2.2307e-05
0.0151203
-1.65699e-05
0.0151036
-1.09707e-05
0.015091
-5.46296e-06
0.0150827
0.0150785
-0.000394235
0.0150714
0.000409121
-0.000369012
0.0159211
-0.000342223
0.0162732
-0.000316635
0.0163576
-0.000292697
0.016325
-0.000270297
0.01625
-0.000249277
0.0161636
-0.000229525
0.016077
-0.000210966
0.0159935
-0.000193548
0.0159135
-0.000177226
0.0158368
-0.000161951
0.0157633
-0.000147672
0.015693
-0.000134332
0.0156259
-0.000121872
0.0155622
-0.00011023
0.015502
-9.9344e-05
0.0154455
-8.91513e-05
0.0153927
-7.95906e-05
0.0153438
-7.0602e-05
0.0152988
-6.21266e-05
0.0152578
-5.41073e-05
0.0152208
-4.64886e-05
0.0151879
-3.92163e-05
0.015159
-3.22379e-05
0.0151342
-2.55022e-05
0.0151136
-1.89593e-05
0.015097
-1.25603e-05
0.0150846
-6.25669e-06
0.0150764
0.0150722
-0.000422298
0.0150572
0.000436434
-0.000396844
0.0158956
-0.000369139
0.0162455
-0.000342311
0.0163308
-0.000317038
0.0162997
-0.000293303
0.0162263
-0.000270985
0.0161413
-0.000249979
0.016056
-0.000230211
0.0159737
-0.000211624
0.0158949
-0.00019417
0.0158193
-0.000177799
0.0157469
-0.000162457
0.0156776
-0.000148084
0.0156115
-0.000134621
0.0155487
-0.000122003
0.0154894
-0.000110166
0.0154337
-9.90464e-05
0.0153816
-8.85813e-05
0.0153334
-7.87088e-05
0.015289
-6.93684e-05
0.0152485
-6.0501e-05
0.0152119
-5.20494e-05
0.0151794
-4.39577e-05
0.0151509
-3.61713e-05
0.0151264
-2.86374e-05
0.015106
-2.13039e-05
0.0150897
-1.41201e-05
0.0150774
-7.0356e-06
0.0150693
0.0150652
-0.00045014
0.0150437
0.000463704
-0.000424356
0.0158698
-0.000395687
0.0162168
-0.000367597
0.0163027
-0.000340977
0.0162731
-0.000315906
0.0162012
-0.000292293
0.0161177
-0.000270042
0.0160338
-0.000249076
0.0159527
-0.000229336
0.0158751
-0.000210768
0.0158008
-0.00019332
0.0157295
-0.000176934
0.0156612
-0.000161549
0.0155961
-0.000147103
0.0155343
-0.000133529
0.0154758
-0.000120762
0.0154209
-0.000108736
0.0153696
-9.73864e-05
0.015322
-8.66492e-05
0.0152782
-7.64622e-05
0.0152383
-6.67649e-05
0.0152022
-5.7498e-05
0.0151701
-4.86038e-05
0.015142
-4.00261e-05
0.0151179
-3.17101e-05
0.0150977
-2.36019e-05
0.0150816
-1.5649e-05
0.0150695
-7.79911e-06
0.0150614
0.0150574
-0.000477737
0.0150305
0.000490912
-0.000451525
0.0158436
-0.000421844
0.0161871
-0.000392469
0.0162733
-0.000364493
0.0162451
-0.000338085
0.0161748
-0.000313183
0.0160928
-0.000289697
0.0160103
-0.000267547
0.0159306
-0.00024667
0.0158542
-0.000227007
0.0157811
-0.000208501
0.015711
-0.000191093
0.0156438
-0.000174718
0.0155798
-0.00015931
0.0155189
-0.000144802
0.0154613
-0.000131126
0.0154072
-0.000118214
0.0153567
-0.000106
0.0153098
-9.44174e-05
0.0152666
-8.34032e-05
0.0152273
-7.28945e-05
0.0151917
-6.28303e-05
0.0151601
-5.31513e-05
0.0151323
-4.37994e-05
0.0151085
-3.4718e-05
0.0150886
-2.58517e-05
0.0150727
-1.71459e-05
0.0150608
-8.54665e-06
0.0150528
0.0150489
-0.000505061
0.0150175
0.000518027
-0.000478321
0.0158169
-0.00044758
0.0161564
-0.000416901
0.0162426
-0.000387563
0.0162158
-0.00035982
0.016147
-0.000333637
0.0160666
-0.000308927
0.0159856
-0.00028561
0.0159073
-0.000263613
0.0158323
-0.000242875
0.0157604
-0.000223333
0.0156914
-0.000204924
0.0156254
-0.00018758
0.0155624
-0.000171233
0.0155025
-0.000155813
0.0154459
-0.000141249
0.0153927
-0.000127473
0.0153429
-0.000114415
0.0152967
-0.000102008
0.0152542
-9.01863e-05
0.0152154
-7.88853e-05
0.0151804
-6.80426e-05
0.0151492
-5.75969e-05
0.0151219
-4.74885e-05
0.0150984
-3.76591e-05
0.0150788
-2.80516e-05
0.0150631
-1.86097e-05
0.0150513
-9.27766e-06
0.0150435
0.0150396
-0.000532072
0.0150046
0.000545009
-0.000504707
0.0157895
-0.000472864
0.0161245
-0.000440863
0.0162106
-0.000410161
0.0161851
-0.000381088
0.016118
-0.000353634
0.0160392
-0.000327716
0.0159597
-0.000303248
0.0158828
-0.000280152
0.0158092
-0.000258359
0.0157386
-0.000237803
0.0156709
-0.000218416
0.015606
-0.000200126
0.0155441
-0.000182863
0.0154853
-0.000166554
0.0154296
-0.000151126
0.0153772
-0.000136507
0.0153283
-0.000122627
0.0152829
-0.000109416
0.015241
-9.68068e-05
0.0152028
-8.47334e-05
0.0151684
-7.31312e-05
0.0151376
-6.19375e-05
0.0151107
-5.10909e-05
0.0150876
-4.05313e-05
0.0150683
-3.02001e-05
0.0150528
-2.00393e-05
0.0150412
-9.99165e-06
0.0150334
0.0150296
-0.000558728
0.0149915
0.000571809
-0.000530644
0.0157614
-0.000497657
0.0160916
-0.000464323
0.0161773
-0.000432258
0.016153
-0.000401863
0.0160876
-0.000373153
0.0160105
-0.000346044
0.0159326
-0.000320445
0.0158572
-0.000296271
0.015785
-0.000273447
0.0157157
-0.000251901
0.0156493
-0.000231559
0.0155857
-0.000212348
0.0155249
-0.000194193
0.0154671
-0.000177018
0.0154124
-0.000160748
0.015361
-0.000145309
0.0153129
-0.000130629
0.0152682
-0.000116636
0.015227
-0.00010326
0.0151895
-9.04346e-05
0.0151555
-7.80927e-05
0.0151253
-6.61701e-05
0.0150988
-5.4604e-05
0.015076
-4.33326e-05
0.015057
-3.22957e-05
0.0150418
-2.14338e-05
0.0150303
-1.06881e-05
0.0150227
0.0150189
-0.000584976
0.0149781
0.00059837
-0.000556085
0.0157325
-0.000521919
0.0160574
-0.000487245
0.0161426
-0.000453823
0.0161196
-0.00042212
0.0160559
-0.00039217
0.0159805
-0.000363891
0.0159043
-0.000337183
0.0158305
-0.000311955
0.0157598
-0.000288125
0.0156919
-0.000265613
0.0156268
-0.000244342
0.0155644
-0.000224235
0.0155048
-0.000205213
0.0154481
-0.000187197
0.0153944
-0.000170109
0.0153439
-0.000153874
0.0152966
-0.000138416
0.0152527
-0.000123663
0.0152123
-0.000109542
0.0151753
-9.59851e-05
0.015142
-8.29237e-05
0.0151122
-7.0292e-05
0.0150861
-5.80255e-05
0.0150637
-4.60611e-05
0.015045
-3.43369e-05
0.01503
-2.27922e-05
0.0150188
-1.13666e-05
0.0150113
0.0150075
-0.000610758
0.0149643
0.000624624
-0.000580981
0.0157028
-0.000545608
0.016022
-0.000509591
0.0161066
-0.000474823
0.0160848
-0.000441831
0.0160229
-0.000410663
0.0159493
-0.000381237
0.0158749
-0.000353446
0.0158027
-0.00032719
0.0157335
-0.000302379
0.0156671
-0.000278929
0.0156034
-0.000256756
0.0155422
-0.000235779
0.0154838
-0.000215915
0.0154282
-0.000197083
0.0153756
-0.000179203
0.015326
-0.000162195
0.0152796
-0.000145983
0.0152365
-0.000130492
0.0151968
-0.000115649
0.0151605
-0.000101381
0.0151277
-8.76211e-05
0.0150985
-7.43004e-05
0.0150728
-6.13532e-05
0.0150508
-4.8715e-05
0.0150324
-3.63226e-05
0.0150176
-2.41137e-05
0.0150066
-1.20267e-05
0.0149992
0.0149955
-0.000636013
0.0149498
0.000650499
-0.000605276
0.015672
-0.000568675
0.0159854
-0.000531321
0.0160692
-0.000495226
0.0160487
-0.000460967
0.0159886
-0.000428607
0.015917
-0.000398061
0.0158443
-0.000369214
0.0157739
-0.000341959
0.0157062
-0.000316196
0.0156413
-0.000291836
0.015579
-0.000268789
0.0155192
-0.00024697
0.015462
-0.000226292
0.0154075
-0.000206671
0.0153559
-0.000188023
0.0153073
-0.000170267
0.0152619
-0.000153325
0.0152196
-0.00013712
0.0151806
-0.000121575
0.015145
-0.00010662
0.0151128
-9.21819e-05
0.015084
-7.81928e-05
0.0150588
-6.4585e-05
0.0150372
-5.12928e-05
0.0150191
-3.82515e-05
0.0150046
-2.53975e-05
0.0149937
-1.26679e-05
0.0149865
0.0149828
-0.000660671
0.0149345
0.000675914
-0.000628914
0.0156403
-0.000591071
0.0159476
-0.000552394
0.0160306
-0.000514996
0.0160113
-0.000479498
0.0159531
-0.000445977
0.0158835
-0.000414342
0.0158127
-0.000384471
0.015744
-0.000356247
0.015678
-0.000329563
0.0156147
-0.000304323
0.0155538
-0.000280432
0.0154953
-0.000257799
0.0154394
-0.000236335
0.0153861
-0.000215951
0.0153356
-0.000196562
0.015288
-0.000178085
0.0152434
-0.000160437
0.0152019
-0.000143541
0.0151637
-0.000127319
0.0151287
-0.000111697
0.0150971
-9.66032e-05
0.0150689
-8.19668e-05
0.0150442
-6.7719e-05
0.0150229
-5.37928e-05
0.0150052
-4.01223e-05
0.0149909
-2.66427e-05
0.0149802
-1.32899e-05
0.0149731
0.0149695
-0.000684661
0.0149184
0.000700784
-0.000651835
0.0156074
-0.000612748
0.0159085
-0.000572768
0.0159906
-0.000534096
0.0159726
-0.000497395
0.0159164
-0.000462746
0.0158488
-0.000430058
0.01578
-0.000399197
0.0157131
-0.000370038
0.0156489
-0.000342467
0.0155871
-0.000316379
0.0155277
-0.000291674
0.0154706
-0.000268258
0.015416
-0.000246037
0.0153639
-0.000224919
0.0153144
-0.000204816
0.0152679
-0.000185642
0.0152242
-0.000167314
0.0151836
-0.000149751
0.0151461
-0.000132875
0.0151119
-0.00011661
0.0150809
-0.000100883
0.0150532
-8.56202e-05
0.0150289
-7.07533e-05
0.0150081
-5.62136e-05
0.0149906
-4.1934e-05
0.0149766
-2.78487e-05
0.0149662
-1.38923e-05
0.0149592
0.0149557
-0.000707911
0.0149013
0.000725019
-0.000673976
0.0155735
-0.000633652
0.0158682
-0.000592399
0.0159493
-0.000552493
0.0159327
-0.000514627
0.0158786
-0.000478892
0.0158131
-0.000445188
0.0157463
-0.000413375
0.0156813
-0.000383318
0.0156188
-0.000354894
0.0155587
-0.000327991
0.0155008
-0.000302506
0.0154451
-0.000278338
0.0153918
-0.00025539
0.0153409
-0.000233567
0.0152926
-0.000212778
0.0152471
-0.000192935
0.0152044
-0.000173952
0.0151646
-0.000155748
0.0151279
-0.000138242
0.0150944
-0.000121357
0.015064
-0.000105017
0.0150369
-8.91509e-05
0.0150131
-7.36862e-05
0.0149926
-5.85539e-05
0.0149755
-4.36857e-05
0.0149618
-2.90148e-05
0.0149515
-1.44749e-05
0.0149446
0.0149412
-0.000730343
0.0148831
0.000748526
-0.000695276
0.0155384
-0.000653732
0.0158266
-0.000611244
0.0159068
-0.000570148
0.0158916
-0.000531165
0.0158396
-0.000494387
0.0157763
-0.000459711
0.0157116
-0.000426987
0.0156486
-0.00039607
0.0155879
-0.000366831
0.0155294
-0.000339151
0.0154731
-0.000312919
0.0154189
-0.000288032
0.0153669
-0.000264388
0.0153173
-0.000241889
0.0152701
-0.000220443
0.0152256
-0.000199958
0.0151839
-0.000180347
0.015145
-0.000161527
0.0151091
-0.000143415
0.0150762
-0.000125933
0.0150465
-0.000109005
0.0150199
-9.25571e-05
0.0149966
-7.65163e-05
0.0149766
-6.08124e-05
0.0149598
-4.53764e-05
0.0149463
-3.01404e-05
0.0149362
-1.50372e-05
0.0149295
0.0149261
-0.000751882
0.0148638
0.000771213
-0.000715672
0.0155022
-0.000672938
0.0157839
-0.000629262
0.0158632
-0.000587029
0.0158494
-0.000546979
0.0157995
-0.000509209
0.0157385
-0.000473607
0.015676
-0.000440016
0.015615
-0.000408282
0.0155562
-0.000378267
0.0154994
-0.000349846
0.0154447
-0.000322904
0.0153919
-0.000297331
0.0153413
-0.000273023
0.015293
-0.00024988
0.015247
-0.000227806
0.0152035
-0.000206707
0.0151628
-0.000186496
0.0151248
-0.000167085
0.0150897
-0.000148392
0.0150575
-0.000130338
0.0150285
-0.000112845
0.0150025
-9.58371e-05
0.0149796
-7.9242e-05
0.01496
-6.2988e-05
0.0149435
-4.70053e-05
0.0149304
-3.1225e-05
0.0149205
-1.55791e-05
0.0149139
0.0149106
-0.000772453
0.0148432
0.000792985
-0.000735104
0.0154649
-0.000691218
0.01574
-0.00064641
0.0158184
-0.0006031
0.0158061
-0.000562041
0.0157585
-0.000523333
0.0156998
-0.000486857
0.0156395
-0.000452447
0.0155806
-0.000419939
0.0155236
-0.00038919
0.0154687
-0.000360067
0.0154155
-0.000332452
0.0153643
-0.000306229
0.0153151
-0.000281291
0.015268
-0.000257535
0.0152232
-0.000234863
0.0151809
-0.00021318
0.0151411
-0.000192394
0.015104
-0.000172419
0.0150697
-0.000153171
0.0150383
-0.000134569
0.0150098
-0.000116534
0.0149844
-9.89893e-05
0.0149621
-8.18622e-05
0.0149428
-6.50799e-05
0.0149267
-4.85717e-05
0.0149139
-3.22681e-05
0.0149042
-1.61003e-05
0.0148977
0.0148945
-0.000791982
0.0148215
0.000813751
-0.000753514
0.0154264
-0.000708527
0.015695
-0.000662651
0.0157725
-0.000618329
0.0157618
-0.000576326
0.0157165
-0.000536738
0.0156602
-0.000499442
0.0156022
-0.000464263
0.0155454
-0.000431029
0.0154904
-0.000399589
0.0154372
-0.000369807
0.0153858
-0.000341556
0.0153361
-0.000314719
0.0152883
-0.000289185
0.0152425
-0.000264849
0.0151989
-0.00024161
0.0151576
-0.000219371
0.0151189
-0.000198039
0.0150827
-0.000177527
0.0150492
-0.000157749
0.0150185
-0.000138623
0.0149907
-0.00012007
0.0149659
-0.000102012
0.014944
-8.43758e-05
0.0149252
-6.7087e-05
0.0149095
-5.00749e-05
0.0148968
-3.32692e-05
0.0148874
-1.66005e-05
0.014881
0.0148779
-0.000810401
0.0147985
0.000833421
-0.000770844
0.0153868
-0.000724817
0.015649
-0.000677946
0.0157256
-0.000632686
0.0157165
-0.000589807
0.0156736
-0.000549404
0.0156198
-0.000511346
0.0155642
-0.000475451
0.0155095
-0.00044154
0.0154565
-0.000409456
0.0154051
-0.000379055
0.0153554
-0.000350209
0.0153072
-0.000322795
0.0152609
-0.000296701
0.0152164
-0.000271818
0.015174
-0.000248043
0.0151339
-0.000225278
0.0150961
-0.000203429
0.0150608
-0.000182407
0.0150282
-0.000162125
0.0149982
-0.000142501
0.0149711
-0.000123453
0.0149468
-0.000104905
0.0149255
-8.67818e-05
0.0149071
-6.90088e-05
0.0148917
-5.15145e-05
0.0148793
-3.42281e-05
0.0148701
-1.70797e-05
0.0148639
0.0148608
-0.000827643
0.0147742
0.000851911
-0.000787043
0.0153462
-0.000740048
0.015602
-0.000692262
0.0156778
-0.000646143
0.0156704
-0.000602462
0.0156299
-0.00056131
0.0155787
-0.000522552
0.0155254
-0.000485997
0.015473
-0.000451462
0.015422
-0.00041878
0.0153725
-0.000387806
0.0153244
-0.000358405
0.0152778
-0.000330453
0.0152329
-0.000303834
0.0151898
-0.000278438
0.0151486
-0.000254159
0.0151096
-0.000230898
0.0150728
-0.000208561
0.0150385
-0.000187056
0.0150067
-0.000166296
0.0149775
-0.000146199
0.014951
-0.000126682
0.0149273
-0.000107667
0.0149064
-8.90796e-05
0.0148885
-7.08446e-05
0.0148735
-5.28899e-05
0.0148614
-3.51444e-05
0.0148523
-1.75377e-05
0.0148463
0.0148432
-0.000843647
0.0147487
0.000869143
-0.000802064
0.0153047
-0.00075418
0.0155541
-0.000705569
0.0156292
-0.000658676
0.0156235
-0.000614271
0.0155855
-0.000572442
0.0155368
-0.000533048
0.015486
-0.000495892
0.0154358
-0.000460784
0.0153869
-0.000427555
0.0153392
-0.000396052
0.0152929
-0.000366139
0.0152479
-0.000337688
0.0152045
-0.000310581
0.0151627
-0.000284706
0.0151227
-0.000259956
0.0150848
-0.00023623
0.0150491
-0.000213433
0.0150157
-0.000191473
0.0149847
-0.000170263
0.0149563
-0.000149717
0.0149305
-0.000129755
0.0149073
-0.000110297
0.014887
-9.12685e-05
0.0148695
-7.2594e-05
0.0148548
-5.42009e-05
0.014843
-3.60179e-05
0.0148341
-1.79743e-05
0.0148282
0.0148253
-0.000858358
0.014722
0.000885043
-0.000815863
0.0152622
-0.000767182
0.0155054
-0.000717839
0.0155799
-0.000670262
0.0155759
-0.000625215
0.0155404
-0.000582784
0.0154944
-0.000542821
0.0154461
-0.000505125
0.0153981
-0.0004695
0.0153512
-0.000435773
0.0153055
-0.000403789
0.0152609
-0.000373407
0.0152175
-0.000344497
0.0151755
-0.000316939
0.0151351
-0.00029062
0.0150964
-0.000265431
0.0150596
-0.000241272
0.0150249
-0.000218045
0.0149925
-0.000195658
0.0149623
-0.000174022
0.0149346
-0.000153054
0.0149095
-0.000132671
0.014887
-0.000112795
0.0148671
-9.33482e-05
0.01485
-7.42566e-05
0.0148357
-5.54473e-05
0.0148242
-3.68485e-05
0.0148155
-1.83895e-05
0.0148098
0.0148069
-0.00087173
0.0146942
0.000899549
-0.000828406
0.0152188
-0.000779024
0.015456
-0.000729049
0.0155299
-0.000680883
0.0155278
-0.000635281
0.0154948
-0.000592324
0.0154515
-0.000551861
0.0154056
-0.000513687
0.0153599
-0.000477603
0.0153151
-0.000443431
0.0152713
-0.000411012
0.0152285
-0.000380205
0.0151867
-0.000350877
0.0151462
-0.000322906
0.0151071
-0.000296178
0.0150697
-0.000270584
0.015034
-0.000246022
0.0150004
-0.000222394
0.0149688
-0.000199608
0.0149395
-0.000177575
0.0149126
-0.00015621
0.0148881
-0.000135432
0.0148662
-0.00011516
0.0148468
-9.53184e-05
0.0148302
-7.58324e-05
0.0148162
-5.66289e-05
0.014805
-3.76361e-05
0.0147965
-1.87832e-05
0.0147909
0.0147881
-0.000883722
0.0146653
0.000912606
-0.00083966
0.0151748
-0.000789684
0.0154061
-0.000739182
0.0154794
-0.000690525
0.0154791
-0.000644456
0.0154488
-0.000601053
0.0154081
-0.000560162
0.0153647
-0.000521575
0.0153213
-0.000485089
0.0152787
-0.000450524
0.0152368
-0.000417719
0.0151957
-0.000386531
0.0151555
-0.000356826
0.0151165
-0.00032848
0.0150788
-0.000301379
0.0150426
-0.000275413
0.0150081
-0.00025048
0.0149754
-0.000226482
0.0149448
-0.000203325
0.0149164
-0.000180921
0.0148902
-0.000159185
0.0148664
-0.000138035
0.014845
-0.000117392
0.0148262
-9.71791e-05
0.01481
-7.73212e-05
0.0147963
-5.77457e-05
0.0147854
-3.83807e-05
0.0147772
-1.91556e-05
0.0147717
0.0147689
-0.000894302
0.0146354
0.000924169
-0.000849604
0.0151301
-0.000799143
0.0153556
-0.000748224
0.0154285
-0.000699176
0.01543
-0.000652731
0.0154023
-0.000608964
0.0153643
-0.000567718
0.0153235
-0.000528782
0.0152824
-0.000491954
0.0152418
-0.000457049
0.0152019
-0.000423908
0.0151625
-0.000392384
0.015124
-0.000362343
0.0150865
-0.000333662
0.0150501
-0.000306223
0.0150151
-0.00027992
0.0149818
-0.000254647
0.0149502
-0.000230307
0.0149205
-0.000206808
0.0148929
-0.00018406
0.0148675
-0.000161979
0.0148443
-0.000140483
0.0148235
-0.000119492
0.0148052
-9.89304e-05
0.0147894
-7.87232e-05
0.0147761
-5.87977e-05
0.0147655
-3.90824e-05
0.0147575
-1.95065e-05
0.0147521
0.0147494
-0.000903446
0.0146047
0.000934201
-0.000858221
0.0150849
-0.000807391
0.0153048
-0.000756166
0.0153773
-0.000706831
0.0153807
-0.000660103
0.0153556
-0.000616053
0.0153202
-0.000574526
0.0152819
-0.000535308
0.0152432
-0.000498197
0.0152047
-0.000463008
0.0151667
-0.000429579
0.0151291
-0.000397764
0.0150922
-0.000367429
0.0150561
-0.00033845
0.0150211
-0.000310711
0.0149874
-0.000284103
0.0149552
-0.000258522
0.0149246
-0.000233871
0.0148958
-0.000210058
0.0148691
-0.000186993
0.0148444
-0.000164592
0.0148219
-0.000142774
0.0148017
-0.00012146
0.0147839
-0.000100573
0.0147685
-8.00387e-05
0.0147556
-5.97853e-05
0.0147452
-3.97412e-05
0.0147374
-1.9836e-05
0.0147322
0.0147296
-0.000911138
0.0145731
0.000942677
-0.000865501
0.0150392
-0.000814422
0.0152537
-0.000763005
0.0153258
-0.000713487
0.0153312
-0.000666569
0.0153087
-0.000622321
0.015276
-0.000580586
0.0152402
-0.000541153
0.0152038
-0.000503818
0.0151674
-0.000468399
0.0151312
-0.000434732
0.0150954
-0.000402672
0.0150601
-0.000372085
0.0150255
-0.000342848
0.0149919
-0.000314844
0.0149594
-0.000287964
0.0149283
-0.000262107
0.0148987
-0.000237175
0.0148709
-0.000213075
0.014845
-0.00018972
0.014821
-0.000167026
0.0147992
-0.00014491
0.0147796
-0.000123296
0.0147623
-0.000102106
0.0147473
-8.12681e-05
0.0147348
-6.07087e-05
0.0147247
-4.03575e-05
0.0147171
-2.01443e-05
0.014712
0.0147095
-0.000917373
0.0145409
0.000949585
-0.000871445
0.0149933
-0.000820236
0.0152025
-0.000768743
0.0152743
-0.000719145
0.0152816
-0.000672131
0.0152617
-0.000627768
0.0152316
-0.0005859
0.0151983
-0.000546319
0.0151642
-0.000508821
0.0151299
-0.000473226
0.0150956
-0.00043937
0.0150616
-0.000407111
0.0150279
-0.000376314
0.0149948
-0.000346856
0.0149624
-0.000318623
0.0149312
-0.000291506
0.0149012
-0.000265403
0.0148726
-0.000240219
0.0148457
-0.000215862
0.0148206
-0.000192243
0.0147974
-0.00016928
0.0147762
-0.000146892
0.0147572
-0.000125001
0.0147404
-0.000103532
0.0147258
-8.24119e-05
0.0147136
-6.15683e-05
0.0147038
-4.09314e-05
0.0146964
-2.04315e-05
0.0146915
0.014689
-0.000922154
0.0145082
0.000954922
-0.000876057
0.0149472
-0.000824842
0.0151513
-0.000773386
0.0152229
-0.000723813
0.015232
-0.000676796
0.0152147
-0.000632401
0.0151872
-0.000590474
0.0151564
-0.000550811
0.0151245
-0.00051321
0.0150923
-0.000477492
0.0150599
-0.000443498
0.0150276
-0.000411083
0.0149955
-0.000380117
0.0149638
-0.000350478
0.0149328
-0.000322051
0.0149027
-0.00029473
0.0148739
-0.000268414
0.0148463
-0.000243007
0.0148203
-0.00021842
0.014796
-0.000194564
0.0147736
-0.000171358
0.014753
-0.000148721
0.0147346
-0.000126577
0.0147182
-0.000104851
0.0147041
-8.34708e-05
0.0146923
-6.23647e-05
0.0146827
-4.14633e-05
0.0146755
-2.06978e-05
0.0146707
0.0146683
-0.000925493
0.014475
0.000958694
-0.000879351
0.0149011
-0.000828251
0.0151002
-0.000776946
0.0151716
-0.000727501
0.0151826
-0.000680573
0.0151677
-0.000636227
0.0151429
-0.000594315
0.0151145
-0.000554635
0.0150848
-0.000516989
0.0150546
-0.000481203
0.0150241
-0.000447119
0.0149935
-0.000414595
0.0149629
-0.000383501
0.0149327
-0.000353718
0.014903
-0.000325133
0.0148742
-0.00029764
0.0148464
-0.000271141
0.0148198
-0.000245541
0.0147947
-0.000220751
0.0147712
-0.000196684
0.0147495
-0.00017326
0.0147296
-0.000150399
0.0147117
-0.000128025
0.0146959
-0.000106065
0.0146822
-8.44458e-05
0.0146706
-6.30985e-05
0.0146614
-4.19537e-05
0.0146544
-2.09434e-05
0.0146497
0.0146474
-0.000927411
0.0144415
0.000960915
-0.000881349
0.014855
-0.000830483
0.0150493
-0.00077944
0.0151205
-0.000730223
0.0151334
-0.000683473
0.015121
-0.000639258
0.0150987
-0.000597432
0.0150727
-0.0005578
0.0150452
-0.000520169
0.015017
-0.000484367
0.0149883
-0.00045024
0.0149594
-0.00041765
0.0149304
-0.000386469
0.0149015
-0.00035658
0.0148731
-0.000327871
0.0148455
-0.00030024
0.0148187
-0.000273589
0.0147932
-0.000247824
0.014769
-0.000222858
0.0147463
-0.000198607
0.0147252
-0.000174989
0.014706
-0.000151927
0.0146886
-0.000129346
0.0146733
-0.000107173
0.01466
-8.53378e-05
0.0146488
-6.37705e-05
0.0146398
-4.24031e-05
0.014633
-2.11685e-05
0.0146285
0.0146262
-0.000927935
0.0144078
0.000961613
-0.000882076
0.0148091
-0.000831562
0.0149988
-0.000780889
0.0150699
-0.000731998
0.0150845
-0.000685515
0.0150745
-0.000641508
0.0150547
-0.000599838
0.015031
-0.000560317
0.0150057
-0.000522757
0.0149795
-0.000486991
0.0149526
-0.00045287
0.0149253
-0.000420257
0.0148977
-0.000389029
0.0148703
-0.00035907
0.0148432
-0.000330272
0.0148167
-0.000302535
0.014791
-0.000275761
0.0147664
-0.00024986
0.0147431
-0.000224745
0.0147212
-0.000200334
0.0147008
-0.000176547
0.0146822
-0.000153307
0.0146654
-0.000130542
0.0146505
-0.000108179
0.0146376
-8.6148e-05
0.0146268
-6.43814e-05
0.014618
-4.2812e-05
0.0146115
-2.13734e-05
0.014607
0.0146048
-0.0009271
0.0143741
0.000960826
-0.000881565
0.0147636
-0.000831517
0.0149487
-0.000781319
0.0150197
-0.000732847
0.015036
-0.000686715
0.0150284
-0.000642993
0.0150109
-0.000601548
0.0149896
-0.000562199
0.0149663
-0.000524766
0.014942
-0.000489087
0.0149169
-0.000455016
0.0148912
-0.000422423
0.0148651
-0.000391187
0.014839
-0.000361194
0.0148132
-0.000332341
0.0147878
-0.000304528
0.0147632
-0.000277662
0.0147395
-0.000251652
0.014717
-0.000226415
0.0146959
-0.000201869
0.0146763
-0.000177937
0.0146583
-0.000154543
0.014642
-0.000131615
0.0146276
-0.000109083
0.0146151
-8.68775e-05
0.0146046
-6.49323e-05
0.0145961
-4.3181e-05
0.0145897
-2.15584e-05
0.0145854
0.0145833
-0.000924951
0.0143404
0.000958599
-0.000879855
0.0147185
-0.000830383
0.0148993
-0.000780759
0.01497
-0.000732798
0.014988
-0.000687098
0.0149827
-0.000643733
0.0149676
-0.000602579
0.0149484
-0.000563461
0.0149272
-0.000526208
0.0149048
-0.000490665
0.0148814
-0.00045669
0.0148572
-0.000424158
0.0148326
-0.000392951
0.0148078
-0.000362961
0.0147832
-0.000334085
0.0147589
-0.000306227
0.0147353
-0.000279296
0.0147126
-0.000253205
0.014691
-0.000227872
0.0146706
-0.000203216
0.0146516
-0.000179161
0.0146342
-0.000155636
0.0146185
-0.000132567
0.0146045
-0.000109887
0.0145924
-8.7528e-05
0.0145822
-6.54242e-05
0.014574
-4.35108e-05
0.0145678
-2.17239e-05
0.0145636
0.0145616
-0.000921536
0.014307
0.000954986
-0.000876992
0.014674
-0.000828199
0.0148505
-0.000779244
0.0149211
-0.000731878
0.0149407
-0.000686688
0.0149375
-0.00064375
0.0149246
-0.000602948
0.0149076
-0.000564119
0.0148884
-0.000527099
0.0148677
-0.000491738
0.014846
-0.000457903
0.0148234
-0.000425471
0.0148002
-0.000394331
0.0147767
-0.000364377
0.0147532
-0.00033551
0.0147301
-0.000307638
0.0147074
-0.000280671
0.0146856
-0.000254525
0.0146648
-0.00022912
0.0146452
-0.000204378
0.0146269
-0.000180225
0.0146101
-0.000156589
0.0145949
-0.000133401
0.0145813
-0.000110594
0.0145696
-8.81009e-05
0.0145597
-6.58582e-05
0.0145517
-4.38022e-05
0.0145457
-2.18702e-05
0.0145417
0.0145397
-0.000916911
0.0142738
0.000950048
-0.000873024
0.0146301
-0.000825008
0.0148025
-0.00077681
0.0148729
-0.00073012
0.014894
-0.000685512
0.0148929
-0.000643067
0.0148822
-0.000602678
0.0148672
-0.000564192
0.0148499
-0.000527454
0.014831
-0.000492321
0.0148109
-0.000458667
0.0147897
-0.000426374
0.0147679
-0.000395336
0.0147457
-0.000365452
0.0147233
-0.000336625
0.0147012
-0.000308767
0.0146796
-0.000281791
0.0146587
-0.000255616
0.0146386
-0.000230164
0.0146197
-0.000205359
0.0146021
-0.000181129
0.0145858
-0.000157405
0.0145711
-0.000134119
0.0145581
-0.000111205
0.0145467
-8.85978e-05
0.0145371
-6.62357e-05
0.0145294
-4.40561e-05
0.0145236
-2.19978e-05
0.0145196
0.0145177
-0.000911137
0.0142411
0.000943852
-0.000868005
0.0145869
-0.000820857
0.0147553
-0.000773498
0.0148255
-0.000727559
0.014848
-0.000683601
0.0148489
-0.000641711
0.0148403
-0.000601791
0.0148273
-0.0005637
0.0148118
-0.00052729
0.0147946
-0.000492429
0.014776
-0.000458996
0.0147563
-0.000426879
0.0147358
-0.000395978
0.0147148
-0.000366195
0.0146936
-0.000337438
0.0146725
-0.000309622
0.0146518
-0.000282664
0.0146317
-0.000256485
0.0146125
-0.00023101
0.0145942
-0.000206165
0.0145772
-0.00018188
0.0145616
-0.000158089
0.0145473
-0.000134724
0.0145347
-0.000111722
0.0145237
-8.90207e-05
0.0145144
-6.65579e-05
0.0145069
-4.42733e-05
0.0145013
-2.21071e-05
0.0144975
0.0144956
-0.000904279
0.0142089
0.00093647
-0.000861993
0.0145447
-0.000815796
0.0147091
-0.000769351
0.0147791
-0.000724231
0.0148029
-0.000680987
0.0148057
-0.000639709
0.014799
-0.000600312
0.0147879
-0.000562663
0.0147742
-0.000526627
0.0147586
-0.000492078
0.0147415
-0.000458904
0.0147231
-0.000426999
0.0147039
-0.000396267
0.014684
-0.000366616
0.0146639
-0.000337958
0.0146438
-0.000310212
0.014624
-0.000283297
0.0146048
-0.000257138
0.0145863
-0.000231662
0.0145688
-0.000206799
0.0145524
-0.000182481
0.0145372
-0.000158642
0.0145235
-0.000135219
0.0145113
-0.000112149
0.0145006
-8.93713e-05
0.0144916
-6.68262e-05
0.0144844
-4.44547e-05
0.0144789
-2.21986e-05
0.0144752
0.0144734
-0.000896404
0.0141773
0.000927978
-0.000855048
0.0145033
-0.000809876
0.0146639
-0.000764413
0.0147336
-0.000720176
0.0147587
-0.000677703
0.0147632
-0.000637091
0.0147584
-0.000598265
0.0147491
-0.000561105
0.014737
-0.000525484
0.0147229
-0.000491287
0.0147073
-0.000458408
0.0146902
-0.000426748
0.0146722
-0.000396216
0.0146535
-0.000366726
0.0146344
-0.000338195
0.0146153
-0.000310543
0.0145964
-0.000283696
0.0145779
-0.000257581
0.0145602
-0.000232127
0.0145433
-0.000207267
0.0145275
-0.000182936
0.0145129
-0.00015907
0.0144996
-0.000135607
0.0144878
-0.000112487
0.0144775
-8.96518e-05
0.0144688
-6.70422e-05
0.0144618
-4.46014e-05
0.0144565
-2.22727e-05
0.0144529
0.0144511
-0.000887583
0.0141465
0.000918456
-0.000847231
0.0144629
-0.000803151
0.0146199
-0.000758732
0.0146892
-0.000715434
0.0147154
-0.000673785
0.0147215
-0.000633888
0.0147185
-0.000595679
0.0147109
-0.000559048
0.0147004
-0.000523882
0.0146878
-0.000490073
0.0146734
-0.000457522
0.0146577
-0.000426139
0.0146408
-0.000395838
0.0146232
-0.000366537
0.0146051
-0.000338158
0.0145869
-0.000310627
0.0145688
-0.000283871
0.0145512
-0.000257821
0.0145341
-0.000232411
0.0145179
-0.000207575
0.0145027
-0.00018325
0.0144886
-0.000159375
0.0144758
-0.000135892
0.0144643
-0.00011274
0.0144543
-8.98643e-05
0.0144459
-6.72075e-05
0.0144391
-4.47144e-05
0.014434
-2.233e-05
0.0144305
0.0144288
-0.000877889
0.0141164
0.000907985
-0.000838606
0.0144237
-0.000795679
0.0145769
-0.000752357
0.0146459
-0.000710047
0.0146731
-0.00066927
0.0146808
-0.000630131
0.0146794
-0.00059258
0.0146733
-0.000556519
0.0146643
-0.000521843
0.0146531
-0.000488456
0.0146401
-0.000456266
0.0146255
-0.000425189
0.0146098
-0.000395146
0.0145932
-0.00036606
0.014576
-0.000337859
0.0145587
-0.000310471
0.0145415
-0.000283829
0.0145245
-0.000257866
0.0145082
-0.00023252
0.0144926
-0.000207727
0.0144779
-0.000183427
0.0144643
-0.000159563
0.0144519
-0.000136076
0.0144408
-0.00011291
0.0144312
-9.00109e-05
0.014423
-6.73236e-05
0.0144164
-4.47947e-05
0.0144114
-2.23711e-05
0.0144081
0.0144064
-0.000867395
0.0140871
0.000896646
-0.000829239
0.0143855
-0.000787514
0.0145352
-0.000745336
0.0146037
-0.000704059
0.0146318
-0.000664195
0.0146409
-0.000625854
0.014641
-0.000588998
0.0146364
-0.000553541
0.0146289
-0.00051939
0.0146189
-0.000486455
0.0146071
-0.000454655
0.0145937
-0.000423912
0.014579
-0.000394153
0.0145634
-0.000365308
0.0145472
-0.000337307
0.0145307
-0.000310086
0.0145142
-0.000283579
0.014498
-0.000257724
0.0144823
-0.00023246
0.0144673
-0.00020773
0.0144532
-0.000183474
0.01444
-0.000159637
0.0144281
-0.000136164
0.0144174
-0.000113
0.014408
-9.00941e-05
0.0144001
-6.73924e-05
0.0143937