/*--------------------------------*- C++ -*----------------------------------*\
  =========                 |
  \\      /  F ield         | OpenFOAM: The Open Source CFD Toolbox
   \\    /   O peration     | Website:  https://openfoam.org
    \\  /    A nd           | Version:  7
     \\/     M anipulation  |
\*---------------------------------------------------------------------------*/
FoamFile
{
    version     2.0;
    format      ascii;
    class       surfaceScalarField;
    location    "20";
    object      phi;
}
// * * * * * * * * * * * * * * * * * * * * * * * * * * * * * * * * * * * * * //

dimensions      [0 3 -1 0 0 0 0];

internalField   nonuniform List<scalar> 
2638
(
0.00273027
-0.00011519
0.00284546
-0.000115182
0.00296047
-0.000115018
0.00307518
-0.000114707
0.00318944
-0.000114257
0.00330312
-0.000113681
0.00341611
-0.000112987
0.00352829
-0.000112185
0.00363958
-0.000111286
0.00374987
-0.000110298
0.00385911
-0.000109232
0.0039672
-0.000108095
0.0040741
-0.000106895
0.00417974
-0.000105641
0.00428407
-0.000104338
0.00438707
-0.000102994
0.00448868
-0.000101616
0.00458889
-0.000100207
0.00468767
-9.87746e-05
0.00478499
-9.73225e-05
0.00488084
-9.58553e-05
0.00497522
-9.43769e-05
0.00506811
-9.28912e-05
0.00515951
-9.14014e-05
0.00524942
-8.99105e-05
0.00533784
-8.84213e-05
0.00542478
-8.69363e-05
0.00551024
-8.54577e-05
0.00559423
-8.39876e-05
0.00567675
-8.25277e-05
0.00575783
-8.10796e-05
0.00583748
-7.96448e-05
0.0059157
-7.82246e-05
0.00599252
-7.68201e-05
0.00606795
-7.54322e-05
0.00614202
-7.40618e-05
0.00621473
-7.27097e-05
0.0062861
-7.13764e-05
0.00635617
-7.00626e-05
0.00642493
-6.87687e-05
0.00649243
-6.74951e-05
0.00655867
-6.6242e-05
0.00662368
-6.50096e-05
0.00668748
-6.37983e-05
0.00675009
-6.2608e-05
0.00681153
-6.14389e-05
0.00687182
-6.0291e-05
0.00693098
-5.91642e-05
-1.6216e-10
0.00698904
-5.80585e-05
-1.75874e-10
-5.69739e-05
-1.91463e-10
0.00315313
-0.000224047
0.00326195
-0.000224001
0.00337058
-0.000223651
0.00347889
-0.000223016
0.00358675
-0.000222115
0.00369404
-0.00022097
0.00380065
-0.000219599
0.00390649
-0.000218023
0.00401147
-0.000216261
0.0041155
-0.00021433
0.00421851
-0.000212249
0.00432045
-0.000210033
0.00442125
-0.000207698
0.00452087
-0.000205259
0.00461926
-0.000202729
0.00471639
-0.000200121
0.00481222
-0.000197447
0.00490673
-0.000194717
0.0049999
-0.000191941
0.0050917
-0.000189128
0.00518214
-0.000186287
0.00527118
-0.000183425
0.00535884
-0.00018055
0.00544511
-0.000177667
0.00552998
-0.000174782
0.00561346
-0.000171902
0.00569555
-0.00016903
0.00577627
-0.00016617
0.00585561
-0.000163327
0.00593358
-0.000160504
0.00601021
-0.000157704
0.00608549
-0.00015493
0.00615945
-0.000152184
0.0062321
-0.000149469
0.00630345
-0.000146786
0.00637353
-0.000144136
0.00644234
-0.000141523
0.00650991
-0.000138945
0.00657625
-0.000136405
0.00664139
-0.000133904
0.00670533
-0.000131442
0.00676811
-0.000129019
0.00682974
-0.000126637
0.00689024
-0.000124295
0.00694962
-0.000121994
0.00700792
-0.000119734
0.00706514
-0.000117515
0.00712131
-0.000115337
0.00717646
-0.0001132
-0.000111103
0.00394561
0.00404212
-0.000320515
0.00413844
-0.000319971
0.00423445
-0.000319023
0.00433004
-0.000317701
0.0044251
-0.000316035
0.00451956
-0.000314053
0.00461332
-0.000311784
0.00470631
-0.000309255
0.00479847
-0.000306491
0.00488974
-0.000303518
0.00498007
-0.000300357
0.0050694
-0.000297032
0.0051577
-0.000293561
0.00524494
-0.000289965
0.00533108
-0.00028626
0.00541609
-0.000282462
0.00549996
-0.000278587
0.00558267
-0.000274649
0.0056642
-0.00027066
0.00574455
-0.000266631
0.00582369
-0.000262574
0.00590164
-0.000258498
0.00597839
-0.000254412
0.00605393
-0.000250324
0.00612827
-0.000246242
0.00620141
-0.000242171
0.00627336
-0.000238119
0.00634412
-0.00023409
0.00641371
-0.000230089
0.00648212
-0.000226121
0.00654938
-0.000222189
0.0066155
-0.000218298
0.00668048
-0.000214449
0.00674434
-0.000210645
0.00680709
-0.00020689
0.00686875
-0.000203184
0.00692934
-0.00019953
0.00698886
-0.000195929
0.00704734
-0.000192382
0.00710479
-0.000188891
0.00716123
-0.000185456
0.00721667
-0.000182078
0.00727113
-0.000178757
0.00732463
-0.000175494
0.00737718
-0.000172289
0.00742881
-0.000169141
0.00747952
-0.000166052
0.00752934
-0.000163021
0.00757829
-0.000160047
-0.000157131
0.00508776
-0.000399618
0.00516674
-0.000398956
0.00524551
-0.000397796
0.00532399
-0.000396176
0.00540209
-0.000394135
0.00547974
-0.000391708
0.00555689
-0.00038893
0.00563347
-0.000385835
0.00570943
-0.000382453
0.00578473
-0.000378814
0.00585932
-0.000374947
0.00593316
-0.000370878
0.00600623
-0.000366631
0.0060785
-0.000362228
0.00614993
-0.000357692
0.00622051
-0.000353041
0.00629021
-0.000348294
0.00635903
-0.000343468
0.00642695
-0.000338578
0.00649396
-0.000333637
0.00656004
-0.00032866
0.00662521
-0.000323659
0.00668944
-0.000318643
0.00675273
-0.000313623
0.0068151
-0.000308607
0.00687653
-0.000303605
0.00693704
-0.000298624
0.00699662
-0.000293669
0.00705528
-0.000288748
0.00711302
-0.000283865
0.00716986
-0.000279026
0.00722579
-0.000274234
0.00728084
-0.000269494
0.007335
-0.000264808
0.00738829
-0.000260181
0.00744072
-0.000255614
0.0074923
-0.000251109
0.00754304
-0.000246669
0.00759295
-0.000242295
0.00764205
-0.000237989
0.00769035
-0.000233751
0.00773785
-0.000229583
0.00778458
-0.000225484
0.00783054
-0.000221457
0.00787575
-0.0002175
0.00792023
-0.000213615
0.00796398
-0.000209801
0.00800701
-0.000206058
0.00804935
-0.000202386
-0.000198785
0.00626838
0.00632637
-0.000456947
0.00638443
-0.000455853
0.00644248
-0.000454235
0.00650048
-0.000452133
0.00655837
-0.000449591
0.00661608
-0.000446645
0.00667358
-0.000443333
0.00673082
-0.000439691
0.00678775
-0.000435751
0.00684435
-0.000431544
0.00690057
-0.0004271
0.00695639
-0.000422446
0.00701177
-0.000417608
0.00706668
-0.000412609
0.00712112
-0.000407472
0.00717504
-0.000402218
0.00722843
-0.000396864
0.00728129
-0.00039143
0.00733358
-0.000385931
0.0073853
-0.000380383
0.00743644
-0.000374798
0.00748699
-0.00036919
0.00753694
-0.00036357
0.00758628
-0.00035795
0.00763501
-0.000352337
0.00768313
-0.000346742
0.00773063
-0.000341172
0.00777752
-0.000335633
0.00782379
-0.000330134
0.00786944
-0.000324679
0.00791448
-0.000319274
0.00795891
-0.000313923
0.00800273
-0.000308631
0.00804595
-0.0003034
0.00808858
-0.000298235
0.0081306
-0.000293138
0.00817205
-0.000288112
0.00821291
-0.000283158
0.0082532
-0.000278279
0.00829292
-0.000273475
0.00833209
-0.000268748
0.0083707
-0.0002641
0.00840878
-0.00025953
0.00844632
-0.000255039
0.00848333
-0.000250628
0.00851983
-0.000246298
0.00855581
-0.000242047
0.0085913
-0.000237876
-0.000233785
0.00747316
0.00750903
-0.000491729
0.00754545
-0.000490648
0.00758234
-0.000489023
0.00761964
-0.000486898
0.00765731
-0.000484312
0.00769528
-0.000481306
0.00773351
-0.000477917
0.00777194
-0.000474181
0.00781053
-0.00047013
0.00784922
-0.000465798
0.00788799
-0.000461214
0.00792679
-0.000456405
0.00796558
-0.0004514
0.00800433
-0.000446221
0.008043
-0.000440893
0.00808157
-0.000435436
0.00812001
-0.000429871
0.0081583
-0.000424216
0.0081964
-0.000418488
0.00823431
-0.000412704
0.008272
-0.000406876
0.00830945
-0.000401021
0.00834665
-0.000395148
0.00838358
-0.00038927
0.00842023
-0.000383397
0.0084566
-0.000377538
0.00849267
-0.000371702
0.00852843
-0.000365897
0.00856388
-0.000360129
0.00859901
-0.000354406
0.00863382
-0.000348732
0.0086683
-0.000343113
0.00870246
-0.000337553
0.00873628
-0.000332057
0.00876977
-0.000326627
0.00880292
-0.000321268
0.00883575
-0.000315982
0.00886824
-0.00031077
0.0089004
-0.000305637
0.00893223
-0.000300582
0.00896374
-0.000295607
0.00899493
-0.000290714
0.00902579
-0.000285904
0.00905634
-0.000281177
0.00908657
-0.000276533
0.0091165
-0.000271974
0.00914612
-0.000267499
-0.000263109
0.00847944
0.00849571
-0.000506911
0.00851318
-0.000506496
0.00853177
-0.000505493
0.00855141
-0.000503945
0.00857199
-0.000501895
0.00859346
-0.000499385
0.00861573
-0.000496452
0.00863874
-0.000493135
0.00866241
-0.000489469
0.00868668
-0.000485487
0.0087115
-0.000481221
0.0087368
-0.0004767
0.00876253
-0.000471954
0.00878865
-0.000467007
0.0088151
-0.000461886
0.00884184
-0.000456613
0.00886883
-0.000451209
0.00889604
-0.000445695
0.00892343
-0.000440089
0.00895096
-0.000434408
0.00897861
-0.000428669
0.00900634
-0.000422885
0.00903414
-0.00041707
0.00906198
-0.000411237
0.00908984
-0.000405398
0.0091177
-0.000399562
0.00914554
-0.000393739
0.00917335
-0.000387937
0.00920111
-0.000382166
0.00922881
-0.000376431
0.00925644
-0.000370739
0.00928398
-0.000365097
0.00931143
-0.000359509
0.00933878
-0.00035398
0.00936603
-0.000348513
0.00939316
-0.000343114
0.00942018
-0.000337785
0.00944707
-0.000332529
0.00947384
-0.000327348
0.00950047
-0.000322244
0.00952698
-0.000317221
0.00955335
-0.000312277
0.00957959
-0.000307417
0.0096057
-0.000302639
0.00963167
-0.000297945
0.00965751
-0.000293336
0.00968321
-0.000288812
-0.000284374
0.00918128
0.00918356
-0.000508777
0.00918776
-0.000509692
0.00919374
-0.000509929
0.00920139
-0.000509538
0.00921057
-0.000508567
0.00922118
-0.000507061
0.00923311
-0.000505065
0.00924626
-0.000502619
0.00926053
-0.000499764
0.00927585
-0.000496537
0.00929212
-0.000492973
0.00930928
-0.000489106
0.00932723
-0.000484966
0.00934593
-0.000480583
0.0093653
-0.000475985
0.00938529
-0.000471198
0.00940584
-0.000466245
0.0094269
-0.00046115
0.00944843
-0.000455932
0.00947037
-0.000450611
0.00949269
-0.000445206
0.00951535
-0.000439732
0.00953832
-0.000434205
0.00956156
-0.00042864
0.00958505
-0.000423048
0.00960875
-0.000417442
0.00963265
-0.000411833
0.00965671
-0.000406231
0.00968093
-0.000400645
0.00970527
-0.000395084
0.00972973
-0.000389554
0.00975428
-0.000384062
0.00977892
-0.000378616
0.00980363
-0.000373219
0.00982839
-0.000367878
0.0098532
-0.000362597
0.00987805
-0.000357379
0.00990293
-0.000352228
0.00992783
-0.000347147
0.00995275
-0.000342139
0.00997768
-0.000337207
0.0100026
-0.000332352
0.0100276
-0.000327575
0.0100525
-0.00032288
0.0100774
-0.000318265
0.0101023
-0.000313734
-0.000309285
0.0140313
-0.000461587
0.0139864
-0.000464822
0.0139437
-0.00046725
0.0139031
-0.00046893
0.0138645
-0.000469919
0.0138277
-0.000470271
0.0137927
-0.000470035
0.0137593
-0.00046926
0.0137275
-0.00046799
0.0136973
-0.000466267
0.0136684
-0.000464132
0.0136409
-0.000461622
0.0136147
-0.000458771
0.0135898
-0.000455614
0.013566
-0.00045218
0.0135433
-0.0004485
0.0135216
-0.0004446
0.013501
-0.000440505
0.0134813
-0.000436239
0.0134625
-0.000431824
0.0134446
-0.000427281
0.0134275
-0.000422627
0.0134111
-0.000417881
0.0133956
-0.000413059
0.0133807
-0.000408175
0.0133665
-0.000403245
0.0133529
-0.000398279
0.01334
-0.000393291
0.0133276
-0.000388291
0.0133159
-0.000383288
0.0133046
-0.000378292
0.0132938
-0.000373311
0.0132836
-0.000368352
0.0132738
-0.000363422
0.0132644
-0.000358528
0.0132555
-0.000353675
0.013247
-0.000348868
0.0132389
-0.000344111
0.0132311
-0.000339409
0.0132238
-0.000334764
0.0132167
-0.000330182
0.0132101
-0.000325663
0.0132037
-0.000321211
0.0131976
-0.000316828
0.0131919
-0.000312516
0.0131864
-0.000308276
0.0131813
-0.00030411
-0.000300019
0.0153862
-0.000399984
0.0153271
-0.000405708
0.0152703
-0.000410504
0.0152158
-0.000414441
0.0151635
-0.000417581
0.0151132
-0.000419983
0.0150649
-0.000421703
0.0150184
-0.000422795
0.0149737
-0.000423307
0.0149307
-0.000423285
0.0148894
-0.000422775
0.0148496
-0.000421816
0.0148112
-0.000420449
0.0147743
-0.000418708
0.0147388
-0.000416628
0.0147045
-0.000414241
0.0146715
-0.000411577
0.0146397
-0.000408664
0.014609
-0.000405528
0.0145793
-0.000402193
0.0145507
-0.000398682
0.0145231
-0.000395016
0.0144964
-0.000391215
0.0144707
-0.000387298
0.0144458
-0.00038328
0.0144217
-0.000379179
0.0143985
-0.000375008
0.0143759
-0.00037078
0.0143542
-0.000366509
0.0143331
-0.000362206
0.0143127
-0.000357881
0.0142929
-0.000353543
0.0142738
-0.000349203
0.0142552
-0.000344867
0.0142372
-0.000340544
0.0142198
-0.00033624
0.0142029
-0.000331961
0.0141865
-0.000327713
0.0141706
-0.000323501
0.0141551
-0.000319329
0.0141402
-0.000315203
0.0141256
-0.000311124
0.0141115
-0.000307098
0.0140978
-0.000303126
0.0140845
-0.000299212
0.0140716
-0.000295357
0.014059
-0.000291565
-0.000287836
0.0164561
-0.00033361
0.0163918
-0.000341435
0.0163296
-0.000348269
0.0162693
-0.000354181
0.016211
-0.000359234
0.0161545
-0.000363486
0.0160998
-0.000366995
0.0160468
-0.000369815
0.0159955
-0.000371996
0.0159458
-0.000373586
0.0158976
-0.000374629
0.015851
-0.000375169
0.0158058
-0.000375246
0.015762
-0.000374897
0.0157195
-0.000374159
0.0156783
-0.000373063
0.0156384
-0.000371643
0.0155997
-0.000369927
0.0155621
-0.000367943
0.0155256
-0.000365717
0.0154902
-0.000363274
0.0154558
-0.000360635
0.0154224
-0.000357823
0.01539
-0.000354856
0.0153584
-0.000351754
0.0153278
-0.000348533
0.015298
-0.000345209
0.015269
-0.000341798
0.0152408
-0.000338313
0.0152134
-0.000334766
0.0151867
-0.00033117
0.0151607
-0.000327535
0.0151353
-0.000323872
0.0151106
-0.000320189
0.0150866
-0.000316495
0.0150632
-0.000312799
0.0150403
-0.000309106
0.015018
-0.000305425
0.0149963
-0.00030176
0.0149751
-0.000298117
0.0149544
-0.000294502
0.0149342
-0.000290919
0.0149144
-0.000287372
0.0148952
-0.000283865
0.0148764
-0.000280401
0.014858
-0.000276983
0.01484
-0.000273614
-0.000270296
0.0172327
-0.000270403
0.0171709
-0.000279645
0.0171105
-0.000287899
0.0170516
-0.000295225
0.016994
-0.000301681
0.0169379
-0.000307324
0.0168831
-0.000312207
0.0168296
-0.000316379
0.0167775
-0.000319889
0.0167267
-0.000322783
0.0166772
-0.000325104
0.0166289
-0.000326893
0.0165819
-0.00032819
0.016536
-0.000329031
0.0164913
-0.000329452
0.0164477
-0.000329486
0.0164053
-0.000329164
0.0163638
-0.000328516
0.0163235
-0.000327569
0.0162841
-0.000326349
0.0162457
-0.000324882
0.0162083
-0.000323191
0.0161717
-0.000321296
0.0161361
-0.000319219
0.0161013
-0.000316978
0.0160674
-0.000314592
0.0160342
-0.000312076
0.0160019
-0.000309447
0.0159703
-0.000306719
0.0159394
-0.000303906
0.0159093
-0.000301019
0.0158798
-0.000298071
0.015851
-0.000295073
0.0158229
-0.000292034
0.0157953
-0.000288964
0.0157684
-0.000285871
0.0157421
-0.000282764
0.0157163
-0.000279649
0.0156911
-0.000276534
0.0156664
-0.000273424
0.0156422
-0.000270326
0.0156185
-0.000267244
0.0155953
-0.000264183
0.0155726
-0.000261148
0.0155504
-0.000258142
0.0155285
-0.00025517
0.0155072
-0.000252234
-0.000249337
0.0177489
-0.000214963
0.0176942
-0.000224939
0.0176403
-0.000233972
0.0175872
-0.000242114
0.0175349
-0.000249416
0.0174835
-0.000255929
0.017433
-0.000261698
0.0173834
-0.00026677
0.0173347
-0.000271188
0.0172869
-0.000274995
0.01724
-0.000278229
0.0171941
-0.000280929
0.017149
-0.000283132
0.0171049
-0.000284873
0.0170616
-0.000286183
0.0170192
-0.000287096
0.0169777
-0.00028764
0.016937
-0.000287844
0.0168972
-0.000287735
0.0168582
-0.000287338
0.01682
-0.000286677
0.0167825
-0.000285775
0.0167459
-0.000284652
0.01671
-0.000283329
0.0166749
-0.000281826
0.0166404
-0.000280158
0.0166067
-0.000278344
0.0165736
-0.000276399
0.0165413
-0.000274338
0.0165095
-0.000272173
0.0164784
-0.000269919
0.0164479
-0.000267586
0.0164181
-0.000265186
0.0163888
-0.00026273
0.01636
-0.000260227
0.0163318
-0.000257685
0.0163042
-0.000255114
0.0162771
-0.000252522
0.0162504
-0.000249914
0.0162243
-0.000247298
0.0161987
-0.00024468
0.0161735
-0.000242066
0.0161488
-0.00023946
0.0161245
-0.000236868
0.0161006
-0.000234294
0.0160772
-0.000231741
0.0160542
-0.000229215
-0.000226717
0.0180586
-0.000168858
0.0180127
-0.000179036
0.0179671
-0.000188336
0.0179218
-0.000196803
0.0178769
-0.000204482
0.0178323
-0.000211415
0.0177883
-0.000217643
0.0177447
-0.000223208
0.0177017
-0.000228147
0.0176592
-0.000232498
0.0176173
-0.000236297
0.0175759
-0.000239578
0.0175352
-0.000242375
0.017495
-0.000244719
0.0174555
-0.00024664
0.0174165
-0.000248168
0.0173782
-0.000249329
0.0173405
-0.000250151
0.0173034
-0.000250659
0.017267
-0.000250875
0.0172311
-0.000250823
0.0171959
-0.000250525
0.0171612
-0.00025
0.0171272
-0.000249268
0.0170937
-0.000248346
0.0170608
-0.000247253
0.0170284
-0.000246003
0.0169967
-0.000244613
0.0169654
-0.000243096
0.0169347
-0.000241466
0.0169045
-0.000239736
0.0168749
-0.000237917
0.0168457
-0.00023602
0.016817
-0.000234056
0.0167888
-0.000232034
0.0167611
-0.000229964
0.0167338
-0.000227853
0.016707
-0.00022571
0.0166807
-0.000223541
0.0166547
-0.000221355
0.0166292
-0.000219156
0.0166041
-0.000216951
0.0165794
-0.000214745
0.016555
-0.000212543
0.0165311
-0.00021035
0.0165075
-0.00020817
0.0164843
-0.000206006
-0.000203864
0.0182187
-0.000131741
0.0181814
-0.000141757
0.018144
-0.000150967
0.0181066
-0.000159409
0.0180693
-0.000167123
0.018032
-0.000174145
0.0179949
-0.000180511
0.0179579
-0.000186256
0.0179212
-0.000191414
0.0178847
-0.000196019
0.0178485
-0.000200102
0.0178126
-0.000203694
0.0177771
-0.000206824
0.0177419
-0.000209522
0.017707
-0.000211815
0.0176726
-0.000213729
0.0176386
-0.000215289
0.0176049
-0.00021652
0.0175717
-0.000217444
0.0175389
-0.000218083
0.0175066
-0.000218459
0.0174746
-0.000218591
0.0174431
-0.000218499
0.017412
-0.000218199
0.0173814
-0.00021771
0.0173512
-0.000217047
0.0173214
-0.000216226
0.0172921
-0.000215261
0.0172631
-0.000214165
0.0172346
-0.000212952
0.0172065
-0.000211634
0.0171788
-0.000210222
0.0171515
-0.000208726
0.0171246
-0.000207157
0.0170981
-0.000205525
0.017072
-0.000203837
0.0170463
-0.000202102
0.0170209
-0.000200328
0.0169959
-0.000198523
0.0169712
-0.000196692
0.0169469
-0.000194842
0.0169229
-0.000192979
0.0168993
-0.000191108
0.016876
-0.000189235
0.016853
-0.000187363
0.0168303
-0.000185498
0.0168079
-0.000183643
-0.000181802
0.0182782
-0.000102381
0.0182484
-0.000112
0.0182183
-0.000120887
0.018188
-0.000129074
0.0181575
-0.000136593
0.0181268
-0.000143478
0.018096
-0.000149758
0.0180653
-0.000155465
0.0180345
-0.000160628
0.0180037
-0.000165277
0.0179731
-0.00016944
0.0179425
-0.000173144
0.0179121
-0.000176416
0.0178819
-0.00017928
0.0178518
-0.000181763
0.017822
-0.000183887
0.0177924
-0.000185675
0.017763
-0.00018715
0.0177339
-0.000188332
0.017705
-0.000189241
0.0176765
-0.000189897
0.0176482
-0.000190318
0.0176202
-0.000190521
0.0175925
-0.000190523
0.0175652
-0.00019034
0.0175381
-0.000189987
0.0175114
-0.000189477
0.0174849
-0.000188826
0.0174588
-0.000188045
0.017433
-0.000187146
0.0174075
-0.000186141
0.0173823
-0.000185041
0.0173575
-0.000183856
0.0173329
-0.000182595
0.0173086
-0.000181267
0.0172847
-0.000179882
0.017261
-0.000178446
0.0172377
-0.000176967
0.0172146
-0.000175452
0.0171918
-0.000173909
0.0171693
-0.000172341
0.0171471
-0.000170757
0.0171251
-0.000169159
0.0171035
-0.000167555
0.017082
-0.000165948
0.0170609
-0.000164342
0.01704
-0.000162742
-0.000161151
0.0182751
-7.93202e-05
0.0182515
-8.83959e-05
0.0182274
-9.68106e-05
0.0182029
-0.000104592
0.0181781
-0.000111768
0.018153
-0.000118365
0.0181276
-0.000124411
0.0181021
-0.000129933
0.0180764
-0.000134956
0.0180507
-0.000139505
0.0180248
-0.000143606
0.017999
-0.000147283
0.0179731
-0.000150559
0.0179473
-0.000153457
0.0179215
-0.000156
0.0178958
-0.000158207
0.0178703
-0.0001601
0.0178448
-0.000161699
0.0178195
-0.000163022
0.0177944
-0.000164088
0.0177694
-0.000164914
0.0177446
-0.000165517
0.01772
-0.000165913
0.0176956
-0.000166117
0.0176714
-0.000166143
0.0176474
-0.000166007
0.0176236
-0.00016572
0.0176001
-0.000165295
0.0175768
-0.000164744
0.0175537
-0.000164079
0.0175309
-0.00016331
0.0175083
-0.000162447
0.0174859
-0.000161499
0.0174638
-0.000160476
0.0174419
-0.000159387
0.0174203
-0.000158238
0.0173989
-0.000157038
0.0173777
-0.000155794
0.0173568
-0.000154512
0.0173361
-0.000153198
0.0173156
-0.000151859
0.0172953
-0.0001505
0.0172753
-0.000149125
0.0172555
-0.00014774
0.0172359
-0.000146349
0.0172165
-0.000144956
0.0171973
-0.000143565
-0.00014218
0.0182363
-6.12165e-05
0.0182175
-6.9653e-05
0.0181982
-7.7498e-05
0.0181784
-8.47747e-05
0.0181582
-9.15065e-05
0.0181375
-9.77166e-05
0.0181165
-0.000103428
0.0180953
-0.000108664
0.0180737
-0.000113446
0.018052
-0.000117798
0.0180302
-0.000121739
0.0180082
-0.000125293
0.0179861
-0.000128479
0.017964
-0.000131317
0.0179418
-0.000133827
0.0179196
-0.000136029
0.0178974
-0.000137939
0.0178753
-0.000139576
0.0178533
-0.000140958
0.0178313
-0.000142099
0.0178094
-0.000143017
0.0177876
-0.000143725
0.0177659
-0.00014424
0.0177444
-0.000144574
0.017723
-0.000144741
0.0177017
-0.000144753
0.0176806
-0.000144623
0.0176597
-0.000144362
0.0176389
-0.000143981
0.0176183
-0.00014349
0.0175979
-0.000142899
0.0175777
-0.000142218
0.0175576
-0.000141455
0.0175378
-0.000140619
0.0175181
-0.000139717
0.0174986
-0.000138757
0.0174793
-0.000137746
0.0174602
-0.000136691
0.0174413
-0.000135598
0.0174226
-0.000134472
0.0174041
-0.00013332
0.0173857
-0.000132146
0.0173675
-0.000130955
0.0173496
-0.000129752
0.0173317
-0.000128541
0.0173141
-0.000127325
0.0172967
-0.000126109
-0.000124896
0.0181796
-4.69662e-05
0.0181646
-5.46979e-05
0.0181491
-6.19057e-05
0.0181329
-6.86082e-05
0.0181162
-7.48253e-05
0.0180991
-8.05768e-05
0.0180815
-8.58819e-05
0.0180636
-9.07598e-05
0.0180454
-9.52303e-05
0.0180269
-9.9312e-05
0.0180082
-0.000103024
0.0179893
-0.000106385
0.0179702
-0.000109412
0.017951
-0.000112123
0.0179317
-0.000114535
0.0179124
-0.000116666
0.017893
-0.00011853
0.0178735
-0.000120145
0.0178541
-0.000121524
0.0178347
-0.000122683
0.0178153
-0.000123635
0.017796
-0.000124395
0.0177767
-0.000124975
0.0177575
-0.000125387
0.0177384
-0.000125644
0.0177194
-0.000125757
0.0177005
-0.000125738
0.0176818
-0.000125595
0.0176631
-0.00012534
0.0176446
-0.000124981
0.0176263
-0.000124528
0.017608
-0.00012399
0.0175899
-0.000123374
0.017572
-0.000122688
0.0175542
-0.000121939
0.0175366
-0.000121134
0.0175192
-0.00012028
0.0175018
-0.000119383
0.0174847
-0.000118448
0.0174677
-0.000117481
0.0174509
-0.000116487
0.0174342
-0.000115471
0.0174177
-0.000114438
0.0174013
-0.00011339
0.0173851
-0.000112334
0.0173691
-0.000111271
0.0173532
-0.000110206
-0.000109142
0.0181162
-3.57201e-05
0.0181042
-4.26981e-05
0.0180915
-4.92171e-05
0.0180782
-5.5293e-05
0.0180643
-6.09417e-05
0.0180499
-6.61794e-05
0.0180351
-7.10225e-05
0.0180198
-7.54875e-05
0.0180042
-7.95905e-05
0.0179882
-8.33477e-05
0.0179719
-8.67753e-05
0.0179555
-8.9889e-05
0.0179387
-9.27044e-05
0.0179219
-9.52366e-05
0.0179048
-9.75005e-05
0.0178877
-9.95106e-05
0.0178704
-0.000101281
0.0178531
-0.000102826
0.0178357
-0.000104157
0.0178183
-0.00010529
0.0178009
-0.000106234
0.0177836
-0.000107004
0.0177662
-0.000107609
0.0177489
-0.000108062
0.0177316
-0.000108372
0.0177144
-0.000108551
0.0176972
-0.000108607
0.0176802
-0.00010855
0.0176633
-0.00010839
0.0176464
-0.000108134
0.0176297
-0.00010779
0.017613
-0.000107367
0.0175965
-0.000106871
0.0175802
-0.00010631
0.0175639
-0.00010569
0.0175478
-0.000105017
0.0175318
-0.000104297
0.017516
-0.000103536
0.0175003
-0.000102739
0.0174847
-0.000101912
0.0174693
-0.000101057
0.017454
-0.000100181
0.0174388
-9.92868e-05
0.0174238
-9.83787e-05
0.0174089
-9.74603e-05
0.0173942
-9.6535e-05
0.0173796
-9.56061e-05
-9.46764e-05
0.0180529
-2.68423e-05
0.0180432
-3.30271e-05
0.0180328
-3.88163e-05
0.0180217
-4.42224e-05
0.01801
-4.92581e-05
0.0179978
-5.39372e-05
0.017985
-5.82727e-05
0.0179718
-6.22788e-05
0.0179582
-6.59685e-05
0.0179442
-6.9356e-05
0.0179299
-7.2454e-05
0.0179153
-7.52766e-05
0.0179004
-7.78364e-05
0.0178853
-8.0147e-05
0.0178701
-8.22207e-05
0.0178546
-8.40698e-05
0.017839
-8.57067e-05
0.0178234
-8.71431e-05
0.0178076
-8.83907e-05
0.0177918
-8.94604e-05
0.0177759
-9.03632e-05
0.01776
-9.11091e-05
0.0177441
-9.17085e-05
0.0177282
-9.21709e-05
0.0177123
-9.25059e-05
0.0176965
-9.27223e-05
0.0176807
-9.28281e-05
0.017665
-9.28326e-05
0.0176494
-9.27426e-05
0.0176338
-9.25661e-05
0.0176183
-9.23101e-05
0.0176029
-9.19817e-05
0.0175876
-9.15869e-05
0.0175725
-9.11322e-05
0.0175574
-9.06233e-05
0.0175424
-9.00659e-05
0.0175276
-8.94651e-05
0.0175129
-8.8826e-05
0.0174983
-8.8153e-05
0.0174839
-8.74509e-05
0.0174695
-8.67236e-05
0.0174553
-8.59755e-05
0.0174412
-8.521e-05
0.0174273
-8.44303e-05
0.0174135
-8.36402e-05
0.0173998
-8.28427e-05
0.0173862
-8.20404e-05
-8.12366e-05
0.0179935
-1.98545e-05
0.0179856
-2.52134e-05
0.0179771
-3.02376e-05
0.0179678
-3.49373e-05
0.0179578
-3.93226e-05
0.0179473
-4.34045e-05
0.0179362
-4.71937e-05
0.0179247
-5.07013e-05
0.0179126
-5.39386e-05
0.0179002
-5.69166e-05
0.0178874
-5.96466e-05
0.0178742
-6.21396e-05
0.0178608
-6.44067e-05
0.0178471
-6.64586e-05
0.0178332
-6.8306e-05
0.0178191
-6.99593e-05
0.0178048
-7.14288e-05
0.0177904
-7.27245e-05
0.0177759
-7.38561e-05
0.0177612
-7.4833e-05
0.0177465
-7.56644e-05
0.0177318
-7.63592e-05
0.017717
-7.69259e-05
0.0177022
-7.73728e-05
0.0176874
-7.77078e-05
0.0176726
-7.79387e-05
0.0176579
-7.80728e-05
0.0176432
-7.81171e-05
0.0176285
-7.80784e-05
0.0176139
-7.79631e-05
0.0175994
-7.77775e-05
0.0175849
-7.75274e-05
0.0175705
-7.72185e-05
0.0175563
-7.6856e-05
0.0175421
-7.64451e-05
0.017528
-7.59905e-05
0.017514
-7.54969e-05
0.0175002
-7.49686e-05
0.0174864
-7.44097e-05
0.0174728
-7.38241e-05
0.0174593
-7.32155e-05
0.0174459
-7.25873e-05
0.0174326
-7.19427e-05
0.0174195
-7.1285e-05
0.0174065
-7.06169e-05
0.0173936
-6.99412e-05
0.0173808
-6.92605e-05
-6.85771e-05
0.0179403
-1.43829e-05
0.0179339
-1.88883e-05
0.0179268
-2.31184e-05
0.017919
-2.70807e-05
0.0179104
-3.07836e-05
0.0179013
-3.42354e-05
0.0178915
-3.74444e-05
0.0178812
-4.04201e-05
0.0178705
-4.31706e-05
0.0178592
-4.57056e-05
0.0178476
-4.80338e-05
0.0178357
-5.01639e-05
0.0178234
-5.21054e-05
0.0178108
-5.38666e-05
0.0177979
-5.54565e-05
0.0177848
-5.68834e-05
0.0177716
-5.8156e-05
0.0177581
-5.92824e-05
0.0177445
-6.02702e-05
0.0177308
-6.1128e-05
0.017717
-6.18625e-05
0.0177032
-6.24817e-05
0.0176892
-6.29923e-05
0.0176752
-6.34013e-05
0.0176613
-6.37156e-05
0.0176473
-6.39411e-05
0.0176333
-6.40842e-05
0.0176193
-6.41509e-05
0.0176054
-6.41466e-05
0.0175915
-6.40769e-05
0.0175777
-6.39468e-05
0.0175639
-6.37613e-05
0.0175502
-6.35254e-05
0.0175366
-6.32432e-05
0.0175231
-6.29192e-05
0.0175096
-6.25573e-05
0.0174963
-6.21615e-05
0.0174831
-6.17354e-05
0.0174699
-6.12828e-05
0.0174569
-6.08064e-05
0.017444
-6.03096e-05
0.0174312
-5.97955e-05
0.0174185
-5.92667e-05
0.017406
-5.87261e-05
0.0173935
-5.81755e-05
0.0173812
-5.76179e-05
0.017369
-5.70553e-05
-5.64896e-05
0.0178946
-1.01189e-05
0.0178895
-1.37485e-05
0.0178835
-1.71603e-05
0.0178768
-2.03599e-05
0.0178694
-2.33536e-05
0.0178613
-2.61476e-05
0.0178526
-2.87486e-05
0.0178433
-3.11634e-05
0.0178336
-3.33988e-05
0.0178233
-3.54619e-05
0.0178127
-3.73594e-05
0.0178016
-3.90986e-05
0.0177902
-4.06863e-05
0.0177784
-4.21295e-05
0.0177664
-4.34349e-05
0.0177541
-4.46093e-05
0.0177416
-4.56594e-05
0.0177289
-4.65916e-05
0.0177161
-4.74122e-05
0.0177031
-4.81274e-05
0.01769
-4.87432e-05
0.0176768
-4.92656e-05
0.0176635
-4.97e-05
0.0176501
-5.00521e-05
0.0176367
-5.0327e-05
0.0176233
-5.05299e-05
0.0176099
-5.06657e-05
0.0175965
-5.07392e-05
0.0175831
-5.07548e-05
0.0175697
-5.07169e-05
0.0175564
-5.06296e-05
0.0175431
-5.0497e-05
0.0175299
-5.03228e-05
0.0175168
-5.01106e-05
0.0175038
-4.9864e-05
0.0174908
-4.95861e-05
0.0174779
-4.92801e-05
0.0174651
-4.89491e-05
0.0174524
-4.85957e-05
0.0174398
-4.82226e-05
0.0174274
-4.78325e-05
0.017415
-4.74276e-05
0.0174027
-4.70103e-05
0.0173906
-4.65827e-05
0.0173786
-4.61467e-05
0.0173667
-4.57043e-05
0.0173549
-4.52573e-05
-4.48073e-05
0.0178574
-6.79169e-06
0.0178532
-9.52841e-06
0.0178481
-1.21029e-05
0.0178423
-1.45196e-05
0.0178357
-1.67829e-05
0.0178285
-1.88973e-05
0.0178206
-2.08675e-05
0.0178121
-2.26988e-05
0.0178031
-2.43956e-05
0.0177936
-2.59634e-05
0.0177837
-2.74072e-05
0.0177733
-2.87321e-05
0.0177625
-2.99431e-05
0.0177515
-3.10458e-05
0.0177401
-3.20446e-05
0.0177284
-3.29449e-05
0.0177165
-3.37514e-05
0.0177044
-3.4469e-05
0.0176921
-3.51025e-05
0.0176796
-3.56563e-05
0.017667
-3.61348e-05
0.0176543
-3.65429e-05
0.0176415
-3.68842e-05
0.0176286
-3.7163e-05
0.0176156
-3.73834e-05
0.0176026
-3.7549e-05
0.0175896
-3.76638e-05
0.0175766
-3.7731e-05
0.0175636
-3.77543e-05
0.0175506
-3.77366e-05
0.0175377
-3.76813e-05
0.0175248
-3.75912e-05
0.0175119
-3.74697e-05
0.0174991
-3.73186e-05
0.0174864
-3.71415e-05
0.0174738
-3.694e-05
0.0174612
-3.67173e-05
0.0174487
-3.64747e-05
0.0174364
-3.62153e-05
0.0174241
-3.59402e-05
0.0174119
-3.56522e-05
0.0173998
-3.53525e-05
0.0173879
-3.50432e-05
0.017376
-3.47253e-05
0.0173643
-3.44012e-05
0.0173526
-3.40716e-05
0.0173411
-3.37383e-05
-3.34024e-05
0.0178291
-4.15244e-06
0.0178255
-5.98329e-06
0.0178212
-7.70695e-06
0.017816
-9.32603e-06
0.01781
-1.08433e-05
0.0178034
-1.22618e-05
0.0177961
-1.35846e-05
0.0177882
-1.48148e-05
0.0177798
-1.59557e-05
0.0177708
-1.70106e-05
0.0177614
-1.7983e-05
0.0177515
-1.8876e-05
0.0177413
-1.96932e-05
0.0177307
-2.04379e-05
0.0177198
-2.11133e-05
0.0177085
-2.17229e-05
0.017697
-2.22697e-05
0.0176853
-2.2757e-05
0.0176734
-2.3188e-05
0.0176613
-2.35656e-05
0.0176491
-2.38928e-05
0.0176367
-2.41726e-05
0.0176242
-2.44077e-05
0.0176117
-2.46008e-05
0.0175991
-2.47546e-05
0.0175864
-2.48717e-05
0.0175737
-2.49544e-05
0.0175609
-2.50051e-05
0.0175482
-2.50262e-05
0.0175355
-2.50198e-05
0.0175228
-2.49879e-05
0.0175101
-2.49326e-05
0.0174975
-2.48558e-05
0.017485
-2.47593e-05
0.0174725
-2.46449e-05
0.01746
-2.45142e-05
0.0174477
-2.43688e-05
0.0174354
-2.42102e-05
0.0174233
-2.40398e-05
0.0174112
-2.3859e-05
0.0173992
-2.36691e-05
0.0173873
-2.34714e-05
0.0173755
-2.32668e-05
0.0173639
-2.30566e-05
0.0173523
-2.28418e-05
0.0173409
-2.26233e-05
0.0173295
-2.24021e-05
-2.2179e-05
0.0178101
-1.9644e-06
0.017807
-2.88194e-06
0.017803
-3.74577e-06
0.0177982
-4.55764e-06
0.0177927
-5.31866e-06
0.0177865
-6.03077e-06
0.0177796
-6.69476e-06
0.0177721
-7.31268e-06
0.017764
-7.88602e-06
0.0177554
-8.41629e-06
0.0177463
-8.90563e-06
0.0177368
-9.35487e-06
0.0177269
-9.76664e-06
0.0177166
-1.01418e-05
0.017706
-1.04823e-05
0.017695
-1.07899e-05
0.0176838
-1.10661e-05
0.0176724
-1.13125e-05
0.0176607
-1.15304e-05
0.0176489
-1.17219e-05
0.0176369
-1.18881e-05
0.0176247