/*--------------------------------*- C++ -*----------------------------------*\
  =========                 |
  \\      /  F ield         | OpenFOAM: The Open Source CFD Toolbox
   \\    /   O peration     | Website:  https://openfoam.org
    \\  /    A nd           | Version:  7
     \\/     M anipulation  |
\*---------------------------------------------------------------------------*/
FoamFile
{
    version     2.0;
    format      ascii;
    class       volScalarField;
    location    "120";
    object      p;
}
// * * * * * * * * * * * * * * * * * * * * * * * * * * * * * * * * * * * * * //

dimensions      [0 2 -2 0 0 0 0];

internalField   nonuniform List<scalar> 
3700
(
-0.440499
-0.398109
-0.347285
-0.295393
-0.249008
-0.212192
-0.186403
-0.171356
-0.166296
-0.170916
-0.184824
-0.205856
-0.229117
-0.248032
-0.256728
-0.25214
-0.235386
-0.209624
-0.179942
-0.151075
-0.126095
-0.106286
-0.0916976
-0.0818173
-0.0760303
-0.0738031
-0.0747533
-0.0787513
-0.0859983
-0.0968486
-0.111261
-0.128172
-0.14531
-0.159693
-0.168523
-0.170012
-0.164505
-0.152913
-0.137604
-0.12102
-0.105085
-0.0909805
-0.0792332
-0.0699449
-0.0630178
-0.0582922
-0.0556139
-0.0548863
-0.0561307
-0.0595035
-0.0651911
-0.0731819
-0.0830337
-0.0937948
-0.104134
-0.112604
-0.11794
-0.119287
-0.116392
-0.109681
-0.100041
-0.0886003
-0.0764567
-0.0644755
-0.0532365
-0.0430464
-0.0340249
-0.0261643
-0.0194047
-0.013688
-0.00902618
-0.00537746
-0.00289126
-0.00110424
-0.000600876
0.000269749
-0.00104117
-0.400577
-0.363227
-0.318949
-0.273875
-0.233982
-0.202911
-0.18197
-0.171027
-0.169755
-0.178227
-0.196
-0.220386
-0.245883
-0.265638
-0.273843
-0.267867
-0.248808
-0.220465
-0.188291
-0.157228
-0.130398
-0.109034
-0.093101
-0.0820045
-0.0750606
-0.0716873
-0.07146
-0.0741871
-0.0799911
-0.0891802
-0.101764
-0.116838
-0.132366
-0.145599
-0.153946
-0.155783
-0.151099
-0.140966
-0.127435
-0.112693
-0.0984917
-0.0859297
-0.0755193
-0.0673889
-0.0614832
-0.0576855
-0.0558811
-0.0560144
-0.0581528
-0.0624998
-0.0692761
-0.0784758
-0.0896279
-0.101718
-0.113319
-0.122868
-0.12897
-0.130668
-0.12765
-0.120382
-0.109824
-0.0972367
-0.0838558
-0.0706579
-0.0582949
-0.0471061
-0.0372196
-0.0286174
-0.0212225
-0.0149496
-0.00978836
-0.00568251
-0.00278564
-0.000678362
5.58333e-05
0.000885241
-0.000531005
-0.356154
-0.324345
-0.287099
-0.249071
-0.215866
-0.190642
-0.174578
-0.167787
-0.170403
-0.18282
-0.204427
-0.231973
-0.259443
-0.279864
-0.287563
-0.280419
-0.259452
-0.228945
-0.194691
-0.161809
-0.133442
-0.110762
-0.0936592
-0.0814706
-0.0734579
-0.069001
-0.0676417
-0.0691366
-0.0735317
-0.081084
-0.0918472
-0.105084
-0.119
-0.131095
-0.13897
-0.141102
-0.137305
-0.128632
-0.116856
-0.103924
-0.0914291
-0.0803908
-0.0713067
-0.0643298
-0.0594442
-0.0565731
-0.0556401
-0.0566293
-0.0596539
-0.0649638
-0.0728136
-0.0832071
-0.0956512
-0.109075
-0.12196
-0.132624
-0.139541
-0.141646
-0.138554
-0.130767
-0.119315
-0.105589
-0.0909689
-0.0765497
-0.0630613
-0.0508783
-0.0401374
-0.0308105
-0.0228042
-0.0160066
-0.0103844
-0.00586603
-0.00260503
-0.000224396
0.000701433
0.00146429
-6.21889e-05
-0.308599
-0.282006
-0.252076
-0.22099
-0.194475
-0.175059
-0.163861
-0.16129
-0.167906
-0.184335
-0.209683
-0.240141
-0.269343
-0.290357
-0.297876
-0.289659
-0.267175
-0.234971
-0.199106
-0.164823
-0.135261
-0.111529
-0.0934481
-0.0803061
-0.071327
-0.0658628
-0.0634308
-0.0637475
-0.0667899
-0.0727588
-0.081743
-0.0931695
-0.10549
-0.11646
-0.123862
-0.126244
-0.123323
-0.116082
-0.106002
-0.094818
-0.083975
-0.0744188
-0.0666317
-0.060788
-0.0569071
-0.0549488
-0.0548715
-0.0566984
-0.0605867
-0.0668304
-0.0757188
-0.0872691
-0.100974
-0.115713
-0.129886
-0.141688
-0.149466
-0.152036
-0.148934
-0.14069
-0.128391
-0.113559
-0.0977187
-0.0820926
-0.0674935
-0.0543337
-0.0427601
-0.0327344
-0.0241474
-0.0168617
-0.0108212
-0.00593779
-0.00236105
0.000245985
0.00132545
0.00200054
0.000361372
-0.258434
-0.23595
-0.214287
-0.189674
-0.169726
-0.155995
-0.149658
-0.151396
-0.162161
-0.182652
-0.211595
-0.244686
-0.275387
-0.296946
-0.304355
-0.29546
-0.271914
-0.238527
-0.201554
-0.166314
-0.13592
-0.111411
-0.0925538
-0.0786057
-0.068772
-0.0623889
-0.0589578
-0.0581628
-0.0599256
-0.0643887
-0.0716628
-0.0813288
-0.0920877
-0.101946
-0.108863
-0.111449
-0.10935
-0.103476
-0.095004
-0.0854771
-0.0762093
-0.0680742
-0.0615379
-0.0567921
-0.053887
-0.0528147
-0.0535653
-0.0561987
-0.0609134
-0.0680451
-0.0779169
-0.0905643
-0.105473
-0.121487
-0.136929
-0.14988
-0.158555
-0.161652
-0.158618
-0.149999
-0.136925
-0.121043
-0.104027
-0.0872295
-0.071551
-0.057446
-0.0450723
-0.0343823
-0.0252519
-0.0175194
-0.0111063
-0.00590735
-0.00206413
0.000723048
0.00191979
0.00248986
0.000737494
-0.18766
-0.174402
-0.155447
-0.141806
-0.133571
-0.13209
-0.138268
-0.153344
-0.177898
-0.210218
-0.245624
-0.277585
-0.299647
-0.307052
-0.297822
-0.273693
-0.239654
-0.202093
-0.166356
-0.135504
-0.110499
-0.0910691
-0.0764655
-0.0658939
-0.0586883
-0.0543421
-0.0525161
-0.0530843
-0.056137
-0.0617924
-0.0697687
-0.0790098
-0.0877722
-0.0941895
-0.0969329
-0.095556
-0.09097
-0.0839879
-0.0760056
-0.068216
-0.0614236
-0.0560761
-0.0523789
-0.050408
-0.0501829
-0.0517223
-0.0551189
-0.0606089
-0.068566
-0.0793468
-0.0930089
-0.109042
-0.126264
-0.142932
-0.157025
-0.166625
-0.170308
-0.167427
-0.158539
-0.144789
-0.12794
-0.109818
-0.0919047
-0.0751961
-0.0601913
-0.0470615
-0.0357504
-0.0261198
-0.0179859
-0.0112481
-0.00578403
-0.00172352
0.00119893
0.00247853
0.00293008
0.00106546
-0.138815
-0.133212
-0.119011
-0.111237
-0.108302
-0.111652
-0.122416
-0.141902
-0.170409
-0.205784
-0.243127
-0.276106
-0.298661
-0.30613
-0.296857
-0.272598
-0.238437
-0.20082
-0.165059
-0.134118
-0.108891
-0.0890906
-0.0739807
-0.0627882
-0.0548597
-0.0496897
-0.0469243
-0.046394
-0.0481431
-0.0522882
-0.0586624
-0.0664392
-0.0741241
-0.0800259
-0.0828736
-0.0820759
-0.0787079
-0.0730741
-0.0665049
-0.0600806
-0.0545373
-0.0503031
-0.0475924
-0.0465026
-0.047075
-0.049354
-0.0534599
-0.0596615
-0.0683664
-0.0799634
-0.0945367
-0.11159
-0.129927
-0.147756
-0.162961
-0.173506
-0.177832
-0.175196
-0.166164
-0.151858
-0.134152
-0.115016
-0.0960662
-0.0783942
-0.0625493
-0.0487181
-0.036837
-0.0267552
-0.0182685
-0.0112554
-0.00557682
-0.00134737
0.0016675
0.00299773
0.00332067
0.00134579
-0.0909922
-0.0914803
-0.0815608
-0.0790099
-0.0811084
-0.0892403
-0.104648
-0.128495
-0.160688
-0.19868
-0.237522
-0.271253
-0.294343
-0.301877
-0.292788
-0.268805
-0.235036
-0.197888
-0.162556
-0.13188
-0.106694
-0.0867141
-0.0712426
-0.0595439
-0.050991
-0.0450906
-0.041481
-0.0399605
-0.0405216
-0.0432753
-0.0481479
-0.0545224
-0.0611508
-0.066521
-0.0694347
-0.0690288
-0.066828
-0.0623703
-0.0570703
-0.0518868
-0.0474877
-0.04428
-0.0424835
-0.0422111
-0.0435226
-0.0464827
-0.0512349
-0.0580737
-0.0674359
-0.0797405
-0.0951025
-0.113048
-0.132384
-0.151283
-0.167551
-0.179038
-0.184063
-0.181778
-0.172739
-0.158016
-0.139585
-0.119553
-0.0996663
-0.0811153
-0.0645033
-0.0500355
-0.0376433
-0.0271642
-0.0183759
-0.0111377
-0.00529443
-0.000942768
0.00212418
0.00347511
0.00366247
0.00157993
-0.0491747
-0.0494204
-0.0448053
-0.0466818
-0.0533492
-0.0660653
-0.0859633
-0.113899
-0.149328
-0.189394
-0.229242
-0.263417
-0.287251
-0.294608
-0.285901
-0.26257
-0.229671
-0.193481
-0.158999
-0.128914
-0.104011
-0.0840322
-0.068336
-0.0562416
-0.04716
-0.0406201
-0.036262
-0.0338597
-0.0333598
-0.0348488
-0.0383295
-0.043371
-0.0489634
-0.0537847
-0.0567866
-0.0578879
-0.0554764
-0.0519665
-0.047789
-0.0437152
-0.0403477
-0.0380713
-0.0371083
-0.0375817
-0.0395661
-0.0431417
-0.048469
-0.0558624
-0.0657814
-0.0786724
-0.0946842
-0.113375
-0.133571
-0.153424
-0.170684
-0.183096
-0.188875
-0.187048
-0.178146
-0.163157
-0.144155
-0.123368
-0.102663
-0.0833337
-0.0660403
-0.0510104
-0.0381727
-0.0273544
-0.0183181
-0.0109047
-0.00494527
-0.000515918
0.00256568
0.00390983
0.00395737
0.00177008
-0.0134028
-0.0122946
-0.0110227
-0.0161607
-0.026676
-0.04348
-0.0674117
-0.0988954
-0.136924
-0.17843
-0.218752
-0.25295
-0.277887
-0.284572
-0.276505
-0.254187
-0.222598
-0.187805
-0.154549
-0.125348
-0.100945
-0.0811302
-0.0653369
-0.0529515
-0.0434333
-0.0363408
-0.0313254
-0.0281461
-0.0267116
-0.0270734
-0.0292795
-0.0330633
-0.0376396
-0.0418709
-0.0447676
-0.0459009
-0.0444944
-0.0419209
-0.0387373
-0.0356417
-0.033189
-0.0317435
-0.031527
-0.0326687
-0.0352542
-0.0393738
-0.0451998
-0.0530591
-0.0634273
-0.0767742
-0.0932847
-0.112559
-0.133455
-0.154126
-0.172284
-0.185591
-0.19217
-0.190905
-0.182284
-0.167191
-0.147788
-0.126405
-0.105022
-0.0850297
-0.0671521
-0.0516428
-0.0384309
-0.0273352
-0.0181055
-0.0105666
-0.00453748
-7.22667e-05
0.00298981
0.00430221
0.00420804
0.00191896
0.00796572
0.0172774
0.0176632
0.0106238
-0.00271487
-0.0227637
-0.0499413
-0.0841671
-0.124003
-0.166266
-0.206527
-0.240032
-0.261178
-0.27184
-0.26495
-0.24398
-0.214089
-0.181078
-0.149371
-0.121303
-0.0975901
-0.0780848
-0.0623107
-0.0497324
-0.0398648
-0.0323024
-0.026715
-0.0228564
-0.0206046
-0.0199782
-0.0210386
-0.0236483
-0.0272317
-0.0308336
-0.0335194
-0.0347337
-0.0340493
-0.0323074
-0.0299844
-0.0277365
-0.0260813
-0.0253636
-0.0258025
-0.0275312
-0.0306419
-0.0352307
-0.0414755
-0.0497087
-0.0604146
-0.0740824
-0.0909326
-0.110616
-0.132036
-0.153372
-0.172315
-0.186471
-0.193885
-0.193332
-0.18508
-0.170042
-0.150427
-0.128624
-0.106715
-0.0861894
-0.0678348
-0.0519358
-0.0384257
-0.0271169
-0.0177496
-0.0101337
-0.00407899
0.000383347
0.00339522
0.00465341
0.00441777
0.00202967
0.039427
0.0398336
0.0321809
0.0172546
-0.00491532
-0.0342747
-0.0702359
-0.110994
-0.153327
-0.193095
-0.226018
-0.24773
-0.257687
-0.251702
-0.232302
-0.20443
-0.173518
-0.143625
-0.116896
-0.0940312
-0.0749618
-0.0593117
-0.0466311
-0.0364962
-0.0285422
-0.0224625
-0.0180142
-0.0150532
-0.0135654
-0.013613
-0.0151452
-0.0177679
-0.0207106
-0.0231162
-0.0244018
-0.0242429
-0.0231913
-0.0215896
-0.0200627
-0.0190901
-0.0189976
-0.0199992
-0.0222317
-0.0257895
-0.0307707
-0.0373531
-0.0458677
-0.0568
-0.0706527
-0.0876813
-0.107593
-0.129353
-0.151182
-0.170778
-0.185718
-0.193994
-0.194599
-0.18647
-0.171656
-0.152028
-0.129996
-0.107727
-0.0868063
-0.0680898
-0.0518962
-0.0381675
-0.0267115
-0.0172622
-0.00961644
-0.00357752
0.000846541
0.0037811
0.00496524
0.00459025
0.00210551
0.0531915
0.0548187
0.0477437
0.0325115
0.00948213
-0.0208447
-0.0574389
-0.0982135
-0.139961
-0.178835
-0.210994
-0.232708
-0.242253
-0.237142
-0.219492
-0.193904
-0.165341
-0.137464
-0.112233
-0.0903443
-0.0718182
-0.0563851
-0.0436852
-0.0333597
-0.0250871
-0.0185891
-0.0136326
-0.0100602
-0.00782807
-0.00698711
-0.00754458
-0.00925337
-0.0115199
-0.0135907
-0.0148991
-0.0151364
-0.0146148
-0.0135999
-0.0126759
-0.012276
-0.012708
-0.0141812
-0.0168338
-0.0207604
-0.0260571
-0.0328968
-0.0416022
-0.0526526
-0.0665578
-0.0836065
-0.103566
-0.125474
-0.147616
-0.167718
-0.183344
-0.192427
-0.193813
-0.186349
-0.171998
-0.152572
-0.130505
-0.108051
-0.0868815
-0.0679241
-0.0515347
-0.0376688
-0.0261322
-0.016656
-0.00902541
-0.00304067
0.00131328
0.00414706
0.00523998
0.00472931
0.00214998
0.0590428
0.062726
0.0572508
0.0429193
0.0202781
-0.00979928
-0.0459439
-0.0858777
-0.126436
-0.164027
-0.195144
-0.216496
-0.225806
-0.22162
-0.205885
-0.182784
-0.156749
-0.131031
-0.107412
-0.0865994
-0.0687056
-0.0535704
-0.0409261
-0.0304801
-0.0219562
-0.015107
-0.00971566
-0.0056187
-0.00274795
-0.0011356
-0.000821743
-0.00167436
-0.0032613
-0.00494988
-0.00621963
-0.00690955
-0.00659037
-0.00604909
-0.00562319
-0.00569333
-0.00655392
-0.00841013
-0.0114009
-0.015619
-0.0211558
-0.0281749
-0.0369846
-0.048051
-0.0618841
-0.0788017
-0.0986329
-0.120501
-0.142769
-0.163218
-0.179414
-0.18923
-0.191278
-0.184757
-0.171075
-0.152055
-0.130152
-0.107689
-0.0864225
-0.0673486
-0.0508643
-0.0369434
-0.0253925
-0.0159435
-0.00837093
-0.00247575
0.00177988
0.00449293
0.00548017
0.00483885
0.00216667
0.0581629
0.0642884
0.0611626
0.0487698
0.0276536
-0.0010606
-0.0357771
-0.0741073
-0.112941
-0.14889
-0.178712
-0.199459
-0.208633
-0.205466
-0.191792
-0.171323
-0.147928
-0.124452
-0.102518
-0.0828504
-0.0656588
-0.0508897
-0.0383662
-0.0278625
-0.0191487
-0.0120097
-0.00624922
-0.00170514
0.0017097
0.00398504
0.00506768
0.00500533
0.00408864
0.00282389
0.00169268
0.00096293
0.000911792
0.00103592
0.00105599
0.000610341
-0.000588956
-0.00274437
-0.00599446
-0.0104293
-0.0161335
-0.023258
-0.0320917
-0.0430802
-0.056727
-0.0733741
-0.0929129
-0.114559
-0.136769
-0.1574
-0.174043
-0.184523
-0.187335
-0.18179
-0.168926
-0.150496
-0.128947
-0.10665
-0.0854381
-0.0663734
-0.049896
-0.036003
-0.0245038
-0.0151351
-0.00766176
-0.00188908
0.00224323
0.00481878
0.00568848
0.00492269
0.00215941
0.0607015
0.0605116
0.0507143
0.0319967
0.00558762
-0.0268697
-0.0629491
-0.0996084
-0.133617
-0.16194
-0.181933
-0.191033
-0.188986
-0.177485
-0.159726
-0.139009
-0.117798
-0.0975785
-0.0790989
-0.0626617
-0.0483165
-0.0359735
-0.0254724
-0.0166287
-0.00926003
-0.00319304
0.00172646
0.00559855
0.00843564
0.0101859
0.0108404
0.0105717
0.0097633
0.00884855
0.00814223
0.00782688
0.00762656
0.00733334
0.00659574
0.00513892
0.00276248
-0.000672253
-0.0052526
-0.0110555
-0.0182166
-0.0270009
-0.037828
-0.0511879
-0.0674401
-0.0865368
-0.10779
-0.129765
-0.150414
-0.167379
-0.178456
-0.182068
-0.177524
-0.165608
-0.147934
-0.126914
-0.104952
-0.0839419
-0.0650109
-0.048642
-0.0348591
-0.0234767
-0.0142403
-0.00690539
-0.00128605
0.00270083
0.00512457
0.00586751
0.00498407
0.0021322
0.0533717
0.0562459
0.0495755
0.0338743
0.0104459
-0.0190797
-0.0523886
-0.0865128
-0.118343
-0.145179
-0.164278
-0.173388
-0.172543
-0.163262
-0.148204
-0.130122
-0.111141
-0.0926261
-0.0753551
-0.0597154
-0.0458492
-0.0337466
-0.0233086
-0.0143949
-0.00685516
-0.000540388
0.00469019
0.00894265
0.0122503
0.0145722
0.0158665
0.0162132
0.0158845
0.0152531
0.0146162
0.0141183
0.0137117
0.0131929
0.0122353
0.0105906
0.00806261
0.00451184
-0.000147209
-0.00598431
-0.0131185
-0.0217879
-0.0323806
-0.0453666
-0.061117
-0.0796413
-0.100351
-0.121929
-0.142436
-0.15959
-0.171194
-0.175601
-0.172081
-0.161212
-0.144442
-0.124117
-0.102651
-0.0819859
-0.0633077
-0.0471422
-0.0335448
-0.0223371
-0.0132788
-0.00611547
-0.000675702
0.00314883
0.00540905
0.00602
0.00502527
0.00208913
0.0436672
0.0493936
0.0460337
0.0337406
0.0136988
-0.0124274
-0.0425443
-0.0738272
-0.103352
-0.128224
-0.146732
-0.156037
-0.156568
-0.149549
-0.137139
-0.121617
-0.104811
-0.0879854
-0.0719374
-0.0571265
-0.0437764
-0.0319501
-0.0216081
-0.0126553
-0.00497387
0.00155901
0.00706587
0.0116511
0.0153655
0.0181864
0.0200577
0.020988
0.0211476
0.0208453
0.0203553
0.0197641
0.0192814
0.0186097
0.0175023
0.0157382
0.0131216
0.00951456
0.00483521
-0.000978798
-0.00802976
-0.0165278
-0.0268264
-0.0393688
-0.0545293
-0.0723675
-0.0923945
-0.113422
-0.133634
-0.150851
-0.162895
-0.168077
-0.165605
-0.155857
-0.140125
-0.12067
-0.0998691
-0.0796883
-0.0613693
-0.0454847
-0.03213
-0.0211383
-0.0122899
-0.00531872
-7.55704e-05
0.00357948
0.00566862
0.00614948
0.00504887
0.00203533
0.0328197
0.0408873
0.0410471
0.0324189
0.0159745
-0.00658562
-0.0333766
-0.0618408
-0.0891095
-0.112731
-0.129507
-0.138751
-0.140797
-0.136188
-0.126514
-0.113598
-0.0990018
-0.0838934
-0.0690889
-0.0551177
-0.0422859
-0.0307323
-0.0204805
-0.0114838
-0.00365983
0.00308907
0.00886433
0.0137598
0.0178393
0.0211088
0.0235194
0.0250204
0.0256657
0.0256728
0.0253209
0.0247822
0.0242658
0.0234954
0.0223021
0.0205006
0.0178782
0.0142893
0.00965483
0.00392092
-0.00299522
-0.0112719
-0.021224
-0.0332655
-0.0477721
-0.0648521
-0.0841108
-0.104481
-0.12427
-0.141391
-0.153696
-0.159518
-0.158111
-0.149566
-0.135026
-0.116617
-0.0966396
-0.0770693
-0.0592054
-0.0436734
-0.0306165
-0.0198819
-0.0112751
-0.00451782
0.000512876
0.0039917
0.00590497
0.00625926
0.00506044
0.00197868
0.0304878
0.0332098
0.0284185
0.016224
-0.00212338
-0.0247046
-0.049324
-0.0736284
-0.0958081
-0.112265
-0.121441
-0.124434
-0.121916
-0.114694
-0.104149
-0.0916036
-0.0781479
-0.0646093
-0.051567
-0.0393864
-0.0282613
-0.0182635
-0.00938596
-0.00157493
0.00524813
0.0111656
0.0162512
0.0205695
0.0241618
0.0270128
0.029036
0.0301651
0.0304656
0.0301495
0.0295034
0.0287154
0.0279901
0.02672
0.0248608
0.0222272
0.0186881
0.0141535
0.00856344
0.00184092
-0.00616747
-0.0157338
-0.0272268
-0.041001
-0.0571976
-0.0755214
-0.0950535
-0.114266
-0.131209
-0.143751
-0.150175
-0.149456
-0.142326
-0.129012
-0.111636
-0.0925008
-0.0736218
-0.0563415
-0.0413083
-0.0286875
-0.0183323
-0.0100622
-0.0036004
0.00116649
0.00442056
0.00614325
0.00634776
0.00506378
0.00192365
0.02056
0.0247962
0.0220553
0.0124244
-0.00302864
-0.0226154
-0.0442919
-0.0658054
-0.0852319
-0.0982353
-0.106032
-0.108531
-0.105973
-0.0993533
-0.0898856
-0.0786839
-0.0666704
-0.0545465
-0.0427997
-0.0317372
-0.0215274
-0.0122448
-0.00389741
0.00354995
0.0101575
0.0159881
0.0210939
0.0255242
0.0293297
0.0325297
0.0350826
0.0369071
0.0379734
0.0383622
0.0382107
0.0379235
0.0363493
0.0346389
0.032431
0.0295129
0.0257818
0.0211795
0.0156726
0.00919721
0.00159805
-0.00740757
-0.018204
-0.0311768
-0.0465199
-0.0640005
-0.0827946
-0.101516
-0.118374
-0.131361
-0.138567
-0.139606
-0.132382
-0.119767
-0.103264
-0.0850868
-0.06723
-0.050977
-0.0369093
-0.0251571
-0.0155636
-0.00794362
-0.00205149
0.00224581
0.005083
0.00650444
0.00643836
0.00504695
0.00183188
0.00658889
0.0109728
0.0097036
0.00307051
-0.00802775
-0.0222101
-0.0377559
-0.0528842
-0.0651089
-0.0759603
-0.0821926
-0.0840595
-0.082171
-0.0772226
-0.0700029
-0.0612787
-0.0517156
-0.0418471
-0.0320705
-0.0226599
-0.0137891
-0.00555353
0.00200145
0.00886857
0.0150675
0.0206267
0.0255733
0.029941
0.0337723
0.037083
0.0398188
0.0418658
0.0431254
0.0436124
0.0434511
0.0425368
0.0418075
0.0404077
0.0383897
0.0356695
0.0321612
0.0278249
0.0226429
0.0165725
0.00949428
0.00117707
-0.00870772
-0.0205072
-0.0344196
-0.0502852
-0.0674137
-0.084536
-0.0999319
-0.111803
-0.118708
-0.119418
-0.114432
-0.103722
-0.0892911
-0.0733151
-0.0575836
-0.0432537
-0.0308382
-0.0204672
-0.01201
-0.00532315
-0.000200473
0.00346683
0.00578332
0.00681099
0.00643402
0.00492179
0.0016597
-0.00455097
-9.55015e-05
-1.59162e-05
-0.00402717
-0.0114256
-0.0211958
-0.0321319
-0.0429497
-0.0525674
-0.0601005
-0.0646946
-0.0662095
-0.0648869
-0.0611236
-0.0554379
-0.0483779
-0.0404537
-0.0321001
-0.0236615
-0.015393
-0.00746989
-2.1663e-06
0.00694756
0.0133518
0.0192099
0.0245349
0.0293397
0.0336351
0.0374374
0.0407589
0.0435787
0.0458267
0.0474112
0.048272
0.0484138
0.0479309
0.0468805
0.0453489
0.0432741
0.040592
0.0372229
0.0331134
0.0282373
0.0225614
0.0160006
0.00838082
-0.000557019
-0.0110961
-0.0233985
-0.0373177
-0.0522557
-0.0671764
-0.0807804
-0.0917059
-0.0986204
-0.100374
-0.0965151
-0.0876714
-0.0754302
-0.061701
-0.0480926
-0.0356602
-0.0248741
-0.0158711
-0.00854757
-0.00279389
0.00155865
0.0045999
0.00640582
0.00705797
0.00640429
0.00479556
0.0015287
-0.0128344
-0.0082767
-0.00710184
-0.00911364
-0.0138053
-0.0204414
-0.0281056
-0.0357377
-0.0425627
-0.0479099
-0.0512209
-0.0522391
-0.051048
-0.0479067
-0.0431813
-0.0372802
-0.0305935
-0.0234622
-0.0161653
-0.00891843
-0.00187834
0.00484853
0.0111943
0.0171195
0.0226068
0.0276531
0.0322597
0.0364262
0.0401529
0.0434399
0.0462737
0.0486084
0.0503655
0.0514658
0.0518706
0.0515889
0.0507109
0.049265
0.0472666
0.0446964
0.0415107
0.0376717
0.0331599
0.0279551
0.0220024
0.0151771
0.0072815
-0.00190968
-0.0125359
-0.0245097
-0.0374065
-0.0504556
-0.0626185
-0.0726842
-0.0793576
-0.0814934
-0.0787509
-0.0715871
-0.0614139
-0.0499255
-0.03851
-0.0280671
-0.0189905
-0.0114096
-0.00524831
-0.00043547
0.00315525
0.005591
0.00691352
0.00722222
0.00632525
0.00464057
0.00140509
-0.0188187
-0.0142857
-0.0123924
-0.0130018
-0.015733
-0.0200051
-0.025099
-0.0303176
-0.0349988
-0.0386347
-0.0407886
-0.041247
-0.0400284
-0.0372909
-0.0332763
-0.0282668
-0.0225471
-0.0163797
-0.00999083
-0.0035649
0.00275578
0.00886724
0.0146974
0.0201988
0.0253433
0.0301166
0.0345113
0.03852
0.0421328
0.0453382
0.04812
0.0504483
0.0522716
0.0535295
0.0541811
0.0541595
0.0535068
0.0522534
0.0504324
0.0480587
0.0451274
0.0416272
0.0375527
0.0328955
0.0276212
0.0216358
0.014777
0.00684381
-0.0023089
-0.0126403
-0.0238125
-0.0351829
-0.045888
-0.0549287
-0.0611942
-0.0636275
-0.0618311
-0.0562355
-0.048073
-0.038774
-0.0294831
-0.0209481
-0.0135001
-0.00726958
-0.00221209
0.00170899
0.00457943
0.006449
0.00732348
0.00732213
0.00621468
0.00447073
0.00130393
-0.0230099
-0.0186133
-0.016266
-0.0158688
-0.0171331
-0.019618
-0.0227884
-0.0261648
-0.0291984
-0.0314812
-0.0326911
-0.0326523
-0.0313371
-0.0288268
-0.0252772
-0.0208879
-0.0158728
-0.0104379
-0.00476764
0.000982681
0.00668864
0.0122552
0.0176127
0.0227122
0.0275202
0.0320149
0.0361818
0.0400081
0.0434795
0.0465786
0.0492861
0.0515772
0.0534159
0.054757
0.0555519
0.0557633
0.0553673
0.0543804
0.052829
0.0507389
0.0481302
0.045016
0.0414063
0.0373025
0.0326798
0.0274598
0.0215014
0.0146294
0.00672447
-0.00216458
-0.011752
-0.0215495
-0.0309168
-0.0390288
-0.0448481
-0.0474046
-0.0463482
-0.0421202
-0.0357679
-0.028471
-0.0211433
-0.0143829
-0.00845719
-0.00349113
0.000532021
0.00362006
0.0058204
0.00717001
0.00763833
0.00736275
0.00608093
0.00429151
0.00122307
-0.0257749
-0.0215697
-0.0189451
-0.0178368
-0.0180348
-0.0192082
-0.0209774
-0.0229289
-0.0246867
-0.0259151
-0.0263619
-0.0258756
-0.0244095
-0.0220035
-0.0187607
-0.0148231
-0.0103495
-0.00549852
-0.000416686
0.004768
0.00994885
0.0150405
0.0199772
0.0247094
0.0292011
0.033426
0.0373644
0.0409999
0.0443158
0.0472929
0.0499102
0.0521435
0.0539638
0.0553392
0.0562298
0.056612
0.0564481
0.0557394
0.0544993
0.0527491
0.0505136
0.0478152
0.0446722
0.0410907
0.0370508
0.0324878
0.0272882
0.021319
0.0144992
0.00687274
-0.00135659
-0.00984377
-0.018074
-0.0252923
-0.0305471
-0.033039
-0.032537
-0.0294886
-0.0247566
-0.0192648
-0.0137036
-0.00853566
-0.00397539
-0.000145093
0.00294572
0.00528192
0.00687683
0.00775995
0.00786853
0.00735401
0.00593341
0.00410885
0.00115673
-0.0274124
-0.0234316
-0.0206659
-0.0190777
-0.0185146
-0.018729
-0.0194417
-0.0203336
-0.0211107
-0.0215135
-0.0213423
-0.0204703
-0.018847
-0.0164877
-0.0134578
-0.00985627
-0.0058001
-0.00141104
0.00319396
0.00790912
0.0126432
0.0173207
0.0218807
0.0262761
0.0304701
0.0344346
0.0381472
0.0415892
0.044742
0.0475868
0.0501024
0.0522653
0.0540526
0.0554388
0.0563899
0.0568895
0.0569115
0.0564495
0.055508
0.0541004
0.0522468
0.0499675
0.0472789
0.0441852
0.0406691
0.0366784
0.0321273
0.0269194
0.0209981
0.0143946
0.00725698
-0.000138219
-0.00732724
-0.0136295
-0.0182451
-0.0205784
-0.0205266
-0.0185091
-0.0151946
-0.0112688
-0.00723428
-0.00344411
-7.22015e-05
0.00276323
0.00503147
0.00670178
0.00775924
0.00822971
0.00802526
0.00730424
0.0057777
0.00392749
0.00109846
-0.0281787
-0.0244429
-0.0216352
-0.0197365
-0.0186392
-0.0181648
-0.0180916
-0.0181835
-0.0182114
-0.0179742
-0.017314
-0.0161254
-0.0143587
-0.012014
-0.00913182
-0.00578148
-0.0020499
0.00196883
0.00618146
0.0105011
0.0148508
0.0191644
0.0233872
0.0274748
0.0313916
0.0351088
0.038603
0.041854
0.0448429
0.047551
0.0499589
0.0520453
0.0537898
0.05517
0.056157
0.0567407
0.0569049
0.0566431
0.0559562
0.0548523
0.0533455
0.0514499
0.0491756
0.0465215
0.0434687
0.0399732
0.0359702
0.0313918
0.0262037
0.0204372
0.0142189
0.00779608
0.00159249
-0.00381246
-0.00780222
-0.00997836
-0.0103312
-0.00921228
-0.007106
-0.00449802
-0.00174353
0.000888234
0.00325348
0.00523903
0.00679824
0.007891
0.00848083
0.00859171
0.00811983
0.00722191
0.00561784
0.00375176
0.00104351
-0.0282827
-0.0247999
-0.0220194
-0.0199351
-0.0184727
-0.0175026
-0.0168555
-0.0163506
-0.0158127
-0.0150857
-0.0140441
-0.012601
-0.0107105
-0.00836526
-0.00558995
-0.0024336
0.00103912
0.00475558
0.00864154
0.0126259
0.0166436
0.0206376
0.0245589
0.0283666
0.0320268
0.0355115
0.038797
0.0418629
0.0446906
0.0472622
0.0495598
0.0515653
0.0532609
0.0546261
0.0556303
0.0562733
0.0565451
0.0564405
0.0559587
0.0551044
0.0538862
0.0523123
0.0503867
0.0481034
0.045443
0.042369
0.0388347
0.0347965
0.0302397
0.0252011
0.0198014
0.0142704
0.00897775
0.00438317
0.00092515
-0.00115874
-0.00189837
-0.00154893
-0.000437384
0.00110148
0.00281807
0.00450382
0.00603709
0.00731152
0.00827065
0.00887023
0.00905964
0.00886081
0.00816386
0.00711572
0.00545676
0.00358508
0.000989979
-0.0278916
-0.0246611
-0.0219546
-0.0197763
-0.0180749
-0.0167565
-0.0156941
-0.0147501
-0.0137896
-0.0126915
-0.0113565
-0.00971388
-0.00772353
-0.00537474
-0.00268224
0.000319358
0.00358163
0.00704817
0.0106596
0.0143576
0.0180874
0.0217996
0.0254511
0.0290046
0.0324285
0.0356961
0.0387846
0.0416738
0.0443457
0.0467833
0.0489703
0.0508919
0.0525353
0.0538868
0.0548869
0.0555684
0.0559213
0.0559389
0.0556189
0.0549632
0.0539761
0.052661
0.0510176
0.0490381
0.0467056
0.0439929
0.0408693
0.0373095
0.033314
0.0289272
0.0242667
0.0195366
0.0150373
0.0111048
0.00803486
0.00596927
0.00488233
0.00460891
0.00493885
0.00564205
0.00654125
0.00747202
0.00833075
0.00901982
0.0094789
0.0096629
0.00951444
0.0090519
0.00816796
0.00699395
0.00529703
0.00342977
0.000938673
-0.027139
-0.0241546
-0.0215521
-0.0193434
-0.0174979
-0.015943
-0.0145864
-0.013324
-0.0120523
-0.0106772
-0.00912126
-0.00732737
-0.00526153
-0.00291222
-0.000287983
0.00258633
0.00567396
0.0089307
0.0123088
0.0157601
0.0192386
0.0227019
0.0261119
0.029435
0.0326423
0.0357089
0.0386128
0.041335
0.0438582
0.0461663
0.0482444
0.0500799
0.0516661
0.0530248
0.053982
0.0546886
0.0551033
0.0552157
0.0550225
0.0545237
0.0537207
0.0526137
0.0512002
0.0494727
0.0474182
0.0450185
0.0422558
0.0391188
0.0356203
0.0318095
0.0277931
0.0237392
0.0198775
0.0164441
0.0136387
0.0115584
0.0101958
0.00945165
0.00919475
0.00926536
0.00953584
0.00987501
0.0101952
0.0104087
0.0104564
0.0102942
0.00986408
0.0091795
0.00814176
0.00686416
0.00514161
0.0032872
0.000891621
-0.0261314
-0.0233831
-0.0209056
-0.0187127
-0.0167879
-0.0150803
-0.0135217
-0.0120336
-0.0105372
-0.00896017
-0.00724201
-0.0053375
-0.00321856
-0.000874422
0.00168985
0.00445593
0.00739548
0.0104734
0.013651
0.0168883
0.0201467
0.0233894
0.0265832
0.029698
0.0327076
0.0355888
0.0383212
0.0408869
0.0432696
0.0454544
0.0474267
0.0491718
0.0506716
0.0518804
0.0529391
0.0536853
0.0541494
0.0543347
0.0542401
0.053865
0.0532091
0.0522708
0.0510468
0.0495306
0.0477134
0.045584
0.0431346
0.0403642
0.0372935
0.0339696
0.0304839
0.0269683
0.0235945
0.020532
0.0179208
0.0158333
0.0142767
0.0131982
0.0125172
0.0121208
0.0119161
0.0117977
0.0116929
0.011524
0.0112367
0.0107887
0.0101263
0.00925687
0.00809365
0.0067326
0.00499361
0.00315799
0.000850666
-0.0249539
-0.0224283
-0.0200874
-0.0179409
-0.0159854
-0.014187
-0.012496
-0.0108534
-0.00919948
-0.0074792
-0.00564598
-0.00366444
-0.00151216
0.000820011
0.00332876
0.00600009
0.00881163
0.0117351
0.0147387
0.0177893
0.0208539
0.0239009
0.0269011
0.0298279
0.0326575
0.0353687
0.0379429
0.0403632
0.0426145
0.044683
0.0465555
0.0482188
0.0496592
0.0508639
0.0518671
0.0526168
0.0531113
0.0533498
0.0533307
0.0530526
0.0525138
0.0517121
0.0506441
0.0493046
0.0476882
0.0457891
0.0436062
0.0411452
0.0384292
0.0355014
0.0324385
0.0293424
0.0263428
0.0235643
0.0211145
0.0190427
0.0173668
0.0160625
0.015084
0.0143489
0.0137894
0.0133204
0.012883
0.0124089
0.0118514
0.0111697
0.0103171
0.00929567
0.00803079
0.00660391
0.0048557
0.00304211
0.000816752
-0.0236742
-0.0213563
-0.0191477
-0.0170725
-0.0151234
-0.0132809
-0.0115097
-0.00976645
-0.00800669
-0.00618903
-0.00427813
-0.00224694
-7.81415e-05
0.00223538
0.00469098
0.0072774
0.00997647
0.012765
0.0156165
0.018503
0.0213964
0.0242694
0.0270964
0.0298538
0.0325201
0.0350763
0.0375051
0.0397913
0.0419208
0.043881
0.04566
0.0472471
0.0486317
0.0498056
0.0507741
0.0515175
0.0520291
0.0523052
0.0523431
0.0521403
0.0516946
0.0510032
0.050063
0.0488702
0.0474218
0.0457158
0.0437554
0.0415498
0.0391228
0.0365131
0.033785
0.0310181
0.0283123
0.0257635
0.0234539
0.0214223
0.0196817
0.0182332
0.0170508
0.0160731
0.0152509
0.0145149
0.013819
0.0131032
0.0123292
0.0114579
0.0104509
0.00930572
0.00795917
0.00648127
0.00472967
0.00293921
0.000789849
-0.022345
-0.0202207
-0.0181472
-0.0161502
-0.0142313
-0.0123778
-0.0105649
-0.00876168
-0.00693554
-0.00505597
-0.00309675
-0.00103777
0.00113375
0.00342275
0.00582654
0.00833554
0.0109345
0.0136039
0.0163214
0.0190632
0.021805
0.0245232
0.0271953
0.0298003
0.032319
0.0347343
0.0370304
0.0391935
0.0412109
0.043071
0.0447633
0.0462783
0.0476073
0.0487428
0.0496821
0.0504149
0.0509346
0.0512365
0.051317
0.0511728
0.0508011
0.050199
0.0493635
0.0482921
0.0469836
0.0454384
0.0436624
0.0416668
0.0394752
0.0371224
0.0346617
0.0321572
0.029688
0.0273278
0.0251448
0.0231718
0.0214018
0.0198653
0.0185464
0.0173969
0.0163815
0.0154435
0.0145477
0.0136416
0.0126952
0.0116715
0.01054
0.00929507
0.00788358
0.00636669
0.0046165
0.0028488
0.0007692
-0.0210067
-0.0190631
-0.0171177
-0.0152057
-0.0133326
-0.0114913
-0.00966503
-0.00783205
-0.00596929
-0.00405488
-0.00207001
-3.25385e-07
0.00216299
0.00442273
0.00677572
0.0092133
0.0117222
0.0142858
0.0168846
0.0194983
0.0221057
0.0246861
0.0272198
0.029688
0.0320738
0.0343615
0.0365372
0.038588
0.0405026
0.0422706
0.0438826
0.0453301
0.0466051
0.0477006
0.0486119
0.0493314
0.0498533
0.0501724
0.0502845
0.050186
0.0498736
0.049344
0.0485949
0.0476244
0.0464327
0.0450218
0.0433994
0.0415776
0.0395794
0.0374355
0.0351917
0.0329001
0.0306238
0.0284201
0.0263473
0.0244554
0.0226648
0.0210815
0.0196748
0.0184052
0.0172487
0.0161585
0.015109
0.014054
0.0129712
0.0118259
0.0105947
0.00927021
0.00780773
0.00626139
0.00451636
0.00277019
0.000753793
-0.0196897
-0.0179209
-0.0160865
-0.0142626
-0.0124462
-0.0106333
-0.00881376
-0.00697313
-0.00509583
-0.00316691
-0.00117352
0.000893863
0.00304065
0.00526762
0.00757089
0.00994226
0.0123698
0.0148387
0.0173322
0.0198322
0.0223203
0.0247782
0.0271884
0.0295343
0.0318007
0.0339735
0.0360402
0.0379892
0.0398103
0.041494
0.0430321
0.0444166
0.0456406