/*--------------------------------*- C++ -*----------------------------------*\
  =========                 |
  \\      /  F ield         | OpenFOAM: The Open Source CFD Toolbox
   \\    /   O peration     | Website:  https://openfoam.org
    \\  /    A nd           | Version:  7
     \\/     M anipulation  |
\*---------------------------------------------------------------------------*/
FoamFile
{
    version     2.0;
    format      ascii;
    class       surfaceScalarField;
    location    "120";
    object      phi;
}
// * * * * * * * * * * * * * * * * * * * * * * * * * * * * * * * * * * * * * //

dimensions      [0 3 -1 0 0 0 0];

internalField   nonuniform List<scalar> 
7273
(
0.0011454
0.00257793
0.00153321
0.00411444
0.00188165
0.00538444
0.00216938
0.00631221
0.00238134
0.0068956
0.00250704
0.00719484
0.0025366
0.00731769
0.00247394
0.007378
0.00236121
0.00740523
0.00227786
0.0072781
0.00230013
0.00678371
0.00245508
0.00577733
0.00271642
0.00428572
0.00303771
0.00246339
0.00338087
0.000498652
0.00371533
-0.00141824
0.00402118
-0.00312549
0.00427998
-0.00448245
0.00447903
-0.00542449
0.0046149
-0.00597282
0.00469304
-0.00621079
0.00472376
-0.00624447
0.00471829
-0.00616998
0.00468679
-0.00605434
0.00463583
-0.00593409
0.00456529
-0.00583349
0.00446899
-0.00578292
0.00434221
-0.00580767
0.00419085
-0.00588746
0.00403394
-0.00592706
0.00389664
-0.00577781
0.00379982
-0.00530407
0.00375463
-0.00444658
0.00376379
-0.00324082
0.0038247
-0.00179395
0.0039304
-0.000250353
0.00406791
0.00124126
0.00422191
0.00255277
0.00437532
0.00360272
0.00451361
0.00436576
0.0046272
0.0048654
0.00471188
0.00515536
0.00476782
0.00529846
0.00479801
0.00535005
0.00480631
0.0053513
0.00479519
0.00533337
0.00476455
0.00532541
0.00471264
0.00535407
0.00463873
0.00542923
0.00454535
0.00552622
0.00443851
0.00558161
0.00432588
0.00551105
0.00421467
0.00523968
0.00411098
0.00472621
0.00402048
0.00396975
0.00394889
0.00300386
0.00390159
0.00188685
0.00388236
0.000694316
0.00389167
-0.000489944
0.0039269
-0.00158622
0.00398192
-0.00253076
0.00404814
-0.00328447
0.00411638
-0.00383978
0.00417862
-0.00421208
0.00422896
-0.00443399
0.00426359
-0.00454187
0.00427942
-0.00457281
0.00427403
-0.00456405
0.00424518
-0.00454131
0.00419356
-0.00452906
0.00412149
-0.00449845
0.00403508
-0.00445641
0.00393973
-0.00426378
0.00384103
-0.00406144
0.0037443
-0.00344362
0.0036497
-0.00313767
-0.00180824
0.000773552
0.00211803
0.00121189
0.0036761
0.00161112
0.00498521
0.00194946
0.00597388
0.00220837
0.00663668
0.0023731
0.00703011
0.00243598
0.0072548
0.00241362
0.00740037
0.00236165
0.0074572
0.00235917
0.00728058
0.00246475
0.00667813
0.00268409
0.00555799
0.0029807
0.00398911
0.00330891
0.00213518
0.00363659
0.00017097
0.00394272
-0.00172436
0.00421218
-0.00339495
0.00443085
-0.00470113
0.00458951
-0.00558315
0.00468773
-0.00607104
0.00473315
-0.00625622
0.00473698
-0.0062483
0.00470992
-0.00614291
0.00466078
-0.00600519
0.00459522
-0.00586853
0.0045129
-0.00575117
0.00440704
-0.00567706
0.00427108
-0.00567171
0.0041088
-0.00572517
0.00393884
-0.00575709
0.00378862
-0.00562759
0.00368252
-0.00519797
0.00363416
-0.00439822
0.00364657
-0.00325323
0.00371598
-0.00186337
0.00383393
-0.000368302
0.00398556
0.00108964
0.0041545
0.00238383
0.00432293
0.00343428
0.00447588
0.00421281
0.00460343
0.00473785
0.00470112
0.00505767
0.00476909
0.00523049
0.00481045
0.0053087
0.00482912
0.00533263
0.00482763
0.00533486
0.00480605
0.00534699
0.00476306
0.00539706
0.00469831
0.00549398
0.00461429
0.00561024
0.00451629
0.00567961
0.00441075
0.00561659
0.00430379
0.00534664
0.00420098
0.00482902
0.00410806
0.00406267
0.00403122
0.0030807
0.00397642
0.00194165
0.0039484
0.000722333
0.00394833
-0.000489867
0.00397441
-0.00161231
0.00402113
-0.00257748
0.0040802
-0.00334354
0.00414241
-0.00390198
0.00419947
-0.00426914
0.00424524
-0.00447976
0.00427583
-0.00457246
0.00428821
-0.00458519
0.00428002
-0.00455587
0.00424884
-0.00451013
0.0041952
-0.00447541
0.00412119
-0.00442445
0.00403351
-0.00436874
0.00393772
-0.00416799
0.00384078
-0.00396449
0.00374746
-0.0033503
0.00365889
-0.0030491
-0.00173956
0.000428765
0.0016097
0.000913307
0.00319156
0.00135906
0.00453946
0.00174381
0.00558913
0.00204544
0.00633505
0.00224778
0.00682777
0.00234937
0.00715321
0.00237915
0.00737059
0.00240024
0.0074361
0.00248383
0.007197
0.0026685
0.00649346
0.00294242
0.00528407
0.00326304
0.00366849
0.0035895
0.00180872
0.00389477
-0.000134306
0.00416922
-0.00199881
0.00440023
-0.00362596
0.00457762
-0.00487851
0.00469551
-0.00570103
0.0047564
-0.00613194
0.00476996
-0.00626978
0.00474811
-0.00622644
0.00470092
-0.00609572
0.00463571
-0.00593999
0.00455703
-0.00578986
0.00446443
-0.00565856
0.00435098
-0.00556362
0.00420855
-0.00552928
0.00403836
-0.00555498
0.00385771
-0.00557644
0.00369551
-0.00546539
0.00357967
-0.00508213
0.00352677
-0.00434532
0.00354075
-0.00326722
0.00361671
-0.00193932
0.00374484
-0.000496439
0.00390878
0.000925698
0.00409102
0.0022016
0.00427312
0.00325218
0.00443972
0.00404622
0.00458053
0.00459704
0.00469086
0.00494733
0.00477078
0.00515057
0.00482343
0.00525605
0.00485276
0.0053033
0.00486135
0.00532627
0.00484953
0.00535881
0.00481642
0.00543017
0.00476201
0.00554839
0.0046886
0.00568365
0.0046006
0.00576761
0.00450323
0.00571396
0.00440151
0.00544835
0.0043005
0.00493004
0.00420594
0.00415724
0.00412425
0.00316238
0.00406221
0.0020037
0.00402506
0.00075948
0.00401505
-0.000479853
0.00403115
-0.00162841
0.00406862
-0.00261495
0.00411961
-0.00339454
0.00417496
-0.00395733
0.0042262
-0.00432039
0.00426692
-0.00452048
0.00429314
-0.00459868
0.00430189
-0.00459394
0.00429091
-0.00454489
0.00425762
-0.00447684
0.00420235
-0.00442014
0.00412688
-0.00434898
0.00403832
-0.00428018
0.00394236
-0.00407202
0.00384726
-0.00386939
0.00375738
-0.00326042
0.00367468
-0.0029664
-0.00167869
0.000114334
0.00108825
0.000641939
0.00266395
0.00112576
0.00405564
0.00155071
0.00516418
0.00189103
0.00599472
0.00213245
0.00658636
0.00228124
0.00700442
0.00237544
0.00727639
0.00247854
0.007333
0.00264839
0.00702714
0.00290415
0.0062377
0.00322105
0.00496717
0.00355519
0.00333436
0.00387111
0.0014928
0.00415154
-0.000414743
0.00439136
-0.00223862
0.00458287
-0.00381748
0.0047186
-0.00501424
0.00479591
-0.00577834
0.00482026
-0.00615629
0.00480314
-0.00625266
0.00475703
-0.00618033
0.00469128
-0.00602997
0.00461165
-0.00586035
0.00452139
-0.0056996
0.00441996
-0.00555713
0.00430073
-0.00544439
0.00415443
-0.00538298
0.00397948
-0.00538004
0.00379088
-0.00538784
0.00361799
-0.0052925
0.00349195
-0.0049561
0.00343294
-0.0042863
0.00344636
-0.00328063
0.00352704
-0.00202
0.00366263
-0.000632037
0.00383715
0.000751177
0.00403099
0.00200776
0.0042254
0.00305777
0.0044046
0.00386701
0.00455798
0.00444366
0.00468058
0.00482473
0.00477235
0.0050588
0.00483639
0.00519201
0.00487663
0.00526306
0.00489572
0.00530718
0.00489431
0.00536022
0.00487198
0.00545249
0.00482901
0.00559136
0.00476738
0.00574528
0.00469055
0.00584444
0.00460246
0.00580205
0.0045071
0.00554371
0.00440895
0.00502819
0.0043136
0.00425258
0.00422786
0.00324812
0.00415871
0.00207285
0.00411238
0.000805809
0.00409192
-0.000459393
0.00409727
-0.00163377
0.00412456
-0.00264223
0.00416652
-0.00343649
0.00421416
-0.00400498
0.00425891
-0.00436513
0.00429406
-0.00455563
0.00431554
-0.00462016
0.00432042
-0.00459882
0.0043066
-0.00453108
0.00427136
-0.0044416
0.00421481
-0.00436359
0.00413829
-0.00427246
0.0040492
-0.00419109
0.00395329
-0.00397611
0.00386001
-0.00377611
0.0037735
-0.00317392
0.00369639
-0.00288929
-0.00162522
-0.000147435
0.000400614
0.0021159
0.000911775
0.00354448
0.00137022
0.00470574
0.001747
0.00561795
0.00203163
0.00630172
0.00223708
0.00679897
0.00240574
0.00710773
0.00259505
0.00714369
0.00284676
0.00677543
0.0031631
0.00592136
0.00351115
0.00461911
0.00384893
0.00299658
0.00414889
0.00119284
0.00440144
-0.000667288
0.00460596
-0.00244315
0.00475787
-0.00396939
0.0048522
-0.00510857
0.00488959
-0.00581573
0.00487852
-0.00614522
0.00483224
-0.00620638
0.0047635
-0.00611159
0.00468083
-0.00594731
0.00458845
-0.00576797
0.0044882
-0.00559936
0.00437937
-0.0054483
0.00425595
-0.00532097
0.00410812
-0.00523515
0.00393158
-0.0052035
0.00373807
-0.00519433
0.0035562
-0.00511062
0.00341976
-0.00481966
0.00335292
-0.00421946
0.00336351
-0.00329123
0.00344599
-0.00210249
0.00358741
-0.000773448
0.0037702
0.000568382
0.00397388
0.00180407
0.00417918
0.00285248
0.00436994
0.00367625
0.00453519
0.00427842
0.00466968
0.00469024
0.00477318
0.0049553
0.00484868
0.00511651
0.00490003
0.0052117
0.00493
0.00527721
0.00493958
0.00535064
0.00492885
0.00546322
0.00489829
0.00562192
0.00484952
0.00579405
0.00478497
0.00590898
0.00470733
0.00587969
0.00461952
0.00563152
0.00452539
0.00512232
0.00443037
0.00434761
0.00434127
0.00333722
0.00426561
0.00214851
0.00421002
0.000861403
0.00417878
-0.000428155
0.00417271
-0.0016277
0.00418895
-0.00265847
0.00422095
-0.00346849
0.00426004
-0.00404407
0.00429757
-0.00440266
0.00432662
-0.00458468
0.00434297
-0.00463651
0.00434371
-0.00459956
0.00432694
-0.00451431
0.00428984
-0.00440449
0.00423228
-0.00430603
0.00415511
-0.00419529
0.00406581
-0.00410178
0.00397011
-0.00388042
0.00387856
-0.00368456
0.00379526
-0.00309061
0.00372335
-0.00281738
-0.00157864
0.000196661
0.00157882
0.00072451
0.00301663
0.00120896
0.00422129
0.00162149
0.00520542
0.00195427
0.00596894
0.00222415
0.00652909
0.00247259
0.00685929
0.00274651
0.00686977
0.00307136
0.00645058
0.00343626
0.00555647
0.00380431
0.00425106
0.00413792
0.00266296
0.00441732
0.000913439
0.00464087
-0.00089084
0.00481039
-0.00261267
0.00492326
-0.00408226
0.00497688
-0.00516219
0.00497532
-0.00581417
0.00493031
-0.00610021
0.00485669
-0.00613276
0.00476716
-0.00602206
0.00466929
-0.00584943
0.00456582
-0.0056645
0.00445719
-0.00549073
0.00434234
-0.00533345
0.0042161
-0.00519473
0.00406876
-0.0050878
0.00389359
-0.00502833
0.00369846
-0.00499921
0.00350983
-0.00492199
0.00336318
-0.00467302
0.00328683
-0.0041431
0.0032919
-0.0032963
0.00337376
-0.00218435
0.00351829
-0.000917973
0.00370734
0.000379333
0.00391906
0.00159235
0.00413383
0.00263771
0.00433509
0.00347499
0.00451149
0.00410201
0.00465749
0.00454425
0.00477258
0.00484021
0.00485957
0.00502952
0.0049222
0.00514907
0.00496335
0.00523606
0.00498442
0.00532957
0.00498597
0.00546167
0.00496868
0.00563921
0.00493373
0.00582901
0.00488252
0.00596019
0.00481648
0.00594573
0.00473745
0.00571055
0.00464862
0.00521115
0.00455511
0.00444113
0.00446369
0.00342863
0.0043819
0.0022303
0.00431746
0.000925844
0.00427516
-0.000385857
0.00425714
-0.00160968
0.00426158
-0.00266291
0.00428277
-0.00348968
0.00431247
-0.00407377
0.00434209
-0.00443229
0.00436449
-0.00460708
0.0043753
-0.00464731
0.00437161
-0.00459587
0.00435173
-0.00449443
0.00431279
-0.00436554
0.00425446
-0.0042477
0.00417697
-0.0041178
0.00408774
-0.00401255
0.0039924
-0.00378508
0.00390245
-0.0035946
0.00382208
-0.00301024
0.0037549
-0.0027502
-0.00153841
5.24954e-05
0.00108011
0.000583275
0.00248585
0.00108399
0.00372058
0.00153017
0.00475924
0.00191337
0.00558574
0.00225079
0.00619167
0.00257791
0.00653217
0.00292877
0.00651891
0.0033142
0.00606515
0.0037143
0.00515637
0.0040918
0.00387357
0.0044152
0.00233956
0.00467258
0.000656056
0.00486726
-0.00108552
0.00500262
-0.00274803
0.00507715
-0.00415678
0.00509083
-0.00517587
0.00505171
-0.00577506
0.00497473
-0.00602322
0.00487591
-0.00603394
0.0047676
-0.00591374
0.00465628
-0.00573812
0.00454336
-0.00555157
0.0044279
-0.00537528
0.00430838
-0.00521392
0.00418051
-0.00506686
0.00403524
-0.00494254
0.00386408
-0.00485717
0.00367069
-0.00480582
0.00347803
-0.00472933
0.00332194
-0.00451692
0.00323464
-0.00405581
0.00323154
-0.0032932
0.0033098
-0.00226261
0.00345486
-0.00106303
0.00364795
0.000186242
0.00386585
0.00137446
0.00408865
0.00241491
0.00429935
0.00326428
0.00448621
0.00391516
0.00464329
0.00438716
0.00476981
0.00471369
0.00486827
0.00493106
0.00494229
0.00507505
0.00499487
0.00518349
0.00502782
0.00529662
0.00504221
0.00544728
0.00503888
0.00564255
0.00501855
0.00584933
0.00498163
0.00599711
0.0049283
0.00599905
0.00485933
0.00577952
0.00477715
0.00529333
0.0046864
0.00453188
0.00459371
0.00352132
0.00450694
0.00231707
0.00443347
0.000999309
0.00438034
-0.000332719
0.00434999
-0.00157934
0.00434202
-0.00265494
0.00435165
-0.00349931
0.0043712
-0.00409332
0.00439223
-0.00445333
0.00440745
-0.0046223
0.00441232
-0.00465218
0.00440389
-0.00458745
0.00438071
-0.00447124
0.0043399
-0.00432473
0.00428095
-0.00418876
0.00420344
-0.00404029
0.00411456
-0.00392367
0.00401972
-0.00369024
0.0039312
-0.00350608
0.00385345
-0.0029325
0.00379047
-0.00268722
-0.00150394
7.96804e-06
0.00064731
0.000519508
0.00197431
0.00102205
0.00321803
0.00149416
0.00428713
0.00192409
0.0051558
0.00232491
0.00579086
0.00272244
0.00613464
0.00313724
0.0061041
0.00356807
0.00563432
0.00398952
0.00473492
0.00436654
0.00349654
0.0046749
0.00203121
0.00490925
0.000421705
0.00507666
-0.00125293
0.00517943
-0.0028508
0.00521683
-0.00419418
0.00519208
-0.00515112
0.00511746
-0.00570044
0.00501088
-0.00591664
0.00488929
-0.00591235
0.00476435
-0.0057888
0.00464138
-0.00561515
0.00452057
-0.00543076
0.00439979
-0.0052545
0.0042769
-0.00509103
0.00414839
-0.00493834
0.00400636
-0.00480051
0.00384134
-0.00469215
0.00365292
-0.0046174
0.00345942
-0.00453583
0.00329539
-0.00435289
0.00319626
-0.00395668
0.00318234
-0.00327927
0.00325389
-0.00233417
0.00339657
-0.00120571
0.00359141
-8.59887e-06
0.00381357
0.00115231
0.00404295
0.00218552
0.00426203
0.00304521
0.00445862
0.00371857
0.00462638
0.0042194
0.00476411
0.00457596
0.00487398
0.00482119
0.00495942
0.00498961
0.00502358
0.00511933
0.00506871
0.00525149
0.00509634
0.00541965
0.00510748
0.00563141
0.00510243
0.00585438
0.00508063
0.00601892
0.00504105
0.00603863
0.00498337
0.0058372
0.00490919
0.00536751
0.00482257
0.0046185
0.00472986
0.00361403
0.00463871
0.00240822
0.00455725
0.00108077
0.00449328
-0.000268749
0.00445046
-0.00153652
0.00442965
-0.00263412
0.00442712
-0.00349678
0.00443584
-0.00410203
0.00444767
-0.00446515
0.0044552
-0.00462984
0.00445374
-0.00465072
0.00444029
-0.004574
0.00441359
-0.00444454
0.00437083
-0.00428198
0.00431137
-0.0041293
0.0042341
-0.00396301
0.00414582
-0.00383539
0.0040516
-0.00359602
0.00396434
-0.00341882
0.00388886
-0.00285702
0.00382948
-0.00262785
-0.0014746
0.000121326
0.000280946
0.000569124
0.00152651
0.00105263
0.00273452
0.00153522
0.00380454
0.00200022
0.00469081
0.00245225
0.00533883
0.00290531
0.00568158
0.00336703
0.00564238
0.00382667
0.00517469
0.00425601
0.00430558
0.00462387
0.00312868
0.00491334
0.00174173
0.00512542
0.000209624
0.0052667
-0.0013942
0.00533841
-0.00292252
0.00534024
-0.004196
0.00527904
-0.00508993
0.0051714
-0.0055928
0.00503796
-0.0057832
0.00489624
-0.00577063
0.00475695
-0.00564951
0.00462413
-0.00548233
0.00449692
-0.00530355
0.00437221
-0.00512979
0.00424718
-0.00496601
0.0041189
-0.00481006
0.00398091
-0.00466252
0.00382358
-0.00453482
0.003643
-0.00443681
0.00345212
-0.00434496
0.00328245
-0.00418322
0.00317136
-0.00384559
0.00314431
-0.00325222
0.00320587
-0.00239573
0.00334346
-0.0013433
0.00353689
-0.000202028
0.00376158
0.00092761
0.0039961
0.00195101
0.00422245
0.00281885
0.00442803
0.003513
0.004606
0.00404142
0.0047547
0.00442726
0.00487586
0.00470003
0.00497272
0.00489275
0.00504853
0.00504352
0.00510597
0.00519405
0.00514707
0.00537855
0.005173
0.00560547
0.00518369
0.00584369
0.00517768
0.00602493
0.00515279
0.00606352
0.0051076
0.00588239
0.00504275
0.00543236
0.00496169
0.00469956
0.00487017
0.00370555
0.00477579
0.0025026
0.00468708
0.00116947
0.00461272
-0.000194386
0.00455749
-0.00148128
0.00452362
-0.00260026
0.0045085
-0.00348166
0.00450586
-0.00409939
0.00450794
-0.00446724
0.00450734
-0.00462924
0.00449922
-0.00464259
0.00448046
-0.00455524
0.00445002
-0.0044141
0.0044052
-0.00423715
0.00434528
-0.00406939
0.00426845
-0.00388619
0.00418104
-0.00374798
0.00408758
-0.00350256
0.00400142
-0.00333266
0.00392784
-0.00278343
0.00387146
-0.00257146
-0.00144974
0.000386002
5.7964e-07
0.000755093
0.00115742
0.0011967
0.00229291
0.00166918
0.00333206
0.00215044
0.00420955
0.00263474
0.00485452
0.0031236
0.00519272
0.00361287
0.00515311
0.00408444
0.00470312
0.00450917
0.00388086
0.00486077
0.00277708
0.00512917
0.00147334
0.00531984
1.895e-05
0.00543623
-0.00151059
0.00547802
-0.00296431
0.00544574
-0.00416372
0.0053503
-0.00499448
0.00521251
-0.00545501
0.00505528
-0.00562598
0.00489623
-0.00561158
0.00474492
-0.0054982
0.00460405
-0.00534145
0.00447184
-0.00517134
0.00434446
-0.00500241
0.00421847
-0.00484002
0.00409119
-0.00468278
0.00395768
-0.00452901
0.00380901
-0.00438616
0.00363857
-0.00426637
0.00345379
-0.00416018
0.00328155
-0.00401098
0.00315937
-0.0037234
0.00311747
-0.00321032
0.00316596
-0.00244422
0.003295
-0.00147234
0.00348426
-0.000391282
0.00370941
0.000702462
0.00394748
0.00171293
0.00417999
0.00258634
0.00439378
0.00329921
0.00458148
0.00385372
0.00474084
0.00426791
0.00487312
0.00456775
0.00498131
0.00478456
0.00506875
0.00495608
0.00513852
0.00512428
0.00519313
0.00532394
0.00523397
0.00556464
0.00526064
0.00581702
0.00527089
0.00601467
0.00526148
0.00607294
0.00522985
0.00591401
0.00517567
0.00548654
0.00510154
0.00477369
0.00501267
0.00379442
0.00491622
0.00259905
0.00482116
0.00126454
0.00473712
-0.000110349
0.00466977
-0.00141393
0.00462288
-0.00255337
0.00459498
-0.00345376
0.0045806
-0.00408502
0.00457252
-0.00445915
0.0045634
-0.00462012
0.00454832
-0.00462751
0.00452402
-0.00453093
0.00448963
-0.00437972
0.00444261
-0.00419013
0.00438224
-0.00400902
0.00430604
-0.00380998
0.00421972
-0.00366167
0.00412719
-0.00341002
0.00404201
-0.00324749
0.00396997
-0.00271139
0.00391595
-0.00251744
-0.00142871
0.000801617
0.00108
0.000879041
0.00145925
0.00191366
0.0019
0.00289132
0.0023752
0.00373435
0.00286925
0.00436047
0.00337194
0.00469003
0.00386889
0.00465615
0.00433632
0.00423569
0.0047456
0.00347158
0.00507579
0.00244689
0.00532176
0.00122736
0.00549246
-0.000151743
0.00558442
-0.00160255
0.00559694
-0.00297683
0.00553192
-0.0040987
0.00540469
-0.00486726
0.00523997
-0.00529029
0.00506228
-0.00544829
0.00488883
-0.00543813
0.00472783
-0.0053372
0.00458067
-0.00519429
0.00444477
-0.00503545
0.00431586
-0.0048735
0.00418996
-0.00471412
0.00406442
-0.00455723
0.00393561
-0.00440021
0.00379596
-0.00424651
0.0036373
-0.00410771
0.00346181
-0.00398469
0.00329058
-0.00383975
0.00315929
-0.00359211
0.0031018
-0.00315284
0.00313431
-0.00247673
0.00325152
-0.00158954
0.00343334
-0.0005731
0.00365671
0.00047909
0.00389663
0.001473
0.0041341
0.00234888
0.00435529
0.00307802
0.00455217
0.00365684
0.00472184
0.00409824
0.00486502
0.00442457
0.00498439
0.00466519
0.00508334
0.00485713
0.00516533
0.00504228
0.00523333
0.00525594
0.00528897
0.005509
0.00533165
0.00577435
0.00535842
0.0059879
0.00536506
0.0060663
0.00534792
0.00593116
0.00530564
0.00552882
0.00523986
0.00483947
0.00515496
0.00387931
0.00505798
0.00269603
0.00495749
0.00136503
0.00486477
-1.76254e-05
0.00478584
-0.00133501
0.00472622
-0.00249375
0.00468556
-0.00341311
0.00465928
-0.00405874
0.00464074
-0.0044406
0.00462282
-0.00460221
0.00460056
-0.00460524
0.00457053
-0.00450091
0.00453203
-0.00434122
0.00448265
-0.00414075
0.00442179
-0.00394816
0.00434635
-0.00373454
0.00426136
-0.00357668
0.00416994
-0.0033186
0.00408568
-0.00316323
0.00401486
-0.00264057
0.00396257
-0.00246516
-0.00141085
0.00152376
0.000696715
0.0018271
0.00161033
0.00221751
0.0025009
0.00266523
0.00328663
0.00314676
0.00387895
0.00364204
0.00419475
0.00412825
0.00416994
0.00457758
0.00378635
0.00496297
0.00308619
0.00526858
0.00214128
0.00549297
0.00100298
0.00564223
-0.000301006
0.00571047
-0.00167079
0.00569388
-0.00296025
0.00559748
-0.00400229
0.00544124
-0.00471102
0.00525316
-0.0051022
0.00505854
-0.00525367
0.00487368
-0.00525326
0.0047053
-0.00516882
0.00455353
-0.00504252
0.00441517
-0.00489709
0.00428571
-0.00474405
0.00416085
-0.00458926
0.00403774
-0.00443412
0.00391375
-0.00427621
0.00378299
-0.00411575
0.00363696
-0.00396167
0.00347342
-0.00382115
0.00330702
-0.00367335
0.00316963
-0.00345472
0.00309704
-0.00308025
0.00311141
-0.00249111
0.00321305
-0.00169118
0.00338466
-0.000744707
0.00360343
0.000260319
0.00384328
0.00123315
0.00408438
0.00210778
0.00431206
0.00285034
0.0045175
0.00345139
0.00469706
0.00391868
0.00485086
0.00427078
0.00498119
0.00453485
0.00509146
0.00474685
0.00518545
0.0049483
0.00526656
0.00517483
0.0053367
0.00543886
0.00539518
0.00571587
0.0054385
0.00594458
0.00546154
0.00604326
0.00545962
0.00593307
0.0054303
0.00555814
0.00537417
0.0048956
0.00529487
0.00395862
0.00519868
0.00279222
0.00509411
0.00146959
0.00499373
8.27575e-05
0.00490408
-0.00124535
0.00483231
-0.00242198
0.00477917
-0.00335997
0.00474102
-0.00402058
0.00471189
-0.00441147
0.00468499
-0.00457531
0.00465539
-0.00457564
0.00461952
-0.00446504
0.00457677
-0.00429846
0.0045249
-0.00408888
0.00446348
-0.00388674
0.00438889
-0.00365995
0.00430545
-0.00349324
0.00421536
-0.00322851
0.004132
-0.00307987
0.00406214
-0.00257071
0.00401101
-0.00241402
-0.00139551
0.00205575
0.000606176
0.00227608
0.00138999
0.00260204
0.00217494
0.00300426
0.00288441
0.00345399
0.00342922
0.00392359
0.00372514
0.00438382
0.00370971
0.00480441
0.00336577
0.00516044
0.00273015
0.00544014
0.00186159
0.00564279
0.000800327
0.00577026
-0.000428475
0.00581345
-0.00171398
0.0057675
-0.0029143
0.0056413
-0.0038761
0.00545927
-0.00452899
0.00525171
-0.00489465
0.00504384
-0.00504579
0.00485052
-0.00505994
0.00467696
-0.00499526
0.00452218
-0.00488774
0.0043825
-0.00475741
0.00425336
-0.00461491
0.00413034
-0.00446624
0.00401032
-0.0043141
0.00389124
-0.00415713
0.00376896
-0.00399346
0.00363563
-0.00382835
0.00348591
-0.00367143
0.003328
-0.00351544
0.00318833
-0.00331505
0.00310246
-0.00299437
0.00309764
-0.00248629
0.00318068
-0.00177422
0.00333855
-0.000902573
0.00354981
4.90567e-05
0.00378735
0.000995608
0.00403058
0.00186455
0.00426371
0.00261721
0.00447701
0.00323809
0.00466599
0.0037297
0.00483005
0.00410672
0.00497108
0.00439382
0.00509239
0.00462554
0.00519804
0.00484265
0.00529183
0.00508104
0.005376
0.00535469
0.00544986
0.00564201
0.00550952
0.00588492
0.00554908
0.00600369
0.00556289
0.00591927
0.00554741
0.00557362
0.00550217
0.00494084
0.00542981
0.00403098
0.00533594
0.00288609
0.0052293
0.00157623
0.00512169
0.00019037
0.00502276
-0.00114643
0.0049397
-0.00233891
0.00487461
-0.00329488
0.00482483
-0.0039708
0.00478516
-0.00437181
0.00474923
-0.00453938
0.00471224
-0.00453865
0.00467048
-0.00442328
0.0046234
-0.00425138
0.00456892
-0.0040344
0.00450686
-0.00382468
0.00443319
-0.00358629
0.00435149
-0.00341154
0.00426298
-0.00314
0.00418058
-0.00299746
0.00411149
-0.00250162
0.00406095
-0.00236349
-0.00138209
0.00263396
0.000584811
0.00277679
0.00124716
0.00303177
0.00191996
0.00337547
0.00254072
0.0037781
0.00302659
0.00420759
0.00329565
0.00463044
0.00328686
0.00501516
0.00298105
0.00533891
0.0024064
0.00559204
0.00160845
0.00577206
0.000620308
0.00587589
-0.000532303
0.00589195
-0.00173004
0.00581639
-0.00283874
0.00566248
-0.00372218
0.00545836
-0.00432488
0.0052355
-0.00467179
0.00501809
-0.00482838
0.00481919
-0.00486105
0.00464252
-0.00481858
0.00448621
-0.00473144
0.00434625
-0.00461745
0.00421819
-0.00448684
0.00409767
-0.00434573
0.00398136
-0.00419778
0.00386733
-0.00404311
0.00375295
-0.00387909
0.00363183
-0.00370722
0.00349687
-0.00353647
0.00335055
-0.00336912
0.00321281
-0.00317732
0.00311675
-0.0028983
0.00309308
-0.00246263
0.00315536
-0.0018365
0.00329601
-0.00104323
0.00349647
-0.000151397
0.00372913
0.000762947
0.0039727
0.00162098
0.00421007
0.00237984
0.00443039
0.00301777
0.0046282
0.0035319
0.00480211
0.00393281
0.00495349
0.00424244
0.00508552
0.00449352
0.0052024
0.00472577
0.00530833
0.00497511
0.0054059
0.00525712
0.00549452
0.00555338
0.00557008
0.00580937
0.00562604
0.00594773
0.00565585
0.00588946
0.00565489
0.00557458
0.00562161
0.00497413
0.00555746
0.00409512
0.00546743
0.00297612
0.00536024
0.00168342
0.00524719
0.00030342
0.00514021
-0.00103945
0.00504689
-0.00224559
0.00497061
-0.00321859
0.00490968
-0.00390987
0.00485971
-0.00432184
0.00481483
-0.0044945
0.00477049
-0.00449431
0.00472288
-0.00437567
0.00467145
-0.00419995
0.00461428
-0.00397723
0.00455149
-0.00376189
0.00447877
-0.00351357
0.004399
-0.00333177
0.00431234
-0.00305334
0.004231
-0.00291613
0.00416258
-0.0024332
0.00411219
-0.0023131
-0.00136998
0.00320549
0.00329212
0.00116053
0.0034832
0.00172888
0.00376406
0.00225985
0.0041098
0.00268085
0.00448882
0.00291663
0.00486629
0.0029094
0.00521057
0.00263677
0.00550011
0.00211686
0.00572537
0.0013832
0.00588029
0.000465387
0.00595737
-0.000609381
0.00594405
-0.00171673
0.00583922
-0.0027339
0.00566046
-0.00354342
0.00543852
-0.00410294
0.00520473
-0.004438
0.00498146
-0.00460511
0.00477971
-0.0046593
0.00460184
-0.0046407
0.00444535
-0.00457496
0.00430608
-0.00447818
0.00417974
-0.0043605
0.00406226
-0.00422825
0.00395015
-0.00408567
0.00384138
-0.00393434
0.00373435
-0.00377206
0.00362448
-0.00359735
0.00350437
-0.00341636
0.0033719
-0.00323665
0.00324019
-0.0030456
0.00313795
-0.00279607
0.00309733
-0.002422
0.00313785
-0.00187702
0.00325893
-0.00116431
0.00344391
-0.000336381
0.00366924
0.000537616
0.00391102
0.0013792
0.00415115
0.00213972
0.00437747
0.00279144
0.00458341
0.00332596
0.00476667
0.00374955
0.00492801
0.0040811
0.00507034
0.00435118
0.00519797
0.00459814
0.00531541
0.00485767
0.00542561
0.00514692
0.00552822
0.00545077
0.00561902
0.00571856
0.00569103
0.00587572
0.00573687
0.00584362
0.00575091
0.00556054
0.00573044
0.0049946
0.00567576
0.0041498
0.00559095
0.00306093
0.00548467
0.0017897
0.00536828
0.000419807
0.0052547
-0.000925856
0.0051524
-0.0021433
0.0050659
-0.00313209
0.00499451
-0.00383848
0.00493467
-0.00426201
0.00488107
-0.0044409
0.00482951
-0.00444274
0.00477615
-0.00432231
0.00472044
-0.00414423
0.00466055
-0.00391735
0.00459695
-0.00369828
0.00452518
-0.0034418
0.00444749
-0.00325409
0.00436296
-0.00296881
0.00428289
-0.00283606
0.00421513
-0.00236544
0.00416451
-0.00226248
-0.00135865
0.00378384
0.00110163
0.00392644
0.00158628
0.00415085
0.00203544
0.00443872
0.00239298
0.00476255
0.00259281
0.00509001
0.00258193
0.0053908
0.00233599
0.00564391
0.00186374
0.00583856
0.00118855
0.00596483
0.000339108
0.00601164
-0.000656183
0.00596751
-0.0016726
0.00583492
-0.00260131
0.00563515
-0.00334366
0.00540018
-0.00386797
0.00515995
-0.00419778
0.00493437
-0.00437952
0.00473231
-0.00445724
0.00455495
-0.00446334
0.00439947
-0.00441948
0.00426173
-0.00434044
0.00413769
-0.00423646
0.00402364
-0.00411419
0.0039161
-0.00397813
0.00381279
-0.00383103
0.00371265
-0.00367191
0.0036129
-0.00349761
0.00350697
-0.00331043
0.00338965
-0.00311933
0.00326751
-0.00292347
0.00316357
-0.00269213
0.00310918
-0.00236761
0.00312848
-0.00189631
0.00322761
-0.00126344
0.00339451
-0.000503283
0.00360889
0.000323233
0.00384623
0.00114186
0.00408725
0.0018987
0.00431831
0.00256038
0.00453151
0.00311276
0.0047235
0.00355756
0.00489432
0.00391028
0.00504651
0.00419899
0.00518436
0.00446029
0.00531261
0.00472942
0.00543459
0.00502494
0.00555026
0.0053351
0.00565547
0.00561335
0.00574294
0.00578825
0.00580462
0.00578194
0.00583392
0.00553124
0.00582693
0.00500159
0.00578275
0.00419397
0.0057047
0.00313898
0.00560067
0.00189373
0.00548306
0.000537424
0.00536452
-0.000807321
0.00525473
-0.00203351
0.00515919
-0.00303656
0.00507823
-0.00375752
0.00500913
-0.00419291
0.0049472
-0.00437897
0.00488865
-0.0043842
0.00482974
-0.0042634
0.00476987
-0.00408436
0.00470731
-0.00385479
0.00464282
-0.00363379
0.00457199
-0.00337097
0.00449651
-0.00317861
0.00441442
-0.00288672
0.00433586
-0.0027575
0.00426886
-0.00229844
0.00421773
-0.00221136
-0.00134762
0.00420103
0.0010398
0.00432186
0.00146545
0.00450583
0.00185147
0.00474473
0.00215408
0.0050167
0.00232085
0.00529443
0.0023042
0.0055508
0.00207962
0.00576584
0.0016487
0.00592697
0.00102743
0.00602076
0.00024531
0.00603476
-0.000670175
0.00595987
-0.00159771
0.00580252
-0.00244396
0.00558655
-0.00312769
0.00534368
-0.0036251
0.00510142
-0.00395552
0.00487677
-0.00415487
0.00467661
-0.00425708
0.00450124
-0.00428798
0.00434779
-0.00426603
0.00421234
-0.00420499
0.00409114
-0.00411526
0.00398083
-0.00400389
0.00387818
-0.00387547
0.00378058
-0.00373344
0.00368706
-0.00357839
0.00359634
-0.00340688
0.00350345
-0.00321754
0.00340166
-0.00301754
0.00329188
-0.00281369
0.00319062
-0.00259087
0.00312654
-0.00230353
0.00312665
-0.00189642
0.00320311
-0.0013399
0.00334968
-0.000649856
0.0035497
0.000123217
0.00377955
0.000912006
0.00401913
0.00165912
0.00425327
0.00232625
0.0044726
0.00289343
0.00467255
0.00335761
0.00485226
0.00373056
0.0050138
0.00403746
0.00516129
0.0043128
0.00529963
0.00459108
0.00543248
0.0048921
0.00556019
0.00520739
0.00567884
0.00549471
0.005781
0.00568609
0.00585811
0.00570483
0.00590269
0.00548665
0.00590969
0.0049946
0.00587688
0.00422678
0.00580667
0.00320919
0.00570724
0.00199316
0.00558957
0.000655093
0.00546819
-0.000685935
0.00535246
-0.00191778
0.00524921
-0.00293331
0.00515974
-0.00366804
0.00508215
-0.00411532
0.0050124
-0.00430922
0.00494722
-0.00431902
0.00488304
-0.00419922
0.00481923
-0.00402055
0.0047541
-0.00378966
0.0046887
-0.0035684
0.00461879
-0.00330105
0.00454561
-0.00310544
0.00446627
-0.00280737
0.00438953
-0.00268076
0.00432348
-0.00223239
0.0042717
-0.00215957
-0.00133648
0.00450341
0.000955269
0.0046269
0.00134196
0.00479308
0.00168529
0.00499896
0.0019482
0.00522963
0.00209018
0.00546362
0.00207021
0.00567839
0.00186485
0.00585522
0.00147187
0.00598096
0.000901688
0.00604386
0.000182414
0.00602431
-0.000650631
0.00592026
-0.00149366
0.00574212
-0.00226583
0.00551513
-0.00290071
0.00526929
-0.00337925
0.00502881
-0.00371504
0.00480774
-0.00393379
0.00461122
-0.00406057
0.00443906
-0.00411581
0.00428855
-0.00411552
0.00415615
-0.00407259
0.0040384
-0.0039975
0.00393228
-0.00389777
0.00383485
-0.00377804
0.00374334
-0.00364193
0.00365646
-0.00349151
0.0035739
-0.00332433
0.0034927
-0.00313633
0.0034061
-0.00293094