/*--------------------------------*- C++ -*----------------------------------*\
  =========                 |
  \\      /  F ield         | OpenFOAM: The Open Source CFD Toolbox
   \\    /   O peration     | Website:  https://openfoam.org
    \\  /    A nd           | Version:  7
     \\/     M anipulation  |
\*---------------------------------------------------------------------------*/
FoamFile
{
    version     2.0;
    format      ascii;
    class       volVectorField;
    location    "120";
    object      U;
}
// * * * * * * * * * * * * * * * * * * * * * * * * * * * * * * * * * * * * * //

dimensions      [0 1 -1 0 0 0 0];

internalField   nonuniform List<vector> 
3700
(
(0.15646 0.262397 3.75687e-22)
(0.223271 0.405944 -4.09527e-21)
(0.285442 0.523462 4.28564e-21)
(0.339239 0.607829 -4.22708e-21)
(0.381668 0.659087 2.27144e-21)
(0.411007 0.683082 -5.0983e-22)
(0.425369 0.690087 2.44982e-21)
(0.422646 0.691718 -1.30374e-21)
(0.405341 0.692604 1.14973e-21)
(0.384884 0.682731 -4.95432e-22)
(0.377813 0.641422 -9.7605e-22)
(0.395269 0.552565 -6.52723e-22)
(0.436569 0.416405 5.83481e-22)
(0.493352 0.246932 -6.29701e-22)
(0.556955 0.0625242 8.76977e-22)
(0.621036 -0.11909 -3.14357e-22)
(0.681062 -0.281458 -1.01376e-21)
(0.733434 -0.411511 2.07282e-21)
(0.775342 -0.502943 -2.15911e-21)
(0.80559 -0.557363 -1.90129e-22)
(0.824765 -0.582247 1.46918e-21)
(0.834601 -0.587401 -2.45486e-22)
(0.837127 -0.58187 -1.98921e-22)
(0.83427 -0.572033 1.73954e-22)
(0.827656 -0.561483 -7.43192e-22)
(0.817992 -0.552802 5.62617e-22)
(0.804535 -0.549139 6.07485e-23)
(0.785789 -0.55283 -1.56973e-22)
(0.761393 -0.561466 -9.1108e-22)
(0.733568 -0.565432 8.16407e-22)
(0.706689 -0.550409 6.40763e-22)
(0.685298 -0.503824 -1.09446e-21)
(0.672361 -0.420593 -5.87293e-23)
(0.66901 -0.30449 -5.54467e-22)
(0.675215 -0.165864 1.53601e-21)
(0.690175 -0.0185068 -1.02492e-21)
(0.712161 0.123344 2.92877e-22)
(0.738695 0.247509 -5.39618e-22)
(0.766875 0.346264 -1.12718e-22)
(0.793815 0.417343 2.83351e-22)
(0.817314 0.463188 -1.24868e-22)
(0.836103 0.489105 4.89558e-23)
(0.849778 0.501209 -1.00545e-22)
(0.858597 0.504848 8.93073e-23)
(0.863211 0.503931 -4.12048e-23)
(0.864237 0.501326 -1.0797e-22)
(0.861863 0.499658 1.10441e-23)
(0.855773 0.501362 -3.13788e-22)
(0.845553 0.507418 3.28184e-22)
(0.83128 0.515648 -1.11381e-22)
(0.813827 0.520225 -2.49734e-22)
(0.794642 0.513276 1.72956e-22)
(0.775235 0.487732 -2.02982e-22)
(0.756842 0.439668 -4.24566e-23)
(0.740478 0.368998 -2.28889e-22)
(0.727129 0.278897 6.00956e-23)
(0.717793 0.174855 5.45667e-23)
(0.713312 0.0638994 -1.63456e-22)
(0.714052 -0.0462562 3.3546e-23)
(0.719804 -0.148211 9.98287e-24)
(0.729733 -0.236154 -4.38379e-23)
(0.742486 -0.306528 -9.31252e-23)
(0.75634 -0.358663 5.41228e-23)
(0.769734 -0.393957 7.60337e-23)
(0.781315 -0.415379 -1.54693e-23)
(0.790315 -0.426249 -1.1627e-22)
(0.796077 -0.430025 -1.50654e-23)
(0.798128 -0.430176 8.70753e-24)
(0.796015 -0.429122 -3.59294e-24)
(0.789311 -0.429024 7.54464e-24)
(0.778624 -0.427094 5.08628e-24)
(0.764277 -0.423786 -6.9179e-24)
(0.747867 -0.406047 -2.58479e-24)
(0.730809 -0.387099 1.56049e-26)
(0.711524 -0.328814 7.60499e-26)
(0.698357 -0.299852 7.87242e-26)
(0.673754 -0.173837 -6.13746e-25)
(0.0789125 0.220076 -2.89858e-21)
(0.148552 0.364995 6.43424e-21)
(0.215404 0.486059 -6.45159e-21)
(0.275432 0.57627 -3.35206e-21)
(0.325076 0.635156 -1.42367e-21)
(0.361435 0.668137 2.57536e-21)
(0.381646 0.685109 -2.94923e-21)
(0.384609 0.695764 8.3557e-21)
(0.375834 0.700865 -3.65873e-21)
(0.369033 0.687446 -6.69793e-22)
(0.379649 0.636 1.583e-21)
(0.414798 0.535326 -2.64807e-21)
(0.470187 0.390216 3.54619e-21)
(0.536231 0.216043 -2.53079e-21)
(0.604654 0.03044 -4.30551e-21)
(0.67018 -0.15036 -1.33198e-21)
(0.729078 -0.309926 5.88887e-21)
(0.778103 -0.435482 -1.02645e-21)
(0.814984 -0.521234 6.69727e-21)
(0.839278 -0.56969 -6.23836e-21)
(0.852354 -0.589185 -2.64957e-22)
(0.856563 -0.58996 2.55511e-21)
(0.854241 -0.581099 -1.96109e-22)
(0.847276 -0.568846 6.3676e-22)
(0.837125 -0.556481 -1.64049e-21)
(0.824471 -0.545975 2.08279e-21)
(0.808633 -0.539879 -1.37624e-21)
(0.787972 -0.540602 7.86129e-22)
(0.761654 -0.546738 -3.17546e-22)
(0.731376 -0.550014 1.28163e-21)
(0.701369 -0.536829 1.09101e-22)
(0.676516 -0.494275 -9.50469e-22)
(0.660309 -0.416304 -1.58654e-21)
(0.654259 -0.305783 4.06568e-21)
(0.658489 -0.17245 -2.32713e-21)
(0.672275 -0.0296318 1.42975e-22)
(0.693862 0.108911 7.31374e-22)
(0.7207 0.231384 -2.06162e-21)
(0.749843 0.330146 2.07457e-21)
(0.778309 0.402664 -9.70277e-22)
(0.803746 0.450894 -1.39561e-22)
(0.824702 0.479618 8.88365e-22)
(0.840623 0.494522 4.66017e-22)
(0.851682 0.500672 -1.31937e-21)
(0.858479 0.5019 9.4439e-22)
(0.861583 0.501204 -9.07235e-22)
(0.861143 0.501447 1.78526e-21)
(0.856859 0.505208 -8.57627e-22)
(0.848402 0.513372 -6.68111e-22)
(0.835947 0.523468 8.46066e-22)
(0.820392 0.529372 -2.62496e-22)
(0.803088 0.523074 2.16961e-22)
(0.785377 0.497538 2.35505e-25)
(0.76835 0.448918 -1.44289e-22)
(0.752944 0.377138 1.62451e-21)
(0.740132 0.285365 -5.50729e-22)
(0.73092 0.179111 7.0794e-22)
(0.726191 0.0655662 -2.98072e-22)
(0.726371 -0.0472956 -1.16924e-21)
(0.73132 -0.151715 -5.90219e-22)
(0.740301 -0.241555 1.10783e-21)
(0.752046 -0.313023 -2.64651e-22)
(0.764884 -0.365379 -6.80396e-23)
(0.777267 -0.400125 4.28934e-22)
(0.787835 -0.420434 2.339e-23)
(0.795833 -0.429833 2.21203e-23)
(0.800643 -0.431849 5.23908e-23)
(0.801843 -0.430017 -7.87355e-23)
(0.798995 -0.426759 1.13795e-22)
(0.791628 -0.424514 3.63373e-23)
(0.780327 -0.420648 -7.70366e-23)
(0.765357 -0.416007 1.25114e-23)
(0.748563 -0.397457 1.65746e-23)
(0.731144 -0.378292 -6.94931e-25)
(0.712405 -0.320272 2.30248e-25)
(0.699254 -0.291636 2.1391e-25)
(0.67701 -0.167416 8.04002e-25)
(0.0117841 0.173645 1.24898e-20)
(0.0827575 0.320377 -2.10053e-20)
(0.152764 0.444916 1.57027e-20)
(0.217486 0.540852 -5.23575e-22)
(0.272712 0.607581 -7.31269e-21)
(0.314557 0.65007 9.51133e-21)
(0.340011 0.677144 2.63965e-22)
(0.349757 0.695708 3.31534e-21)
(0.351939 0.702887 -2.96362e-21)
(0.361102 0.684224 -1.778e-21)
(0.390205 0.622796 1.18029e-20)
(0.4422 0.512346 -1.6277e-20)
(0.510022 0.361105 1.32129e-20)
(0.583684 0.18484 3.62585e-21)
(0.655596 -0.000254766 -2.23239e-20)
(0.721657 -0.178758 1.38143e-20)
(0.778821 -0.334765 -1.65359e-21)
(0.823976 -0.455492 -2.84758e-21)
(0.8554 -0.535572 -7.38314e-22)
(0.873445 -0.578365 -5.08855e-21)
(0.880284 -0.592975 2.5224e-21)
(0.878857 -0.589953 -9.04514e-22)
(0.871774 -0.578288 3.02115e-21)
(0.860863 -0.564011 -1.09026e-21)
(0.847361 -0.55012 2.01163e-21)
(0.831871 -0.538062 -1.77398e-21)
(0.813808 -0.529775 1.772e-21)
(0.791484 -0.527612 -2.51728e-21)
(0.763636 -0.531103 -1.68532e-21)
(0.731369 -0.533458 2.16225e-21)
(0.698617 -0.522052 1.22267e-21)
(0.670515 -0.483794 -1.91875e-21)
(0.651109 -0.411595 -1.06842e-21)
(0.642344 -0.307223 4.64793e-21)
(0.644517 -0.179653 -3.13163e-21)
(0.656948 -0.0416358 1.14668e-21)
(0.677906 0.0933572 -4.66766e-21)
(0.704797 0.214021 4.16793e-21)
(0.734624 0.312733 -2.69087e-21)
(0.764338 0.386674 1.97793e-21)
(0.791455 0.437309 -1.08105e-21)
(0.814366 0.468889 -2.68121e-22)
(0.83238 0.486652 -4.12152e-22)
(0.845584 0.495374 -1.29881e-21)
(0.854514 0.498804 2.11579e-21)
(0.859684 0.500072 2.12063e-22)
(0.861201 0.502262 -7.64698e-22)
(0.858795 0.508075 5.25223e-22)
(0.852223 0.518307 -9.4557e-23)
(0.841747 0.530242 3.60238e-22)
(0.82826 0.537523 1.90902e-22)
(0.813005 0.532045 1.86036e-22)
(0.797155 0.506794 -3.07093e-21)
(0.781656 0.457948 8.09774e-22)
(0.76737 0.385393 -8.32745e-22)
(0.755231 0.292241 1.58022e-21)
(0.746236 0.184017 -1.71752e-21)
(0.741291 0.0680566 6.18886e-23)
(0.740871 -0.047419 -1.68494e-21)
(0.74492 -0.154292 2.60529e-21)
(0.752804 -0.246083 -4.65645e-22)
(0.763367 -0.318734 -1.05043e-22)
(0.775012 -0.371404 -8.46146e-23)
(0.786225 -0.405679 2.65136e-22)
(0.795647 -0.424932 1.51624e-22)
(0.802532 -0.432911 3.1967e-22)
(0.806307 -0.433228 -1.62305e-22)
(0.806603 -0.429482 -1.33238e-22)
(0.803008 -0.424074 1.96432e-22)
(0.79501 -0.41972 -1.77786e-23)
(0.78316 -0.413929 7.07416e-23)
(0.767637 -0.408017 -1.58699e-23)
(0.750509 -0.388732 2.13923e-24)
(0.732764 -0.369553 -4.80027e-24)
(0.714559 -0.311967 1.36042e-24)
(0.701446 -0.283902 -8.11117e-24)
(0.68145 -0.161702 -1.52614e-25)
(-0.0448381 0.1243 1.25506e-20)
(0.0269406 0.272112 -1.62587e-20)
(0.097966 0.400337 1.81284e-20)
(0.165495 0.501875 -1.80618e-21)
(0.224555 0.576645 4.24819e-21)
(0.270676 0.628825 3.71964e-21)
(0.301484 0.665464 -7.63581e-21)
(0.319662 0.690268 3.57934e-21)
(0.335112 0.697511 -8.02595e-21)
(0.361754 0.672667 -1.45462e-21)
(0.40918 0.602258 2.23673e-20)
(0.476541 0.484524 -2.14654e-20)
(0.5549 0.330047 -4.33444e-21)
(0.634415 0.154103 1.71709e-20)
(0.708729 -0.0288318 -1.17528e-21)
(0.774716 -0.203957 -4.65253e-21)
(0.829598 -0.355812 2.71705e-21)
(0.870475 -0.471443 2.90525e-21)
(0.896116 -0.545915 1.79588e-21)
(0.907725 -0.583401 -8.79553e-22)
(0.908296 -0.593674 -5.58082e-21)
(0.901313 -0.58747 3.41759e-21)
(0.889615 -0.573555 2.93772e-21)
(0.874956 -0.557659 1.97401e-21)
(0.858322 -0.542531 -5.97728e-21)
(0.840176 -0.529198 4.48251e-21)
(0.820039 -0.518999 -2.15964e-21)
(0.796275 -0.514102 1.24625e-21)
(0.767279 -0.514849 -2.9256e-21)
(0.733513 -0.515999 3.32077e-21)
(0.698457 -0.506175 -1.30929e-21)
(0.667365 -0.472333 5.94301e-22)
(0.64483 -0.406329 1.92e-21)
(0.63331 -0.308636 2.22769e-21)
(0.633336 -0.187285 -1.56701e-21)
(0.64422 -0.0544603 6.96749e-23)
(0.664288 0.0768292 1.12231e-21)
(0.690978 0.195571 -3.9321e-21)
(0.721203 0.294155 -3.73337e-22)
(0.75188 0.369476 2.92198e-21)
(0.780418 0.422507 -1.51843e-21)
(0.805069 0.456963 2.72793e-21)
(0.82502 0.47762 8.43823e-22)
(0.840268 0.48895 -1.91219e-21)
(0.851276 0.494624 1.38259e-21)
(0.858488 0.497894 -2.66025e-22)
(0.861981 0.502042 9.6207e-22)
(0.861517 0.509875 -4.44638e-22)
(0.856943 0.522114 -2.45009e-22)
(0.848589 0.535851 -2.26593e-22)
(0.837332 0.544561 3.72391e-22)
(0.824287 0.540078 1.98034e-21)
(0.810465 0.515394 -3.17052e-21)
(0.79667 0.46666 1.87716e-21)
(0.783679 0.393677 1.10626e-21)
(0.772371 0.299466 8.4749e-22)
(0.763706 0.189552 -1.07744e-21)
(0.758588 0.0713885 4.0286e-21)
(0.757545 -0.0465692 -1.81917e-21)
(0.760606 -0.155856 -2.40739e-21)
(0.767255 -0.249636 2.8526e-22)
(0.776465 -0.32356 2.88032e-21)
(0.786738 -0.376649 7.2368e-22)
(0.796616 -0.410547 -1.3175e-21)
(0.804752 -0.428815 6.40397e-23)
(0.810412 -0.43544 -1.16664e-22)
(0.813061 -0.434132 -9.79857e-24)
(0.812391 -0.428562 2.02602e-22)
(0.808026 -0.42108 -3.56817e-22)
(0.799418 -0.414673 1.96812e-22)
(0.787074 -0.40698 -4.74793e-23)
(0.771063 -0.399849 -2.42417e-23)
(0.753645 -0.379897 -5.10848e-24)
(0.735596 -0.360885 1.79511e-24)
(0.717891 -0.303897 -5.17109e-24)
(0.704817 -0.276627 6.64547e-24)
(0.686927 -0.156657 -1.69395e-24)
(-0.088918 0.0750533 1.40868e-21)
(-0.0185297 0.220976 -1.22356e-20)
(0.0514395 0.352992 2.09176e-20)
(0.119559 0.459772 -1.91949e-20)
(0.180976 0.542557 1.73539e-20)
(0.230801 0.604083 -6.55538e-21)
(0.267746 0.64908 -1.87868e-21)
(0.296193 0.678242 -1.86126e-20)
(0.326694 0.684008 3.03693e-20)
(0.371324 0.652912 -3.38541e-20)
(0.436003 0.575236 2.78993e-20)
(0.516748 0.452976 -5.85371e-21)
(0.603556 0.298028 4.42555e-22)
(0.68731 0.124545 -6.2062e-21)
(0.763072 -0.0546983 -1.9006e-21)
(0.828469 -0.225775 1.38627e-20)
(0.880739 -0.37299 -7.34773e-21)
(0.917033 -0.483301 -4.1221e-21)
(0.936662 -0.552267 -4.887e-21)
(0.941749 -0.584853 -5.67931e-21)
(0.936121 -0.591378 8.58691e-21)
(0.923752 -0.582627 -8.42587e-21)
(0.907646 -0.567025 4.88373e-21)
(0.889468 -0.549924 9.73883e-22)
(0.869939 -0.533846 -3.63201e-21)
(0.849344 -0.51951 3.02483e-21)
(0.827287 -0.507708 -2.14416e-21)
(0.802272 -0.500304 2.00511e-21)
(0.772471 -0.498267 -1.54547e-21)
(0.737703 -0.497907 -2.65413e-21)
(0.700838 -0.489339 -3.96792e-21)
(0.667068 -0.459858 6.68268e-21)
(0.641491 -0.400347 1.1205e-21)
(0.627157 -0.309813 1.50324e-21)
(0.624877 -0.195151 -6.09521e-21)
(0.634035 -0.0678789 1.95684e-22)
(0.653006 0.0595133 4.37063e-21)
(0.679208 0.176194 -6.40195e-21)
(0.709539 0.274546 3.74996e-21)
(0.740892 0.351174 -2.41366e-21)
(0.770592 0.406564 -1.85665e-21)
(0.796771 0.443887 -1.47873e-21)
(0.818502 0.467445 3.689e-21)
(0.835689 0.481404 -9.76951e-22)
(0.848709 0.489349 -1.24259e-21)
(0.857933 0.494639 8.09816e-22)
(0.863409 0.500733 -2.71211e-23)
(0.864942 0.510529 -1.5588e-21)
(0.862464 0.524694 2.62909e-21)
(0.856361 0.540187 -3.28385e-21)
(0.847474 0.550376 -8.5788e-22)
(0.836794 0.547062 3.00898e-21)
(0.825166 0.523224 -4.9618e-21)
(0.813258 0.474943 2.73275e-21)
(0.801749 0.401893 3.10494e-21)
(0.791439 0.306974 -6.22888e-21)
(0.783233 0.195689 1.24456e-21)
(0.778008 0.0755659 -2.24519e-21)
(0.776335 -0.0447034 -1.78519e-21)
(0.77834 -0.156332 2.42723e-21)
(0.783629 -0.252121 -1.67897e-21)
(0.791325 -0.327402 -1.09692e-21)
(0.800051 -0.381022 1.24652e-21)
(0.808428 -0.414651 5.76951e-22)
(0.815136 -0.432024 -7.66154e-22)
(0.819456 -0.437376 -8.0047e-22)
(0.820886 -0.434532 -1.70044e-22)
(0.819179 -0.427243 2.13419e-22)
(0.814014 -0.417784 1.22146e-22)
(0.804803 -0.4094 -2.27459e-22)
(0.792013 -0.399836 -4.6725e-23)
(0.775571 -0.391535 3.83551e-23)
(0.757902 -0.370969 -2.57473e-23)
(0.739559 -0.352285 3.12313e-24)
(0.722306 -0.296052 8.75876e-24)
(0.709251 -0.269781 3.88252e-24)
(0.693302 -0.152236 3.85998e-24)
(-0.0520772 0.169309 2.06636e-20)
(0.0145582 0.303877 -2.46929e-20)
(0.0808474 0.415149 3.07439e-21)
(0.143522 0.505429 8.74319e-21)
(0.197002 0.575311 -8.81293e-21)
(0.241162 0.627003 -1.38912e-20)
(0.281411 0.658789 9.12846e-21)
(0.327828 0.662205 1.44929e-20)
(0.389856 0.625584 -2.78582e-21)
(0.46991 0.542836 2.24255e-20)
(0.561654 0.418843 -3.08042e-20)
(0.654762 0.265934 -1.47523e-20)
(0.741279 0.0966918 3.8958e-20)
(0.817717 -0.0778114 -1.07249e-20)
(0.882194 -0.244166 9.72406e-21)
(0.931622 -0.386292 -3.97602e-20)
(0.963106 -0.491082 3.63843e-20)
(0.976579 -0.55468 -2.34194e-20)
(0.975158 -0.582817 3.20278e-21)
(0.963497 -0.58622 1.58666e-20)
(0.945992 -0.575565 -8.07298e-21)
(0.925743 -0.558834 6.24702e-22)
(0.904298 -0.540943 5.95546e-22)
(0.88213 -0.524195 -5.82332e-21)
(0.85931 -0.509114 1.64128e-21)
(0.835492 -0.496037 9.61387e-22)
(0.809382 -0.48642 6.88777e-22)
(0.779065 -0.481646 1.60487e-21)
(0.74377 -0.479482 -4.0106e-22)
(0.705632 -0.471728 2.02265e-21)
(0.669567 -0.446365 -1.24886e-21)
(0.641069 -0.393489 1.54113e-21)
(0.623838 -0.31052 -5.68056e-21)
(0.619099 -0.203005 6.00257e-21)
(0.626333 -0.081589 -5.48933e-21)
(0.643961 0.0416251 5.68948e-21)
(0.669411 0.156066 1.32256e-21)
(0.699563 0.254047 5.14785e-21)
(0.731314 0.331879 -6.4586e-21)
(0.761921 0.38956 -2.69348e-22)
(0.789417 0.429711 1.24321e-21)
(0.81277 0.456155 2.39644e-21)
(0.831785 0.472745 4.10987e-21)
(0.846745 0.482971 -6.5381e-23)
(0.857941 0.490285 -4.26197e-21)
(0.8654 0.498292 2.60317e-21)
(0.868971 0.509972 2.24283e-21)
(0.868667 0.525965 -2.29872e-21)
(0.864921 0.543156 -8.84123e-23)
(0.858529 0.554865 -1.01162e-22)
(0.850353 0.552885 3.22634e-21)
(0.841082 0.530166 8.65483e-22)
(0.831243 0.482681 -2.70372e-21)
(0.821407 0.409934 1.70438e-21)
(0.812278 0.314686 1.15716e-21)
(0.804664 0.202372 -7.37144e-22)
(0.799414 0.0806247 6.62411e-21)
(0.797134 -0.0417724 2.40529e-21)
(0.798034 -0.155651 -3.33851e-21)
(0.80186 -0.25345 -2.21234e-21)
(0.807897 -0.330164 4.07802e-21)
(0.814912 -0.384433 -1.85768e-22)
(0.821627 -0.417915 -5.44644e-23)
(0.826767 -0.434498 1.74458e-21)
(0.829631 -0.438672 2.80437e-22)
(0.829749 -0.434392 1.50372e-22)
(0.826933 -0.425506 6.3091e-22)
(0.820924 -0.414187 9.82116e-23)
(0.811109 -0.403922 4.20542e-22)
(0.797911 -0.392531 -9.56011e-24)
(0.78109 -0.383103 2.03388e-23)
(0.763205 -0.361965 -6.89757e-25)
(0.744573 -0.343741 -1.98006e-23)
(0.727711 -0.28841 -1.6475e-23)
(0.71464 -0.263321 -1.47631e-23)
(0.700443 -0.148384 -9.55104e-24)
(-0.0694843 0.120326 -1.31877e-20)
(-0.00941485 0.253997 1.66962e-20)
(0.0525682 0.368727 -9.71617e-21)
(0.115398 0.465305 -1.88467e-21)
(0.172509 0.541955 7.21226e-21)
(0.224635 0.598579 1.05894e-20)
(0.277375 0.63165 -1.15131e-20)
(0.339375 0.63253 -1.50474e-20)
(0.417134 0.591706 3.4102e-20)
(0.510035 0.506277 -3.71602e-20)
(0.61015 0.383162 1.34637e-21)
(0.707429 0.234439 4.60148e-20)
(0.795423 0.0708388 -3.97518e-22)
(0.871997 -0.098095 -3.57304e-20)
(0.935319 -0.259146 -7.88361e-21)
(0.981699 -0.395745 5.37104e-21)
(1.00818 -0.494823 1.58903e-20)
(1.01542 -0.553238 -3.11179e-20)
(1.0076 -0.577438 2.70107e-20)
(0.990166 -0.578373 -1.503e-20)
(0.967858 -0.566448 -1.50008e-21)
(0.943781 -0.549129 9.50601e-21)
(0.919345 -0.530854 5.34206e-23)
(0.894798 -0.513707 7.89211e-21)
(0.869988 -0.498115 -6.13684e-21)
(0.844578 -0.484088 -3.64104e-21)
(0.8175 -0.472615 7.88351e-21)
(0.786891 -0.465248 -4.47569e-21)
(0.751496 -0.461033 -8.63365e-22)
(0.712641 -0.453573 -4.45362e-21)
(0.674736 -0.4319 4.14305e-22)
(0.643497 -0.385605 -7.78335e-22)
(0.623303 -0.310509 -2.15394e-21)
(0.615921 -0.210549 2.99396e-21)
(0.621008 -0.0953797 3.29914e-22)
(0.637055 0.0233759 -7.28946e-22)
(0.661493 0.13537 3.27038e-21)
(0.691189 0.232808 -4.55466e-21)
(0.723066 0.311708 4.47165e-21)
(0.754335 0.371577 -6.33214e-21)
(0.782942 0.414488 3.74198e-21)
(0.80776 0.443779 -3.86331e-21)
(0.82849 0.462984 1.49435e-21)
(0.845309 0.47549 1.82145e-22)
(0.858429 0.484814 7.23677e-22)
(0.867857 0.494686 1.54724e-21)
(0.87349 0.508153 -3.52284e-21)
(0.875418 0.525861 -2.39475e-21)
(0.87411 0.544679 6.46006e-21)
(0.870314 0.557937 3.35342e-22)
(0.864764 0.557443 9.84406e-22)
(0.858 0.536103 -5.88878e-21)
(0.850407 0.489747 -4.70217e-22)
(0.842436 0.417685 -5.89758e-21)
(0.834666 0.322502 6.11419e-21)
(0.827818 0.209548 5.89065e-22)
(0.822636 0.0864851 -8.04865e-21)
(0.819761 -0.0377834 8.06118e-21)
(0.819548 -0.153767 -7.20878e-21)
(0.82184 -0.25355 1.17179e-21)
(0.826099 -0.331762 2.69273e-22)
(0.831257 -0.386795 -2.92513e-21)
(0.836157 -0.420264 4.54052e-21)
(0.839595 -0.436176 -7.72246e-23)
(0.840891 -0.439282 -6.3442e-22)
(0.839606 -0.433678 -8.67413e-22)
(0.835605 -0.423328 -1.53015e-22)
(0.828705 -0.410283 -3.50523e-23)
(0.818272 -0.398254 -4.3657e-23)
(0.804694 -0.385093 -3.3621e-23)
(0.787539 -0.374579 -9.39793e-23)
(0.769475 -0.352896 1.16629e-23)
(0.750553 -0.335239 1.70605e-23)
(0.734014 -0.280942 -2.27299e-24)
(0.720877 -0.257197 2.98448e-23)
(0.708227 -0.14504 4.41727e-24)
(-0.0649337 0.0765686 1.33554e-20)
(-0.0152512 0.204727 -1.2937e-20)
(0.0399746 0.321532 1.10952e-20)
(0.101213 0.422435 -1.24882e-20)
(0.161312 0.50387 7.21357e-21)
(0.221227 0.56378 1.30073e-20)
(0.285871 0.597251 -2.12601e-20)
(0.361835 0.59598 3.16448e-20)
(0.452724 0.552621 -2.76421e-20)
(0.555472 0.466875 -1.95196e-20)
(0.661231 0.346934 6.43371e-22)
(0.760728 0.204061 4.38656e-20)
(0.849165 0.0470429 -4.90932e-20)
(0.925455 -0.115653 4.86099e-20)
(0.987396 -0.270831 -3.17272e-21)
(1.03048 -0.401429 5.26921e-21)
(1.05175 -0.494621 -1.68762e-20)
(1.05275 -0.548093 9.49364e-21)
(1.03874 -0.568911 -2.50768e-21)
(1.01589 -0.568042 -7.04039e-21)
(0.989182 -0.555465 1.04805e-20)
(0.96164 -0.538066 -1.02825e-20)
(0.934507 -0.519794 7.58868e-21)
(0.907838 -0.502509 -1.79633e-21)
(0.881278 -0.486618 -5.83131e-21)
(0.854451 -0.471937 -2.80334e-21)
(0.826516 -0.459006 3.47059e-21)
(0.795772 -0.449297 -3.16434e-21)
(0.760631 -0.442873 -4.05912e-21)
(0.721603 -0.435157 9.57137e-21)
(0.682385 -0.41657 -4.57308e-21)
(0.648675 -0.376586 -3.51564e-21)
(0.625488 -0.309521 -3.62758e-21)
(0.615262 -0.217507 1.38345e-20)
(0.617953 -0.10898 -8.92218e-21)
(0.632169 0.00505588 -1.05737e-21)
(0.655339 0.114294 4.34844e-21)
(0.684312 0.210977 2.9544e-21)
(0.716059 0.290775 -4.92896e-21)
(0.747753 0.3527 1.05399e-21)
(0.777272 0.398275 -3.19855e-21)
(0.803398 0.430351 4.24814e-21)
(0.825724 0.45214 -2.27452e-21)
(0.844316 0.466912 3.56651e-23)
(0.859304 0.478223 2.99542e-21)
(0.870676 0.489894 -5.12408e-21)
(0.878378 0.505038 3.98966e-21)
(0.882571 0.524336 -5.63925e-21)
(0.883754 0.544696 6.99904e-21)
(0.882626 0.559516 -4.38053e-21)
(0.879802 0.56064 -3.81081e-21)
(0.875677 0.54092 -2.9527e-21)
(0.870496 0.496019 3.0475e-21)
(0.864572 0.425022 -3.07621e-21)
(0.858347 0.330314 2.54698e-21)
(0.852412 0.217141 8.23796e-21)
(0.847416 0.0930813 -3.91775e-21)
(0.844039 -0.032741 -7.9265e-22)
(0.842714 -0.150647 -2.27718e-21)
(0.843421 -0.252363 -5.27445e-21)
(0.845812 -0.332121 5.95244e-21)
(0.84899 -0.388031 -3.76808e-21)
(0.851941 -0.421626 -5.34843e-21)
(0.853551 -0.437001 1.63987e-21)
(0.853174 -0.439161 4.87656e-22)
(0.850401 -0.432354 -8.43845e-22)
(0.845141 -0.420685 1.37908e-22)
(0.837297 -0.406064 -1.50465e-22)
(0.826221 -0.392404 -4.49082e-22)
(0.812285 -0.377545 1.65229e-22)
(0.794836 -0.365987 -1.30702e-22)
(0.776627 -0.343775 5.64416e-24)
(0.757416 -0.326762 1.09522e-23)
(0.741127 -0.273613 3.62859e-23)
(0.727867 -0.251351 -7.85859e-25)
(0.716547 -0.14214 1.05879e-23)
(-0.0322031 0.0391909 -1.88772e-20)
(0.00270456 0.1591 -2.71668e-21)
(0.0489643 0.275169 1.09802e-20)
(0.105945 0.377647 -2.90192e-21)
(0.167357 0.46168 7.91694e-21)
(0.233578 0.523352 -7.75652e-21)
(0.30814 0.556702 -7.04701e-22)
(0.395294 0.554017 1.00975e-20)
(0.496002 0.509883 -3.09752e-21)
(0.605317 0.425981 -2.25355e-20)
(0.714013 0.311098 2.59227e-20)
(0.81395 0.175254 1.8071e-21)
(0.902077 0.0254037 -1.02731e-20)
(0.97782 -0.130577 9.37578e-22)
(1.03807 -0.279348 4.27581e-20)
(1.07749 -0.403462 -2.49725e-20)
(1.09333 -0.490631 -2.70687e-20)
(1.08815 -0.539453 2.81118e-21)
(1.06826 -0.557472 2.67744e-20)
(1.04045 -0.555461 -1.45564e-20)
(1.00981 -0.542819 1.02069e-20)
(0.979208 -0.525808 -1.22244e-20)
(0.949687 -0.507896 1.33312e-21)
(0.921149 -0.490727 1.10097e-20)
(0.893071 -0.474726 -6.21064e-21)
(0.865008 -0.459648 -4.56007e-22)
(0.836312 -0.445653 7.41118e-22)
(0.805533 -0.433952 2.39793e-21)
(0.770911 -0.425289 -5.93559e-21)
(0.73221 -0.416795 -3.89115e-22)
(0.692258 -0.400556 -9.46945e-22)
(0.656454 -0.366382 4.77543e-21)
(0.630312 -0.307324 5.92758e-21)
(0.61705 -0.223588 -2.43244e-21)
(0.6171 -0.122102 4.30668e-21)
(0.629186 -0.0131398 -8.0091e-21)
(0.650801 0.093021 2.70823e-21)
(0.678823 0.188707 -5.78304e-21)
(0.710194 0.269199 6.44943e-21)
(0.742087 0.333015 -2.17111e-22)
(0.772327 0.38113 -3.40304e-21)
(0.799606 0.41591 1.11075e-21)
(0.823406 0.440238 -7.14966e-22)
(0.843677 0.457251 1.89765e-21)
(0.860468 0.470516 1.50762e-21)
(0.873746 0.483913 -4.93237e-21)
(0.883504 0.500614 4.27585e-21)
(0.889969 0.521365 -4.87042e-22)
(0.893667 0.54317 2.93687e-22)
(0.895252 0.559542 -3.33068e-21)
(0.895227 0.562394 -2.88969e-21)
(0.89385 0.544512 4.87477e-21)
(0.891224 0.501376 4.73937e-21)
(0.887518 0.431821 -4.80843e-21)
(0.883017 0.33801 3.85411e-21)
(0.878154 0.225045 -9.3109e-22)
(0.873481 0.10044 -1.41694e-20)
(0.869696 -0.0266401 9.90126e-21)
(0.867299 -0.146276 5.51319e-21)
(0.866414 -0.249851 -1.51182e-21)
(0.866883 -0.331186 1.96773e-21)
(0.867989 -0.388075 4.28039e-21)
(0.868877 -0.421939 -2.18239e-21)
(0.868548 -0.436921 -2.94346e-21)
(0.866403 -0.438268 2.49284e-21)
(0.862065 -0.430386 -8.15505e-24)
(0.855476 -0.41755 1.0049e-21)
(0.846635 -0.401514 -4.57227e-22)
(0.834885 -0.386376 4.20039e-22)
(0.820601 -0.369907 2.19421e-22)
(0.802892 -0.35735 -5.95622e-23)
(0.784574 -0.334612 8.1934e-24)
(0.765078 -0.318292 -2.97405e-23)
(0.748968 -0.266387 -5.66317e-24)
(0.735522 -0.245723 -6.72394e-23)
(0.725303 -0.139617 9.21918e-24)
(0.0311663 0.00899541 -1.25818e-21)
(0.0488865 0.120133 -3.96231e-21)
(0.0835422 0.231554 2.98885e-21)
(0.133439 0.332539 3.72431e-21)
(0.193552 0.416827 -3.72729e-21)
(0.263347 0.478783 -3.914e-21)
(0.344653 0.511678 -1.74532e-20)
(0.439366 0.508411 3.62097e-20)
(0.546152 0.465129 -6.11037e-21)
(0.658665 0.384884 -2.0822e-20)
(0.767747 0.276451 9.63299e-21)
(0.86667 0.148373 -2.34897e-22)
(0.953934 0.00600936 -1.73405e-20)
(1.02884 -0.142946 1.87685e-20)
(1.08697 -0.284804 4.15674e-22)
(1.12227 -0.401975 -1.67512e-20)
(1.13247 -0.483044 2.33223e-20)
(1.12125 -0.52757 -1.77916e-20)
(1.0959 -0.543398 -1.31443e-20)
(1.06367 -0.54089 2.17341e-20)
(1.02962 -0.528727 -5.86298e-21)
(0.996382 -0.512519 8.29412e-21)
(0.964791 -0.49529 -1.36276e-20)
(0.934629 -0.478476 7.34118e-21)
(0.905257 -0.462541 2.22305e-21)
(0.876142 -0.44728 -4.88944e-21)
(0.846774 -0.432582 1.87716e-21)
(0.816005 -0.4193 -6.49665e-22)
(0.782077 -0.408515 -3.93243e-21)
(0.744127 -0.398815 9.38536e-24)
(0.704034 -0.384114 3.09293e-21)
(0.666627 -0.355032 -1.15919e-21)
(0.63768 -0.303726 -6.10179e-22)
(0.621229 -0.228478 -2.09381e-21)
(0.618357 -0.13447 9.8377e-21)
(0.627999 -0.0310247 -6.28405e-21)
(0.647783 0.071749 4.58899e-22)
(0.67461 0.166155 4.86771e-21)
(0.705371 0.247103 -2.74326e-21)
(0.737248 0.312612 3.21414e-21)
(0.768022 0.363117 -4.06747e-21)
(0.796301 0.4005 1.3424e-21)
(0.82145 0.42731 -2.29927e-21)
(0.843304 0.446532 2.57381e-21)
(0.861823 0.461709 1.23769e-21)
(0.876956 0.476753 2.61397e-22)
(0.888736 0.494886 -3.6191e-21)
(0.897454 0.516946 6.86033e-22)
(0.90366 0.540085 -2.36407e-21)
(0.907968 0.557981 1.24684e-21)
(0.910784 0.562638 5.8764e-21)
(0.912236 0.546784 -6.55331e-21)
(0.912287 0.505703 7.68254e-21)
(0.910947 0.437958 -7.04433e-21)
(0.908339 0.345481 -3.51355e-21)
(0.904717 0.233163 7.48599e-21)
(0.90051 0.108463 1.43596e-20)
(0.896425 -0.0195354 3.78979e-21)
(0.89304 -0.140667 -1.63016e-20)
(0.890594 -0.245997 3.12078e-21)
(0.889125 -0.328917 4.32779e-22)
(0.888104 -0.386877 -1.90227e-21)
(0.886843 -0.421148 1.07594e-23)
(0.884484 -0.435888 5.75791e-21)
(0.880487 -0.436567 -6.14466e-22)
(0.874519 -0.427745 -1.75737e-21)
(0.866537 -0.413898 1.33991e-21)
(0.856646 -0.396617 -9.74692e-22)
(0.844186 -0.380169 -5.04552e-22)
(0.829557 -0.362195 1.58296e-22)
(0.811616 -0.348688 1.37832e-22)
(0.793227 -0.325422 2.52093e-23)
(0.773453 -0.309816 -1.74281e-23)
(0.757457 -0.259227 1.58303e-23)
(0.743763 -0.24025 6.60339e-24)
(0.734412 -0.1374 -2.2709e-23)
(0.125049 -0.0112801 -9.73197e-22)
(0.124026 0.0891946 6.42342e-22)
(0.144856 0.192709 -3.12873e-21)
(0.185103 0.289199 2.62847e-21)
(0.240867 0.371319 6.83999e-22)
(0.310758 0.432088 -7.74568e-21)
(0.394927 0.464207 3.89146e-21)
(0.493131 0.461073 -4.33202e-21)
(0.602124 0.419978 1.47342e-20)
(0.714594 0.344743 -4.74993e-20)
(0.821855 0.243633 1.38105e-20)
(0.918665 0.123585 3.34588e-22)
(1.00468 -0.0110519 1.51618e-20)
(1.07837 -0.152847 3.826e-20)
(1.13374 -0.287274 -2.23906e-20)
(1.16438 -0.397093 -6.81109e-21)
(1.16872 -0.472078 -4.42767e-21)
(1.15171 -0.512734 3.4617e-20)
(1.12145 -0.526994 -1.12077e-21)
(1.08541 -0.524601 -6.30431e-21)
(1.04851 -0.513409 -1.04188e-20)
(1.01307 -0.498367 9.10274e-21)
(0.979732 -0.482099 -1.34242e-20)
(0.948184 -0.465864 7.95742e-21)
(0.917725 -0.450159 -5.78102e-21)
(0.887742 -0.43489 4.48533e-21)
(0.857796 -0.419804 -3.01791e-21)
(0.827044 -0.405364 3.04386e-21)
(0.793885 -0.392701 -3.72476e-21)
(0.757012 -0.381522 1.68031e-21)
(0.71735 -0.367562 -2.88855e-21)
(0.678918 -0.342673 4.06781e-21)
(0.647463 -0.298614 -4.21452e-21)
(0.627742 -0.23189 2.00815e-21)
(0.621673 -0.145758 1.4155e-21)
(0.628545 -0.0483487 9.00401e-22)
(0.646189 0.0506814 -4.40619e-21)
(0.671574 0.143491 4.49983e-22)
(0.701495 0.224613 4.66176e-21)
(0.733147 0.291586 -5.34398e-21)
(0.764275 0.344306 2.40455e-21)
(0.7934 0.384172 -3.04759e-21)
(0.819773 0.413394 4.02306e-21)
(0.843104 0.434785 -5.47342e-21)
(0.86327 0.45183 1.91941e-21)
(0.880193 0.468439 2.71431e-21)
(0.893944 0.48788 -4.39432e-21)
(0.904868 0.511101 6.46334e-21)
(0.913544 0.535452 -3.77021e-21)
(0.920553 0.554818 -2.10219e-21)
(0.926218 0.561328 -4.8208e-21)
(0.930548 0.547661 6.72941e-21)
(0.933367 0.508894 -5.59303e-21)
(0.934522 0.443315 -4.13551e-21)
(0.933953 0.352598 1.58444e-21)
(0.931734 0.241394 6.93267e-21)
(0.928149 0.117048 5.5751e-21)
(0.9239 -0.011478 -1.29424e-20)
(0.919639 -0.133854 -6.37957e-21)
(0.915705 -0.240811 1.45331e-20)
(0.912328 -0.325301 -2.06163e-21)
(0.909163 -0.384403 -1.92428e-21)
(0.905698 -0.419214 3.11026e-21)
(0.901238 -0.433864 -6.47157e-22)
(0.895323 -0.434026 -1.98401e-21)
(0.887671 -0.424406 9.96255e-22)
(0.878246 -0.409705 6.43405e-22)
(0.867258 -0.391354 -9.0218e-22)
(0.854045 -0.373775 -1.95631e-22)
(0.839067 -0.354419 2.67783e-22)
(0.820916 -0.34002 -3.06521e-23)
(0.802494 -0.316218 -1.07168e-23)
(0.78246 -0.301322 -2.62283e-23)
(0.766519 -0.252097 -2.29841e-23)
(0.752521 -0.234867 4.70839e-23)
(0.7438 -0.135417 -8.24648e-24)
(0.224723 0.0670938 3.73222e-21)
(0.23068 0.160277 3.43189e-22)
(0.25936 0.249615 1.91656e-21)
(0.307915 0.327296 -4.5973e-21)
(0.374349 0.385455 5.80551e-22)
(0.457402 0.416395 -1.04221e-20)
(0.555072 0.413878 -5.30925e-21)
(0.662624 0.375912 1.21576e-20)
(0.772217 0.306531 1.37917e-20)
(0.875958 0.213078 4.71859e-20)
(0.970039 0.100981 -1.14919e-19)
(1.05436 -0.0259928 8.58056e-20)
(1.12613 -0.160355 -4.36654e-20)
(1.17798 -0.286782 2.12224e-21)
(1.20331 -0.388935 1.83585e-20)
(1.2017 -0.457982 3.89304e-20)
(1.17926 -0.495273 -8.12284e-20)
(1.14473 -0.508593 5.02932e-20)
(1.10557 -0.50688 -1.35975e-20)
(1.06638 -0.497085 -1.12147e-21)
(1.02919 -0.483511 1.13533e-20)
(0.994432 -0.468439 -8.82325e-22)
(0.961726 -0.452982 -9.60459e-21)
(0.93037 -0.437667 3.43476e-21)
(0.899695 -0.422539 -1.55213e-22)
(0.869277 -0.407321 -4.10822e-22)
(0.83853 -0.392132 4.3031e-23)
(0.806127 -0.377926 -3.04823e-22)
(0.770534 -0.36516 -2.73517e-23)
(0.731807 -0.351238 2.08803e-21)
(0.69299 -0.329543 -1.18142e-21)
(0.659474 -0.291973 9.15126e-23)
(0.636543 -0.23359 -1.19215e-21)
(0.627007 -0.155624 7.80426e-22)
(0.630779 -0.0647502 -3.37946e-21)
(0.645988 0.0300799 4.5932e-21)
(0.669638 0.120899 -4.57475e-22)
(0.698478 0.201866 -8.62315e-22)
(0.729702 0.270037 9.38351e-23)
(0.761006 0.324771 1.72763e-22)
(0.790825 0.366983 1.57785e-21)
(0.818291 0.398538 -1.21248e-21)
(0.842992 0.422052 -6.109e-23)
(0.864714 0.440917 2.08311e-21)
(0.883351 0.459013 -4.60317e-23)
(0.899003 0.479638 -3.57531e-21)
(0.912063 0.503875 -1.69475e-21)
(0.92314 0.529304 2.61354e-21)
(0.932793 0.550067 5.67108e-21)
(0.941278 0.558445 -3.13139e-21)
(0.9485 0.547086 -2.6361e-21)
(0.954145 0.510861 4.47921e-21)