/*--------------------------------*- C++ -*----------------------------------*\
  =========                 |
  \\      /  F ield         | OpenFOAM: The Open Source CFD Toolbox
   \\    /   O peration     | Website:  https://openfoam.org
    \\  /    A nd           | Version:  7
     \\/     M anipulation  |
\*---------------------------------------------------------------------------*/
FoamFile
{
    version     2.0;
    format      ascii;
    class       volScalarField;
    location    "39.999";
    object      p;
}
// * * * * * * * * * * * * * * * * * * * * * * * * * * * * * * * * * * * * * //

dimensions      [0 2 -2 0 0 0 0];

internalField   nonuniform List<scalar> 
3700
(
-0.248365
-0.251326
-0.252294
-0.253339
-0.254301
-0.255244
-0.256152
-0.256979
-0.257677
-0.258197
-0.25849
-0.258521
-0.258266
-0.257724
-0.256952
-0.248625
-0.25154
-0.252492
-0.253524
-0.254475
-0.255411
-0.256313
-0.257137
-0.257833
-0.258352
-0.258644
-0.258668
-0.258397
-0.257833
-0.256954
-0.249138
-0.251962
-0.252884
-0.253887
-0.254817
-0.255737
-0.256627
-0.257443
-0.258136
-0.258652
-0.258941
-0.258954
-0.258646
-0.258055
-0.256933
-0.249891
-0.252581
-0.253457
-0.254416
-0.255313
-0.256206
-0.257078
-0.257881
-0.258566
-0.259077
-0.259359
-0.259361
-0.258986
-0.258401
-0.256839
-0.250864
-0.253382
-0.254196
-0.255095
-0.255943
-0.256799
-0.257641
-0.258424
-0.259095
-0.259597
-0.259869
-0.259866
-0.259372
-0.258898
-0.256597
-0.252034
-0.254347
-0.255082
-0.255902
-0.256685
-0.257488
-0.258289
-0.25904
-0.25969
-0.260176
-0.26043
-0.260444
-0.259731
-0.259588
-0.256099
-0.253373
-0.255456
-0.256093
-0.256813
-0.257512
-0.258244
-0.258986
-0.259692
-0.260309
-0.260772
-0.260988
-0.261076
-0.259947
-0.260517
-0.255251
-0.254856
-0.256687
-0.257207
-0.257804
-0.258395
-0.259033
-0.259699
-0.260341
-0.260909
-0.261338
-0.261469
-0.261748
-0.259923
-0.261603
-0.254409
-0.256456
-0.25802
-0.258402
-0.25885
-0.259306
-0.259826
-0.260389
-0.260947
-0.261445
-0.261831
-0.261797
-0.262382
-0.259916
-0.262281
-0.253608
-0.258149
-0.259438
-0.259658
-0.259929
-0.260219
-0.260591
-0.261026
-0.261473
-0.261874
-0.262209
-0.262059
-0.262746
-0.259676
-0.262993
-0.252496
-0.259917
-0.260926
-0.26096
-0.261022
-0.261113
-0.261304
-0.261581
-0.261891
-0.262173
-0.262418
-0.262094
-0.262991
-0.25904
-0.263639
-0.251145
-0.261747
-0.262476
-0.262296
-0.262115
-0.261972
-0.261948
-0.262035
-0.26218
-0.262311
-0.262454
-0.261881
-0.263052
-0.258069
-0.263957
-0.249795
-0.263637
-0.264083
-0.263662
-0.263203
-0.262788
-0.262514
-0.262379
-0.262331
-0.262282
-0.262303
-0.261443
-0.26281
-0.256925
-0.263586
-0.24874
-0.265591
-0.265751
-0.265058
-0.264285
-0.263561
-0.263003
-0.262616
-0.262349
-0.262093
-0.261955
-0.260821
-0.262136
-0.255792
-0.262166
-0.248024
-0.267624
-0.267493
-0.266492
-0.26537
-0.264302
-0.263428
-0.262761
-0.262249
-0.261764
-0.261409
-0.260045
-0.260931
-0.254737
-0.259578
-0.247234
-0.269762
-0.269325
-0.267982
-0.266476
-0.265031
-0.263812
-0.262839
-0.262056
-0.261317
-0.26067
-0.259105
-0.259178
-0.253582
-0.256061
-0.245743
-0.272038
-0.27126
-0.269562
-0.267629
-0.265777
-0.264188
-0.262886
-0.261803
-0.260773
-0.259743
-0.257931
-0.256924
-0.251971
-0.251966
-0.243172
-0.274499
-0.273344
-0.271253
-0.268861
-0.266577
-0.264596
-0.262942
-0.26152
-0.260138
-0.258623
-0.256426
-0.254212
-0.249589
-0.247384
-0.239516
-0.277201
-0.275607
-0.27309
-0.270213
-0.267475
-0.265082
-0.263044
-0.26123
-0.259404
-0.25728
-0.254499
-0.251048
-0.246302
-0.242088
-0.234909
-0.280201
-0.278091
-0.275118
-0.271729
-0.268517
-0.265688
-0.263224
-0.260941
-0.258548
-0.25567
-0.252092
-0.247442
-0.242156
-0.235962
-0.229465
-0.28354
-0.280854
-0.277381
-0.273456
-0.26975
-0.266452
-0.2635
-0.260641
-0.257534
-0.253747
-0.249188
-0.243419
-0.237303
-0.229637
-0.223138
-0.287285
-0.283935
-0.279927
-0.275439
-0.271214
-0.2674
-0.263872
-0.260307
-0.256316
-0.251477
-0.245814
-0.238992
-0.231899
-0.223584
-0.216194
-0.291498
-0.287379
-0.282802
-0.277726
-0.272943
-0.268544
-0.264329
-0.259899
-0.254849
-0.248838
-0.242017
-0.234192
-0.226278
-0.217384
-0.209436
-0.296235
-0.29123
-0.286052
-0.280355
-0.274962
-0.269887
-0.264843
-0.259369
-0.253092
-0.24583
-0.237847
-0.229118
-0.220472
-0.21116
-0.202982
-0.301543
-0.295533
-0.289724
-0.283361
-0.277282
-0.271416
-0.265371
-0.258657
-0.251016
-0.242462
-0.233364
-0.223816
-0.214558
-0.204916
-0.196554
-0.307464
-0.30033
-0.293858
-0.286768
-0.279906
-0.273104
-0.265849
-0.257703
-0.248599
-0.238758
-0.228613
-0.218337
-0.208545
-0.198619
-0.190147
-0.314032
-0.305658
-0.298489
-0.29059
-0.282829
-0.274901
-0.2662
-0.256452
-0.245832
-0.23474
-0.223627
-0.212698
-0.202429
-0.192265
-0.183652
-0.32127
-0.31155
-0.303641
-0.294831
-0.286024
-0.276726
-0.266336
-0.254857
-0.242714
-0.230425
-0.218422
-0.206902
-0.196198
-0.185815
-0.177056
-0.329189
-0.31803
-0.309321
-0.299485
-0.289435
-0.278474
-0.266174
-0.252884
-0.239243
-0.225824
-0.213002
-0.200939
-0.189827
-0.179249
-0.170322
-0.337783
-0.325107
-0.31552
-0.304526
-0.292965
-0.280027
-0.265635
-0.250502
-0.235413
-0.220933
-0.207354
-0.194787
-0.183294
-0.172535
-0.163428
-0.347031
-0.332767
-0.322212
-0.309894
-0.296477
-0.28126
-0.264653
-0.247684
-0.231212
-0.215739
-0.20146
-0.188421
-0.176571
-0.165648
-0.156353
-0.356882
-0.340971
-0.329347
-0.315479
-0.299813
-0.282058
-0.263166
-0.244402
-0.22662
-0.21022
-0.195293
-0.181812
-0.169632
-0.158563
-0.149076
-0.367258
-0.349645
-0.336849
-0.321119
-0.302801
-0.282308
-0.261116
-0.240623
-0.221611
-0.204348
-0.188822
-0.174928
-0.162451
-0.151256
-0.141579
-0.378047
-0.358684
-0.344599
-0.326605
-0.305266
-0.281909
-0.258446
-0.23631
-0.216149
-0.198088
-0.182012
-0.16774
-0.155001
-0.143701
-0.133846
-0.389094
-0.367951
-0.352423
-0.331703
-0.307042
-0.280764
-0.255101
-0.23142
-0.210196
-0.191405
-0.174829
-0.160218
-0.147258
-0.135877
-0.12586
-0.400201
-0.377278
-0.360086
-0.33617
-0.307966
-0.27878
-0.251022
-0.225906
-0.203709
-0.184258
-0.167239
-0.152333
-0.139198
-0.12776
-0.117605
-0.411128
-0.386465
-0.367301
-0.339762
-0.307891
-0.27587
-0.246148
-0.219718
-0.196646
-0.176609
-0.159208
-0.14406
-0.1308
-0.119331
-0.109071
-0.421596
-0.395277
-0.373746
-0.342246
-0.306676
-0.271949
-0.240418
-0.212807
-0.188961
-0.168422
-0.150707
-0.135376
-0.122046
-0.110577
-0.100257
-0.431296
-0.403443
-0.379087
-0.343398
-0.304193
-0.266937
-0.233773
-0.205122
-0.180613
-0.15966
-0.141707
-0.12626
-0.11292
-0.101493
-0.0911825
-0.4399
-0.410655
-0.383001
-0.343015
-0.300327
-0.260759
-0.226154
-0.196614
-0.171561
-0.150292
-0.132182
-0.116692
-0.103406
-0.0920818
-0.0818776
-0.447074
-0.416578
-0.385187
-0.340912
-0.294974
-0.253345
-0.217507
-0.18724
-0.16177
-0.14029
-0.122111
-0.106653
-0.0934877
-0.0823398
-0.0723478
-0.452484
-0.42086
-0.385382
-0.336933
-0.288041
-0.244633
-0.207784
-0.17696
-0.151209
-0.129631
-0.111476
-0.0961258
-0.0831486
-0.072245
-0.062539
-0.455808
-0.423147
-0.383359
-0.330949
-0.279453
-0.23457
-0.196942
-0.165742
-0.139856
-0.118297
-0.100264
-0.085103
-0.0723822
-0.0617661
-0.0523251
-0.456744
-0.423103
-0.378933
-0.322861
-0.269147
-0.223111
-0.18495
-0.153562
-0.127692
-0.106277
-0.0884663
-0.0735819
-0.0611984
-0.0508976
-0.0415448
-0.455017
-0.420432
-0.371943
-0.312595
-0.25708
-0.210227
-0.171784
-0.140401
-0.114703
-0.0935616
-0.0760804
-0.0615647
-0.0496135
-0.0396722
-0.0302268
-0.450385
-0.414889
-0.362263
-0.300102
-0.243224
-0.195899
-0.157426
-0.126245
-0.100883
-0.0801517
-0.0631198
-0.0490683
-0.0376376
-0.0280469
-0.0188895
-0.442644
-0.406274
-0.349803
-0.285356
-0.227571
-0.180115
-0.141863
-0.111093
-0.0862439
-0.0660657
-0.0496114
-0.0361391
-0.0252712
-0.0160173
-0.00744883
-0.43163
-0.394446
-0.334515
-0.268355
-0.210122
-0.162865
-0.125096
-0.0949764
-0.07082
-0.0513482
-0.0355562
-0.0227673
-0.0125114
-0.00367945
0.00418252
-0.417224
-0.379315
-0.316391
-0.249112
-0.190875
-0.144148
-0.107183
-0.0779622
-0.0546386
-0.0359825
-0.0209817
-0.00896827
0.000612739
0.00892469
0.0160262
-0.39935
-0.360848
-0.295457
-0.227662
-0.169837
-0.124039
-0.0882549
-0.0600145
-0.0377041
-0.0200072
-0.00591821
0.00522998
0.0140647
0.0217722
0.0280667
-0.37798
-0.339061
-0.271785
-0.20407
-0.147079
-0.102758
-0.0681752
-0.0411848
-0.0200585
-0.00346291
0.00959791
0.0197916
0.0278068
0.0348376
0.0402734
-0.353133
-0.314023
-0.245487
-0.178449
-0.122855
-0.0801042
-0.0470642
-0.0215306
-0.00175353
0.0136041
0.0255248
0.0346757
0.0417996
0.0480845
0.0526015
-0.324875
-0.285863
-0.216685
-0.150889
-0.0971336
-0.05624
-0.0249988
-0.00111917
0.0171519
0.0311417
0.0418149
0.0498382
0.0560019
0.061469
0.0649997
-0.293334
-0.254816
-0.185405
-0.121498
-0.070005
-0.0312764
-0.00206619
0.0199755
0.0365923
0.0490917
0.0584153
0.0652314
0.0703716
0.0749476
0.0774295
-0.258691
-0.221187
-0.151575
-0.090463
-0.0416095
-0.00532987
0.0216383
0.0416711
0.0564955
0.0673893
0.0752667
0.0808043
0.0848685
0.0884853
0.0898679
-0.221144
-0.185025
-0.115698
-0.0578528
-0.0120897
0.0214755
0.0460094
0.0638779
0.076783
0.085964
0.0923061
0.0965047
0.0994517
0.102032
0.102221
-0.180893
-0.145838
-0.0787264
-0.0239823
0.0184011
0.0490085
0.0709339
0.0864991
0.0973709
0.104742
0.109471
0.112285
0.114064
0.115447
0.114189
-0.138207
-0.104443
-0.040453
0.010905
0.0496896
0.0771304
0.0962913
0.109432
0.11817
0.123649
0.126709
0.12811
0.128624
0.128457
0.125357
-0.0932992
-0.0613752
-0.000979383
0.0466035
0.0815909
0.105693
0.121955
0.132566
0.139087
0.14261
0.14397
0.143942
0.143041
0.140875
0.135715
-0.0466022
-0.0169601
0.0394626
0.0829087
0.113917
0.134538
0.147791
0.155788
0.160025
0.161546
0.161193
0.159708
0.157238
0.152937
0.146314
0.00149062
0.0284865
0.0805928
0.119602
0.146475
0.163504
0.173662
0.178979
0.180883
0.180376
0.178294
0.175279
0.171104
0.164884
0.159818
0.0505849
0.074623
0.122115
0.15645
0.179067
0.192423
0.199425
0.202018
0.20156
0.199012
0.195176
0.190543
0.184674
0.177226
0.172928
0.100272
0.121094
0.163724
0.193214
0.211492
0.221123
0.224935
0.224782
0.221952
0.217362
0.211756
0.205483
0.198082
0.189729
0.185174
0.150139
0.167532
0.205116
0.229647
0.243544
0.249431
0.250045
0.247146
0.241952
0.235328
0.227946
0.220053
0.211261
0.202081
0.196815
0.199772
0.213563
0.245983
0.265503
0.275019
0.277174
0.274608
0.268985
0.261452
0.252816
0.243675
0.234209
0.224114
0.214067
0.207869
0.248753
0.258817
0.286023
0.300534
0.30571
0.304179
0.298478
0.290174
0.280345
0.269733
0.258868
0.247885
0.236551
0.225606
0.218387
0.296669
0.30293
0.324936
0.334499
0.335415
0.330276
0.321511
0.310593
0.298526
0.28599
0.273451
0.26101
0.248486
0.236627
0.228351
0.343112
0.345551
0.362434
0.36716
0.363937
0.355298
0.343566
0.330119
0.315891
0.301499
0.287348
0.273514
0.259851
0.247084
0.237741
0.387686
0.386339
0.398236
0.398289
0.391086
0.379086
0.364508
0.348639
0.332343
0.316175
0.300487
0.285329
0.270583
0.256929
0.246527
0.430012
0.424971
0.432075
0.427667
0.416676
0.401484
0.384205
0.366041
0.347787
0.329939
0.312798
0.296394
0.280628
0.266118
0.254681
0.469731
0.461139
0.4637
0.455085
0.440537
0.422347
0.402536
0.382221
0.362132
0.342713
0.324215
0.306649
0.289934
0.274612
0.262174
0.506505
0.494556
0.492875
0.48035
0.462504
0.441539
0.419384
0.39708
0.375297
0.354425
0.334675
0.316041
0.298453
0.282372
0.268981
0.540021
0.524959
0.519382
0.503283
0.482428
0.458932
0.434642
0.410527
0.387203
0.36501
0.344122
0.324521
0.306142
0.289361
0.27508
0.569996
0.552107
0.543024
0.52372
0.500172
0.474413
0.448214
0.422481
0.39778
0.374408
0.352504
0.332042
0.312962
0.295548
0.280452
0.596175
0.575785
0.563625
0.541516
0.515615
0.487879
0.460013
0.432868
0.406966
0.382566
0.359777
0.338566
0.318876
0.300905
0.285081
0.618337
0.595809
0.581032
0.556544
0.52865
0.49924
0.469964
0.441624
0.414706
0.389436
0.365899
0.344057
0.323854
0.305407
0.288955
0.636295
0.612019
0.595116
0.568698
0.539187
0.508422
0.478002
0.448695
0.420954
0.394981
0.370838
0.348486
0.327869
0.309034
0.292064
0.649898
0.624289
0.605771
0.57789
0.547155
0.515362
0.484077
0.454037
0.425673
0.399167
0.374567
0.351829
0.330899
0.311768
0.294401
0.659031
0.632523
0.612919
0.584054
0.552497
0.520014
0.488148
0.457617
0.428835
0.401971
0.377064
0.354068
0.332928
0.313598
0.295962
0.663617
0.636657
0.616506
0.587147
0.555178
0.522348
0.490191
0.459412
0.43042
0.403377
0.378315
0.35519
0.333946
0.314516
0.296743
-0.256477
-0.255233
-0.254015
-0.256647
-0.255339
-0.254126
-0.256977
-0.255538
-0.254337
-0.257451
-0.255801
-0.254625
-0.258055
-0.256094
-0.25496
-0.258821
-0.256365
-0.255309
-0.253735
-0.259727
-0.256515
-0.255642
-0.254061
-0.260201
-0.256904
-0.255837
-0.254338
-0.260407
-0.257269
-0.255922
-0.254506
-0.260354
-0.257541
-0.255873
-0.254526
-0.259841
-0.257648
-0.255661
-0.254351
-0.25871
-0.257413
-0.255239
-0.253935
-0.252525
-0.256964
-0.256592
-0.254509
-0.253222
-0.251912
-0.254735
-0.255014
-0.253325
-0.252128
-0.250926
-0.252086
-0.252665
-0.251555
-0.250545
-0.249485
-0.248878
-0.249595
-0.249129
-0.248379
-0.247519
-0.246482
-0.244937
-0.245933
-0.246052
-0.245581
-0.244988
-0.244229
-0.240476
-0.241864
-0.242407
-0.242211
-0.24194
-0.241493
-0.23583
-0.23757
-0.238309
-0.238385
-0.238475
-0.238385
-0.231258
-0.233071
-0.23352
-0.233666
-0.234023
-0.234259
-0.234146
-0.223997
-0.227321
-0.22755
-0.227683
-0.228234
-0.228816
-0.22909
-0.21102
-0.216703
-0.217586
-0.21766
-0.218296
-0.219261
-0.220022
-0.198763
-0.205702
-0.207388
-0.207779
-0.208659
-0.209982
-0.211179
-0.187419
-0.194869
-0.19737
-0.198311
-0.199534
-0.201168
-0.202712
-0.176735
-0.184481
-0.187698
-0.18925
-0.190863
-0.192781
-0.19461
-0.166829
-0.174708
-0.178499
-0.180621
-0.182629
-0.184819
-0.186898
-0.157726
-0.165602
-0.169837
-0.17246
-0.17484
-0.177291
-0.179597
-0.149372
-0.157169
-0.16174
-0.164785
-0.167503
-0.170198
-0.17271
-0.141729
-0.149395
-0.15421
-0.157605
-0.160617
-0.163532
-0.166231
-0.134752
-0.142249
-0.147238
-0.150915
-0.154178
-0.157287
-0.160151
-0.128387
-0.135697
-0.140801
-0.144703
-0.148175
-0.15145
-0.154459
-0.122587
-0.129699
-0.134874
-0.138953
-0.142597
-0.146012
-0.149145
-0.117309
-0.124219
-0.129431
-0.133646
-0.137429
-0.14096
-0.144198
-0.112512
-0.119222
-0.124444
-0.128762
-0.132656
-0.136282
-0.139607
-0.108159
-0.114673
-0.119886
-0.124281
-0.128261
-0.131963
-0.135361
-0.104216
-0.110541
-0.115732
-0.120182
-0.124229
-0.127991
-0.131448
-0.100653
-0.1068
-0.111958
-0.116445
-0.120543
-0.124352
-0.127855
-0.0974425
-0.103422
-0.108541
-0.113052
-0.117188
-0.121032
-0.124572
-0.0945611
-0.100385
-0.10546
-0.109986
-0.114148
-0.118018
-0.121587
-0.0919869
-0.0976676
-0.102698
-0.107229
-0.11141
-0.115299
-0.11889
-0.0897009
-0.0952511
-0.100237
-0.104769
-0.108962
-0.112864
-0.11647
-0.0876865
-0.0931194
-0.0980624
-0.10259
-0.106791
-0.110701
-0.114319
-0.0859291
-0.0912579
-0.0961606
-0.100682
-0.104886
-0.108802
-0.112429
-0.0844163
-0.0896542
-0.0945203
-0.0990349
-0.10324
-0.107158
-0.110791
-0.0831373
-0.0882976
-0.0931315
-0.0976385
-0.101843
-0.105763
-0.109399
-0.0820831
-0.0871791
-0.0919859
-0.0964859
-0.10069
-0.104609
-0.108247
-0.0812462
-0.0862914
-0.0910766
-0.0955707
-0.0997732
-0.103692
-0.107331
-0.0806213
-0.0856291
-0.0903987
-0.0948884
-0.0990898
-0.103008
-0.106648
-0.0802047
-0.0851887
-0.0899487
-0.0944359
-0.0986364
-0.102554
-0.106194
-0.0799821
-0.0849621
-0.0897201
-0.0942075
-0.0984085
-0.102326
-0.105967
-0.215545
-0.201786
-0.188791
-0.177941
-0.16765
-0.158098
-0.149459
-0.141555
-0.134326
-0.127747
-0.121754
-0.116294
-0.11133
-0.106821
-0.102731
-0.0990267
-0.0956806
-0.0926662
-0.0899604
-0.0875428
-0.0853955
-0.0835027
-0.0818508
-0.0804279
-0.0792238
-0.0782302
-0.0774395
-0.0768469
-0.0764495
-0.0762216
-0.208079
-0.195015
-0.182077
-0.171706
-0.161886
-0.152611
-0.144283
-0.136695
-0.129736
-0.123406
-0.11765
-0.112405
-0.107636
-0.103305
-0.0993754
-0.095816
-0.092599
-0.0896996
-0.0870955
-0.0847673
-0.0826977
-0.0808718
-0.0792763
-0.0779001
-0.0767333
-0.0757678
-0.0749963
-0.0744145
-0.0740178
-0.073781
-0.201873
-0.189364
-0.176243
-0.165932
-0.156499
-0.147458
-0.139341
-0.13202
-0.125304
-0.119188
-0.113638
-0.108586
-0.103991
-0.099819
-0.0960347
-0.0926066
-0.0895079
-0.0867144
-0.0842047
-0.0819598
-0.0799631
-0.0782002
-0.0766583
-0.0753265
-0.0741955
-0.0732573
-0.0725048
-0.0719342
-0.0715392
-0.0712978
-0.195492
-0.183348
-0.170382
-0.160171
-0.15112
-0.142383
-0.134465
-0.127384
-0.120906
-0.114995
-0.109636
-0.104767
-0.100338
-0.0963178
-0.0926724
-0.0893703
-0.0863852
-0.0836937
-0.081275
-0.0791107
-0.0771847
-0.0754831
-0.0739935
-0.0727054
-0.0716098
-0.070699
-0.0699661
-0.0694074
-0.069016
-0.0687729
-0.18918
-0.177433
-0.164695
-0.154509
-0.145708
-0.137281
-0.129569
-0.122702
-0.116459
-0.110756
-0.105585
-0.100895
-0.0966321
-0.0927621
-0.089254
-0.086077
-0.083205
-0.0806152
-0.0782874
-0.0762039
-0.0743491
-0.0727093
-0.0712728
-0.0700294
-0.0689703
-0.0680881
-0.0673763
-0.0668311
-0.0664455
-0.0662034
-0.18268
-0.171208
-0.158805
-0.148755
-0.140189
-0.132094
-0.12463
-0.117974
-0.11196
-0.10647
-0.101487
-0.0969736
-0.0928754
-0.0891554
-0.0857837
-0.0827311
-0.0799716
-0.0774832
-0.0752462
-0.0732435
-0.0714599
-0.0698824
-0.0684995
-0.0673015
-0.0662798
-0.0654273
-0.0647378
-0.0642078
-0.0638298
-0.0635909
-0.176047
-0.164882
-0.152883
-0.143006
-0.134625
-0.126831
-0.119631
-0.113188
-0.107394
-0.10212
-0.0973296
-0.0929919
-0.0890581
-0.0854888
-0.082254
-0.079326
-0.0766796
-0.074293
-0.0721475
-0.0702262
-0.0685148
-0.0670004
-0.0656722
-0.0645206
-0.0635376
-0.0627163
-0.0620506
-0.0615374
-0.0611691
-0.0609353
-0.169262
-0.158355
-0.146782
-0.137149
-0.128971
-0.121471
-0.114558
-0.108345
-0.102769
-0.0977094
-0.0931148
-0.088954
-0.0851843
-0.0817659
-0.0786684
-0.0758653
-0.0733321
-0.0710479
-0.0689942
-0.067155
-0.0655163
-0.0640659
-0.0627932
-0.0616891
-0.0607459
-0.0599569
-0.0593166
-0.0588218
-0.0584647
-0.058238
-0.162322
-0.151689
-0.140577
-0.13123
-0.123265
-0.116038
-0.109411
-0.103439
-0.0980804
-0.0932344
-0.088838
-0.0848563
-0.0812512
-0.0779844
-0.0750251
-0.0723475
-0.0699284
-0.0677471
-0.0657861
-0.0640298
-0.0624647
-0.0610792
-0.0598631
-0.0588077
-0.0579055
-0.0571503
-0.0565366
-0.0560617
-0.0557177
-0.0554998
-0.155227
-0.144868
-0.13422
-0.125197
-0.117474
-0.110521
-0.104182
-0.0984645
-0.0933305
-0.0886977
-0.0845009
-0.0807006
-0.0772611
-0.0741465
-0.0713262
-0.068775
-0.0664705
-0.0643929
-0.0625253
-0.0608527
-0.0593622
-0.0580425
-0.056884
-0.0558783
-0.0550183
-0.054298
-0.0537125
-0.053259
-0.0529295
-0.0527222
-0.147966
-0.137906
-0.127738
-0.119067
-0.11161
-0.104932
-0.0988788
-0.0934207
-0.0885171
-0.0840986
-0.0801025
-0.0764858
-0.0732136
-0.0702522
-0.0675719
-0.0651481
-0.0629591
-0.0609863
-0.059213
-0.057625
-0.05621
-0.0549571
-0.0538573
-0.0529024
-0.0520858
-0.0514018
-0.0508457
-0.0504149
-0.0501015
-0.0499063
-0.140534
-0.130802
-0.121117
-0.112819
-0.105654
-0.0992631
-0.0934969
-0.088305
-0.083639
-0.0794381
-0.0756442
-0.0722132
-0.0691101
-0.0663032
-0.0637641
-0.0614687
-0.0593964
-0.0575291
-0.0558511
-0.0543487
-0.0530102
-0.0518252
-0.050785
-0.0498821
-0.04911
-0.0484635
-0.047938
-0.0475313
-0.0472353
-0.0470538
-0.132922
-0.123556
-0.114367
-0.10646
-0.0996103
-0.0935172
-0.0880405
-0.0831181
-0.0786953
-0.0747159
-0.0711264
-0.067883
-0.0649512
-0.0623005
-0.0599039
-0.0577383
-0.0557839
-0.0540233
-0.0524417
-0.0510259
-0.0497649
-0.0486488
-0.0476693
-0.0468194
-0.046093
-0.045485
-0.0449914
-0.0446099
-0.0443326
-0.0441661
-0.125127
-0.116166
-0.107482
-0.0999831
-0.0934692
-0.0876884
-0.0825075
-0.0778594
-0.0736855
-0.0699323
-0.0665501
-0.0634968
-0.0607385
-0.0582459
-0.0559935
-0.0539591
-0.0521238
-0.0504711
-0.0489869
-0.0476589
-0.0464764
-0.0454302
-0.0445126
-0.0437167
-0.0430369
-0.0424686
-0.042008
-0.0416527
-0.0413953
-0.041245
-0.11714
-0.108631
-0.100464
-0.0933896
-0.0872308
-0.0817768
-0.0768991
-0.0725302
-0.0686102
-0.0650878
-0.0619166
-0.059056
-0.0564737
-0.0541413
-0.0520348
-0.0501331
-0.0484183
-0.0468749
-0.0454894
-0.0442502
-0.0431473
-0.0421721
-0.0413172
-0.0405764
-0.0399443
-0.0394166
-0.0389899
-0.0386619
-0.0384256
-0.0382925
-0.108954
-0.100945
-0.0933124
-0.0866785
-0.0808919
-0.0757792
-0.0712141
-0.067131
-0.0634703
-0.0601839
-0.0572274
-0.0545627
-0.0521589
-0.0499891
-0.0480304
-0.0462632
-0.0446704
-0.0432375
-0.0419519
-0.0408027
-0.0397805
-0.0388773
-0.0380862
-0.0374013
-0.0368178
-0.0363317
-0.0359398
-0.0356399
-0.0354256
-0.0353106
-0.100562
-0.0931004
-0.0860248
-0.0798519
-0.0744533
-0.0696955
-0.065453
-0.0616628
-0.0582674
-0.0552221
-0.0524847
-0.0500192
-0.0477966
-0.0457917
-0.043983
-0.042352
-0.0408829
-0.039562
-0.0383775
-0.0373194
-0.0363789
-0.0355487
-0.0348222
-0.0341942
-0.0336602
-0.0332164
-0.03286
-0.032589
-0.0323977
-0.0323015
-0.0919678
-0.085088
-0.0785953
-0.0729086
-0.0679146
-0.0635245
-0.0596145
-0.0561252
-0.0530018
-0.0502031
-0.0476894
-0.0454267
-0.0433885
-0.0415513
-0.0398949
-0.0384021
-0.0370583
-0.0358509
-0.0347689
-0.0338031
-0.0329455
-0.0321892
-0.0315283
-0.030958
-0.0304741
-0.0300734
-0.0297531
-0.0295116
-0.0293441
-0.0292666
-0.0831946
-0.0769038
-0.0710149
-0.0658423
-0.0612726
-0.0572633
-0.0536962
-0.0505161
-0.047671
-0.0451247
-0.04284
-0.0407848
-0.0389349
-0.0372686
-0.0357673
-0.0344152
-0.0331988
-0.0321066
-0.0311286
-0.0302564
-0.0294828
-0.0288014
-0.028207
-0.0276951
-0.0272622
-0.0269051
-0.0266215
-0.02641
-0.0262667
-0.0262065
-0.0742736
-0.0685562
-0.0632731
-0.058639
-0.0545167
-0.0509052
-0.0476935
-0.0448311
-0.04227
-0.0399825
-0.0379337
-0.0360922
-0.0344356
-0.0329444
-0.0316016
-0.0303929
-0.0293062
-0.0283312
-0.027459
-0.0266819
-0.0259935
-0.0253881
-0.0248611
-0.0244086
-0.0240273
-0.0237144
-0.0234679
-0.0232871
-0.023168
-0.0231229
-0.0651921
-0.0600684
-0.0553591
-0.0512862
-0.0476345
-0.0444444
-0.041604
-0.0390693
-0.0367979
-0.0347773
-0.032973
-0.0313522
-0.0298945
-0.0285827
-0.0274019
-0.0263396
-0.0253851
-0.0245294
-0.0237646
-0.0230841
-0.0224821
-0.0219539
-0.0214952
-0.0211027
-0.0207736
-0.0205055
-0.0202967
-0.020147
-0.020051
-0.0200219
-0.0558829
-0.0514276
-0.047266
-0.043791
-0.0406256
-0.0378839
-0.0354309
-0.033239
-0.0312709
-0.0295266
-0.0279741
-0.0265789
-0.025324
-0.0241947
-0.0231785
-0.0222647
-0.0214443
-0.0207094
-0.0200534
-0.0194705
-0.018956
-0.0185055
-0.0181158
-0.0177839
-0.0175074
-0.0172844
-0.0171134
-0.0169955
-0.0169206
-0.0169135
-0.0462448
-0.0426323
-0.039003
-0.0361824
-0.0335063
-0.0312372
-0.0291807
-0.0273552
-0.0257237
-0.0242605
-0.0229608
-0.0217917
-0.0207402
-0.0197943
-0.0189436
-0.0181793
-0.0174936
-0.0168802
-0.0163336
-0.0158488
-0.0154221
-0.0150498
-0.0147292
-0.014458
-0.0142342
-0.0140563
-0.0139231
-0.0138371
-0.0137816
-0.013803
-0.0362265
-0.0337411
-0.0306136
-0.028505
-0.0263125
-0.0245309
-0.0228722
-0.0214352
-0.0201771
-0.0189916
-0.0179417
-0.0169977
-0.0161495
-0.0153872
-0.0147024
-0.0140877
-0.0135372
-0.0130456
-0.0126085
-0.012222
-0.011883
-0.0115888
-0.0113373
-0.0111265
-0.0109551
-0.0108218
-0.0107263
-0.0106699
-0.0106375
-0.0106812
-0.0259594
-0.0247597
-0.0221771
-0.0207646
-0.0190934
-0.017791
-0.0165536
-0.0154877
-0.0145494
-0.0136676
-0.0128785
-0.012169
-0.011531
-0.0109577
-0.0104429
-0.00998143
-0.00956874
-0.00920105
-0.00887511
-0.0085882
-0.00833803
-0.00812269
-0.00794062
-0.00779061
-0.00767169
-0.00758297
-0.00752484
-0.00749713
-0.00748947
-0.00755034
-0.01552
-0.0154461
-0.0136285
-0.0128731
-0.0117826
-0.0109674
-0.0101704
-0.00948249
-0.00886899
-0.00829662
-0.00777839
-0.00731084
-0.00688942
-0.00651024
-0.00616971
-0.0058647
-0.00559251
-0.00535087
-0.00513783
-0.00495179
-0.0047914
-0.00465558
-0.00454347
-0.00445443
-0.00438798
-0.00434376
-0.00432249
-0.00432314
-0.00433977
-0.00441503
-0.00496837
-0.00590578
-0.00493479
-0.00485005
-0.0043653
-0.0040558
-0.00371273
-0.00341648
-0.00314448
-0.00288723
-0.00264864
-0.00243027
-0.00223137
-0.00205115
-0.00188873
-0.00174328
-0.00161405
-0.00150038
-0.00140174
-0.00131769
-0.0012479
-0.00119215
-0.0011503
-0.00112233
-0.00110825
-0.00110822
-0.0011232
-0.00115187
-0.0011915
-0.00127943
0.00570689
0.0037919
0.00391011
0.00329668
0.00316088
0.0029422
0.00281463
0.0027017
0.00261419
0.00254834
0.00249955
0.00246262
0.00243417
0.00241158
0.00239282
0.00237626
0.00236061
0.00234478
0.00232786
0.00230905
0.00228763
0.00226295
0.00223439
0.00220136
0.00216331
0.0021196
0.00206909
0.00201301
0.0019518
0.00185279
0.0165228
0.0136242
0.0128996
0.01156
0.0107817
0.0100088
0.00939072
0.00885189
0.00839129
0.00799542
0.00765432
0.00735821
0.00709929
0.00687129
0.00666913
0.0064887
0.0063266
0.00618
0.00604651
0.00592407
0.00581093
0.00570553
0.00560649
0.00551258
0.00542274
0.00533585
0.00525056
0.00516792
0.00508651
0.00497817
0.0274889
0.0235847
0.0220092
0.0199126
0.0184616
0.0171124
0.0159903
0.0150173
0.0141781
0.0134494
0.0128137
0.0122559
0.0117639
0.0113277
0.0109396
0.010593
0.0102823
0.0100032
0.00975172
0.00952456
0.0093189
0.00913228
0.00896253
0.00880779
0.00866644
0.00853689
0.00841761
0.00830935
0.00820911
0.0080934
0.0385925
0.0336441
0.0311869
0.0283114
0.0261734
0.0242474
0.0226242
0.0212184
0.019999
0.0189336
0.0179978
0.0171721
0.0164405
0.0157902
0.0152107
0.0146931
0.01423
0.013815
0.0134429
0.0131091
0.0128094
0.0125406
0.0122996
0.0120838
0.0118911
0.0117193
0.0115668
0.0114339
0.0113162
0.0111952
0.0497892
0.0437603
0.0404017
0.0367719
0.0339707
0.0314869
0.0293676
0.0275219
0.0259082
0.0244891
0.0232364
0.0221272
0.0211427
0.020267
0.0194867
0.0187907
0.0181691
0.0176138
0.0171177
0.0166745
0.0162791
0.0159269
0.015614
0.0153369
0.015093
0.0148795
0.0146945
0.014538
0.0144042
0.0142802
0.0610407
0.0539559
0.0497378
0.0454206
0.0419783
0.0389277
0.0362823
0.033959
0.0319144
0.0301103
0.0285155
0.0271033
0.0258508
0.0247384
0.0237492
0.0228688
0.0220847
0.0213862
0.0207642
0.0202107
0.0197191
0.0192834
0.0188989
0.0185612
0.0182668
0.0180127
0.0177965
0.0176177
0.0174697
0.0173449
0.0723846
0.0643637
0.0593201
0.0543136
0.0501652
0.0464717
0.0432336
0.0403838
0.0378769
0.0356695
0.0337233
0.0320048
0.0304847
0.0291382
0.0279437
0.026883
0.0259405
0.0251028
0.0243587
0.0236984
0.0231136
0.0225975
0.022144
0.0217481
0.0214056
0.0211129
0.0208677
0.0206684
0.0205084
0.0203853
0.0838663
0.074974
0.0689325
0.0630778
0.0580954
0.0536921
0.0498451
0.0464824
0.043542
0.0409655
0.0387023
0.0367091
0.0349495
0.0333928
0.0320134
0.0307895
0.0297026
0.0287374
0.0278807
0.0271213
0.02645
0.0258587
0.0253407
0.0248904
0.0245032
0.024175
0.0239033
0.0236861
0.0235166
0.0233978
0.0952381
0.0852765
0.0779258
0.0711107
0.0653195
0.0602965
0.05595
0.052176
0.0488873
0.04601
0.0434829
0.041256
0.039288
0.0375447
0.0359977
0.0346233
0.0334015
0.0323154
0.031351
0.0304962
0.0297409
0.0290765
0.0284957
0.0279925
0.0275619
0.0271996
0.0269027
0.0266689
0.0264924
0.0263803
0.106018
0.0949515
0.0864359
0.07891
0.0725506
0.0670702
0.0623164
0.0581687
0.0545353
0.0513409
0.0485234
0.0460315
0.0438224
0.0418604
0.0401157
0.0385632
0.0371816
0.0359529
0.0348619
0.0338955
0.0330426
0.0322938
0.031641
0.0310776
0.0305978
0.0301972
0.0298724
0.0296204
0.0294371
0.0293324
0.116658
0.105569
0.0966185
0.0886765
0.0817842
0.0757269
0.0703769
0.0656442
0.061458
0.0577537
0.0544728
0.0515633
0.0489805
0.0466857
0.0446458
0.0428325
0.0412215
0.0397919
0.0385256
0.0374071
0.0364234
0.0355629
0.0348161
0.0341748
0.0336322
0.0331828
0.0328223
0.032547
0.0323544
0.0322546
0.128495
0.118823
0.109705
0.101119
0.0933313
0.0863258
0.0800501
0.0744517
0.0694762
0.0650633
0.0611523
0.057686
0.0546135
0.0518895
0.0494748
0.047335
0.0454404
0.0437652
0.0422871
0.040987
0.0398481
0.0388566
0.0380001
0.0372687
0.0366538
0.0361485
0.0357473
0.0354458
0.0352415
0.0351416
0.138755
0.129628
0.119943
0.110575
0.101975
0.0942297
0.0873031
0.0811319
0.0756481
0.0707833
0.066471
0.0626492
0.0592623
0.056261
0.0536021
0.0512478
0.0491652
0.0473259
0.0457052
0.0442817
0.0430372
0.0419559
0.0410245
0.0402317
0.0395681
0.0390261
0.0385995
0.0382834
0.0380746
0.0379754
0.153472
0.141584
0.130706
0.120619
0.111531
0.10347
0.0963436
0.090019
0.0843903
0.0793758
0.0749074
0.0709255
0.067377
0.0642153
0.0613994
0.0588933
0.0566658
0.0546896
0.052941
0.0513995
0.0500473
0.0488692
0.047852
0.0469848
0.0462583
0.0456649
0.0451983
0.0448535
0.044627
0.0445152
0.167236
0.153637
0.14248
0.13269
0.1239
0.115988
0.10888
0.102498
0.0967623
0.091604
0.0869649
0.0827939
0.0790455
0.075679
0.072658
0.0699504
0.0675278
0.0653653
0.063441
0.0617357
0.0602327
0.0589175
0.0577776
0.0568024
0.0559828
0.0553113
0.0547819
0.0543897
0.0541312
0.0540041
0.170846
0.160289
0.150534
0.141577
0.13337
0.125864
0.119022
0.112802
0.107153
0.102025
0.0973702
0.0931485
0.0893224
0.0858586
0.0827271
0.0799012
0.0773568
0.0750724
0.0730289
0.0712092
0.0695984
0.0681835
0.0669528
0.0658965
0.0650063
0.064275
0.0636969
0.0632675
0.0629831
0.0628409
0.171877
0.162863
0.15436
0.146433
0.139099
0.132321
0.12606
0.120284
0.114967
0.110082
0.105601
0.101496
0.0977442
0.0943206
0.0912034
0.0883719
0.0858073
0.0834922
0.081411
0.0795494
0.0778949
0.0764362
0.0751634
0.074068
0.0731425
0.0723807
0.0717775
0.0713287
0.0710314
0.070884
0.169797
0.162729
0.155814
0.149165
0.142841
0.136866
0.131251
0.125997
0.121101
0.116553
0.11234
0.108447
0.104858
0.101558
0.0985324
0.0957658
0.0932449
0.0909567
0.0888892
0.0870317
0.085374
0.0839071
0.082623
0.0815147
0.0805759
0.0798015
0.0791871
0.0787293
0.0784253
0.0782732
0.167528
0.161633
0.1558
0.150124
0.144671
0.139468
0.134529
0.129858
0.125459
0.12133
0.117468
0.113867
0.11052
0.10742
0.104558
0.101924
0.099511
0.097309
0.09531
0.0935063
0.0918903
0.0904555
0.0891956
0.0881052
0.0871795
0.0864145
0.0858066
0.0853531
0.085052
0.0849022
0.164283
0.159562
0.154811
0.15012
0.145535
0.141087
0.1368
0.132696
0.128787
0.125082
0.121585
0.118299
0.115221
0.11235
0.109681
0.107212
0.104936
0.102849
0.100946
0.0992206
0.0976695
0.0962874
0.0950702
0.0940139
0.093115
0.0923707
0.0917782
0.0913357
0.0910414
0.0908941
0.161447