/*--------------------------------*- C++ -*----------------------------------*\
  =========                 |
  \\      /  F ield         | OpenFOAM: The Open Source CFD Toolbox
   \\    /   O peration     | Website:  https://openfoam.org
    \\  /    A nd           | Version:  7
     \\/     M anipulation  |
\*---------------------------------------------------------------------------*/
FoamFile
{
    version     2.0;
    format      ascii;
    class       volScalarField;
    location    "75";
    object      p;
}
// * * * * * * * * * * * * * * * * * * * * * * * * * * * * * * * * * * * * * //

dimensions      [0 2 -2 0 0 0 0];

internalField   nonuniform List<scalar> 
3700
(
-0.248022
-0.24629
-0.24434
-0.2422
-0.239872
-0.237366
-0.23469
-0.231851
-0.228855
-0.22571
-0.22242
-0.218989
-0.21542
-0.211712
-0.207862
-0.203892
-0.199795
-0.195611
-0.19133
-0.186955
-0.182495
-0.177963
-0.173377
-0.168753
-0.164106
-0.159451
-0.1548
-0.150154
-0.145517
-0.140886
-0.136251
-0.131605
-0.126931
-0.122206
-0.117388
-0.112544
-0.107577
-0.10261
-0.0975938
-0.092537
-0.0874712
-0.0824314
-0.0774605
-0.0725885
-0.0678733
-0.0633443
-0.0590357
-0.0549729
-0.0511719
-0.0476386
-0.044369
-0.0413496
-0.0385597
-0.0359726
-0.0335584
-0.0312843
-0.0291165
-0.0270232
-0.0249775
-0.0229707
-0.0209883
-0.0190282
-0.0170932
-0.0151923
-0.013339
-0.0115507
-0.00984533
-0.00824286
-0.00675767
-0.0054101
-0.00419592
-0.00315116
-0.00220071
-0.00149742
-0.000653782
-0.000457774
0.000927768
-0.24861
-0.24681
-0.244755
-0.242473
-0.239968
-0.237251
-0.234336
-0.231235
-0.227963
-0.224537
-0.220974
-0.217288
-0.213494
-0.209606
-0.205637
-0.201596
-0.197465
-0.193352
-0.189221
-0.185071
-0.180909
-0.176746
-0.172588
-0.168445
-0.16432
-0.160211
-0.156114
-0.152016
-0.147904
-0.143756
-0.139546
-0.135258
-0.130862
-0.126324
-0.121573
-0.116765
-0.11173
-0.106561
-0.101264
-0.0958511
-0.0903578
-0.0848315
-0.0793357
-0.0739078
-0.0686123
-0.0634959
-0.0586041
-0.0539746
-0.0496349
-0.0456017
-0.0418808
-0.0384675
-0.0353478
-0.0325006
-0.0298986
-0.0275105
-0.0253028
-0.0232425
-0.0212997
-0.019453
-0.0176888
-0.0159949
-0.0143667
-0.0128048
-0.0113144
-0.00990437
-0.00858421
-0.0073655
-0.00625296
-0.00525905
-0.00436478
-0.00360248
-0.00286306
-0.00231693
-0.00147316
-0.00121172
0.000596955
-0.249291
-0.247421
-0.245263
-0.242843
-0.240165
-0.237244
-0.234096
-0.23074
-0.2272
-0.223503
-0.219674
-0.21574
-0.211727
-0.207662
-0.203567
-0.199473
-0.195307
-0.191273
-0.187287
-0.183356
-0.179485
-0.175678
-0.171936
-0.168259
-0.164638
-0.161055
-0.157492
-0.15392
-0.150307
-0.146617
-0.142805
-0.138848
-0.134695
-0.13032
-0.125735
-0.120856
-0.115724
-0.110337
-0.104753
-0.0989895
-0.0930825
-0.0870935
-0.0810878
-0.0751251
-0.0692763
-0.0636011
-0.0581554
-0.0529876
-0.0481351
-0.0436242
-0.0394695
-0.0356743
-0.0322315
-0.0291251
-0.0263317
-0.0238223
-0.0215644
-0.0195243
-0.0176703
-0.0159742
-0.0144166
-0.0129796
-0.0116514
-0.0104243
-0.00929503
-0.00826349
-0.00733011
-0.00649749
-0.00575951
-0.0051205
-0.0045449
-0.00406258
-0.00352732
-0.00313098
-0.00227863
-0.00193704
0.000262248
-0.250053
-0.2481
-0.245844
-0.243294
-0.240454
-0.23734
-0.23397
-0.230373
-0.226578
-0.222622
-0.21854
-0.214371
-0.21015
-0.205915
-0.201701
-0.19753
-0.193359
-0.189409
-0.185566
-0.181842
-0.178246
-0.174778
-0.171432
-0.168197
-0.165055
-0.161969
-0.158908
-0.155827
-0.152679
-0.149414
-0.14596
-0.142296
-0.138344
-0.134129
-0.129569
-0.124687
-0.11944
-0.113865
-0.108003
-0.101891
-0.0955824
-0.0891472
-0.0826604
-0.0761954
-0.0698306
-0.063636
-0.0576775
-0.0520119
-0.0466851
-0.0417314
-0.0371729
-0.03302
-0.029272
-0.025918
-0.0229388
-0.0203083
-0.0179956
-0.0159673
-0.0141904
-0.0126336
-0.0112703
-0.0100781
-0.00903847
-0.00813577
-0.00735808
-0.00669643
-0.00614156
-0.00568674
-0.00531401
-0.00501973
-0.00474985
-0.00453391
-0.00418535
-0.00392206
-0.00304748
-0.00260679
-6.01689e-05
-0.250824
-0.248812
-0.246473
-0.243806
-0.240817
-0.237525
-0.233952
-0.230131
-0.2261
-0.221903
-0.217586
-0.213198
-0.208785
-0.204391
-0.200059
-0.195797
-0.191539
-0.187788
-0.184081
-0.180548
-0.177209
-0.174058
-0.171079
-0.168257
-0.165561
-0.162931
-0.160334
-0.157703
-0.154978
-0.15209
-0.148924
-0.145499
-0.141725
-0.137672
-0.133174
-0.128233
-0.122855
-0.117075
-0.110938
-0.104493
-0.0978044
-0.0909514
-0.0840195
-0.0770926
-0.0702567
-0.0635912
-0.0571696
-0.0510559
-0.0453029
-0.039951
-0.0350288
-0.0305525
-0.0265268
-0.022946
-0.0197948
-0.0170505
-0.0146843
-0.0126638
-0.0109553
-0.00952555
-0.0083434
-0.00738062
-0.00661371
-0.0060188
-0.00557574
-0.00526668
-0.00507241
-0.00497683
-0.00494924
-0.0049787
-0.00499091
-0.00501773
-0.00482982
-0.00467509
-0.00376217
-0.00320182
-0.000357967
-0.249546
-0.247115
-0.244348
-0.24123
-0.237782
-0.234027
-0.230005
-0.225761
-0.221347
-0.216819
-0.212232
-0.207645
-0.203111
-0.198685
-0.194443
-0.190618
-0.186488
-0.18285
-0.179487
-0.176383
-0.173521
-0.170877
-0.168432
-0.166143
-0.163911
-0.161728
-0.159494
-0.157135
-0.154571
-0.151691
-0.148454
-0.144977
-0.140941
-0.136431
-0.131419
-0.125905
-0.119922
-0.113522
-0.106764
-0.0997234
-0.092488
-0.0851524
-0.0778103
-0.0705545
-0.0634722
-0.0566434
-0.0501375
-0.0440124
-0.0383137
-0.0330746
-0.0283161
-0.0240475
-0.0202673
-0.0169644
-0.0141193
-0.0117057
-0.00969246
-0.00804615
-0.00673195
-0.00571602
-0.00496437
-0.00445061
-0.00414136
-0.00400905
-0.00402731
-0.0041669
-0.00440266
-0.00469056
-0.00501337
-0.00527517
-0.00551297
-0.00545367
-0.00537751
-0.00441057
-0.00371139
-0.000623474
-0.250215
-0.247729
-0.244884
-0.241661
-0.238082
-0.234173
-0.229977
-0.225548
-0.220945
-0.21623
-0.21147
-0.20673
-0.202073
-0.197561
-0.193262
-0.189267
-0.185479
-0.181901
-0.178671
-0.175766
-0.173158
-0.170813
-0.168696
-0.166753
-0.1649
-0.163075
-0.161192
-0.159148
-0.156846
-0.154175
-0.151315
-0.147826
-0.143842
-0.139311
-0.134218
-0.128565
-0.122388
-0.115741
-0.108696
-0.101337
-0.0937598
-0.0860671
-0.078361
-0.0707406
-0.0632996
-0.0561225
-0.0492832
-0.0428433
-0.036852
-0.0313461
-0.0263503
-0.0218774
-0.0179297
-0.0144994
-0.0115701
-0.0091183
-0.00711453
-0.00552581
-0.00431644
-0.00345028
-0.00288901
-0.00260549
-0.0025548
-0.00270335
-0.00301683
-0.00345613
-0.0039876
-0.00455359
-0.00513194
-0.00560432
-0.00601544
-0.0060497
-0.00601917
-0.00498531
-0.00413193
-0.00085339
-0.250782
-0.248273
-0.245376
-0.242077
-0.238396
-0.234363
-0.230029
-0.225448
-0.220688
-0.215819
-0.210914
-0.206046
-0.201287
-0.196704
-0.192366
-0.188336
-0.184583
-0.181156
-0.178047
-0.175335
-0.172957
-0.170874
-0.169043
-0.167401
-0.165862
-0.164339
-0.162749
-0.16096
-0.158879
-0.156585
-0.1537
-0.150311
-0.146358
-0.141797
-0.136618
-0.130829
-0.124469
-0.1176
-0.110299
-0.10266
-0.0947867
-0.0867879
-0.0787724
-0.0708453
-0.0631049
-0.0556395
-0.0485258
-0.0418284
-0.035599
-0.0298767
-0.0246889
-0.0200513
-0.0159688
-0.0124369
-0.0094418
-0.00696252
-0.00497141
-0.00343638
-0.0023213
-0.00158824
-0.00119316
-0.00111461
-0.00129107
-0.00168582
-0.00225709
-0.00295625
-0.003742
-0.00454319
-0.00533413
-0.00597423
-0.00651758
-0.00661013
-0.00659191
-0.00548248
-0.00446509
-0.00105266
-0.25123
-0.248713
-0.245785
-0.242436
-0.238683
-0.234563
-0.230125
-0.22543
-0.220548
-0.215557
-0.210536
-0.205565
-0.200722
-0.196081
-0.191709
-0.187664
-0.183953
-0.180632
-0.177678
-0.175074
-0.172907
-0.171041
-0.169446
-0.168052
-0.166771
-0.165485
-0.164125
-0.162558
-0.160765
-0.158504
-0.155746
-0.152424
-0.148481
-0.143881
-0.138617
-0.132702
-0.12618
-0.119116
-0.111597
-0.103722
-0.0956012
-0.08735
-0.0790822
-0.0709073
-0.0629268
-0.0552319
-0.0479015
-0.0410017
-0.034586
-0.0286953
-0.0233587
-0.0185939
-0.0144083
-0.0107995
-0.00775625
-0.00525985
-0.00328429
-0.00179861
-0.000766653
-0.000150134
8.74707e-05
6.11281e-06
-0.000362213
-0.000965113
-0.00175307
-0.00266845
-0.00366337
-0.00465371
-0.00561159
-0.00637526
-0.00700875
-0.00712648
-0.00708911
-0.00590014
-0.00471504
-0.00121377
-0.251474
-0.248979
-0.24603
-0.242678
-0.238898
-0.23473
-0.230228
-0.225457
-0.220493
-0.215417
-0.210314
-0.205269
-0.200366
-0.195682
-0.191289
-0.187242
-0.183567
-0.180294
-0.17747
-0.175041
-0.172946
-0.17125
-0.169858
-0.168664
-0.167582
-0.166492
-0.165331
-0.163966
-0.162262
-0.16012
-0.157443
-0.154157
-0.150211
-0.145569
-0.140226
-0.134201
-0.127541
-0.120317
-0.112621
-0.104557
-0.0962422
-0.0877945
-0.0793323
-0.070968
-0.0628056
-0.0549379
-0.0474449
-0.0403942
-0.03384
-0.0278246
-0.0223782
-0.0175201
-0.0132592
-0.00959546
-0.00651938
-0.00401421
-0.00205551
-0.000613441
0.000348063
0.000868275
0.000990142
0.000763726
0.000238443
-0.000532795
-0.00149435
-0.00258044
-0.00373782
-0.00487042
-0.00594915
-0.00679327
-0.00747596
-0.00758966
-0.00750541
-0.00623791
-0.00488958
-0.00134456
-0.251496
-0.249074
-0.246128
-0.242776
-0.238998
-0.234819
-0.230295
-0.225492
-0.220486
-0.215364
-0.210214
-0.205125
-0.200186
-0.195478
-0.191075
-0.187033
-0.183389
-0.180175
-0.177407
-0.175095
-0.173184
-0.171606
-0.170322
-0.169268
-0.168325
-0.167402
-0.166341
-0.165087
-0.163483
-0.161413
-0.158783
-0.155515
-0.151556
-0.146873
-0.141463
-0.135349
-0.128581
-0.121235
-0.113407
-0.105206
-0.0967502
-0.0881627
-0.0795635
-0.0710671
-0.0627784
-0.054791
-0.0471859
-0.040031
-0.0333812
-0.0272795
-0.021757
-0.0168342
-0.0125215
-0.00882037
-0.00572299
-0.00321432
-0.00127122
0.000135084
0.0010405
0.00148509
0.00151545
0.00117817
0.000532724
-0.000366354
-0.00145794
-0.00266915
-0.00394255
-0.00517171
-0.00632679
-0.00721116
-0.00790502
-0.00799051
-0.00783666
-0.00649705
-0.00499711
-0.00144866
-0.248817
-0.245853
-0.242626
-0.238917
-0.234778
-0.230278
-0.225486
-0.220483
-0.215356
-0.210197
-0.205096
-0.200146
-0.195432
-0.191031
-0.187
-0.183383
-0.18021
-0.177497
-0.175231
-0.173379
-0.17191
-0.170742
-0.169781
-0.168927
-0.168099
-0.167144
-0.165958
-0.164408
-0.162378
-0.15977
-0.156506
-0.15253
-0.147812
-0.14235
-0.136172
-0.129331
-0.121905
-0.113992
-0.105705
-0.0971635
-0.0884921
-0.0798119
-0.0712378
-0.0628751
-0.0548174
-0.0471458
-0.0399284
-0.0332203
-0.0270651
-0.0214946
-0.0165305
-0.0121841
-0.00845842
-0.00534706
-0.0028365
-0.000904711
0.000476071
0.00134166
0.00173242
0.00169703
0.00128266
0.000553775
-0.000433106
-0.00161199
-0.00290409
-0.00424891
-0.00553182
-0.0067221
-0.00761069
-0.00828196
-0.00832058
-0.00807983
-0.0066798
-0.00504336
-0.00152877
-0.248339
-0.245614
-0.24222
-0.238594
-0.234552
-0.230125
-0.225393
-0.220438
-0.215348
-0.210218
-0.205138
-0.200203
-0.195504
-0.191117
-0.187103
-0.183508
-0.180362
-0.177682
-0.175458
-0.173658
-0.172235
-0.171115
-0.170209
-0.169414
-0.16863
-0.167719
-0.166563
-0.165035
-0.163019
-0.160414
-0.157143
-0.153151
-0.148409
-0.142916
-0.136703
-0.129825
-0.122361
-0.114411
-0.106089
-0.0975157
-0.0888142
-0.0801059
-0.071505
-0.0631163
-0.0550329
-0.0473355
-0.0400919
-0.0333576
-0.0271763
-0.0215806
-0.0165931
-0.0122262
-0.00848423
-0.00536212
-0.00284771
-0.000919979
0.00044783
0.0012915
0.00165137
0.00157686
0.00111919
0.000341646
-0.000694517
-0.00191984
-0.00325114
-0.00462585
-0.00592383
-0.00711303
-0.00797459
-0.00859433
-0.00857293
-0.00824152
-0.00678793
-0.00503577
-0.00158627
-0.247377
-0.244762
-0.241592
-0.237976
-0.234071
-0.229777
-0.225156
-0.220297
-0.21529
-0.21023
-0.205204
-0.200311
-0.195646
-0.191287
-0.187296
-0.18372
-0.180593
-0.177928
-0.175718
-0.173934
-0.172524
-0.171419
-0.170527
-0.169746
-0.168966
-0.168058
-0.166901
-0.165368
-0.163344
-0.16073
-0.157448
-0.153445
-0.148692
-0.143191
-0.136973
-0.130095
-0.122637
-0.114698
-0.10639
-0.0978345
-0.089153
-0.0804651
-0.0718837
-0.0635121
-0.0554426
-0.0477548
-0.0405163
-0.0337825
-0.0275976
-0.0219946
-0.016997
-0.0126186
-0.00886472
-0.00573158
-0.00320838
-0.00127504
9.41593e-05
0.00093489
0.00128737
0.00120077
0.000733615
-6.12904e-05
-0.00111038
-0.00234394
-0.00367615
-0.00504307
-0.00632236
-0.00748076
-0.00828864
-0.00883246
-0.00874571
-0.00831303
-0.00682473
-0.00497927
-0.00162259
-0.245985
-0.243616
-0.240672
-0.237135
-0.233281
-0.229175
-0.224728
-0.220016
-0.215135
-0.210184
-0.205246
-0.200422
-0.195812
-0.191495
-0.187534
-0.183977
-0.180858
-0.178194
-0.175978
-0.174181
-0.172755
-0.171629
-0.170714
-0.169909
-0.169099
-0.168163
-0.166977
-0.165417
-0.16337
-0.160739
-0.157447
-0.15344
-0.148694
-0.14321
-0.137018
-0.130177
-0.122765
-0.11488
-0.106633
-0.0981417
-0.0895253
-0.0809013
-0.0723801
-0.0640632
-0.0560413
-0.0483933
-0.041186
-0.0344749
-0.0283042
-0.0227078
-0.01771
-0.0133255
-0.00956109
-0.00641411
-0.00387512
-0.00192496
-0.000538981
0.000318162
0.000686557
0.000615028
0.000166001
-0.000616188
-0.00164256
-0.00284912
-0.00414789
-0.00547371
-0.0067059
-0.00781306
-0.00854281
-0.00899036
-0.00883334
-0.00830348
-0.00679406
-0.00487975
-0.00163935
-0.241971
-0.239292
-0.236086
-0.232279
-0.228244
-0.224023
-0.219528
-0.214828
-0.210031
-0.205214
-0.200486
-0.195954
-0.191695
-0.187772
-0.184235
-0.18112
-0.178445
-0.176205
-0.174374
-0.172904
-0.171728
-0.17076
-0.169898
-0.169032
-0.168041
-0.166804
-0.165201
-0.163121
-0.16047
-0.157171
-0.153173
-0.14845
-0.143007
-0.136873
-0.130103
-0.122775
-0.114985
-0.106839
-0.0984516
-0.0899395
-0.0814165
-0.0729901
-0.0647595
-0.0568137
-0.0492303
-0.0420758
-0.0354051
-0.029263
-0.0236838
-0.0186927
-0.0143055
-0.0105301
-0.00736515
-0.00480242
-0.00282378
-0.00140569
-0.000513275
-0.000106873
-0.000137378
-0.00055179
-0.00128699
-0.00225785
-0.00340544
-0.0046405
-0.00589682
-0.00705762
-0.00810604
-0.00868566
-0.0090656
-0.00884112
-0.00821929
-0.00670227
-0.00474377
-0.00163813
-0.239851
-0.237486
-0.234582
-0.231188
-0.227208
-0.223075
-0.21881
-0.214338
-0.20974
-0.205074
-0.200467
-0.196032
-0.191847
-0.18797
-0.184456
-0.181343
-0.178648
-0.176371
-0.174488
-0.172954
-0.171705
-0.170659
-0.169717
-0.168771
-0.167706
-0.166403
-0.164746
-0.162627
-0.159955
-0.156654
-0.152677
-0.147997
-0.142617
-0.136567
-0.129899
-0.122688
-0.115025
-0.107014
-0.0987647
-0.0903893
-0.0819978
-0.0736946
-0.0655763
-0.0577299
-0.0502317
-0.0431476
-0.0365322
-0.0304304
-0.0248772
-0.0198985
-0.015511
-0.011724
-0.00853687
-0.00594298
-0.00392517
-0.00246106
-0.00151625
-0.00105207
-0.00101977
-0.00137533
-0.00203982
-0.00293047
-0.00399231
-0.00513682
-0.00629968
-0.0073648
-0.00816256
-0.00878906
-0.00906782
-0.00877626
-0.00807041
-0.00655819
-0.00457857
-0.00162068
-0.237251
-0.235214
-0.232628
-0.229525
-0.225971
-0.221878
-0.217785
-0.213571
-0.209234
-0.204764
-0.200311
-0.195999
-0.191905
-0.188088
-0.184604
-0.181493
-0.178776
-0.176454
-0.174508
-0.172897
-0.17156
-0.170419
-0.16938
-0.16834
-0.167187
-0.165808
-0.164091
-0.161932
-0.159242
-0.155949
-0.152005
-0.147385
-0.14209
-0.136147
-0.129607
-0.122541
-0.115034
-0.107186
-0.0991016
-0.0908884
-0.0826522
-0.0744939
-0.0665073
-0.0587775
-0.0513795
-0.0443782
-0.0378283
-0.0317749
-0.0262531
-0.0212899
-0.0169028
-0.013102
-0.00988826
-0.00725593
-0.00518899
-0.00366633
-0.00265428
-0.00211518
-0.0019996
-0.00226219
-0.00283186
-0.00363925
-0.00459767
-0.00563178
-0.00667752
-0.00756926
-0.0083404
-0.00883666
-0.00900604
-0.00865029
-0.00786991
-0.00637316
-0.00439307
-0.00158985
-0.234402
-0.232761
-0.230549
-0.227811
-0.224587
-0.22093
-0.216709
-0.212699
-0.208597
-0.204329
-0.200046
-0.195875
-0.191886
-0.18814
-0.184692
-0.181587
-0.178848
-0.176477
-0.17446
-0.172759
-0.17132
-0.17007
-0.16892
-0.167775
-0.166527
-0.165068
-0.163292
-0.1611
-0.158404
-0.155135
-0.151245
-0.146709
-0.141526
-0.135721
-0.129339
-0.122445
-0.115122
-0.107462
-0.0995644
-0.0915329
-0.0834684
-0.0754685
-0.0676242
-0.0600186
-0.0527258
-0.0458102
-0.0393264
-0.0333198
-0.0278264
-0.0228738
-0.0184805
-0.0146577
-0.0114073
-0.00872488
-0.0065955
-0.00499934
-0.00390386
-0.00327266
-0.00305645
-0.00320481
-0.00365334
-0.00434625
-0.00519391
-0.00610726
-0.00700575
-0.00780623
-0.00845376
-0.00883086
-0.00889206
-0.00847592
-0.00763137
-0.00615919
-0.00419706
-0.00155017
-0.229273
-0.227496
-0.225189
-0.222409
-0.219199
-0.215602
-0.211385
-0.207607
-0.203605
-0.199556
-0.195579
-0.191734
-0.188081
-0.184683
-0.181586
-0.178821
-0.176394
-0.174297
-0.172499
-0.170949
-0.169581
-0.168313
-0.167053
-0.1657
-0.164153
-0.162309
-0.160075
-0.157367
-0.154119
-0.150283
-0.145833
-0.140766
-0.135103
-0.128885
-0.122174
-0.115044
-0.107584
-0.0998868
-0.0920512
-0.0841744
-0.0763501
-0.0686668
-0.0612048
-0.0540366
-0.0472258
-0.0408262
-0.0348833
-0.0294333
-0.0245043
-0.0201155
-0.016279
-0.0129974
-0.0102675
-0.00807545
-0.00640256
-0.00521785
-0.00448655
-0.00416259
-0.00419407
-0.00451702
-0.00507307
-0.00577925
-0.00656326
-0.00733131
-0.00800558
-0.00852298
-0.00878552
-0.00873796
-0.00826259
-0.00736226
-0.0059194
-0.00399221
-0.00150093
-0.224387
-0.222996
-0.221068
-0.218668
-0.215865
-0.212722
-0.209318
-0.205458
-0.201564
-0.197719
-0.193941
-0.190292
-0.186819
-0.183573
-0.180597
-0.177915
-0.175534
-0.173443
-0.171613
-0.169997
-0.168532
-0.167144
-0.165746
-0.164247
-0.162553
-0.160569
-0.15821
-0.1554
-0.15208
-0.148208
-0.143762
-0.138743
-0.133173
-0.127091
-0.120555
-0.113638
-0.10642
-0.0989892
-0.091436
-0.0838505
-0.0763195
-0.0689246
-0.0617408
-0.0548354
-0.0482674
-0.0420874
-0.0363373
-0.0310511
-0.0262557
-0.0219693
-0.0182037
-0.0149617
-0.0122401
-0.0100263
-0.00830223
-0.00703905
-0.00620255
-0.00574653
-0.00562412
-0.00577838
-0.00614902
-0.00665942
-0.00723724
-0.00779988
-0.00827686
-0.00859822
-0.00868999
-0.00848557
-0.00791751
-0.00694687
-0.00553895
-0.00368223
-0.00140129
-0.215193
-0.214223
-0.212708
-0.210734
-0.208355
-0.205614
-0.202526
-0.199363
-0.196247
-0.19312
-0.189958
-0.186799
-0.183727
-0.180815
-0.178103
-0.17561
-0.173345
-0.171296
-0.16944
-0.167736
-0.166131
-0.164559
-0.162949
-0.161221
-0.159296
-0.157097
-0.154552
-0.151599
-0.148191
-0.144295
-0.139895
-0.134996
-0.129616
-0.123794
-0.117579
-0.111034
-0.104231
-0.0972443
-0.0901544
-0.0830393
-0.0759754
-0.0690348
-0.0622843
-0.055784
-0.0495873
-0.0437406
-0.0382831
-0.0332462
-0.0286543
-0.0245246
-0.0208679
-0.0176871
-0.0149794
-0.0127335
-0.0109326
-0.00954987
-0.0085546
-0.00790543
-0.00756034
-0.00746431
-0.00756324
-0.0077877
-0.00807615
-0.00835258
-0.00856052
-0.0086256
-0.00849961
-0.00810888
-0.00742837
-0.00639596
-0.00503425
-0.00329139
-0.00125702
-0.206429
-0.205936
-0.204907
-0.20345
-0.201631
-0.1995
-0.197127
-0.194595
-0.191925
-0.18911
-0.186221
-0.183359
-0.180592
-0.177948
-0.175447
-0.173103
-0.170924
-0.168898
-0.167007
-0.165217
-0.163483
-0.161751
-0.159958
-0.158041
-0.155932
-0.153568
-0.150891
-0.147849
-0.144405
-0.140533
-0.136221
-0.131474
-0.12631
-0.120761
-0.114872
-0.108697
-0.102297
-0.0957374
-0.0890878
-0.0824169
-0.075792
-0.069277
-0.0629316
-0.0568098
-0.0509602
-0.0454249
-0.0402396
-0.0354329
-0.0310275
-0.0270394
-0.0234787
-0.0203482
-0.0176455
-0.0153602
-0.0134771
-0.0119718
-0.0108173
-0.00997539
-0.0094083
-0.00906455
-0.00889761
-0.00884395
-0.00885382
-0.0088563
-0.00880825
-0.00863547
-0.00831038
-0.00775708
-0.00697902
-0.00590328
-0.0045859
-0.00295463
-0.0011306
-0.198107
-0.198052
-0.197467
-0.196463
-0.195112
-0.193459
-0.191538
-0.189387
-0.187061
-0.184629
-0.182158
-0.179689
-0.177247
-0.174861
-0.172559
-0.170359
-0.168267
-0.166276
-0.164369
-0.162519
-0.160688
-0.158832
-0.156901
-0.154839
-0.152594
-0.150112
-0.147346
-0.144256
-0.14081
-0.136988
-0.132783
-0.128198
-0.123251
-0.11797
-0.112393
-0.106567
-0.100545
-0.094385
-0.0881459
-0.0818886
-0.0756721
-0.0695531
-0.0635846
-0.0578152
-0.0522885
-0.0470425
-0.0421096
-0.0375163
-0.0332834
-0.0294257
-0.0259527
-0.022867
-0.0201665
-0.0178417
-0.0158792
-0.0142567
-0.0129502
-0.0119247
-0.0111469
-0.01057
-0.0101548
-0.00984367
-0.00959641
-0.00934734
-0.00906484
-0.00867826
-0.008175
-0.00748067
-0.00661655
-0.00550631
-0.00422363
-0.00268643
-0.00102658
-0.190172
-0.190511
-0.190326
-0.189725
-0.18878
-0.187532
-0.186012
-0.184259
-0.182333
-0.18029
-0.178179
-0.176021
-0.173846
-0.171684
-0.169562
-0.167497
-0.165492
-0.163543
-0.161637
-0.15975
-0.157853
-0.155908
-0.153874
-0.151708
-0.149366
-0.146804
-0.143984
-0.140874
-0.137449
-0.133694
-0.129604
-0.125182
-0.120445
-0.115418
-0.110133
-0.104631
-0.0989586
-0.0931651
-0.0873028
-0.0814246
-0.0755823
-0.0698262
-0.0642033
-0.0587571
-0.0535267
-0.0485465
-0.043846
-0.0394493
-0.0353757
-0.0316385
-0.0282466
-0.0252025
-0.0225044
-0.0201436
-0.0181083
-0.0163783
-0.0149323
-0.0137387
-0.0127689
-0.0119805
-0.0113407
-0.0107972
-0.0103181
-0.00984343
-0.00935095
-0.00877508
-0.00811363
-0.00729594
-0.0063538
-0.00521151
-0.00395018
-0.00248381
-0.000944299
-0.182642
-0.183334
-0.183515
-0.183284
-0.182709
-0.181833
-0.180687
-0.179309
-0.177745
-0.17604
-0.174231
-0.172348
-0.170414
-0.168462
-0.166513
-0.164579
-0.162665
-0.160769
-0.158879
-0.156978
-0.15504
-0.153038
-0.150936
-0.1487
-0.146293
-0.143683
-0.140838
-0.137732
-0.134346
-0.130668
-0.126696
-0.122434
-0.117896
-0.113105
-0.108088
-0.102883
-0.0975283
-0.0920676
-0.0865465
-0.0810114
-0.0755079
-0.0700805
-0.064771
-0.0596183
-0.0546574
-0.0499194
-0.045431
-0.0412142
-0.0372866
-0.0336603
-0.0303436
-0.0273386
-0.0246441
-0.0222522
-0.0201525
-0.0183267
-0.0167564
-0.0154132
-0.0142724
-0.0132961
-0.0124566
-0.0117073
-0.0110228
-0.0103493
-0.00967145
-0.00892946
-0.00812817
-0.00720171
-0.00618744
-0.00501225
-0.0037587
-0.0023403
-0.000883729
-0.175533
-0.176543
-0.177057
-0.177163
-0.176926
-0.176389
-0.175581
-0.174536
-0.173291
-0.171882
-0.170344
-0.168706
-0.167004
-0.165249
-0.163462
-0.161655
-0.159834
-0.157999
-0.156139
-0.154242
-0.152288
-0.150254
-0.148112
-0.145835
-0.143394
-0.140761
-0.137913
-0.134829
-0.131494
-0.1279
-0.124046
-0.119937
-0.115586
-0.111012
-0.106241
-0.101305
-0.0962371
-0.0910764
-0.0858626
-0.0806364
-0.0754381
-0.070307
-0.0652804
-0.0603928
-0.0556759
-0.0511576
-0.046862
-0.0428091
-0.0390149
-0.0354904
-0.0322433
-0.0292757
-0.0265866
-0.0241689
-0.0220137
-0.0201045
-0.0184254
-0.016951
-0.0156601
-0.0145189
-0.0135044
-0.012575
-0.0117107
-0.0108634
-0.0100232
-0.00913596
-0.00821109
-0.00718779
-0.00610586
-0.00489562
-0.0036378
-0.002247
-0.000842478
-0.168843
-0.170135
-0.17095
-0.171361
-0.17143
-0.171198
-0.170693
-0.169944
-0.168983
-0.167842
-0.166555
-0.165149
-0.163651
-0.162077
-0.160442
-0.158758
-0.157032
-0.155263
-0.153445
-0.151569
-0.149617
-0.147573
-0.145415
-0.14312
-0.140667
-0.138032
-0.135199
-0.13215
-0.128876
-0.12537
-0.121632
-0.117668
-0.11349
-0.109117
-0.10457
-0.0998767
-0.0950681
-0.0901775
-0.0852399
-0.0802913
-0.0753672
-0.0705026
-0.0657307
-0.0610822
-0.0565857
-0.052266
-0.0481453
-0.0442413
-0.0405687
-0.0371378
-0.0339554
-0.0310236
-0.0283418
-0.0259036
-0.0237014
-0.0217206
-0.0199473
-0.0183589
-0.0169374
-0.0156528
-0.014486
-0.0134
-0.0123793
-0.0113808
-0.0103988
-0.00938441
-0.00835009
-0.00723973
-0.00609385
-0.00484615
-0.00357417
-0.0021939
-0.000817024
-0.162559
-0.164103
-0.165185
-0.165871
-0.166216
-0.166257
-0.166024
-0.16554
-0.164835
-0.163939
-0.16288
-0.161685
-0.160376
-0.158968
-0.157477
-0.155913
-0.154281
-0.152584
-0.150817
-0.148972
-0.147039
-0.145002
-0.142846
-0.140553
-0.138105
-0.135486
-0.13268
-0.129678
-0.12647
-0.123053
-0.119428
-0.115603
-0.111587
-0.107397
-0.103054
-0.0985815
-0.0940066
-0.0893591
-0.0846698
-0.0799705
-0.0752928
-0.0706677
-0.0661248
-0.0616917
-0.0573938
-0.0532537
-0.0492912
-0.0455225
-0.0419609
-0.0386158
-0.0354936
-0.0325962
-0.0299234
-0.0274696
-0.0252282
-0.0231863
-0.021332
-0.0196453
-0.0181109
-0.0167022
-0.0154034
-0.0141817
-0.0130251
-0.0118951
-0.0107894
-0.00966339
-0.00853176
-0.00734254
-0.00613596
-0.00484877
-0.00355494
-0.00217167
-0.000803969
-0.156669
-0.158434
-0.159755
-0.160686
-0.161278
-0.161567
-0.161576
-0.161332
-0.160859
-0.160184
-0.159334
-0.158331
-0.157195
-0.155942
-0.154586
-0.153137
-0.1516
-0.149977
-0.148267
-0.146465
-0.144561
-0.142546
-0.140406
-0.138129
-0.135701
-0.133109
-0.130342
-0.127393
-0.124256
-0.120929
-0.117415
-0.113719
-0.109854
-0.105834
-0.101676
-0.0974037
-0.0930399
-0.0886113
-0.0841453
-0.0796701
-0.0752138
-0.070804
-0.0664671
-0.0622278
-0.0581091
-0.0541311
-0.0503118
-0.0466659
-0.0432055
-0.0399392
-0.0368729
-0.0340086
-0.0313462
-0.028881
-0.0266073
-0.0245138
-0.0225903
-0.0208192
-0.0191875
-0.0176716
-0.0162585
-0.0149193
-0.0136448
-0.0124005
-0.0111864
-0.00996218
-0.0087437
-0.00748257
-0.00621835
-0.00489028
-0.00356896
-0.00217241
-0.000800321
-0.151159
-0.153119
-0.154651
-0.155801
-0.156615
-0.157124
-0.157353
-0.157324
-0.157061
-0.156586
-0.155925
-0.155097
-0.154122
-0.153014
-0.151785
-0.150446
-0.149001
-0.147455
-0.145807
-0.144054
-0.142189
-0.140205
-0.138094
-0.135844
-0.133446
-0.130891
-0.128171
-0.125281
-0.122217
-0.118979
-0.115571
-0.111999
-0.108274
-0.104409
-0.100421
-0.0963301
-0.0921572
-0.0879261
-0.0836611
-0.0793874
-0.0751301
-0.0709138
-0.0667623
-0.0626976
-0.0587403
-0.0549087
-0.051219
-0.0476845
-0.0443164
-0.0411224
-0.0381081
-0.0352755
-0.0326247
-0.0301517
-0.0278518
-0.0257149
-0.0237326
-0.0218891
-0.0201737
-0.0185653
-0.0170536
-0.0156126
-0.0142356
-0.0128916
-0.0115825
-0.0102715
-0.00897521
-0.00764824
-0.00632932
-0.00495967
-0.00360702
-0.00218977
-0.000803572
-0.146015
-0.148147
-0.149865
-0.15121
-0.152222
-0.152929
-0.153355
-0.15352
-0.153445
-0.153153
-0.152663
-0.151996
-0.151168
-0.150195
-0.149086
-0.147852
-0.146498
-0.145029
-0.143445
-0.141746
-0.139926
-0.137982
-0.135907
-0.133693
-0.131334
-0.128823
-0.126155
-0.123327
-0.120337
-0.117187
-0.11388
-0.110425
-0.10683
-0.103108
-0.0992756
-0.0953495
-0.0913495
-0.0872966
-0.0832127
-0.0791204
-0.0750421
-0.0709999
-0.0670151
-0.0631076
-0.0592958
-0.0555964
-0.052024
-0.0485907
-0.0453066
-0.042179
-0.039213
-0.0364107
-0.0337724
-0.0312947
-0.0289737
-0.0268007
-0.0247684
-0.0228631
-0.0210758
-0.0193878
-0.0177908
-0.0162616
-0.0147954
-0.0133643
-0.0119718
-0.0105838
-0.00921752
-0.00783009
-0.00645939
-0.00504817
-0.0036618
-0.00221871
-0.000811711
-0.141226
-0.143508
-0.145389
-0.146907
-0.148095
-0.14898
-0.149582
-0.149921
-0.150017
-0.149889
-0.149555
-0.149035
-0.148344
-0.147495
-0.146499
-0.145364
-0.144099
-0.142706
-0.141188
-0.139546
-0.137777
-0.135878
-0.133844
-0.131673
-0.129358
-0.126896
-0.124284
-0.121519
-0.118604
-0.115539
-0.11233
-0.108983
-0.105509
-0.10192
-0.0982286
-0.0944526
-0.0906092
-0.0867173
-0.0827967
-0.0788677
-0.0749505
-0.071065
-0.0672302
-0.0634642
-0.0597836
-0.0562035
-0.0527371
-0.0493956
-0.0461881
-0.0431214
-0.0402004
-0.0374269
-0.0348017
-0.0323218
-0.0299842
-0.0277812
-0.0257068
-0.0237488
-0.0218997
-0.0201432
-0.0184724
-0.0168666
-0.0153228
-0.0138155
-0.0123494
-0.0108929
-0.00946362
-0.00802062
-0.00660107
-0.00514888
-0.0037276
-0.00225538
-0.000823174
-0.136779
-0.139191
-0.141216
-0.142886
-0.14423
-0.145273
-0.146034
-0.146529
-0.146778
-0.146799
-0.146608
-0.146222
-0.145656
-0.144922
-0.144032
-0.142992
-0.141811
-0.140493
-0.139042
-0.137458
-0.135742
-0.133892
-0.131905
-0.12978
-0.127513
-0.125103
-0.122548
-0.119848
-0.117006
-0.114023
-0.110906
-0.107662
-0.104301
-0.100832
-0.0972711
-0.0936316
-0.08993
-0.0861836
-0.0824103
-0.0786285
-0.0748562
-0.0711116
-0.0674118
-0.0637732
-0.0602109
-0.0567384
-0.0533679
-0.0501096
-0.0469719
-0.043961
-0.0410816
-0.0383355
-0.0357238
-0.0332439
-0.0308934
-0.0286657
-0.0265557
-0.0245528
-0.0226509
-0.0208353
-0.0191008
-0.0174285
-0.015817
-0.0142429
-0.0127118
-0.0111942
-0.00970805
-0.00821395
-0.00674851
-0.00525648
-0.00380002
-0.00229683
-0.000836764
-0.132662
-0.135187
-0.137338
-0.139141
-0.140624
-0.141807
-0.142709
-0.143345
-0.143732
-0.143887
-0.143825
-0.143562
-0.143111
-0.142484
-0.141691
-0.140741
-0.139641
-0.138396
-0.137011
-0.135486
-0.133824
-0.132025
-0.130087
-0.12801
-0.125794
-0.123437
-0.120941
-0.118305
-0.115534
-0.112631
-0.109601
-0.106453
-0.103195
-0.0998382
-0.0963954
-0.0928799
-0.0893069
-0.0856919
-0.0820515
-0.078402
-0.0747602
-0.0711423
-0.0675639
-0.0640399
-0.060584
-0.0572086
-0.0539248
-0.0507419
-0.0476677
-0.0447079
-0.041867
-0.0391469
-0.0365487
-0.0340704
-0.0317102
-0.0294622
-0.0273225
-0.0252815
-0.0233344
-0.0214679
-0.0196782
-0.0179482
-0.0162776
-0.0146448
-0.0130563
-0.0114841
-0.0099466
-0.0084056
-0.00689723
-0.00536688
-0.00387572
-0.00234084
-0.000851576
-0.128865
-0.131487
-0.133746
-0.135666
-0.137271
-0.13858
-0.139607
-0.140369
-0.14088
-0.141155
-0.141211
-0.141059
-0.140713
-0.140184
-0.139483
-0.138617
-0.137594
-0.136419
-0.135098
-0.133632
-0.132024
-0.130276
-0.128389
-0.126362
-0.124197
-0.121894
-0.119456
-0.116883
-0.114181
-0.111352
-0.108405
-0.105346
-0.102184
-0.0989298
-0.0955949
-0.0921922
-0.0887355
-0.0852392
-0.0817183
-0.0781881
-0.0746635
-0.0711594
-0.0676902
-0.0642692
-0.0609091
-0.0576211
-0.0544155
-0.0513008
-0.0482842
-0.0453711
-0.0425659
-0.0398702
-0.0372855
-0.0348102
-0.0324428
-0.0301784
-0.0280138
-0.0259404
-0.0239546
-0.0220444
-0.0202069
-0.0184268
-0.0167046
-0.0150202
-0.0133808
-0.01176
-0.0101761
-0.00859213
-0.00704382
-0.00547701
-0.00395216
-0.00238572
-0.000866931
-0.125375
-0.12808
-0.130434
-0.132456
-0.134168
-0.135587
-0.136726
-0.1376
-0.138222
-0.138606
-0.138767
-0.138717
-0.138467
-0.138029
-0.137412
-0.136625
-0.135674
-0.134566
-0.133306
-0.131898
-0.130344
-0.128647
-0.12681
-0.124833
-0.122719
-0.12047
-0.118088
-0.115576
-0.112939
-0.110182
-0.107311
-0.104335
-0.101261
-0.0981008
-0.0948643
-0.0915638
-0.0882122
-0.0848229
-0.0814097
-0.0779865
-0.0745672
-0.0711653
-0.067794
-0.0644654
-0.0611913
-0.057982
-0.0548468
-0.0517937
-0.0488294
-0.0459589
-0.0431864
-0.0405137
-0.0379422
-0.0354708
-0.0330984
-0.0308208
-0.0286354
-0.0265347
-0.0245158
-0.022568
-0.0206893
-0.0188656
-0.0170983
-0.0153685
-0.0136842
-0.0120199
-0.0103942
-0.00877099
-0.00718569
-0.00558451
-0.00402743
-0.00243023
-0.000882321
-0.122183
-0.124959
-0.127393
-0.129505
-0.131311
-0.132826
-0.134064
-0.135038
-0.135759
-0.136241
-0.136497
-0.136538