/*--------------------------------*- C++ -*----------------------------------*\
  =========                 |
  \\      /  F ield         | OpenFOAM: The Open Source CFD Toolbox
   \\    /   O peration     | Website:  https://openfoam.org
    \\  /    A nd           | Version:  7
     \\/     M anipulation  |
\*---------------------------------------------------------------------------*/
FoamFile
{
    version     2.0;
    format      ascii;
    class       surfaceScalarField;
    location    "24.999";
    object      phi;
}
// * * * * * * * * * * * * * * * * * * * * * * * * * * * * * * * * * * * * * //

dimensions      [0 3 -1 0 0 0 0];

internalField   nonuniform List<scalar> 
22551
(
-8.84399e-06
-6.65655e-10
-3.01312e-05
-1.57646e-09
-6.07903e-05
-2.21183e-09
-9.85155e-05
-2.63807e-09
-0.00014161
-2.91805e-09
-0.000188862
-3.10552e-09
-3.24065e-09
-9.20441e-05
-1.28645e-10
-0.00027408
-2.5317e-10
-0.000493332
-3.00079e-10
-0.000724151
-3.08653e-10
-0.000957596
-3.03003e-10
-0.00119206
-2.9363e-10
-0.00142805
-2.8347e-10
-2.73144e-10
-9.20441e-05
9.2044e-05
-0.00027408
0.000182036
-0.000493332
0.000219251
-0.000724151
0.000230819
-0.000957596
0.000233444
-0.00119206
0.000234462
-0.00142805
0.000235993
-0.0016664
0.000238344
-0.00190786
0.000241465
-0.00215315
0.000245288
-0.00240291
0.000249756
-0.00265773
0.000254825
-0.00291819
0.000260457
-0.00318481
0.000266623
-0.00345811
0.000273301
-0.00373859
0.000280479
-0.00402674
0.000288144
-0.00432297
0.000296238
-0.00462766
0.000304691
0.000313643
-0.00494131
-9.16035e-05
0.000183647
-0.000273014
0.000363447
-0.000491693
0.00043793
-0.00072202
0.000461146
-0.000955018
0.000466442
-0.00118905
0.000468497
-0.00142463
0.000471566
-0.00166255
0.000476271
-0.0019036
0.000482515
-0.00214848
0.000490161
-0.00239782
0.000499096
-0.00265222
0.000509231
-0.00291226
0.000520493
-0.00317846
0.00053282
-0.00345133
0.00054617
-0.00373137
0.00056052
-0.00401907
0.000575842
-0.00431485
0.000592024
-0.00461908
0.000608923
0.000626813
-0.00493225
-9.07235e-05
0.000274371
-0.000270884
0.000543607
-0.000488416
0.000655462
-0.000717758
0.000690489
-0.000949864
0.000698549
-0.00118304
0.000701677
-0.00141778
0.000706297
-0.00165487
0.000713365
-0.00189509
0.000722736
-0.00213913
0.000734205
-0.00238764
0.000747606
-0.00264121
0.000762803
-0.00290041
0.000779687
-0.00316575
0.000798167
-0.00343776
0.000818177
-0.00371693
0.000839686
-0.00400373
0.000862649
-0.00429861
0.000886904
-0.00460193
0.000912237
0.00093904
-0.00491415
-8.94061e-05
0.000363777
-0.000267691
0.000721892
-0.000483502
0.000871273
-0.000711367
0.000918354
-0.000942136
0.000929317
-0.00117403
0.000933574
-0.00140751
0.000939769
-0.00164335
0.000949209
-0.00188233
0.000961713
-0.00212513
0.000977007
-0.00237239
0.00099487
-0.00262471
0.00101512
-0.00288265
0.00103762
-0.00314672
0.00106224
-0.00341743
0.00108889
-0.00369529
0.00111754
-0.00398076
0.00114812
-0.00427428
0.00118043
-0.00457622
0.00121417
0.00124985
-0.00488703
-8.76549e-05
0.000451432
-0.00026344
0.000897676
-0.000476956
0.00108479
-0.00070285
0.00114425
-0.000931837
0.0011583
-0.00116203
0.00116377
-0.00139382
0.00117156
-0.00162801
0.00118339
-0.00186533
0.00119904
-0.00210648
0.00121816
-0.00235209
0.00124048
-0.00260274
0.00126578
-0.00285899
0.00129387
-0.00312137
0.00132461
-0.00339037
0.00135789
-0.00366647
0.00139364
-0.00395017
0.00143181
-0.00424188
0.00147214
-0.00454199
0.00151428
0.00155877
-0.00485091
-8.54744e-05
0.000536906
-0.000258136
0.00107034
-0.00046878
0.00129543
-0.00069221
0.00136768
-0.000918972
0.00138507
-0.00114704
0.00139183
-0.00137674
0.00140127
-0.00160885
0.0014155
-0.00184411
0.0014343
-0.0020832
0.00145725
-0.00232674
0.00148402
-0.00257532
0.00151436
-0.00282948
0.00154803
-0.00308973
0.00158487
-0.00335659
0.00162474
-0.00363052
0.00166757
-0.00391199
0.00171329
-0.00420145
0.00176161
-0.00449927
0.00181209
0.00186534
-0.00480583
-8.28703e-05
0.000619777
-0.000251787
0.00123926
-0.00045898
0.00150263
-0.000679452
0.00158815
-0.000903546
0.00160916
-0.00112906
0.00161734
-0.00135626
0.00162847
-0.00158589
0.00164513
-0.00181868
0.00166709
-0.00205531
0.00169387
-0.00229638
0.00172509
-0.00254247
0.00176045
-0.00279412
0.00179969
-0.00305185
0.0018426
-0.00331614
0.00188903
-0.00358746
0.0019389
-0.00386628
0.00199211
-0.00415305
0.00204837
-0.00444812
0.00210716
0.00216908
-0.00475186
-7.98497e-05
0.000699626
-0.0002444
0.00140381
-0.000447564
0.00170579
-0.00066458
0.00180517
-0.000885567
0.00183015
-0.00110812
0.0018399
-0.00133241
0.00185276
-0.00155916
0.00187188
-0.00178908
0.00189701
-0.00202283
0.00192762
-0.00226103
0.00196328
-0.00250423
0.00200365
-0.00275297
0.00204843
-0.00300775
0.00209738
-0.00326906
0.00215034
-0.00353735
0.00220719
-0.00381309
0.00226785
-0.00409671
0.002332
-0.00438859
0.00239904
0.00246954
-0.00468905
-7.64212e-05
0.000776048
-0.000235987
0.00156337
-0.000434538
0.00190434
-0.000647602
0.00201823
-0.000865043
0.00204759
-0.00108422
0.00205907
-0.0013052
0.00207374
-0.00152866
0.00209535
-0.00175532
0.00212366
-0.00198581
0.00215811
-0.00222073
0.00219821
-0.00246064
0.00224356
-0.00270606
0.00229385
-0.00295749
0.00234881
-0.0032154
0.00240825
-0.00348024
0.00247203
-0.00375247
0.00254008
-0.00403253
0.00261205
-0.00432077
0.00268729
0.00276625
-0.00461749
-7.25947e-05
0.000848642
-0.000226559
0.00171734
-0.000419911
0.00209769
-0.000628523
0.00222684
-0.000841981
0.00226105
-0.00105737
0.00227446
-0.00127464
0.00229101
-0.00149443
0.00231514
-0.00171743
0.00234666
-0.00194426
0.00238494
-0.00217552
0.00242946
-0.00241174
0.00247978
-0.00265345
0.00253555
-0.00290112
0.00259648
-0.00315522
0.00266235
-0.00341621
0.00273302
-0.00368451
0.00280839
-0.00396057
0.00288812
-0.00424475
0.00297146
0.00305878
-0.00453728
-6.83819e-05
0.000917024
-0.000216131
0.00186509
-0.000403695
0.00228526
-0.000607354
0.0024305
-0.000816394
0.00247009
-0.0010276
0.00248566
-0.00124077
0.00250419
-0.0014565
0.00253086
-0.00167545
0.00256561
-0.00189824
0.00260773
-0.00212544
0.00265666
-0.00235759
0.00271193
-0.00259518
0.00277314
-0.0028387
0.00284
-0.0030886
0.00291225
-0.00334531
0.00298973
-0.00360928
0.00307236
-0.00388093
0.00315977
-0.00416062
0.00325115
0.00334669
-0.00444852
-6.37962e-05
0.00098082
-0.00020472
0.00200601
-0.000385903
0.00246644
-0.000584104
0.0026287
-0.000788292
0.00267427
-0.000994909
0.00269228
-0.0012036
0.00271287
-0.00141488
0.00274215
-0.00162941
0.00278013
-0.00184778
0.0028261
-0.00207055
0.00287943
-0.00229823
0.00293961
-0.00253133
0.00300624
-0.0027703
0.00307897
-0.00301559
0.00315754
-0.00326764
0.00324178
-0.00352686
0.00333158
-0.0037937
0.00342661
-0.0040685
0.00352594
0.00362956
-0.00435137
-5.8853e-05
0.00103967
-0.000192347
0.0021395
-0.000366551
0.00264064
-0.000558785
0.00282094
-0.000757688
0.00287318
-0.000959327
0.00289392
-0.00116315
0.0029167
-0.00136963
0.00294862
-0.00157936
0.00298987
-0.00179293
0.00303968
-0.00201089
0.00309739
-0.00223374
0.00316246
-0.00246195
0.00323445
-0.00269599
0.00331301
-0.00293628
0.00339784
-0.00318326
0.00348875
-0.00343735
0.00358568
-0.003699
0.00368825
-0.00396851
0.00379546
0.003907
-0.00424596
-5.35699e-05
0.00109324
-0.000179035
0.00226497
-0.000345657
0.00280726
-0.00053141
0.00300669
-0.000724596
0.00306636
-0.000920871
0.0030902
-0.00111947
0.00311529
-0.00132076
0.00314992
-0.00152533
0.00319444
-0.00173375
0.0032481
-0.00194653
0.00331017
-0.00216417
0.00338009
-0.00238712
0.00345741
-0.00261585
0.00354173
-0.00285076
0.00363275
-0.00309227
0.00373027
-0.00334084
0.00383424
-0.00359691
0.00394433
-0.0038608
0.00405935
0.00417868
-0.00413248
-4.79667e-05
0.00114121
-0.000164811
0.00238181
-0.000323243
0.0029657
-0.000501996
0.00318545
-0.000689034
0.0032534
-0.000879563
0.00328073
-0.00107256
0.00330829
-0.00126832
0.00334568
-0.00146739
0.0033935
-0.00167029
0.003451
-0.00187754
0.00351742
-0.0020896
0.00359216
-0.00230693
0.00367474
-0.00252996
0.00376476
-0.0027591
0.00386189
-0.00299476
0.00396592
-0.00323739
0.00407687
-0.00348753
0.00419446
-0.0037455
0.00431733
0.0044443
-0.00401112
-4.20658e-05
0.00118328
-0.000149707
0.00248945
-0.000299334
0.00311532
-0.000470559
0.00335667
-0.000651017
0.00343386
-0.000835425
0.00346513
-0.00102248
0.00349535
-0.00121236
0.00353556
-0.00140557
0.00358671
-0.00160261
0.00364804
-0.00180397
0.00371878
-0.00201011
0.00379829
-0.00222146
0.00388608
-0.00243843
0.00398174
-0.00266145
0.00408491
-0.00289086
0.00419534
-0.00312714
0.00431314
-0.00337096
0.00443828
-0.00362279
0.00456916
0.00470368
-0.00388216
-3.58921e-05
0.00121917
-0.000133761
0.00258732
-0.000273962
0.00325552
-0.000437123
0.00351983
-0.000610566
0.0036073
-0.000788483
0.00364305
-0.000969254
0.00367612
-0.00115292
0.00371922
-0.00133994
0.00377372
-0.00153078
0.00383889
-0.00172592
0.00391392
-0.00192579
0.00399815
-0.00213079
0.00409108
-0.00234133
0.00419229
-0.00255782
0.0043014
-0.00278058
0.0044181
-0.00300999
0.00454255
-0.00324695
0.00467524
-0.00349253
0.00481474
0.00495702
-0.00374588
-2.9474e-05
0.00124864
-0.000117016
0.00267486
-0.000247159
0.00338567
-0.000401711
0.00367438
-0.000567703
0.00377329
-0.000738766
0.00381411
-0.000912917
0.00385027
-0.00109005
0.00389635
-0.00127055
0.00395423
-0.00145488
0.00402322
-0.00164347
0.00410251
-0.00183673
0.00419141
-0.00203505
0.0042894
-0.00223883
0.00439607
-0.00244849
0.00451106
-0.00266436
0.00463396
-0.00288664
0.00476483
-0.00311617
0.00490478
-0.0033552
0.00505377
0.00520488
-0.00360306
-2.28442e-05
0.00127149
-9.95224e-05
0.00275154
-0.000218967
0.00350511
-0.000364352
0.00381977
-0.000522454
0.00393139
-0.000686302
0.00397796
-0.000853512
0.00401748
-0.0010238
0.00406664
-0.00119748
0.00412791
-0.00137498
0.00420072
-0.0015567
0.00428423
-0.00174303
0.00437774
-0.00193433
0.0044807
-0.00213097
0.0045927
-0.00233333
0.00471342
-0.00254174
0.00484238
-0.00275618
0.00497927
-0.00297672
0.00512532
-0.00320727
0.00528432
0.00545117
-0.00345357
-1.60441e-05
0.00128753
-8.13343e-05
0.00281683
-0.000189429
0.00361321
-0.000325083
0.00395542
-0.000474847
0.00408116
-0.000631124
0.00413424
-0.000791081
0.00417744
-0.00095422
0.00422977
-0.00112078
0.00429447
-0.00129116
0.00437109
-0.00146571
0.00445879
-0.00164481
0.00455684
-0.00182878
0.00466467
-0.00201797
0.00478189
-0.00221274
0.00490819
-0.00241362
0.00504326
-0.00262098
0.00518663
-0.00283425
0.00533859
-0.00305366
0.00550373
0.0057004
-0.00330289
-9.14259e-06
0.00129667
-6.25019e-05
0.00287019
-0.000158592
0.0037093
-0.000283946
0.00408077
-0.000424918
0.00422213
-0.000573268
0.00428259
-0.00072567
0.00432984
-0.000881379
0.00438548
-0.00104055
0.00445364
-0.00120351
0.00453406
-0.00137061
0.00462589
-0.00154218
0.00472841
-0.00171854
0.00484103
-0.00189997
0.00496332
-0.00208681
0.00509503
-0.00227945
0.00523591
-0.00247829
0.00538547
-0.0026836
0.00554389
-0.0028954
0.00571553
0.00590492
-0.00309992
-2.35587e-06
0.00129903
-4.30385e-05
0.00291087
-0.000126514
0.00379277
-0.000240998
0.00419526
-0.000372706
0.00435384
-0.000512774
0.00442266
-0.000657327
0.00447439
-0.000805336
0.00453349
-0.000956837
0.00460514
-0.00111212
0.00468934
-0.0012715
0.00478527
-0.00143527
0.00489219
-0.00160373
0.00500949
-0.00177713
0.00513672
-0.00195571
0.00527361
-0.00213978
0.00541997
-0.00232973
0.00557542
-0.00252589
0.00574005
-0.00272735
0.00591699
0.00610993
-0.00293235
5.03578e-06
0.00129399
-2.28308e-05
0.00293874
-9.32682e-05
0.00386321
-0.000196312
0.0042983
-0.000318261
0.00447579
-0.000449686
0.00455408
-0.000586104
0.00461081
-0.000726155
0.00467354
-0.000869739
0.00474873
-0.00101709
0.00483669
-0.00116849
0.00493667
-0.00132421
0.00504791
-0.00148452
0.00516979
-0.00164964
0.00530184
-0.0018198
0.00544378
-0.00199531
0.00559548
-0.00217663
0.00575674
-0.00236436
0.00592779
-0.00255828
0.0061109
0.00630705
-0.0027554
1.23282e-05
0.00128166
-5.19406e-07
0.00295159
-5.89991e-05
0.00392169
-0.000149944
0.00438925
-0.000261633
0.00458748
-0.000384057
0.00467651
-0.00051206
0.00473882
-0.000643904
0.00480539
-0.000779335
0.00488416
-0.000918522
0.00497588
-0.00106171
0.00507986
-0.00120914
0.00519534
-0.00136106
0.00532171
-0.0015177
0.00545848
-0.00167931
0.00560538
-0.00184619
0.00576236
-0.00201888
0.00592943
-0.00219788
0.00610679
-0.00238246
0.00629548
0.00649479
-0.00257019
1.90475e-05
0.00126262
1.79162e-05
0.00295272
-2.39117e-05
0.00396352
-0.000102025
0.00446736
-0.000202918
0.00468837
-0.00031595
0.00478954
-0.000435254
0.00485812
-0.000558656
0.00492879
-0.000685711
0.00501121
-0.000816511
0.00510668
-0.000951264
0.00521461
-0.00109019
0.00533427
-0.00123351
0.00546503
-0.00138147
0.00560643
-0.00153431
0.00575822
-0.00169236
0.00592041
-0.00185608
0.00609315
-0.00202583
0.00627654
-0.00220079
0.00647044
0.0066731
-0.0023791
2.55863e-05
0.00123703
3.81318e-05
0.00294017
1.21917e-05
0.00398946
-5.2805e-05
0.00453236
-0.000142202
0.00477777
-0.000245442
0.00489278
-0.000355757
0.00496844
-0.000470487
0.00504352
-0.000588956
0.00512968
-0.000711164
0.00522889
-0.000837276
0.00534072
-0.000967487
0.00546448
-0.00110201
0.00559955
-0.00124106
0.00574548
-0.0013849
0.00590206
-0.00153383
0.00606935
-0.00168824
0.00624756
-0.00184833
0.00643663
-0.00201345
0.00663556
0.00684205
-0.0021824
3.20363e-05
0.00120499
5.84558e-05
0.00291376
4.77712e-05
0.00400014
-1.57468e-06
0.0045817
-7.95502e-05
0.00485574
-0.000172609
0.00498584
-0.000273634
0.00506946
-0.000379474
0.00514936
-0.000489164
0.00523937
-0.000602587
0.00534231
-0.000719864
0.005458
-0.000841162
0.00558578
-0.00096667
0.00572506
-0.0010966
0.00587541
-0.0012312
0.00603667
-0.00137076
0.0062089
-0.00151554
0.00639235
-0.00166566
0.00658675
-0.0018206
0.00679051
0.00700116
-0.00197971
3.82311e-05
0.00116676
7.86375e-05
0.00287335
8.42206e-05
0.00399456
4.92843e-05
0.00461664
-1.53666e-05
0.00492039
-9.75613e-05
0.00506803
-0.000188973
0.00516087
-0.000285707
0.00524609
-0.000386432
0.0053401
-0.000490892
0.00544677
-0.000599152
0.00556626
-0.000711351
0.00569798
-0.000827656
0.00584136
-0.000948262
0.00599602
-0.0010734
0.0061618
-0.00120331
0.00633881
-0.0013382
0.00652723
-0.00147809
0.00672664
-0.00162259
0.00693501
0.00714995
-0.00177138
4.40646e-05
0.0011227
9.84934e-05
0.00281892
0.000120912
0.00397214
0.000101875
0.00463568
5.05476e-05
0.00497172
-2.04661e-05
0.00513905
-0.000101878
0.00524228
-0.000189278
0.00533349
-0.000280861
0.00543168
-0.000376194
0.0055421
-0.00047527
0.00566534
-0.000578198
0.00580091
-0.000685115
0.00594828
-0.000796201
0.00610711
-0.000911658
0.00627726
-0.00103169
0.00645884
-0.00115642
0.00665197
-0.00128585
0.00685606
-0.0014197
0.00706886
0.00728812
-0.00155787
4.94574e-05
0.00107324
0.00011779
0.00275059
0.000157526
0.00393241
0.000155141
0.00463806
0.000117971
0.00500889
5.87643e-05
0.00519825
-1.26032e-05
0.00531365
-9.02963e-05
0.00541119
-0.000172571
0.00551395
-0.000258609
0.00562814
-0.000348356
0.00575508
-0.00044185
0.0058944
-0.00053921
0.00604564
-0.00064059
0.00620849
-0.000746161
0.00638283
-0.000856082
0.00656876
-0.000970438
0.00676633
-0.0010892
0.00697482
-0.00121221
0.00719187
0.00741541
-0.0013395
5.43231e-05
0.00101892
0.000136269
0.00266864
0.00019372
0.00387495
0.000208764
0.00462302
0.000186595
0.00503106
0.000139827
0.00524502
7.9245e-05
0.00537423
1.10002e-05
0.00547943
-6.17041e-05
0.00558666
-0.000138272
0.00570471
-0.000218558
0.00583537
-0.000302461
0.0059783
-0.000390111
0.00613329
-0.000481613
0.00629999
-0.000577108
0.00647833
-0.000676717
0.00666837
-0.000780487
0.0068701
-0.000888403
0.00708274
-0.0010004
0.00730387
0.00753158
-0.00111658
5.85776e-05
0.000960341
0.000153667
0.00257355
0.000229115
0.00379951
0.000262393
0.00458974
0.000256117
0.00503733
0.000222491
0.00527865
0.000173047
0.00542368
0.000115034
0.00553744
5.17462e-05
0.00564995
-1.54553e-05
0.00577191
-8.60449e-05
0.00590596
-0.000160199
0.00605246
-0.000238004
0.00621109
-0.000319459
0.00638144
-0.000404714
0.00656358
-0.000493831
0.00675748
-0.000586838
0.0069631
-0.000683759
0.00717966
-0.000784607
0.00740472
0.00763638
-0.000889408
6.2146e-05
0.000898195
0.000169719
0.00246598
0.000263293
0.00370593
0.00031559
0.00453744
0.000326177
0.00502675
0.000306501
0.00529832
0.00026872
0.00546146
0.00022104
0.00558513
0.000167628
0.00570336
0.000110159
0.00582938
4.90998e-05
0.00596702
-1.53602e-05
0.00611692
-8.30994e-05
0.00627883
-0.000154338
0.00645268
-0.000229211
0.00663845
-0.000307672
0.00683594
-0.000389732
0.00704517
-0.000475513
0.00726544
-0.000565091
0.0074943
0.00772962
-0.000658332
6.49642e-05
0.000833231
0.000184143
0.0023468
0.000295794
0.00359428
0.000367846
0.00446539
0.000396332
0.00499826
0.000391531
0.00530312
0.000366045
0.00548694
0.000329075
0.00562209
0.000285656
0.00574678
0.000237961
0.00587708
0.000186763
0.00601822
0.000132283
0.0061714
7.45006e-05
0.00633661
1.34202e-05
0.00651376
-5.08541e-05
0.00670273
-0.000118517
0.00690361
-0.000189479
0.00711613
-0.000263954
0.00733992
-0.000342169
0.00757251
0.00781126
-0.000423804
6.69818e-05
0.000766249
0.000196644
0.00221714
0.000326115
0.00346481
0.000418573
0.00437293
0.00046605
0.00495079
0.000477172
0.005292
0.000464735
0.00549938
0.000438924
0.00564791
0.000405721
0.00577998
0.000367926
0.00591487
0.000326615
0.00605953
0.000282136
0.00621588
0.000234583
0.00638417
0.000183981
0.00656437
0.000130255
0.00675645
7.34139e-05
0.00696045
1.34056e-05
0.00717613
-4.9359e-05
0.00740268
-0.000115625
0.00763878
0.00788201
-0.000186377
6.81671e-05
0.000698082
0.000206968
0.00207834
0.000353724
0.00331805
0.000467103
0.00425955
0.000534693
0.0048832
0.000562915
0.00526378
0.00056443
0.00549787
0.000550328
0.00566201
0.000527633
0.00580268
0.00049988
0.00594262
0.000468538
0.00609087
0.000434135
0.00625028
0.000396842
0.00642146
0.000356707
0.0066045
0.000313744
0.00679942
0.000267961
0.00700623
0.00021941
0.00722469
0.000167924
0.00745417
0.000113217
0.00769349
0.00794164
5.35848e-05
6.8507e-05
0.000629575
0.000214882
0.00193196
0.000378061
0.00315488
0.000512682
0.00412493
0.000601502
0.00479438
0.000648134
0.00521715
0.000664673
0.00548133
0.000662974
0.00566371
0.000651159
0.00581449
0.000633626
0.00596016
0.000612343
0.00611215
0.000588078
0.00627454
0.0005611
0.00644844
0.000531514
0.00663409
0.000499368
0.00683156
0.000464684
0.00704092
0.000427458
0.00726191
0.00038765
0.00749397
0.000345094
0.00773604
0.00798653
0.000300205
6.80081e-05
0.000561567
0.000220189
0.00177978
0.00039856
0.00297651
0.000554477
0.00396901
0.000665592
0.00468326
0.000732061
0.00515068
0.000764888
0.0054485
0.000776462
0.00565213
0.000776017
0.00581494
0.000768938
0.00596724
0.000757822
0.00612327
0.000743751
0.00628862
0.000727138
0.00646505
0.00070815
0.00665307
0.000686871
0.00685284
0.000663352
0.00706444
0.000637613
0.00728765
0.000609667
0.00752192
0.000579463
0.00776625
0.00801906
0.000546937
6.66981e-05
0.000494869
0.000222746
0.00162373
0.000414669
0.00278458
0.000591585
0.0037921
0.000725935
0.00454891
0.000813762
0.00506285
0.00086435
0.00539791
0.000890283
0.0056262
0.000901857
0.00580336
0.000905556
0.00596354
0.000904747
0.00612408
0.000900932
0.00629243
0.000894719
0.00647126
0.000886363
0.00666143
0.00087599
0.00686322
0.000863682
0.00707674
0.000849485
0.00730185
0.000833394
0.00753801
0.000815284
0.00778436
0.00803936
0.000794982
6.46267e-05
0.000430242
0.000222477
0.00146588
0.000425885
0.00258117
0.000623057
0.00359493
0.000781367
0.0043906
0.000892117
0.0049521
0.000962152
0.00532788
0.00100378
0.00558457
0.00102823
0.00577891
0.00104316
0.0059486
0.00105286
0.00611438
0.00105938
0.00628591
0.0010636
0.00646704
0.0010659
0.00665914
0.00106644
0.00686267
0.00106536
0.00707783
0.0010627
0.00730451
0.00105843
0.00754228
0.0010524
0.00779039
0.00804732
0.00104444
6.18644e-05
0.000368377
0.000219392
0.00130836
0.000431789
0.00236878
0.000647935
0.00337878
0.000830595
0.00420794
0.000965803
0.00481689
0.00105717
0.00523651
0.00111612
0.00552561
0.00115456
0.00574047
0.00118136
0.00592181
0.00120187
0.00609387
0.00121884
0.00626894
0.00123353
0.00645235
0.00124648
0.00664619
0.00125796
0.00685119
0.00126809
0.00706769
0.00127696
0.00729565
0.00128453
0.0075347
0.00129064
0.00778428
0.0080429
0.00129506
5.85005e-05
0.000309877
0.000213591
0.00115326
0.000432094
0.00215027
0.000665306
0.00314557
0.000872228
0.00400102
0.00103328
0.00465584
0.00114801
0.00512179
0.00122622
0.00544739
0.0012801
0.00568659
0.00131965
0.00588226
0.00135142
0.0060621
0.00137903
0.00624133
0.00140425
0.00642714
0.00142786
0.00662257
0.00145025
0.00682881
0.00147159
0.00704635
0.00149198
0.00727526
0.00151141
0.00751527
0.00152975
0.00776595
0.00802601
0.00154663
5.46394e-05
0.000255238
0.000205271
0.00100263
0.000426686
0.00192886
0.000674363
0.00289789
0.000904818
0.00377056
0.00109281
0.00446784
0.001233
0.0049816
0.00133273
0.00534767
0.00140385
0.00561547
0.00145735
0.00582876
0.00150104
0.00601841
0.0015396
0.00620277
0.00157545
0.00639128
0.00160975
0.00658827
0.00164303
0.00679553
0.00167556
0.00701381
0.00170746
0.00724336
0.00173876
0.00748397
0.00176935
0.00773536
0.0079966
0.00179876
5.03959e-05
0.000204842
0.000194715
0.000858314
0.000415658
0.00170792
0.000674492
0.00263906
0.000926947
0.00351811
0.00114247
0.00425232
0.00131017
0.00481391
0.00143391
0.00522393
0.00152452
0.00552485
0.00159357
0.00575971
0.00165015
0.00596184
0.00170013
0.00615278
0.00174682
0.0063446
0.00179185
0.00654323
0.00183603
0.00675136
0.00187972
0.00697012
0.0019231
0.00719997
0.00196624
0.00744084
0.00200908
0.00769252
0.00795467
0.00205101
4.58902e-05
0.000158951
0.000182283
0.000721921
0.000399334
0.00149086
0.000665361
0.00237303
0.000937323
0.00324615
0.00118024
0.0040094
0.00137721
0.00461694
0.00152765
0.00507348
0.00164042
0.00541208
0.00172712
0.00567302
0.00179794
0.00589101
0.00186011
0.00609062
0.00191797
0.00628674
0.00197385
0.00648735
0.00202892
0.00669629
0.00208374
0.0069153
0.00213857
0.00714515
0.00219349
0.00738591
0.00224857
0.00763744
0.00790023
0.002303
4.1242e-05
0.000117709
0.000168389
0.000594774
0.000378268
0.00128098
0.000647002
0.0021043
0.000934925
0.00295822
0.00120408
0.00374024
0.00143157
0.00438946
0.0016114
0.00489365
0.00174938
0.00527411
0.00185636
0.00556604
0.00194331
0.00580406
0.00201879
0.00601514
0.0020884
0.00621713
0.00215537
0.00642037
0.00222139
0.00663026
0.00228731
0.00684939
0.00235353
0.00707893
0.00242019
0.00731926
0.00248745
0.00757018
0.00783335
0.00255433
3.65649e-05
8.11444e-05
0.000153478
0.000477861
0.000353217
0.00108125
0.000619876
0.00183764
0.000919155
0.00265895
0.00121215
0.00344725
0.0014705
0.0041311
0.00168216
0.00468199
0.00184866
0.00510761
0.00197913
0.00543557
0.00208472
0.00569847
0.00217516
0.0059247
0.00225745
0.00613484
0.00233594
0.00634188
0.00241307
0.00655314
0.0024901
0.00677236
0.00256766
0.00700137
0.00264597
0.00724094
0.00272536
0.00749079
0.00775408
0.00280462
3.19624e-05
4.9182e-05
0.000137996
0.000371828
0.000325088
0.000894154
0.000584886
0.00157784
0.000889999
0.00235383
0.00120297
0.00313428
0.00149127
0.0038428
0.00173653
0.00443673
0.00193493
0.0049092
0.00209262
0.00527788
0.00222005
0.00557104
0.00232778
0.00581697
0.00242419
0.00603843
0.00251496
0.00625111
0.00260352
0.00646458
0.00269174
0.00668414
0.00278061
0.00691251
0.00287049
0.00715106
0.00296193
0.00739936
0.00766252
0.00305349
2.75235e-05
2.16586e-05
0.000122369
0.000276982
0.000294877
0.000721646
0.000543344
0.00132937
0.000848143
0.00204903
0.00117572
0.0028067
0.00149141
0.00352711
0.00177091
0.00415723
0.00200423
0.00467588
0.0021932
0.00508892
0.00234643
0.00541781
0.00247458
0.00568882
0.00258724
0.00592578
0.00269154
0.00614681
0.00279214
0.00636397
0.00289179
0.00658449
0.002992
0.0068123
0.00309339
0.00704967
0.00319679
0.00729596
0.00755876
0.00330055
2.33215e-05
-1.66291e-06
0.000106981
0.000193323
0.000263589
0.000565038
0.000496869
0.00109609
0.000795021
0.00175088
0.00113048
0.00247124
0.00146902
0.00318857
0.00178174
0.00384451
0.00205211
0.00440551
0.00227641
0.00486462
0.00246001
0.00523421
0.00261265
0.00553618
0.00274458
0.00579384
0.00286437
0.00602702
0.00297812
0.00625022
0.0030897
0.0064729
0.00320142
0.00670058
0.00331429
0.0069368
0.00342955
0.0071807
0.00744291
0.00354541
1.94134e-05
-2.10764e-05
9.2162e-05
0.000120574
0.000232179
0.000425021
0.000447254
0.000881019
0.000732748
0.00146539
0.00106843
0.00213556
0.00142328
0.00283373
0.00176594
0.00350185
0.0020739
0.00409755
0.00233699
0.00460153
0.00255586
0.00501534
0.00273794
0.00535411
0.00289327
0.00563851
0.00303147
0.00588881
0.00316018
0.00612151
0.00328466
0.00634842
0.00340831
0.00657693
0.00353274
0.00681237
0.00365982
0.00705362
0.00731505
0.00378768
1.58386e-05
-3.6915e-05
7.81803e-05
5.82326e-05
0.000201492
0.00030171
0.000396306
0.000686204
0.000663942
0.00119775
0.000991898
0.0018076
0.00135472
0.0024709
0.00172148
0.0031351
0.0020652
0.00375382
0.00236915
0.00429758
0.00262793
0.00475656
0.00284505
0.00513698
0.00302903
0.00545453
0.00318981
0.00572804
0.00333633
0.00597498
0.00347542
0.00620933
0.00361188
0.00644047
0.00374821
0.00667604
0.00388714
0.00691469
0.00717526
0.00402693
1.26247e-05
-4.95397e-05
6.52425e-05
5.61481e-06
0.000172239
0.000194713
0.000345712
0.00051273
0.000591469
0.000951994
0.000904203
0.00149487
0.00126557
0.00210953
0.00164798
0.00275269
0.00202262
0.00337919
0.00236706
0.00395314
0.00266922
0.00445441
0.00292709
0.00487911
0.00314598
0.00523564
0.00333488
0.00553913
0.00350345
0.00580642
0.00365997
0.00605281
0.00381087
0.00628957
0.0039599
0.00652702
0.00411095
0.00676364
0.00702349
0.00426271
9.78746e-06
-5.93272e-05
5.34975e-05
-3.80952e-05
0.00014498
0.000103231
0.000296934
0.000360776
0.000518162
0.000730765
0.000809339
0.00120369
0.00115964
0.00175923
0.00154725
0.00236508
0.0019446
0.00298183
0.0023258
0.00357194
0.0026724
0.00410781
0.00297579
0.00457572
0.00323628
0.00497516
0.00346018
0.00531523
0.00365668
0.00560992
0.00383499
0.00587451
0.00400319
0.00612136
0.00416652
0.00636369
0.00433039
0.00659977
0.00685947
0.00449442
7.33295e-06
-6.66601e-05
4.30414e-05
-7.38037e-05
0.000120126
2.61465e-05
0.000251149
0.000229753
0.000446581
0.000535334
0.000711518
0.000938751
0.00104202
0.00142873
0.00142339
0.00198371
0.00183232
0.0025729
0.00224248
0.00316178
0.00263085
0.00371944
0.00298215
0.00422442
0.00329024
0.00466707
0.00355681
0.00504865
0.0037888
0.00537793
0.00399519
0.00566812
0.00418528
0.00593127
0.00436583
0.00618314
0.00454415
0.00642145
0.00668251
0.00472111
5.25914e-06
-7.19193e-05
3.39219e-05
-0.000102466
9.79412e-05
-3.78728e-05
0.000209228
0.000118466
0.00037884
0.000365722
0.000614719
0.000702872
0.000918463
0.00112499
0.00128257
0.00161961
0.00169006
0.00216541
0.00211749
0.00273435
0.00254022
0.00329671
0.00293771
0.00382693
0.00329697
0.00430781
0.0036134
0.00473222
0.00388956
0.00510176
0.00413237
0.00542531
0.00435123
0.00571241
0.00455392
0.00598045
0.00474967
0.0062257
0.00649065
0.00494153
3.55582e-06
-7.54751e-05
2.61415e-05
-0.000125052
7.85576e-05
-9.0289e-05
0.000171735
2.52887e-05
0.000316526
0.00022093
0.000522329
0.00049707
0.00079463
0.000852684
0.00113215
0.00128208
0.00152501
0.00177255
0.00195526
0.0023041
0.00240008
0.00285189
0.00283653
0.00339048
0.00324598
0.00389835
0.0036169
0.00436131
0.00394562
0.00477305
0.00423466
0.00513627
0.00449157
0.0054555
0.0047241
0.00574792
0.00494253
0.00600727
0.00628081
0.00515237
2.20392e-06
-7.7679e-05
1.96586e-05
-0.000142507
6.19786e-05
-0.000132609
0.000138939
-5.16719e-05
0.000260664
9.92056e-05
0.000436921
0.000320813
0.000675485
0.00061412
0.000979746
0.000977824
0.00134637
0.00140593
0.00176417
0.0018863
0.00221514
0.00240091
0.00267749
0.00292814
0.00312975
0.00344609
0.00355458
0.00393648
0.00394133
0.00438629
0.0042862
0.0047914
0.00459231
0.00514939
0.00486504
0.00547519
0.00511539
0.00575692
0.00604762
0.00534858
1.17485e-06
-7.88539e-05
1.43887e-05
-0.000155721
4.80889e-05
-0.000166309
0.00011084
-0.000114423
0.000211736
-1.68992e-06
0.000360161
0.000172388
0.000564845
0.000409435
0.000832136
0.000710533
0.00116385
0.00107422
0.00155541
0.00149473
0.00199525
0.00196107
0.00246589
0.0024575
0.0029467
0.00296528
0.0034174
0.00346578
0.00386161
0.00394208
0.00426825
0.00438476
0.0046346
0.00478303
0.00496017
0.00514962
0.00525345
0.00546364
0.00577623
0.00552483
4.32246e-07
-7.92861e-05
1.02053e-05
-0.000165494
3.66658e-05
-0.00019277
8.71975e-05
-0.000164955
0.000169733
-8.4225e-05
0.000292822
4.92982e-05
0.000465176
0.000237081
0.000694588
0.000481122
0.000986284
0.000782527
0.00134108
0.00113994
0.00175392
0.00154823
0.0022135
0.00199792
0.0027033
0.00247548
0.00320387
0.00296521
0.00369607
0.00344988
0.00416351
0.00391732
0.00459522
0.00435132
0.00498852
0.00475633
0.00533587
0.00511629
0.00546507
0.00564703
-7.80755e-08
-7.9208e-05
6.94448e-06
-0.000172516
2.73965e-05
-0.000213222
6.75646e-05
-0.000205123
0.00013423
-0.00015089
0.000234882
-5.13545e-05
0.000377601
9.43627e-05
0.000570473
0.00028825
0.000820516
0.000532484
0.0011322
0.000828254
0.00150588
0.00117455
0.00193664
0.00156717
0.00241392
0.0019982
0.00292249
0.00245664
0.00344409
0.00292828
0.00396088
0.00340053
0.00445511
0.00385709
0.00491791
0.00429353
0.00534575
0.00468846
0.00510044
0.00571037
-4.4858e-07
-7.87594e-05
4.41609e-06
-0.000177381
1.99035e-05
-0.000228709
5.13506e-05
-0.00023657
0.000104477
-0.000204017
0.000185669
-0.000132547
0.000302055
-2.20228e-05
0.000461271
0.000129033
0.000670844
0.000322911
0.000937214
0.000561883
0.00126444
0.000847322
0.00165288
0.00117872
0.00209818
0.0015529
0.00259109
0.00196373
0.00311743
0.00240194
0.00366167
0.00285629
0.00420456
0.00331419
0.00472994
0.00376815
0.00524156
0.00417684
0.00466341
0.00567859
-6.59406e-07
-7.81e-05
2.42789e-06
-0.000180468
1.37747e-05
-0.000240056
3.78752e-05
-0.000260671
7.95163e-05
-0.000245658
0.000144051
-0.000197082
0.000237556
-0.000115528
0.000366823
-2.33874e-07
0.000539033
0.000150701
0.000761258
0.000339659
0.00103954
0.000569045
0.0013778
0.000840455
0.00177676
0.00115395
0.00223311
0.00150738
0.00273861
0.00189644
0.00328214
0.00231276
0.0038484
0.00274793
0.00441612
0.00320044
0.00499244
0.00360052
0.00414653
0.00550932
-8.20548e-07
-7.72795e-05
7.85109e-07