/*--------------------------------*- C++ -*----------------------------------*\
  =========                 |
  \\      /  F ield         | OpenFOAM: The Open Source CFD Toolbox
   \\    /   O peration     | Website:  https://openfoam.org
    \\  /    A nd           | Version:  7
     \\/     M anipulation  |
\*---------------------------------------------------------------------------*/
FoamFile
{
    version     2.0;
    format      ascii;
    class       volVectorField;
    location    "5.001";
    object      U;
}
// * * * * * * * * * * * * * * * * * * * * * * * * * * * * * * * * * * * * * //

dimensions      [0 1 -1 0 0 0 0];

internalField   nonuniform List<vector> 
11400
(
(-0.522349 -0.00932307 1.22695e-20)
(-0.496708 -0.0123576 1.41643e-21)
(-0.464617 -0.0155137 -6.33863e-21)
(-0.42509 -0.0183533 -4.67815e-21)
(-0.379356 -0.0209114 5.16877e-21)
(-0.327942 -0.0230818 5.00145e-22)
(-0.271846 -0.0248275 -3.04085e-21)
(-0.21202 -0.0261215 2.89024e-21)
(-0.149587 -0.026912 -9.3009e-22)
(-0.0856133 -0.0273102 1.04865e-21)
(-0.0210736 -0.0272676 -6.85049e-22)
(0.0429672 -0.0267747 3.46801e-23)
(0.105633 -0.0259818 5.12974e-23)
(0.166288 -0.0249452 -5.68356e-22)
(0.2244 -0.0237248 -1.10069e-22)
(0.279583 -0.0223817 9.66682e-22)
(0.331593 -0.0209716 -1.09015e-21)
(0.380311 -0.0195415 -1.79239e-22)
(0.425719 -0.0181296 9.6597e-22)
(0.467878 -0.0167647 2.20976e-22)
(0.506906 -0.0154671 7.79076e-23)
(0.542953 -0.0142477 2.22693e-22)
(0.576199 -0.013113 -3.90044e-22)
(0.606837 -0.0120655 2.2896e-22)
(0.635069 -0.0111046 -1.43883e-22)
(0.661095 -0.0102276 -2.97217e-22)
(0.685107 -0.00942995 -1.87906e-22)
(0.707287 -0.00870635 5.91839e-22)
(0.727803 -0.00805084 2.439e-22)
(0.746812 -0.00745724 -3.55975e-22)
(0.764454 -0.00691939 4.19979e-22)
(0.780855 -0.00643127 -8.90971e-23)
(0.796127 -0.00598715 -2.67615e-22)
(0.810371 -0.00558162 -2.80175e-23)
(0.823672 -0.00520968 -4.50533e-22)
(0.836107 -0.00486673 5.72381e-22)
(0.847739 -0.00454864 -2.65122e-22)
(0.858623 -0.00425176 -5.015e-23)
(0.868808 -0.00397293 3.56998e-22)
(0.878333 -0.00370953 -2.90676e-22)
(0.887232 -0.00345948 2.34567e-22)
(0.895535 -0.00322119 -1.88991e-22)
(0.903268 -0.00299359 -2.37212e-22)
(0.910457 -0.00277603 3.43659e-23)
(0.917123 -0.00256823 1.42628e-22)
(0.923291 -0.00237017 2.82649e-23)
(0.928984 -0.00218201 2.7714e-22)
(0.934225 -0.00200403 -1.31385e-22)
(0.93904 -0.00183648 -1.99106e-22)
(0.943454 -0.00167963 -1.28161e-22)
(0.947493 -0.00153363 4.01455e-22)
(0.951183 -0.00139856 -1.94044e-22)
(0.954551 -0.00127438 4.48761e-23)
(0.957624 -0.00116095 -1.61565e-22)
(0.960427 -0.00105799 2.35109e-22)
(0.962986 -0.000965122 -2.12507e-22)
(0.965324 -0.000881844 1.54939e-22)
(0.967466 -0.00080755 2.52718e-23)
(0.969432 -0.000741539 -8.13005e-23)
(0.971243 -0.00068304 -6.81143e-23)
(0.972915 -0.000631235 2.04268e-22)
(0.974464 -0.000585295 -8.31512e-23)
(0.975904 -0.00054441 -5.27033e-23)
(0.977247 -0.00050782 7.79614e-25)
(0.978502 -0.00047484 2.85774e-23)
(0.979677 -0.000444873 1.22568e-24)
(0.98078 -0.00041742 7.50045e-24)
(0.981816 -0.000392058 3.86297e-26)
(0.982789 -0.000368498 -3.09631e-23)
(0.983703 -0.00034645 1.07469e-23)
(0.984562 -0.000325351 9.11536e-24)
(0.985372 -0.000305764 2.61489e-23)
(0.986135 -0.000287512 -2.37629e-23)
(0.986853 -0.000270416 7.15589e-24)
(0.98753 -0.000254416 1.18541e-23)
(0.988168 -0.000239465 -2.2766e-23)
(0.98877 -0.00022551 1.24191e-23)
(0.989337 -0.000212496 8.91219e-24)
(0.989872 -0.000200366 -3.28652e-24)
(0.990378 -0.000189066 2.65238e-23)
(0.990855 -0.000178539 -1.94606e-23)
(0.991307 -0.00016873 2.39815e-23)
(0.991734 -0.000159586 -7.03591e-24)
(0.992139 -0.000151054 -4.26509e-25)
(0.992523 -0.000143088 -2.18671e-24)
(0.992887 -0.000135642 6.09208e-24)
(0.993232 -0.000128675 -1.51886e-23)
(0.99356 -0.000122151 1.03175e-23)
(0.993872 -0.000116034 -8.4843e-25)
(0.994169 -0.000110294 -2.8537e-24)
(0.994451 -0.000104903 7.54549e-25)
(0.994719 -9.98348e-05 8.26799e-24)
(0.994975 -9.50673e-05 -6.83128e-24)
(0.995219 -9.05794e-05 6.80444e-24)
(0.995452 -8.63522e-05 -1.7015e-24)
(0.995674 -8.23686e-05 -7.63244e-24)
(0.995886 -7.86128e-05 5.47334e-24)
(0.996089 -7.50706e-05 4.15396e-24)
(0.996282 -7.1729e-05 -5.24953e-24)
(0.996468 -6.85761e-05 6.9729e-24)
(0.996645 -6.56008e-05 -5.17169e-24)
(0.996815 -6.27932e-05 9.11716e-25)
(0.996977 -6.01438e-05 4.4173e-25)
(0.997133 -5.76443e-05 4.0123e-24)
(0.997283 -5.52862e-05 -3.34422e-26)
(0.997426 -5.30631e-05 1.19571e-25)
(0.997564 -5.09664e-05 3.10141e-25)
(0.997697 -4.89932e-05 -1.04962e-24)
(0.997825 -4.71319e-05 3.75275e-26)
(0.997947 -4.53868e-05 -8.90223e-25)
(0.998067 -4.37364e-05 1.406e-24)
(0.998179 -4.22045e-05 -2.23885e-25)
(0.998293 -4.0738e-05 2.06784e-25)
(0.998394 -3.94167e-05 -2.64531e-25)
(0.998506 -3.80929e-05 5.22936e-26)
(0.998592 -3.70106e-05 2.82003e-25)
(0.998713 -3.57413e-05 1.67571e-25)
(0.998768 -3.50135e-05 3.66004e-26)
(0.998927 -3.35667e-05 -1.14226e-26)
(-0.469323 -0.0277455 -8.42326e-21)
(-0.443382 -0.0368342 1.93078e-20)
(-0.411708 -0.0461254 -7.60918e-21)
(-0.372855 -0.0545512 -6.30916e-21)
(-0.328038 -0.0621266 6.83835e-21)
(-0.277809 -0.0685537 6.28506e-23)
(-0.223129 -0.0737235 -7.80056e-21)
(-0.164881 -0.077605 6.2392e-21)
(-0.104255 -0.0799282 -9.41833e-22)
(-0.0422298 -0.0812243 -2.3129e-21)
(0.0203519 -0.080832 1.74943e-21)
(0.0823319 -0.0793949 5.78862e-22)
(0.142801 -0.0770411 -7.04356e-22)
(0.201229 -0.0739426 1.99438e-21)
(0.257118 -0.0702958 -2.50184e-21)
(0.310104 -0.066288 1.25851e-22)
(0.359968 -0.0620856 1.45419e-22)
(0.406608 -0.0578287 -2.52975e-21)
(0.450023 -0.0536298 1.09558e-21)
(0.490285 -0.0495743 1.42534e-21)
(0.527521 -0.0457218 9.20931e-22)
(0.561887 -0.0421054 -1.81487e-21)
(0.59356 -0.0387427 6.3365e-22)
(0.622734 -0.0356408 1.8274e-21)
(0.649607 -0.0327973 -8.82453e-23)
(0.674373 -0.0302033 1.34001e-21)
(0.697218 -0.0278455 -2.31709e-21)
(0.71832 -0.0257074 2.81327e-21)
(0.73784 -0.0237714 -2.3702e-21)
(0.755927 -0.022019 -3.03918e-22)
(0.772717 -0.0204317 -4.07941e-22)
(0.788331 -0.0189917 -1.44709e-21)
(0.802876 -0.017682 1.93367e-21)
(0.816447 -0.0164865 4.08306e-22)
(0.829127 -0.0153904 7.3649e-22)
(0.840988 -0.0143802 -2.33634e-21)
(0.852091 -0.0134435 1.80179e-21)
(0.862489 -0.0125696 -7.28678e-22)
(0.872227 -0.011749 -1.0466e-21)
(0.881343 -0.0109741 -6.60907e-22)
(0.88987 -0.0102385 2.45966e-21)
(0.897835 -0.00953754 -2.23405e-21)
(0.905264 -0.00886796 2.64222e-21)
(0.912179 -0.00822781 -8.85633e-22)
(0.918602 -0.00761618 -3.55499e-22)
(0.924555 -0.00703299 -2.64285e-22)
(0.930059 -0.00647871 4.27295e-22)
(0.935135 -0.00595406 -2.92215e-22)
(0.939808 -0.00545988 1.80879e-22)
(0.944099 -0.00499688 -1.87895e-22)
(0.948034 -0.00456558 1.91496e-22)
(0.951636 -0.00416624 3.22892e-22)
(0.95493 -0.00379877 -4.24706e-23)
(0.957941 -0.00346278 -2.55322e-22)
(0.960693 -0.00315754 -1.24309e-23)
(0.963209 -0.00288195 -6.51655e-24)
(0.965513 -0.0026346 2.98477e-22)
(0.967626 -0.00241374 -3.86058e-22)
(0.969569 -0.00221734 5.61132e-23)
(0.971359 -0.00204316 1.34305e-22)
(0.973015 -0.00188879 -8.79811e-23)
(0.974551 -0.0017518 -6.42246e-23)
(0.97598 -0.00162981 -8.64805e-23)
(0.977313 -0.00152057 1.03133e-22)
(0.97856 -0.00142207 1.38419e-22)
(0.979728 -0.00133252 -1.02544e-22)
(0.980825 -0.00125045 -4.47258e-23)
(0.981856 -0.00117462 -7.84171e-23)
(0.982825 -0.00110413 8.0203e-23)
(0.983736 -0.00103819 9.29515e-24)
(0.984592 -0.000975131 -5.08479e-23)
(0.985398 -0.000916491 1.10348e-22)
(0.986158 -0.000861833 1.94329e-23)
(0.986874 -0.000810637 -2.15565e-22)
(0.987549 -0.000762715 1.87343e-23)
(0.988185 -0.000717932 2.15154e-22)
(0.988785 -0.000676125 -4.81641e-23)
(0.989351 -0.000637132 6.24672e-23)
(0.989885 -0.000600788 -1.05601e-22)
(0.990389 -0.000566926 -2.51972e-24)
(0.990866 -0.000535378 2.89084e-23)
(0.991317 -0.000505978 -2.54052e-23)
(0.991744 -0.000478567 2.16218e-23)
(0.992148 -0.000452993 -3.08504e-24)
(0.992531 -0.00042911 -1.56157e-23)
(0.992894 -0.000406787 -9.67074e-24)
(0.993239 -0.0003859 5.69698e-23)
(0.993567 -0.000366337 -1.49804e-23)
(0.993878 -0.000347996 -3.40893e-23)
(0.994175 -0.000330784 3.12658e-23)
(0.994456 -0.000314616 -3.43503e-23)
(0.994725 -0.000299418 4.59374e-23)
(0.99498 -0.000285121 -1.94648e-23)
(0.995224 -0.000271661 -7.40018e-24)
(0.995457 -0.000258984 1.30534e-23)
(0.995678 -0.000247036 -1.7333e-23)
(0.99589 -0.000235772 4.82121e-24)
(0.996093 -0.000225148 1.86185e-23)
(0.996286 -0.000215125 7.22973e-24)
(0.996471 -0.000205668 -9.05241e-24)
(0.996648 -0.000196745 3.00689e-24)
(0.996818 -0.000188324 3.33143e-24)
(0.99698 -0.000180377 -5.39904e-24)
(0.997136 -0.00017288 1.80492e-24)
(0.997285 -0.000165807 -1.35104e-24)
(0.997429 -0.000159139 2.70067e-24)
(0.997567 -0.00015285 -2.69375e-24)
(0.997699 -0.000146932 5.84917e-24)
(0.997827 -0.000141349 -1.2007e-24)
(0.997949 -0.000136115 3.39356e-24)
(0.998069 -0.000131164 -2.33412e-24)
(0.998181 -0.00012657 5.00713e-25)
(0.998294 -0.000122171 1.76515e-25)
(0.998396 -0.000118208 1.23368e-24)
(0.998508 -0.000114238 -2.55255e-25)
(0.998593 -0.000110992 -8.97164e-26)
(0.998714 -0.000107185 -3.44027e-25)
(0.99877 -0.000105002 -2.41104e-25)
(0.998929 -0.000100663 4.99537e-26)
(-0.371454 -0.0453997 1.74183e-20)
(-0.345496 -0.0604657 1.43968e-20)
(-0.314661 -0.0754445 -3.52719e-20)
(-0.277257 -0.0891683 1.9916e-20)
(-0.234305 -0.101522 -5.2672e-21)
(-0.186401 -0.112006 -1.33764e-21)
(-0.134531 -0.120461 1.3182e-20)
(-0.0793123 -0.127013 -1.60206e-20)
(-0.0221713 -0.130842 5.0651e-22)
(0.036352 -0.132409 5.36878e-21)
(0.0953748 -0.131778 -5.57858e-21)
(0.153327 -0.129454 9.96375e-22)
(0.209777 -0.125568 -1.06448e-21)
(0.264155 -0.120444 1.19025e-21)
(0.316002 -0.114422 1.25174e-21)
(0.365009 -0.107818 -1.73767e-21)
(0.410996 -0.100908 4.31105e-23)
(0.453898 -0.0939216 5.28139e-21)
(0.493735 -0.0870417 -6.9931e-21)
(0.530599 -0.080406 -4.89195e-21)
(0.564629 -0.0741112 7.51658e-21)
(0.59599 -0.0682122 -4.39048e-21)
(0.624859 -0.0627356 1.64526e-22)
(0.651424 -0.0576901 6.43259e-21)
(0.675873 -0.0530704 -9.02816e-22)
(0.698394 -0.0488606 1.70565e-21)
(0.71916 -0.0450376 1.97594e-21)
(0.738338 -0.0415741 -1.00852e-21)
(0.756078 -0.0384404 -5.6401e-21)
(0.77252 -0.0356059 2.35038e-21)
(0.787787 -0.0330404 -1.53623e-22)
(0.80199 -0.0307147 -1.27331e-21)
(0.815229 -0.0286008 5.06779e-22)
(0.827591 -0.0266727 6.24099e-24)
(0.839152 -0.0249063 1.00221e-21)
(0.849976 -0.0232795 -6.74184e-22)
(0.860122 -0.0217722 9.76428e-22)
(0.869637 -0.020367 -1.91149e-21)
(0.878563 -0.0190485 3.00378e-23)
(0.886934 -0.017804 -6.39935e-22)
(0.89478 -0.016623 -3.78708e-23)
(0.902126 -0.0154979 9.4997e-22)
(0.908996 -0.0144231 5.05245e-22)
(0.915408 -0.0133953 -1.43935e-21)
(0.921382 -0.0124127 1.9866e-21)
(0.926936 -0.0114753 -9.03864e-22)
(0.932088 -0.0105834 1.02861e-21)
(0.936858 -0.0097384 -1.88436e-21)
(0.941265 -0.00894145 2.0299e-22)
(0.945327 -0.00819375 1.92686e-22)
(0.949066 -0.00749619 1.16839e-21)
(0.952503 -0.00684924 1.99982e-22)
(0.955657 -0.00625291 -5.32411e-22)
(0.958551 -0.0057067 1.93268e-22)
(0.961206 -0.00520957 -2.09182e-22)
(0.963642 -0.00475994 -4.13114e-22)
(0.965879 -0.00435565 3.14249e-23)
(0.967937 -0.00399405 -2.28274e-23)
(0.969834 -0.00367196 3.32952e-22)
(0.971588 -0.00338586 -1.62371e-22)
(0.973212 -0.00313194 -1.96982e-22)
(0.974722 -0.00290632 2.04209e-22)
(0.976129 -0.00270515 -1.34221e-22)
(0.977444 -0.00252482 3.83451e-22)
(0.978675 -0.00236204 -3.4068e-22)
(0.97983 -0.00221394 -1.86321e-23)
(0.980915 -0.00207812 1.05332e-22)
(0.981936 -0.00195256 -8.39777e-24)
(0.982896 -0.00183572 -3.66803e-22)
(0.9838 -0.00172648 2.29577e-22)
(0.98465 -0.00162227 -2.37132e-23)
(0.98545 -0.00152489 -2.32432e-22)
(0.986204 -0.00143406 4.57138e-22)
(0.986916 -0.00134902 -1.55401e-22)
(0.987587 -0.00126941 5.55654e-23)
(0.988219 -0.001195 -3.39665e-23)
(0.988816 -0.00112551 -7.02211e-23)
(0.989379 -0.0010607 2.28969e-23)
(0.989911 -0.00100027 7.04016e-23)
(0.990413 -0.000943956 -1.37386e-22)
(0.990888 -0.000891482 1.23983e-22)
(0.991337 -0.000842574 -8.87627e-23)
(0.991762 -0.000796968 9.4564e-23)
(0.992165 -0.000754409 -9.21031e-23)
(0.992547 -0.000714662 -1.90744e-23)
(0.992909 -0.000677506 5.31569e-23)
(0.993253 -0.000642736 -4.07772e-23)
(0.99358 -0.000610166 -1.69781e-24)
(0.993891 -0.000579628 1.87837e-23)
(0.994186 -0.000550967 4.51527e-24)
(0.994467 -0.000524045 -3.65574e-23)
(0.994735 -0.000498734 7.47428e-23)
(0.99499 -0.000474921 -2.83911e-23)
(0.995234 -0.000452504 -6.1711e-23)
(0.995466 -0.000431388 3.6219e-23)
(0.995687 -0.000411486 -1.02388e-23)
(0.995898 -0.000392722 1.41858e-23)
(0.9961 -0.000375024 1.05081e-23)
(0.996293 -0.000358328 -2.25728e-23)
(0.996478 -0.000342574 1.82999e-23)
(0.996655 -0.000327707 -2.06402e-23)
(0.996824 -0.000313678 4.16021e-24)
(0.996986 -0.000300439 -2.3037e-23)
(0.997142 -0.00028795 8.47728e-24)
(0.997291 -0.000276166 3.77298e-24)
(0.997434 -0.000265058 -3.53759e-24)
(0.997572 -0.00025458 -9.017e-25)
(0.997704 -0.00024472 -3.3002e-24)
(0.997832 -0.000235419 -3.67247e-24)
(0.997953 -0.0002267 -5.02477e-24)
(0.998073 -0.000218453 4.74202e-24)
(0.998185 -0.000210799 -2.95799e-24)
(0.998298 -0.000203471 -2.10678e-24)
(0.998399 -0.00019687 1.44842e-24)
(0.998511 -0.000190255 -1.77365e-24)
(0.998597 -0.000184849 5.95053e-25)
(0.998717 -0.000178507 -8.76128e-25)
(0.998772 -0.000174872 2.22582e-25)
(0.998931 -0.000167643 -1.68814e-25)
(-0.24181 -0.061724 4.2506e-20)
(-0.216415 -0.0824396 -3.01273e-20)
(-0.186821 -0.102557 1.18788e-20)
(-0.15162 -0.121167 -3.79239e-21)
(-0.111439 -0.138088 -1.07943e-21)
(-0.0668072 -0.152465 -1.97282e-20)
(-0.0190135 -0.16402 1.83994e-20)
(0.0318639 -0.172456 1.48936e-21)
(0.0848616 -0.177746 -7.69248e-22)
(0.138442 -0.179606 -3.7851e-21)
(0.192066 -0.178937 4.45686e-21)
(0.244727 -0.175715 -5.61357e-22)
(0.295806 -0.170331 -1.96169e-21)
(0.344792 -0.163257 2.63404e-21)
(0.391302 -0.154965 -8.8126e-22)
(0.435091 -0.145892 -5.24669e-21)
(0.47603 -0.136419 9.41905e-21)
(0.514093 -0.126861 -9.16343e-21)
(0.54933 -0.117468 -1.66313e-21)
(0.581847 -0.108423 -5.52552e-22)
(0.611795 -0.0998545 -5.87976e-22)
(0.639345 -0.091841 3.20508e-21)
(0.66467 -0.0844152 9.58349e-21)
(0.687947 -0.0775848 1.34544e-21)
(0.709351 -0.0713397 -1.37187e-20)
(0.729054 -0.0656562 6.37083e-21)
(0.747216 -0.0605011 1.52015e-21)
(0.763984 -0.0558359 1.15133e-21)
(0.779496 -0.0516191 -1.9191e-21)
(0.793875 -0.0478088 1.46525e-21)
(0.80723 -0.0443634 2.38605e-21)
(0.819663 -0.0412429 -5.43121e-21)
(0.831258 -0.0384094 4.66004e-21)
(0.842095 -0.0358277 -2.02754e-21)
(0.852239 -0.0334649 1.15344e-21)
(0.861749 -0.0312914 -4.11056e-21)
(0.870676 -0.0292801 3.00222e-21)
(0.879063 -0.0274071 -2.23425e-21)
(0.886947 -0.0256517 -1.81468e-21)
(0.894359 -0.0239964 3.47733e-21)
(0.901325 -0.0224269 1.17242e-21)
(0.907868 -0.0209323 -1.43771e-21)
(0.914008 -0.0195048 -3.32239e-22)
(0.919761 -0.0181395 3.64426e-23)
(0.925144 -0.0168337 -1.59402e-21)
(0.930171 -0.0155868 1.90832e-21)
(0.934858 -0.0143993 4.82078e-22)
(0.93922 -0.0132726 -1.7578e-21)
(0.94327 -0.0122081 -6.47268e-22)
(0.947025 -0.0112076 1.28454e-21)
(0.9505 -0.0102722 -1.59759e-21)
(0.953712 -0.00940267 2.58297e-21)
(0.956677 -0.00859921 -1.696e-21)
(0.959412 -0.00786141 9.29795e-22)
(0.961933 -0.00718817 -4.82696e-22)
(0.964257 -0.00657766 -4.38519e-22)
(0.966403 -0.00602734 5.57069e-22)
(0.968384 -0.00553389 -3.77704e-22)
(0.970218 -0.00509334 -2.65167e-22)
(0.971918 -0.00470113 1.00893e-22)
(0.973499 -0.00435233 4.32413e-23)
(0.974972 -0.0040418 4.44669e-22)
(0.976347 -0.00376446 -4.32049e-22)
(0.977636 -0.00351545 -6.61317e-23)
(0.978844 -0.00329037 3.38367e-22)
(0.97998 -0.00308533 -3.77135e-22)
(0.981049 -0.0028971 -1.36679e-22)
(0.982055 -0.00272299 -6.14539e-23)
(0.983002 -0.0025608 3.25046e-22)
(0.983896 -0.00240922 -2.78446e-22)
(0.984737 -0.00226558 1.05467e-22)
(0.985527 -0.00212937 -2.35737e-23)
(0.986274 -0.00200278 -1.40228e-23)
(0.986979 -0.00188437 -1.02869e-22)
(0.987643 -0.00177347 1.44563e-23)
(0.988271 -0.00166975 1.36721e-22)
(0.988863 -0.00157288 2.25345e-24)
(0.989422 -0.00148248 -3.25685e-24)
(0.98995 -0.00139818 1.91329e-23)
(0.990449 -0.00131961 -3.00885e-23)
(0.990921 -0.00124636 -5.02526e-23)
(0.991367 -0.00117808 8.52704e-23)
(0.99179 -0.0011144 6.95046e-23)
(0.992191 -0.00105496 -1.63156e-22)
(0.992571 -0.000999429 1.31531e-23)
(0.992932 -0.000947511 3.17836e-23)
(0.993275 -0.00089892 -1.66699e-23)
(0.9936 -0.000853397 -5.93332e-23)
(0.99391 -0.000810708 1.00302e-22)
(0.994204 -0.000770638 -5.06778e-23)
(0.994484 -0.000732994 5.53832e-24)
(0.994751 -0.0006976 -1.04592e-23)
(0.995005 -0.000664298 3.08791e-23)
(0.995248 -0.000632945 -3.32683e-23)
(0.995479 -0.000603409 4.61649e-23)
(0.9957 -0.000575571 -5.02228e-23)
(0.995911 -0.000549323 3.85576e-23)
(0.996112 -0.000524565 -7.30213e-23)
(0.996305 -0.000501207 4.72055e-23)
(0.996489 -0.000479166 -2.36194e-23)
(0.996665 -0.000458367 1.57135e-23)
(0.996834 -0.000438739 1.13297e-23)
(0.996995 -0.000420216 -9.11828e-24)
(0.99715 -0.000402742 4.52199e-24)
(0.997299 -0.000386255 -2.23862e-24)
(0.997442 -0.000370712 1.37133e-23)
(0.997579 -0.000356054 -4.51253e-24)
(0.997711 -0.000342258 1.80528e-24)
(0.997838 -0.000329245 -8.02254e-24)
(0.99796 -0.000317046 3.85723e-25)
(0.998079 -0.000305508 8.44795e-25)
(0.998191 -0.0002948 6.91861e-25)
(0.998304 -0.000284548 5.1978e-26)
(0.998405 -0.000275314 1.14218e-24)
(0.998516 -0.000266059 -8.21286e-25)
(0.998601 -0.000258498 1.04996e-24)
(0.998721 -0.000249624 3.10441e-26)
(0.998777 -0.000244543 -6.97551e-26)
(0.998935 -0.00023443 1.25768e-25)
(-0.0942985 -0.0765306 -4.18421e-20)
(-0.0695913 -0.102275 5.95942e-20)
(-0.0414774 -0.126917 -8.50591e-21)
(-0.00899311 -0.14992 -2.73712e-20)
(0.0276944 -0.170522 -7.17262e-21)
(0.0685542 -0.188232 -7.33415e-21)
(0.112179 -0.202659 -5.60147e-21)
(0.157871 -0.212893 2.25581e-20)
(0.205061 -0.219535 -3.3227e-21)
(0.25271 -0.222216 -6.28638e-21)
(0.300087 -0.221331 2.00715e-21)
(0.346403 -0.217238 -2.49074e-21)
(0.391086 -0.210453 1.356e-22)
(0.433712 -0.201568 -1.30093e-21)
(0.473987 -0.191178 6.0188e-21)
(0.511736 -0.179833 -1.83167e-21)
(0.54689 -0.168013 -1.16641e-20)
(0.579463 -0.156112 4.88358e-21)
(0.60953 -0.144435 -8.07999e-22)
(0.63721 -0.133208 -2.74167e-22)
(0.662652 -0.122585 4.50728e-21)
(0.686027 -0.112666 -3.40084e-21)
(0.7075 -0.103492 1.50185e-21)
(0.727228 -0.0950655 3.03781e-21)
(0.745366 -0.0873717 1.75275e-21)
(0.762062 -0.0803781 -2.50231e-21)
(0.777455 -0.0740417 -5.31184e-21)
(0.791673 -0.0683134 4.78878e-21)
(0.80483 -0.0631408 -2.06195e-21)
(0.817034 -0.0584712 2.06999e-21)
(0.828376 -0.0542527 1.52995e-21)
(0.838941 -0.0504358 -1.57743e-21)
(0.848803 -0.0469736 -3.20089e-21)
(0.858028 -0.0438226 5.11697e-21)
(0.866673 -0.0409427 -4.03169e-21)
(0.874787 -0.038297 5.51091e-21)
(0.882416 -0.0358527 -3.47587e-21)
(0.889595 -0.0335801 -8.03351e-22)
(0.896359 -0.0314536 -3.05704e-22)
(0.902734 -0.0294513 6.4386e-22)
(0.908744 -0.0275552 1.30919e-21)
(0.91441 -0.0257514 -2.27077e-21)
(0.919748 -0.0240296 2.16982e-21)
(0.924773 -0.0223831 -5.16989e-22)
(0.9295 -0.0208081 1.47979e-21)
(0.933939 -0.019303 9.02848e-22)
(0.938102 -0.0178681 -2.75539e-21)
(0.942001 -0.0165045 1.6771e-21)
(0.945647 -0.015214 -5.38239e-22)
(0.94905 -0.0139982 1.31425e-21)
(0.952222 -0.0128587 -4.69086e-22)
(0.955174 -0.0117964 -1.67079e-21)
(0.957917 -0.010812 -5.31283e-22)
(0.960465 -0.00990508 7.53641e-22)
(0.962829 -0.00907488 4.98161e-22)
(0.965022 -0.0083196 -1.76438e-22)
(0.967056 -0.0076366 -9.73036e-22)
(0.968946 -0.00702228 1.36006e-21)
(0.970703 -0.00647219 -1.36983e-21)
(0.972339 -0.0059811 3.5916e-22)
(0.973865 -0.00554323 -2.79622e-22)
(0.975293 -0.00515249 3.74972e-22)
(0.97663 -0.00480274 5.16667e-22)
(0.977885 -0.00448812 -6.10625e-22)
(0.979065 -0.00420323 7.65549e-22)
(0.980176 -0.00394334 -5.70458e-22)
(0.981224 -0.00370443 2.3802e-22)
(0.982211 -0.00348325 -6.15283e-23)
(0.983142 -0.00327711 1.07268e-22)
(0.984022 -0.00308435 2.57632e-22)
(0.984851 -0.00290383 1.98146e-23)
(0.985631 -0.00272939 -5.70976e-23)
(0.986366 -0.00256692 -1.29602e-22)
(0.987062 -0.0024156 3.64055e-23)
(0.987719 -0.0022739 1.19848e-24)
(0.988339 -0.00214131 2.11149e-22)
(0.988925 -0.00201743 -4.32489e-22)
(0.989478 -0.0019018 1.75142e-22)
(0.990002 -0.00179392 -2.11243e-24)
(0.990496 -0.00169333 2.05082e-22)
(0.990965 -0.00159954 -8.92127e-24)
(0.991408 -0.00151207 -1.39549e-22)
(0.991828 -0.00143047 1.58705e-22)
(0.992226 -0.00135428 -1.67372e-22)
(0.992604 -0.00128309 3.82709e-24)
(0.992963 -0.00121651 -1.31199e-22)
(0.993303 -0.00115419 2.03362e-22)
(0.993627 -0.00109578 -7.031e-23)
(0.993935 -0.00104101 3.13831e-24)
(0.994228 -0.000989585 -4.34052e-23)
(0.994507 -0.000941267 3.15823e-23)
(0.994773 -0.000895831 6.19958e-23)
(0.995026 -0.000853076 -5.95789e-23)
(0.995267 -0.000812818 2.34997e-23)
(0.995497 -0.000774891 -9.68085e-25)
(0.995717 -0.000739141 -9.55563e-24)
(0.995927 -0.00070543 2.57385e-23)
(0.996128 -0.00067363 -3.324e-23)
(0.99632 -0.000643627 5.44893e-26)
(0.996503 -0.000615316 1.33489e-23)
(0.996679 -0.000588597 -1.97203e-23)
(0.996847 -0.000563384 1.34449e-23)
(0.997008 -0.000539589 -8.25212e-24)
(0.997162 -0.000517141 2.71306e-23)
(0.99731 -0.000495962 -2.61145e-23)
(0.997453 -0.000475996 -2.81708e-24)
(0.997589 -0.000457165 -8.34327e-24)
(0.997721 -0.000439443 7.63288e-24)
(0.997847 -0.000422726 -2.95597e-24)
(0.997969 -0.000407055 4.8625e-24)
(0.998087 -0.000392234 -1.67835e-24)
(0.998199 -0.00037848 -1.68465e-24)
(0.998311 -0.000365311 5.37714e-24)
(0.998412 -0.000353452 9.35465e-25)
(0.998523 -0.000341564 1.86156e-24)
(0.998608 -0.000331855 -9.50191e-25)
(0.998727 -0.000320456 1.74235e-25)
(0.998782 -0.000313933 1.70132e-26)
(0.99894 -0.000300945 -1.46613e-25)
(0.0595585 -0.0897508 2.67109e-20)
(0.0837559 -0.119471 -6.61088e-20)
(0.110611 -0.147868 5.5089e-20)
(0.140849 -0.174517 -7.8979e-20)
(0.174242 -0.198271 3.61293e-20)
(0.210678 -0.218845 1.71896e-21)
(0.249314 -0.235754 2.53476e-20)
(0.289467 -0.248172 -3.10881e-20)
(0.330481 -0.256018 1.43113e-21)
(0.37153 -0.259237 1.41893e-21)
(0.411952 -0.258172 7.01507e-21)
(0.451151 -0.253312 -6.07539e-21)
(0.488686 -0.245286 1.60288e-21)
(0.524248 -0.234801 2.68386e-21)
(0.557651 -0.222563 -9.51682e-21)
(0.588807 -0.209225 -5.81866e-22)
(0.617712 -0.195352 3.25964e-21)
(0.644421 -0.181406 9.81809e-21)
(0.669032 -0.167742 -1.37091e-21)
(0.691666 -0.15462 -1.73267e-20)
(0.712464 -0.142216 1.51661e-20)
(0.73158 -0.13064 -1.15629e-20)
(0.749166 -0.119947 1.52209e-20)
(0.765354 -0.110139 -1.28331e-20)
(0.780266 -0.101191 6.28044e-21)
(0.794022 -0.0930634 -3.90817e-21)
(0.80673 -0.0857049 1.54104e-20)
(0.818492 -0.0790566 -1.23574e-21)
(0.829398 -0.0730569 -3.67224e-21)
(0.839531 -0.0676437 -6.80425e-21)
(0.848965 -0.0627567 1.89847e-21)
(0.857767 -0.058338 1.29699e-21)
(0.865994 -0.0543333 -1.22985e-20)
(0.873699 -0.0506921 6.78199e-21)
(0.880929 -0.0473681 -4.28672e-21)
(0.887725 -0.044319 1.12394e-20)
(0.894122 -0.0415065 -2.78694e-21)
(0.900154 -0.0388965 -3.90868e-21)
(0.905847 -0.0364591 2.70148e-21)
(0.911227 -0.0341686 -3.5056e-21)
(0.916314 -0.0320034 4.95128e-21)
(0.921127 -0.0299469 -2.65153e-21)
(0.925681 -0.0279861 -2.94852e-21)
(0.929989 -0.0261123 3.87539e-21)
(0.934064 -0.0243203 -3.7019e-21)
(0.937915 -0.0226072 1.56161e-21)
(0.941552 -0.0209726 7.37604e-22)
(0.944982 -0.0194172 -8.9879e-24)
(0.948214 -0.0179423 7.47025e-22)
(0.951255 -0.0165496 -9.36351e-22)
(0.954112 -0.0152407 -7.57289e-22)
(0.956792 -0.0140168 -7.64953e-23)
(0.959302 -0.0128787 8.22825e-22)
(0.961651 -0.0118265 1.69153e-22)
(0.963846 -0.0108597 7.65331e-22)
(0.965896 -0.00997692 -7.8836e-22)
(0.967811 -0.00917563 -1.01011e-21)
(0.9696 -0.00845235 1.56266e-21)
(0.971271 -0.00780247 -4.01255e-22)
(0.972835 -0.00722043 -6.28137e-23)
(0.974301 -0.00669991 6.2962e-23)
(0.975677 -0.00623415 -1.02895e-21)
(0.976969 -0.00581622 9.81525e-22)
(0.978187 -0.00543943 -1.4178e-22)
(0.979334 -0.00509759 6.70425e-22)
(0.980416 -0.00478519 -8.47468e-22)
(0.981438 -0.00449758 6.67243e-23)
(0.982403 -0.00423102 8.50945e-23)
(0.983315 -0.00398248 -5.21934e-22)
(0.984176 -0.00374952 1.1258e-21)
(0.984992 -0.00353151 -1.25312e-21)
(0.985761 -0.00332223 3.00716e-22)
(0.986483 -0.00312485 4.24164e-22)
(0.987167 -0.00294152 -3.07227e-22)
(0.987814 -0.00276975 6.12174e-22)
(0.988425 -0.00260885 -6.68505e-22)
(0.989003 -0.00245844 1.88061e-22)
(0.98955 -0.00231798 -8.21728e-23)
(0.990067 -0.00218689 2.46784e-22)
(0.990557 -0.0020646 -6.84845e-23)
(0.99102 -0.00195053 2.52978e-23)
(0.991459 -0.00184411 1.88959e-23)
(0.991876 -0.00174479 -2.05252e-22)
(0.992271 -0.00165202 3.97417e-23)
(0.992646 -0.00156532 1.04254e-22)
(0.993002 -0.00148421 -1.9679e-23)
(0.99334 -0.00140826 2.9145e-23)
(0.993661 -0.00133707 -1.52323e-22)
(0.993967 -0.00127029 1.41316e-22)
(0.994258 -0.00120759 -8.28498e-24)
(0.994536 -0.00114866 -1.27173e-22)
(0.9948 -0.00109323 3.87677e-25)
(0.995051 -0.00104107 5.36557e-23)
(0.995291 -0.00099195 -9.37766e-24)
(0.995521 -0.000945668 1.28425e-22)
(0.995739 -0.000902038 -9.66828e-23)
(0.995948 -0.000860891 -3.30165e-23)
(0.996148 -0.000822076 8.30713e-23)
(0.996339 -0.000785451 -6.04704e-23)
(0.996521 -0.000750888 4.61153e-23)
(0.996696 -0.00071827 -1.24081e-24)
(0.996863 -0.000687488 -1.14165e-23)
(0.997023 -0.000658438 1.69688e-23)
(0.997177 -0.000631031 1.65838e-23)
(0.997325 -0.000605173 3.39101e-24)
(0.997466 -0.000580796 -3.23337e-23)
(0.997602 -0.000557805 3.90575e-23)
(0.997733 -0.000536169 -2.48087e-23)
(0.997859 -0.00051576 1.91385e-23)
(0.99798 -0.000496628 -2.65248e-24)
(0.998098 -0.000478534 1.50453e-24)
(0.998208 -0.000461745 1.65397e-24)
(0.99832 -0.000445667 4.29327e-24)
(0.99842 -0.000431193 -3.42978e-24)
(0.998531 -0.00041668 -2.56769e-24)
(0.998615 -0.000404834 1.72647e-24)
(0.998735 -0.000390917 1.31407e-24)
(0.998789 -0.000382962 -1.5781e-25)
(0.998946 -0.000367109 1.88048e-25)
(0.213457 -0.101774 6.22936e-20)
(0.236121 -0.134187 -1.10597e-19)
(0.262027 -0.165417 7.19387e-20)
(0.290202 -0.194839 2.60655e-20)
(0.320557 -0.221542 -3.20968e-20)
(0.352941 -0.244739 5.74151e-21)
(0.38668 -0.263687 2.23077e-20)
(0.421127 -0.2777 -2.38853e-20)
(0.455681 -0.286534 -2.43382e-20)
(0.489714 -0.290173 2.90066e-20)
(0.522718 -0.288953 -1.69789e-20)
(0.554293 -0.283445 9.03962e-21)
(0.584172 -0.274379 -9.96255e-23)
(0.612203 -0.262561 -2.29174e-21)
(0.638328 -0.248795 1.11411e-21)
(0.66256 -0.233815 1.0717e-21)
(0.684965 -0.218256 5.01755e-21)
(0.705638 -0.202633 -5.83183e-21)
(0.724694 -0.187341 3.67877e-21)
(0.742256 -0.172667 2.53902e-21)
(0.758443 -0.158801 -5.23439e-21)
(0.773381 -0.145859 1.35152e-22)
(0.787195 -0.133906 -1.19231e-20)
(0.799992 -0.122949 1.59379e-20)
(0.811855 -0.112957 -1.01525e-20)
(0.822865 -0.103883 6.48077e-21)
(0.833096 -0.0956669 4.2912e-21)
(0.842618 -0.0882434 -1.3011e-20)
(0.851491 -0.0815438 8.48849e-21)
(0.859773 -0.0754991 -1.11177e-20)
(0.867515 -0.070042 4.02477e-21)
(0.874762 -0.0651086 1.36117e-20)
(0.881556 -0.0606387 -5.44739e-21)
(0.887935 -0.0565768 -6.30707e-22)
(0.893933 -0.0528718 3.79414e-21)
(0.899581 -0.049477 -3.72199e-21)
(0.904907 -0.0463503 -1.60235e-22)
(0.909936 -0.0434541 -1.18368e-21)
(0.914693 -0.0407549 -9.37422e-22)
(0.919198 -0.038224 -6.25748e-22)
(0.923469 -0.0358369 -4.76306e-21)
(0.927522 -0.0335742 1.12063e-20)
(0.931374 -0.0314205 -2.90513e-21)
(0.935035 -0.0293651 -6.87648e-22)
(0.938516 -0.0274007 -3.48005e-21)
(0.941828 -0.0255233 2.48452e-21)
(0.944977 -0.023731 -2.20616e-21)
(0.947969 -0.0220238 -2.18146e-22)
(0.950811 -0.0204023 1.80015e-21)
(0.953508 -0.0188679 9.34163e-22)
(0.956062 -0.0174217 -8.95098e-22)
(0.958478 -0.0160652 -7.23356e-22)
(0.96076 -0.0147993 1.06246e-21)
(0.962913 -0.0136246 4.12334e-22)
(0.964939 -0.0125409 -1.96622e-21)
(0.966846 -0.0115473 8.10935e-22)
(0.968638 -0.0106418 -1.04466e-21)
(0.970322 -0.00982134 1.09532e-21)
(0.971905 -0.00908137 -6.50354e-23)
(0.973394 -0.00841633 2.51726e-22)
(0.974795 -0.00781967 -3.51059e-22)
(0.976115 -0.00728417 2.22352e-22)
(0.97736 -0.0068024 2.91944e-22)
(0.978535 -0.00636702 -9.94497e-22)
(0.979646 -0.00597118 1.16719e-21)
(0.980696 -0.00560878 1.91736e-22)
(0.981689 -0.0052746 -8.34052e-22)
(0.982629 -0.00496444 5.51788e-22)
(0.983519 -0.00467499 -6.39459e-23)
(0.984361 -0.00440333 -7.83079e-22)
(0.98516 -0.004148 2.91762e-22)
(0.985914 -0.00390972 8.59378e-23)
(0.986622 -0.00367752 -4.16336e-22)
(0.987292 -0.00346161 -1.12253e-22)
(0.987928 -0.00326027 6.01749e-22)
(0.988529 -0.00307166 -3.19108e-22)
(0.989098 -0.00289521 5.45087e-22)
(0.989637 -0.00273038 -6.49303e-22)
(0.990147 -0.0025765 5.61936e-22)
(0.99063 -0.00243288 -6.44725e-22)
(0.991088 -0.00229885 5.13457e-22)
(0.991522 -0.00217376 -2.00137e-22)
(0.991934 -0.00205696 -3.11384e-23)
(0.992325 -0.00194782 -3.68905e-23)
(0.992696 -0.00184579 2.64145e-24)
(0.993049 -0.0017503 1.57561e-22)
(0.993384 -0.00166086 -2.2356e-22)
(0.993703 -0.001577 1.02993e-22)
(0.994007 -0.00149832 -1.10027e-22)
(0.994295 -0.00142442 1.02883e-22)
(0.994571 -0.00135495 -2.45679e-23)
(0.994833 -0.0012896 -1.25796e-22)
(0.995083 -0.00122809 1.50133e-22)
(0.995321 -0.00117016 -1.26364e-22)
(0.995549 -0.00111557 8.80243e-23)
(0.995766 -0.0010641 -5.20364e-23)
(0.995974 -0.00101555 4.45748e-23)
(0.996172 -0.000969749 2.54642e-23)
(0.996362 -0.00092653 -3.82244e-23)
(0.996543 -0.000885743 -1.52007e-23)
(0.996717 -0.000847247 -5.639e-23)
(0.996883 -0.000810919 1.24256e-23)
(0.997042 -0.000776634 -2.08731e-23)
(0.997195 -0.000744287 1.77225e-23)
(0.997342 -0.000713768 -2.19967e-23)
(0.997482 -0.000684998 9.85317e-24)
(0.997618 -0.000657863 6.53435e-24)
(0.997748 -0.000632327 -3.53726e-24)
(0.997873 -0.000608239 3.46135e-24)
(0.997993 -0.000585662 -5.93837e-24)
(0.99811 -0.000564307 -2.05897e-24)
(0.99822 -0.000544495 4.27252e-24)
(0.998332 -0.000525521 4.39366e-24)
(0.998431 -0.000508445 -9.15822e-24)
(0.998541 -0.000491317 1.0049e-24)
(0.998625 -0.000477346 -1.94074e-25)
(0.998744 -0.000460922 -9.7572e-25)
(0.998798 -0.000451545 -3.83885e-25)
(0.998954 -0.000432839 -9.99234e-26)
(0.38345 -0.146881 -3.55491e-20)
(0.408508 -0.180124 3.76245e-20)
(0.43502 -0.211663 -7.92387e-20)