/*--------------------------------*- C++ -*----------------------------------*\
  =========                 |
  \\      /  F ield         | OpenFOAM: The Open Source CFD Toolbox
   \\    /   O peration     | Website:  https://openfoam.org
    \\  /    A nd           | Version:  7
     \\/     M anipulation  |
\*---------------------------------------------------------------------------*/
FoamFile
{
    version     2.0;
    format      ascii;
    class       volScalarField;
    location    "5";
    object      p;
}
// * * * * * * * * * * * * * * * * * * * * * * * * * * * * * * * * * * * * * //

dimensions      [0 2 -2 0 0 0 0];

internalField   nonuniform List<scalar> 
3313
(
-0.31531
-0.319792
-0.322871
-0.325364
-0.328059
-0.331243
-0.335088
-0.339709
-0.345165
-0.317325
-0.321501
-0.324411
-0.326815
-0.32945
-0.332594
-0.336414
-0.341021
-0.346475
-0.321108
-0.324707
-0.327293
-0.329519
-0.332031
-0.335086
-0.338841
-0.343406
-0.348836
-0.326217
-0.329031
-0.331164
-0.333126
-0.335443
-0.338343
-0.341975
-0.346438
-0.351784
-0.332092
-0.334
-0.335587
-0.337207
-0.339249
-0.341911
-0.345329
-0.349595
-0.354757
-0.338156
-0.339134
-0.340126
-0.341337
-0.34302
-0.345343
-0.348433
-0.352375
-0.357212
-0.343907
-0.344022
-0.344422
-0.345175
-0.346417
-0.348292
-0.350921
-0.354385
-0.358731
-0.363974
-0.348975
-0.348379
-0.348233
-0.348507
-0.34924
-0.350561
-0.352592
-0.355421
-0.359103
-0.363661
-0.353169
-0.352065
-0.35146
-0.351257
-0.351436
-0.352119
-0.353436
-0.35549
-0.358355
-0.362072
-0.366662
-0.356472
-0.355083
-0.354127
-0.353476
-0.353086
-0.353081
-0.353607
-0.354793
-0.356738
-0.359514
-0.363159
-0.359026
-0.357558
-0.356361
-0.355309
-0.354364
-0.353665
-0.35338
-0.353668
-0.354665
-0.356475
-0.359164
-0.36277
-0.361104
-0.359714
-0.358365
-0.356962
-0.355503
-0.354146
-0.353086
-0.352518
-0.352617
-0.353521
-0.355322
-0.35806
-0.361789
-0.363071
-0.361841
-0.360394
-0.358685
-0.356765
-0.354818
-0.35307
-0.351747
-0.351058
-0.351174
-0.352203
-0.354179
-0.357119
-0.365339
-0.364264
-0.362727
-0.360742
-0.358419
-0.35597
-0.353644
-0.351697
-0.350361
-0.349823
-0.350191
-0.351471
-0.353602
-0.356385
-0.368309
-0.367302
-0.36564
-0.363389
-0.360712
-0.357845
-0.355055
-0.352611
-0.350752
-0.349661
-0.349422
-0.349998
-0.351213
-0.352308
-0.352108
-0.372318
-0.371229
-0.369369
-0.366839
-0.363838
-0.360616
-0.357447
-0.354596
-0.352288
-0.350673
-0.349792
-0.349548
-0.34969
-0.349353
-0.352194
-0.377595
-0.376245
-0.374086
-0.371238
-0.367911
-0.364362
-0.360855
-0.357631
-0.354878
-0.352688
-0.351032
-0.349734
-0.348423
-0.34675
-0.345264
-0.384268
-0.382467
-0.379893
-0.376666
-0.372982
-0.369093
-0.365239
-0.361618
-0.358353
-0.35546
-0.352822
-0.350196
-0.347155
-0.343527
-0.338584
-0.392375
-0.389948
-0.386843
-0.383162
-0.379065
-0.37479
-0.370536
-0.366436
-0.362525
-0.35873
-0.354854
-0.350618
-0.345639
-0.339807
-0.332394
-0.401908
-0.398707
-0.394964
-0.390752
-0.386176
-0.381443
-0.376695
-0.371972
-0.367212
-0.362251
-0.356851
-0.350754
-0.343696
-0.335667
-0.326159
-0.41284
-0.408747
-0.404281
-0.399471
-0.394344
-0.389056
-0.383667
-0.37811
-0.372222
-0.36578
-0.358563
-0.35041
-0.341229
-0.331134
-0.319972
-0.425135
-0.42006
-0.414811
-0.409346
-0.403588
-0.397612
-0.391372
-0.384691
-0.377328
-0.369066
-0.359772
-0.349443
-0.33817
-0.326209
-0.313564
-0.438731
-0.432611
-0.426539
-0.420372
-0.41388
-0.407029
-0.399653
-0.391481
-0.382258
-0.37185
-0.360284
-0.347743
-0.33448
-0.320848
-0.306908
-0.453509
-0.44631
-0.439394
-0.43247
-0.425103
-0.41712
-0.408245
-0.398167
-0.386701
-0.373879
-0.359934
-0.345223
-0.330112
-0.314994
-0.299867
-0.469265
-0.460983
-0.453214
-0.445455
-0.437018
-0.427574
-0.416778
-0.404366
-0.390323
-0.374912
-0.358575
-0.341801
-0.32501
-0.308568
-0.292375
-0.48569
-0.476353
-0.467724
-0.459018
-0.449248
-0.437951
-0.424788
-0.409653
-0.392791
-0.374722
-0.356067
-0.337385
-0.31909
-0.301474
-0.284331
-0.502353
-0.492025
-0.48252
-0.472709
-0.461286
-0.447706
-0.431752
-0.413591
-0.393784
-0.373097
-0.352269
-0.331863
-0.312248
-0.293601
-0.275644
-0.518704
-0.507477
-0.497071
-0.485949
-0.472509
-0.456221
-0.437124
-0.415753
-0.393001
-0.36983
-0.347025
-0.325103
-0.30435
-0.284819
-0.266204
-0.534082
-0.522076
-0.510724
-0.498046
-0.482213
-0.462844
-0.440366
-0.41574
-0.390164
-0.36472
-0.340173
-0.316953
-0.29525
-0.274989
-0.255894
-0.547737
-0.53509
-0.522728
-0.50823
-0.489656
-0.466932
-0.440977
-0.413193
-0.385015
-0.357567
-0.331539
-0.307251
-0.284789
-0.263965
-0.244582
-0.558858
-0.545716
-0.53227
-0.515697
-0.494105
-0.467882
-0.43851
-0.407792
-0.377318
-0.34818
-0.32095
-0.295833
-0.272812
-0.251604
-0.232123
-0.56661
-0.553124
-0.538518
-0.519652
-0.494874
-0.465164
-0.432585
-0.399268
-0.366867
-0.336379
-0.30824
-0.28254
-0.259167
-0.237768
-0.218363
-0.570173
-0.556491
-0.540663
-0.51936
-0.491361
-0.458338
-0.422897
-0.387402
-0.353489
-0.322014
-0.293267
-0.267227
-0.243707
-0.2223
-0.203115
-0.568787
-0.555052
-0.537971
-0.514183
-0.483078
-0.447064
-0.409218
-0.372037
-0.337062
-0.304983
-0.275939
-0.249807
-0.226326
-0.205036
-0.186129
-0.561786
-0.548136
-0.529817
-0.503609
-0.469661
-0.431109
-0.391403
-0.353072
-0.317511
-0.28523
-0.25623
-0.230296
-0.207079
-0.185985
-0.167193
-0.548632
-0.5352
-0.515717
-0.487272
-0.450878
-0.410346
-0.369386
-0.33047
-0.29481
-0.26274
-0.234146
-0.208753
-0.186133
-0.165557
-0.146729
-0.528942
-0.515861
-0.495352
-0.464965
-0.426633
-0.384756
-0.343178
-0.304248
-0.268976
-0.237539
-0.209716
-0.1852
-0.163386
-0.143456
-0.126307
-0.502504
-0.489906
-0.468575
-0.436641
-0.396969
-0.354421
-0.312871
-0.274487
-0.240077
-0.209716
-0.183037
-0.159676
-0.138967
-0.120219
-0.104845
-0.469288
-0.457304
-0.435415
-0.402418
-0.362058
-0.319523
-0.278625
-0.241336
-0.208271
-0.17934
-0.154164
-0.132287
-0.113024
-0.0958034
-0.0822333
-0.429448
-0.418207
-0.396087
-0.362576
-0.322175
-0.280311
-0.24066
-0.204992
-0.1737
-0.146585
-0.123234
-0.103147
-0.0856246
-0.0701965
-0.0585853
-0.383304
-0.372955
-0.350989
-0.317477
-0.27761
-0.237096
-0.199316
-0.165727
-0.136599
-0.11165
-0.090431
-0.0724115
-0.056894
-0.0435405
-0.034201
-0.331312
-0.322086
-0.300613
-0.267381
-0.228916
-0.190393
-0.154954
-0.12386
-0.0972442
-0.0747679
-0.0559618
-0.0402703
-0.0270498
-0.0161819
-0.00957054
-0.274027
-0.266259
-0.245192
-0.213298
-0.17675
-0.140695
-0.108018
-0.0797565
-0.0559269
-0.0361576
-0.0199689
-0.00682139
0.00373853
0.0114911
0.0149095
-0.212137
-0.206017
-0.186091
-0.155868
-0.121723
-0.0885776
-0.0590117
-0.0338439
-0.0129882
0.00396112
0.0174973
0.0280856
0.0357958
0.0399424
0.0399189
-0.147021
-0.142203
-0.123894
-0.0958228
-0.0645365
-0.0346827
-0.00851722
0.0133479
0.0310998
0.045202
0.0561992
0.0644845
0.0697236
0.0710036
0.0687973
-0.0792793
-0.0759045
-0.0594835
-0.0339846
-0.00595285
0.0202956
0.0428238
0.0612081
0.0757286
0.0869131
0.0953636
0.101423
0.104525
0.104294
0.107241
-0.00991466
-0.00812797
0.00617967
0.0287717
0.0532371
0.0756417
0.0943574
0.109127
0.120304
0.128442
0.134104
0.13752
0.138369
0.13763
0.141613
0.0600099
0.0601248
0.0721243
0.0915542
0.112231
0.130634
0.145431
0.156515
0.164296
0.169336
0.172155
0.172952
0.171653
0.169596
0.171689
0.129438
0.127839
0.137385
0.153478
0.170234
0.184557
0.195397
0.202771
0.207129
0.209026
0.208949
0.20712
0.203637
0.199818
0.199426
0.197328
0.194009
0.201016
0.213682
0.226474
0.236725
0.243642
0.247352
0.24833
0.247116
0.244171
0.239723
0.233936
0.22804
0.225097
0.262671
0.257658
0.262103
0.271336
0.28021
0.286475
0.289574
0.289726
0.287421
0.283185
0.277456
0.270464
0.2624
0.254389
0.248934
0.324504
0.317856
0.31978
0.325656
0.330743
0.333185
0.33264
0.329401
0.32397
0.316855
0.30847
0.299043
0.288784
0.278709
0.270857
0.381925
0.37373
0.373236
0.375912
0.37742
0.376276
0.372323
0.36592
0.357572
0.347771
0.336909
0.325215
0.312906
0.300879
0.290768
0.4341
0.424479
0.421728
0.421433
0.419645
0.415213
0.408149
0.398859
0.387852
0.375602
0.362484
0.348727
0.334552
0.320726
0.308536
0.48028
0.469379
0.464587
0.461617
0.456879
0.44952
0.43969
0.427839
0.414473
0.40005
0.384933
0.369351
0.353525
0.338085
0.324032
0.519805
0.507798
0.501228
0.495936
0.488652
0.478775
0.466571
0.452523
0.437134
0.42085
0.40402
0.386879
0.369639
0.352805
0.337137
0.552116
0.539195
0.531152
0.523942
0.514562
0.502619
0.488471
0.472624
0.455581
0.437773
0.419543
0.401129
0.382735
0.364749
0.347747
0.576755
0.563133
0.553954
0.54527
0.534285
0.520762
0.505129
0.487909
0.469603
0.450633
0.431335
0.411952
0.392677
0.373806
0.355778
0.593375
0.579278
0.569328
0.559644
0.547572
0.532982
0.516346
0.4982
0.47904
0.459286
0.439269
0.419233
0.399364
0.379892
0.361167
0.601744
0.587407
0.577067
0.566878
0.554258
0.539129
0.521988
0.503375
0.483787
0.463637
0.443257
0.422892
0.402724
0.38295
0.363872
-0.341325
-0.242168
-0.188694
-0.143863
-0.111306
-0.0881564
-0.0703079
-0.0569011
-0.0464788
-0.0382944
-0.0317858
-0.0265448
-0.0222828
-0.0187845
-0.0158895
-0.0134764
-0.0114522
-0.00974448
-0.00829669
-0.00706388
-0.00601009
-0.00510629
-0.00432883
-0.00365832
-0.00307877
-0.00257688
-0.00214152
-0.00176337
-0.00143454
-0.00114834
-0.000899085
-0.000681906
-0.000492642
-0.00032772
-0.000184064
-5.90164e-05
4.97133e-05
0.000144104
0.000225864
0.000296464
0.000357176
0.000409087
0.00045313
0.000490093
0.00052064
0.00054531
0.000564554
0.000578702
0.000588005
0.000592697
-0.332109
-0.229163
-0.179913
-0.137787
-0.106581
-0.0847532
-0.0676926
-0.0548881
-0.0449043
-0.0370412
-0.030777
-0.0257222
-0.0216048
-0.0182201
-0.0154155
-0.0130753
-0.0111103
-0.00945122
-0.00804377
-0.00684467
-0.00581924
-0.00493946
-0.00418246
-0.00352948
-0.002965
-0.00247613
-0.00205206
-0.00168373
-0.00136346
-0.00108474
-0.000842033
-0.000630597
-0.000446375
-0.000285881
-0.000146113
-2.44812e-05
8.12516e-05
0.000173017
0.000252482
0.000321085
0.000380064
0.000430485
0.000473256
0.000509148
0.00053881
0.000562768
0.000581465
0.000595221
0.000604285
0.000608897
-0.323624
-0.220938
-0.172125
-0.132919
-0.10255
-0.0818017
-0.0654233
-0.0531058
-0.0434998
-0.0359113
-0.0298586
-0.0249669
-0.0209769
-0.0176934
-0.01497
-0.0126957
-0.0107848
-0.00917047
-0.00780037
-0.0066327
-0.00563389
-0.00477678
-0.00403921
-0.00340295
-0.00285293
-0.0023766
-0.00196346
-0.00160466
-0.00129274
-0.00102134
-0.000785054
-0.000579269
-0.00040002
-0.000243904
-0.000107992
1.02468e-05
0.000112996
0.000202143
0.000279315
0.000345918
0.000403161
0.000452084
0.000493576
0.000528388
0.000557155
0.000580392
0.000598532
0.000611886
0.000620702
0.000625217
-0.311499
-0.214252
-0.164755
-0.128543
-0.0989422
-0.0790801
-0.0633506
-0.0514583
-0.0421954
-0.0348574
-0.0289972
-0.0242555
-0.020383
-0.0171932
-0.0145453
-0.0123325
-0.0104723
-0.00890006
-0.00756522
-0.00642731
-0.00545379
-0.0046183
-0.0038993
-0.00327908
-0.00274296
-0.00227873
-0.00187615
-0.00152659
-0.00122278
-0.000958501
-0.00072849
-0.000528232
-0.000353856
-0.00020204
-6.9919e-05
4.49775e-05
0.000144783
0.000231342
0.000306245
0.000370865
0.000426384
0.000473819
0.000514037
0.000547772
0.000575646
0.000598159
0.000615739
0.000628686
0.000637249
0.000641651
-0.299267
-0.208791
-0.157969
-0.124288
-0.09558
-0.076454
-0.0613634
-0.0498715
-0.0409316
-0.0338344
-0.0281577
-0.0235601
-0.0198007
-0.0167015
-0.0141268
-0.0119738
-0.010163
-0.00863184
-0.00733154
-0.00622285
-0.00527422
-0.00446005
-0.00375941
-0.00315506
-0.00263274
-0.00218053
-0.00178846
-0.00144812
-0.00115239
-0.000895237
-0.000671502
-0.00047678
-0.000307292
-0.000159791
-3.14814e-05
8.00524e-05
0.000176894
0.000260844
0.000333458
0.000396076
0.000449853
0.000495781
0.000534708
0.000567351
0.000594317
0.000616094
0.000633101
0.000645629
0.000653928
0.000658203
-0.286506
-0.203186
-0.151658
-0.12003
-0.0923962
-0.0739098
-0.059437
-0.0483358
-0.0397018
-0.0328379
-0.0273382
-0.0228796
-0.01923
-0.0162186
-0.013715
-0.0116203
-0.00985756
-0.0083666
-0.00710011
-0.00602006
-0.00509587
-0.00430266
-0.0036201
-0.00303142
-0.00252272
-0.0020824
-0.00170074
-0.00136954
-0.00108185
-0.000831776
-0.000614291
-0.000425089
-0.000260479
-0.000117291
7.20815e-06
0.000115375
0.000209246
0.00029058
0.000360895
0.000421501
0.000473525
0.000517937
0.000555563
0.000587104
0.000613151
0.000634182
0.000650607
0.000662707
0.000670733
0.000674867
-0.274484
-0.197538
-0.145849
-0.115767
-0.0893172
-0.0714293
-0.0575446
-0.0468336
-0.0384934
-0.0318579
-0.0265309
-0.0222083
-0.0186661
-0.0157407
-0.013307
-0.0112694
-0.0095541
-0.0081027
-0.00686956
-0.00581782
-0.00491779
-0.00414536
-0.00348072
-0.0029076
-0.00241244
-0.00198396
-0.00161268
-0.00129059
-0.00101093
-0.00076794
-0.000556708
-0.000373034
-0.000213314
-7.44527e-05
4.62187e-05
0.000151002
0.000241885
0.000320585
0.000388585
0.000447162
0.000497418
0.000540298
0.000576609
0.000607034
0.000632151
0.000652425
0.000668256
0.000679918
0.000687662
0.000691644
-0.262909
-0.191499
-0.140363
-0.11152
-0.0863018
-0.0690117
-0.0556814
-0.0453608
-0.0373054
-0.0308931
-0.0257355
-0.0215458
-0.0181089
-0.0152679
-0.0129028
-0.0109214
-0.00925279
-0.00784036
-0.00664012
-0.00561632
-0.00474019
-0.00398831
-0.00334145
-0.00278375
-0.00230205
-0.00188534
-0.00152438
-0.00121137
-0.000939717
-0.000703796
-0.000498813
-0.000320669
-0.000165845
-3.13188e-05
8.55142e-05
0.000186902
0.000274783
0.000350836
0.000416506
0.000473041
0.000521515
0.00056285
0.000597834
0.000627132
0.000651307
0.000670813
0.000686041
0.000697256
0.000704709
0.000708529
-0.251963
-0.185242
-0.135126
-0.107323
-0.0833177
-0.0666458
-0.0538405
-0.0439092
-0.0361333
-0.0299396
-0.024949
-0.02089
-0.0175569
-0.014799
-0.0125014
-0.0105756
-0.00895301
-0.00757909
-0.00641138
-0.00541525
-0.00456281
-0.00383131
-0.00320209
-0.00265973
-0.00219142
-0.00178643
-0.00143576
-0.00113182
-0.000868164
-0.000639309
-0.000440578
-0.000267972
-0.000118055
1.21227e-05
0.000125103
0.000223079
0.000307943
0.000381332
0.000444657
0.000499135
0.000545813
0.00058559
0.000619233
0.000647392
0.000670614
0.000689342
0.000703958
0.000714718
0.000721872
0.000725519
-0.241371
-0.17871
-0.13001
-0.103185
-0.0803488
-0.064322
-0.0520202
-0.0424748
-0.034975
-0.0289962
-0.0241705
-0.0202402
-0.0170094
-0.0143336
-0.0121027
-0.0102317
-0.00865465
-0.00731882
-0.00618332
-0.00521459
-0.00438564
-0.00367438
-0.00306268
-0.00253557
-0.00208057
-0.00168726
-0.00134686
-0.00105196
-0.00079629
-0.000574499
-0.000382023
-0.000214961
-6.99612e-05
5.58559e-05
0.000164969
0.000259519
0.000341352
0.000412063
0.000473028
0.000525434
0.000570303
0.000608508
0.000640799
0.000667807
0.000690066
0.000708006
0.000722
0.000732297
0.000739144
0.000742613
-0.231058
-0.17199
-0.124961
-0.0991065
-0.0773859
-0.0620269
-0.0502163
-0.0410526
-0.0338274
-0.0280605
-0.023398
-0.0195951
-0.0164655
-0.013871
-0.0117061
-0.00988929
-0.00835739
-0.00705927
-0.00595572
-0.0050142
-0.00420856
-0.00351741
-0.00292314
-0.00241121
-0.00196948
-0.0015878
-0.00125764
-0.000971778
-0.000724087
-0.00050936
-0.000323146
-0.000161638
-2.15662e-05
9.98767e-05
0.000205109
0.000296218
0.000375003
0.00044302
0.000501611
0.000551931
0.000594976
0.000631597
0.000662524
0.00068837
0.000709655
0.000726798
0.000740162
0.00074999
0.000756522
0.000759806
-0.22085
-0.165068
-0.119913
-0.095071
-0.0744242
-0.0597484
-0.0484251
-0.0396389
-0.032688
-0.0271308
-0.0226304
-0.0189539
-0.0159246
-0.0134106
-0.0113112
-0.00954818
-0.00806104
-0.00680031
-0.00572848
-0.00481399
-0.00403153
-0.00336038
-0.00278346
-0.00228664
-0.00185813
-0.00148806
-0.00116812
-0.000891275
-0.000651563
-0.000443903
-0.000263957
-0.000108012
2.71193e-05
0.000144174
0.000245511
0.000333163
0.000408885
0.000474194
0.000530396
0.000578616
0.000619824
0.000654849
0.0006844
0.000709073
0.000729375
0.000745713
0.000758439
0.000767789
0.000774001
0.000777096
-0.210641
-0.157983
-0.114832
-0.0910607
-0.0714598
-0.0574748
-0.0466415
-0.0382304
-0.0315541
-0.0262055
-0.0218664
-0.0183156
-0.015386
-0.012952
-0.0109176
-0.00920809
-0.00776538
-0.00654182
-0.00550151
-0.0046139
-0.00385449
-0.00320324
-0.0026436
-0.00216183
-0.00174651
-0.00138802
-0.00107829
-0.000810458
-0.000578722
-0.000378134
-0.000204463
-5.40919e-05
7.60861e-05
0.00018874
0.000286166
0.000370346
0.00044299
0.000505575
0.000559373
0.00060548
0.000644838
0.000678255
0.000706418
0.000729909
0.000749218
0.000764742
0.000776822
0.000785691
0.000791576
0.000794479
-0.200288
-0.15073
-0.109669
-0.0870577
-0.0684858
-0.055199
-0.0448616
-0.0368245
-0.0304238
-0.0252835
-0.0211051
-0.0176796
-0.0148493
-0.012495
-0.0105253
-0.00886883
-0.00747038
-0.00628381
-0.0052748
-0.00441391
-0.00367745
-0.00304601
-0.00250357
-0.00203681
-0.00163464
-0.00128771
-0.000988161
-0.000729338
-0.000505579
-0.000312066
-0.000144678
1.08019e-07
0.000125321
0.000233558
0.000327059
0.000407753
0.000477305
0.000537151
0.000588532
0.000632511
0.000670007
0.000701803
0.000728569
0.000750867
0.000769176
0.000783877
0.000795306
0.000803687
0.00080924
0.00081195
-0.189626
-0.143311
-0.104372
-0.0830551
-0.0654887
-0.0529222
-0.0430833
-0.0354196
-0.0292955
-0.0243637
-0.020346
-0.0170456
-0.0143143
-0.0120393
-0.0101339
-0.00853018
-0.00717616
-0.00602628
-0.00504836
-0.00421403
-0.0035004
-0.00288869
-0.00236338
-0.00191159
-0.00152252
-0.00118713
-0.000897756
-0.000647933
-0.00043215
-0.000245715
-8.46189e-05
5.45729e-05
0.000174808
0.000278617
0.000368179
0.000445372
0.000511816
0.00056891
0.000617859
0.000659699
0.00069532
0.000725485
0.000750842
0.000771939
0.000789238
0.00080311
0.000813882
0.000821771
0.000826988
0.000829504
-0.178389
-0.135737
-0.0988832
-0.0790574
-0.0624524
-0.0506522
-0.0413058
-0.0340143
-0.0281679
-0.0234451
-0.0195882
-0.016413
-0.0137804
-0.0115846
-0.00974336
-0.00819191
-0.00688264
-0.00576911
-0.00482209
-0.00401421
-0.00332331
-0.00273125
-0.00222303
-0.00178615
-0.00141016
-0.00108628
-0.000807078
-0.00056625
-0.000358443
-0.000179093
-2.42953e-05
0.000109291
0.000224536
0.000323903
0.000409512
0.00048319
0.000546512
0.000600841
0.000647345
0.000687032
0.000720768
0.00074929
0.000773229
0.000793116
0.000809398
0.000822435
0.000832543
0.000839937
0.000844815
0.000847137
-0.166248
-0.128108
-0.0932004
-0.0750637
-0.0593817
-0.0483816
-0.0395243
-0.0326047
-0.0270375
-0.0225249
-0.0188295
-0.0157798
-0.0132464
-0.0111298
-0.00935281
-0.00785419
-0.00658836
-0.00551168
-0.00459562
-0.00381416
-0.00314598
-0.00257355
-0.00208238
-0.00166041
-0.0012975
-0.000985133
-0.000716093
-0.000484266
-0.000284444
-0.000112189
3.62964e-05
0.000164264
0.000274504
0.000369414
0.000451055
0.000521203
0.000581389
0.000632938
0.000676984
0.000714507
0.000746345
0.000773215
0.000795727
0.000814396
0.000829654
0.000841849
0.00085129
0.000858185
0.000862722
0.000864854
-0.152914
-0.120539
-0.0874166
-0.0710226
-0.0563235
-0.0460524
-0.0377233
-0.0311807
-0.0258972
-0.0215977
-0.0180657
-0.015143
-0.0127097
-0.010673
-0.00896074
-0.0075153
-0.00629305
-0.00525338
-0.00436842
-0.00361348
-0.00296808
-0.00241534
-0.00194127
-0.00153424
-0.00118443
-0.000883595
-0.000624743
-0.000401938
-0.000210123
-4.49829e-05
9.71715e-05
0.000219501
0.000324719
0.000415155
0.00049281
0.000559412
0.000616448
0.000665202
0.000706777
0.000742123
0.000772053
0.00079726
0.000818336
0.000835779
0.000850007
0.000861356
0.000870125
0.000876519
0.000880714
0.00088266
-0.138467
-0.112894
-0.0816454
-0.0668321
-0.0532305
-0.0436726
-0.0358914
-0.0297347
-0.0247409
-0.020659
-0.0172936
-0.0145001
-0.0121684
-0.0102129
-0.00856617
-0.00717448
-0.00599627
-0.00499386
-0.00414027
-0.00341201
-0.00278951
-0.00225654
-0.00179965
-0.0014076
-0.00107093
-0.000781669
-0.000533035
-0.000319278
-0.00013549
2.25134e-05
0.000158317
0.000274989
0.000375167
0.000461111
0.000534766
0.000597806
0.000651676
0.000697622
0.000736714
0.000769871
0.000797882
0.000821417
0.000841049
0.00085726
0.000870451
0.000880948
0.000889042
0.000894934
0.000898786
0.000900551
-0.123631
-0.104506
-0.0758117
-0.0624903
-0.0500683
-0.0412389
-0.0340249
-0.0282674
-0.0235713
-0.0197123
-0.0165167
-0.0138545
-0.0116258
-0.00975216
-0.00817142
-0.00683368
-0.00569971
-0.00473455
-0.0039123
-0.0032107
-0.00261107
-0.00209782
-0.00165805
-0.00128094
-0.000957384
-0.000679658
-0.000441216
-0.000236488
-6.07163e-05
9.01585e-05
0.000219614
0.000330629
0.000425763
0.000507211
0.000576856
0.000636326
0.000687021
0.00073015
0.000766748
0.000797707
0.000823789
0.000845644
0.000863825
0.000878795
0.000890945
0.000900585
0.000908001
0.00091339
0.0009169
0.000918488
-0.108281
-0.0954124
-0.0697974
-0.057975
-0.0468165
-0.0387633
-0.0321431
-0.0268009
-0.0224098
-0.0187768
-0.0157516
-0.0132202
-0.0110933
-0.00930023
-0.00778419
-0.00649917
-0.00540839
-0.00447951
-0.0036878
-0.00301218
-0.00243485
-0.00194087
-0.00151783
-0.00115536
-0.00084465
-0.00057826
-0.000349851
-0.000154026
1.38261e-05
0.000157646
0.000280809
0.000386207
0.000476326
0.000553295
0.000618944
0.00067485
0.000722371
0.00076268
0.000796782
0.000825538
0.000849686
0.000869854
0.000886577
0.000900302
0.000911406
0.000920185
0.000926921
0.000931806
0.000934974
0.000936386
-0.0922403
-0.0855429
-0.0634609
-0.0532671
-0.0434912
-0.036286
-0.030289
-0.0253743
-0.0212896
-0.0178796
-0.0150203
-0.0126147
-0.0105849
-0.00886815
-0.00741315
-0.00617773
-0.00512764
-0.00423289
-0.00346999
-0.00281897
-0.00226281
-0.0017872
-0.00138018
-0.00103177
-0.000733457
-0.000478047
-0.000259393
-7.22556e-05
8.78436e-05
0.000224735
0.000341701
0.000441554
0.00052671
0.000599238
0.000660916
0.000713274
0.000757633
0.000795128
0.000826734
0.000853286
0.000875498
0.000893977
0.000909239
0.000921717
0.00093177
0.000939688
0.000945743
0.000950124
0.000952953
0.000954187
-0.0754877
-0.0748021
-0.0567499
-0.0484149
-0.040144
-0.0338439
-0.0284811
-0.023993
-0.0202088
-0.0170152
-0.0143156
-0.0120303
-0.0100931
-0.00844901
-0.00705209
-0.0058639
-0.00485267
-0.00399059
-0.00325539
-0.0026281
-0.00209247
-0.00163472
-0.00124335
-0.00090872
-0.000622609
-0.000378036
-0.000169035
9.48348e-06
0.000161876
0.000291869
0.000402656
0.000496971
0.000577166
0.000645252
0.000702954
0.00075176
0.000792949
0.000827624
0.000856729
0.000881072
0.000901344
0.00091813
0.000931929
0.000943157
0.000952161
0.000959217
0.000964594
0.000968475
0.000970969
0.000972036
-0.0580178
-0.0633701
-0.0498691
-0.0435518
-0.0367868
-0.0313692
-0.0266167
-0.0225463
-0.0190621
-0.0160892
-0.0135557
-0.0113979
-0.00956019
-0.00799508
-0.00666179
-0.00552563
-0.0045574
-0.00373144
-0.00302684
-0.0024257
-0.00191261
-0.00147439
-0.00110006
-0.00078035
-0.000507379
-0.000274415
-7.56994e-05
9.36862e-05
0.000237954
0.000360709
0.000465042
0.000553601
0.00062866
0.000692164
0.000745782
0.000790949
0.000828902
0.000860707
0.000887273
0.00090938
0.000927692
0.000942774
0.000955102
0.000965078
0.000973033
0.00097923
0.000983932
0.000987321
0.00098949
0.000990435
-0.0401883
-0.0519345
-0.0432123
-0.0387493
-0.0332712
-0.0286278
-0.0244517
-0.02081
-0.0176549
-0.0149378
-0.0126054
-0.0106069
-0.0088966
-0.00743416
-0.00618435
-0.00511663
-0.00420489
-0.00342603
-0.00276096
-0.00219321
-0.00170851
-0.00129457
-0.00094108
-0.000639355
-0.000381969
-0.000162565
2.4308e-05
0.000183321
0.000318479
0.000433217
0.000530483
0.0006128
0.000682345
0.000740973
0.000790278
0.000831631
0.000866215
0.000895048
0.000919001
0.000938816
0.00095513
0.000968479
0.00097932
0.000988035
0.000994936
0.00100027
0.0010043
0.00100721
0.00100906
0.00100997
-0.0227229
-0.0410448
-0.0367794
-0.0337931
-0.0293558
-0.0254376
-0.0218684
-0.0187129
-0.0159468
-0.0135402
-0.0114561
-0.00965664
-0.00810621
-0.00677279
-0.00562763
-0.00464523
-0.00380338
-0.00308221
-0.00246501
-0.00193723
-0.00148613
-0.00110052
-0.000771015
-0.000489699
-0.000249769
-4.53679e-05
0.000128554
0.000276344
0.000401742
0.000507965
0.000597783
0.000673572
0.000737383
0.000790971
0.000835838
0.000873283
0.000904425
0.00093023
0.000951526
0.000969016
0.000983305
0.000994901
0.00100424
0.00101168
0.00101752
0.00102198
0.00102534
0.00102777
0.00102931
0.00103024
-0.00561365
-0.0294983
-0.0295285
-0.0282888
-0.0251677
-0.0222088
-0.0193838
-0.0167824
-0.0144303
-0.0123353
-0.0104881
-0.00887042
-0.00746083
-0.00623756
-0.00517939
-0.00426636
-0.0034803
-0.0028045
-0.00222456
-0.00172776
-0.00130263
-0.000938887
-0.000627894
-0.00036238
-0.000136053
5.65508e-05
0.000220177
0.000358931
0.000476363
0.000575536
0.000659093
0.000729309
0.000788152
0.000837307
0.000878214
0.000912117
0.000940096
0.00096308
0.000981868
0.000997137
0.00100947
0.00101935
0.00102721
0.00103338
0.00103814
0.00104173
0.00104439
0.00104632
0.00104756
0.00104836
0.0131965
-0.0141466
-0.0200171
-0.0222677
-0.0215512
-0.0200556
-0.0181292
-0.0160647
-0.0140297
-0.0121179
-0.0103728
-0.00880904
-0.00742502
-0.00621108
-0.0051534
-0.00423646
-0.00344473
-0.00276307
-0.00217793
-0.00167701
-0.00124891
-0.000883248
-0.000571304
-0.000305707
-8.00475e-05
0.000111269
0.000273116
0.000409717
0.000524725
0.000621294
0.000702143
0.00076961
0.000825714
0.000872182
0.000910485
0.000941891
0.0009675
0.000988257
0.00100497
0.00101833
0.00102891
0.00103722
0.00104367
0.00104861
0.00105231
0.00105501
0.00105696
0.00105834
0.00105929
0.00105944
0.0350864
0.0053639
-0.00868847
-0.0163387
-0.0190228
-0.0193082
-0.0183013
-0.0166756
-0.0148126
-0.0129266
-0.0111318
-0.00948344
-0.00800317
-0.00669364
-0.00554743
-0.00455189
-0.00369231
-0.00295332
-0.0023205
-0.00178036
-0.00132038
-0.000929271
-0.000597318
-0.000316233
-7.88023e-05
0.000121252
0.000289381
0.000430292
0.000548043
0.000646121
0.00072752
0.000794803
0.000850171
0.0008955
0.000932384
0.000962194
0.00098611
0.00100514
0.00102014
0.00103183
0.00104084
0.00104768
0.00105278
0.0010565
0.00105915
0.00106094
0.00106218
0.00106289
0.0010636
0.00106247
0.0537074
0.02089
0.00113083
-0.010365
-0.015525
-0.0172001
-0.0170195
-0.0158928
-0.0143302
-0.0126225
-0.0109311
-0.00934097
-0.00789205
-0.00659824
-0.00545904
-0.00446605
-0.00360703
-0.00286805
-0.00223526
-0.00169527
-0.00123598
-0.00084649
-0.000517031
-0.000239109
-5.31943e-06
0.000190773
0.000354744
0.000491407
0.000604903
0.000698784
0.000776095
0.000839435
0.00089103
0.000932771
0.000966275
0.000992935
0.00101394
0.00103029
0.00104285
0.00105233
0.00105935
0.00106442
0.00106796
0.00107033
0.00107183
0.00107269
0.00107318
0.00107325
0.00107365
0.0010716
0.0931882
0.0525538
0.026289
0.00987752
0.000785145
-0.00396985
-0.00624239
-0.00707517
-0.00707947
-0.00662729
-0.00594587
-0.00517216
-0.00438681
-0.0036355
-0.00294237
-0.00231833
-0.00176612
-0.00128359
-0.000865634
-0.000505464
-0.000197916
6.20617e-05
0.00028032
0.000462507
0.000613699
0.000738375
0.000840467
0.000923408
0.000990173
0.00104334
0.00108511
0.00111739
0.00114178
0.00115967
0.00117226
0.00118062
0.00118565
0.00118808
0.00118851
0.00118748
0.00118542
0.00118268
0.00117959
0.00117638
0.00117326
0.00117043
0.00116799
0.00116598
0.00116434
0.0011628
0.131529
0.0819351
0.0537186
0.0348547
0.0223753
0.014295
0.00910064
0.00578746
0.00370875
0.00244006
0.00169834
0.0012949
0.00110459
0.00104481
0.00106139
0.00111913
0.00119562
0.00127711
0.00135575
0.0014273
0.00148875
0.00153834
0.00157599
0.00160257
0.00161932
0.00162759
0.00162867
0.0016238
0.0016141
0.00160058
0.00158413
0.0015655
0.00154537
0.0015243
0.00150281
0.00148137
0.00146034
0.00144002
0.00142065
0.00140242
0.00138549
0.00136998
0.001356
0.00134361
0.00133291
0.00132392
0.00131664
0.00131104
0.00130703
0.00130576
0.133589
0.097764
0.0712167
0.0520083
0.038057
0.0281278
0.0211055
0.0161242
0.012575
0.010034
0.00820352
0.00687399
0.00589819
0.00517271
0.0046248
0.00420323
0.00387191
0.00360553
0.00338642
0.00320198
0.00304297
0.00290261
0.00277624
0.00266081
0.00255428
0.00245528
0.00236286
0.00227634
0.00219524
0.0021192
0.00204796
0.00198129
0.001919
0.00186096
0.00180704
0.00175714
0.00171117
0.00166901
0.00163056
0.00159573
0.0015644
0.00153649
0.00151191
0.00149058
0.00147244
0.0014574
0.00144539
0.00143636
0.00143042
0.00142791
0.130525
0.101891
0.0790103
0.06148
0.0480233
0.037769
0.0300176
0.0241596
0.0197141
0.0163207
0.0137111
0.0116861
0.010098
0.00883776
0.00782484
0.00699988
0.00631895
0.00574951
0.00526735
0.00485423
0.00449627
0.00418282
0.00390577
0.00365898
0.00343777
0.00323848
0.00305824
0.00289474
0.00274609
0.00261073
0.00248735
0.00237485
0.00227227
0.00217881
0.00209375
0.0020165
0.00194651
0.0018833
0.00182645
0.00177557
0.00173032
0.0016904
0.00165554
0.00162553
0.00160016
0.00157925
0.00156267
0.00155034
0.00154228
0.00153843
0.120628
0.100721
0.0827682
0.0675467
0.0550464
0.0449839
0.0369902
0.0306702
0.0256662
0.021689
0.0185105
0.0159521
0.0138757
0.012175
0.0107689
0.00959523
0.0086064
0.00776583
0.00704525
0.00642263
0.00588073
0.00540589
0.00498731
0.00461638
0.00428623
0.00399129
0.00372699
0.00348959
0.00327594
0.00308337
0.00290964
0.0027528
0.0026112
0.0024834
0.00236813
0.00226433
0.00217101
0.00208736
0.00201261
0.00194613
0.00188734
0.00183575
0.0017909
0.00175244
0.00172004
0.00169343
0.0016724
0.00165682
0.00164657
0.00164151
0.112458
0.0973457
0.082883
0.0700324
0.0589776
0.0496701
0.041942
0.0355834
0.0303649
0.0260763
0.022541
0.0196135
0.0171757
0.0151332
0.0134105
0.0119478
0.0106978
0.00962272
0.00869262
0.00788348
0.00717594
0.00655436
0.00600598
0.00552038
0.00508897
0.00470465
0.00436149
0.00405449
0.00377942
0.00353266
0.00331112
0.00311212
0.00293333
0.00277276
0.00262862
0.00249941
0.00238376
0.00228051
0.00218861
0.00210717
0.00203538
0.00197257
0.00191813
0.00187155
0.0018324
0.00180031
0.00177499
0.00175624
0.00174386
0.00173772
0.103497
0.0927139
0.0816288
0.0710733
0.0614651
0.0529979
0.0456888
0.0394647
0.0341974
0.0297466
0.025983
0.0227941
0.020084
0.0177718
0.0157908
0.0140859
0.0126121
0.0113326
0.0102172
0.00924102
0.0083837
0.00762828
0.00696066
0.00636906
0.00584359
0.00537591
0.00495893
0.00458662
0.00425379
0.00395599
0.00368935
0.00345052
0.00323659
0.00304501
0.00287357
0.00272031
0.00258353
0.00246173
0.0023536
0.002258
0.00217392
0.00210051
0.00203699
0.00198274
0.0019372
0.00189993
0.00187055
0.00184879
0.00183441
0.00182726
0.0968755
0.0884684
0.0795012
0.0707066