/*--------------------------------*- C++ -*----------------------------------*\
  =========                 |
  \\      /  F ield         | OpenFOAM: The Open Source CFD Toolbox
   \\    /   O peration     | Website:  https://openfoam.org
    \\  /    A nd           | Version:  7
     \\/     M anipulation  |
\*---------------------------------------------------------------------------*/
FoamFile
{
    version     2.0;
    format      ascii;
    class       volVectorField;
    location    "9.999";
    object      U;
}
// * * * * * * * * * * * * * * * * * * * * * * * * * * * * * * * * * * * * * //

dimensions      [0 1 -1 0 0 0 0];

internalField   nonuniform List<vector> 
14800
(
(-0.00398725 0.00247699 -1.9873e-20)
(-0.0196599 0.00498456 2.61508e-21)
(-0.0451788 0.00624186 1.13128e-20)
(-0.0723451 0.0068362 -6.00167e-21)
(-0.100224 0.00708584 -1.96466e-20)
(-0.127837 0.00719056 1.86475e-20)
(-0.154953 0.00725573 7.81946e-22)
(-0.181608 0.00732851 2.20373e-21)
(-0.207918 0.00742299 -1.05888e-20)
(-0.233991 0.00753759 -1.35331e-21)
(-0.259913 0.00766636 8.19617e-21)
(-0.285759 0.00780624 7.12761e-21)
(-0.311519 0.00796072 2.70701e-20)
(-0.337052 0.0081259 -3.07141e-20)
(-0.362959 0.00834372 1.27342e-20)
(-0.00424302 0.00734932 4.17314e-20)
(-0.0198921 0.0148187 -2.58719e-20)
(-0.0449877 0.0185786 -9.21098e-21)
(-0.0715702 0.0203597 1.97895e-21)
(-0.0987246 0.0211061 1.83746e-20)
(-0.125474 0.0214127 3.66264e-20)
(-0.151565 0.0215948 -3.16091e-20)
(-0.177003 0.0217943 5.69551e-21)
(-0.201866 0.022054 2.80441e-20)
(-0.226223 0.0223691 3.03458e-20)
(-0.250109 0.0227206 -3.84194e-20)
(-0.273544 0.0230964 4.23012e-20)
(-0.296465 0.023506 -6.27655e-20)
(-0.318627 0.0239712 6.08674e-20)
(-0.340239 0.0244645 1.25289e-20)
(-0.00474029 0.0119818 6.6925e-20)
(-0.0203497 0.0242542 1.19774e-19)
(-0.0446226 0.0304791 6.49252e-21)
(-0.070063 0.0334398 -3.30178e-20)
(-0.0957956 0.034675 -1.62972e-20)
(-0.120851 0.0351611 -5.8168e-20)
(-0.144936 0.0354208 4.12339e-20)
(-0.167999 0.0356923 5.20071e-20)
(-0.19005 0.0360489 -5.92825e-20)
(-0.211085 0.0364817 -2.37257e-20)
(-0.231053 0.0369566 8.05397e-20)
(-0.249879 0.0374453 -2.83696e-20)
(-0.267383 0.0379461 2.73274e-20)
(-0.283287 0.0386413 3.24779e-20)
(-0.296665 0.0389424 5.20856e-20)
(-0.00545195 0.0162314 -5.6774e-20)
(-0.0210195 0.0330461 -1.98189e-19)
(-0.0441163 0.0416686 9.68057e-20)
(-0.0679053 0.0457929 -9.34817e-21)
(-0.0915732 0.0475016 3.65214e-20)
(-0.114169 0.0481312 -1.08457e-19)
(-0.135351 0.0484066 3.79393e-21)
(-0.154991 0.0486645 1.47437e-21)
(-0.173015 0.0490115 4.12633e-20)
(-0.189325 0.0494356 -4.85796e-20)
(-0.203773 0.0498839 -1.35149e-19)
(-0.21618 0.0503086 -4.85506e-20)
(-0.226133 0.0506194 -6.50489e-21)
(-0.233779 0.0514868 1.37862e-20)
(-0.235604 0.0508732 -5.86036e-20)
(-0.00634076 0.0199792 -1.26104e-19)
(-0.0218834 0.0409797 9.34332e-20)
(-0.0435151 0.0518962 5.68984e-21)
(-0.0652126 0.0571529 1.0195e-20)
(-0.0862496 0.0593105 -7.94529e-20)
(-0.10571 0.0600348 5.99787e-20)
(-0.123204 0.0602457 -2.19081e-20)
(-0.138525 0.0603802 3.49975e-20)
(-0.151508 0.0605837 -2.01157e-20)
(-0.161962 0.0608428 1.23922e-19)
(-0.169635 0.0610816 9.76865e-20)
(-0.17433 0.0612555 6.59466e-20)
(-0.17507 0.0609806 -1.05002e-19)
(-0.173593 0.0620078 2.79677e-20)
(-0.16136 0.0596805 -3.11067e-20)
(-0.00736309 0.023137 1.98419e-22)
(-0.0229195 0.0478803 1.62459e-19)
(-0.0428748 0.0609434 -1.21341e-19)
(-0.062126 0.0672787 1.01161e-19)
(-0.0800594 0.0698469 8.84605e-20)
(-0.0958172 0.0706054 -5.02692e-20)
(-0.108976 0.0706581 3.49762e-20)
(-0.119256 0.0705438 -1.42404e-19)
(-0.126412 0.0704526 4.15683e-20)
(-0.130173 0.0703762 -9.43776e-20)
(-0.130171 0.0702064 4.97932e-20)
(-0.12644 0.0699829 -1.17776e-19)
(-0.1167 0.0686889 -2.86053e-20)
(-0.106261 0.0697127 -6.00738e-20)
(-0.0785941 0.0654009 7.1527e-20)
(-0.00847325 0.0256521 -1.43203e-20)
(-0.0241041 0.0536206 -1.66842e-19)
(-0.0422563 0.0686317 1.53174e-20)
(-0.0588005 0.0759606 2.12085e-21)
(-0.0732618 0.0788826 2.49756e-20)
(-0.0848699 0.0796037 2.22216e-19)
(-0.09319 0.0793959 -1.76326e-20)
(-0.0978878 0.0788996 1.16044e-19)
(-0.0986554 0.0783559 1.44526e-20)
(-0.0951791 0.0777743 8.49212e-21)
(-0.0868949 0.0770014 -3.72375e-20)
(-0.0745457 0.0762485 8.88524e-20)
(-0.0534778 0.0737298 2.22595e-19)
(-0.0344685 0.0737855 -2.51926e-19)
(0.00846005 0.0687093 -9.19347e-20)
(-0.00962818 0.0275086 9.47306e-20)
(-0.0254133 0.0581254 1.64756e-19)
(-0.0417198 0.0748294 -4.43911e-20)
(-0.0553921 0.0830271 -7.69732e-20)
(-0.0661188 0.0862227 -7.6855e-20)
(-0.0732483 0.0868226 1.00009e-20)
(-0.0763642 0.0862479 7.11514e-20)
(-0.0751042 0.085237 -2.25594e-19)
(-0.0691166 0.0840874 -3.57271e-21)
(-0.058106 0.0828449 -6.85489e-20)
(-0.0411624 0.0813392 -1.68972e-19)
(-0.020231 0.079777 1.73705e-19)
(0.0124168 0.0761469 -2.40375e-19)
(0.0397577 0.0748071 1.31414e-19)
(0.0984876 0.069001 9.5975e-20)
(-0.0107916 0.0287262 -5.1749e-20)
(-0.0268251 0.0613731 6.12016e-20)
(-0.0413182 0.0794556 -1.1011e-19)
(-0.0520422 0.0883515 9.39373e-20)
(-0.0588692 0.0917118 1.27426e-19)
(-0.0612967 0.0920943 1.51925e-19)
(-0.0589578 0.091046 -6.1848e-20)
(-0.0514903 0.0893977 -4.79021e-20)
(-0.0385082 0.0875103 2.23669e-19)
(-0.0197848 0.0854554 1.62172e-19)
(0.0060371 0.0831223 1.53588e-19)
(0.0354138 0.080581 -2.28828e-19)
(0.0806371 0.0758961 6.7917e-20)
(0.114422 0.0737522 6.67306e-20)
(0.192119 0.0659232 -2.3999e-21)
(-0.0119375 0.0293569 -2.26811e-19)
(-0.0283193 0.0633935 -2.95192e-19)
(-0.0410897 0.0824835 1.10677e-19)
(-0.048859 0.0918574 1.49647e-19)
(-0.0516978 0.0952418 -3.09717e-19)
(-0.0492758 0.0952986 -1.41464e-20)
(-0.041301 0.0936751 -1.22476e-19)
(-0.0274293 0.0912856 2.93457e-19)
(-0.00724353 0.0885551 -1.30783e-19)
(0.0193792 0.0855746 -1.62088e-20)
(0.0545351 0.0823838 1.02825e-19)
(0.0921168 0.078811 2.59594e-19)
(0.151967 0.0732587 1.16128e-19)
(0.190121 0.0703913 -9.46065e-20)
(0.291532 0.060993 -1.90956e-20)
(-0.0130528 0.0294781 1.5753e-19)
(-0.0298769 0.0642607 2.1136e-19)
(-0.0410485 0.0839405 -1.44992e-19)
(-0.0458976 0.0935239 -4.95078e-19)
(-0.0447007 0.0967611 -5.43775e-20)
(-0.0373092 0.096374 1.69568e-21)
(-0.0235154 0.0940859 1.64882e-19)
(-0.00299342 0.0908834 -3.68124e-19)
(0.0247449 0.0872596 -1.66963e-20)
(0.0596727 0.083316 -1.96463e-19)
(0.105037 0.0794264 -2.61341e-19)
(0.151118 0.0745484 -1.71196e-19)
(0.228413 0.0691986 1.66319e-20)
(0.269665 0.0647866 -5.78636e-20)
(0.400882 0.0557745 -1.86528e-19)
(-0.014138 0.0291846 8.69383e-20)
(-0.0314771 0.0640848 1.52456e-19)
(-0.0411749 0.0839063 -6.99515e-20)
(-0.0431389 0.0933889 -6.32919e-20)
(-0.0378467 0.0962819 4.03721e-19)
(-0.0253219 0.095331 -4.17315e-19)
(-0.00542269 0.0923136 2.15559e-20)
(0.022191 0.0882808 9.69738e-20)
(0.0581557 0.0838098 7.16361e-20)
(0.102305 0.078952 5.03229e-20)
(0.159321 0.0748024 8.83718e-20)
(0.215366 0.068272 -6.74284e-20)
(0.312958 0.0648725 2.07057e-19)
(0.357851 0.0577742 1.71041e-19)
(0.523957 0.0517599 1.16989e-19)
(-0.0152039 0.0285752 3.73434e-20)
(-0.0330985 0.0630125 -3.08797e-19)
(-0.0413997 0.0825016 4.50227e-19)
(-0.0404658 0.091548 5.58087e-19)
(-0.0309377 0.0938884 -1.87882e-19)
(-0.0129777 0.0922663 6.71275e-20)
(0.0135459 0.0884993 -1.74578e-19)
(0.0490611 0.0837015 -2.94236e-20)
(0.0944522 0.0785637 -3.32305e-19)
(0.149504 0.0730057 7.20373e-20)
(0.220176 0.0692644 2.82515e-19)
(0.289228 0.0611432 -3.84923e-20)
(0.408428 0.0612877 9.54869e-20)
(0.460411 0.0512196 -3.85521e-20)
(0.66067 0.050376 1.23771e-20)
(-0.0162653 0.0277531 -1.83768e-19)
(-0.034707 0.0612024 -2.06582e-19)
(-0.0416011 0.0798798 -4.92871e-19)
(-0.0376397 0.0881543 -3.52892e-19)
(-0.0235719 0.0897421 -2.78259e-19)
(0.000375108 0.0873756 3.159e-19)
(0.0344194 0.0829111 6.26534e-20)
(0.0791844 0.0775336 1.37373e-19)
(0.135875 0.0720871 7.47089e-20)
(0.204364 0.0663164 -2.08348e-19)
(0.290975 0.0636831 -1.10213e-19)
(0.377303 0.0550809 3.26002e-20)
(0.516108 0.0591725 -4.06221e-19)
(0.581146 0.0476584 9.31997e-20)
(0.804681 0.0526878 -2.47563e-19)
(-0.0173446 0.0268128 9.41556e-20)
(-0.0362447 0.0588023 7.20633e-19)
(-0.0415889 0.0762254 3.65181e-19)
(-0.0342858 0.0834134 1.70318e-19)
(-0.0151176 0.0840825 4.33196e-19)
(0.0157363 0.0809627 -3.78654e-19)
(0.0587069 0.075961 -1.5728e-19)
(0.114719 0.0703538 -1.52128e-19)
(0.185254 0.0651637 7.33917e-19)
(0.270291 0.0600439 2.39439e-19)
(0.374859 0.0590428 -1.87162e-19)
(0.48219 0.052229 1.02584e-19)
(0.634842 0.0591576 -1.3776e-19)
(0.718064 0.0490733 1.47771e-19)
(0.944563 0.0588226 7.19702e-20)
(-0.0184593 0.0258264 -9.03237e-21)
(-0.0376267 0.0559521 -3.84372e-19)
(-0.0410945 0.0717356 -3.49491e-19)
(-0.0298836 0.0775719 -1.21306e-19)
(-0.0047068 0.0772226 -2.13259e-19)
(0.0344448 0.0734409 2.19899e-19)
(0.0883358 0.0682111 1.07106e-19)
(0.158216 0.0629301 -1.61759e-19)
(0.245559 0.0587756 2.03863e-21)
(0.350063 0.0555319 -1.25841e-19)
(0.473566 0.0565364 2.86467e-20)
(0.60231 0.0539845 3.98268e-20)
(0.760615 0.0619819 3.53544e-20)
(0.861396 0.0557988 9.11968e-20)
(1.06797 0.067542 -2.52878e-19)
(-0.0196132 0.0248405 -1.88303e-19)
(-0.038732 0.0527726 1.54933e-19)
(-0.0397669 0.0666065 1.46037e-19)
(-0.0237687 0.070905 1.83949e-20)
(0.0087458 0.0695385 1.47471e-19)
(0.0581135 0.0653241 -1.98695e-19)
(0.125482 0.0603624 2.06642e-19)
(0.212238 0.0561958 3.34833e-20)
(0.319198 0.0540506 -2.35808e-19)
(0.444728 0.054021 7.00745e-21)
(0.586081 0.0574767 -2.39653e-19)
(0.731345 0.0604631 2.1898e-19)
(0.886449 0.0680525 3.05102e-20)
(0.996436 0.0664932 5.20016e-20)
(1.16601 0.0766996 2.55555e-19)
(-0.0207932 0.0238786 5.27021e-19)
(-0.0393943 0.0493529 -2.07661e-19)
(-0.0371757 0.0610208 -1.10295e-19)
(-0.0151509 0.0637033 -1.35978e-19)
(0.0264898 0.0614542 -3.68689e-19)
(0.0885017 0.0572101 -1.21633e-19)
(0.172293 0.0532251 2.40888e-19)
(0.278834 0.0511792 -1.60895e-19)
(0.407178 0.0521392 -6.26441e-19)
(0.552738 0.0563636 2.31084e-19)
(0.707737 0.0627623 5.4026e-20)
(0.859851 0.0707406 -1.4463e-19)
(1.00333 0.0768534 8.55093e-20)
(1.10993 0.0790567 -8.37505e-20)
(1.2356 0.0842667 1.04194e-19)
(-0.021966 0.0229384 -8.52326e-20)
(-0.0393996 0.0457457 2.72909e-19)
(-0.0328187 0.055141 3.05575e-19)
(-0.00314728 0.0562596 2.35408e-19)
(0.0498566 0.0534248 3.63055e-19)
(0.127332 0.0497545 3.22125e-19)
(0.230525 0.0476702 -3.64624e-19)
(0.358944 0.0488875 5.07412e-19)
(0.508348 0.0539923 4.00494e-19)
(0.669672 0.0628571 -3.75255e-19)
(0.830708 0.0722898 2.88332e-19)
(0.978062 0.0833021 -7.69947e-20)
(1.10294 0.087159 -1.43045e-19)
(1.19502 0.0916511 -2.0075e-19)
(1.27902 0.0890268 -1.0543e-19)
(-0.0230686 0.0219881 -2.35504e-19)
(-0.038493 0.0419744 4.68706e-19)
(-0.0261388 0.0491056 -2.54388e-20)
(0.0131724 0.0488598 4.86399e-20)
(0.0801535 0.0459214 -6.60965e-20)
(0.176072 0.0436435 -5.05152e-21)
(0.301147 0.0445633 3.10498e-19)
(0.451858 0.0501534 -2.37436e-19)
(0.619081 0.0600789 2.41269e-19)
(0.788771 0.0731588 3.02709e-19)
(0.946118 0.0849124 -1.96492e-19)
(1.07857 0.096464 1.58572e-19)
(1.18063 0.0978446 -6.11143e-20)
(1.25184 0.102912 1.51544e-19)
(1.30151 0.0905931 7.32382e-20)
(-0.0240093 0.0209822 -3.30439e-19)
(-0.0363757 0.0380374 3.60242e-20)
(-0.0165451 0.0430291 1.2513e-19)
(0.0347344 0.0417811 -2.02274e-19)
(0.118548 0.0394245 -2.31466e-19)
(0.235693 0.0395678 1.42115e-19)
(0.383957 0.0446724 -2.65364e-19)
(0.554924 0.0554599 2.09686e-19)
(0.733653 0.0701912 -8.65466e-20)
(0.902391 0.0863064 -3.31492e-19)
(1.04669 0.0989467 -1.92782e-19)
(1.15787 0.108923 2.84905e-19)
(1.23626 0.108231 -1.21929e-19)
(1.28541 0.111399 -7.74168e-20)
(1.30929 0.089222 -1.34223e-19)
(-0.0246821 0.0198727 6.49338e-19)
(-0.0327081 0.0339097 -7.99805e-19)
(-0.00342995 0.0370122 -1.83127e-19)
(0.0624093 0.0353002 -1.08195e-19)
(0.165948 0.0344256 6.72976e-20)
(0.306436 0.0381863 -2.6811e-19)
(0.477313 0.0485448 1.55876e-19)
(0.663677 0.0647849 7.7806e-20)
(0.845379 0.083476 -5.20368e-19)
(1.00392 0.100959 4.28057e-19)
(1.12846 0.112843 1.13419e-19)
(1.21623 0.120096 -3.07391e-19)
(1.27261 0.117573 1.80993e-19)
(1.30229 0.116202 1.18324e-19)
(1.31821 0.0989275 2.56552e-20)
(-0.0249627 0.018604 -4.37237e-19)
(-0.0271284 0.0295634 7.27129e-19)
(0.013811 0.0311616 7.10009e-20)
(0.0969627 0.0297107 -2.61762e-19)
(0.222875 0.0314333 3.23552e-19)
(0.387597 0.0400674 -1.96236e-19)
(0.578087 0.0563681 2.11893e-20)
(0.772545 0.077555 -2.52546e-19)
(0.94813 0.0986975 4.5799e-19)
(1.08925 0.115803 -2.05301e-19)
(1.19093 0.125644 5.65774e-20)
(1.25635 0.129877 -9.00003e-20)
(1.29384 0.125026 -9.55866e-21)
(1.31099 0.122025 1.3057e-20)
(1.31824 0.104298 2.91216e-20)
(-0.0247046 0.0171236 9.37341e-20)
(-0.0192606 0.0249915 -4.30103e-19)
(0.0357586 0.0256088 -3.76918e-19)
(0.139002 0.0253467 1.00418e-19)
(0.28933 0.0309663 -2.62277e-19)
(0.477376 0.0455922 -2.42683e-19)
(0.681988 0.0678798 7.6801e-20)
(0.875968 0.0927829 3.61815e-19)
(1.03759 0.114601 1.20695e-19)
(1.15711 0.12989 -2.37943e-19)
(1.23598 0.137002 -6.63245e-20)
(1.28189 0.13815 3.41999e-20)
(1.30506 0.131672 1.94766e-19)
(1.31288 0.12666 -4.34466e-20)
(1.31453 0.109853 -5.2956e-20)
(-0.0237486 0.0153968 -5.14337e-20)
(-0.00871793 0.0202204 5.63933e-19)
(0.0629519 0.0205332 2.65638e-19)
(0.188912 0.0226032 9.42599e-20)
(0.364648 0.0335129 1.85666e-19)
(0.572916 0.0548421 3.6031e-19)
(0.784261 0.082401 1.69087e-19)
(0.969492 0.109344 -3.75366e-19)
(1.11175 0.130201 -2.37698e-19)
(1.20845 0.142742 4.11127e-19)
(1.26662 0.14688 -4.0659e-20)
(1.29677 0.145313 -2.78742e-20)
(1.30931 0.137426 -2.48234e-19)
(1.31102 0.131204 -3.20523e-20)
(1.3097 0.114837 2.35425e-19)
(-0.0219284 0.0134119 -8.83474e-20)
(0.00488871 0.0153239 -7.1129e-19)
(0.0958629 0.0161827 -5.37096e-20)
(0.246766 0.0219404 -1.51282e-19)
(0.447388 0.0394441 -4.10541e-19)
(0.6706 0.0675362 1.37685e-19)
(0.880555 0.0990105 -3.38172e-19)
(1.05039 0.126247 1.5427e-19)
(1.17059 0.144897 -1.35842e-20)
(1.24548 0.154231 -2.34754e-19)
(1.2861 0.155502 1.53027e-19)
(1.3041 0.151609 -8.03335e-20)
(1.30919 0.142761 1.01521e-19)
(1.30705 0.135472 1.74239e-19)
(1.30339 0.119592 -3.377e-20)
(-0.0190729 0.0111834 -1.37038e-22)
(0.0219385 0.0104346 1.18195e-19)
(0.134859 0.0128902 1.13164e-19)
(0.312216 0.0238531 -1.06492e-20)
(0.535338 0.0489061 5.81641e-20)
(0.7666 0.0830798 -4.35347e-19)
(0.967605 0.116773 1.03066e-19)
(1.11766 0.14278 -6.72917e-20)
(1.21542 0.158424 5.2979e-20)
(1.27086 0.164461 1.33186e-19)
(1.2973 0.163137 -1.62784e-19)
(1.30634 0.157363 4.15894e-20)
(1.30638 0.147813 3.65455e-20)
(1.30173 0.139683 -4.7508e-20)
(1.29693 0.124324 3.21017e-20)
(-0.0150095 0.00875339 2.04202e-19)
(0.0427858 0.005751 3.61783e-19)
(0.180147 0.0110754 5.52744e-20)
(0.384397 0.0287967 -1.33852e-19)
(0.625715 0.0617552 3.93428e-19)
(0.857486 0.100714 2.64003e-19)
(1.0435 0.134909 -9.61005e-20)
(1.17166 0.158528 3.3808e-21)
(1.24822 0.170757 -9.27121e-20)
(1.28716 0.173643 2.64299e-20)
(1.30261 0.170076 2.21608e-20)
(1.30523 0.162798 -9.51473e-20)
(1.30191 0.15276 -1.99513e-19)
(1.29578 0.143899 1.26106e-19)
(1.29009 0.129032 -1.92063e-19)
(-0.00956775 0.00619087 -2.22555e-19)
(0.0677398 0.00153958 -1.17687e-19)
(0.231707 0.0112279 -3.15043e-19)
(0.461882 0.037086 5.00675e-19)
(0.715525 0.0775846 -4.37829e-19)
(0.940665 0.119685 1.79977e-19)
(1.10759 0.152866 1.12744e-19)
(1.21358 0.173311 1.25619e-19)
(1.27115 0.182013 7.92761e-20)
(1.29663 0.182026 -1.64674e-20)
(1.30383 0.176565 -8.01253e-20)
(1.30198 0.168097 -1.90756e-19)
(1.29647 0.157689 1.00507e-19)
(1.28939 0.148169 9.66265e-20)
(1.28319 0.133791 2.07814e-19)
(-0.00258401 0.00359082 -1.97977e-19)
(0.0970389 -0.00186746 9.69621e-20)
(0.289212 0.0138631 1.00631e-19)
(0.54276 0.0488148 -2.18522e-19)
(0.801989 0.0958317 8.55092e-20)
(1.01454 0.139357 -7.61493e-20)
(1.16015 0.170306 -1.17802e-19)
(1.24503 0.187116 -1.35062e-19)
(1.28626 0.192378 5.10001e-20)
(1.3011 0.189848 1.5719e-19)
(1.30225 0.182801 2.29806e-19)
(1.29735 0.173378 8.87147e-20)
(1.29042 0.162658 -6.11768e-20)
(1.28278 0.152521 -6.6013e-20)
(1.27619 0.138593 -5.50135e-20)
(0.00609438 0.00107175 1.90939e-19)
(0.130819 -0.0040786 -9.59849e-20)
(0.351976 0.0194527 5.53618e-20)
(0.624834 0.0638403 3.16214e-19)
(0.882857 0.115902 3.04503e-19)
(1.0784 0.159253 -2.85289e-19)
(1.20206 0.187063 1.40969e-19)
(1.26769 0.200029 1.65481e-19)
(1.29532 0.202059 -2.85292e-19)
(1.30196 0.197313 5.9795e-20)
(1.29877 0.188933 -1.33061e-19)
(1.29182 0.178717 2.0914e-20)
(1.28396 0.167693 -6.9285e-20)
(1.27596 0.156962 1.25718e-19)
(1.2691 0.143441 -1.3724e-19)
(0.0166007 -0.00122417 -1.72168e-19)
(0.169078 -0.00465561 1.17882e-19)
(0.418949 0.028348 1.59565e-19)
(0.70588 0.0818369 -4.15895e-20)
(0.956552 0.137259 -3.83418e-19)
(1.13226 0.179051 -1.37477e-19)
(1.23452 0.203091 -2.17694e-19)
(1.28319 0.212191 9.48414e-20)
(1.29978 0.211254 -1.33152e-20)
(1.30024 0.204586 -1.53639e-19)
(1.29399 0.19506 -1.44313e-19)
(1.28567 0.184154 2.65466e-20)
(1.2772 0.172801 5.53244e-20)
(1.26898 0.161491 -1.16254e-19)
(1.26191 0.148324 5.90312e-20)
(0.0290409 -0.00313271 7.35706e-20)
(0.21164 -0.00313787 1.59174e-21)
(0.488773 0.0407249 -4.79256e-19)
(0.783892 0.102383 -3.4863e-20)
(1.02215 0.159462 2.74149e-19)
(1.17661 0.198551 2.80198e-19)
(1.2588 0.218424 1.93976e-19)
(1.29294 0.223759 -3.63829e-20)
(1.30078 0.220135 6.08011e-20)
(1.29667 0.211786 -2.60748e-21)
(1.28829 0.201245 1.1458e-19)
(1.27905 0.189704 4.53073e-20)
(1.27018 0.177976 1.00228e-19)
(1.26183 0.1661 -7.73442e-20)
(1.25459 0.153222 -5.95886e-20)
(0.0434872 -0.00446844 -1.28252e-20)
(0.258128 0.000923602 1.34571e-19)
(0.559899 0.056573 2.51246e-19)
(0.857241 0.125038 8.50936e-20)
(1.07929 0.182168 -2.46262e-19)
(1.21221 0.217648 -3.12257e-19)
(1.27617 0.233142 1.29241e-19)
(1.29815 0.234887 -7.97894e-20)
(1.29917 0.228838 2.3002e-19)
(1.29173 0.218997 6.81431e-21)
(1.28189 0.207521 -5.98863e-20)
(1.27204 0.195363 -2.37041e-20)
(1.2629 0.183205 1.15363e-19)
(1.25449 0.170776 1.03605e-19)
(1.2471 0.158117 1.12284e-19)
(0.0599671 -0.00502621 1.9213e-19)
(0.30796 0.00792379 -2.0797e-19)
(0.630725 0.0757238 1.31573e-19)
(0.924735 0.149389 1.86903e-19)
(1.12801 0.205121 1.63403e-19)
(1.23996 0.236302 6.65187e-20)
(1.28776 0.247343 3.62045e-20)
(1.29977 0.24571 -1.4569e-20)
(1.29558 0.237467 -1.05772e-19)
(1.28576 0.226266 4.07922e-20)
(1.27492 0.213898 9.98939e-20)
(1.26467 0.201116 4.143e-20)
(1.25537 0.188471 -4.02336e-20)
(1.24694 0.175501 -4.29329e-20)
(1.23944 0.162983 -5.36249e-20)
(0.0784525 -0.00458599 -1.03458e-19)
(0.360364 0.018163 7.4968e-20)
(0.699735 0.0979008 -8.59311e-21)
(0.985596 0.175066 -1.96417e-19)
(1.16863 0.228135 -5.2248e-20)
(1.26078 0.254511 1.17896e-19)
(1.29457 0.261129 -1.07246e-19)
(1.29854 0.256339 7.56748e-21)
(1.29044 0.246088 -6.74963e-21)
(1.27894 0.233614 -3.72576e-20)
(1.26744 0.220366 -6.28924e-20)
(1.25694 0.20694 -9.20344e-20)
(1.24755 0.193752 -3.71449e-20)
(1.23916 0.180254 6.44148e-20)
(1.23156 0.167795 1.61175e-20)
(0.0988506 -0.00292186 -1.32512e-19)
(0.414418 0.0318186 -1.70427e-20)
(0.765594 0.122765 -8.5745e-20)
(1.0394 0.20175 8.11502e-20)
(1.20163 0.251071 -9.65296e-20)
(1.27557 0.272299 -4.27389e-20)
(1.29743 0.274592 1.13642e-20)
(1.29504 0.266854 -1.71918e-20)
(1.28406 0.254738 3.56107e-20)
(1.27141 0.241041 5.77396e-22)
(1.25948 0.226907 2.64836e-20)
(1.24885 0.212803 4.64342e-20)
(1.23944 0.199025 5.51925e-20)
(1.23112 0.185013 -2.50161e-20)
(1.22346 0.172525 -1.94244e-20)
(0.120996 0.000185163 7.94589e-20)
(0.469107 0.0489351 8.46411e-20)
(0.827206 0.149951 2.98086e-20)
(1.086 0.229158 -4.74938e-20)
(1.22761 0.273829 1.06895e-20)
(1.28511 0.289696 7.49578e-20)
(1.29701 0.287804 -5.21361e-20)
(1.28968 0.277306 -4.63733e-20)
(1.27662 0.26343 -1.46751e-20)
(1.26321 0.24853 1.01235e-20)
(1.25104 0.23349 -5.63481e-20)
(1.24037 0.218673 1.2553e-20)
(1.23102 0.204265 3.38792e-20)
(1.2228 0.18975 -1.3389e-20)
(1.21512 0.177144 -1.16707e-20)
(0.14465 0.00493183 -5.22315e-20)
(0.523385 0.0694312 -3.6006e-20)
(0.883725 0.179086 -7.05146e-20)
(1.12544 0.25704 -1.15305e-20)
(1.24717 0.296327 -7.61276e-21)
(1.29012 0.30673 -8.14612e-20)
(1.29384 0.300817 2.61941e-20)
(1.28276 0.287719 1.60791e-20)
(1.26826 0.272152 -2.77185e-20)
(1.25438 0.256052 -1.71614e-20)
(1.24212 0.240078 -7.67574e-22)
(1.23149 0.224513 -1.73316e-20)
(1.22226 0.209443 -2.76279e-20)
(1.21419 0.194433 -2.54279e-20)
(1.20655 0.18162 1.84661e-20)
(0.169503 0.0114776 -2.39823e-20)
(0.576229 0.0931169 8.81898e-21)
(0.934548 0.209801 1.20008e-20)
(1.15791 0.285166 1.25348e-20)
(1.26091 0.318497 2.16518e-20)
(1.2912 0.323419 1.55219e-20)
(1.28832 0.313657 -4.41695e-21)
(1.27447 0.298091 1.56898e-20)
(1.25903 0.280877 -8.13705e-22)
(1.24492 0.263565 -3.80825e-23)
(1.23269 0.246629 6.91924e-21)
(1.2222 0.230281 -3.256e-21)
(1.21316 0.214526 2.36876e-21)
(1.2053 0.199017 9.92377e-21)
(1.19778 0.185918 -8.40654e-21)
(0.195186 0.0199325 -1.52316e-20)
(0.626686 0.119714 -3.96368e-21)
(0.979285 0.241738 1.76992e-20)
(1.18372 0.313326 7.81129e-21)
(1.26939 0.340274 2.20178e-20)
(1.28886 0.339768 1.50604e-20)
(1.28078 0.326327 -5.34243e-22)
(1.26496 0.308399 1.85216e-20)
(1.24898 0.289563 -9.39054e-21)
(1.23484 0.271021 9.96872e-22)
(1.22275 0.253096 6.40304e-21)
(1.21247 0.235937 -3.07539e-21)
(1.20368 0.219474 2.96577e-21)
(1.1961 0.203448 1.11595e-20)
(1.18882 0.190001 -4.2151e-21)
(0.221282 0.0303498 -2.19413e-20)
(0.673911 0.148876 -6.25483e-20)
(1.01772 0.274547 -7.06382e-20)
(1.20319 0.341319 -2.62064e-21)
(1.27313 0.361592 -1.05539e-20)
(1.2835 0.355762 -7.45335e-20)
(1.27144 0.338807 3.74422e-20)
(1.25433 0.318603 4.24191e-21)
(1.23812 0.298157 -2.46675e-20)
(1.22412 0.278368 -2.22924e-20)
(1.21228 0.259431 3.34103e-21)
(1.20229 0.241438 -1.35453e-20)
(1.19383 0.224244 -1.49952e-20)
(1.18659 0.207671 -2.13307e-20)
(1.17961 0.193841 1.36008e-20)
(0.247345 0.0427237 8.26146e-20)
(0.71718 0.180206 6.05548e-20)
(1.04978 0.307886 2.55282e-20)
(1.21669 0.368958 -3.66292e-20)
(1.27259 0.382378 1.71385e-20)
(1.27547 0.37137 3.94174e-20)
(1.26048 0.351058 -3.15161e-20)
(1.24262 0.328646 -6.20313e-20)
(1.22647 0.306597 -5.66644e-21)
(1.21276 0.285546 3.67874e-20)
(1.20127 0.265583 -4.48652e-20)
(1.19165 0.246742 1.94132e-20)
(1.18358 0.228801 9.16068e-21)
(1.17674 0.211653 1.06594e-21)
(1.17006 0.197418 7.1965e-22)
(0.272911 0.0569918 -1.00182e-19)
(0.755907 0.213268 -6.33112e-20)
(1.0755 0.341422 -9.99623e-20)
(1.22463 0.396063 8.84812e-20)
(1.26817 0.402554 -9.42196e-20)
(1.26505 0.386543 -2.28466e-20)
(1.24803 0.36302 -1.9861e-21)
(1.22988 0.33846 1.10981e-21)
(1.21402 0.314814 4.70376e-20)
(1.20074 0.292496 -5.21653e-20)
(1.18971 0.271499 4.21353e-20)
(1.18054 0.251804 1.76421e-20)
(1.17294 0.233111 4.50293e-20)
(1.16656 0.215399 -2.21617e-21)
(1.16005 0.200726 -1.42495e-20)
(0.297518 0.0730397 1.43414e-20)
(0.789652 0.247607 1.84826e-20)
(1.095 0.374824 -3.45895e-20)
(1.22736 0.422457 -1.34527e-19)
(1.26024 0.42203 -3.37848e-20)
(1.25244 0.401216 8.9797e-20)
(1.23418 0.374623 -7.04944e-20)
(1.21614 0.347968 -3.51501e-20)
(1.20077 0.322737 1.08341e-20)
(1.18806 0.299153 -1.20647e-20)
(1.17759 0.277125 -6.53213e-20)
(1.16896 0.25657 -3.33866e-20)
(1.16194 0.237132 -2.77629e-21)
(1.15607 0.218955 9.81766e-21)
(1.14959 0.20377 7.75665e-21)
(0.320723 0.0907041 1.92492e-19)
(0.818111 0.282763 -2.41949e-19)
(1.10845 0.407771 1.64147e-19)
(1.22527 0.44797 8.40863e-20)
(1.24911 0.44071 2.42465e-19)
(1.23784 0.415307 7.05138e-21)
(1.219 0.385781 6.14308e-20)
(1.20141 0.357087 1.7501e-20)
(1.18673 0.330287 -1.11817e-19)
(1.17473 0.30545 4.04295e-20)
(1.16492 0.282405 3.07043e-20)
(1.15692 0.260983 4.63218e-20)
(1.15059 0.240813 -4.58455e-20)
(1.14519 0.22231 -1.27384e-20)
(1.13899 0.206545 -1.71655e-21)
(0.342113 0.109777 -2.56329e-20)
(0.841102 0.31828 2.82446e-19)
(1.11608 0.439952 2.15148e-19)
(1.2187 0.472427 3.69197e-20)
(1.23507 0.458487 -2.28138e-19)
(1.2214 0.428724 -1.3891e-19)
(1.20256 0.396402 4.50747e-20)
(1.1857 0.365727 -2.72637e-20)
(1.17191 0.337387 6.17716e-20)
(1.16075 0.311316 1.43812e-20)
(1.15174 0.287287 1.40029e-20)
(1.14447 0.265003 -2.51009e-20)
(1.13885 0.244144 1.18969e-20)
(1.13391 0.225336 4.83124e-20)
(1.1283 0.208998 5.0747e-20)
(0.361321 0.130013 2.17209e-19)
(0.85854 0.35371 -2.33497e-19)
(1.11814 0.471065 -3.58561e-19)
(1.20799 0.495655 2.75203e-20)
(1.21836 0.475247 1.85504e-19)
(1.20322 0.441366 1.77688e-19)
(1.18488 0.406383 9.075e-20)
(1.16907 0.373794 6.25978e-21)
(1.15635 0.34396 1.54512e-20)
(1.14617 0.316684 3.77569e-21)
(1.13804 0.291689 4.2807e-20)
(1.1316 0.2686 9.22327e-21)
(1.12672 0.2471 2.47594e-21)
(1.12233 0.227988 -1.38762e-20)
(1.11742 0.211071 -1.77814e-20)
(0.378027 0.151135 -2.80496e-19)
(0.870432 0.38862 2.15508e-19)
(1.11492 0.500818 1.87933e-19)
(1.19347 0.517482 -1.27938e-19)
(1.19919 0.490872 -2.65364e-19)
(1.18343 0.453122 -5.36783e-20)
(1.16605 0.415611 -1.27401e-19)
(1.15158 0.38119 5.01334e-20)
(1.14008 0.349916 -9.69516e-21)
(1.13099 0.321499 -4.09299e-20)
(1.12383 0.295573 -1.71871e-20)
(1.11832 0.271713 -3.31557e-21)
(1.11423 0.249633 -1.66478e-20)
(1.11048 0.230221 -7.43076e-21)
(1.10637 0.212741 -3.93236e-21)
(0.391974 0.172842 4.01428e-19)
(0.876859 0.422592 -2.57126e-19)
(1.10673 0.528933 1.37784e-19)
(1.17543 0.53774 1.30133e-19)
(1.17776 0.505234 2.25416e-19)
(1.16215 0.46388 -1.40603e-19)
(1.14618 0.423979 5.23354e-20)
(1.13323 0.387814 5.38041e-20)
(1.12309 0.355191 -4.61833e-20)
(1.11523 0.325683 -1.1472e-20)
(1.10916 0.298881 2.09701e-22)
(1.10464 0.274304 -9.27245e-21)
(1.10142 0.251699 -2.5313e-20)
(1.09837 0.232002 1.43027e-20)
(1.09513 0.213984 -2.26072e-20)
(0.402963 0.194815 -2.22197e-19)
(0.877967 0.455228 1.38011e-20)
(1.09389 0.555149 9.13815e-20)
(1.15417 0.556267 -1.95477e-19)
(1.15425 0.518195 7.87924e-20)
(1.13955 0.473509 1.4268e-20)
(1.12531 0.43139 -6.61677e-20)
(1.11403 0.393587 -2.72026e-20)
(1.10544 0.35969 1.10121e-20)
(1.09893 0.329171 3.58853e-20)
(1.09406 0.301558 3.54716e-20)
(1.09061 0.276326 1.76251e-20)
(1.0883 0.253257 1.15624e-21)
(1.08603 0.233295 -1.81462e-20)
(1.08374 0.21479 3.92269e-21)
(0.410858 0.216729 4.25198e-20)
(0.87396 0.486152 -2.3196e-19)
(1.07676 0.579221 -3.00812e-19)
(1.12998 0.572908 2.32267e-19)
(1.12891 0.52963 -1.30964e-19)
(1.11569 0.481879 7.11838e-20)
(1.10344 0.437738 4.7537e-20)
(1.09408 0.398415 2.53657e-20)
(1.08717 0.363343 2.61597e-20)
(1.08214 0.331899 1.01351e-22)
(1.07857 0.303551 -1.92116e-20)
(1.07626 0.277739 -1.97586e-20)
(1.07493 0.254269 -3.57857e-22)
(1.07348 0.23407 3.78418e-21)
(1.07222 0.215149 2.34961e-21)
(0.415587 0.238252 1.70458e-19)
(0.865103 0.515014 4.36933e-19)
(1.05565 0.60091 -7.76609e-20)
(1.10315 0.58749 -1.45918e-19)
(1.10191 0.539426 2.38039e-19)
(1.09063 0.488875 7.54839e-20)
(1.08069 0.442909 3.9951e-21)
(1.07342 0.402211 -2.25951e-20)
(1.06835 0.366075 5.19613e-21)
(1.06491 0.333805 -1.96526e-20)
(1.06273 0.304809 4.92542e-21)
(1.06164 0.278501 1.00484e-21)
(1.06132 0.254699 2.7872e-22)
(1.06076 0.234293 3.5105e-22)
(1.06061 0.215046 6.79151e-21)
(0.41715 0.259058 -7.55674e-20)
(0.851737 0.541521 1.6937e-19)
(1.03084 0.619964 1.45962e-19)
(1.07394 0.599855 -6.72836e-20)
(1.07341 0.547444 -3.64496e-20)
(1.06453 0.494398 -6.2786e-20)
(1.05714 0.446807 5.65013e-21)
(1.05214 0.404891 -2.02274e-20)
(1.04903 0.367819 -2.73433e-22)
(1.0473 0.334831 2.63134e-21)
(1.0466 0.305285 3.58002e-21)
(1.04679 0.278572 -3.46709e-21)
(1.04753 0.25451 -1.06844e-20)
(1.0479 0.233928 2.04077e-20)
(1.04893 0.214459 -1.3979e-20)
(0.415627 0.278814 -1.51812e-19)
(0.834242 0.565466 -5.61534e-19)
(1.00256 0.636142 1.92659e-20)
(1.04265 0.609822 -8.43967e-20)
(1.04359 0.553565 -1.57918e-19)
(1.03751 0.498342 4.89408e-20)
(1.0329 0.44934 -3.83624e-20)
(1.03032 0.406376 4.31006e-21)
(1.02929 0.368511 1.59978e-21)
(1.02936 0.334925 5.66569e-21)
(1.03024 0.304934 -4.12606e-21)
(1.03177 0.277917 -5.48779e-21)
(1.0336 0.253669 -3.68708e-21)
(1.03494 0.232934 -6.17169e-21)
(1.0372 0.21337 6.98983e-21)
(0.411154 0.297166 1.31629e-20)
(0.812877 0.586615 2.97264e-19)
(0.971216 0.64935 1.3051e-19)
(1.00958 0.617195 7.35284e-20)
(1.01265 0.557677 4.99383e-20)
(1.0097 0.500612 2.239e-20)
(1.00805 0.450425 9.55509e-21)
(1.00804 0.406598 7.34762e-21)
(1.00921 0.368091 3.42243e-20)
(1.01117 0.334037 -3.98128e-20)
(1.0137 0.303717 -5.57871e-21)
(1.01662 0.276507 4.87886e-21)
(1.01957 0.252149 4.12068e-20)
(1.02192 0.231274 1.34438e-20)
(1.02546 0.21177 -4.01399e-20)
(0.403869 0.313796 9.0523e-20)
(0.787703 0.604511 -3.14409e-19)
(0.937454 0.659628 -3.27269e-20)
(0.975037 0.621886 -5.94531e-20)
(0.980775 0.559666 -5.68229e-21)
(0.981253 0.50112 -1.73118e-20)
(0.982732 0.449988 -5.0917e-21)
(0.985392 0.405492 -2.49417e-20)
(0.988855 0.366507 -1.4827e-20)
(0.992804 0.332121 2.96938e-20)
(0.997051 0.301596 -2.8666e-20)
(1.00141 0.274312 4.00224e-20)
(1.00549 0.249934 -3.54599e-20)
(1.00895 0.228931 1.26632e-20)
(1.01396 0.209642 3.78067e-20)
(0.39387 0.328525 -2.45239e-19)
(0.759029 0.618759 3.69325e-19)
(0.901663 0.666749 -3.14242e-21)
(0.939282 0.623909 -2.4372e-20)
(0.948166 0.559456 8.98521e-21)
(0.9523 0.499787 1.2488e-21)
(0.957045 0.447965 2.89071e-20)
(0.962485 0.403005 4.74244e-20)
(0.968324 0.363712 -1.05715e-19)
(0.974329 0.329138 3.31037e-20)
(0.980353 0.298533 6.89469e-21)
(0.986174 0.271294 -5.79628e-20)
(0.991463 0.246989 4.88029e-20)
(0.996289 0.225898 -1.52035e-20)
(1.00307 0.207004 1.97715e-20)
(0.381292 0.341148 3.0432e-19)
(0.727555 0.629351 -2.60401e-19)
(0.864128 0.670492 -4.49445e-20)
(0.902571 0.623192 2.18521e-20)
(0.915013 0.55698 -1.3165e-20)
(0.922995 0.496546 3.89834e-20)
(0.931117 0.444301 -5.4792e-20)
(0.93942 0.399091 5.21584e-20)
(0.947704 0.359668 6.75636e-20)
(0.955821 0.325056 -1.04346e-19)
(0.963652 0.294497 2.93429e-20)
(0.970955 0.2674 -1.38809e-20)
(0.977596 0.243221 -3.34296e-21)
(0.984216 0.222085 -5.47259e-20)
(0.992865 0.204062 -2.8577e-20)
(0.366329 0.351354 -9.86136e-20)
(0.693747 0.636118 6.47199e-20)
(0.825176 0.670754 1.79735e-20)
(0.865161 0.61967 2.12666e-20)
(0.881512 0.552185 5.3129e-20)
(0.893493 0.491345 -5.45469e-20)
(0.905079 0.43895 8.38758e-20)
(0.916308 0.393714 -6.86034e-20)
(0.92709 0.354348 8.61614e-20)
(0.937354 0.319853 9.24368e-20)
(0.947001 0.28947 -1.82304e-20)
(0.95581 0.262596 1.3968e-20)