/*--------------------------------*- C++ -*----------------------------------*\
  =========                 |
  \\      /  F ield         | OpenFOAM: The Open Source CFD Toolbox
   \\    /   O peration     | Website:  https://openfoam.org
    \\  /    A nd           | Version:  7
     \\/     M anipulation  |
\*---------------------------------------------------------------------------*/
FoamFile
{
    version     2.0;
    format      ascii;
    class       volScalarField;
    location    "55";
    object      p;
}
// * * * * * * * * * * * * * * * * * * * * * * * * * * * * * * * * * * * * * //

dimensions      [0 2 -2 0 0 0 0];

internalField   nonuniform List<scalar> 
6000
(
-0.241944
-0.244021
-0.244882
-0.245681
-0.246343
-0.24693
-0.247483
-0.248017
-0.248536
-0.249039
-0.249518
-0.249965
-0.250368
-0.250717
-0.251002
-0.251212
-0.251339
-0.251376
-0.251318
-0.251165
-0.242056
-0.244117
-0.244973
-0.245766
-0.246424
-0.247007
-0.247557
-0.248088
-0.248605
-0.249106
-0.249583
-0.250028
-0.250429
-0.250777
-0.25106
-0.251268
-0.251393
-0.251426
-0.251363
-0.251203
-0.242283
-0.244313
-0.245157
-0.245939
-0.246588
-0.247164
-0.247708
-0.248233
-0.248746
-0.249243
-0.249717
-0.250158
-0.250557
-0.250903
-0.251184
-0.251389
-0.25151
-0.251538
-0.251468
-0.251295
-0.242622
-0.244606
-0.245432
-0.246197
-0.246833
-0.247398
-0.247932
-0.24845
-0.248956
-0.249446
-0.249915
-0.250353
-0.250748
-0.251091
-0.251369
-0.251572
-0.251688
-0.25171
-0.251629
-0.251441
-0.251148
-0.24307
-0.244993
-0.245795
-0.246538
-0.247156
-0.247706
-0.248227
-0.248734
-0.24923
-0.249713
-0.250175
-0.250607
-0.250998
-0.251336
-0.251611
-0.25181
-0.251921
-0.251935
-0.251842
-0.251635
-0.251314
-0.243619
-0.24547
-0.246242
-0.246958
-0.247553
-0.248084
-0.248588
-0.249081
-0.249564
-0.250037
-0.25049
-0.250915
-0.251299
-0.251633
-0.251903
-0.252097
-0.252203
-0.252208
-0.252101
-0.251872
-0.251517
-0.244266
-0.24603
-0.246767
-0.247451
-0.248019
-0.248526
-0.24901
-0.249484
-0.249952
-0.250411
-0.250853
-0.251268
-0.251645
-0.251972
-0.252236
-0.252425
-0.252525
-0.25252
-0.252398
-0.252146
-0.251754
-0.245001
-0.24667
-0.247367
-0.248012
-0.248548
-0.249027
-0.249486
-0.249938
-0.250387
-0.250829
-0.251256
-0.251659
-0.252026
-0.252344
-0.252602
-0.252784
-0.252876
-0.252862
-0.252724
-0.252447
-0.252015
-0.245817
-0.247382
-0.248034
-0.248636
-0.249134
-0.24958
-0.250009
-0.250435
-0.25086
-0.251281
-0.25169
-0.252078
-0.252432
-0.252739
-0.252988
-0.253162
-0.253246
-0.253221
-0.253067
-0.252765
-0.252294
-0.246707
-0.24816
-0.248763
-0.249316
-0.249771
-0.250179
-0.250573
-0.250966
-0.251363
-0.251759
-0.252146
-0.252514
-0.252852
-0.253146
-0.253383
-0.253547
-0.25362
-0.253584
-0.253415
-0.253088
-0.252579
-0.247662
-0.248998
-0.249547
-0.250047
-0.250453
-0.250816
-0.251169
-0.251525
-0.251888
-0.252253
-0.252613
-0.252958
-0.253275
-0.253552
-0.253774
-0.253925
-0.253987
-0.253937
-0.253752
-0.253402
-0.252857
-0.248673
-0.249889
-0.25038
-0.250821
-0.251173
-0.251486
-0.251791
-0.252103
-0.252425
-0.252754
-0.253081
-0.253397
-0.25369
-0.253945
-0.254148
-0.254283
-0.254329
-0.254265
-0.254063
-0.253689
-0.25311
-0.25227
-0.249732
-0.250827
-0.251257
-0.251634
-0.251925
-0.25218
-0.25243
-0.252691
-0.252966
-0.253252
-0.253541
-0.253823
-0.254084
-0.254313
-0.254492
-0.254606
-0.254635
-0.254552
-0.25433
-0.253933
-0.253318
-0.252428
-0.250834
-0.251807
-0.252172
-0.252479
-0.252703
-0.252893
-0.253081
-0.253283
-0.253504
-0.25374
-0.253983
-0.254224
-0.254449
-0.254645
-0.254795
-0.254884
-0.254888
-0.254783
-0.254538
-0.254114
-0.253461
-0.252534
-0.251971
-0.252825
-0.253121
-0.253353
-0.253503
-0.25362
-0.253738
-0.253873
-0.25403
-0.254208
-0.254399
-0.254591
-0.254773
-0.25493
-0.255046
-0.255102
-0.255077
-0.254944
-0.25467
-0.254215
-0.253522
-0.252567
-0.253138
-0.253875
-0.2541
-0.254251
-0.25432
-0.254356
-0.254394
-0.254453
-0.254539
-0.254651
-0.254781
-0.254918
-0.25505
-0.255161
-0.255236
-0.255253
-0.255192
-0.255024
-0.254713
-0.254221
-0.253471
-0.252506
-0.250693
-0.254332
-0.254957
-0.255106
-0.255172
-0.255151
-0.255097
-0.255047
-0.25502
-0.255026
-0.255063
-0.255124
-0.255198
-0.255272
-0.255331
-0.255357
-0.25533
-0.255225
-0.255014
-0.254658
-0.254121
-0.253298
-0.252337
-0.250236
-0.255552
-0.256068
-0.256139
-0.256112
-0.255994
-0.255841
-0.255693
-0.255571
-0.255487
-0.25544
-0.255424
-0.255427
-0.255437
-0.255436
-0.255406
-0.255327
-0.255171
-0.254908
-0.254498
-0.253909
-0.252989
-0.252044
-0.249594
-0.256796
-0.25721
-0.257197
-0.257072
-0.256849
-0.256587
-0.256331
-0.256105
-0.255921
-0.255781
-0.255679
-0.255604
-0.255541
-0.255474
-0.255382
-0.255243
-0.255028
-0.254706
-0.254228
-0.253579
-0.252539
-0.251616
-0.248772
-0.249536
-0.258067
-0.258383
-0.258284
-0.258053
-0.257715
-0.257336
-0.256961
-0.25662
-0.256328
-0.256087
-0.255891
-0.25573
-0.255588
-0.255447
-0.255286
-0.25508
-0.254798
-0.254406
-0.253849
-0.253128
-0.251945
-0.251034
-0.247789
-0.2489
-0.259369
-0.25959
-0.2594
-0.259057
-0.258596
-0.258088
-0.257585
-0.257121
-0.25671
-0.256359
-0.256062
-0.255808
-0.25558
-0.255359
-0.255122
-0.25484
-0.254482
-0.254009
-0.253358
-0.252551
-0.251207
-0.250276
-0.246674
-0.247954
-0.260708
-0.260837
-0.26055
-0.260087
-0.259493
-0.258848
-0.258208
-0.257609
-0.257073
-0.256603
-0.256198
-0.255843
-0.255523
-0.255215
-0.254895
-0.25453
-0.254084
-0.253517
-0.252756
-0.25184
-0.250325
-0.249314
-0.245445
-0.246653
-0.23522
-0.262092
-0.262131
-0.261741
-0.261149
-0.260414
-0.259621
-0.258833
-0.258092
-0.257421
-0.256827
-0.256305
-0.255844
-0.255426
-0.255024
-0.254612
-0.254153
-0.253606
-0.252928
-0.252036
-0.250981
-0.24929
-0.24812
-0.244102
-0.244981
-0.234098
-0.26353
-0.263479
-0.262978
-0.262249
-0.261363
-0.260413
-0.259469
-0.258578
-0.257764
-0.257038
-0.256395
-0.255821
-0.255297
-0.254795
-0.254281
-0.253715
-0.25305
-0.252238
-0.251192
-0.24996
-0.248087
-0.246671
-0.242618
-0.242955
-0.232942
-0.265036
-0.264891
-0.26427
-0.263397
-0.262349
-0.261233
-0.260124
-0.259074
-0.258112
-0.257247
-0.256477
-0.255786
-0.255149
-0.254536
-0.253908
-0.253218
-0.252412
-0.251438
-0.250208
-0.248757
-0.246692
-0.244954
-0.240947
-0.240615
-0.231642
-0.266622
-0.266373
-0.265631
-0.2646
-0.263382
-0.26209
-0.260809
-0.259594
-0.258476
-0.257468
-0.256565
-0.255748
-0.254991
-0.254256
-0.253496
-0.25266
-0.251686
-0.250515
-0.249066
-0.247351
-0.245076
-0.242961
-0.239038
-0.238004
-0.230102
-0.268304
-0.267942
-0.267068
-0.265869
-0.26447
-0.262995
-0.261534
-0.260148
-0.25887
-0.257714
-0.256671
-0.255722
-0.254833
-0.253959
-0.253048
-0.252037
-0.250861
-0.249453
-0.247743
-0.245721
-0.243207
-0.240682
-0.236845
-0.235139
-0.228237
-0.2701
-0.269612
-0.268593
-0.267215
-0.265627
-0.263961
-0.262313
-0.26075
-0.259307
-0.257997
-0.256808
-0.255717
-0.254682
-0.25365
-0.252559
-0.251339
-0.24992
-0.248232
-0.246218
-0.243853
-0.241065
-0.238112
-0.234331
-0.231972
-0.225963
-0.272026
-0.271394
-0.27022
-0.268652
-0.266864
-0.264999
-0.263159
-0.261414
-0.259801
-0.258331
-0.256989
-0.255742
-0.254542
-0.253326
-0.252022
-0.250553
-0.248846
-0.246833
-0.244474
-0.241739
-0.23864
-0.235262
-0.231472
-0.22839
-0.223222
-0.274105
-0.273302
-0.271961
-0.270191
-0.268195
-0.266123
-0.264085
-0.262154
-0.260366
-0.258729
-0.257222
-0.255804
-0.254415
-0.252983
-0.251426
-0.249663
-0.247621
-0.245243
-0.242503
-0.23938
-0.235943
-0.232171
-0.228279
-0.22436
-0.220084
-0.276346
-0.275356
-0.273831
-0.271847
-0.269632
-0.267347
-0.265106
-0.262983
-0.261015
-0.259201
-0.257515
-0.255904
-0.254296
-0.252609
-0.250755
-0.24865
-0.24623
-0.243449
-0.240303
-0.236787
-0.232998
-0.228887
-0.224801
-0.220254
-0.216578
-0.278773
-0.277568
-0.275844
-0.273633
-0.27119
-0.268684
-0.266235
-0.263916
-0.261759
-0.259758
-0.257873
-0.256041
-0.254178
-0.252192
-0.249992
-0.247498
-0.24466
-0.24145
-0.237884
-0.233979
-0.229844
-0.22544
-0.22108
-0.216323
-0.212302
-0.281405
-0.279953
-0.278014
-0.275563
-0.272883
-0.27015
-0.267487
-0.264965
-0.26261
-0.260404
-0.258297
-0.25621
-0.254049
-0.251715
-0.249119
-0.246194
-0.242905
-0.239248
-0.235262
-0.230981
-0.226522
-0.22185
-0.217256
-0.21232
-0.208001
-0.284258
-0.282526
-0.280356
-0.277651
-0.274723
-0.271757
-0.268873
-0.266141
-0.263574
-0.261143
-0.258783
-0.256401
-0.253894
-0.25116
-0.248121
-0.244726
-0.240964
-0.236856
-0.232458
-0.227821
-0.223063
-0.218156
-0.213359
-0.208289
-0.203811
-0.28735
-0.2853
-0.282883
-0.27991
-0.276726
-0.273519
-0.270408
-0.267453
-0.264657
-0.261975
-0.259324
-0.2566
-0.253693
-0.250509
-0.246984
-0.24309
-0.238843
-0.234286
-0.229494
-0.224527
-0.219497
-0.214382
-0.209414
-0.204242
-0.19965
-0.290697
-0.288291
-0.28561
-0.282355
-0.278905
-0.275449
-0.272101
-0.26891
-0.265863
-0.262895
-0.259909
-0.256789
-0.253428
-0.249744
-0.245696
-0.241284
-0.236549
-0.231557
-0.226393
-0.221121
-0.215847
-0.210548
-0.205434
-0.200173
-0.195514
-0.294312
-0.291511
-0.28855
-0.284999
-0.281272
-0.277559
-0.273963
-0.270518
-0.267189
-0.263895
-0.260521
-0.256948
-0.253079
-0.248851
-0.244251
-0.239311
-0.234096
-0.228687
-0.223174
-0.217623
-0.212126
-0.206663
-0.20142
-0.196081
-0.191365
-0.298209
-0.294973
-0.291715
-0.287856
-0.283842
-0.279862
-0.276002
-0.272277
-0.268631
-0.26496
-0.261141
-0.257056
-0.252626
-0.247816
-0.242646
-0.237177
-0.231495
-0.22569
-0.219852
-0.214045
-0.208346
-0.202732
-0.197372
-0.191959
-0.187191
-0.3024
-0.298689
-0.295117
-0.290937
-0.286627
-0.282366
-0.278224
-0.274188
-0.270179
-0.266075
-0.261747
-0.25709
-0.252051
-0.24663
-0.240881
-0.234891
-0.228758
-0.22258
-0.216441
-0.210395
-0.204509
-0.198757
-0.193284
-0.187802
-0.182977
-0.306894
-0.302667
-0.298769
-0.294254
-0.289637
-0.285081
-0.280629
-0.276243
-0.271817
-0.267216
-0.262313
-0.257027
-0.251338
-0.245286
-0.238957
-0.232458
-0.225897
-0.219368
-0.212946
-0.206679
-0.200617
-0.194733
-0.189152
-0.1836
-0.178717
-0.311698
-0.306918
-0.30268
-0.297819
-0.292881
-0.288011
-0.283218
-0.278433
-0.273528
-0.268358
-0.262814
-0.256846
-0.250475
-0.243781
-0.236878
-0.229887
-0.222918
-0.216058
-0.209372
-0.202896
-0.196667
-0.190656
-0.184969
-0.179349
-0.174403
-0.316819
-0.311448
-0.306859
-0.301641
-0.296368
-0.291157
-0.285983
-0.280741
-0.275284
-0.269473
-0.263222
-0.256525
-0.249449
-0.242111
-0.234646
-0.227183
-0.219826
-0.212654
-0.205718
-0.199044
-0.192654
-0.186521
-0.180729
-0.175041
-0.170029
-0.322259
-0.316263
-0.311312
-0.305725
-0.3001
-0.294518
-0.288911
-0.283145
-0.277059
-0.270529
-0.26351
-0.256047
-0.248252
-0.240275
-0.232264
-0.224348
-0.216624
-0.209156
-0.201982
-0.195117
-0.188572
-0.18232
-0.176425
-0.17067
-0.165589
-0.328016
-0.321364
-0.316044
-0.310077
-0.304077
-0.298084
-0.291985
-0.285616
-0.278817
-0.271493
-0.263653
-0.255395
-0.246876
-0.23827
-0.229731
-0.221383
-0.213309
-0.205559
-0.198158
-0.19111
-0.184415
-0.178046
-0.17205
-0.166229
-0.161078
-0.334085
-0.32675
-0.321055
-0.314695
-0.308293
-0.301842
-0.295178
-0.28812
-0.280521
-0.272334
-0.263626
-0.254555
-0.245314
-0.236094
-0.227048
-0.218287
-0.209879
-0.20186
-0.19424
-0.187015
-0.180175
-0.173692
-0.167597
-0.161713
-0.15649
-0.340459
-0.332418
-0.326342
-0.319574
-0.312737
-0.305767
-0.298458
-0.290618
-0.282133
-0.273017
-0.263406
-0.253513
-0.243559
-0.233743
-0.224209
-0.215054
-0.206327
-0.19805
-0.190219
-0.182823
-0.175844
-0.169251
-0.163059
-0.157116
-0.151821
-0.347122
-0.338357
-0.331898
-0.324703
-0.317389
-0.309832
-0.301786
-0.293067
-0.283612
-0.273511
-0.262973
-0.252256
-0.241604
-0.231212
-0.221211
-0.211678
-0.202647
-0.194121
-0.186089
-0.178528
-0.171413
-0.164714
-0.15843
-0.152431
-0.147066
-0.354055
-0.344554
-0.337708
-0.330064
-0.322223
-0.313999
-0.305115
-0.295418
-0.284916
-0.273786
-0.262306
-0.250772
-0.23944
-0.228494
-0.218046
-0.208152
-0.198829
-0.190065
-0.181838
-0.174119
-0.166875
-0.160075
-0.153703
-0.147653
-0.142219
-0.361233
-0.350988
-0.343751
-0.335633
-0.327204
-0.318221
-0.308395
-0.297623
-0.286006
-0.273813
-0.261386
-0.24905
-0.237059
-0.22558
-0.214704
-0.204466
-0.194863
-0.185871
-0.177459
-0.169588
-0.162222
-0.155325
-0.148873
-0.142776
-0.137276
-0.368622
-0.357633
-0.350002
-0.341375
-0.332288
-0.322446
-0.311568
-0.299631
-0.286842
-0.273564
-0.260195
-0.247075
-0.234449
-0.222461
-0.211177
-0.200609
-0.190739
-0.18153
-0.17294
-0.164927
-0.157446
-0.150459
-0.143932
-0.137796
-0.132233
-0.376182
-0.364457
-0.356425
-0.347248
-0.337422
-0.326613
-0.314576
-0.30139
-0.287384
-0.273012
-0.258714
-0.244835
-0.231599
-0.219125
-0.207451
-0.196569
-0.186445
-0.17703
-0.168274
-0.160126
-0.152538
-0.14547
-0.138876
-0.132706
-0.127085
-0.383868
-0.371419
-0.362977
-0.353202
-0.342548
-0.330658
-0.317355
-0.30285
-0.287598
-0.272133
-0.256926
-0.242315
-0.228496
-0.215559
-0.203515
-0.192336
-0.181971
-0.172362
-0.163449
-0.155177
-0.147493
-0.14035
-0.133699
-0.127502
-0.121829
-0.391624
-0.37847
-0.369607
-0.359177
-0.347595
-0.33451
-0.319845
-0.303962
-0.287447
-0.270902
-0.254813
-0.239499
-0.225126
-0.211749
-0.199355
-0.187895
-0.177305
-0.167514
-0.158458
-0.150073
-0.142302
-0.135094
-0.128396
-0.122179
-0.116461
-0.399389
-0.385556
-0.376254
-0.365105
-0.35249
-0.338096
-0.321982
-0.30468
-0.286897
-0.269294
-0.252356
-0.236373
-0.221474
-0.207683
-0.194959
-0.183236
-0.172435
-0.162478
-0.15329
-0.144804
-0.136958
-0.129697
-0.122962
-0.116733
-0.110977
-0.407092
-0.392612
-0.382849
-0.37091
-0.357151
-0.34134
-0.323704
-0.304956
-0.285918
-0.267287
-0.249536
-0.232918
-0.217525
-0.203344
-0.190313
-0.178346
-0.167351
-0.157243
-0.147938
-0.139365
-0.131456
-0.124152
-0.117392
-0.11116
-0.105375
-0.414658
-0.399567
-0.389318
-0.376508
-0.361496
-0.344167
-0.324953
-0.304749
-0.284477
-0.264856
-0.246334
-0.229119
-0.213262
-0.19872
-0.185404
-0.173212
-0.162043
-0.151799
-0.142394
-0.133748
-0.12579
-0.118456
-0.111683
-0.105456
-0.099653
-0.422004
-0.406343
-0.395575
-0.381811
-0.365436
-0.346502
-0.325671
-0.304016
-0.282546
-0.261981
-0.24273
-0.224958
-0.208671
-0.193795
-0.180218
-0.167824
-0.156499
-0.146139
-0.13665
-0.127946
-0.119954
-0.112603
-0.105831
-0.0996186
-0.0938085
-0.429039
-0.412855
-0.401531
-0.386725
-0.368884
-0.348273
-0.325803
-0.302721
-0.280096
-0.258637
-0.238707
-0.220418
-0.203736
-0.188554
-0.174743
-0.16217
-0.150711
-0.140254
-0.130698
-0.121954
-0.113942
-0.10659
-0.099833
-0.0936454
-0.0878426
-0.435671
-0.419013
-0.40709
-0.391154
-0.371752
-0.349409
-0.325298
-0.300825
-0.277101
-0.254804
-0.234245
-0.215482
-0.19844
-0.182986
-0.168968
-0.15624
-0.14467
-0.134136
-0.124533
-0.115766
-0.107752
-0.100413
-0.0936861
-0.0875359
-0.0817586
-0.441802
-0.424721
-0.412153
-0.394998
-0.373953
-0.349844
-0.32411
-0.298296
-0.273534
-0.250461
-0.229325
-0.210133
-0.192771
-0.177076
-0.16288
-0.150025
-0.138366
-0.127778
-0.118148
-0.109377
-0.101377
-0.0940688
-0.0873877
-0.0812895
-0.0755602
-0.447329
-0.429879
-0.416617
-0.398162
-0.375407
-0.349516
-0.322194
-0.295102
-0.269373
-0.245587
-0.223931
-0.204357
-0.186713
-0.170813
-0.15647
-0.143514
-0.131794
-0.121174
-0.111539
-0.102783
-0.0948159
-0.0875548
-0.0809354
-0.0749051
-0.0692461
-0.45215
-0.434386
-0.420379
-0.400547
-0.376033
-0.348366
-0.319509
-0.291214
-0.264593
-0.240164
-0.218045
-0.198138
-0.180254
-0.164185
-0.149728
-0.136702
-0.124946
-0.114319
-0.1047
-0.0959794
-0.088064
-0.0808676
-0.0743265
-0.0683817
-0.0628141
-0.456162
-0.43814
-0.423336
-0.40206
-0.375758
-0.346344
-0.31602
-0.286605
-0.259175
-0.234174
-0.211652
-0.191462
-0.173384
-0.157184
-0.142647
-0.129581
-0.117817
-0.107208
-0.0976279
-0.0889638
-0.0811187
-0.0740038
-0.0675571
-0.061718
-0.0562633
-0.459263
-0.441037
-0.425386
-0.402615
-0.374515
-0.343401
-0.311694
-0.281253
-0.2531
-0.2276
-0.204738
-0.184319
-0.16609
-0.1498
-0.135219
-0.122145
-0.110402
-0.0998385
-0.0903206
-0.081734
-0.0739776
-0.0669599
-0.0606223
-0.0549075
-0.0495832
-0.461352
-0.442976
-0.426432
-0.402127
-0.372243
-0.339496
-0.306502
-0.275136
-0.246351
-0.220429
-0.197291
-0.176697
-0.158365
-0.142027
-0.127439
-0.114391
-0.1027
-0.0922071
-0.0827764
-0.0742888
-0.0666398
-0.0597345
-0.0535188
-0.0479375
-0.0427306
-0.462331
-0.443861
-0.426382
-0.40052
-0.368887
-0.334594
-0.300421
-0.268237
-0.238913
-0.212649
-0.189301
-0.168588
-0.150203
-0.133859
-0.119303
-0.106315
-0.0947064
-0.0843133
-0.0749947
-0.0666286
-0.0591059
-0.0523296
-0.0462517
-0.0408021
-0.0356287
-0.46211
-0.443596
-0.425149
-0.397728
-0.364401
-0.328663
-0.293431
-0.26054
-0.230774
-0.204249
-0.180759
-0.159985
-0.141596
-0.125292
-0.110808
-0.0979163
-0.0864219
-0.0761568
-0.0669761
-0.0587543
-0.0513778
-0.0447493
-0.0388305
-0.0335204
-0.0282679
-0.460602
-0.442095
-0.422656
-0.393689
-0.358745
-0.32168
-0.285515
-0.252035
-0.221926
-0.195221
-0.171658
-0.150883
-0.132544
-0.116325
-0.101953
-0.0891939
-0.0778466
-0.0677387
-0.058722
-0.050668
-0.0434594
-0.0369985
-0.0312571
-0.0260886
-0.0208896
-0.457727
-0.439278
-0.418831
-0.388353
-0.351888
-0.313626
-0.276663
-0.242713
-0.212361
-0.185561
-0.161996
-0.14128
-0.123043
-0.106956
-0.0927388
-0.080149
-0.068982
-0.0590616
-0.0502358
-0.0423729
-0.0353568
-0.0290879
-0.0235415
-0.0184816
-0.0134983
-0.453416
-0.435071
-0.413614
-0.381678
-0.343805
-0.304489
-0.266867
-0.232569
-0.202077
-0.175266
-0.151771
-0.131176
-0.113094
-0.0971869
-0.0831662
-0.0707846
-0.0598317
-0.0501301
-0.0415234
-0.0338766
-0.0270709
-0.0210176
-0.0156749
-0.0107537
-0.00602726
-0.447606
-0.429411
-0.406956
-0.373633
-0.334482
-0.294261
-0.256125
-0.221602
-0.191073
-0.164336
-0.140984
-0.120572
-0.102699
-0.0870202
-0.0732401
-0.0611067
-0.0504033
-0.0409486
-0.032587
-0.0251811
-0.0186094
-0.0127905
-0.00766605
-0.00291596
0.00154862
-0.440245
-0.422246
-0.398815
-0.364194
-0.323909
-0.282943
-0.244439
-0.209816
-0.179352
-0.152775
-0.129636
-0.109469
-0.0918657
-0.0764641
-0.0629704
-0.0511197
-0.0406987
-0.0315226
-0.0234336
-0.0162928
-0.00997806
-0.00441225
0.000476024
0.00503117
0.00923089
-0.431291
-0.413531
-0.389163
-0.35335
-0.312085
-0.270539
-0.231815
-0.197217
-0.166919
-0.140587
-0.117733
-0.0978714
-0.0806088
-0.0655281
-0.0523578
-0.0408302
-0.0307262
-0.0218593
-0.0140703
-0.00721899
-0.00118335
0.00410993
0.00874397
0.0130872
0.017014
-0.420712
-0.403235
-0.377981
-0.341095
-0.299017
-0.257059
-0.218264
-0.183814
-0.153784
-0.127782
-0.10529
-0.0858123
-0.0689158
-0.0542151
-0.0414134
-0.0302472
-0.0204944
-0.0119673
-0.00450547
0.00203224
0.00776703
0.0127683
0.017131
0.0212484
0.0248909
-0.408489
-0.391337
-0.365262
-0.327438
-0.284719
-0.24252
-0.203801
-0.16962
-0.13996
-0.114378
-0.0923222
-0.0732798
-0.0568112
-0.0425368
-0.0301478
-0.0193812
-0.0100136
-0.00185635
0.00525143
0.0114518
0.0168643
0.0215544
0.0256299
0.0295087
0.0328539
-0.394613
-0.377828
-0.351011
-0.312391
-0.26921
-0.226942
-0.188446
-0.154653
-0.125468
-0.100388
-0.0788356
-0.0602918
-0.0443083
-0.0305067
-0.0185733
-0.00824398
0.000704973
0.00846258
0.0151899
0.0210295
0.0260987
0.0304589
0.0342323
0.0378601
0.0408954
-0.379086
-0.362709
-0.335242
-0.29598
-0.252519
-0.210353
-0.172223
-0.138941
-0.110327
-0.085826
-0.0648493
-0.0468654
-0.0314219
-0.01814
-0.00670387
0.00315117
0.0116487
0.0189774
0.0252985
0.0307542
0.0354596
0.0394718
0.0429287
0.0462935
0.0490064
-0.361921
-0.345996
-0.317978
-0.278235
-0.234681
-0.192784
-0.15516
-0.122508
-0.0945549
-0.0707159
-0.0503837
-0.0330198
-0.0181693
-0.00545308
0.00544502
0.0147896
0.0228036
0.029675
0.0355644
0.0406138
0.0449351
0.0485819
0.0517085
0.0547983
0.0571768
-0.343144
-0.327716
-0.299249
-0.259197
-0.215741
-0.174269
-0.137292
-0.105378
-0.0781805
-0.0550818
-0.0354614
-0.018776
-0.00456991
0.00753574
0.0178562
0.0266553
0.0341546
0.040541
0.0459741
0.0505952
0.0545126
0.057777
0.06056
0.0633626
0.0653951
-0.32279
-0.307902
-0.279099
-0.238923
-0.195738
-0.154842
-0.118652
-0.087585
-0.0612336
-0.0389511
-0.0201075
-0.00415725
0.00935496
0.0208066
0.0305112
0.0387309
0.0456854
0.05156
0.0565129
0.0606843
0.0641786
0.0670441
0.0694704
0.0719732
0.0736489
-0.300904
-0.2866
-0.257588
-0.217493
-0.174665
-0.134565
-0.0992827
-0.0691666
-0.0437472
-0.0223537
-0.00434954
0.0108112
0.023582
0.0343379
0.04339
0.0509978
0.0573788
0.0627158
0.0671656
0.0708664
0.0739185
0.0763689
0.0784257
0.0806148
0.0819228
-0.277537
-0.263869
-0.234793
-0.194951
-0.152585
-0.113469
-0.0792288
-0.050163
-0.0257572
-0.0053223
0.0117827
0.026102
0.038086
0.0481065
0.0564711
0.0634363
0.0692164
0.0739914
0.077916
0.0811261
0.0837173
0.0857368
0.0874104
0.0892692
0.0901954
-0.252743
-0.239789
-0.210782
-0.171162
-0.129726
-0.0916263
-0.0585385
-0.0306173
-0.00730269
0.012108
0.0282572
0.0416858
0.0528403
0.0620878
0.0697321
0.0760255
0.0811788
0.0853688
0.0887474
0.0914473
0.0935595
0.0951323
0.096408
0.0979146
0.0984396
-0.226591
-0.214452
-0.185558
-0.146387
-0.106023
-0.0690939
-0.0372645
-0.0105755
0.0115752
0.0298999
0.0450399
0.0575318
0.0678164
0.0762559
0.083149
0.0887436
0.0932461
0.0968295
0.0996427
0.101814
0.103429
0.10454
0.105402
0.106529
0.106633
-0.199163
-0.187955
-0.159069
-0.120812
-0.0815542
-0.0459323
-0.015462
0.00991377
0.0308325
0.0480135
0.0620948
0.073607
0.0829845
0.0905834
0.096697
0.101568
0.105397
0.108354
0.110584
0.11221
0.113311
0.113945
0.114378
0.115098
0.114761
-0.170541
-0.160342
-0.131579
-0.0944084
-0.0563995
-0.0222058
0.00681178
0.0307991
0.0504233
0.0664074
0.0793842
0.0898771
0.0983133
0.105042
0.11035
0.114474
0.117611
0.119924
0.121555
0.122618
0.123188
0.123333
0.123329
0.123609
0.122775
-0.140814
-0.131634
-0.103314
-0.0672527
-0.0306373
0.00201777
0.029497
0.0520271
0.0702995
0.085038
0.0968687
0.106306
0.11377
0.119602
0.124081
0.127438
0.129864
0.131519
0.132536
0.133021
0.133046
0.132695
0.132248
0.132017
0.130523
-0.110127
-0.102005
-0.0742934
-0.0394374
-0.00434641
0.0266684
0.0525317
0.0735421
0.090411
0.10386
0.114507
0.122858
0.129321
0.134232
0.137862
0.140435
0.142135
0.143117
0.143509
0.143405
0.142875
0.142033
0.141117
0.140205
0.137824
-0.0786793
-0.0714741
-0.0445897
-0.0110579
0.0223913
0.051674
0.0758515
0.0952867
0.110706
0.122827
0.132258
0.139493
0.144932
0.148901
0.151664
0.153437
0.1544
0.1547
0.154456
0.153755
0.152676
0.151357
0.149928
0.1481
0.144713
-0.0464866
-0.0402166
-0.0142959
0.0177896
0.0494914
0.0769603
0.0993905
0.117202
0.131132
0.141891
0.150077
0.156172
0.160567
0.163576
0.165458
0.166419
0.166634
0.166243
0.165358
0.164059
0.162444
0.160669
0.158688
0.155877
0.15175
-0.0136549
-0.00836783
0.0164842
0.0470076
0.0768675
0.102451
0.123081
0.139227
0.151634
0.161003
0.16792
0.172856
0.176189
0.178225
0.179213
0.179353
0.178811
0.177723
0.176192
0.174298
0.172158
0.16992
0.167341
0.163636
0.160584
0.0196893
0.0239507
0.0476409
0.0764965
0.104431
0.128069
0.146854
0.161301
0.172156
0.180113
0.185743
0.189503
0.191761
0.192813
0.192899
0.192211
0.190907
0.189118
0.186938
0.18445
0.18178
0.179032
0.175857
0.171735
0.169324
0.0534196
0.0566177
0.0790612
0.106155
0.132094
0.153736
0.17064
0.18336
0.192644
0.199171
0.203498
0.206071
0.207246
0.207307
0.206484
0.204963
0.202896
0.200402
0.197574
0.194496
0.19129
0.188014
0.184302
0.179898
0.177529
0.0874086
0.089511
0.110631
0.135882
0.159766
0.179372
0.194369
0.205342
0.213039
0.218124
0.22114
0.222519
0.222605
0.221671
0.219938
0.217583
0.214749
0.211552
0.208078
0.20441
0.200662
0.19686
0.192669
0.188004
0.185424
0.121527
0.122507
0.142234
0.165575
0.187357
0.204898
0.217969
0.227184
0.233284
0.236922
0.238623
0.238805
0.2378
0.23587
0.233227
0.230039
0.226442
0.222544
0.218427
0.214171
0.209878
0.205559
0.200912
0.195951
0.193051
0.155646
0.155482
0.173756
0.195132
0.214777
0.230233
0.241369
0.248821
0.253323
0.255512
0.255899
0.254886
0.252793
0.249871
0.246321
0.242304
0.237947
0.233352
0.228597
0.223756
0.218923
0.214096
0.209003
0.203718
0.200451
0.189634
0.188312
0.205082
0.22445
0.241935
0.255299
0.264498
0.270189
0.273098
0.273844
0.272922
0.270721
0.267546
0.263638
0.259188
0.254348
0.249239
0.243953
0.238565
0.233146
0.227776
0.22245
0.216917
0.211292
0.207634
0.223362
0.220872
0.236098
0.25343
0.268743
0.280015
0.287286
0.291226
0.292552
0.291866
0.289646
0.286267
0.28202
0.277137
0.271797
0.266143
0.26029
0.254323
0.248311
0.242319
0.236421
0.230603
0.224635
0.218662
0.214603
0.256702
0.253041
0.266692
0.281969
0.295112
0.304305
0.309662
0.31187
0.311629
0.309527
0.306025
0.301482
0.296178
0.290332
0.284115
0.277661
0.271075
0.264438
0.257811
0.251256
0.244839
0.238537
0.232141
0.22582
0.221351
0.289526
0.284696
0.296752
0.309972
0.320956
0.32809
0.331559
0.332058
0.330274
0.326777
0.322013
0.316326
0.309984
0.303192
0.296114
0.288873
0.281568
0.274273
0.267045
0.259938
0.253011
0.246237
0.239422
0.232753
0.227873
0.321709
0.315718
0.326171
0.337341
0.34619
0.351296
0.352909
0.351729
0.348431
0.343568
0.337567
0.330759
0.323399
0.315683
0.307761
0.299752
0.291745
0.283808
0.275991
0.268345
0.26092
0.253685
0.246462
0.239451
0.234158
0.353128
0.34599
0.354843
0.363982
0.37073
0.373848
0.373645
0.370825
0.366048
0.35985
0.352643
0.344742
0.33639
0.327771
0.319029
0.310271
0.301581
0.293018
0.28463
0.276459
0.26855
0.260866
0.253248
0.245902
0.240198
0.383665
0.3754
0.382663
0.389804
0.394495
0.395674
0.393703
0.389287
0.383073
0.375577
0.367198
0.358235
0.34892
0.339427
0.329888
0.320405
0.311052
0.301883
0.292941
0.284262
0.275883
0.267767
0.259766
0.252094
0.245982
0.413203
0.403835
0.409533
0.414719
0.417408
0.416705
0.41302
0.40706
0.399454
0.390704
0.381191
0.371202
0.360957
0.350618
0.340311
0.330127
0.320134
0.310382
0.300905
0.291736
0.282905
0.274371
0.266005
0.258014
0.251501
0.44163
0.431191
0.435355
0.438641
0.439393
0.436874
0.431538
0.424089
0.415144
0.405187
0.394583
0.383607
0.372467
0.361317
0.350271
0.339414
0.328807
0.318494
0.308503
0.298864
0.289599
0.280666
0.27195
0.263652
0.256746
0.468839
0.457365
0.460039
0.461489
0.460377
0.456115
0.449197
0.440323
0.430096
0.418983
0.407335
0.395415
0.38342
0.371493
0.359741
0.348241
0.337048
0.326199
0.315719
0.305631
0.295951
0.286637
0.277589
0.268996
0.261706
0.494725
0.482259
0.483496
0.483184
0.480292
0.474368
0.465942
0.455712
0.444264
0.432051
0.419411
0.406594
0.393786
0.381121
0.368698
0.356587
0.344837
0.33348
0.322535
0.31202
0.301947
0.292273
0.28291
0.274036
0.266374
0.519193
0.50578
0.505642
0.503653
0.499071
0.491574
0.481721
0.470209
0.457607
0.444355
0.430777
0.417112
0.403536
0.390174
0.377118
0.364431
0.352155
0.340318
0.328934
0.318018
0.307573
0.29756
0.287903
0.27876
0.270742
0.542149
0.527842
0.526399
0.522826
0.516653
0.507677
0.496486
0.483769
0.470085
0.455858
0.4414
0.42694
0.412643
0.398628
0.384979
0.371752
0.358984
0.346697
0.334903
0.323609
0.312817
0.302487
0.292555
0.28316
0.274802
0.563507
0.548363
0.545694
0.540638
0.532981
0.522626
0.510188
0.49635
0.481659
0.466525
0.451249
0.436049
0.421083
0.406461
0.39226
0.378531
0.365306
0.352601
0.340426
0.328782
0.317668
0.307044
0.296857
0.287226
0.278547
0.583187
0.567266
0.563457
0.557028
0.547999
0.536373
0.522786
0.507915
0.492296
0.476326
0.460296
0.444415
0.428832
0.413651
0.398942
0.384751
0.371105
0.358016
0.34549
0.333525
0.322113
0.31122
0.3008
0.29095
0.28197
0.601114
0.584483
0.579628
0.571942
0.56166
0.548875
0.534239
0.518428
0.501962
0.485231
0.468515
0.452014
0.435869
0.420179
0.405008
0.390396
0.376367
0.362929
0.350083
0.337825
0.326144
0.315005
0.304374
0.294324
0.285067
0.617223
0.59995
0.594148
0.585327
0.573919
0.56009
0.544513
0.527855
0.51063
0.493214
0.475881
0.458823
0.442175
0.426028
0.410441
0.395452
0.381078
0.367327
0.354194
0.341674
0.32975
0.318392
0.307572
0.297342
0.287832
0.631452
0.613609
0.606966
0.59714
0.584734
0.569983
0.553574
0.536169
0.518272
0.500252
0.482374
0.464824
0.447731
0.43118
0.415227
0.399905
0.385228
0.371199
0.357814
0.345061
0.332924
0.321373
0.310386
0.299996
0.290261
0.643748
0.625412
0.618037
0.607341
0.594071
0.578523
0.561394
0.543343
0.524865
0.506324
0.487975
0.47
0.452522
0.435623
0.419353
0.403743
0.388804
0.374536
0.360933
0.34798
0.335658
0.32394
0.31281
0.302281
0.29235
0.654065
0.635313
0.627323
0.615894
0.601898
0.585681
0.567948
0.549355
0.530391
0.511411
0.492668
0.474336
0.456535
0.439343
0.422809
0.406957
0.391798
0.37733
0.363543
0.350423
0.337946
0.326089
0.314839
0.304193
0.294095
0.662366
0.643278
0.634791
0.622771
0.608191
0.591435
0.573216
0.554187
0.534831
0.515499
0.496438
0.47782
0.459759
0.442332
0.425584
0.409538
0.394202
0.379573
0.365639
0.352384
0.339783
0.327814
0.316467
0.305727
0.295495
0.668618
0.649277
0.640415
0.627949
0.612929
0.595767
0.577182
0.557824
0.538173
0.518576
0.499275
0.480441
0.462185
0.444581
0.427672
0.41148
0.396011
0.38126
0.367216
0.353858
0.341164
0.32911
0.317692
0.306881
0.296546
0.672798
0.653288
0.644174
0.63141
0.616095
0.598662
0.579832
0.560255
0.540407
0.520632
0.501171
0.482192
0.463805
0.446083
0.429067
0.412777
0.397219
0.382387
0.368269
0.354843
0.342086
0.329976
0.318509
0.307651
0.297248
0.674892
0.655297
0.646057
0.633143
0.617681
0.600111
0.581159
0.561471
0.541524
0.521661
0.50212
0.483069
0.464617
0.446835
0.429765
0.413426
0.397823
0.382951
0.368795
0.355336
0.342548
0.33041
0.318918
0.308036
0.297599
-0.241087
-0.237513
-0.233768
-0.22996
-0.226197
-0.228072
-0.222617
-0.224441
-0.216469
-0.219154
-0.203883
-0.20806
-0.192229
-0.197126
-0.18131
-0.186557
-0.171007
-0.176495
-0.161424
-0.167044
-0.152564
-0.158234
-0.1444
-0.150066
-0.136903
-0.142523
-0.130034
-0.13558
-0.123751
-0.129202
-0.118011
-0.123357
-0.112777
-0.118008
-0.10801
-0.113125
-0.103677
-0.108675
-0.0997483
-0.10463
-0.096194
-0.100964
-0.0929888
-0.097652
-0.0901098
-0.0946725
-0.0875362
-0.0920054
-0.0852498
-0.0896331
-0.0832343
-0.0875398
-0.0814758
-0.0857116
-0.0799619
-0.0841365
-0.0786821
-0.0828043
-0.0776277
-0.0817062
-0.0767917
-0.0808352
-0.0761669
-0.0801853
-0.0757542
-0.0797546
-0.0755366
-0.0795344
-0.210766
-0.197292
-0.185282
-0.174607
-0.164487
-0.155158
-0.146589
-0.138716
-0.131504
-0.124904
-0.11887
-0.113363
-0.108344
-0.103776
-0.0996265
-0.0958649
-0.0924633
-0.0893967
-0.0866426