/*--------------------------------*- C++ -*----------------------------------*\
  =========                 |
  \\      /  F ield         | OpenFOAM: The Open Source CFD Toolbox
   \\    /   O peration     | Website:  https://openfoam.org
    \\  /    A nd           | Version:  7
     \\/     M anipulation  |
\*---------------------------------------------------------------------------*/
FoamFile
{
    version     2.0;
    format      ascii;
    class       surfaceScalarField;
    location    "35";
    object      phi;
}
// * * * * * * * * * * * * * * * * * * * * * * * * * * * * * * * * * * * * * //

dimensions      [0 3 -1 0 0 0 0];

internalField   nonuniform List<scalar> 
27710
(
-7.51811e-05
7.51805e-05
5.9426e-10
-0.000226891
0.000151709
7.48725e-10
-0.00042538
0.000198489
4.84349e-10
-0.000654847
0.000229467
3.14322e-11
-0.00090785
0.000253003
-6.04878e-10
-0.0011811
0.000273247
-1.53695e-09
-0.0014696
0.000288508
-2.90285e-09
-0.00175746
0.000287864
-4.82535e-09
-0.00207203
0.000314575
-7.38629e-09
0.000251691
-1.08191e-08
-0.00232371
-6.98017e-05
0.000144982
-0.000211322
0.000293229
-0.000395337
0.000382504
-0.000605189
0.000439319
-0.000831634
0.000479448
-0.00106924
0.000510851
-0.0013153
0.000534571
-0.00153426
0.000506826
-0.00178855
0.000568865
0.000383669
-0.00192053
-5.99908e-05
0.000204973
-0.00018243
0.000415668
-0.00033884
0.000538914
-0.000510789
0.000611267
-0.000685604
0.000654263
-0.000851107
0.000676355
-0.00101119
0.000694652
-0.00109303
0.000588671
-0.0012153
0.000691136
0.000292871
-0.00112451
-4.74746e-05
0.000252448
-0.000144347
0.000512541
-0.000262565
0.000657132
-0.000380751
0.000729454
-0.000481977
0.000755489
-0.000541316
0.000735694
-0.000562034
0.00071537
-0.000450112
0.000476749
-0.000312373
0.000553397
-7.922e-05
5.97181e-05
-3.44154e-05
0.000286863
-0.00010229
0.000580415
-0.000174987
0.000729828
-0.000226371
0.000780839
-0.000232674
0.000761791
-0.000163399
0.000666419
3.72939e-05
0.000514677
0.000387389
0.000126654
0.00088862
5.21656e-05
-0.000960282
0.00176968
-2.29166e-05
0.00030978
-6.12871e-05
0.000618786
-8.40064e-05
0.000752548
-5.82427e-05
0.000755075
5.59583e-05
0.00064759
0.000290597
0.00043178
0.00074039
6.48846e-05
0.00145002
-0.000582972
0.00241903
-0.00091685
-0.00250136
0.00396011
-1.44476e-05
0.000324227
-2.4427e-05
0.000628765
6.82084e-06
0.0007213
0.000123883
0.000638013
0.000383002
0.000388471
0.000846896
-3.21141e-05
0.00163402
-0.000722239
0.00275378
-0.00170273
0.00429409
-0.00245715
-0.00465021
0.00644294
-9.53836e-06
0.000333765
8.61489e-06
0.000610612
0.000101463
0.000628452
0.000333758
0.000405717
0.000790009
-6.77801e-05
0.00156508
-0.000807181
0.00275042
-0.00190759
0.00434135
-0.00329366
0.00642584
-0.00454165
-0.00702511
0.00880074
-6.43112e-06
0.000340197
4.22197e-05
0.000561961
0.000214697
0.000455974
0.000604737
1.56783e-05
0.00132774
-0.000790779
0.00249253
-0.00197198
0.00407863
-0.00349368
0.00604767
-0.0052627
0.00840972
-0.00690369
-0.00914264
0.0105273
-2.02476e-06
0.000342221
8.73616e-05
0.000472575
0.000371039
0.000172297
0.000981573
-0.000594856
0.00203831
-0.00184752
0.00357668
-0.00351035
0.00545174
-0.00536873
0.00749949
-0.00731045
0.00960495
-0.00900916
-0.0107824
0.0112447
6.16112e-06
0.00033606
0.000156328
0.000322408
0.00059847
-0.000269845
0.00149096
-0.00148735
0.00288534
-0.00324189
0.00464703
-0.00527205
0.00654063
-0.00726233
0.00832976
-0.00909959
0.00985917
-0.0105386
-0.011917
0.0109938
2.17325e-05
0.000314328
0.000261636
8.25051e-05
0.000915869
-0.000924078
0.00210696
-0.00267844
0.00371732
-0.00485226
0.0054576
-0.00701233
0.00708363
-0.00888835
0.00841751
-0.0104335
0.00953816
-0.0116592
-0.0128836
0.0105048
4.79143e-05
0.000266413
0.000412984
-0.000282565
0.00131473
-0.00182582
0.00272832
-0.00409203
0.00434183
-0.00646577
0.00584214
-0.00851264
0.00708225
-0.0101285
0.00806641
-0.0114176
0.00891813
-0.012511
-0.0136164
0.00965088
8.69873e-05
0.000179426
0.000613119
-0.000808697
0.00174246
-0.00295516
0.00321793
-0.00556749
0.0046465
-0.00789434
0.00582242
-0.00968857
0.00674114
-0.0110472
0.00748128
-0.0121578
0.00814588
-0.0131756
-0.0142603
0.00878983
0.000141723
3.77029e-05
0.000848481
-0.00151545
0.00211424
-0.00422092
0.00348721
-0.00694046
0.00464671
-0.00905384
0.00553002
-0.0105719
0.0062084
-0.0117255
0.00677736
-0.0127267
0.00732574
-0.0137239
-0.0147939
0.00785934
0.000214486
-0.000176783
0.00108532
-0.00238629
0.00235799
-0.00549359
0.00353149
-0.00811396
0.00442404
-0.00994639
0.00507134
-0.0112192
0.00557432
-0.0122285
0.00602043
-0.0131728
0.00645946
-0.014163
-0.0152325
0.00689804
0.000302581
-0.000479365
0.00128274
-0.00336644
0.00245099
-0.00666184
0.00339487
-0.00905784
0.0040544
-0.0106059
0.00451894
-0.0116837
0.00488964
-0.0125992
0.00523117
-0.0135144
0.00557466
-0.0145065
-0.015578
0.00592015
0.000394099
-0.000873464
0.00140761
-0.00437996
0.00240835
-0.00766258
0.00312871
-0.0097782
0.00359514
-0.0110724
0.00391662
-0.0120052
0.00417915
-0.0128618
0.0044274
-0.0137626
0.00467503
-0.0147541
-0.0158239
0.00492095
0.000473719
-0.00134718
0.00144307
-0.00534931
0.00225718
-0.00847669
0.0027769
-0.0102979
0.00308509
-0.0113805
0.00329008
-0.0122102
0.00345774
-0.0130294
0.00361517
-0.01392
0.0037682
-0.0149071
-0.0159728
0.00391706
0.000529184
-0.00187637
0.00139415
-0.00621427
0.00202563
-0.00910817
0.00237274
-0.010645
0.00254998
-0.0115578
0.00265473
-0.0123149
0.00273318
-0.0131079
0.00280093
-0.0139878
0.00286038
-0.0149666
-0.016025
0.00291256
0.000553103
-0.00242947
0.00128375
-0.00694492
0.00174015
-0.00956457
0.00193967
-0.0108445
0.00200582
-0.0116239
0.00201987
-0.012329
0.00201182
-0.0130998
0.00198925
-0.0139652
0.00195282
-0.0149301
-0.0159824
0.0019103
0.000542914
-0.00297238
0.00112672
-0.00752872
0.00142169
-0.00985954
0.00149357
-0.0109164
0.0014627
-0.0115931
0.00139171
-0.012258
0.00129863
-0.0130067
0.00118592
-0.0138525
0.0010506
-0.0147948
-0.0158369
0.000905094
0.000501435
-0.00347382
0.000937014
-0.0079643
0.00108602
-0.0100085
0.00104637
-0.0108768
0.000927449
-0.0114741
0.000774294
-0.0121048
0.000597022
-0.0128295
0.00039497
-0.0136505
0.000171981
-0.0145718
-0.0155645
-0.000100426
0.000435559
-0.00390938
0.000727006
-0.00825575
0.000745341
-0.0100269
0.000606024
-0.0107375
0.000404018
-0.0112721
0.000169238
-0.0118701
-9.16742e-05
-0.0125686
-0.00037495
-0.0133672
-0.00069404
-0.0142527
-0.0152127
-0.00104587
0.000353321
-0.0042627
0.00050694
-0.00840937
0.000407832
-0.00992777
0.000175751
-0.0105054
-0.000104538
-0.0109918
-0.000410821
-0.0115638
-0.000747855
-0.0122315
-0.00111983
-0.0129952
-0.00152981
-0.0138428
-0.0147738
-0.00196874
0.000261796
-0.0045245
0.000285949
-0.00843352
7.62052e-05
-0.00971803
-0.000233772
-0.0101954
-0.000584082
-0.0106415
-0.000967634
-0.0111802
-0.00138358
-0.0118156
-0.00183853
-0.0125403
-0.00233104
-0.0133502
-0.0142477
-0.00285705
0.000166496
-0.00469099
7.45558e-05
-0.00834158
-0.00023477
-0.0094087
-0.000621846
-0.00980833
-0.00104489
-0.0102185
-0.00150092
-0.0107242
-0.0019924
-0.0113241
-0.00252495
-0.0120077
-0.00309744
-0.0127778
-0.0136386
-0.00370656
7.29292e-05
-0.00476392
-0.000140445
-0.00812821
-0.000530554
-0.0090186
-0.000990548
-0.00934833
-0.00148272
-0.00972632
-0.00200835
-0.0101986
-0.00257146
-0.010761
-0.00317639
-0.0114028
-0.00382475
-0.0121294
-0.0129536
-0.00450973
-1.34033e-05
-0.00475052
-0.000342443
-0.00779917
-0.000811053
-0.00854999
-0.00133712
-0.00882227
-0.00189508
-0.00916836
-0.00248802
-0.00960564
-0.00312024
-0.0101288
-0.00379325
-0.0107298
-0.00450225
-0.0114204
-0.0122005
-0.00525536
-0.000119396
-0.00463112
-0.000529429
-0.00738914
-0.00107182
-0.00800759
-0.00165993
-0.00823417
-0.00227998
-0.0085483
-0.00293711
-0.00894851
-0.00363609
-0.00942979
-0.00437973
-0.00998614
-0.00517189
-0.0106282
-0.0114271
-0.00594529
-0.000209584
-0.00442154
-0.000702227
-0.00689649
-0.00131075
-0.00739907
-0.00195724
-0.00758768
-0.00263542
-0.00787012
-0.00335204
-0.00823188
-0.00411232
-0.0086695
-0.00491903
-0.00917943
-0.00577313
-0.00977414
-0.0104275
-0.00677271
-0.000290439
-0.0041311
-0.000859569
-0.00632736
-0.00152756
-0.00673108
-0.00222789
-0.00688735
-0.00295995
-0.00713807
-0.0037307
-0.00746113
-0.00454379
-0.00785641
-0.00540316
-0.00832007
-0.00632842
-0.00884888
-0.00939976
-0.0073562
-0.000362448
-0.00376865
-0.00100028
-0.00568953
-0.00172144
-0.00600992
-0.00247069
-0.00613809
-0.0032519
-0.00635686
-0.00407298
-0.00664005
-0.00494044
-0.00698895
-0.00586329
-0.00739721
-0.00685627
-0.00785589
-0.00834311
-0.00791293
-0.000425307
-0.00334334
-0.00112364
-0.0049912
-0.0018918
-0.00524175
-0.00268462
-0.00534528
-0.00350902
-0.00553246
-0.00437289
-0.00577618
-0.00528414
-0.00607769
-0.0062538
-0.00642756
-0.00729349
-0.0068162
-0.00723835
-0.00839825
-0.000478035
-0.00286531
-0.00122896
-0.00424028
-0.00203823
-0.00443248
-0.0028694
-0.00451412
-0.0037323
-0.00466956
-0.00463552
-0.00487296
-0.00558794
-0.00512528
-0.00659914
-0.00541636
-0.00767641
-0.00573893
-0.00609466
-0.00882009
-0.000519117
-0.00234619
-0.00131589
-0.0034435
-0.00216036
-0.00358802
-0.00302374
-0.00365073
-0.00391845
-0.00377485
-0.00485368
-0.00393774
-0.00583905
-0.0041399
-0.00688353
-0.00437188
-0.0079936
-0.00462886
-0.00491567
-0.00917259
-0.00055442
-0.00179177
-0.00138575
-0.00261218
-0.00225842
-0.00271534
-0.00314806
-0.00276109
-0.00406888
-0.00285403
-0.00503037
-0.00297625
-0.00604231
-0.00312796
-0.00711283
-0.00330137
-0.00824834
-0.00349335
-0.00370932
-0.00945469
-0.00058183
-0.00120994
-0.00143849
-0.00175552
-0.00233207
-0.00182176
-0.00324143
-0.00185173
-0.00418183
-0.00191364
-0.00516297
-0.00199511
-0.00619472
-0.00209621
-0.00728466
-0.00221143
-0.00843903
-0.00233898
-0.00248308
-0.00966527
-0.000600324
-0.000609616
-0.00147386
-0.000881983
-0.00238129
-0.000914331
-0.00330385
-0.000929166
-0.00425738
-0.000960104
-0.00525166
-0.00100083
-0.00629652
-0.00105135
-0.0073991
-0.00110884
-0.00856564
-0.00117243
-0.00124439
-0.00980434
-0.000609616
1.40939e-10
-0.0014916
1.7886e-10
-0.00240593
1.66054e-10
-0.0033351
1.49117e-10
-0.0042952
1.32488e-10
-0.00529603
1.16545e-10
-0.00634738
1.00942e-10
-0.00745623
8.59002e-11
-0.00862866
7.1013e-11
5.70563e-11
-0.00987304
-0.000609616
0.000609617
-0.0014916
0.000881984
-0.00240593
0.000914331
-0.0033351
0.000929166
-0.0042952
0.000960105
-0.00529603
0.00100083
-0.00634738
0.00105135
-0.00745623
0.00110884
-0.00862866
0.00117243
0.00124439
-0.00987304
-0.000600324
0.00120994
-0.00147386
0.00175552
-0.00238129
0.00182176
-0.00330385
0.00185173
-0.00425738
0.00191364
-0.00525166
0.00199511
-0.00629652
0.00209621
-0.0073991
0.00221143
-0.00856564
0.00233898
0.00248308
-0.00980434
-0.00058183
0.00179177
-0.00143849
0.00261218
-0.00233207
0.00271534
-0.00324143
0.00276109
-0.00418183
0.00285403
-0.00516297
0.00297625
-0.00619472
0.00312796
-0.00728466
0.00330137
-0.00843903
0.00349335
0.00370932
-0.00966527
-0.00055442
0.00234619
-0.00138575
0.00344351
-0.00225842
0.00358802
-0.00314806
0.00365073
-0.00406888
0.00377485
-0.00503037
0.00393774
-0.00604231
0.0041399
-0.00711283
0.00437188
-0.00824834
0.00462886
0.00491567
-0.0094547
-0.000519117
0.00286531
-0.00131589
0.00424028
-0.00216036
0.00443248
-0.00302374
0.00451412
-0.00391845
0.00466956
-0.00485368
0.00487296
-0.00583905
0.00512528
-0.00688353
0.00541636
-0.0079936
0.00573893
0.00609467
-0.00917259
-0.000478035
0.00334334
-0.00122896
0.0049912
-0.00203823
0.00524175
-0.0028694
0.00534528
-0.0037323
0.00553246
-0.00463552
0.00577618
-0.00558794
0.00607769
-0.00659914
0.00642756
-0.00767641
0.0068162
0.00723835
-0.00882009
-0.000425307
0.00376865
-0.00112364
0.00568954
-0.0018918
0.00600992
-0.00268462
0.00613809
-0.00350902
0.00635686
-0.00437289
0.00664005
-0.00528414
0.00698895
-0.0062538
0.00739721
-0.00729349
0.00785589
0.00834311
-0.00839825
-0.000362448
0.0041311
-0.00100028
0.00632736
-0.00172144
0.00673108
-0.00247069
0.00688735
-0.0032519
0.00713807
-0.00407298
0.00746113
-0.00494044
0.00785641
-0.00586329
0.00832007
-0.00685627
0.00884888
0.00939976
-0.00791293
-0.000290439
0.00442154
-0.000859569
0.00689649
-0.00152756
0.00739907
-0.00222789
0.00758768
-0.00295995
0.00787012
-0.0037307
0.00823189
-0.00454379
0.0086695
-0.00540316
0.00917943
-0.00632842
0.00977414
0.0104275
-0.0073562
-0.000209584
0.00463112
-0.000702227
0.00738914
-0.00131075
0.00800759
-0.00195724
0.00823417
-0.00263542
0.0085483
-0.00335204
0.00894851
-0.00411232
0.00942979
-0.00491903
0.00998614
-0.00577313
0.0106282
0.0114271
-0.00677271
-0.000119396
0.00475052
-0.000529429
0.00779917
-0.00107182
0.00854999
-0.00165993
0.00882227
-0.00227998
0.00916836
-0.00293711
0.00960564
-0.00363609
0.0101288
-0.00437973
0.0107298
-0.00517189
0.0114204
0.0122005
-0.00594529
-1.34034e-05
0.00476392
-0.000342443
0.00812821
-0.000811053
0.0090186
-0.00133712
0.00934833
-0.00189508
0.00972632
-0.00248802
0.0101986
-0.00312024
0.010761
-0.00379325
0.0114028
-0.00450225
0.0121294
0.0129536
-0.00525536
7.29292e-05
0.00469099
-0.000140445
0.00834158
-0.000530555
0.00940871
-0.000990548
0.00980833
-0.00148272
0.0102185
-0.00200835
0.0107242
-0.00257146
0.0113241
-0.00317639
0.0120077
-0.00382475
0.0127778
0.0136386
-0.00450973
0.000166496
0.0045245
7.45557e-05
0.00843352
-0.00023477
0.00971803
-0.000621846
0.0101954
-0.00104489
0.0106415
-0.00150092
0.0111802
-0.0019924
0.0118156
-0.00252495
0.0125403
-0.00309744
0.0133502
0.0142477
-0.00370656
0.000261796
0.0042627
0.000285949
0.00840937
7.62051e-05
0.00992777
-0.000233772
0.0105054
-0.000584082
0.0109918
-0.000967635
0.0115638
-0.00138358
0.0122315
-0.00183853
0.0129952
-0.00233104
0.0138428
0.0147738
-0.00285705
0.000353321
0.00390938
0.00050694
0.00825575
0.000407832
0.0100269
0.00017575
0.0107375
-0.000104538
0.0112721
-0.000410821
0.0118701
-0.000747855
0.0125686
-0.00111983
0.0133672
-0.00152981
0.0142527
0.0152127
-0.00196875
0.000435559
0.00347382
0.000727006
0.0079643
0.000745341
0.0100085
0.000606023
0.0108768
0.000404018
0.0114741
0.000169238
0.0121048
-9.16746e-05
0.0128295
-0.00037495
0.0136505
-0.000694041
0.0145718
0.0155645
-0.00104587
0.000501435
0.00297238
0.000937014
0.00752873
0.00108602
0.00985954
0.00104637
0.0109164
0.000927449
0.0115931
0.000774294
0.012258
0.000597021
0.0130067
0.000394969
0.0138525
0.000171981
0.0147948
0.0158369
-0.000100426
0.000542914
0.00242947
0.00112672
0.00694492
0.00142169
0.00956458
0.00149357
0.0108445
0.0014627
0.0116239
0.00139171
0.012329
0.00129863
0.0130998
0.00118592
0.0139652
0.0010506
0.0149301
0.0159824
0.000905093
0.000553103
0.00187637
0.00128375
0.00621427
0.00174015
0.00910817
0.00193967
0.010645
0.00200582
0.0115578
0.00201987
0.0123149
0.00201182
0.0131079
0.00198925
0.0139878
0.00195282
0.0149666
0.016025
0.00191029
0.000529184
0.00134718
0.00139415
0.00534931
0.00202563
0.00847669
0.00237274
0.0102979
0.00254998
0.0113805
0.00265472
0.0122102
0.00273318
0.0130294
0.00280093
0.01392
0.00286038
0.0149071
0.0159728
0.00291256
0.000473719
0.000873465
0.00144307
0.00437996
0.00225718
0.00766258
0.0027769
0.0097782
0.00308509
0.0110724
0.00329008
0.0120052
0.00345774
0.0128618
0.00361517
0.0137626
0.0037682
0.0147541
0.0158239
0.00391706
0.0003941
0.000479365
0.00140761
0.00336645
0.00240835
0.00666184
0.00312871
0.00905784
0.00359514
0.0106059
0.00391661
0.0116837
0.00417915
0.0125992
0.0044274
0.0135144
0.00467503
0.0145065
0.015578
0.00492095
0.000302581
0.000176784
0.00128274
0.00238629
0.00245099
0.00549359
0.00339487
0.00811396
0.0040544
0.00994639
0.00451894
0.0112192
0.00488964
0.0122285
0.00523117
0.0131728
0.00557466
0.014163
0.0152325
0.00592015
0.000214486
-3.77026e-05
0.00108532
0.00151546
0.00235799
0.00422093
0.00353149
0.00694046
0.00442404
0.00905384
0.00507134
0.0105719
0.00557432
0.0117256
0.00602043
0.0127267
0.00645946
0.0137239
0.0147939
0.00689804
0.000141723
-0.000179426
0.000848482
0.000808697
0.00211425
0.00295516
0.00348721
0.0055675
0.00464671
0.00789434
0.00553002
0.00968857
0.0062084
0.0110472
0.00677736
0.0121578
0.00732573
0.0131756
0.0142603
0.00785934
8.69874e-05
-0.000266413
0.00061312
0.000282565
0.00174246
0.00182582
0.00321793
0.00409203
0.0046465
0.00646577
0.00582242
0.00851264
0.00674114
0.0101285
0.00748128
0.0114176
0.00814588
0.012511
0.0136164
0.00878983
4.79143e-05
-0.000314328
0.000412984
-8.25049e-05
0.00131473
0.000924079
0.00272832
0.00267844
0.00434183
0.00485226
0.00584214
0.00701233
0.00708225
0.00888836
0.0080664
0.0104335
0.00891813
0.0116592
0.0128836
0.00965088
2.17326e-05
-0.00033606
0.000261636
-0.000322408
0.00091587
0.000269846
0.00210696
0.00148735
0.00371733
0.00324189
0.00545761
0.00527205
0.00708363
0.00726233
0.00841751
0.00909959
0.00953816
0.0105386
0.011917
0.0105048
6.16125e-06
-0.000342222
0.000156328
-0.000472575
0.000598471
-0.000172297
0.00149096
0.000594857
0.00288534
0.00184752
0.00464703
0.00351036
0.00654063
0.00536873
0.00832976
0.00731046
0.00985917
0.00900917
0.0107824
0.0109938
-2.02456e-06
-0.000340197
8.73621e-05
-0.000561962
0.00037104
-0.000455975
0.000981575
-1.5678e-05
0.00203831
0.00079078
0.00357669
0.00197198
0.00545174
0.00349368
0.00749949
0.00526271
0.00960495
0.0069037
0.00914265
0.0112447
-6.43091e-06
-0.000333766
4.22202e-05
-0.000610613
0.000214698
-0.000628453
0.000604738
-0.000405718
0.00132774
6.77806e-05
0.00249254
0.000807183
0.00407863
0.00190759
0.00604768
0.00329366
0.00840972
0.00454166
0.00702512
0.0105273
-9.53817e-06
-0.000324228
8.61537e-06
-0.000628767
0.000101463
-0.000721301
0.000333759
-0.000638013
0.000790011
-0.000388471
0.00156508
3.21153e-05
0.00275043
0.000722242
0.00434135
0.00170274
0.00642585
0.00245716
0.00465022
0.00880075
-1.44474e-05
-0.000309781
-2.44266e-05
-0.000618787
6.82144e-06
-0.000752549
0.000123884
-0.000755076
0.000383003
-0.00064759
0.000846898
-0.000431779
0.00163402
-6.48818e-05
0.00275378
0.000582977
0.00429409
0.000916859
0.00250137
0.00644294
-2.29165e-05
-0.000286864
-6.12868e-05
-0.000580417
-8.40061e-05
-0.00072983
-5.82424e-05
-0.000780839
5.59586e-05
-0.000761791
0.000290597
-0.000666418
0.00074039
-0.000514675
0.00145002
-0.000126649
0.00241903
-5.21567e-05
0.000960294
0.00396011
-3.44153e-05
-0.000252449
-0.00010229
-0.000512542
-0.000174987
-0.000657133
-0.000226371
-0.000729455
-0.000232674
-0.000755489
-0.0001634
-0.000735693
3.72928e-05
-0.000715367
0.000387387
-0.000476744
0.000888618
-0.000553387
7.92334e-05
0.00176968
-4.74746e-05
-0.000204974
-0.000144347
-0.00041567
-0.000262565
-0.000538915
-0.000380752
-0.000611268
-0.000481978
-0.000654263
-0.000541317
-0.000676353
-0.000562036
-0.000694648
-0.000450116
-0.000588664
-0.000312378
-0.000691125
-0.000292854
5.97096e-05
-5.99908e-05
-0.000144983
-0.00018243
-0.00029323
-0.00033884
-0.000382505
-0.000510789
-0.000439319
-0.000685604
-0.000479447
-0.000851109
-0.000510849
-0.00101119
-0.000534566
-0.00109304
-0.000506817
-0.00121531
-0.000568852
-0.00038365
-0.00112451
-6.98017e-05
-7.51817e-05
-0.000211322
-0.00015171
-0.000395337
-0.00019849
-0.000605189
-0.000229467
-0.000831634
-0.000253002
-0.00106924
-0.000273244
-0.0013153
-0.000288503
-0.00153426
-0.000287855
-0.00178856
-0.00031456
-0.00025167
-0.00192054
-7.51811e-05
-0.000226891
-0.00042538
-0.000654847
-0.00090785
-0.0011811
-0.0014696
-0.00175746
-0.00207203
-0.00232371
-0.0023666
4.29003e-05
-6.40883e-09
-0.00240625
3.9661e-05
-7.01223e-09
-0.00244139
3.51425e-05
-7.5536e-09
-0.00247247
3.10845e-05
-8.01806e-09
-0.00249995
2.74954e-05
-8.37779e-09
-0.00252428
2.43385e-05
-8.61316e-09
-0.00254583
2.15522e-05
-8.7091e-09
-0.00256487
1.90552e-05
-8.64079e-09
-0.00258164
1.67795e-05
-8.39319e-09
-0.0025963
1.46671e-05
-7.95522e-09
-0.00260897
1.26708e-05
-7.32101e-09
-0.00261971
1.07535e-05
-6.49015e-09
-0.0026286
8.88776e-06
-5.46647e-09
-0.00263565
7.05641e-06
-4.25427e-09
-0.0026409
5.25815e-06
-2.83863e-09
-0.00264441
3.51125e-06
-1.22243e-09
-0.00264622
1.81061e-06
4.77414e-10
-0.00264621
-1.69784e-08
2.22882e-09
-0.00264479
-1.41932e-06
4.06432e-09
-0.00264186
-2.94085e-06
5.99971e-09
-0.00263737
-4.49401e-06
8.03369e-09
-0.00263131
-6.07471e-06
1.01396e-08
-0.00262364
-7.67914e-06
1.22861e-08
-0.00261435
-9.30771e-06
1.44428e-08
-0.0026034
-1.09622e-05
1.65786e-08
-0.00259078
-1.26446e-05
1.8662e-08
-0.00257644
-1.43564e-05
2.06608e-08
-0.00256037
-1.60991e-05
2.25424e-08
-0.00254252
-1.78736e-05
2.42751e-08
-0.00252286
-1.96808e-05
2.58247e-08
-0.00250137
-2.1521e-05
2.7167e-08
-0.002478
-2.33942e-05
2.82708e-08
-0.00245273
-2.52999e-05
2.91102e-08
-0.00242552
-2.72373e-05
2.96618e-08
-0.00239635
-2.92052e-05
2.99054e-08
-0.00236518
-3.12022e-05
2.98239e-08
-0.00233198
-3.32263e-05
2.94041e-08
-0.00229673
-3.52753e-05
2.86371e-08
-0.00225941
-3.73467e-05
2.75182e-08
-0.00222
-3.94375e-05
2.60473e-08
-0.00217848
-4.15448e-05
2.4229e-08
-0.00213484
-4.36651e-05
2.20728e-08
-0.00208906
-4.57951e-05
1.95926e-08
-0.00204115
-4.79309e-05
1.68067e-08
-0.00199109
-5.0069e-05
1.37361e-08
-0.0019389
-5.22057e-05
1.0405e-08
-0.00188457
-5.43373e-05
6.83897e-09
-0.00182811
-5.64606e-05
3.05437e-09
-0.00176954
-5.85714e-05
-8.45986e-10
-0.00170887
-6.06649e-05
-4.85471e-09
-0.00164612
-6.27429e-05
-8.96813e-09
-0.0015813
-6.48061e-05
-1.31228e-08
-0.00151449
-6.67919e-05
-1.72019e-08
-0.00144573
-6.87367e-05
-2.12253e-08
-0.00137506
-7.06461e-05
-2.51475e-08
-0.00130252
-7.25136e-05
-2.89192e-08
-0.00122815
-7.43339e-05
-3.24978e-08
-0.00115201
-7.61033e-05
-3.58429e-08
-0.00107415
-7.78181e-05
-3.8916e-08
-0.000994636
-7.94749e-05
-4.16819e-08
-0.000913521
-8.10706e-05
-4.41087e-08
-0.000830872
-8.26028e-05
-4.61684e-08
-0.000746756
-8.40687e-05
-4.78381e-08
-0.000661241
-8.54654e-05
-4.90988e-08
-0.000574398
-8.67936e-05
-4.99278e-08
-0.00048626
-8.80877e-05
-5.0324e-08
-0.000396949
-8.92603e-05
-5.02978e-08
-0.000306535
-9.03641e-05
-4.9844e-08
-0.000215087
-9.13995e-05
-4.89597e-08
-0.000122677
-9.23626e-05
-4.76571e-08
-2.93785e-05
-9.3252e-05
-4.59503e-08
6.47321e-05
-9.40668e-05
-4.38443e-08
0.000159583
-9.48091e-05
-4.13865e-08
0.0002551
-9.54792e-05
-3.85935e-08
0.000351213
-9.60774e-05
-3.54911e-08
0.00044785
-9.66049e-05
-3.21123e-08
0.000544942
-9.70629e-05
-2.84916e-08
0.000642419
-9.74529e-05
-2.4665e-08
0.000740217
-9.77766e-05
-2.06694e-08
0.000838269
-9.80357e-05
-1.65425e-08
0.000936513
-9.82321e-05
-1.2321e-08
0.00103489
-9.83678e-05
-8.04086e-09
0.00113334
-9.84449e-05
-3.72348e-09
0.0012318
-9.84657e-05
5.25085e-10
0.00133023
-9.84324e-05
4.68438e-09
0.00142857
-9.83473e-05
8.78597e-09
0.00152677
-9.82129e-05
1.27655e-08
0.00162478
-9.80316e-05
1.65887e-08
0.00172257
-9.78059e-05
2.02264e-08
0.00182008
-9.75384e-05
2.36527e-08
0.00191729
-9.72316e-05
2.68446e-08
0.00201415
-9.6888e-05
2.97817e-08
0.00211063
-9.65103e-05
3.24468e-08
0.00220669
-9.6101e-05
3.48254e-08
0.00230232
-9.56629e-05
3.6906e-08
0.00239748
-9.51985e-05
3.868e-08
0.00249215
-9.47105e-05
4.01417e-08
0.00258631
-9.42016e-05
4.12881e-08
0.00267994
-9.36745e-05
4.21187e-08
0.00277303
-9.3132e-05
4.26358e-08
0.00286556
-9.25768e-05
4.28439e-08
0.00295753
-9.20119e-05
4.27495e-08
0.00304893
-9.14402e-05
4.23614e-08
0.00313975
-9.08648e-05
4.16897e-08
0.00323
-9.02889e-05
4.07463e-08
0.00331968
-8.9716e-05
3.95442e-08
0.00340879
-8.91498e-05
3.80977e-08
0.00349735
-8.85942e-05
3.64212e-08
0.00358537
-8.80537e-05
3.45295e-08
0.00367287
-8.75336e-05
3.24374e-08
0.00375988
-8.70388e-05
3.01587e-08
0.00384643
-8.65783e-05
2.77065e-08
0.00393256
-8.6156e-05
2.50941e-08
0.00401833
-8.57916e-05
2.23311e-08
0.00410379
-8.54792e-05
1.94166e-08
0.00418905
-8.5274e-05
1.635e-08
0.00427416
-8.51328e-05
1.3185e-08
0.00435934
-8.51806e-05
9.74829e-09
0.00444469
-8.53638e-05
6.38205e-09
-8.565e-05
1.50735e-09
-0.00195568
7.80521e-05
-0.00198914
7.31221e-05
-0.00201903
6.50267e-05
-0.00204547
5.75281e-05
-0.00206872
5.07433e-05
-0.00208911
4.47272e-05
-0.00210696
3.94048e-05
-0.00212251
3.46027e-05
-0.00213592
3.01944e-05
-0.00214733
2.6071e-05
-0.0021568
2.21457e-05
-0.0021644
1.83486e-05
-0.00217013
1.46239e-05
-0.00217401
1.09372e-05
-0.00217606
7.30477e-06
-0.00217633
3.77627e-06
-0.00217448
-3.96926e-08
-0.00217159
-2.90359e-06
-0.00216701
-6.00077e-06
-0.00216078
-9.17094e-06
-0.00215295
-1.23248e-05
-0.0021435
-1.55215e-05
-0.00213242
-1.87576e-05
-0.00211969
-2.20366e-05
-0.00210529
-2.53632e-05
-0.00208919
-2.87413e-05
-0.00207138
-3.21737e-05
-0.00205181
-3.56628e-05
-0.00203048
-3.92101e-05
-0.00200734
-4.2817e-05
-0.00198238
-4.64839e-05
-0.00195556
-5.02106e-05
-0.00192687
-5.39961e-05
-0.00189626
-5.78386e-05
-0.00186373
-6.17356e-05
-0.00182925
-6.5684e-05
-0.0017928
-6.96801e-05
-0.00175435
-7.37193e-05
-0.0017139
-7.77965e-05
-0.00167144
-8.19061e-05
-0.00162694
-8.6042e-05
-0.00158041
-9.01974e-05
-0.00153184
-9.43654e-05
-0.00148123
-9.85386e-05
-0.00142859
-0.00010271
-0.00137392
-0.000106871
-0.00131724
-0.000111015
-0.00125857
-0.000115135
-0.00119792
-0.000119224
-0.00113531
-0.000123274
-0.00107077
-0.000127281
-0.00100428
-0.000131296
-0.000935953
-0.000135119
-0.000865832
-0.000138858
-0.000793955
-0.000142523
-0.000720368
-0.000146101
-0.000645121
-0.000149581
-0.000568267
-0.000152957
-0.000489863
-0.000156222
-0.000409968
-0.000159369
-0.000328645
-0.000162394
-0.000245958
-0.00016529
-0.000161971
-0.000168056
-7.67453e-05
-0.000170691
9.64905e-06
-0.000173188
9.70524e-05
-0.000175491
0.000185484
-0.000177692
0.000274869
-0.000179749
0.000365126
-0.000181657
0.000456182
-0.000183418
0.000547963
-0.000185034
0.000640399
-0.000186503
0.000733417
-0.000187827
0.000826948
-0.000189009
0.000920921
-0.000190051
0.00101527
-0.000190954
0.00110993
-0.000191722
0.00120484
-0.000192358
0.00129992
-0.000192866
0.00139514
-0.000193248
0.00149042
-0.00019351
0.0015857
-0.000193655
0.00168095
-0.000193688
0.00177609
-0.000193612
0.00187109
-0.000193434
0.0019659
-0.000193158
0.00206048
-0.000192788
0.00215478
-0.000192329
0.00224876
-0.000191787
0.00234239
-0.000191167
0.00243563
-0.000190473
0.00252845
-0.000189712
0.00262083
-0.000188887
0.00271273
-0.000188005
0.00280414
-0.00018707
0.00289503
-0.000186088
0.00298538
-0.000185064
0.00307518
-0.000184003
0.00316442
-0.00018291
0.00325308
-0.000181792
0.00334115
-0.000180653
0.00342864
-0.0001795
0.00351554
-0.000178337
0.00360184
-0.000177171
0.00368756
-0.000176009
0.0037727
-0.000174856
0.00385728
-0.00017372
0.00394129
-0.00017261
0.00402477
-0.000171532
0.00410773
-0.000170499
0.00419021
-0.000169518
0.00427224
-0.000168607
0.00435386
-0.000167772
0.00443512
-0.000167051
0.00451607
-0.000166431
0.0045968
-0.000166007
0.00467739
-0.000165718
0.00475794
-0.000165729
0.0048386
-0.000166031
-0.000166639
-0.00115025
0.000103797
-0.00117125
9.41214e-05
-0.00119224
8.60149e-05
-0.00121136
7.66517e-05
-0.00122825
6.76352e-05
-0.00124294
5.94135e-05
-0.00125554
5.20022e-05
-0.00126613
4.51925e-05
-0.00127479
3.8854e-05
-0.00128157
3.28494e-05
-0.00128649
2.7074e-05
-0.00128958
2.14373e-05
-0.00129081
1.58525e-05
-0.00129013
1.02582e-05
-0.00128747
4.64149e-06
-0.00128273
-9.63613e-07
-0.00127711
-5.65681e-06
-0.00126951
-1.051e-05
-0.00126011
-1.5397e-05
-0.00124896
-2.03182e-05
-0.00123613
-2.51605e-05
-0.00122159
-3.00583e-05
-0.00120535
-3.49975e-05
-0.0011874
-3.9987e-05
-0.00116773
-4.50357e-05
-0.00114632
-5.01496e-05
-0.00112316
-5.53326e-05
-0.00109824
-6.05872e-05
-0.00107153
-6.59152e-05
-0.00104303
-7.13182e-05
-0.00101272
-7.67969e-05
-0.000980576
-8.23505e-05
-0.000946595
-8.79772e-05
-0.000910759
-9.3674e-05
-0.000873058
-9.94371e-05
-0.00083348
-0.000105262
-0.000792019
-0.000111142
-0.000748667
-0.000117071
-0.000703421
-0.000123042
-0.000656282
-0.000129046
-0.00060725
-0.000135074
-0.000556331
-0.000141116
-0.000503534
-0.000147163
-0.00044887
-0.000153203
-0.000392353
-0.000159226
-0.000334003
-0.000165221
-0.000273842
-0.000171177
-0.000211894
-0.000177083
-0.00014819
-0.000182928
-8.27512e-05
-0.000188713
-1.56025e-05
-0.00019443
5.30112e-05
-0.00019991
0.000123218
-0.000205326
0.000194991
-0.000210631
0.000268269
-0.000215801
0.000342995
-0.000220827
0.000419111
-0.000225697
0.000496555
-0.000230402
0.000575266
-0.000234933
0.000655178
-0.000239282
0.000736226
-0.000243442
0.000818343
-0.000247407
0.00090146
-0.000251173
0.000985504
-0.000254735
0.0010704
-0.000258087
0.00115612
-0.000261213
0.00124256
-0.000264132
0.00132966
-0.00026684
0.00141733
-0.000269332
0.00150552
-0.000271609
0.00159416
-0.000273673
0.00168318
-0.000275524
0.00177252
-0.000277165
0.00186211
-0.000278599
0.00195189
-0.000279831
0.0020418
-0.000280864
0.00213178
-0.000281703
0.00222177
-0.000282353
0.00231173
-0.00028282
0.00240159
-0.000283109
0.00249131
-0.000283228
0.00258083
-0.000283182
0.00267012
-0.000282979
0.00275914
-0.000282624
0.00284783
-0.000282127
0.00293616
-0.000281493
0.00302411
-0.00028073
0.00311162
-0.000279846
0.00319868
-0.000278848
0.00328526
-0.000277744
0.00337133
-0.000276542
0.00345687
-0.000275248
0.00354185
-0.000273872
0.00362627
-0.00027242
0.0037101
-0.0002709
0.00379333
-0.000269319
0.00387595
-0.000267687
0.00395796
-0.000266009
0.00403934
-0.000264295
0.0041201
-0.000262551
0.00420023
-0.000260787
0.00427974
-0.000259009
0.00435863
-0.000257227
0.00443691
-0.000255449
0.00451459
-0.000253684
0.00459167
-0.000251942
0.00466819
-0.000250233
0.00474415
-0.000248568
0.00481957
-0.000246959
0.00489449
-0.00024542
0.00496894
-0.000243964
0.00504295
-0.000242615
0.00511656
-0.000241379
0.00518981
-0.000240307
0.00526277
-0.000239387
0.00533548
-0.000238716
0.00540802
-0.000238265
0.00548044
-0.00023814
0.00555284
-0.00023844
-0.000239305
5.2645e-05
0.00011087
3.63812e-05
0.000110385
2.23642e-05
0.000100032
9.16411e-06
8.98518e-05
-3.46623e-06
8.02656e-05
-1.50112e-05
7.09585e-05
-2.5005e-05
6.19959e-05
-3.3321e-05
5.35086e-05
-3.9844e-05
4.53769e-05
-4.44715e-05
3.74769e-05
-4.71486e-05
2.97512e-05
-4.7844e-05
2.21326e-05
-4.64912e-05
1.44998e-05
-4.29202e-05
6.68719e-06
-3.69653e-05
-1.3134e-06
-2.99714e-05
-7.95753e-06
-2.08265e-05
-1.48017e-05
-9.73128e-06
-2.16052e-05
3.26461e-06
-2.83929e-05
1.80104e-05
-3.5064e-05
3.46313e-05
-4.17814e-05
5.30992e-05
-4.85262e-05
7.34061e-05
-5.53043e-05
9.5548e-05