/*--------------------------------*- C++ -*----------------------------------*\
  =========                 |
  \\      /  F ield         | OpenFOAM: The Open Source CFD Toolbox
   \\    /   O peration     | Website:  https://openfoam.org
    \\  /    A nd           | Version:  7
     \\/     M anipulation  |
\*---------------------------------------------------------------------------*/
FoamFile
{
    version     2.0;
    format      ascii;
    class       volVectorField;
    location    "35";
    object      U;
}
// * * * * * * * * * * * * * * * * * * * * * * * * * * * * * * * * * * * * * //

dimensions      [0 1 -1 0 0 0 0];

internalField   nonuniform List<vector> 
14000
(
(-0.00754265 0.00523252 -5.24024e-22)
(-0.0297592 0.00915394 1.04185e-21)
(-0.0615049 0.0100885 6.70637e-20)
(-0.0909186 0.00982858 1.16908e-20)
(-0.117355 0.00910018 2.27393e-20)
(-0.14064 0.00822002 -1.31527e-20)
(-0.160508 0.00718939 -2.43761e-20)
(-0.176065 0.00566103 2.36601e-20)
(-0.190048 0.00526842 2.31727e-20)
(-0.195485 0.00219024 1.81084e-20)
(-0.00862732 0.0152646 -8.50902e-20)
(-0.0306929 0.0268272 5.62775e-20)
(-0.0607886 0.029638 -7.65836e-20)
(-0.0879427 0.0289009 4.08718e-21)
(-0.111575 0.0267596 -5.45863e-20)
(-0.131542 0.0241673 6.69982e-21)
(-0.147902 0.0212906 3.50172e-20)
(-0.157883 0.0163871 -1.53997e-19)
(-0.168883 0.0160321 3.7982e-20)
(-0.165881 0.00558789 1.55969e-22)
(-0.0106747 0.0240675 1.58309e-19)
(-0.0325103 0.0426562 -1.40535e-20)
(-0.0594567 0.0473261 1.06385e-19)
(-0.0821984 0.0462085 -9.96157e-21)
(-0.10028 0.0427669 -1.16332e-19)
(-0.113384 0.0385405 8.58799e-20)
(-0.123073 0.034427 -3.69168e-20)
(-0.120397 0.0255093 3.7045e-20)
(-0.12628 0.0273182 -1.12439e-19)
(-0.104581 0.00712624 1.59728e-19)
(-0.0134769 0.0310431 1.85529e-20)
(-0.0351157 0.0556082 -2.51629e-19)
(-0.0576705 0.0619942 -1.49669e-19)
(-0.0740198 0.0605619 7.87243e-20)
(-0.0839645 0.0559573 9.35359e-20)
(-0.0861848 0.0501795 -1.5561e-19)
(-0.0864964 0.0451802 6.66236e-20)
(-0.0619857 0.0326736 4.43283e-20)
(-0.0607633 0.0373944 1.77804e-19)
(-0.00502041 0.0109878 -2.30344e-19)
(-0.0168008 0.0358784 -7.96035e-20)
(-0.0383633 0.0649288 1.23848e-19)
(-0.0555475 0.0726366 3.62361e-19)
(-0.0636298 0.0708182 -1.80716e-19)
(-0.0629363 0.0650855 1.67706e-19)
(-0.049889 0.0581838 2.82643e-19)
(-0.0370427 0.0503321 -7.99315e-21)
(0.0183791 0.0389316 7.95773e-21)
(0.0291077 0.0426977 -2.62065e-19)
(0.141975 0.0215197 1.24269e-19)
(-0.0204502 0.0385709 -1.88361e-19)
(-0.0420217 0.0702102 1.1152e-19)
(-0.0529609 0.0785074 -5.05446e-19)
(-0.0507642 0.0760359 2.46086e-19)
(-0.0362243 0.0689688 3.45195e-20)
(-0.00372424 0.0619035 -3.18887e-19)
(0.0300923 0.0487615 -9.35692e-20)
(0.129148 0.0452299 9.35455e-20)
(0.145221 0.0376048 1.77393e-19)
(0.352047 0.0341558 -9.88777e-20)
(-0.0243027 0.0393834 -2.05374e-20)
(-0.0456743 0.0714021 -3.5057e-19)
(-0.0491775 0.0792401 3.46526e-19)
(-0.0340298 0.0756543 -2.49158e-19)
(-0.000537645 0.067277 6.18261e-20)
(0.0581849 0.0611851 2.07142e-19)
(0.123991 0.0425986 -3.79403e-19)
(0.275713 0.0518451 -1.58888e-19)
(0.306902 0.0308363 1.35238e-19)
(0.612128 0.0463009 7.91923e-20)
(-0.0283032 0.0387361 2.0616e-19)
(-0.0485604 0.0687657 6.04837e-19)
(-0.0423811 0.0749531 -5.83846e-19)
(-0.00968416 0.0698534 1.42889e-19)
(0.0508206 0.060808 3.57741e-19)
(0.146125 0.056575 -1.82214e-19)
(0.262603 0.0400752 -5.81626e-20)
(0.455884 0.0565311 -2.15667e-19)
(0.539564 0.039843 2.5638e-19)
(0.873178 0.0674734 -1.80667e-19)
(-0.0323586 0.0370182 -3.77969e-19)
(-0.0494032 0.062825 1.04429e-19)
(-0.0291547 0.066301 2.18358e-19)
(0.0290904 0.0598936 -1.08589e-19)
(0.129114 0.0523445 -3.67292e-19)
(0.273882 0.0514694 4.35288e-19)
(0.453169 0.0509235 2.76314e-19)
(0.663403 0.0643185 2.49671e-19)
(0.818316 0.0695524 -2.03147e-19)
(1.08084 0.0949068 1.53964e-19)
(-0.0361213 0.0344623 -9.33881e-20)
(-0.0461714 0.0542082 -3.05073e-19)
(-0.00422677 0.0545128 -1.81145e-19)
(0.0921966 0.0486097 2.13157e-19)
(0.246953 0.0474338 4.09528e-20)
(0.450274 0.0553268 -2.56541e-19)
(0.675332 0.0739731 2.99331e-19)
(0.88333 0.0867735 -4.2069e-19)
(1.05604 0.11081 -2.37502e-19)
(1.19879 0.115156 8.30512e-20)
(-0.0389266 0.0311654 2.28773e-19)
(-0.0358248 0.0434974 3.21211e-19)
(0.0394847 0.0415372 1.33824e-19)
(0.190624 0.0407808 1.86494e-19)
(0.410131 0.052871 -1.08163e-19)
(0.660711 0.076313 -2.77289e-19)
(0.891089 0.105093 1.10809e-19)
(1.07102 0.12164 1.36372e-19)
(1.1903 0.143631 4.54017e-19)
(1.23433 0.118688 -2.67677e-19)
(-0.0398083 0.0270745 3.39843e-19)
(-0.0143669 0.0312513 -4.17253e-20)
(0.110151 0.0304954 3.07826e-19)
(0.330903 0.0429924 -1.36992e-19)
(0.60646 0.0736942 4.19711e-19)
(0.866447 0.110345 1.66875e-19)
(1.062 0.13954 2.06939e-19)
(1.18463 0.153651 -3.38724e-19)
(1.23679 0.156519 -1.39235e-19)
(1.26118 0.141887 1.34168e-19)
(-0.0374293 0.0220141 2.33817e-20)
(0.0230492 0.0183752 -2.99533e-19)
(0.214943 0.0264763 -2.85338e-19)
(0.506271 0.0606826 -7.22264e-20)
(0.803597 0.107888 -1.14065e-19)
(1.03049 0.147365 1.25393e-19)
(1.16827 0.169487 -5.1873e-19)
(1.23275 0.172732 3.48101e-19)
(1.25592 0.170634 -3.31328e-21)
(1.25965 0.15196 -4.1424e-19)
(-0.0300657 0.0158652 -4.83375e-19)
(0.0818603 0.00701561 -9.82102e-20)
(0.355052 0.0356906 -1.04348e-20)
(0.692808 0.0932561 3.05659e-20)
(0.968584 0.146955 1.61197e-19)
(1.13926 0.179964 -5.0548e-19)
(1.22171 0.190864 4.96955e-19)
(1.25199 0.188498 -1.095e-19)
(1.25478 0.178918 6.49954e-20)
(1.24869 0.16146 1.06767e-19)
(-0.0156043 0.00880115 1.30209e-20)
(0.166718 0.00182605 3.96323e-19)
(0.519122 0.0613165 1.01127e-19)
(0.861764 0.134103 -5.43491e-20)
(1.08797 0.183915 -4.58267e-20)
(1.20221 0.2061 2.94876e-19)
(1.24548 0.208344 -7.40233e-22)
(1.25292 0.200192 2.18522e-19)
(1.24683 0.187313 -6.87366e-20)
(1.24017 0.171543 -3.08541e-21)
(0.00874294 0.00161404 7.88199e-20)
(0.278299 0.00950613 -1.43219e-19)
(0.68495 0.100392 1.13544e-19)
(0.996804 0.176736 1.50398e-19)
(1.16607 0.21667 -9.87399e-20)
(1.23455 0.228097 -1.55169e-20)
(1.25068 0.222813 -2.90076e-19)
(1.2464 0.211135 -1.92277e-19)
(1.23684 0.195479 2.3665e-19)
(1.22658 0.180255 -1.51419e-19)
(0.045842 -0.00350041 1.01733e-19)
(0.409817 0.0347887 1.81335e-19)
(0.832763 0.147112 1.2777e-19)
(1.09563 0.21817 -1.94036e-19)
(1.21248 0.245892 2.30778e-19)
(1.24663 0.247219 -1.23798e-19)
(1.2464 0.236331 -3.13899e-20)
(1.23582 0.221414 -1.15999e-20)
(1.22407 0.203769 -6.72851e-20)
(1.21439 0.189548 2.1143e-20)
(0.0970372 -0.00300206 2.56553e-19)
(0.54778 0.0766844 -1.43229e-19)
(0.953526 0.1972 8.98608e-20)
(1.16245 0.257505 1.05703e-19)
(1.23573 0.272335 -7.61684e-20)
(1.24626 0.264935 1.16502e-19)
(1.23628 0.24929 4.3088e-20)
(1.22273 0.231662 5.80737e-20)
(1.21093 0.212512 3.78131e-20)
(1.20006 0.198006 6.07554e-20)
(0.161093 0.00666935 -9.42991e-20)
(0.677858 0.130463 -1.38989e-19)
(1.04584 0.24834 -1.09581e-19)
(1.20303 0.294457 -1.04761e-19)
(1.2426 0.29682 -4.67312e-20)
(1.23769 0.281843 5.18219e-20)
(1.22261 0.262158 -2.58392e-20)
(1.208 0.241875 1.50905e-22)
(1.19593 0.221175 -2.43779e-20)
(1.18545 0.206032 4.78111e-21)
(0.234104 0.0275387 2.52276e-20)
(0.789969 0.191294 -5.48426e-21)
(1.11137 0.299153 2.47855e-20)
(1.22289 0.329167 1.95023e-20)
(1.23772 0.319857 1.48224e-20)
(1.22356 0.298328 -4.0236e-20)
(1.20614 0.274843 1.90171e-20)
(1.19137 0.251884 -1.88534e-20)
(1.18 0.229645 -6.13244e-21)
(1.16979 0.213138 -1.00475e-20)
(0.31047 0.0595494 1.28957e-21)
(0.879554 0.255502 -8.03309e-22)
(1.15277 0.348617 -5.46568e-21)
(1.22644 0.361811 6.53485e-20)
(1.2242 0.341742 -1.79917e-20)
(1.2051 0.314317 -1.75226e-20)
(1.18714 0.287166 2.37071e-21)
(1.17305 0.261447 -2.16622e-21)
(1.16238 0.23738 -7.61736e-21)
(1.15309 0.219279 -1.6823e-20)
(0.384111 0.101073 -1.08463e-19)
(0.945696 0.320515 2.07817e-20)
(1.17308 0.395894 -1.77731e-19)
(1.21699 0.392337 -6.31703e-20)
(1.20391 0.362431 -1.95923e-20)
(1.18294 0.329568 -2.69925e-21)
(1.16571 0.298766 -1.4088e-20)
(1.15283 0.270223 -8.73049e-21)
(1.14341 0.244264 6.9874e-21)
(1.13482 0.224334 1.1646e-20)
(0.449482 0.149793 1.87086e-19)
(0.988831 0.384264 -9.66346e-20)
(1.17513 0.440077 1.35458e-19)
(1.19692 0.420483 5.55401e-20)
(1.17801 0.381645 -2.06237e-20)
(1.15739 0.343635 7.08156e-20)
(1.14187 0.309199 -1.73979e-20)
(1.13088 0.277915 2.27528e-20)
(1.12281 0.250244 3.67733e-21)
(1.11488 0.228229 1.27326e-20)
(0.50231 0.203118 -1.14701e-19)
(1.01027 0.444967 4.39024e-19)
(1.16146 0.480323 -8.19567e-20)
(1.16794 0.445804 -4.78214e-20)
(1.14725 0.398858 1.04607e-19)
(1.12876 0.355982 -4.47464e-20)
(1.1158 0.317987 -1.72465e-20)
(1.10719 0.284175 -1.11207e-20)
(1.10057 0.255238 -1.05251e-20)
(1.09403 0.230928 -6.96645e-21)
(0.539909 0.258279 -2.0873e-19)
(1.01173 0.500973 -2.3663e-19)
(1.1341 0.515709 1.47601e-19)
(1.13145 0.467643 4.08047e-20)
(1.11231 0.413395 -5.51782e-20)
(1.09741 0.366058 -1.83229e-20)
(1.08771 0.324756 1.97804e-20)
(1.08167 0.288773 -2.39672e-21)
(1.07671 0.258624 -4.01476e-21)
(1.07256 0.232267 -5.05596e-21)
(0.561148 0.312385 7.3712e-20)
(0.995117 0.550723 3.09431e-19)
(1.09488 0.545205 -6.00707e-20)
(1.08886 0.485178 5.41203e-21)
(1.07388 0.424535 -5.6234e-21)
(1.06351 0.373252 1.67267e-20)
(1.05767 0.329206 2.13746e-20)
(1.05445 0.291375 -1.06151e-21)
(1.05178 0.260126 8.33368e-21)
(1.0505 0.232155 -1.29633e-20)
(0.566233 0.362656 -5.44388e-19)
(0.962213 0.592584 3.60234e-20)
(1.04583 0.567809 -1.18219e-19)
(1.04127 0.497376 2.95425e-20)
(1.03227 0.431634 -6.06859e-21)
(1.02733 0.377058 3.28837e-20)
(1.02595 0.330843 -3.32154e-20)
(1.02607 0.291657 2.13674e-20)
(1.02636 0.259456 -2.14099e-20)
(1.02857 0.230523 -7.10354e-20)
(0.556239 0.406807 2.74491e-19)
(0.914574 0.624474 -2.67756e-19)
(0.989277 0.582657 -2.03309e-20)
(0.98965 0.503442 -2.17048e-20)
(0.988106 0.433918 6.76016e-20)
(0.989398 0.376932 3.63692e-21)
(0.992967 0.329256 5.56269e-20)
(0.997074 0.289219 6.09274e-21)
(1.0013 0.256436 2.96469e-21)
(1.00762 0.227464 1.01836e-19)
(0.532288 0.44314 1.59314e-19)
(0.854695 0.644818 -2.66258e-20)
(0.927231 0.588499 -1.30652e-21)
(0.93508 0.502921 6.16736e-20)
(0.94211 0.43085 -2.06465e-20)
(0.950207 0.372384 -9.04939e-20)
(0.959217 0.323913 -5.88065e-20)
(0.968072 0.283471 6.74952e-21)
(0.977304 0.250542 8.27358e-20)
(0.988021 0.223332 -6.61944e-20)
(0.495568 0.46909 9.21737e-21)
(0.786613 0.653271 -1.92021e-20)
(0.861562 0.584422 -8.85725e-20)
(0.878709 0.495255 8.03947e-21)
(0.895078 0.421997 1.33205e-19)
(0.910399 0.363065 -4.28223e-20)
(0.925249 0.314481 1.5943e-19)
(0.939471 0.273843 -2.1937e-19)
(0.954279 0.240508 -1.50012e-19)
(0.968608 0.216944 -3.05466e-20)
(0.448431 0.481418 6.38935e-21)
(0.712868 0.648299 4.63142e-20)
(0.793807 0.570321 2.5757e-20)
(0.821731 0.48 -4.82599e-20)
(0.847892 0.407078 -2.05517e-19)
(0.8707 0.348794 1.97024e-19)
(0.891711 0.300976 7.53527e-20)
(0.9115 0.260742 9.7826e-20)
(0.931554 0.225882 2.75392e-19)
(0.946741 0.199666 -6.63336e-20)
(0.395034 0.479762 1.18608e-19)
(0.636459 0.629472 -2.05353e-20)
(0.725853 0.545999 -5.64518e-20)
(0.765406 0.456902 1.03846e-19)
(0.801518 0.385901 1.87386e-19)
(0.831953 0.329425 -4.40632e-19)
(0.859315 0.283386 -6.93302e-20)
(0.884382 0.245152 -1.77604e-19)
(0.907538 0.212861 3.62551e-20)
(0.922254 0.187987 -1.28504e-19)
(0.338537 0.463743 -2.43697e-19)
(0.560046 0.596449 -1.15242e-19)
(0.659491 0.511522 3.7674e-19)
(0.711025 0.425963 -2.16557e-19)
(0.756955 0.358474 -3.09968e-19)
(0.794953 0.304912 2.90066e-19)
(0.828621 0.261222 -2.67782e-19)
(0.858812 0.2247 1.31892e-19)
(0.885309 0.19376 -1.62461e-19)
(0.902169 0.170166 2.56551e-19)
(0.282073 0.433787 -1.03967e-19)
(0.486427 0.549609 5.62132e-19)
(0.596531 0.467159 -5.88022e-19)
(0.659878 0.3874 2.40982e-20)
(0.715214 0.325044 1.91915e-19)
(0.760403 0.275758 -1.28613e-20)
(0.799793 0.235806 4.09319e-19)
(0.834144 0.202631 -3.55847e-19)
(0.863383 0.174511 2.57812e-19)
(0.883356 0.152431 -1.73667e-19)
(0.228463 0.390916 -1.70693e-19)
(0.418114 0.489684 9.36296e-20)
(0.538698 0.413423 2.55717e-19)
(0.613233 0.341613 2.9332e-19)
(0.677336 0.285826 -6.74059e-20)
(0.729257 0.241781 2.76123e-19)
(0.773973 0.206089 2.40364e-20)
(0.812152 0.176503 2.91989e-20)
(0.844083 0.151617 -1.05339e-19)
(0.867115 0.132183 -5.90127e-21)
(0.180112 0.336701 5.15996e-19)
(0.357364 0.417874 -3.57907e-19)
(0.487652 0.351101 -4.77418e-19)
(0.572251 0.289312 2.70413e-20)
(0.644124 0.241564 -1.3982e-19)
(0.701927 0.203978 1.16259e-19)
(0.751182 0.173604 -4.23189e-19)
(0.79262 0.148426 1.24074e-19)
(0.827145 0.127153 3.51489e-19)
(0.853285 0.110366 -1.69811e-19)
(0.1389 0.272818 7.1264e-20)
(0.306203 0.335937 4.46576e-19)
(0.444979 0.281265 3.21628e-19)
(0.538079 0.231285 -3.00443e-19)
(0.616531 0.192755 1.86251e-19)
(0.679291 0.162464 -8.43757e-20)
(0.732307 0.138033 -5.46083e-20)
(0.776422 0.117835 -2.59817e-20)
(0.813184 0.10077 -1.09051e-19)
(0.842108 0.0871767 2.00309e-19)
(0.106382 0.200907 -3.47647e-19)
(0.266291 0.24591 -4.04456e-19)
(0.411885 0.205371 -6.35152e-21)
(0.511597 0.168649 2.86935e-19)
(0.595169 0.140381 -5.28285e-20)
(0.661769 0.118182 -5.63421e-20)
(0.717672 0.100294 8.17141e-20)
(0.763847 0.0855057 -4.42165e-20)
(0.802418 0.0729798 -3.47878e-20)
(0.833656 0.0629211 3.6254e-20)
(0.0839057 0.123007 5.05703e-20)
(0.238939 0.149962 -6.64481e-20)
(0.389305 0.125029 2.86411e-19)
(0.493539 0.102584 -7.01353e-20)
(0.580617 0.0853156 1.31609e-19)
(0.649839 0.0717658 -3.5347e-20)
(0.707697 0.0608577 -5.48166e-20)
(0.755268 0.0518442 8.73314e-20)
(0.7951 0.0441903 1.22517e-20)
(0.828008 0.0379982 -3.1038e-20)
(0.0724234 0.0414173 -1.37288e-21)
(0.225036 0.0503937 1.78568e-21)
(0.377858 0.0419799 1.33228e-19)
(0.484388 0.0344294 -6.63802e-20)
(0.573244 0.0286218 3.037e-20)
(0.643794 0.024066 -1.60499e-20)
(0.702639 0.0203997 1.90486e-20)
(0.750913 0.0173707 -2.48276e-20)
(0.791393 0.0147946 -1.5062e-20)
(0.825178 0.0127016 6.04158e-24)
(0.0724234 -0.0414174 1.37288e-21)
(0.225036 -0.0503938 -1.78568e-21)
(0.377858 -0.04198 -1.33228e-19)
(0.484388 -0.0344294 -2.37226e-20)
(0.573244 -0.0286218 -4.00485e-20)
(0.643794 -0.024066 2.13749e-20)
(0.702639 -0.0203997 3.36876e-20)
(0.750913 -0.0173708 -3.08824e-20)
(0.791393 -0.0147946 -2.69237e-20)
(0.825178 -0.0127016 -1.83302e-20)
(0.0839057 -0.123007 1.6196e-19)
(0.238939 -0.149962 -1.14978e-19)
(0.389305 -0.125029 1.63581e-19)
(0.493539 -0.102584 -2.08282e-21)
(0.580617 -0.0853157 9.48058e-20)
(0.649839 -0.0717658 -7.65881e-21)
(0.707697 -0.0608577 -4.7513e-20)
(0.755268 -0.0518442 1.91253e-19)
(0.7951 -0.0441904 -4.47698e-20)
(0.828008 -0.0379982 -1.24096e-21)
(0.106382 -0.200907 -3.47007e-19)
(0.266291 -0.24591 4.06586e-20)
(0.411885 -0.205371 -2.20163e-19)
(0.511597 -0.168649 2.03823e-20)
(0.595169 -0.140381 1.88372e-19)
(0.661769 -0.118182 -1.26893e-19)
(0.717672 -0.100294 5.02198e-20)
(0.763847 -0.0855057 -4.66783e-20)
(0.802418 -0.0729798 1.23054e-19)
(0.833656 -0.0629211 -1.62903e-19)
(0.1389 -0.272818 -4.57203e-21)
(0.306203 -0.335937 4.9567e-19)
(0.444979 -0.281265 2.69497e-19)
(0.538079 -0.231285 -1.3082e-19)
(0.616531 -0.192755 -1.53867e-19)
(0.679291 -0.162464 2.29627e-19)
(0.732307 -0.138033 -8.76967e-20)
(0.776422 -0.117835 -5.46524e-20)
(0.813184 -0.10077 -1.80586e-19)
(0.842108 -0.0871767 2.29577e-19)
(0.180112 -0.336701 1.51734e-19)
(0.357364 -0.417874 -2.19103e-19)
(0.487652 -0.351101 -6.03437e-19)
(0.572251 -0.289312 2.86458e-19)
(0.644124 -0.241564 -2.5487e-19)
(0.701927 -0.203979 -3.57511e-19)
(0.751182 -0.173604 2.83718e-20)
(0.79262 -0.148426 -1.172e-20)
(0.827145 -0.127153 2.57139e-19)
(0.853285 -0.110366 -1.19214e-19)
(0.228463 -0.390916 2.53823e-19)
(0.418114 -0.489684 -1.45079e-19)
(0.538698 -0.413423 7.41394e-19)
(0.613233 -0.341613 -3.46131e-19)
(0.677336 -0.285826 -3.32195e-20)
(0.729257 -0.241781 3.91673e-19)
(0.773973 -0.206089 1.20869e-19)
(0.812152 -0.176503 -9.96104e-20)
(0.844083 -0.151617 -1.65486e-19)
(0.867115 -0.132183 8.84717e-20)
(0.282073 -0.433787 -6.0416e-21)
(0.486427 -0.549609 3.83609e-19)
(0.596531 -0.467159 -4.22605e-19)
(0.659878 -0.3874 2.89393e-19)
(0.715214 -0.325044 -7.12626e-20)
(0.760403 -0.275758 -2.33646e-19)
(0.799793 -0.235806 3.81934e-19)
(0.834144 -0.202631 1.46347e-19)
(0.863383 -0.174511 -1.27092e-19)
(0.883356 -0.152431 -6.30905e-20)
(0.338537 -0.463743 -1.23422e-19)
(0.560046 -0.596449 -6.01057e-19)
(0.659491 -0.511522 5.83973e-19)
(0.711025 -0.425963 -1.55974e-19)
(0.756955 -0.358474 -3.37758e-19)
(0.794953 -0.304912 1.61759e-19)
(0.828621 -0.261222 3.1439e-20)
(0.858812 -0.2247 1.75959e-19)
(0.885309 -0.19376 -2.02966e-19)
(0.902169 -0.170166 1.344e-19)
(0.395034 -0.479762 2.12169e-19)
(0.636459 -0.629472 -4.27169e-20)
(0.725853 -0.545999 -2.06295e-19)
(0.765406 -0.456902 8.24196e-20)
(0.801518 -0.385901 3.20452e-19)
(0.831953 -0.329425 -3.52727e-19)
(0.859315 -0.283386 -2.27442e-19)
(0.884382 -0.245152 -1.82748e-19)
(0.907538 -0.212861 1.47284e-19)
(0.922254 -0.187987 -1.09916e-19)
(0.448431 -0.481418 -5.8915e-20)
(0.712868 -0.648299 7.39465e-20)
(0.793808 -0.570321 4.46086e-20)
(0.821731 -0.48 -1.32183e-19)
(0.847892 -0.407078 -2.13027e-20)
(0.8707 -0.348794 1.9507e-19)
(0.891711 -0.300976 -1.98675e-19)
(0.9115 -0.260742 2.80704e-19)
(0.931554 -0.225882 1.3661e-19)
(0.946741 -0.199666 -4.6593e-20)
(0.495569 -0.46909 9.93149e-21)
(0.786613 -0.653271 -8.86804e-21)
(0.861562 -0.584422 -8.13887e-20)
(0.878709 -0.495255 -4.94981e-20)
(0.895078 -0.421997 5.2884e-20)
(0.910399 -0.363065 1.37686e-19)
(0.925249 -0.314481 -5.95864e-20)
(0.939471 -0.273843 -7.13779e-20)
(0.95428 -0.240508 -2.65177e-19)
(0.968608 -0.216944 1.48281e-19)
(0.532288 -0.44314 2.06116e-19)
(0.854696 -0.644818 1.55652e-20)
(0.927231 -0.588499 -9.83814e-21)
(0.93508 -0.502921 4.01001e-20)
(0.94211 -0.43085 -1.18876e-19)
(0.950207 -0.372384 -6.42285e-20)
(0.959217 -0.323913 -8.21992e-20)
(0.968072 -0.283471 1.52577e-19)
(0.977304 -0.250542 6.11822e-20)
(0.988021 -0.223332 -5.75499e-20)
(0.556239 -0.406807 9.96836e-20)
(0.914574 -0.624474 -1.61245e-19)
(0.989277 -0.582657 -3.7915e-20)
(0.98965 -0.503442 1.72599e-21)
(0.988106 -0.433918 2.8636e-20)
(0.989398 -0.376932 -1.28346e-22)
(0.992967 -0.329256 1.38733e-19)
(0.997074 -0.289219 -1.18106e-19)
(1.0013 -0.256436 -1.0955e-20)
(1.00762 -0.227464 1.61342e-19)
(0.566233 -0.362656 -3.98761e-19)
(0.962214 -0.592584 -1.13284e-19)
(1.04583 -0.567809 -1.08632e-20)
(1.04127 -0.497376 9.01537e-22)
(1.03227 -0.431634 1.67061e-20)
(1.02733 -0.377058 4.32322e-20)
(1.02595 -0.330843 -7.74357e-20)
(1.02607 -0.291657 1.83848e-20)
(1.02636 -0.259456 -2.69327e-20)
(1.02857 -0.230523 -4.39066e-20)
(0.561148 -0.312385 9.81555e-21)
(0.995117 -0.550723 3.16005e-19)
(1.09488 -0.545205 3.69932e-20)
(1.08886 -0.485178 -2.02519e-20)
(1.07388 -0.424535 -3.37044e-21)
(1.06351 -0.373252 2.45502e-20)
(1.05767 -0.329206 1.98898e-20)
(1.05445 -0.291375 -9.04535e-21)
(1.05178 -0.260126 -2.63884e-21)
(1.0505 -0.232155 -2.01688e-21)
(0.539909 -0.258279 7.7891e-20)
(1.01173 -0.500973 -1.45018e-19)
(1.1341 -0.515709 5.53129e-20)
(1.13145 -0.467643 7.23968e-20)
(1.11231 -0.413395 -5.17337e-20)
(1.09741 -0.366057 -3.59511e-21)
(1.08771 -0.324756 -3.54201e-20)
(1.08167 -0.288773 -2.73254e-21)
(1.07671 -0.258624 2.04901e-21)
(1.07256 -0.232267 3.51604e-21)
(0.50231 -0.203118 1.06524e-19)
(1.01027 -0.444967 1.83602e-19)
(1.16146 -0.480323 1.06273e-19)
(1.16794 -0.445804 -1.18885e-19)
(1.14725 -0.398858 1.13653e-19)
(1.12876 -0.355982 -5.19023e-20)
(1.1158 -0.317987 -8.76573e-21)
(1.10719 -0.284175 -6.69869e-21)
(1.10057 -0.255238 -5.1747e-21)
(1.09403 -0.230928 -9.97981e-21)
(0.449483 -0.149793 2.7239e-19)
(0.988831 -0.384264 -1.444e-19)
(1.17513 -0.440077 8.31965e-20)
(1.19692 -0.420483 7.87079e-20)
(1.17801 -0.381645 -3.7265e-20)
(1.15739 -0.343635 5.83494e-20)
(1.14187 -0.309199 1.91087e-20)
(1.13088 -0.277915 2.20071e-20)
(1.12281 -0.250244 1.3608e-20)
(1.11488 -0.228229 1.18975e-20)
(0.384112 -0.101073 -9.94687e-20)
(0.945696 -0.320515 -1.39477e-19)
(1.17308 -0.395894 -9.3754e-20)
(1.21699 -0.392337 -8.70326e-20)
(1.20391 -0.362431 -3.17165e-20)
(1.18294 -0.329568 4.11043e-20)
(1.16571 -0.298766 -1.72795e-20)
(1.15283 -0.270223 3.35113e-21)
(1.14341 -0.244264 -1.09354e-20)
(1.13482 -0.224334 5.6937e-21)
(0.31047 -0.0595494 2.57712e-20)
(0.879555 -0.255502 -5.62441e-21)
(1.15277 -0.348617 2.36047e-20)
(1.22644 -0.361811 1.58193e-20)
(1.2242 -0.341742 1.38671e-20)
(1.2051 -0.314317 -3.30925e-20)
(1.18714 -0.287166 1.52507e-20)
(1.17305 -0.261447 -1.45921e-20)
(1.16238 -0.23738 -3.87116e-21)
(1.15309 -0.219279 -5.44639e-21)
(0.234105 -0.0275387 1.06609e-21)
(0.789969 -0.191294 -8.5196e-22)
(1.11137 -0.299153 -5.63969e-21)
(1.22289 -0.329167 7.16298e-20)
(1.23772 -0.319857 -1.97147e-20)
(1.22356 -0.298328 -2.30253e-20)
(1.20614 -0.274843 4.18787e-21)
(1.19137 -0.251884 -4.36134e-21)
(1.18 -0.229645 -1.05906e-20)
(1.16979 -0.213138 -2.41115e-20)
(0.161093 -0.00666935 -1.03436e-19)
(0.677858 -0.130463 2.25607e-20)
(1.04584 -0.24834 -1.94343e-19)
(1.20303 -0.294457 -7.42987e-20)
(1.2426 -0.29682 -2.75363e-20)
(1.23769 -0.281843 -8.06648e-21)
(1.22261 -0.262158 -2.18722e-20)
(1.208 -0.241875 -2.10121e-20)
(1.19593 -0.221175 6.68637e-21)
(1.18545 -0.206032 1.67991e-20)
(0.0970373 0.00300206 1.75091e-19)
(0.547781 -0.0766844 -9.9072e-20)
(0.953526 -0.1972 1.52532e-19)
(1.16245 -0.257505 7.88385e-20)
(1.23573 -0.272335 -4.63841e-20)
(1.24626 -0.264935 1.46174e-19)
(1.23628 -0.24929 -3.0612e-20)
(1.22273 -0.231662 5.7295e-20)
(1.21093 -0.212512 3.89224e-21)
(1.20006 -0.198006 5.80264e-20)
(0.0458421 0.00350042 -1.08186e-19)
(0.409817 -0.0347887 4.52203e-19)
(0.832764 -0.147112 -9.96521e-20)
(1.09563 -0.21817 -8.52239e-20)
(1.21248 -0.245892 2.19453e-19)
(1.24663 -0.247219 -9.83622e-20)
(1.2464 -0.236331 -5.13832e-20)
(1.23582 -0.221414 -2.82173e-20)
(1.22407 -0.203769 -1.07507e-19)
(1.21439 -0.189548 3.80182e-20)
(0.00874298 -0.00161403 -1.96591e-19)
(0.278299 -0.00950612 -2.69256e-19)
(0.68495 -0.100392 2.13307e-19)
(0.996804 -0.176736 6.00004e-20)
(1.16607 -0.21667 -1.56977e-19)
(1.23455 -0.228097 -1.60236e-19)
(1.25068 -0.222813 8.5186e-21)
(1.2464 -0.211135 -1.04927e-19)
(1.23684 -0.195479 1.62764e-19)
(1.22658 -0.180255 -2.35589e-20)
(-0.0156042 -0.00880114 8.81442e-20)
(0.166718 -0.00182603 4.21896e-19)
(0.519123 -0.0613164 -5.27133e-20)
(0.861765 -0.134103 1.50007e-20)
(1.08797 -0.183915 -3.5462e-20)
(1.20221 -0.2061 2.08645e-19)
(1.24548 -0.208344 7.16482e-20)
(1.25292 -0.200192 1.22185e-19)
(1.24683 -0.187313 -1.13245e-19)
(1.24017 -0.171543 6.78202e-20)
(-0.0300657 -0.0158652 -6.5195e-19)
(0.0818604 -0.0070156 1.66953e-19)
(0.355052 -0.0356906 -2.12324e-19)
(0.692808 -0.0932561 2.57415e-19)
(0.968584 -0.146955 -6.35906e-20)
(1.13926 -0.179963 -3.65278e-19)
(1.22171 -0.190864 1.96399e-19)
(1.25199 -0.188498 -7.44503e-20)
(1.25478 -0.178917 6.69942e-20)
(1.24869 -0.161459 2.03049e-19)
(-0.0374293 -0.0220141 3.05104e-19)
(0.0230492 -0.0183752 -4.60372e-19)
(0.214944 -0.0264763 -5.70152e-20)
(0.506271 -0.0606826 -2.85734e-19)
(0.803597 -0.107888 -3.54243e-19)
(1.03049 -0.147365 1.74927e-19)
(1.16827 -0.169487 -2.18414e-19)
(1.23275 -0.172732 -2.65747e-20)
(1.25592 -0.170634 -2.16574e-20)
(1.25965 -0.15196 -2.59357e-19)
(-0.0398083 -0.0270745 2.84445e-19)
(-0.0143669 -0.0312513 -1.09166e-19)
(0.110152 -0.0304954 1.04287e-19)
(0.330903 -0.0429925 -1.55231e-19)
(0.60646 -0.0736942 1.5258e-19)
(0.866447 -0.110344 2.83536e-19)
(1.062 -0.13954 1.68498e-19)
(1.18463 -0.153651 -8.08434e-21)
(1.23679 -0.156519 -1.89109e-19)
(1.26118 -0.141887 1.53251e-19)
(-0.0389266 -0.0311654 3.32108e-19)
(-0.0358248 -0.0434975 1.06586e-19)
(0.0394848 -0.0415373 1.79022e-19)
(0.190624 -0.0407809 5.2526e-20)
(0.410131 -0.052871 -2.56484e-19)
(0.660711 -0.0763129 7.69342e-20)
(0.891089 -0.105093 -2.93196e-19)
(1.07102 -0.12164 4.06578e-19)
(1.1903 -0.143631 2.43973e-19)
(1.23433 -0.118688 6.59107e-20)
(-0.0361213 -0.0344623 -4.69965e-19)
(-0.0461714 -0.0542083 -1.17174e-19)
(-0.00422668 -0.0545129 -1.36552e-19)
(0.0921968 -0.0486098 7.95898e-20)
(0.246954 -0.0474339 3.23878e-19)
(0.450274 -0.0553268 -2.60815e-19)
(0.675332 -0.073973 -1.13436e-19)
(0.883331 -0.0867733 -1.43357e-19)
(1.05604 -0.11081 -4.59116e-19)
(1.19879 -0.115156 1.16854e-19)
(-0.0323586 -0.0370183 -1.92223e-19)
(-0.0494032 -0.0628251 4.20482e-20)
(-0.0291546 -0.0663011 2.11022e-20)
(0.0290906 -0.0598937 -1.28884e-19)
(0.129115 -0.0523445 -2.06416e-19)
(0.273883 -0.0514694 5.45661e-19)
(0.453169 -0.0509234 7.66435e-20)
(0.663403 -0.0643183 2.38983e-19)
(0.818317 -0.0695521 -4.68744e-20)
(1.08084 -0.0949064 1.8028e-19)
(-0.0283032 -0.0387362 3.43023e-19)
(-0.0485604 -0.0687658 7.68806e-20)
(-0.0423811 -0.0749533 -3.63119e-19)
(-0.00968405 -0.0698535 2.02413e-19)
(0.0508207 -0.0608081 3.2957e-19)
(0.146126 -0.0565751 -3.21243e-19)
(0.262604 -0.0400751 2.73911e-19)
(0.455885 -0.0565309 -1.49265e-19)
(0.539565 -0.0398426 2.16643e-19)
(0.873179 -0.0674729 -3.41375e-19)
(-0.0243027 -0.0393835 6.61371e-20)
(-0.0456744 -0.0714023 -4.95115e-19)
(-0.0491775 -0.0792403 4.81442e-19)
(-0.0340297 -0.0756544 -2.75562e-20)
(-0.000537523 -0.0672771 -1.60252e-19)
(0.0581851 -0.0611851 -5.46742e-21)
(0.123992 -0.0425985 -4.21764e-19)
(0.275713 -0.0518449 3.79621e-19)
(0.306902 -0.0308358 -3.0342e-19)
(0.612129 -0.0463004 2.11996e-19)
(-0.0204503 -0.038571 9.92156e-20)
(-0.0420218 -0.0702104 -4.98294e-20)
(-0.0529609 -0.0785076 -1.70531e-19)
(-0.0507642 -0.076036 -2.09357e-19)
(-0.0362243 -0.0689689 4.74478e-20)
(-0.00372417 -0.0619034 -2.32991e-19)
(0.0300925 -0.0487613 -7.74404e-21)
(0.129149 -0.0452297 -3.52512e-20)
(0.145222 -0.0376042 1.04452e-19)
(0.352048 -0.0341551 4.71333e-21)
(-0.0168008 -0.0358785 -2.8465e-19)
(-0.0383634 -0.064929 2.03674e-19)
(-0.0555476 -0.0726368 2.86531e-19)
(-0.0636299 -0.0708183 -1.23807e-20)
(-0.0629363 -0.0650855 9.46121e-20)
(-0.049889 -0.0581837 -8.88559e-20)
(-0.0370427 -0.0503318 3.55328e-19)
(0.0183791 -0.0389312 -1.14592e-19)
(0.0291077 -0.0426969 -3.63451e-19)
(0.141975 -0.0215187 1.72462e-19)
(-0.0134769 -0.0310433 -2.01931e-20)
(-0.0351158 -0.0556085 -2.29363e-19)
(-0.0576706 -0.0619944 -1.81334e-19)
(-0.0740199 -0.0605619 1.7669e-19)
(-0.0839645 -0.0559573 -1.30218e-19)
(-0.0861849 -0.0501793 5.93163e-20)
(-0.0864965 -0.0451798 4.44345e-20)
(-0.0619859 -0.032673 2.07772e-20)
(-0.0607636 -0.0373936 1.07707e-19)
(-0.00502051 -0.0109866 -2.04079e-19)
(-0.0106747 -0.0240677 1.57207e-19)
(-0.0325104 -0.0426564 1.98301e-19)
(-0.0594567 -0.0473263 6.17301e-21)
(-0.0821985 -0.0462086 -1.58949e-19)
(-0.10028 -0.0427668 2.59884e-20)
(-0.113384 -0.0385403 4.07413e-20)
(-0.123073 -0.0344266 -6.18351e-20)
(-0.120397 -0.0255087 3.22667e-20)
(-0.12628 -0.0273172 3.31307e-20)
(-0.104582 -0.00712483 -3.40007e-20)
(-0.00862734 -0.0152647 -2.24225e-20)
(-0.030693 -0.0268274 3.09118e-20)
(-0.0607886 -0.0296381 -1.38025e-19)
(-0.0879427 -0.0289009 3.58602e-20)
(-0.111575 -0.0267595 -7.90206e-20)
(-0.131543 -0.024167 2.14074e-20)
(-0.147902 -0.0212901 3.85469e-20)
(-0.157883 -0.0163863 -6.89907e-20)
(-0.168884 -0.016031 -8.00993e-21)
(-0.165881 -0.00558637 3.08509e-20)
(-0.00754265 -0.00523269 -1.54522e-20)
(-0.0297592 -0.00915414 3.29945e-21)
(-0.0615049 -0.0100886 7.35767e-20)
(-0.0909186 -0.00982858 2.91996e-20)
(-0.117355 -0.00910006 -1.71845e-20)
(-0.14064 -0.00821971 9.75311e-21)
(-0.160508 -0.00718886 -1.30614e-20)
(-0.176065 -0.00566022 2.01443e-20)
(-0.190048 -0.00526726 1.33414e-20)
(-0.195485 -0.00218867 5.75499e-24)
(-0.199346 0.00325315 -5.31111e-20)
(-0.203209 0.00299562 3.80189e-20)
(-0.206557 0.00266328 5.24322e-22)
(-0.209522 0.0023697 -6.58096e-21)
(-0.212174 0.00211209 -1.31482e-20)
(-0.214545 0.00188666 -1.5122e-20)
(-0.216669 0.00168855 -2.58752e-20)
(-0.218572 0.00151191 4.60044e-20)
(-0.220276 0.00135164 -2.60921e-20)
(-0.221797 0.00120341 5.35159e-20)
(-0.223145 0.00106375 -3.37023e-20)
(-0.224329 0.000930055 -4.86488e-21)
(-0.225352 0.000800552 -1.19063e-20)
(-0.226219 0.00067417 3.08715e-20)
(-0.226932 0.000550508 -2.03368e-20)
(-0.227494 0.000430448 2.07463e-20)
(-0.227906 0.000317207 -1.44263e-20)
(-0.228167 0.000212979 -1.21531e-20)
(-0.228293 0.000101368 7.82694e-21)
(-0.228293 -1.28115e-05 -5.20347e-21)
(-0.22816 -0.000127718 1.94031e-20)
(-0.227892 -0.000243622 -8.83887e-21)
(-0.227485 -0.000360726 -1.30948e-20)
(-0.226938 -0.000479317 8.11929e-21)
(-0.226248 -0.00059968 -1.1027e-20)
(-0.225412 -0.000722048 1.29758e-20)
(-0.224428 -0.000846603 3.60163e-21)
(-0.223292 -0.000973484 -1.03805e-20)
(-0.222001 -0.00110279 1.86253e-20)
(-0.220552 -0.00123458 1.9013e-20)
(-0.218942 -0.00136888 -1.97875e-20)
(-0.217168 -0.0015057 8.33011e-21)
(-0.215225 -0.001645 1.02333e-20)
(-0.213112 -0.00178672 -1.83823e-20)
(-0.210824 -0.00193077 2.14789e-20)
(-0.208358 -0.00207704 -2.10183e-20)
(-0.205713 -0.00222539 2.50386e-20)
(-0.202884 -0.00237566 -1.14136e-20)
(-0.19987 -0.00252767 -4.42174e-21)
(-0.196667 -0.0026812 7.95109e-22)
(-0.193275 -0.00283604 6.69649e-21)
(-0.18969 -0.00299195 3.89972e-21)
(-0.185912 -0.00314868 9.43375e-23)
(-0.18194 -0.00330597 -1.03203e-20)
(-0.177772 -0.00346356 -1.1713e-21)
(-0.173408 -0.00362119 -3.31109e-21)
(-0.168848 -0.00377861 6.98033e-21)
(-0.164091 -0.00393554 -5.95831e-22)
(-0.159139 -0.00409159 7.49864e-21)
(-0.153992 -0.0042462 -1.43494e-20)
(-0.14865 -0.00439897 7.25661e-21)
(-0.143115 -0.00455001 5.6043e-22)
(-0.137391 -0.00469697 -1.23101e-20)
(-0.131482 -0.00484162 5.917e-21)
(-0.125391 -0.00498382 2.68727e-21)
(-0.119121 -0.00512299 1.54207e-21)
(-0.112676 -0.00525878 -3.6262e-21)
(-0.106059 -0.00539092 2.12167e-22)
(-0.0992758 -0.00551915 1.13261e-20)
(-0.0923296 -0.00564324 -1.65275e-20)
(-0.0852258 -0.00576296 1.13863e-20)
(-0.0779697 -0.00587811 1.55352e-21)
(-0.0705666 -0.0059885 -1.56589e-21)
(-0.0630225 -0.006094 -1.18859e-21)
(-0.0553436 -0.00619541 1.29212e-21)
(-0.0475327 -0.00629538 -2.45414e-21)
(-0.0395973 -0.00638512 -2.30834e-22)
(-0.0315465 -0.0064695 -6.09244e-22)
(-0.0233856 -0.00654918 3.13793e-22)
(-0.0151205 -0.00662384 1.65643e-21)
(-0.00675797 -0.00669329 -3.10824e-21)
(0.00169607 -0.00675743 -8.21916e-22)
(0.0102352 -0.00681644 2.55279e-21)
(0.0188527 -0.00687032 1.77582e-21)
(0.0275422 -0.00691908 -2.11995e-21)