/*--------------------------------*- C++ -*----------------------------------*\
  =========                 |
  \\      /  F ield         | OpenFOAM: The Open Source CFD Toolbox
   \\    /   O peration     | Website:  https://openfoam.org
    \\  /    A nd           | Version:  7
     \\/     M anipulation  |
\*---------------------------------------------------------------------------*/
FoamFile
{
    version     2.0;
    format      ascii;
    class       surfaceScalarField;
    location    "85";
    object      phi;
}
// * * * * * * * * * * * * * * * * * * * * * * * * * * * * * * * * * * * * * //

dimensions      [0 3 -1 0 0 0 0];

internalField   nonuniform List<scalar> 
27710
(
-7.46929e-05
7.90934e-05
-4.40047e-06
-0.000225515
0.000160145
-9.32317e-06
-0.000422849
0.000209842
-1.25075e-05
-0.000650895
0.000243066
-1.50201e-05
-0.00090215
0.000268889
-1.7634e-05
-0.00117325
0.000291644
-2.05398e-05
-0.00145919
0.000309368
-2.34304e-05
-0.00174411
0.000310543
-2.56249e-05
-0.00205511
0.0003368
-2.58019e-05
0.000271392
-2.33219e-05
-0.00230318
-6.9127e-05
0.00014822
-0.000209455
0.000300473
-0.000391979
0.000392366
-0.000600069
0.000451156
-0.00082445
0.00049327
-0.00105967
0.000526869
-0.00130311
0.000552799
-0.00151956
0.000527002
-0.00177108
0.000588317
0.000401881
-0.00190157
-5.92119e-05
0.000207432
-0.000180284
0.000421546
-0.000335029
0.00054711
-0.000505087
0.000621214
-0.0006778
0.000665983
-0.000841052
0.00069012
-0.000998859
0.000710606
-0.0010792
0.00060734
-0.00120005
0.000709172
0.00031198
-0.00111015
-4.66723e-05
0.000254105
-0.000142127
0.000517001
-0.000258651
0.000663634
-0.00037499
0.000737554
-0.00047427
0.000765263
-0.000531743
0.000747594
-0.000550665
0.000729527
-0.000438488
0.000495164
-0.000300713
0.000571397
-5.81381e-05
6.94056e-05
-3.36618e-05
0.000287766
-0.000100184
0.000583523
-0.000171295
0.000734745
-0.000221044
0.000787303
-0.000225738
0.000769956
-0.000155368
0.000677223
4.52037e-05
0.000528956
0.000396012
0.000144356
0.000893775
7.36335e-05
-0.000934435
0.00177007
-2.22713e-05
0.000310038
-5.94605e-05
0.000620712
-8.08457e-05
0.00075613
-5.38743e-05
0.000760331
6.10855e-05
0.000654997
0.000296266
0.000442043
0.000744647
8.05752e-05
0.00145205
-0.000563046
0.00241596
-0.000890276
-0.00246892
0.00395045
-1.3957e-05
0.000323995
-2.30131e-05
0.000629768
9.15579e-06
0.000723961
0.000126815
0.000642672
0.000385701
0.00039611
0.00084804
-2.02959e-05
0.00163209
-0.00070347
0.0027473
-0.00167826
0.00428121
-0.00242419
-0.00461335
0.00642564
-9.23417e-06
0.000333229
9.44419e-06
0.00061109
0.000102681
0.000630725
0.000334657
0.000410696
0.000789247
-5.8479e-05
0.00156066
-0.000791708
0.00274156
-0.00188437
0.00432671
-0.00326341
0.00640628
-0.00450377
-0.0069891
0.00878203
-6.30621e-06
0.000339535
4.24706e-05
0.000562313
0.000214604
0.000458592
0.000603181
2.21179e-05
0.00132303
-0.00077833
0.00248298
-0.00195165
0.00406451
-0.0034659
0.00603009
-0.00522899
0.00839271
-0.00686638
-0.00911195
0.0105156
-2.09432e-06
0.000341629
8.70057e-05
0.000473213
0.00036957
0.000176027
0.000977441
-0.000585753
0.00203001
-0.0018309
0.0035642
-0.00348584
0.00543694
-0.00533864
0.00748605
-0.0072781
0.00959825
-0.00897858
-0.010757
0.0112433
5.97271e-06
0.000335657
0.000155411
0.000323775
0.000595637
-0.000264199
0.00148463
-0.00147474
0.00287514
-0.00322142
0.00463506
-0.00524576
0.00653026
-0.00723384
0.00832478
-0.00907262
0.00986124
-0.010515
-0.0118966
0.0110009
2.14364e-05
0.00031422
0.000260211
8.50001e-05
0.000911818
-0.000915806
0.0020994
-0.00266233
0.00370781
-0.00482983
0.00544941
-0.00698736
0.00707982
-0.00886425
0.00841924
-0.010412
0.00954458
-0.0116404
-0.0128667
0.0105147
4.75364e-05
0.000266684
0.000411067
-0.000278531
0.00130984
-0.00181458
0.00272109
-0.00407358
0.00433514
-0.00644387
0.00583874
-0.00849097
0.00708329
-0.0101088
0.00807139
-0.0114001
0.00892621
-0.0124952
-0.0136016
0.00966108
8.65197e-05
0.000180164
0.000610734
-0.000802745
0.00173748
-0.00294132
0.00321246
-0.00554856
0.00464322
-0.00787463
0.00582263
-0.00967038
0.00674477
-0.0110309
0.00748771
-0.0121431
0.00815443
-0.0131619
-0.0142473
0.00880015
0.000141122
3.90419e-05
0.000845799
-0.00150742
0.00211004
-0.00420556
0.00348403
-0.00692255
0.00464617
-0.00903677
0.00553241
-0.0105566
0.00621335
-0.0117119
0.00678434
-0.0127141
0.00733441
-0.013712
-0.0147826
0.00786966
0.000213714
-0.000174672
0.00108268
-0.00237638
0.0023551
-0.00547799
0.00353034
-0.00809779
0.00442535
-0.00993178
0.00507497
-0.0112062
0.00557986
-0.0122168
0.00602756
-0.0131618
0.00646806
-0.0141525
-0.0152226
0.00690807
0.000301656
-0.000476328
0.00128048
-0.00335521
0.00244944
-0.00664695
0.00339524
-0.00904358
0.00405686
-0.0105934
0.0045232
-0.0116726
0.0048954
-0.012589
0.00523826
-0.0135046
0.00558305
-0.0144973
-0.0155694
0.00592992
0.000393135
-0.000869463
0.00140601
-0.00436809
0.00240794
-0.00764888
0.00313012
-0.00976576
0.00359827
-0.0110616
0.00392117
-0.0119955
0.00418493
-0.0128527
0.00443435
-0.0137541
0.00468317
-0.0147461
-0.0158166
0.0049303
0.000472839
-0.0013423
0.00144225
-0.00533749
0.00225766
-0.00846429
0.00277898
-0.0102871
0.00308858
-0.0113711
0.00329473
-0.0122016
0.00346345
-0.0130214
0.00362192
-0.0139125
0.00377602
-0.0149002
-0.0159665
0.00392598
0.00052848
-0.00187078
0.00139396
-0.00620297
0.00202674
-0.00909707
0.00237523
-0.0106356
0.00255361
-0.0115495
0.00265935
-0.0123074
0.00273874
-0.0131008
0.00280744
-0.0139812
0.00286786
-0.0149606
-0.0160197
0.00292099
0.000552634
-0.00242342
0.00128403
-0.00693437
0.00174168
-0.00955472
0.00194237
-0.0108363
0.00200949
-0.0116167
0.0020244
-0.0123223
0.00201719
-0.0130936
0.00199548
-0.0139595
0.00195995
-0.0149251
-0.015978
0.0019183
0.000542701
-0.00296612
0.00112737
-0.00751904
0.00142348
-0.00985083
0.00149636
-0.0109092
0.00146632
-0.0115866
0.00139611
-0.0122521
0.00130379
-0.0130013
0.00119184
-0.0138476
0.00105732
-0.0147906
-0.0158334
0.000912697
0.000501456
-0.00346757
0.000937919
-0.0079555
0.00108795
-0.0100009
0.00104918
-0.0108704
0.000930988
-0.0114684
0.000778523
-0.0120996
0.000601987
-0.0128248
0.000400604
-0.0136462
0.000178139
-0.0145681
-0.0155615
-9.37136e-05
0.000435761
-0.00390333
0.00072808
-0.00824782
0.000747331
-0.0100201
0.000608775
-0.0107318
0.000407471
-0.0112671
0.000173327
-0.0118655
-8.70837e-05
-0.0125643
-0.000369694
-0.0133636
-0.000688088
-0.0142497
-0.0152103
-0.00103938
0.000353649
-0.00425698
0.00050811
-0.00840228
0.000409817
-0.00992182
0.000178454
-0.0105005
-0.000101327
-0.0109873
-0.000407011
-0.0115598
-0.000743424
-0.0122279
-0.00111485
-0.0129922
-0.00152428
-0.0138403
-0.0147718
-0.00196269
0.000262196
-0.00451918
0.00028715
-0.00842723
7.82182e-05
-0.00971289
-0.000231243
-0.010191
-0.000580973
-0.0106376
-0.000964005
-0.0111767
-0.0013794
-0.0118125
-0.00183384
-0.0125377
-0.00232588
-0.0133482
-0.0142463
-0.00285143
0.000166924
-0.0046861
7.56926e-05
-0.008336
-0.000232928
-0.00940427
-0.000619412
-0.00980451
-0.00104194
-0.0102151
-0.00149748
-0.0107212
-0.00198847
-0.0113215
-0.00252057
-0.0120056
-0.00309264
-0.0127762
-0.0136376
-0.00370135
7.33341e-05
-0.00475944
-0.000139199
-0.00812347
-0.000528757
-0.00901471
-0.000988232
-0.00934503
-0.00147993
-0.00972338
-0.0020051
-0.010196
-0.00256778
-0.0107589
-0.0031723
-0.0114011
-0.00382029
-0.0121282
-0.0129529
-0.00450492
-1.27632e-05
-0.00474667
-0.000341263
-0.00779497
-0.000809334
-0.00854664
-0.00133493
-0.00881944
-0.00189244
-0.00916587
-0.00248496
-0.00960352
-0.00311679
-0.010127
-0.00378944
-0.0107285
-0.0044981
-0.0114195
-0.0122001
-0.00525093
-0.000118903
-0.00462777
-0.000528309
-0.00738556
-0.0010702
-0.00800475
-0.00165786
-0.00823178
-0.0022775
-0.00854623
-0.00293425
-0.00894677
-0.00363287
-0.00942841
-0.00437618
-0.00998515
-0.00516805
-0.0106276
-0.0114269
-0.00594125
-0.000209105
-0.00441867
-0.000701168
-0.0068935
-0.00130921
-0.00739671
-0.00195529
-0.0075857
-0.00263308
-0.00786843
-0.00334935
-0.0082305
-0.00410931
-0.00866845
-0.00491573
-0.00917872
-0.00576958
-0.0097738
-0.0104276
-0.00676887
-0.000289975
-0.00412869
-0.000858566
-0.00632491
-0.00152611
-0.00672917
-0.00222605
-0.00688575
-0.00295775
-0.00713673
-0.00372818
-0.00746007
-0.00454099
-0.00785564
-0.00540011
-0.00831961
-0.00632516
-0.00884875
-0.00940003
-0.00735276
-0.000362002
-0.00376669
-0.000999325
-0.00568759
-0.00172006
-0.00600843
-0.00246895
-0.00613687
-0.00324982
-0.00635586
-0.0040706
-0.00663929
-0.0049378
-0.00698844
-0.00586043
-0.00739698
-0.00685322
-0.00785596
-0.00834349
-0.00790976
-0.000424879
-0.00334181
-0.00112273
-0.00498973
-0.0018905
-0.00524066
-0.00268297
-0.0053444
-0.00350706
-0.00553177
-0.00437065
-0.0057757
-0.00528167
-0.00607742
-0.00625113
-0.00642752
-0.00729066
-0.00681642
-0.00723882
-0.00839533
-0.000477626
-0.00286418
-0.0012281
-0.00423926
-0.00203699
-0.00443176
-0.00286783
-0.00451357
-0.00373043
-0.00466917
-0.00463339
-0.00487273
-0.00558559
-0.00512522
-0.00659662
-0.0054165
-0.00767377
-0.00573928
-0.00609522
-0.00881737
-0.000518729
-0.00234545
-0.00131507
-0.00344292
-0.00215917
-0.00358767
-0.00302223
-0.0036505
-0.00391667
-0.00377473
-0.00485165
-0.00393775
-0.00583682
-0.00414005
-0.00688114
-0.00437218
-0.0079911
-0.00462931
-0.00491629
-0.00917003
-0.000554045
-0.00179141
-0.00138496
-0.00261201
-0.00225728
-0.00271534
-0.00314661
-0.00276117
-0.00406715
-0.00285419
-0.00502841
-0.00297649
-0.00604017
-0.0031283
-0.00711054
-0.00330181
-0.00824595
-0.0034939
-0.00370998
-0.00945226
-0.000581466
-0.00120994
-0.00143772
-0.00175575
-0.00233096
-0.00182211
-0.00324002
-0.00185211
-0.00418015
-0.00191406
-0.00516107
-0.00199557
-0.00619264
-0.00209673
-0.00728244
-0.002212
-0.00843673
-0.00233961
-0.00248378
-0.00966293
-0.000599966
-0.000609977
-0.0014731
-0.000882619
-0.00238019
-0.000915016
-0.00330246
-0.000929845
-0.00425573
-0.000960783
-0.00524979
-0.00100151
-0.00629447
-0.00105205
-0.00739692
-0.00110955
-0.00856339
-0.00117315
-0.00124512
-0.00980204
-0.000609262
-7.15388e-07
-0.00149085
-1.03105e-06
-0.00240484
-1.02123e-06
-0.00333372
-9.74398e-07
-0.00429356
-9.36577e-07
-0.00529418
-9.00804e-07
-0.00634535
-8.67562e-07
-0.00745407
-8.34034e-07
-0.00862642
-7.99932e-07
-7.67462e-07
-0.00987077
-0.000609262
0.000608547
-0.00149085
0.000880556
-0.00240484
0.000912972
-0.00333371
0.000927894
-0.00429356
0.000958908
-0.00529417
0.000999709
-0.00634534
0.00105031
-0.00745405
0.00110788
-0.0086264
0.00117155
0.00124358
-0.00987074
-0.000599968
0.00120851
-0.0014731
0.00175369
-0.00238019
0.00182006
-0.00330245
0.00185016
-0.00425571
0.00191218
-0.00524977
0.00199376
-0.00629444
0.00209498
-0.00739688
0.00221032
-0.00856333
0.002338
0.00248222
-0.00980198
-0.000581468
0.00178998
-0.00143772
0.00260994
-0.00233094
0.00271329
-0.00324
0.00275921
-0.00418012
0.0028523
-0.00516103
0.00297467
-0.00619258
0.00312654
-0.00728237
0.00330011
-0.00843665
0.00349227
0.00370841
-0.00966283
-0.000554048
0.00234403
-0.00138495
0.00344084
-0.00225726
0.0035856
-0.00314658
0.00364853
-0.00406711
0.00377283
-0.00502836
0.00393591
-0.00604009
0.00413827
-0.00711044
0.00437046
-0.00824584
0.00462766
0.0049147
-0.00945213
-0.000518727
0.00286276
-0.00131507
0.00423718
-0.00215915
0.00442969
-0.0030222
0.00451158
-0.00391662
0.00466724
-0.00485158
0.00487087
-0.00583673
0.00512342
-0.00688102
0.00541475
-0.00799096
0.0057376
0.00609361
-0.00916986
-0.000477626
0.00334039
-0.0012281
0.00498765
-0.00203698
0.00523857
-0.00286779
0.00534239
-0.00373037
0.00552982
-0.00463331
0.00577381
-0.00558548
0.00607559
-0.00659648
0.00642575
-0.00767359
0.00681471
0.00723719
-0.00881717
-0.000424889
0.00376527
-0.00112274
0.0056855
-0.00189049
0.00600632
-0.00268293
0.00613483
-0.00350699
0.00635388
-0.00437056
0.00663737
-0.00528154
0.00698658
-0.00625096
0.00739517
-0.00729046
0.00785421
0.00834182
-0.00839509
-0.000362019
0.00412729
-0.000999339
0.00632282
-0.00172006
0.00672704
-0.00246892
0.00688369
-0.00324976
0.00713472
-0.0040705
0.00745811
-0.00493765
0.00785373
-0.00586023
0.00831775
-0.00685298
0.00884695
0.00939832
-0.00790948
-0.00029
0.00441729
-0.000858591
0.00689141
-0.00152611
0.00739456
-0.00222603
0.0075836
-0.00295768
0.00786638
-0.00372807
0.0082285
-0.00454083
0.00866649
-0.0053999
0.00917682
-0.00632491
0.00977196
0.0104259
-0.00735244
-0.00020914
0.00462643
-0.000701207
0.00738348
-0.00130923
0.00800258
-0.00195527
0.00822965
-0.00263303
0.00854413
-0.00334924
0.00894471
-0.00410914
0.00942639
-0.0049155
0.00998318
-0.00576927
0.0106257
0.011425
-0.00676846
-0.000118953
0.00474539
-0.000528368
0.00779289
-0.00107023
0.00854445
-0.00165786
0.00881728
-0.00227746
0.00916373
-0.00293414
0.0096014
-0.00363269
0.0101249
-0.00437592
0.0107264
-0.00516771
0.0114175
0.0121982
-0.00594087
-1.28599e-05
0.00475825
-0.000341346
0.00812138
-0.000809395
0.0090125
-0.00133495
0.00934283
-0.00189242
0.00972119
-0.00248487
0.0101938
-0.00311662
0.0107567
-0.00378917
0.011399
-0.00449775
0.0121261
0.0129509
-0.00525048
7.32611e-05
0.00468499
-0.000139312
0.00833395
-0.000528851
0.00940203
-0.000988288
0.00980227
-0.00147993
0.0102128
-0.00200503
0.0107189
-0.00256761
0.0113193
-0.00317202
0.0120034
-0.0038199
0.012774
0.0136355
-0.00450442
0.000166825
0.00451816
7.5554e-05
0.00842522
-0.000233059
0.00971065
-0.000619509
0.0101887
-0.00104198
0.0106353
-0.00149744
0.0111744
-0.00198833
0.0118102
-0.0025203
0.0125353
-0.00309223
0.0133459
0.014244
-0.00370079
0.000262069
0.00425609
0.000286961
0.00840033
7.80284e-05
0.00991958
-0.000231391
0.0104981
-0.000581063
0.010985
-0.000964005
0.0115573
-0.00137928
0.0122254
-0.00183358
0.0129896
-0.00232546
0.0138378
0.0147694
-0.00285083
0.000353491
0.0039026
0.000507867
0.00824595
0.000409565
0.0100179
0.000178233
0.0107295
-0.000101481
0.0112647
-0.000407072
0.0118629
-0.000743356
0.0125617
-0.00111462
0.0133609
-0.00152385
0.014247
0.0152076
-0.00196206
0.000435572
0.00346703
0.000727774
0.00795375
0.000746999
0.00999866
0.000608468
0.010868
0.000407223
0.0114659
0.000173182
0.012097
-8.70857e-05
0.012822
-0.000369515
0.0136433
-0.00068768
0.0145652
0.0155586
-0.00103872
0.000501237
0.00296579
0.000937544
0.00751744
0.00108753
0.00984867
0.00104876
0.0109068
0.000930629
0.0115841
0.000778265
0.0122493
0.000601885
0.0129984
0.00040071
0.0138445
0.000178486
0.0147874
0.0158302
-9.30683e-05
0.00054246
0.00242333
0.00112692
0.00693299
0.00142294
0.00955265
0.00149582
0.0108339
0.00146583
0.0116141
0.00139571
0.0123195
0.00130355
0.0130905
0.00119183
0.0139562
0.00105762
0.0149216
0.0159744
0.000913359
0.000552385
0.00187095
0.00128351
0.00620186
0.00174102
0.00909514
0.00194167
0.0106332
0.00200882
0.0115469
0.00202382
0.0123045
0.00201677
0.0130976
0.00199532
0.0139777
0.00196013
0.0149568
0.0160157
0.00191889
0.000528244
0.0013427
0.00139338
0.00533672
0.00202595
0.00846257
0.00237435
0.0102848
0.00255273
0.0113685
0.00265854
0.0121987
0.00273809
0.013018
0.00280706
0.0139087
0.00286788
0.014896
0.0159621
0.0029215
0.000472636
0.000870066
0.00144162
0.00436774
0.00225674
0.00764745
0.00277791
0.00976367
0.00308745
0.011059
0.00329362
0.0119925
0.00346249
0.0128492
0.00362126
0.0137499
0.00377579
0.0147414
0.0158115
0.00392636
0.000392984
0.000477082
0.00140539
0.00335534
0.00240692
0.00664591
0.00312883
0.00904176
0.00359684
0.010591
0.00391971
0.0116696
0.00418357
0.0125853
0.00443328
0.0135002
0.00468261
0.0144921
0.0155637
0.00493045
0.000301573
0.000175509
0.00127993
0.00237698
0.00244836
0.00547749
0.00339373
0.00809638
0.00405507
0.00992965
0.00452128
0.0112034
0.00489353
0.0122131
0.00523666
0.0131571
0.00558198
0.0141468
0.0152159
0.00592973
0.000213708
-3.81996e-05
0.00108228
0.00150841
0.00235403
0.00420574
0.00352864
0.00692177
0.00442317
0.00903513
0.00507249
0.0105541
0.00557731
0.0117082
0.00602524
0.0127092
0.00646635
0.0137057
0.0147749
0.00690732
0.000141206
-0.000179406
0.000845628
0.000803988
0.00210914
0.00294223
0.00348223
0.00554867
0.00464358
0.00787378
0.00552925
0.0096684
0.00620994
0.0110276
0.00678106
0.0121381
0.00733171
0.013155
0.0142384
0.00786826
8.67003e-05
-0.000266106
0.000610837
0.000279852
0.00173692
0.00181615
0.00321077
0.00407482
0.0046403
0.00644425
0.00581871
0.00848999
0.00674022
0.010106
0.00748317
0.0113951
0.00815045
0.0124878
0.0135913
0.00879749
4.78067e-05
-0.000313913
0.000411411
-8.37527e-05
0.0013097
0.000917858
0.00271977
0.00266475
0.00433212
0.00483189
0.00583405
0.00698807
0.00707738
0.00886272
0.008065
0.0104075
0.00892039
0.0116324
0.0128546
0.00965713
2.17393e-05
-0.000335652
0.000260634
-0.000322647
0.000911925
0.000266567
0.0020985
0.00147817
0.00370507
0.00322533
0.00544427
0.00524886
0.00707228
0.00723471
0.00841061
0.00906915
0.00953565
0.0105073
0.0118818
0.0105085
6.18511e-06
-0.000341837
0.000155587
-0.000472049
0.000595456
-0.000173301
0.00148365
0.000589979
0.00287256
0.00183642
0.0046299
0.00349152
0.00652142
0.00534319
0.00831335
0.00727722
0.00984797
0.00897271
0.0107386
0.0109912
-2.11456e-06
-0.000339723
8.65102e-05
-0.000560674
0.000368328
-0.000455119
0.000975295
-1.69883e-05
0.00202654
0.000785177
0.00355849
0.00195957
0.005427
0.00347469
0.00747219
0.00523203
0.00957998
0.00686492
0.00909681
0.0112217
-6.71759e-06
-0.000333005
4.09598e-05
-0.000608351
0.000211618
-0.000625777
0.000598638
-0.000404008
0.00131687
6.69399e-05
0.00247479
0.000801654
0.00405248
0.001897
0.00601352
0.00327099
0.00836832
0.00451011
0.0069791
0.010486
-1.00319e-05
-0.000322973
6.88106e-06
-0.000625264
9.76685e-05
-0.000716565
0.00032704
-0.00063338
0.000778995
-0.000385015
0.00154773
3.2924e-05
0.00272467
0.000720049
0.00430495
0.00169072
0.00637644
0.00243862
0.00461147
0.00874406
-1.5157e-05
-0.000307816
-2.66853e-05
-0.000613736
2.3874e-06
-0.000745637
0.000116414
-0.000747407
0.000371359
-0.000639959
0.000829524
-0.000425241
0.00160841
-5.88385e-05
0.00271755
0.000581585
0.00424381
0.000912357
0.00247757
0.00637772
-2.37293e-05
-0.000284087
-6.36878e-05
-0.000573778
-8.8606e-05
-0.000720719
-6.57355e-05
-0.000770277
4.46628e-05
-0.000750358
0.000273292
-0.00065387
0.00071566
-0.000501206
0.00141529
-0.000118046
0.00237103
-4.33779e-05
0.000954394
0.0038942
-3.51992e-05
-0.000248888
-0.000104505
-0.000504471
-0.00017913
-0.000646094
-0.000233078
-0.000716329
-0.000242949
-0.000740487
-0.000177964
-0.000718855
1.7858e-05
-0.000697028
0.000356229
-0.000456417
0.000847623
-0.000534772
8.89232e-05
0.00171309
-4.81017e-05
-0.000200786
-0.000146053
-0.00040652
-0.000265674
-0.000526474
-0.000385708
-0.000596295
-0.000489434
-0.00063676
-0.000552191
-0.000656099
-0.000577888
-0.000671331
-0.000471174
-0.000563132
-0.000341115
-0.00066483
-0.000267698
1.5506e-05
-6.03641e-05
-0.000140422
-0.000183393
-0.000283492
-0.000340521
-0.000369345
-0.000513387
-0.00042343
-0.000689436
-0.000460711
-0.000856648
-0.000488886
-0.00101881
-0.000509167
-0.00110329
-0.000478652
-0.00122873
-0.000539396
-0.000355226
-0.0011412
-6.98722e-05
-7.05499e-05
-0.000211441
-0.000141923
-0.000395454
-0.000185332
-0.000605275
-0.000213608
-0.000831688
-0.000234298
-0.00106925
-0.000251326
-0.00131513
-0.000263287
-0.00153381
-0.000259968
-0.00178743
-0.000285775
-0.000224529
-0.00191813
-7.49504e-05
-0.000226197
-0.000424036
-0.000652664
-0.000904597
-0.00117646
-0.00146318
-0.00174877
-0.00206035
-0.0023082
-0.00234509
5.03048e-05
-8.39145e-06
-0.00238384
4.43094e-05
-5.5579e-06
-0.00241814
3.64262e-05
-2.12611e-06
-0.00244834
2.84281e-05
1.76537e-06
-0.00247489
2.03221e-05
6.23199e-06
-0.0024982
1.2084e-05
1.12293e-05
-0.00251847
3.58267e-06
1.66808e-05
-0.00253625
-4.66365e-06
2.24415e-05
-0.00255177
-1.29134e-05
2.84343e-05
-0.00256515
-2.12249e-05
3.46122e-05
-0.00257658
-2.94418e-05
4.087e-05
-0.00258616
-3.75319e-05
4.7112e-05
-0.00259397
-4.54247e-05
5.32333e-05
-0.00260006
-5.30289e-05
5.91222e-05
-0.00260448
-6.02469e-05
6.46651e-05
-0.00260725
-6.69775e-05
6.97481e-05
-0.00260839
-7.31184e-05
7.42599e-05
-0.00260792
-7.85696e-05
7.80937e-05
-0.00260583
-8.32346e-05
8.1149e-05
-0.00260214
-8.70217e-05
8.33316e-05
-0.00259685
-8.98447e-05
8.45511e-05
-0.00258995
-9.16258e-05
8.47277e-05
-0.00258144
-9.22983e-05
8.37908e-05
-0.00257132
-9.18076e-05
8.16818e-05
-0.00255956
-9.01128e-05
7.83562e-05
-0.00254616
-8.71874e-05
7.37849e-05
-0.00253109
-8.30211e-05
6.79569e-05
-0.00251434
-7.76324e-05
6.08775e-05
-0.00249586
-7.10366e-05
5.25597e-05
-0.00247562
-6.32733e-05
4.30293e-05
-0.00245356
-5.4408e-05
3.23452e-05
-0.00242967
-4.45307e-05
2.06462e-05
-0.00240393
-3.37362e-05
7.99321e-06
-0.0023764
-2.21562e-05
-5.3733e-06
-0.00234688
-9.99061e-06
-1.95319e-05
-0.00231545
2.96314e-06
-3.43848e-05
-0.0022824
1.67574e-05
-4.9814e-05
-0.00224736
3.05112e-05
-6.55451e-05
-0.00221029
4.43233e-05
-8.13931e-05
-0.00217128
5.81787e-05
-9.7194e-05
-0.00213031
7.17831e-05
-0.000112753
-0.00208736
8.49269e-05
-0.000127872
-0.00204243
9.74246e-05
-0.000142359
-0.00199551
0.000109098
-0.000156022
-0.00194661
0.000119772
-0.000168671
-0.00189574
0.00012925
-0.000180119
-0.0018429
0.000137354
-0.00019019
-0.00178811
0.000143926
-0.000198722
-0.00173136
0.000148822
-0.00020557
-0.00167267
0.000151922
-0.000210607
-0.00161207
0.000153127
-0.000213726
-0.00154958
0.000152342
-0.000214835
-0.00148523
0.00014952
-0.000213875
-0.00141914
0.000144752
-0.000210836
-0.0013514
0.000137933
-0.000205669
-0.00128207
0.000129047
-0.000198379
-0.00121117
0.00011813
-0.000189029
-0.00113874
0.000105224
-0.000177653
-0.00106483
9.04148e-05
-0.000164326
-0.000989623
7.39526e-05
-0.000149163
-0.000913254
5.59059e-05
-0.000132275
-0.000835762
3.62833e-05
-0.000113775
-0.000757
1.50657e-05
-9.38281e-05
-0.000677526
-6.75837e-06
-7.27154e-05
-0.000597692
-2.92644e-05
-5.057e-05
-0.000517253
-5.29981e-05
-2.74407e-05
-0.000436707
-7.70273e-05
-3.51823e-06
-0.000355455
-0.000101282
2.00296e-05
-0.000274063
-0.000125652
4.42594e-05
-0.000192681
-0.000149904
6.85219e-05
-0.000111448
-0.000173795
9.25624e-05
-3.04506e-05
-0.000197103
0.000116105
5.01338e-05
-0.00021958
0.000138995
0.000130265
-0.000241108
0.000160977
0.000209797
-0.000261519
0.000181986
0.000288746
-0.000280583
0.000201634
0.000367036
-0.000298153
0.000219863
0.000444616
-0.0003141
0.00023652
0.000521454
-0.000328303
0.000251465
0.000597532
-0.000340659
0.000264581
0.000672849
-0.000351079
0.000275761
0.000747424
-0.000359491
0.000284916
0.000821286
-0.000365841
0.000291978
0.000894477
-0.000370091
0.0002969
0.000967048
-0.000372223
0.000299652
0.00103906
-0.000372233
0.000300225
0.00111056
-0.000370134
0.000298627
0.00118163
-0.000365955
0.000294886
0.00125233
-0.000359743
0.000289049
0.00132271
-0.000351557
0.000281178
0.00139282
-0.000341472
0.000271354
0.00146272
-0.000329572
0.000259671
0.00153245
-0.000315957
0.000246231
0.00160204
-0.000300736
0.000231149
0.00167151
-0.000284028
0.000214556
0.00174088
-0.000265967
0.000196595
0.00181015
-0.000246697
0.000177424
0.00187931
-0.000226367
0.00015721
0.00194834
-0.00020513
0.000136099
0.00201723
-0.000183145
0.000114254
0.00208596
-0.000160582
9.18525e-05
0.00215445
-0.000137618
6.91288e-05
0.0022227
-0.000114413
4.61671e-05
0.00229073
-9.11352e-05
2.30994e-05
0.0023585
-6.79802e-05
2.13216e-07
0.00242563
-4.51488e-05
-2.19787e-05
0.00249231
-2.27041e-05
-4.3973e-05
0.00255836
-7.46138e-07
-6.53108e-05
0.00262428
1.98021e-05
-8.57248e-05
0.00268969
3.97588e-05
-0.000105164
0.00275458
5.85464e-05
-0.000123436
0.002819
7.593e-05
-0.000140353
0.00288296
9.1783e-05
-0.000155744
0.00294649
0.000105888
-0.000169418
0.00300964
0.00011802
-0.000181162
0.00307246
0.000127908
-0.000190733
0.00313502
0.0001353
-0.000197855
0.00319746
0.00013966
-0.000202106
0.00325973
0.000141197
-0.000203462
0.000136711
-0.00019862
-0.00193674
8.54736e-05
-0.00197051
7.80779e-05
-0.00200088
6.68031e-05
-0.002028
5.55454e-05
-0.00205207
4.43944e-05
-0.00207346
3.34737e-05
-0.00209258
2.27036e-05
-0.00210918
1.19333e-05
-0.0021228
7.03411e-07
-0.00213497
-9.05822e-06
-0.00214537
-1.90399e-05
-0.00215406
-2.8843e-05
-0.00216106
-3.84211e-05
-0.0021664
-4.76848e-05
-0.00217011
-5.65417e-05
-0.00217219
-6.48985e-05
-0.00217265
-7.26592e-05
-0.00217149
-7.97289e-05
-0.00216871
-8.60159e-05
-0.0021643
-9.14324e-05
-0.00215825
-9.58941e-05
-0.00215055
-9.93248e-05
-0.00214119
-0.00010166
-0.00213015
-0.000102848
-0.00211741
-0.000102853
-0.00210295
-0.000101647
-0.00208675
-9.92133e-05
-0.00206877
-9.56201e-05
-0.00204894
-9.08663e-05
-0.00202723
-8.49764e-05
-0.00200363
-7.80138e-05
-0.0019781
-7.00596e-05
-0.00195063
-6.12075e-05
-0.00192121
-5.15702e-05
-0.00188993
-4.12714e-05
-0.00185652
-3.04517e-05
-0.00182052
-1.92371e-05
-0.00178203
-7.98625e-06
-0.00174135
3.64893e-06
-0.00169896
1.57842e-05
-0.00165443
2.72558e-05
-0.00160764
3.81359e-05
-0.00155851
4.83008e-05
-0.00150701
5.75942e-05
-0.00145325
6.6013e-05
-0.00139725
7.3248e-05
-0.00133901
7.91173e-05
-0.00127856
8.34692e-05
-0.0012159
8.61685e-05
-0.00115108
8.70984e-05
-0.00108411
8.61617e-05
-0.00101505
8.32783e-05
-0.00094383
7.83022e-05
-0.00087075
7.1672e-05
-0.000795962
6.31446e-05
-0.000719541
5.26253e-05
-0.000641556
4.01445e-05
-0.000562045
2.5713e-05
-0.00048081
9.18028e-06
-0.000398761
-8.09614e-06
-0.000316173
-2.66825e-05
-0.00023299
-4.68993e-05
-0.000149537
-6.83871e-05
-6.54923e-05
-9.08035e-05
1.90909e-05
-0.000113848
0.000103216
-0.000137123
0.000187174
-0.000160985
0.000270818
-0.000184927
0.000353923
-0.000208756
0.000436283
-0.000232264
0.00051772
-0.000255232
0.000598068
-0.000277452
0.000677216
-0.000298727
0.000755004
-0.000318896
0.000831287
-0.000337802
0.000905989
-0.000355285
0.000979046
-0.00037121
0.00105041
-0.000385466
0.00112006
-0.000397954
0.001188
-0.000408595
0.00125424
-0.000417323
0.00131884
-0.000424091
0.00138187
-0.000428865
0.0014434
-0.000431628
0.00150356
-0.000432377
0.00156245
-0.000431125
0.00162021
-0.000427895
0.00167698
-0.000422726
0.00173291
-0.000415668
0.00178813
-0.000406783
0.0018428
-0.000396143
0.00189706
-0.000383833
0.00195105
-0.000369944
0.00200489
-0.00035458
0.00205872
-0.000337853
0.00211263
-0.000319883
0.00216674
-0.000300801
0.00222111
-0.000280743
0.00227584
-0.000259852
0.00233097
-0.000238278
0.00238656
-0.000216173
0.00244264
-0.000193698
0.00249924
-0.000171014
0.00255639
-0.000148286
0.0026141
-0.000125686
0.00267234
-0.000103388
0.00273118
-8.1548e-05
0.00279077
-6.03369e-05
0.00285059
-4.00141e-05
0.00291096
-2.06149e-05
0.00297179
-2.27931e-06
0.00303334
1.43768e-05
0.00309542
2.97072e-05
0.00315801
4.32895e-05
0.00322111
5.49232e-05
0.0032847
6.43162e-05
0.00334867
7.13294e-05
0.00341306
7.52769e-05
0.00347737
7.68873e-05
7.26954e-05
-0.0011368
0.000112121
-0.00115926
0.000100538
-0.00118192
8.94607e-05
-0.00120311
7.67386e-05
-0.00122243
6.37188e-05
-0.00123988
5.0922e-05
-0.00125561
3.84268e-05
-0.00126969
2.60221e-05
-0.00128256
1.35656e-05
-0.00129202
4.09388e-07
-0.00130045
-1.06118e-05
-0.00130735
-2.19482e-05
-0.00131266
-3.31052e-05
-0.00131639
-4.39586e-05
-0.00131851
-5.44201e-05
-0.00131901
-6.43982e-05
-0.00131788
-7.37913e-05
-0.0013151
-8.25034e-05
-0.00131068
-9.04438e-05
-0.00130458
-9.75292e-05
-0.00129679
-0.000103682
-0.00128729
-0.000108825
-0.00127606
-0.000112896
-0.00126306
-0.000115844
-0.00124828
-0.000117635
-0.00123168
-0.000118245
-0.00121327
-0.000117627
-0.00119296
-0.000115928
-0.00117068
-0.000113142
-0.00114641
-0.00010925
-0.0011201
-0.000104324
-0.00109172
-9.84424e-05
-0.00106123
-9.16961e-05
-0.00102861
-8.419e-05
-0.000993842
-7.60367e-05
-0.000956936
-6.73573e-05
-0.000917863
-5.83101e-05
-0.000876774
-4.90756e-05
-0.000833316
-3.98087e-05
-0.000786945
-3.05866e-05
-0.000737998
-2.1692e-05
-0.000686512
-1.33495e-05
-0.000632392
-5.81903e-06
-0.000575515
7.16828e-07
-0.000516876
7.37384e-06
-0.00045595
1.23223e-05
-0.000392648
1.58155e-05
-0.000326963
1.77835e-05
-0.000258922
1.81282e-05
-0.000188573
1.67494e-05
-0.000115949
1.35377e-05
-4.10312e-05
8.36018e-06
3.6289e-05
9.81964e-07
0.000114598
-6.63737e-06
0.00019434
-1.6597e-05
0.000275521
-2.85553e-05
0.000358011
-4.23455e-05
0.000441579
-5.78553e-05
0.000525731
-7.4972e-05
0.000611065
-9.34299e-05
0.000697436
-0.000113054
0.000784301
-0.000133765
0.000871298
-0.000155384
0.000958187
-0.000177693
0.00104481
-0.000200467
0.00113113
-0.000223442
0.00121668
-0.000246539
0.00130127
-0.000269517
0.00138467
-0.000292152
0.00146664
-0.000314238
0.00154699
-0.000335578
0.00162552
-0.000355983
0.00170207
-0.000375278
0.00177648
-0.00039331
0.00184862
-0.00040994
0.00191838
-0.000425041
0.00198567
-0.000438507
0.00205046
-0.00045025
0.00211271
-0.000460201
0.00217242
-0.000468306
0.00222962
-0.000474531
0.00228439
-0.000478855
0.0023368
-0.000481273
0.00238696
-0.000481793
0.00243502
-0.000480437
0.00248113
-0.000477237
0.00252548
-0.000472237
0.00256824
-0.00046549
0.00260963
-0.000457058
0.00264986
-0.000447011
0.00268915
-0.000435428
0.00272771
-0.000422394
0.00276576
-0.000408
0.00280353
-0.000392346
0.00284121
-0.000375536
0.00287901
-0.000357683
0.00291711
-0.000338904
0.00295569
-0.000319323
0.00299491
-0.000299068
0.0030349
-0.000278273
0.00307581
-0.000257078
0.00311774
-0.000235626
0.00316079
-0.000214064
0.00320505
-0.000192543
0.00325058
-0.000171219
0.00329744
-0.000150248
0.00334568
-0.000129785
0.00339533
-0.000109995
0.00344637
-9.10532e-05
0.00349886
-7.3104e-05
0.0035529
-5.63153e-05
0.00360818
-4.0908e-05
0.00366487
-2.69828e-05
0.00372292
-1.47616e-05
0.00378223
-4.38686e-06
0.00384275
3.79977e-06
0.00390421
9.86819e-06
0.00396655
1.29375e-05
0.00402912
1.43227e-05
1.00758e-05
6.12029e-05
0.000120323
4.34869e-05
0.000118254
2.72939e-05
0.000105654
1.14906e-05
9.25418e-05
-4.36014e-06
7.95696e-05
-1.98498e-05
6.64117e-05
-3.44053e-05
5.29823e-05
-4.78733e-05
3.94901e-05
-6.01095e-05
2.58018e-05
-7.14724e-05
1.17723e-05
-7.96752e-05
-2.40902e-06
-8.67314e-05
-1.48919e-05
-9.22168e-05
-2.76199e-05
-9.60612e-05
-4.01141e-05
-9.82699e-05
-5.22114e-05
-9.88261e-05
-6.38421e-05
-9.77009e-05
-7.49165e-05
-9.48566e-05
-8.53478e-05
-9.02642e-05
-9.50362e-05
-8.39115e-05
-0.000103882
-7.57931e-05
-0.0001118
-6.58891e-05
-0.000118729
-5.41702e-05
-0.000124615
-4.05978e-05
-0.000129417