/*--------------------------------*- C++ -*----------------------------------*\
  =========                 |
  \\      /  F ield         | OpenFOAM: The Open Source CFD Toolbox
   \\    /   O peration     | Website:  https://openfoam.org
    \\  /    A nd           | Version:  7
     \\/     M anipulation  |
\*---------------------------------------------------------------------------*/
FoamFile
{
    version     2.0;
    format      ascii;
    class       volVectorField;
    location    "85";
    object      U;
}
// * * * * * * * * * * * * * * * * * * * * * * * * * * * * * * * * * * * * * //

dimensions      [0 1 -1 0 0 0 0];

internalField   nonuniform List<vector> 
14000
(
(-0.00751537 0.00584268 -4.84128e-22)
(-0.0296216 0.0103611 9.67031e-22)
(-0.0611995 0.0115924 6.20996e-20)
(-0.0904456 0.0115014 1.08291e-20)
(-0.11671 0.0109168 2.10731e-20)
(-0.139813 0.0101753 -1.21932e-20)
(-0.159491 0.0092484 -2.26153e-20)
(-0.174858 0.00773727 2.19569e-20)
(-0.188631 0.00718089 2.15132e-20)
(-0.19389 0.00376859 1.67923e-20)
(-0.00861723 0.0157918 -7.872e-20)
(-0.0305642 0.0279082 5.21092e-20)
(-0.0604573 0.0310096 -7.09195e-20)
(-0.0874124 0.0304399 3.80849e-21)
(-0.11085 0.0284385 -5.06125e-20)
(-0.130626 0.0259799 6.22514e-21)
(-0.146801 0.0232056 3.25047e-20)
(-0.156642 0.0183318 -1.43024e-19)
(-0.167474 0.0178061 3.53213e-20)
(-0.16445 0.00708459 1.47359e-22)
(-0.010674 0.0244908 1.46573e-19)
(-0.0323936 0.0435806 -1.29665e-20)
(-0.0591249 0.0485385 9.85603e-20)
(-0.0816603 0.0475935 -9.22691e-21)
(-0.0995526 0.0442956 -1.07937e-19)
(-0.112489 0.0402085 7.97219e-20)
(-0.122029 0.0362107 -3.4292e-20)
(-0.119327 0.0273748 3.43947e-20)
(-0.125087 0.029023 -1.04619e-19)
(-0.103608 0.00867301 1.48717e-19)
(-0.0134762 0.0313534 1.73135e-20)
(-0.0350104 0.0563594 -2.33236e-19)
(-0.0573588 0.0630309 -1.388e-19)
(-0.0735158 0.0617806 7.30282e-20)
(-0.0832992 0.0573288 8.67732e-20)
(-0.0854055 0.0517042 -1.44464e-19)
(-0.0856065 0.0468407 6.19165e-20)
(-0.0612428 0.0345109 4.12001e-20)
(-0.0598957 0.0390752 1.65817e-19)
(-0.00472048 0.0125716 -2.14514e-19)
(-0.0167909 0.036078 -7.37801e-20)
(-0.0382674 0.0655033 1.14879e-19)
(-0.0552736 0.0734909 3.36187e-19)
(-0.0631995 0.0718647 -1.67694e-19)
(-0.0623944 0.0662958 1.55656e-19)
(-0.0493309 0.0595692 2.62636e-19)
(-0.0364225 0.0519141 -7.28911e-21)
(0.0186591 0.0406524 7.47439e-21)
(0.029433 0.0443826 -2.44586e-19)
(0.141399 0.0230655 1.15749e-19)
(-0.0204246 0.0386718 -1.74922e-19)
(-0.0419343 0.0706169 1.03582e-19)
(-0.0527438 0.0791825 -4.69189e-19)
(-0.0504535 0.0769114 2.28458e-19)
(-0.0358811 0.070024 3.20804e-20)
(-0.00348948 0.0631347 -2.96154e-19)
(0.0301653 0.0502609 -8.70168e-20)
(0.128705 0.0467357 8.70777e-20)
(0.144679 0.0393586 1.65627e-19)
(0.350274 0.0357225 -9.21542e-20)
(-0.0242594 0.0394046 -1.91642e-20)
(-0.0455987 0.0716608 -3.25809e-19)
(-0.0490411 0.0797494 3.21836e-19)
(-0.0338947 0.0763668 -2.3137e-19)
(-0.000516122 0.0681804 5.74116e-20)
(0.0579212 0.0622503 1.92488e-19)
(0.123238 0.0439442 -3.52906e-19)
(0.274364 0.053226 -1.48036e-19)
(0.305037 0.0324491 1.25915e-19)
(0.609422 0.047815 7.36423e-20)
(-0.0282457 0.038701 1.91878e-19)
(-0.0485077 0.0689079 5.62221e-19)
(-0.0423578 0.0753194 -5.42542e-19)
(-0.00979798 0.0704184 1.32686e-19)
(0.0503869 0.0615656 3.32145e-19)
(0.14516 0.0575129 -1.69096e-19)
(0.260814 0.0411792 -5.38194e-20)
(0.453615 0.05785 -2.00351e-19)
(0.536312 0.0411401 2.38757e-19)
(0.870339 0.0688282 -1.68032e-19)
(-0.032294 0.0369516 -3.51817e-19)
(-0.0493925 0.0628887 9.7246e-20)
(-0.0292884 0.0665587 2.02898e-19)
(0.0286349 0.0603427 -1.00908e-19)
(0.128086 0.0529738 -3.41002e-19)
(0.272065 0.0522913 4.03982e-19)
(0.450471 0.0518156 2.56666e-19)
(0.66041 0.065485 2.31644e-19)
(0.814691 0.0706737 -1.88935e-19)
(1.07859 0.0962408 1.43188e-19)
(-0.0360605 0.0343879 -8.73711e-20)
(-0.0462239 0.0542327 -2.84246e-19)
(-0.00456651 0.0547074 -1.68632e-19)
(0.091308 0.0489782 1.98015e-19)
(0.245239 0.047952 3.80138e-20)
(0.447669 0.0559998 -2.38048e-19)
(0.672194 0.074786 2.7762e-19)
(0.880166 0.0877861 -3.90063e-19)
(1.05334 0.111994 -2.19403e-19)
(1.19739 0.116559 7.65953e-20)
(-0.038882 0.0311008 2.13446e-19)
(-0.0359688 0.0435204 2.99534e-19)
(0.0388805 0.0417106 1.24417e-19)
(0.189225 0.0410902 1.7337e-19)
(0.407782 0.0532944 -1.00496e-19)
(0.657724 0.0768834 -2.57136e-19)
(0.888087 0.105898 1.02598e-19)
(1.06852 0.122683 1.25952e-19)
(1.18877 0.144961 4.19561e-19)
(1.23338 0.120125 -2.4669e-19)
(-0.0397905 0.0270311 3.18253e-19)
(-0.0146381 0.0313047 -3.88082e-20)
(0.109211 0.0306714 2.86839e-19)
(0.328975 0.043247 -1.27453e-19)
(0.60375 0.0740585 3.89452e-19)
(0.863613 0.110928 1.54365e-19)
(1.05961 0.140418 1.91032e-19)
(1.18302 0.154823 -3.12652e-19)
(1.23579 0.157866 -1.27738e-19)
(1.26063 0.143307 1.22511e-19)
(-0.0374498 0.0219985 2.28717e-20)
(0.0226035 0.0184758 -2.8038e-19)
(0.213597 0.0266426 -2.66092e-19)
(0.503954 0.060889 -6.71472e-20)
(0.800945 0.108269 -1.06039e-19)
(1.02816 0.148041 1.15594e-19)
(1.16657 0.170471 -4.78429e-19)
(1.23161 0.173928 3.19867e-19)
(1.25519 0.171932 -3.0842e-21)
(1.2592 0.153305 -3.76956e-19)
(-0.0301374 0.0158793 -4.53982e-19)
(0.08118 0.00715485 -9.26246e-20)
(0.3533 0.0358143 -9.82675e-21)
(0.690395 0.0934597 2.85834e-20)
(0.966286 0.147419 1.49796e-19)
(1.13746 0.180737 -4.67351e-19)
(1.22042 0.191877 4.57202e-19)
(1.2511 0.189651 -1.00649e-19)
(1.25416 0.180138 5.90608e-20)
(1.24823 0.162703 9.69773e-20)
(-0.0157435 0.00884313 1.21178e-20)
(0.165748 0.00196087 3.72193e-19)
(0.517105 0.061395 9.44427e-20)
(0.859518 0.134359 -5.06971e-20)
(1.08608 0.184467 -4.2461e-20)
(1.20079 0.206914 2.72115e-19)
(1.24445 0.209331 -1.21484e-21)
(1.25216 0.201277 1.98579e-19)
(1.24625 0.188439 -6.18954e-20)
(1.23974 0.172692 -2.88464e-21)
(0.00850633 0.0016799 7.41774e-20)
(0.277026 0.0095783 -1.35103e-19)
(0.682886 0.100463 1.06207e-19)
(0.994828 0.177057 1.402e-19)
(1.16451 0.21727 -9.19696e-20)
(1.23339 0.228905 -1.52134e-20)
(1.2498 0.223746 -2.65603e-19)
(1.24571 0.212137 -1.73911e-19)
(1.23629 0.196514 2.12477e-19)
(1.22615 0.181309 -1.33507e-19)
(0.0454754 -0.00342971 9.60079e-20)
(0.408305 0.0347684 1.71199e-19)
(0.830806 0.147204 1.20159e-19)
(1.09392 0.218537 -1.81261e-19)
(1.21117 0.246503 2.13884e-19)
(1.24562 0.247992 -1.13317e-19)
(1.2456 0.237195 -2.8342e-20)
(1.23517 0.222333 -1.01717e-20)
(1.22354 0.204714 -6.01702e-20)
(1.21397 0.190513 1.92135e-20)
(0.0965256 -0.00295586 2.43768e-19)
(0.546149 0.0765912 -1.3531e-19)
(0.951735 0.197317 8.46879e-20)
(1.16097 0.257892 9.88023e-20)
(1.23459 0.27293 -7.04424e-20)
(1.24536 0.265655 1.06675e-19)
(1.23554 0.25008 3.88109e-20)
(1.22211 0.232498 5.15637e-20)
(1.21042 0.213372 3.28113e-20)
(1.19965 0.198888 5.23926e-20)
(0.16044 0.00666505 -8.98288e-20)
(0.676222 0.13033 -1.31572e-19)
(1.04422 0.248473 -1.02963e-19)
(1.20174 0.294844 -9.75501e-20)
(1.24159 0.29738 -4.28498e-20)
(1.23686 0.282501 4.70212e-20)
(1.22192 0.262873 -2.31539e-20)
(1.20741 0.242632 -2.27576e-22)
(1.19543 0.221955 -2.12869e-20)
(1.18505 0.206834 3.84982e-21)
(0.233335 0.0274705 2.40469e-20)
(0.788404 0.191142 -5.23186e-21)
(1.10992 0.299288 2.32365e-20)
(1.22175 0.329534 1.81656e-20)
(1.23681 0.320369 1.35933e-20)
(1.22279 0.298919 -3.63926e-20)
(1.20548 0.275487 1.68007e-20)
(1.19081 0.252566 -1.63732e-20)
(1.17953 0.230351 -5.22262e-21)
(1.1694 0.213868 -8.51797e-21)
(0.30962 0.0594175 1.24857e-21)
(0.878093 0.255338 -7.30266e-22)
(1.15147 0.348741 -5.03459e-21)
(1.22541 0.362145 6.04729e-20)
(1.22336 0.342199 -1.63711e-20)
(1.20437 0.314843 -1.53141e-20)
(1.18652 0.28774 1.986e-21)
(1.17251 0.26206 -1.62819e-21)
(1.16193 0.238017 -6.03468e-21)
(1.15272 0.21994 -1.25318e-20)
(0.383224 0.100885 -1.03487e-19)
(0.94435 0.320342 1.95721e-20)
(1.17191 0.395999 -1.66701e-19)
(1.21606 0.392631 -5.83224e-20)
(1.20313 0.362832 -1.77868e-20)
(1.18226 0.330031 -2.23916e-21)
(1.16511 0.299276 -1.16739e-20)
(1.15231 0.270771 -6.25519e-21)
(1.14298 0.244834 5.91884e-21)
(1.13446 0.224932 8.60963e-21)
(0.448597 0.149555 1.78567e-19)
(0.987604 0.384081 -9.10264e-20)
(1.17408 0.440158 1.266e-19)
(1.19607 0.420732 5.02859e-20)
(1.17729 0.381991 -1.74973e-20)
(1.15675 0.344039 5.805e-20)
(1.14131 0.309651 -1.47085e-20)
(1.13039 0.278404 1.65954e-20)
(1.12239 0.250753 3.30643e-21)
(1.11453 0.228766 5.38088e-21)
(0.501458 0.20284 -1.09387e-19)
(1.00916 0.444772 4.14049e-19)
(1.16051 0.480377 -7.6134e-20)
(1.16716 0.446007 -4.22908e-20)
(1.14657 0.399153 8.86624e-20)
(1.12815 0.356333 -3.67815e-20)
(1.11526 0.318384 -1.27063e-20)
(1.10672 0.284611 -8.0919e-21)
(1.10017 0.255693 1.27674e-21)
(1.09369 0.23141 -1.06526e-20)
(0.539113 0.257969 -1.98398e-19)
(1.01073 0.500767 -2.21133e-19)
(1.13326 0.515735 1.34884e-19)
(1.13074 0.467803 3.71787e-20)
(1.11168 0.41364 -4.35723e-20)
(1.09684 0.366362 -5.30245e-21)
(1.08721 0.325104 1.90739e-20)
(1.08123 0.289157 6.73714e-21)
(1.07633 0.259031 -2.11192e-20)
(1.07223 0.2327 -2.44649e-21)
(0.56042 0.312051 6.84536e-20)
(0.994231 0.550505 2.84191e-19)
(1.09412 0.545206 -5.71191e-20)
(1.08821 0.4853 4.4344e-21)
(1.07329 0.424738 -3.26817e-21)
(1.06299 0.373512 1.1278e-21)
(1.05719 0.329511 1.50357e-20)
(1.05404 0.291715 -1.20539e-20)
(1.05142 0.260489 2.00068e-20)
(1.05018 0.232544 -1.96744e-20)
(0.56558 0.362305 -5.05947e-19)
(0.961436 0.592357 2.52469e-20)
(1.04516 0.567789 -1.05173e-19)
(1.04068 0.497466 1.25184e-20)
(1.03174 0.431799 -1.84379e-21)
(1.02684 0.377279 5.93094e-20)
(1.02551 0.331108 -4.82312e-20)
(1.02568 0.291956 2.8041e-20)
(1.02602 0.259779 -2.67368e-20)
(1.02828 0.230871 -8.97064e-20)
(0.555666 0.406446 2.56631e-19)
(0.913901 0.624243 -2.39539e-19)
(0.988681 0.582619 -1.68182e-20)
(0.989116 0.503507 -3.01501e-21)
(0.987612 0.434052 9.19265e-20)
(0.988947 0.377119 -8.86581e-21)
(0.992557 0.329486 7.20866e-20)
(0.996707 0.289482 8.39094e-21)
(1.00098 0.256722 5.77005e-21)
(1.00734 0.227775 1.25565e-19)
(0.531802 0.442782 1.41822e-19)
(0.854113 0.644583 -1.97298e-20)
(0.926701 0.588448 -8.01614e-21)
(0.934598 0.502964 7.21236e-20)
(0.941659 0.430957 -3.08273e-20)
(0.949791 0.372543 -1.10106e-19)
(0.958836 0.324113 -7.08943e-20)
(0.967728 0.283703 7.04761e-21)
(0.976998 0.250796 9.76356e-20)
(0.987751 0.223608 -7.97601e-20)
(0.49517 0.468757 -1.20495e-20)
(0.786116 0.653048 -2.60932e-20)
(0.861096 0.584363 -1.00378e-19)
(0.878276 0.495282 4.60354e-21)
(0.894667 0.422084 1.50703e-19)
(0.910016 0.363201 -4.80912e-20)
(0.924896 0.314655 1.80253e-19)
(0.939149 0.274049 -2.49019e-19)
(0.95399 0.240736 -1.67816e-19)
(0.968351 0.21719 -3.61474e-20)
(0.448103 0.481109 3.65304e-20)
(0.712447 0.64809 5.39605e-20)
(0.7934 0.57026 3.46885e-20)
(0.821343 0.480017 -5.35572e-20)
(0.847519 0.40715 -2.27438e-19)
(0.870349 0.348911 2.14722e-19)
(0.891384 0.301129 8.32633e-20)
(0.911199 0.260924 1.08009e-19)
(0.931281 0.226085 3.09453e-19)
(0.946501 0.199887 -7.51604e-20)
(0.39477 0.479485 1.3122e-19)
(0.636108 0.629286 -2.32905e-20)
(0.725499 0.545942 -5.78883e-20)
(0.765061 0.456914 1.12507e-19)
(0.801179 0.385963 2.01298e-19)
(0.83163 0.329527 -4.77696e-19)
(0.859011 0.283521 -7.44625e-20)
(0.884101 0.245312 -1.94302e-19)
(0.907282 0.213039 3.93457e-20)
(0.922028 0.188178 -1.41186e-19)
(0.33833 0.463503 -2.66266e-19)
(0.559755 0.59629 -1.20377e-19)
(0.659183 0.511475 4.00964e-19)
(0.710716 0.425975 -2.30115e-19)
(0.756647 0.35853 -3.32158e-19)
(0.794655 0.305003 3.11759e-19)
(0.828338 0.261342 -2.86078e-19)
(0.858547 0.224843 1.42235e-19)
(0.885068 0.19392 -1.77012e-19)
(0.901955 0.170338 2.80144e-19)
(0.281914 0.433588 -1.08436e-19)
(0.486187 0.549481 5.95071e-19)
(0.596263 0.467126 -6.20211e-19)
(0.659602 0.387416 2.59402e-20)
(0.714933 0.325098 2.02671e-19)
(0.760127 0.275842 -1.25427e-20)
(0.799527 0.235914 4.37441e-19)
(0.833894 0.202758 -3.81578e-19)
(0.863153 0.174652 2.78151e-19)
(0.88315 0.152581 -1.88137e-19)
(0.228344 0.39076 -1.77424e-19)
(0.417916 0.489592 9.70236e-20)
(0.538463 0.413408 2.67198e-19)
(0.612984 0.341639 3.07396e-19)
(0.677076 0.285882 -7.05939e-20)
(0.729 0.241861 2.91785e-19)
(0.773722 0.206189 2.45234e-20)
(0.811914 0.176618 3.15316e-20)
(0.843863 0.151743 -1.12052e-19)
(0.866915 0.132317 -6.07392e-21)
(0.180024 0.336591 5.35405e-19)
(0.357199 0.417821 -3.71718e-19)
(0.487445 0.351108 -4.96814e-19)
(0.572023 0.289349 2.78976e-20)
(0.643882 0.241625 -1.46208e-19)
(0.701684 0.204057 1.22165e-19)
(0.750942 0.173697 -4.46835e-19)
(0.792392 0.148531 1.31824e-19)
(0.826931 0.127265 3.75302e-19)
(0.85309 0.110483 -1.8156e-19)
(0.138834 0.272754 7.27326e-20)
(0.306062 0.335925 4.6223e-19)
(0.44479 0.281296 3.33954e-19)
(0.537866 0.231337 -3.12446e-19)
(0.616302 0.192822 1.95017e-19)
(0.679057 0.162543 -8.83664e-20)
(0.732076 0.138121 -5.75785e-20)
(0.776199 0.117931 -2.7387e-20)
(0.812975 0.10087 -1.16062e-19)
(0.841915 0.0872792 2.14338e-19)
(0.106331 0.200891 -3.58549e-19)
(0.266165 0.24594 -4.18054e-19)
(0.411708 0.205429 -6.76848e-21)
(0.511393 0.168717 2.97794e-19)
(0.594946 0.140456 -5.46313e-20)
(0.661541 0.118264 -5.90862e-20)
(0.717444 0.100379 8.58768e-20)
(0.763628 0.0855933 -4.64043e-20)
(0.80221 0.0730684 -3.70403e-20)
(0.833463 0.0630097 3.8515e-20)
(0.0838625 0.123039 5.21286e-20)
(0.23882 0.150035 -6.85746e-20)
(0.389132 0.125114 2.95928e-19)
(0.493339 0.102669 -7.25961e-20)
(0.580396 0.0854007 1.36997e-19)
(0.649612 0.0718499 -3.68064e-20)
(0.70747 0.0609404 -5.74283e-20)
(0.755048 0.0519249 9.20027e-20)
(0.794891 0.0442686 1.28062e-20)
(0.827813 0.0380738 -3.31463e-20)
(0.0723803 0.0414971 -1.41038e-21)
(0.224916 0.0505104 1.85567e-21)
(0.377682 0.0420929 1.37562e-19)
(0.484185 0.0345325 -6.8762e-20)
(0.57302 0.0287167 3.15487e-20)
(0.643564 0.0241532 -1.67167e-20)
(0.702408 0.0204801 1.99351e-20)
(0.75069 0.0174446 -2.6192e-20)
(0.79118 0.0148622 -1.59627e-20)
(0.82498 0.0127637 5.60653e-24)
(0.072373 -0.04129 1.411e-21)
(0.224905 -0.050234 -1.85581e-21)
(0.377672 -0.0418394 -1.37568e-19)
(0.484175 -0.0343086 -2.45296e-20)
(0.573011 -0.0285174 -4.16082e-20)
(0.643556 -0.0239757 2.22738e-20)
(0.7024 -0.0203218 3.53426e-20)
(0.750682 -0.0173038 -3.24877e-20)
(0.791173 -0.0147374 -2.84921e-20)
(0.824974 -0.0126526 -1.95692e-20)
(0.0838407 -0.122833 1.66797e-19)
(0.238788 -0.14976 -1.18577e-19)
(0.389101 -0.124862 1.68878e-19)
(0.493311 -0.102446 -2.35095e-21)
(0.58037 -0.0852025 9.85405e-20)
(0.649587 -0.0716733 -8.10899e-21)
(0.707447 -0.060783 -4.98851e-20)
(0.755027 -0.0517847 2.01683e-19)
(0.794871 -0.044144 -4.73236e-20)
(0.827796 -0.0379624 -1.24829e-21)
(0.106295 -0.200687 -3.58026e-19)
(0.266113 -0.245668 4.16619e-20)
(0.411657 -0.205179 -2.27501e-19)
(0.511346 -0.168496 2.10696e-20)
(0.594903 -0.14026 1.96288e-19)
(0.661501 -0.118089 -1.32715e-19)
(0.717407 -0.100224 5.27064e-20)
(0.763592 -0.085455 -4.91821e-20)
(0.802177 -0.0729456 1.30633e-19)
(0.833435 -0.0629001 -1.73786e-19)
(0.138784 -0.272554 -5.77069e-21)
(0.305989 -0.335656 5.12963e-19)
(0.444718 -0.281051 2.79726e-19)
(0.537801 -0.23112 -1.36183e-19)
(0.616241 -0.192629 -1.60244e-19)
(0.679002 -0.162371 2.40166e-19)
(0.732024 -0.137969 -9.2167e-20)
(0.77615 -0.117795 -5.76457e-20)
(0.812929 -0.10075 -1.92337e-19)
(0.841874 -0.0871718 2.45378e-19)
(0.17996 -0.336394 1.57231e-19)
(0.357106 -0.417558 -2.27555e-19)
(0.487353 -0.350868 -6.28103e-19)
(0.57194 -0.289136 2.98734e-19)
(0.643805 -0.241435 -2.6624e-19)
(0.701612 -0.203889 -3.76515e-19)
(0.750875 -0.173547 2.90287e-20)
(0.792329 -0.148398 -1.21715e-20)
(0.826873 -0.127148 2.74199e-19)
(0.853038 -0.110379 -1.27862e-19)
(0.228266 -0.390569 2.66589e-19)
(0.417803 -0.489336 -1.52606e-19)
(0.538352 -0.413174 7.75625e-19)
(0.612883 -0.341432 -3.62774e-19)
(0.676983 -0.285698 -3.55408e-20)
(0.728913 -0.241698 4.13229e-19)
(0.773641 -0.206045 1.27117e-19)
(0.811838 -0.17649 -1.05904e-19)
(0.843792 -0.151631 -1.77132e-19)
(0.866852 -0.132217 9.51676e-20)
(0.281823 -0.433403 -4.70609e-21)
(0.486055 -0.549235 4.07138e-19)
(0.596134 -0.466899 -4.45964e-19)
(0.659484 -0.387216 3.0621e-19)
(0.714824 -0.32492 -7.54383e-20)
(0.760025 -0.275684 -2.47582e-19)
(0.799432 -0.235774 4.07173e-19)
(0.833805 -0.202634 1.56916e-19)
(0.863069 -0.174543 -1.36257e-19)
(0.883074 -0.152486 -6.87264e-20)
(0.338225 -0.463327 -1.37143e-19)
(0.559605 -0.596054 -6.41579e-19)
(0.659037 -0.511257 6.23163e-19)
(0.710582 -0.425781 -1.65623e-19)
(0.756522 -0.358358 -3.61999e-19)
(0.794539 -0.304851 1.74188e-19)
(0.828229 -0.261208 3.56346e-20)
(0.858444 -0.224726 1.90928e-19)
(0.884971 -0.19382 -2.20297e-19)
(0.901868 -0.170251 1.47114e-19)
(0.394655 -0.47932 2.37269e-19)
(0.63594 -0.629061 -4.96141e-20)
(0.725335 -0.545733 -2.2096e-19)
(0.76491 -0.456728 8.97156e-20)
(0.801039 -0.385798 3.45361e-19)
(0.831499 -0.329382 -3.82477e-19)
(0.858888 -0.283392 -2.46293e-19)
(0.883985 -0.2452 -2.00337e-19)
(0.907173 -0.212942 1.61383e-19)
(0.921928 -0.188094 -1.20652e-19)
(0.447978 -0.480957 -5.30011e-20)
(0.712264 -0.647878 9.39815e-20)
(0.793222 -0.57006 5.65968e-20)
(0.821178 -0.479839 -1.46577e-19)
(0.847364 -0.406993 -2.40948e-20)
(0.870204 -0.348772 2.12697e-19)
(0.891248 -0.301008 -2.19604e-19)
(0.911071 -0.260819 3.10497e-19)
(0.93116 -0.225998 1.54537e-19)
(0.946389 -0.199815 -5.31487e-20)
(0.495038 -0.468619 -4.93803e-21)
(0.785919 -0.652848 -2.97862e-20)
(0.860903 -0.584173 -9.0345e-20)
(0.878096 -0.495113 -6.20526e-20)
(0.894498 -0.421935 6.0176e-20)
(0.909857 -0.36307 1.56999e-19)
(0.924747 -0.314541 -6.75623e-20)
(0.939009 -0.273951 -8.16436e-20)
(0.953857 -0.240655 -2.99454e-19)
(0.968226 -0.217121 1.69359e-19)
(0.531669 -0.44266 1.84929e-19)
(0.853905 -0.644397 1.83489e-20)
(0.926495 -0.588268 -3.00285e-20)
(0.934405 -0.502804 4.92197e-20)
(0.941477 -0.430815 -1.4793e-19)
(0.949619 -0.372418 -7.63426e-20)
(0.958673 -0.324007 -9.77437e-20)
(0.967574 -0.283613 1.78133e-19)
(0.976853 -0.250722 7.26391e-20)
(0.987615 -0.223547 -6.91958e-20)
(0.555535 -0.40634 9.90252e-20)
(0.913683 -0.624068 -1.42561e-19)
(0.988462 -0.582449 -1.93383e-20)
(0.98891 -0.503356 6.61813e-21)
(0.987417 -0.433917 3.63087e-20)
(0.988761 -0.377002 -9.75752e-21)
(0.99238 -0.329387 1.78123e-19)
(0.996539 -0.2894 -1.4597e-19)
(1.00082 -0.256656 -1.08025e-20)
(1.00719 -0.227723 1.98693e-19)
(0.565453 -0.362213 -3.69747e-19)
(0.961213 -0.592194 -1.0772e-19)
(1.04493 -0.567629 -1.0266e-20)
(1.04047 -0.497323 -9.91468e-22)
(1.03153 -0.431672 5.64299e-21)
(1.02664 -0.377169 8.03685e-20)
(1.02532 -0.331016 -1.16471e-19)
(1.0255 -0.291881 2.70901e-20)
(1.02585 -0.259721 -3.2894e-20)
(1.02812 -0.23083 -5.37496e-20)
(0.560302 -0.311973 8.92359e-21)
(0.994006 -0.550355 2.92251e-19)
(1.09389 -0.545056 3.0507e-20)
(1.08798 -0.485165 -1.66916e-20)
(1.07307 -0.424617 -9.30798e-23)
(1.06278 -0.373408 2.23282e-21)
(1.05699 -0.329425 1.93557e-20)
(1.05384 -0.291648 -2.88924e-20)
(1.05124 -0.26044 4.19677e-21)
(1.05001 -0.232513 -1.83449e-21)
(0.539009 -0.257905 7.32895e-20)
(1.01051 -0.500628 -1.3695e-19)
(1.13301 -0.515593 4.81639e-20)
(1.13051 -0.467674 6.23861e-20)
(1.11145 -0.413526 -4.50723e-20)
(1.09662 -0.366263 -3.37173e-21)
(1.08699 -0.325024 -1.12039e-20)
(1.08102 -0.289097 1.55911e-20)
(1.07613 -0.258991 -2.21683e-20)
(1.07204 -0.232679 2.15858e-20)
(0.501374 -0.20279 1.00834e-19)
(1.00894 -0.444644 1.73513e-19)
(1.16026 -0.480242 9.87409e-20)
(1.16692 -0.445883 -1.06295e-19)
(1.14633 -0.399042 9.6961e-20)
(1.12792 -0.356238 -4.14805e-20)
(1.11503 -0.318309 -5.7207e-21)
(1.10649 -0.284558 -5.25703e-21)
(1.09995 -0.255662 1.96095e-21)
(1.09348 -0.231399 -1.19199e-20)
(0.448538 -0.149517 2.59592e-19)
(0.987397 -0.383962 -1.36521e-19)
(1.17383 -0.440028 7.80281e-20)
(1.19581 -0.420611 7.18572e-20)
(1.17704 -0.381882 -3.16014e-20)
(1.1565 -0.343947 4.85643e-20)
(1.14106 -0.309579 1.48262e-20)
(1.13014 -0.278356 1.54658e-20)
(1.12215 -0.250729 8.55685e-21)
(1.1143 -0.228765 3.44591e-21)
(0.383196 -0.100856 -9.49812e-20)
(0.94416 -0.320231 -1.32056e-19)
(1.17166 -0.395872 -8.71693e-20)
(1.2158 -0.39251 -7.98225e-20)
(1.20287 -0.362723 -2.78382e-20)
(1.182 -0.329939 3.62771e-20)
(1.16485 -0.299206 -1.45798e-20)
(1.15204 -0.270727 2.95851e-21)
(1.14272 -0.244818 -7.81826e-21)
(1.13421 -0.224943 4.74925e-21)
(0.309627 -0.0593969 2.45825e-20)
(0.877927 -0.255235 -5.37049e-21)
(1.15123 -0.348615 2.20482e-20)
(1.22514 -0.362021 1.44853e-20)
(1.22308 -0.342087 1.26281e-20)
(1.20409 -0.314748 -2.92243e-20)
(1.18623 -0.287668 1.3014e-20)
(1.17222 -0.262017 -1.20853e-20)
(1.16164 -0.238007 -2.95083e-21)
(1.15245 -0.219961 -3.89915e-21)
(0.233376 -0.027455 1.02385e-21)
(0.788271 -0.191046 -7.77486e-22)
(1.10969 -0.299161 -5.20466e-21)
(1.22148 -0.329405 6.6681e-20)
(1.23652 -0.32025 -1.80714e-20)
(1.2225 -0.298817 -2.07761e-20)
(1.20517 -0.27541 3.79408e-21)
(1.19049 -0.252522 -3.81097e-21)
(1.17921 -0.230345 -8.97892e-21)
(1.1691 -0.213902 -1.9741e-20)
(0.160513 -0.00665071 -9.83837e-20)
(0.676132 -0.130243 2.13354e-20)
(1.044 -0.248344 -1.8309e-19)
(1.20147 -0.294706 -6.9359e-20)
(1.2413 -0.297249 -2.56858e-20)
(1.23655 -0.282388 -7.58601e-21)
(1.22159 -0.262787 -1.94094e-20)
(1.20707 -0.242584 -1.84765e-20)
(1.19508 -0.221952 5.60333e-21)
(1.1847 -0.206876 1.37072e-20)
(0.0966243 0.00297379 1.66427e-19)
(0.546115 -0.0765147 -9.33259e-20)
(0.951549 -0.197187 1.43487e-19)
(1.16071 -0.257742 7.34495e-20)
(1.23429 -0.272782 -4.31467e-20)
(1.24503 -0.265522 1.33069e-19)
(1.23519 -0.249978 -2.7857e-20)
(1.22173 -0.232437 5.09797e-20)
(1.21003 -0.213367 3.51401e-21)
(1.19926 -0.198945 5.0477e-20)
(0.0455908 0.0034547 -1.02779e-19)
(0.408337 -0.0347023 4.26639e-19)
(0.830666 -0.147073 -9.36652e-20)
(1.09368 -0.218373 -7.95121e-20)
(1.21087 -0.246332 2.03013e-19)
(1.24528 -0.247833 -9.01684e-20)
(1.24521 -0.237065 -4.67072e-20)
(1.23475 -0.222255 -2.51124e-20)
(1.22309 -0.204701 -9.53384e-20)
(1.21352 -0.190574 3.41798e-20)
(0.00862653 -0.00164907 -1.86037e-19)
(0.277122 -0.00952042 -2.53322e-19)
(0.682812 -0.100336 2.00155e-19)
(0.99462 -0.176879 5.62578e-20)
(1.16421 -0.217068 -1.44977e-19)
(1.23303 -0.228707 -1.46722e-19)
(1.24937 -0.223581 7.83042e-21)
(1.24524 -0.212024 -9.54322e-20)
(1.23578 -0.196488 1.4506e-19)
(1.22562 -0.181386 -2.08629e-20)
(-0.0156279 -0.00881332 8.27253e-20)
(0.165895 -0.00190992 3.95806e-19)
(0.517122 -0.0612773 -4.96969e-20)
(0.859376 -0.134168 1.39835e-20)
(1.08581 -0.184228 -3.30049e-20)
(1.20042 -0.206664 1.92402e-19)
(1.24399 -0.209104 6.51195e-20)
(1.25162 -0.201127 1.10763e-19)
(1.24565 -0.188377 -1.01148e-19)
(1.23912 -0.172769 6.08124e-20)
(-0.0300348 -0.01586 -6.12353e-19)
(0.0813586 -0.00711297 1.5567e-19)
(0.35342 -0.0357098 -1.98779e-19)
(0.690362 -0.0932617 2.39633e-19)
(0.966081 -0.147139 -5.91757e-20)
(1.1371 -0.180415 -3.37619e-19)
(1.21992 -0.191578 1.80653e-19)
(1.25048 -0.189417 -6.74442e-20)
(1.25346 -0.180047 6.13588e-20)
(1.24747 -0.162778 1.83335e-19)
(-0.0373699 -0.0220008 2.8674e-19)
(0.0227932 -0.0184468 -4.31089e-19)
(0.213805 -0.026542 -5.33547e-20)
(0.504064 -0.0606811 -2.66199e-19)
(0.800865 -0.107945 -3.28719e-19)
(1.02785 -0.147637 1.61882e-19)
(1.16604 -0.170052 -2.011e-19)
(1.23089 -0.173614 -2.41688e-20)
(1.25434 -0.171726 -1.87629e-20)
(1.25827 -0.153407 -2.34182e-19)
(-0.0397407 -0.0270605 2.66297e-19)
(-0.0144592 -0.0312792 -1.01963e-19)
(0.10946 -0.0305434 9.72574e-20)
(0.329209 -0.0429968 -1.44243e-19)
(0.603842 -0.0736723 1.4193e-19)
(0.863429 -0.110426 2.6291e-19)
(1.05909 -0.139864 1.55756e-19)
(1.1822 -0.154334 -7.74602e-21)
(1.23473 -0.157592 -1.73257e-19)
(1.25944 -0.143316 1.38771e-19)
(-0.0388641 -0.0311496 3.09777e-19)
(-0.0358243 -0.043463 9.93345e-20)
(0.0391029 -0.0414934 1.66567e-19)
(0.189487 -0.0407225 4.89416e-20)
(0.407995 -0.0527778 -2.38021e-19)
(0.657714 -0.0762413 7.13567e-20)
(0.887695 -0.105157 -2.70998e-19)
(1.06761 -0.122022 3.74808e-19)
(1.18752 -0.144384 2.24565e-19)
(1.23176 -0.120259 5.9934e-20)
(-0.0360683 -0.0344314 -4.38292e-19)
(-0.0461329 -0.05408 -1.09106e-19)
(-0.00444548 -0.0543118 -1.27178e-19)
(0.0914554 -0.0483841 7.40038e-20)
(0.245396 -0.0471901 3.00719e-19)
(0.447709 -0.0551118 -2.42038e-19)
(0.671964 -0.0737497 -1.04925e-19)
(0.879306 -0.0868936 -1.32241e-19)
(1.05188 -0.111073 -4.21986e-19)
(1.1954 -0.116365 1.07147e-19)
(-0.0323118 -0.0369479 -1.788e-19)
(-0.0493616 -0.0625617 3.91414e-20)
(-0.0293227 -0.0658867 1.95255e-20)
(0.0285377 -0.0594134 -1.19718e-19)
(0.12796 -0.0518455 -1.91645e-19)
(0.271866 -0.0510032 5.06182e-19)
(0.450198 -0.0503351 7.10597e-20)
(0.659513 -0.0641886 2.20771e-19)
(0.813198 -0.0693118 -4.34608e-20)
(1.07628 -0.0955832 1.65664e-19)
(-0.028256 -0.0385982 3.18987e-19)
(-0.048528 -0.0683286 7.13466e-20)
(-0.0425538 -0.0742848 -3.37329e-19)
(-0.0101899 -0.069068 1.87979e-19)
(0.0498443 -0.0599695 3.05971e-19)
(0.144453 -0.0557091 -2.98084e-19)
(0.260169 -0.039124 2.54065e-19)
(0.452301 -0.0559499 -1.38027e-19)
(0.534755 -0.0391144 2.00326e-19)
(0.867694 -0.0675598 -3.14191e-19)
(-0.0242471 -0.0391509 6.13096e-20)
(-0.045643 -0.070764 -4.59878e-19)
(-0.0493598 -0.0783067 4.47034e-19)
(-0.0345308 -0.074555 -2.56137e-20)
(-0.00145805 -0.0660723 -1.48746e-19)
(0.0566737 -0.0598979 -5.11652e-21)
(0.121974 -0.0412454 -3.91185e-19)
(0.272342 -0.0506139 3.51238e-19)
(0.303064 -0.0296327 -2.80665e-19)
(0.606238 -0.0457577 1.95228e-19)
(-0.0203802 -0.0382248 9.19412e-20)
(-0.0419789 -0.0693627 -4.61599e-20)
(-0.0531278 -0.0773268 -1.58211e-19)
(-0.0512274 -0.0746573 -1.94256e-19)
(-0.0370764 -0.0674437 4.40534e-20)
(-0.00505375 -0.06023 -2.16079e-19)
(0.028304 -0.0469383 -7.18971e-21)
(0.126148 -0.0434955 -3.26654e-20)
(0.142049 -0.0359191 9.70054e-20)
(0.346536 -0.0328723 4.60255e-21)
(-0.0167181 -0.0354156 -2.63667e-19)
(-0.0382996 -0.0638911 1.88784e-19)
(-0.0556624 -0.0712475 2.65669e-19)
(-0.063991 -0.0692173 -1.14616e-20)
(-0.0636048 -0.0633182 8.77215e-20)
(-0.0509273 -0.0562339 -8.24168e-20)
(-0.0386092 -0.0481968 3.29586e-19)
(0.0160793 -0.0367255 -1.06003e-19)
(0.0264205 -0.0405306 -3.36537e-19)
(0.137708 -0.0197159 1.58873e-19)
(-0.013389 -0.0304779 -1.8602e-20)
(-0.0350262 -0.0544201 -2.12474e-19)
(-0.0577006 -0.0604542 -1.68062e-19)
(-0.074215 -0.0588087 1.6377e-19)
(-0.0843661 -0.054024 -1.20756e-19)
(-0.0868505 -0.0480641 5.49973e-20)
(-0.0874868 -0.0428969 4.11853e-20)
(-0.0633774 -0.030177 1.92372e-20)
(-0.0626877 -0.03497 9.98595e-20)
(-0.0070489 -0.00894438 -1.87791e-19)
(-0.0105918 -0.0234294 1.45408e-19)
(-0.0323964 -0.0413725 1.83624e-19)
(-0.0593855 -0.045702 5.73053e-21)
(-0.0821947 -0.0443803 -1.4726e-19)
(-0.100364 -0.0407594 2.40532e-20)
(-0.113582 -0.03635 3.77672e-20)
(-0.123403 -0.0320657 -5.72998e-20)
(-0.120899 -0.0230476 2.99141e-20)
(-0.126998 -0.0249005 3.05713e-20)
(-0.105434 -0.00487957 -3.15128e-20)
(-0.00855875 -0.0145935 -2.07341e-20)
(-0.0305613 -0.0255099 2.86176e-20)
(-0.0606187 -0.0279969 -1.2779e-19)
(-0.0877438 -0.0270695 3.32105e-20)
(-0.11135 -0.02476 -7.32209e-20)
(-0.131292 -0.0219969 1.98368e-20)
(-0.147624 -0.0189749 3.57249e-20)
(-0.157572 -0.0140163 -6.3893e-20)
(-0.16854 -0.0137563 -7.44146e-21)
(-0.165473 -0.0035659 2.84809e-20)
(-0.00749424 -0.00457181 -1.42844e-20)
(-0.0296198 -0.0078645 3.05052e-21)
(-0.061254 -0.00849095 6.81123e-20)
(-0.0905575 -0.00805371 2.70452e-20)
(-0.116878 -0.00717069 -1.59211e-20)
(-0.140036 -0.0061376 9.03818e-21)
(-0.159763 -0.00498715 -1.21049e-20)
(-0.175161 -0.0034283 1.86633e-20)
(-0.188967 -0.00317361 1.23548e-20)
(-0.19421 -0.000419797 6.9173e-24)
(-0.197563 0.00432255 -4.9256e-20)
(-0.201327 0.00366556 3.52521e-20)
(-0.20458 0.00285181 4.81414e-22)
(-0.207448 0.00199835 -6.10459e-21)
(-0.209996 0.00110474 -1.21855e-20)
(-0.212254 0.000171836 -1.40049e-20)
(-0.214249 -0.000801415 -2.39465e-20)
(-0.216014 -0.00181461 4.25799e-20)
(-0.217578 -0.00285244 -2.41316e-20)
(-0.21896 -0.00388594 4.94653e-20)
(-0.220171 -0.00491589 -3.11464e-20)
(-0.221224 -0.00593397 -4.49103e-21)
(-0.222126 -0.00692785 -1.09778e-20)
(-0.222883 -0.00788359 2.84571e-20)
(-0.223499 -0.00878652 -1.87363e-20)
(-0.223976 -0.00962163 1.90872e-20)
(-0.224318 -0.010374 -1.32726e-20)
(-0.224524 -0.0110289 -1.1161e-20)
(-0.224596 -0.0115726 7.18837e-21)
(-0.224534 -0.0119919 -4.76595e-21)
(-0.224338 -0.0122742 1.77668e-20)
(-0.224009 -0.0124086 -8.09357e-21)
(-0.223544 -0.0123853 -1.19619e-20)
(-0.222945 -0.0121963 7.41583e-21)
(-0.222208 -0.0118355 -1.00444e-20)
(-0.221332 -0.0112989 1.1821e-20)
(-0.220316 -0.010585 3.27418e-21)
(-0.219157 -0.00969502 -9.42789e-21)
(-0.217851 -0.00863171 1.68957e-20)
(-0.216393 -0.00740143 1.72334e-20)
(-0.214779 -0.00601474 -1.79084e-20)
(-0.213006 -0.00448524 7.5404e-21)
(-0.211072 -0.00282576 9.24148e-21)
(-0.208975 -0.00104257 -1.65824e-20)
(-0.206711 0.000843937 1.93624e-20)
(-0.204273 0.00280929 -1.89281e-20)
(-0.201674 0.0048318 2.25329e-20)
(-0.198911 0.00690182 -1.02676e-20)
(-0.195965 0.0090029 -3.97225e-21)
(-0.192836 0.0111087 7.16332e-22)
(-0.189527 0.0131782 6.01124e-21)
(-0.186036 0.0151813 3.49926e-21)
(-0.182359 0.0170906 8.2921e-23)
(-0.178495 0.0188806 -9.26113e-21)
(-0.174444 0.0205275 -1.051e-21)
(-0.170207 0.0220047 -2.97459e-21)
(-0.165782 0.0232876 6.26823e-21)
(-0.161169 0.024353 -5.35474e-22)
(-0.156369 0.0251803 6.74694e-21)
(-0.151383 0.0257519 -1.2917e-20)
(-0.14621 0.0260535 6.53626e-21)
(-0.140854 0.0260735 5.0648e-22)
(-0.135314 0.0258028 -1.11286e-20)
(-0.1296 0.0252437 5.34204e-21)
(-0.123722 0.0243884 2.42941e-21)
(-0.117684 0.0232384 1.39763e-21)
(-0.111489 0.0218006 -3.30578e-21)
(-0.105142 0.0200837 1.87068e-22)
(-0.0986452 0.018103 1.03542e-20)
(-0.0920108 0.0158852 -1.51425e-20)
(-0.085253 0.0134389 1.04458e-20)
(-0.0783778 0.010772 1.43501e-21)
(-0.0713826 0.00790127 -1.43541e-21)
(-0.0642892 0.00484007 -1.09454e-21)
(-0.0571376 0.0016156 1.20385e-21)
(-0.0499267 -0.00174226 -2.27869e-21)
(-0.0426711 -0.00514049 -2.16759e-22)
(-0.0353729 -0.00859785 -5.67284e-22)
(-0.0280258 -0.0120741 2.92404e-22)
(-0.0206637 -0.01554 1.55446e-21)
(-0.0133025 -0.0189635 -2.91862e-21)
(-0.00595753 -0.022309 -7.76427e-22)
(0.00137417 -0.0255474 2.39955e-21)
(0.00869113 -0.0286541 1.67106e-21)
(0.0159646 -0.0316121 -1.99547e-21)
(0.0231841 -0.0343783 8.17742e-22)
(0.0303533 -0.0369366 -2.17448e-21)
(0.0374673 -0.039268 1.43016e-21)