/*--------------------------------*- C++ -*----------------------------------*\
  =========                 |
  \\      /  F ield         | OpenFOAM: The Open Source CFD Toolbox
   \\    /   O peration     | Website:  https://openfoam.org
    \\  /    A nd           | Version:  7
     \\/     M anipulation  |
\*---------------------------------------------------------------------------*/
FoamFile
{
    version     2.0;
    format      ascii;
    class       volScalarField;
    location    "25";
    object      p;
}
// * * * * * * * * * * * * * * * * * * * * * * * * * * * * * * * * * * * * * //

dimensions      [0 2 -2 0 0 0 0];

internalField   nonuniform List<scalar> 
10880
(
-0.311055
-0.315823
-0.318151
-0.318416
-0.317382
-0.315305
-0.312313
-0.308523
-0.304043
-0.29896
-0.293353
-0.287298
-0.280869
-0.274145
-0.267209
-0.260155
-0.253077
-0.24605
-0.239164
-0.232762
-0.316424
-0.320417
-0.322151
-0.321975
-0.320574
-0.318186
-0.31493
-0.310917
-0.306242
-0.300985
-0.295217
-0.289001
-0.282404
-0.275492
-0.26834
-0.261039
-0.253683
-0.24629
-0.238876
-0.232402
-0.326821
-0.329323
-0.329906
-0.328863
-0.326736
-0.323727
-0.319944
-0.315482
-0.310418
-0.304815
-0.298725
-0.292197
-0.285276
-0.27801
-0.270456
-0.262697
-0.254825
-0.246764
-0.238366
-0.231676
-0.341647
-0.342047
-0.34098
-0.338676
-0.335479
-0.331549
-0.32698
-0.321845
-0.316197
-0.310076
-0.303513
-0.296533
-0.289157
-0.281407
-0.273312
-0.264945
-0.256394
-0.247474
-0.237766
-0.230609
-0.360175
-0.357987
-0.354852
-0.350937
-0.346355
-0.341224
-0.335621
-0.329595
-0.323173
-0.31637
-0.30919
-0.301633
-0.293694
-0.285365
-0.276647
-0.267592
-0.258286
-0.248446
-0.237291
-0.229303
-0.381687
-0.376542
-0.371006
-0.365186
-0.358952
-0.35237
-0.345511
-0.338397
-0.331025
-0.323384
-0.315451
-0.307199
-0.298599
-0.289616
-0.280225
-0.27045
-0.260374
-0.249644
-0.23707
-0.227805
-0.405556
-0.397182
-0.388996
-0.38105
-0.372953
-0.364727
-0.356429
-0.348058
-0.339579
-0.330952
-0.322128
-0.313055
-0.303681
-0.293948
-0.283805
-0.273244
-0.262311
-0.250578
-0.236493
-0.225485
-0.431249
-0.419456
-0.408447
-0.398231
-0.388136
-0.378133
-0.368265
-0.358502
-0.348779
-0.339027
-0.329177
-0.31916
-0.308915
-0.298383
-0.287511
-0.276277
-0.264646
-0.252102
-0.237272
-0.225743
-0.458225
-0.442878
-0.428971
-0.416432
-0.404283
-0.392429
-0.380895
-0.369618
-0.358502
-0.347454
-0.336394
-0.325258
-0.314007
-0.302634
-0.291177
-0.27973
-0.268417
-0.25748
-0.248153
-0.24275
-0.485793
-0.466852
-0.450061
-0.43523
-0.421033
-0.40729
-0.393996
-0.381048
-0.368316
-0.355683
-0.343059
-0.330379
-0.31761
-0.304758
-0.291865
-0.279008
-0.26628
-0.253956
-0.242952
-0.232517
-0.512947
-0.490494
-0.470945
-0.453934
-0.437741
-0.422081
-0.406908
-0.39208
-0.377441
-0.362868
-0.348277
-0.333626
-0.318908
-0.304159
-0.289441
-0.274836
-0.260435
-0.246427
-0.233227
-0.219704
-0.53824
-0.512526
-0.490471
-0.471455
-0.453336
-0.435705
-0.418475
-0.401482
-0.384568
-0.367635
-0.350641
-0.333593
-0.31654
-0.299564
-0.282765
-0.266247
-0.250107
-0.234496
-0.219616
-0.204488
-0.559729
-0.531221
-0.507041
-0.486247
-0.466265
-0.446567
-0.427048
-0.407558
-0.387986
-0.368305
-0.348559
-0.328844
-0.309288
-0.290039
-0.27124
-0.253021
-0.23549
-0.218777
-0.202987
-0.187346
-0.575024
-0.544419
-0.518622
-0.496308
-0.474513
-0.452624
-0.430569
-0.408274
-0.385737
-0.363058
-0.34041
-0.317999
-0.296039
-0.274734
-0.254256
-0.234733
-0.21626
-0.198925
-0.182744
-0.16712
-0.581415
-0.54963
-0.52283
-0.499282
-0.475729
-0.451548
-0.426775
-0.401493
-0.375878
-0.350206
-0.324795
-0.299964
-0.275995
-0.253115
-0.231489
-0.211214
-0.192339
-0.174881
-0.158768
-0.143608
-0.576078
-0.544209
-0.517108
-0.492643
-0.467435
-0.44096
-0.413455
-0.385242
-0.356732
-0.328394
-0.300689
-0.274018
-0.248688
-0.224909
-0.2028
-0.182399
-0.163686
-0.146584
-0.130949
-0.116687
-0.556336
-0.525602
-0.498959
-0.473952
-0.447301
-0.418715
-0.388728
-0.357964
-0.327089
-0.296758
-0.267536
-0.239854
-0.213999
-0.190123
-0.168267
-0.148395
-0.130411
-0.11414
-0.0993939
-0.0864823
-0.519948
-0.491611
-0.466226
-0.441141
-0.413433
-0.383182
-0.351289
-0.318706
-0.286342
-0.254991
-0.225266
-0.197573
-0.172131
-0.149005
-0.128146
-0.10944
-0.0927179
-0.0777049
-0.0641895
-0.0529393
-0.465386
-0.440683
-0.417378
-0.392793
-0.364634
-0.333462
-0.300572
-0.26723
-0.234535
-0.203355
-0.174285
-0.14766
-0.1236
-0.102068
-0.0829271
-0.0659956
-0.0510366
-0.0376831
-0.0256908
-0.0164063
-0.392071
-0.372147
-0.351747
-0.328374
-0.300602
-0.269534
-0.236842
-0.204045
-0.172357
-0.142646
-0.115435
-0.0909524
-0.0692084
-0.0500682
-0.0333228
-0.0187397
-0.00602377
0.00529887
0.0153788
0.0221519
-0.300546
-0.286387
-0.269705
-0.248378
-0.222021
-0.1923
-0.16119
-0.13037
-0.101074
-0.0741298
-0.0499309
-0.0285876
-0.010005
0.00603273
0.0197872
0.0315217
0.0415772
0.0505157
0.0583992
0.0624242
-0.192515
-0.184939
-0.172745
-0.154383
-0.130551
-0.103537
-0.0754555
-0.0480391
-0.0224872
0.000510149
0.0206754
0.0380169
0.0527199
0.0650589
0.075326
0.0837989
0.0908526
0.0971092
0.102511
0.10357
-0.0707033
-0.0705432
-0.0634392
-0.0488938
-0.0288547
-0.00585769
0.0178464
0.0405641
0.0612172
0.0792629
0.0945544
0.107199
0.117445
0.125597
0.131956
0.136801
0.140505
0.143636
0.145989
0.144061
0.0605326
0.0533474
0.0547071
0.0645476
0.0797665
0.0975629
0.115726
0.132693
0.147547
0.159901
0.169725
0.1772
0.182606
0.186243
0.188397
0.189327
0.189273
0.188452
0.186706
0.182139
0.196797
0.182061
0.177351
0.181831
0.191379
0.203066
0.214838
0.22533
0.233814
0.240054
0.244127
0.246271
0.246784
0.245972
0.244133
0.241545
0.238261
0.233834
0.228652
0.228459
0.332702
0.310576
0.299682
0.29839
0.301715
0.306734
0.311634
0.315283
0.317144
0.317118
0.315359
0.312137
0.307749
0.302486
0.296624
0.290397
0.283821
0.276607
0.269476
0.26677
0.462647
0.433585
0.416649
0.409486
0.406416
0.404626
0.402594
0.399433
0.394789
0.388677
0.381306
0.372956
0.363912
0.354434
0.344754
0.335057
0.325348
0.315466
0.306064
0.300239
0.581105
0.545811
0.523262
0.510477
0.501248
0.49294
0.484336
0.474787
0.464099
0.452377
0.439863
0.426837
0.413557
0.400248
0.387099
0.374248
0.3617
0.349348
0.337679
0.328829
0.682917
0.642326
0.614874
0.597069
0.582323
0.56821
0.553798
0.53865
0.522701
0.506125
0.489184
0.472144
0.455239
0.438656
0.422544
0.407004
0.392039
0.377579
0.363942
0.352476
0.76357
0.718819
0.687431
0.665534
0.646286
0.627456
0.608352
0.588707
0.568556
0.548119
0.527667
0.507454
0.487685
0.46852
0.450072
0.432413
0.415547
0.39943
0.384231
0.370678
0.819452
0.771834
0.737694
0.712905
0.690474
0.668319
0.645924
0.623135
0.600057
0.576939
0.554055
0.531645
0.509899
0.488951
0.468892
0.449772
0.431598
0.414343
0.398065
0.383058
0.848041
0.79896
0.763405
0.737119
0.713041
0.689169
0.665076
0.640671
0.616092
0.591601
0.567472
0.543941
0.521184
0.499326
0.478445
0.45858
0.43974
0.421906
0.405077
0.389323
0.848041
0.79896
0.763405
0.737119
0.713041
0.689169
0.665076
0.640671
0.616092
0.591601
0.567472
0.543941
0.521184
0.499326
0.478445
0.45858
0.43974
0.421906
0.405077
0.389323
0.819452
0.771834
0.737694
0.712905
0.690474
0.668319
0.645924
0.623135
0.600057
0.576939
0.554055
0.531645
0.509899
0.488951
0.468892
0.449772
0.431598
0.414343
0.398065
0.383058
0.76357
0.718819
0.687431
0.665534
0.646286
0.627456
0.608352
0.588707
0.568556
0.548119
0.527667
0.507454
0.487685
0.46852
0.450072
0.432413
0.415547
0.39943
0.384231
0.370678
0.682917
0.642326
0.614874
0.597069
0.582323
0.56821
0.553798
0.53865
0.522701
0.506125
0.489184
0.472144
0.455239
0.438656
0.422544
0.407004
0.392039
0.377579
0.363942
0.352476
0.581105
0.545811
0.523262
0.510477
0.501248
0.49294
0.484336
0.474787
0.464099
0.452377
0.439863
0.426837
0.413557
0.400248
0.387099
0.374248
0.3617
0.349348
0.337679
0.328829
0.462647
0.433585
0.416649
0.409486
0.406416
0.404626
0.402594
0.399433
0.394789
0.388677
0.381306
0.372956
0.363912
0.354434
0.344754
0.335057
0.325348
0.315466
0.306064
0.300239
0.332702
0.310576
0.299682
0.29839
0.301715
0.306734
0.311634
0.315283
0.317144
0.317118
0.315359
0.312137
0.307749
0.302486
0.296624
0.290397
0.283821
0.276607
0.269476
0.26677
0.196797
0.182061
0.177351
0.181831
0.191379
0.203066
0.214838
0.22533
0.233814
0.240054
0.244127
0.246271
0.246784
0.245972
0.244133
0.241545
0.238261
0.233834
0.228652
0.228459
0.0605326
0.0533474
0.0547071
0.0645476
0.0797665
0.0975629
0.115726
0.132693
0.147547
0.159901
0.169725
0.1772
0.182606
0.186243
0.188397
0.189327
0.189273
0.188452
0.186706
0.182139
-0.0707033
-0.0705432
-0.0634392
-0.0488938
-0.0288547
-0.00585769
0.0178464
0.0405641
0.0612172
0.0792629
0.0945544
0.107199
0.117445
0.125597
0.131956
0.136801
0.140505
0.143636
0.145989
0.144061
-0.192515
-0.184939
-0.172745
-0.154383
-0.130551
-0.103537
-0.0754555
-0.0480391
-0.0224872
0.00051015
0.0206754
0.0380169
0.05272
0.0650589
0.075326
0.0837989
0.0908526
0.0971092
0.102511
0.10357
-0.300546
-0.286387
-0.269705
-0.248378
-0.222021
-0.1923
-0.16119
-0.13037
-0.101074
-0.0741298
-0.0499309
-0.0285876
-0.010005
0.00603273
0.0197872
0.0315217
0.0415772
0.0505157
0.0583992
0.0624242
-0.392071
-0.372147
-0.351747
-0.328374
-0.300602
-0.269534
-0.236842
-0.204045
-0.172357
-0.142646
-0.115435
-0.0909524
-0.0692084
-0.0500682
-0.0333228
-0.0187397
-0.00602377
0.00529887
0.0153788
0.0221519
-0.465386
-0.440683
-0.417378
-0.392793
-0.364634
-0.333462
-0.300572
-0.26723
-0.234535
-0.203355
-0.174285
-0.14766
-0.1236
-0.102068
-0.0829271
-0.0659956
-0.0510366
-0.0376831
-0.0256908
-0.0164063
-0.519948
-0.491611
-0.466226
-0.441141
-0.413433
-0.383182
-0.351289
-0.318706
-0.286342
-0.254991
-0.225266
-0.197573
-0.172131
-0.149005
-0.128146
-0.10944
-0.0927179
-0.0777049
-0.0641895
-0.0529393
-0.556336
-0.525602
-0.498959
-0.473952
-0.447301
-0.418715
-0.388728
-0.357964
-0.327089
-0.296758
-0.267536
-0.239854
-0.213999
-0.190123
-0.168267
-0.148395
-0.130411
-0.11414
-0.0993939
-0.0864823
-0.576078
-0.544209
-0.517108
-0.492643
-0.467435
-0.44096
-0.413455
-0.385242
-0.356732
-0.328394
-0.300689
-0.274018
-0.248688
-0.224909
-0.2028
-0.182399
-0.163686
-0.146584
-0.130949
-0.116687
-0.581415
-0.54963
-0.52283
-0.499282
-0.475729
-0.451548
-0.426775
-0.401493
-0.375878
-0.350206
-0.324795
-0.299964
-0.275995
-0.253115
-0.231489
-0.211214
-0.192339
-0.174881
-0.158768
-0.143608
-0.575024
-0.544419
-0.518622
-0.496308
-0.474513
-0.452624
-0.430569
-0.408274
-0.385737
-0.363058
-0.34041
-0.317999
-0.296039
-0.274734
-0.254256
-0.234733
-0.21626
-0.198925
-0.182744
-0.16712
-0.559729
-0.531221
-0.507041
-0.486247
-0.466265
-0.446567
-0.427048
-0.407558
-0.387986
-0.368305
-0.348559
-0.328844
-0.309288
-0.290039
-0.27124
-0.253021
-0.23549
-0.218777
-0.202987
-0.187346
-0.53824
-0.512526
-0.490471
-0.471455
-0.453336
-0.435705
-0.418475
-0.401482
-0.384568
-0.367635
-0.350641
-0.333593
-0.31654
-0.299564
-0.282765
-0.266247
-0.250107
-0.234496
-0.219616
-0.204488
-0.512947
-0.490494
-0.470945
-0.453934
-0.437741
-0.422081
-0.406908
-0.39208
-0.377441
-0.362868
-0.348277
-0.333626
-0.318908
-0.304159
-0.289441
-0.274836
-0.260435
-0.246427
-0.233227
-0.219704
-0.485793
-0.466852
-0.450061
-0.43523
-0.421033
-0.40729
-0.393996
-0.381048
-0.368316
-0.355683
-0.343059
-0.330379
-0.31761
-0.304758
-0.291865
-0.279008
-0.26628
-0.253956
-0.242952
-0.232517
-0.458225
-0.442878
-0.428971
-0.416432
-0.404283
-0.392429
-0.380895
-0.369618
-0.358502
-0.347454
-0.336394
-0.325258
-0.314007
-0.302634
-0.291177
-0.27973
-0.268417
-0.25748
-0.248153
-0.24275
-0.431249
-0.419456
-0.408447
-0.398231
-0.388136
-0.378133
-0.368265
-0.358502
-0.348779
-0.339027
-0.329177
-0.31916
-0.308915
-0.298383
-0.287511
-0.276277
-0.264646
-0.252102
-0.237272
-0.225743
-0.405556
-0.397182
-0.388996
-0.38105
-0.372953
-0.364727
-0.356429
-0.348058
-0.339579
-0.330952
-0.322128
-0.313055
-0.303681
-0.293948
-0.283805
-0.273244
-0.262311
-0.250578
-0.236493
-0.225485
-0.381687
-0.376542
-0.371006
-0.365186
-0.358952
-0.35237
-0.345511
-0.338397
-0.331025
-0.323384
-0.315451
-0.307199
-0.298599
-0.289616
-0.280225
-0.27045
-0.260374
-0.249644
-0.23707
-0.227805
-0.360175
-0.357987
-0.354852
-0.350937
-0.346355
-0.341224
-0.335621
-0.329595
-0.323173
-0.31637
-0.30919
-0.301633
-0.293694
-0.285365
-0.276647
-0.267592
-0.258286
-0.248446
-0.237291
-0.229303
-0.341647
-0.342047
-0.34098
-0.338676
-0.335479
-0.331549
-0.32698
-0.321845
-0.316197
-0.310076
-0.303513
-0.296533
-0.289157
-0.281407
-0.273312
-0.264945
-0.256394
-0.247474
-0.237766
-0.230609
-0.326821
-0.329323
-0.329906
-0.328863
-0.326736
-0.323727
-0.319944
-0.315482
-0.310418
-0.304815
-0.298725
-0.292197
-0.285276
-0.27801
-0.270456
-0.262697
-0.254825
-0.246764
-0.238366
-0.231676
-0.316424
-0.320417
-0.322151
-0.321975
-0.320574
-0.318186
-0.31493
-0.310917
-0.306242
-0.300985
-0.295217
-0.289001
-0.282404
-0.275492
-0.26834
-0.261039
-0.253683
-0.24629
-0.238876
-0.232402
-0.311055
-0.315823
-0.318151
-0.318416
-0.317382
-0.315305
-0.312313
-0.308523
-0.304043
-0.29896
-0.293353
-0.287298
-0.280869
-0.274145
-0.267209
-0.260155
-0.253077
-0.24605
-0.239164
-0.232762
-0.227397
-0.221273
-0.214908
-0.208631
-0.202458
-0.196361
-0.190342
-0.184412
-0.178579
-0.172849
-0.167229
-0.161722
-0.156334
-0.151068
-0.145929
-0.140918
-0.136039
-0.131292
-0.12668
-0.122202
-0.117859
-0.11365
-0.109574
-0.105629
-0.101816
-0.0981302
-0.0945708
-0.0911349
-0.0878198
-0.0846226
-0.0815404
-0.07857
-0.0757083
-0.0729519
-0.0702976
-0.0677421
-0.0652821
-0.0629142
-0.0606353
-0.0584422
-0.0563316
-0.0543005
-0.0523458
-0.0504645
-0.0486538
-0.0469109
-0.045233
-0.0436175
-0.0420617
-0.0405633
-0.0391199
-0.037729
-0.0363886
-0.0350965
-0.0338505
-0.0326488
-0.0314894
-0.0303706
-0.0292905
-0.0282475
-0.02724
-0.0262664
-0.0253254
-0.0244155
-0.0235353
-0.0226836
-0.0218592
-0.0210608
-0.0202875
-0.019538
-0.0188115
-0.0181069
-0.0174233
-0.0167599
-0.0161157
-0.0154901
-0.0148823
-0.0142915
-0.013717
-0.0131583
-0.0126146
-0.0120854
-0.0115701
-0.0110682
-0.0105791
-0.0101025
-0.00963776
-0.00918454
-0.00874238
-0.00831089
-0.0078897
-0.00747843
-0.00707676
-0.00668434
-0.00630086
-0.00592602
-0.00555953
-0.00520111
-0.00485048
-0.0045074
-0.00417159
-0.00384281
-0.00352081
-0.00320533
-0.00289612
-0.00259292
-0.00229544
-0.00200341
-0.00171651
-0.0014344
-0.00115669
-0.000882958
-0.000612718
-0.00034532
-7.97725e-05
0.000183526
0.000438375
0.00070589
0.00115132
0.00148204
-0.229333
-0.223316
-0.216506
-0.209993
-0.203726
-0.197561
-0.191478
-0.185493
-0.179613
-0.173843
-0.168185
-0.162644
-0.157224
-0.151928
-0.14676
-0.141722
-0.136816
-0.132044
-0.127408
-0.122906
-0.11854
-0.114309
-0.110212
-0.106247
-0.102413
-0.0987084
-0.0951302
-0.0916761
-0.0883433
-0.085129
-0.0820302
-0.0790437
-0.0761663
-0.0733948
-0.0707258
-0.0681561
-0.0656823
-0.0633011
-0.0610093
-0.0588036
-0.0566809
-0.0546381
-0.0526721
-0.0507799
-0.0489587
-0.0472055
-0.0455177
-0.0438927
-0.0423277
-0.0408204
-0.0393684
-0.0379692
-0.0366208
-0.0353209
-0.0340674
-0.0328585
-0.0316921
-0.0305665
-0.0294799
-0.0284306
-0.027417
-0.0264376
-0.0254909
-0.0245755
-0.02369
-0.0228332
-0.0220038
-0.0212006
-0.0204226
-0.0196687
-0.0189378
-0.018229
-0.0175414
-0.016874
-0.0162261
-0.0155968
-0.0149854
-0.0143912
-0.0138133
-0.0132513
-0.0127045
-0.0121723
-0.011654
-0.0111492
-0.0106574
-0.0101781
-0.00971079
-0.00925503
-0.00881042
-0.00837656
-0.00795306
-0.00753957
-0.00713573
-0.00674122
-0.00635572
-0.00597893
-0.00561056
-0.00525033
-0.00489797
-0.00455321
-0.00421582
-0.00388553
-0.00356211
-0.0032453
-0.00293487
-0.00263055
-0.0023321
-0.00203923
-0.00175167
-0.0014691
-0.00119117
-0.000917508
-0.000647683
-0.000381131
-0.000116982
0.000144355
0.000396961
0.000660112
0.00108991
0.00141327
-0.233003
-0.22729
-0.219607
-0.212613
-0.206154
-0.199852
-0.193639
-0.187541
-0.181568
-0.175718
-0.16999
-0.164385
-0.158905
-0.153555
-0.148335
-0.143248
-0.138296
-0.133479
-0.128799
-0.124256
-0.11985
-0.11558
-0.111444
-0.107443
-0.103573
-0.0998331
-0.0962206
-0.0927331
-0.0893677
-0.0861217
-0.0829919
-0.0799752
-0.0770685
-0.0742683
-0.0715715
-0.0689747
-0.0664745
-0.0640678
-0.0617511
-0.0595214
-0.0573753
-0.0553097
-0.0533217
-0.0514082
-0.0495663
-0.0477931
-0.046086
-0.0444421
-0.042859
-0.0413341
-0.0398651
-0.0384495
-0.0370852
-0.0357699
-0.0345016
-0.0332783
-0.032098
-0.030959
-0.0298594
-0.0287975
-0.0277718
-0.0267807
-0.0258226
-0.0248962
-0.0240001
-0.023133
-0.0222937
-0.021481
-0.0206937
-0.0199308
-0.0191912
-0.018474
-0.0177783
-0.017103
-0.0164475
-0.0158108
-0.0151922
-0.014591
-0.0140065
-0.013438
-0.0128849
-0.0123465
-0.0118223
-0.0113118
-0.0108145
-0.0103297
-0.00985718
-0.00939635
-0.00894683
-0.00850821
-0.00808009
-0.00766213
-0.00725396
-0.00685526
-0.00646571
-0.006085
-0.00571285
-0.00534898
-0.00499313
-0.00464503
-0.00430444
-0.00397111
-0.00364482
-0.00332533
-0.00301241
-0.00270583
-0.00240537
-0.00211078
-0.00182182
-0.00153822
-0.00125973
-0.000986035
-0.000716828
-0.000451696
-0.000189985
6.78654e-05
0.000316466
0.000571799
0.000972903
0.00128246
-0.237971
-0.232865
-0.223951
-0.216246
-0.209514
-0.203014
-0.196605
-0.190338
-0.184231
-0.17827
-0.172445
-0.166755
-0.1612
-0.155781
-0.150498
-0.145352
-0.140344
-0.135474
-0.130743
-0.12615
-0.121695
-0.117377
-0.113195
-0.109148
-0.105232
-0.101448
-0.0977915
-0.0942606
-0.0908526
-0.0875645
-0.0843934
-0.0813361
-0.0783894
-0.0755501
-0.0728149
-0.0701806
-0.0676437
-0.065201
-0.0628493
-0.0605854
-0.0584059
-0.0563079
-0.0542883
-0.052344
-0.0504722
-0.04867
-0.0469347
-0.0452634
-0.0436538
-0.0421031
-0.0406091
-0.0391693
-0.0377815
-0.0364434
-0.0351531
-0.0339085
-0.0327076
-0.0315485
-0.0304296
-0.029349
-0.0283052
-0.0272965
-0.0263215
-0.0253787
-0.0244667
-0.0235842
-0.02273
-0.0219029
-0.0211017
-0.0203253
-0.0195726
-0.0188428
-0.0181348
-0.0174477
-0.0167806
-0.0161328
-0.0155035
-0.0148919
-0.0142972
-0.0137189
-0.0131563
-0.0126087
-0.0120757
-0.0115565
-0.0110508
-0.0105579
-0.0100775
-0.00960903
-0.00915211
-0.00870631
-0.00827124
-0.00784654
-0.00743186
-0.00702684
-0.00663119
-0.00624458
-0.00586674
-0.00549738
-0.00513625
-0.00478309
-0.00443767
-0.00409974
-0.00376909
-0.00344551
-0.00312878
-0.00281871
-0.00251511
-0.00221777
-0.00192651
-0.00164114
-0.00136149
-0.00108735
-0.000818572
-0.000554922
-0.000296026
-4.23696e-05
0.000201365
0.000447064
0.000811005
0.00110212
-0.243515
-0.239321
-0.228985
-0.220451
-0.213423
-0.20669
-0.200036
-0.193565
-0.1873
-0.181213
-0.175284
-0.169507
-0.163878
-0.158394
-0.153053
-0.147854
-0.142796
-0.137879
-0.133101
-0.128463
-0.123962
-0.119599
-0.115371
-0.111278
-0.107317
-0.103486
-0.0997823
-0.0962045
-0.0927494
-0.0894142
-0.0861961
-0.083092
-0.0800988
-0.0772134
-0.0744325
-0.0717529
-0.0691715
-0.0666849
-0.06429
-0.0619836
-0.0597626
-0.0576238
-0.0555643
-0.053581
-0.0516711
-0.0498317
-0.0480601
-0.0463535
-0.0447095
-0.0431254
-0.0415988
-0.0401274
-0.0387089
-0.0373411
-0.0360218
-0.0347491
-0.033521
-0.0323356
-0.031191
-0.0300857
-0.0290178
-0.0279858
-0.0269882
-0.0260236
-0.0250904
-0.0241875
-0.0233134
-0.0224671
-0.0216472
-0.0208528
-0.0200827
-0.019336
-0.0186116
-0.0179086
-0.0172262
-0.0165635
-0.0159198
-0.0152942
-0.014686
-0.0140946
-0.0135193
-0.0129594
-0.0124144
-0.0118837
-0.0113667
-0.010863
-0.010372
-0.00989336
-0.00942653
-0.00897113
-0.00852677
-0.00809306
-0.00766964
-0.00725618
-0.00685235
-0.00645785
-0.00607238
-0.00569567
-0.00532746
-0.0049675
-0.00461556
-0.00427141
-0.00393486
-0.00360571
-0.00328377
-0.00296887
-0.00266086
-0.00235959
-0.00206493
-0.00177678
-0.00149504
-0.00121965
-0.000950568
-0.000687788
-0.00043121
-0.000181381
5.78252e-05
0.000294138
0.000618186
0.000888704
-0.248433
-0.245298
-0.233688
-0.224483
-0.21725
-0.21029
-0.203384
-0.196714
-0.190306
-0.184111
-0.1781
-0.172261
-0.166586
-0.161067
-0.155697
-0.150474
-0.145394
-0.140454
-0.135653
-0.13099
-0.126463
-0.122071
-0.117811
-0.113684
-0.109686
-0.105817
-0.102073
-0.0984528
-0.0949538
-0.0915736
-0.0883092
-0.0851581
-0.0821172
-0.0791836
-0.0763543
-0.0736263
-0.0709964
-0.0684616
-0.0660189
-0.063665
-0.061397
-0.059212
-0.0571068
-0.0550787
-0.0531248
-0.0512422
-0.0494283
-0.0476804
-0.0459959
-0.0443723
-0.0428073
-0.0412983
-0.0398432
-0.0384398
-0.0370859
-0.0357796
-0.0345187
-0.0333015
-0.0321261
-0.0309907
-0.0298938
-0.0288336
-0.0278086
-0.0268174
-0.0258585
-0.0249306
-0.0240324
-0.0231626
-0.02232
-0.0215035
-0.0207121
-0.0199447
-0.0192002
-0.0184778
-0.0177766
-0.0170957
-0.0164343
-0.0157916
-0.0151668
-0.0145593
-0.0139683
-0.0133933
-0.0128336
-0.0122887
-0.0117579
-0.0112408
-0.0107369
-0.0102457
-0.00976664
-0.00929943
-0.0088436
-0.00839879
-0.00796461
-0.00754072
-0.00712681
-0.00672254
-0.00632764
-0.00594182
-0.00556482
-0.00519641
-0.00483636
-0.00448445
-0.00414049
-0.00380431
-0.00347574
-0.00315464
-0.00284089
-0.0025344
-0.00223509
-0.00194291
-0.00165787
-0.00138
-0.00110938
-0.000846182
-0.000590538
-0.00034305
-0.000106761
0.000122474
0.000409658
0.000660351
-0.250739
-0.248469
-0.236486
-0.227452
-0.22041
-0.213432
-0.206468
-0.199766
-0.193331
-0.187105
-0.181067
-0.175208
-0.169517
-0.163986
-0.158607
-0.153375
-0.148285
-0.143334
-0.13852
-0.133841
-0.129295
-0.124879
-0.120594
-0.116437
-0.112406
-0.108501
-0.104718
-0.101056
-0.0975134
-0.0940872
-0.0907751
-0.0875747
-0.0844833
-0.0814982
-0.0786167
-0.0758359
-0.0731529
-0.0705648
-0.0680688
-0.0656618
-0.0633411
-0.0611036
-0.0589466
-0.0568673
-0.0548629
-0.0529306
-0.0510678
-0.0492719
-0.0475403
-0.0458707
-0.0442605
-0.0427075
-0.0412094
-0.0397639
-0.0383691
-0.0370228
-0.0357231
-0.034468
-0.0332558
-0.0320847
-0.0309529
-0.0298589
-0.0288011
-0.027778
-0.0267881
-0.0258302
-0.0249028
-0.0240047
-0.0231347
-0.0222916
-0.0214743
-0.0206819
-0.0199132
-0.0191672
-0.0184432
-0.0177402
-0.0170573
-0.0163938
-0.0157488
-0.0151218
-0.0145119
-0.0139185
-0.013341
-0.0127787
-0.0122312
-0.0116979
-0.0111782
-0.0106716
-0.0101778
-0.0096962
-0.00922644
-0.00876811
-0.00832083
-0.00788426
-0.00745805
-0.00704188
-0.00663546
-0.00623851
-0.00585076
-0.00547199
-0.00510195
-0.00474045
-0.00438731
-0.00404236
-0.00370545
-0.00337647
-0.00305534
-0.00274197
-0.00243635
-0.00213849
-0.00184843
-0.00156629
-0.00129225
-0.00102655
-0.000769491
-0.000521681
-0.000285346
-5.89137e-05
0.000199555
0.000434461
-0.249513
-0.245605
-0.234933
-0.227103
-0.220414
-0.213636
-0.206975
-0.200586
-0.194421
-0.188436
-0.182621
-0.176969
-0.171468
-0.166109
-0.160886
-0.155793
-0.150826
-0.145983
-0.141262
-0.136661
-0.132179
-0.127815
-0.123568
-0.119438
-0.115424
-0.111525
-0.10774
-0.104067
-0.100505
-0.0970537
-0.0937101
-0.0904729
-0.08734
-0.0843094
-0.0813789
-0.0785461
-0.0758086
-0.0731641
-0.07061
-0.0681438
-0.065763
-0.0634648
-0.0612468
-0.0591064
-0.057041
-0.0550481
-0.0531252
-0.0512699
-0.0494797
-0.0477522
-0.0460852
-0.0444764
-0.0429236
-0.0414246
-0.0399775
-0.0385801
-0.0372305
-0.0359268
-0.0346672
-0.03345
-0.0322735
-0.0311359
-0.0300358
-0.0289716
-0.0279419
-0.0269453
-0.0259804
-0.025046
-0.0241407
-0.0232635
-0.0224132
-0.0215887
-0.020789
-0.0200131
-0.01926
-0.0185288
-0.0178187
-0.0171288
-0.0164583
-0.0158066
-0.0151727
-0.0145562
-0.0139563
-0.0133724
-0.0128039
-0.0122502
-0.0117108
-0.0111852
-0.0106729
-0.0101735
-0.00968642
-0.00921134
-0.00874785
-0.00829558
-0.00785418
-0.00742331
-0.00700267
-0.00659197
-0.00619095
-0.00579935
-0.00541696
-0.00504356
-0.00467897
-0.00432304
-0.00397563
-0.00363665
-0.003306
-0.00298366
-0.00266961
-0.0023639
-0.00206661
-0.00177788
-0.00149793
-0.00122703
-0.000965523
-0.000713919
-0.00047361
-0.00024423
-2.51246e-06
0.000223439
-0.219519
-0.219456
-0.218987
-0.216228
-0.211932
-0.207008
-0.201843
-0.196545
-0.191181
-0.185812
-0.180484
-0.175222
-0.170042
-0.164952
-0.159958
-0.155064
-0.150272
-0.145584
-0.141002
-0.136526
-0.132157
-0.127896
-0.123742
-0.119696
-0.115758
-0.111927
-0.108204
-0.104587
-0.101076
-0.0976687
-0.0943649
-0.0911628
-0.0880607
-0.0850569
-0.0821495
-0.0793365
-0.0766156
-0.0739848
-0.0714418
-0.0689841
-0.0666096
-0.0643157
-0.0621001
-0.0599603
-0.057894
-0.0558988
-0.0539723
-0.0521123
-0.0503162
-0.0485821
-0.0469075
-0.0452904
-0.0437286
-0.0422201
-0.0407628
-0.0393549
-0.0379944
-0.0366795
-0.0354084
-0.0341795
-0.032991
-0.0318413
-0.030729
-0.0296525
-0.0286105
-0.0276015
-0.0266242
-0.0256773
-0.0247598
-0.0238702
-0.0230077
-0.022171
-0.0213592
-0.0205713
-0.0198063
-0.0190634
-0.0183416
-0.0176402
-0.0169584
-0.0162954
-0.0156505
-0.015023
-0.0144123
-0.0138178
-0.0132387
-0.0126747
-0.0121251
-0.0115895
-0.0110673
-0.0105581
-0.0100614
-0.00957693
-0.00910415
-0.00864274
-0.00819236
-0.00775267
-0.00732337
-0.00690418
-0.00649482
-0.00609506
-0.00570468
-0.00532348
-0.00495129
-0.00458796
-0.00423337
-0.00388743
-0.00355009
-0.00322131
-0.00290112
-0.00258957
-0.00228676
-0.00199286
-0.00170808
-0.00143269
-0.00116704
-0.000911535
-0.000666893
-0.000433274
-0.000203398
1.29754e-05
-0.207279
-0.206387
-0.204061
-0.200528
-0.196516
-0.192347
-0.188062
-0.183673
-0.179219
-0.174738
-0.17026
-0.165799
-0.16137
-0.156982
-0.152643
-0.14836
-0.144138
-0.139982
-0.135897
-0.131885
-0.127949
-0.124092
-0.120316
-0.116622
-0.113013
-0.109489
-0.106051
-0.102699
-0.099434
-0.0962555
-0.0931634
-0.0901571
-0.0872358
-0.0843988
-0.0816448
-0.0789728
-0.0763812
-0.0738687
-0.0714336
-0.0690743
-0.0667891
-0.0645761
-0.0624336
-0.0603597
-0.0583524
-0.0564098
-0.0545302
-0.0527114
-0.0509518
-0.0492493
-0.0476021
-0.0460084
-0.0444664
-0.0429743
-0.0415304
-0.040133
-0.0387804
-0.0374711
-0.0362034
-0.0349758
-0.033787
-0.0326354
-0.0315196
-0.0304383
-0.0293903
-0.0283743
-0.027389
-0.0264333
-0.0255061
-0.0246064
-0.023733
-0.022885
-0.0220614
-0.0212613
-0.0204839
-0.0197282
-0.0189935
-0.018279
-0.0175839
-0.0169076
-0.0162493
-0.0156083
-0.0149842
-0.0143762
-0.0137838
-0.0132064
-0.0126436
-0.0120948
-0.0115596
-0.0110375
-0.010528
-0.0100308
-0.00954557
-0.00907183
-0.00860928
-0.00815759
-0.00771648
-0.00728565
-0.00686486
-0.00645386
-0.00605244
-0.00566041
-0.00527761
-0.00490389
-0.00453913
-0.00418326
-0.00383621
-0.00349796
-0.00316854
-0.002848
-0.00253644
-0.00223401
-0.00194091
-0.00165739
-0.0013838
-0.0011205
-0.00086782
-0.000626485
-0.00040224
-0.000190399
-0.188547
-0.189173
-0.186775
-0.183726
-0.180788
-0.177811
-0.174645
-0.171296
-0.167819
-0.164242
-0.160603
-0.156922
-0.153213
-0.149492
-0.145771
-0.142063
-0.138376
-0.134719
-0.131098
-0.127519
-0.123988
-0.120509
-0.117086
-0.113722
-0.11042
-0.107182
-0.104011
-0.100908
-0.0978748
-0.0949113
-0.0920187
-0.0891972
-0.0864471
-0.0837682
-0.0811602
-0.0786225
-0.0761545
-0.0737553
-0.0714241
-0.0691597
-0.0669609
-0.0648266
-0.0627553
-0.0607457
-0.0587964
-0.0569059
-0.0550727
-0.0532953
-0.0515722
-0.0499017
-0.0482825
-0.0467129
-0.0451915
-0.0437167
-0.0422871
-0.0409012
-0.0395576
-0.038255
-0.0369918
-0.0357668
-0.0345788
-0.0334263
-0.0323082
-0.0312233
-0.0301704
-0.0291483
-0.0281561
-0.0271925
-0.0262567
-0.0253476
-0.0244642
-0.0236056
-0.022771
-0.0219595
-0.0211702
-0.0204025
-0.0196554
-0.0189282
-0.0182204
-0.0175311
-0.0168598
-0.0162058
-0.0155685
-0.0149473
-0.0143417
-0.0137512
-0.0131753
-0.0126134
-0.0120652
-0.0115301
-0.0110079
-0.010498
-0.0100001
-0.00951382
-0.00903888
-0.00857494
-0.0081217
-0.00767888
-0.00724624
-0.00682353
-0.00641054
-0.00600708
-0.00561298
-0.00522811
-0.00485233
-0.00448557
-0.00412775
-0.00377885
-0.00343887
-0.00310785
-0.00278587
-0.00247306
-0.00216957
-0.00187563
-0.00159152
-0.00131757
-0.00105384
-0.000801092
-0.000573637
-0.000360308
-0.169114
-0.171455
-0.169785
-0.167488
-0.165478
-0.163461
-0.161214
-0.15874
-0.1561
-0.153345
-0.150483
-0.147531
-0.144513
-0.141445
-0.13834
-0.135212
-0.132071
-0.128926
-0.125788
-0.122662
-0.119556
-0.116476
-0.113427
-0.110414
-0.107441
-0.104511
-0.101627
-0.0987929
-0.0960098
-0.09328
-0.0906049
-0.0879858
-0.0854235
-0.0829187
-0.0804719
-0.0780833
-0.0757529
-0.0734805
-0.0712659
-0.0691084
-0.0670077
-0.0649628
-0.0629732
-0.0610378
-0.0591557
-0.0573259
-0.0555473
-0.0538189
-0.0521394
-0.0505078
-0.0489228
-0.0473832
-0.0458878
-0.0444355
-0.0430249
-0.041655
-0.0403245
-0.0390322
-0.0377771
-0.0365578
-0.0353735
-0.0342228
-0.0331048
-0.0320184
-0.0309626
-0.0299364
-0.0289387
-0.0279688
-0.0270256
-0.0261082
-0.0252158
-0.0243475
-0.0235026
-0.0226802
-0.0218797
-0.0211001
-0.0203409
-0.0196014
-0.0188809
-0.0181788
-0.0174944
-0.0168271
-0.0161765
-0.015542
-0.0149229
-0.0143189
-0.0137295
-0.0131541
-0.0125924
-0.0120439
-0.0115083
-0.010985
-0.0104739
-0.00997446
-0.00948642
-0.00900946
-0.0085433
-0.00808764
-0.00764225
-0.00720689
-0.00678133
-0.00636539
-0.00595888
-0.00556166
-0.00517359
-0.00479458
-0.00442454
-0.00406342
-0.0037112
-0.00336788
-0.00303351
-0.00270817
-0.00239196
-0.00208505
-0.00178763
-0.00149996
-0.00122191
-0.000954003
-0.000715376
-0.000494273
-0.150723
-0.154039
-0.153265
-0.151827
-0.150663
-0.149484
-0.148055
-0.146378
-0.144511
-0.142493
-0.140341
-0.138075
-0.13571
-0.13326
-0.130743
-0.128172
-0.125559
-0.122915
-0.120248
-0.117569
-0.114884
-0.112201
-0.109526
-0.106865
-0.104223
-0.101605
-0.0990133
-0.096453
-0.0939266
-0.0914369
-0.0889862
-0.0865766
-0.0842096
-0.0818866
-0.0796088
-0.0773771
-0.0751921
-0.0730542
-0.0709638
-0.0689209
-0.0669255
-0.0649775
-0.0630765
-0.0612221
-0.0594139
-0.0576513
-0.0559337
-0.0542602
-0.0526303
-0.051043
-0.0494975
-0.047993
-0.0465285
-0.0451032
-0.0437161
-0.0423662
-0.0410527
-0.0397746
-0.0385309
-0.0373207
-0.0361431
-0.0349972
-0.033882
-0.0327967
-0.0317403
-0.0307121
-0.0297112
-0.0287367
-0.0277878
-0.0268638
-0.0259639
-0.0250873
-0.0242334
-0.0234013
-0.0225904
-0.0218001
-0.0210297
-0.0202785
-0.019546
-0.0188315
-0.0181346
-0.0174546
-0.016791
-0.0161433
-0.0155111
-0.0148938
-0.0142909
-0.0137021
-0.013127
-0.012565
-0.0120158
-0.0114791
-0.0109545
-0.0104416
-0.00994018
-0.00944986
-0.00897036
-0.00850141
-0.00804276
-0.00759416
-0.0071554
-0.00672627
-0.00630658
-0.00589617
-0.00549488
-0.0051026
-0.00471922