/*--------------------------------*- C++ -*----------------------------------*\
  =========                 |
  \\      /  F ield         | OpenFOAM: The Open Source CFD Toolbox
   \\    /   O peration     | Website:  https://openfoam.org
    \\  /    A nd           | Version:  7
     \\/     M anipulation  |
\*---------------------------------------------------------------------------*/
FoamFile
{
    version     2.0;
    format      ascii;
    class       volVectorField;
    location    "25";
    object      U;
}
// * * * * * * * * * * * * * * * * * * * * * * * * * * * * * * * * * * * * * //

dimensions      [0 1 -1 0 0 0 0];

internalField   nonuniform List<vector> 
10880
(
(-0.00106246 0.00164459 -5.57976e-20)
(-0.00433258 0.00353716 2.33598e-21)
(-0.00954537 0.00443871 -6.53868e-20)
(-0.0152986 0.00465685 -3.7072e-20)
(-0.0207197 0.00439598 2.3302e-20)
(-0.0253727 0.00379517 -3.98937e-21)
(-0.0289889 0.00295472 2.59291e-20)
(-0.0313936 0.00194728 -5.03886e-21)
(-0.0324853 0.000825236 -4.30235e-20)
(-0.0322147 -0.000373091 1.143e-19)
(-0.0305675 -0.00161826 1.4897e-20)
(-0.0275548 -0.00288533 -2.52698e-20)
(-0.0232095 -0.00414957 -5.1039e-20)
(-0.0175861 -0.00538236 5.29053e-21)
(-0.0107666 -0.00654677 4.92982e-20)
(-0.00287168 -0.00759346 -4.30711e-20)
(0.00592792 -0.00845856 6.46724e-20)
(0.0154159 -0.00906155 -5.00163e-20)
(0.0253131 -0.00928933 -5.32681e-20)
(0.0350494 -0.00898656 6.42463e-20)
(-0.00157571 0.0046893 -1.15334e-19)
(-0.00513697 0.0100405 1.41711e-19)
(-0.00988616 0.0125529 2.37795e-20)
(-0.0146507 0.0131047 9.00262e-20)
(-0.0187035 0.012282 9.76722e-20)
(-0.0216928 0.0104863 -2.00723e-19)
(-0.0234093 0.0080076 -5.63904e-20)
(-0.0237233 0.00505595 4.77486e-20)
(-0.0225663 0.00178289 -2.09301e-19)
(-0.0199136 -0.00170097 8.76222e-21)
(-0.0157696 -0.00531115 2.15493e-19)
(-0.0101603 -0.00897651 -2.81928e-20)
(-0.00312959 -0.0126275 -4.20051e-20)
(0.00525933 -0.0161839 -1.13891e-21)
(0.0149178 -0.0195414 4.65588e-20)
(0.0257159 -0.0225584 1.2183e-19)
(0.0374677 -0.0250472 4.21105e-20)
(0.0499717 -0.026757 -2.42555e-21)
(0.0630512 -0.0273145 -2.23653e-19)
(0.0758817 -0.0262451 -1.49502e-19)
(-0.00244759 0.00704038 -6.15509e-20)
(-0.0063868 0.0149183 6.89049e-20)
(-0.010097 0.0184894 -8.32267e-20)
(-0.0128289 0.0190795 -1.76651e-19)
(-0.0141266 0.0175801 1.68479e-19)
(-0.0137955 0.0146103 1.87711e-19)
(-0.0117394 0.0106189 6.33704e-20)
(-0.00791401 0.00593106 -9.36295e-20)
(-0.00231505 0.000781342 -9.71321e-21)
(0.00503377 -0.00465945 1.29135e-19)
(0.0140902 -0.0102619 -1.14986e-19)
(0.0247979 -0.0159193 9.10936e-20)
(0.0370873 -0.0215297 -3.69693e-20)
(0.0508746 -0.0269767 3.29311e-19)
(0.0660536 -0.0321076 -4.82972e-19)
(0.0824724 -0.0367102 -1.23384e-19)
(0.0999087 -0.0404892 4.43628e-19)
(0.118171 -0.0430073 -3.99548e-19)
(0.137274 -0.0435363 -3.22153e-21)
(0.155984 -0.0412283 -7.45438e-20)
(-0.00339512 0.00835799 3.67042e-20)
(-0.00741477 0.0173593 3.49907e-19)
(-0.00928999 0.0211517 -3.99058e-19)
(-0.00882841 0.0213318 9.8855e-20)
(-0.00593547 0.0189859 -1.23845e-20)
(-0.00063004 0.0148841 3.85826e-20)
(0.00702915 0.00958717 2.36301e-19)
(0.0169664 0.00350168 -2.70917e-19)
(0.0290943 -0.00307908 -7.58564e-21)
(0.0433176 -0.00994179 -4.62912e-19)
(0.0595356 -0.0169268 -5.0669e-20)
(0.0776416 -0.023906 6.13727e-20)
(0.0975219 -0.0307614 2.45969e-19)
(0.119052 -0.0373624 -1.37207e-19)
(0.14209 -0.0435369 4.23162e-19)
(0.166442 -0.0490396 -6.0727e-19)
(0.191822 -0.0535095 7.29188e-19)
(0.218011 -0.0563321 -5.03982e-19)
(0.245265 -0.0563013 3.1488e-19)
(0.271964 -0.0520435 1.61343e-19)
(-0.00405031 0.00845486 1.20412e-19)
(-0.00733154 0.0169031 4.62906e-20)
(-0.00625563 0.0199145 2.49071e-19)
(-0.0012541 0.0191583 -1.44413e-19)
(0.00735538 0.0157869 -6.64527e-20)
(0.0193051 0.0106424 5.56222e-19)
(0.0343507 0.00434123 -8.76766e-19)
(0.0522695 -0.0026705 7.0523e-19)
(0.0728571 -0.0100708 3.23011e-19)
(0.095922 -0.0176261 -6.86655e-19)
(0.12128 -0.0251637 1.76827e-19)
(0.148748 -0.032549 7.1205e-20)
(0.178142 -0.039665 7.79444e-19)
(0.209266 -0.0463887 -8.47946e-19)
(0.241912 -0.052562 -2.50603e-19)
(0.275816 -0.0579561 6.50904e-19)
(0.310597 -0.062217 -5.40309e-19)
(0.345946 -0.0646277 3.68306e-19)
(0.382347 -0.0634359 3.18825e-19)
(0.418013 -0.0564774 -1.08962e-18)
(-0.00400616 0.0073072 -3.80437e-19)
(-0.00512513 0.013485 1.20824e-19)
(0.000415534 0.0147075 -1.69483e-19)
(0.0115503 0.0125229 4.89143e-22)
(0.0275335 0.00801817 4.61438e-19)
(0.0478305 0.00202456 -8.98525e-19)
(0.071991 -0.0048474 8.04504e-19)
(0.0996213 -0.0121591 -7.23326e-19)
(0.130373 -0.019595 7.40569e-19)
(0.16393 -0.0269276 -6.49027e-19)
(0.19999 -0.0339909 3.58036e-19)
(0.238261 -0.0406611 -8.69902e-19)
(0.278445 -0.0468376 1.08813e-18)
(0.320238 -0.0524251 8.89637e-20)
(0.363322 -0.0573073 -2.76381e-19)
(0.407328 -0.0613205 -5.35736e-19)
(0.451752 -0.0642068 -2.92013e-20)
(0.496137 -0.0652962 5.9533e-19)
(0.541114 -0.0623748 2.92862e-19)
(0.585123 -0.0522407 -6.34607e-19)
(-0.00285383 0.0050392 -1.24244e-19)
(0.000244785 0.00742487 -5.50477e-20)
(0.0121987 0.00602942 -8.47132e-20)
(0.0313359 0.00210254 4.49082e-20)
(0.0564918 -0.00345954 -6.1375e-19)
(0.0868579 -0.0099192 1.1754e-18)
(0.121761 -0.0167357 -1.40348e-20)
(0.160611 -0.0235287 -4.2678e-20)
(0.202885 -0.0300299 -4.21356e-19)
(0.248101 -0.0360499 -8.04465e-20)
(0.295799 -0.0414566 -1.26034e-19)
(0.345528 -0.0461582 -7.09484e-19)
(0.396833 -0.0500897 6.71469e-19)
(0.449248 -0.053198 -5.83444e-19)
(0.502298 -0.0554257 3.49435e-19)
(0.555466 -0.0566996 -3.03965e-19)
(0.608111 -0.0569129 5.58372e-19)
(0.659621 -0.0555813 -4.12696e-19)
(0.710669 -0.0503042 1.48218e-19)
(0.760441 -0.0371138 7.53523e-19)
(-0.000204832 0.0018946 1.46803e-19)
(0.00976763 -0.000620114 -1.43792e-20)
(0.0304922 -0.00509547 -2.43044e-19)
(0.0597426 -0.0107439 3.2911e-20)
(0.0959568 -0.0169805 5.21569e-19)
(0.138048 -0.0232428 -1.00559e-18)
(0.185102 -0.0291257 5.85023e-19)
(0.236303 -0.0343637 -3.15253e-20)
(0.29091 -0.0387846 4.27018e-19)
(0.348235 -0.0422808 -4.75228e-19)
(0.407611 -0.044793 3.87599e-19)
(0.468385 -0.0462966 -1.01802e-18)
(0.529906 -0.04679 -5.64228e-19)
(0.591525 -0.0462834 1.16938e-18)
(0.652591 -0.044787 -4.68228e-19)
(0.712439 -0.0423103 -3.01154e-19)
(0.770329 -0.0388524 4.08216e-19)
(0.825557 -0.0340848 8.83107e-19)
(0.878516 -0.0260334 -5.29766e-19)
(0.929227 -0.0122822 -1.4302e-19)
(0.00428973 -0.00178766 2.99098e-19)
(0.0243019 -0.00970522 -2.85801e-19)
(0.0564621 -0.0171872 -2.29392e-19)
(0.0980548 -0.0240695 -6.53341e-19)
(0.147151 -0.0301944 5.72339e-19)
(0.202379 -0.0352577 7.95054e-19)
(0.262559 -0.0390611 -4.01085e-19)
(0.326611 -0.04152 4.66927e-19)
(0.393537 -0.0426197 -1.64021e-19)
(0.462396 -0.0423938 5.00089e-20)
(0.532281 -0.040913 8.23295e-19)
(0.602318 -0.038275 -1.11819e-18)
(0.67167 -0.034594 -3.99505e-20)
(0.739542 -0.02999 2.28968e-19)
(0.805201 -0.0245778 8.37876e-20)
(0.867999 -0.0184534 -8.48086e-20)
(0.92741 -0.0116351 2.42968e-19)
(0.983107 -0.00392029 -1.33827e-19)
(1.03475 0.00467921 -7.52186e-19)
(1.08129 0.0114514 6.83016e-19)
(0.0109199 -0.00558372 2.35023e-19)
(0.0444843 -0.0186469 7.70411e-20)
(0.0908613 -0.0284102 -2.32077e-19)
(0.146932 -0.0354929 2.72177e-19)
(0.210433 -0.0402822 -6.18883e-19)
(0.279705 -0.0428197 1.30995e-18)
(0.353271 -0.0431928 -8.91906e-19)
(0.429756 -0.0415722 -4.84741e-19)
(0.507869 -0.0381718 1.28217e-18)
(0.586392 -0.0332336 -1.01002e-18)
(0.664171 -0.0270222 1.23852e-18)
(0.740126 -0.0198177 -1.51409e-18)
(0.813265 -0.0119076 5.09245e-19)
(0.882703 -0.00357903 5.96417e-19)
(0.94769 0.00488691 -5.13703e-19)
(1.00763 0.0132243 -1.04444e-20)
(1.0621 0.0212136 -7.94748e-20)
(1.11091 0.0286421 -5.86702e-19)
(1.15364 0.034626 4.27583e-19)
(1.18946 0.0373083 -1.18639e-19)
(0.019881 -0.00899385 -3.1206e-19)
(0.0706241 -0.0260761 1.17791e-19)
(0.133852 -0.0366924 -5.26888e-21)
(0.206163 -0.0424027 -4.64782e-19)
(0.285012 -0.044256 6.24124e-19)
(0.368449 -0.0427308 -8.5676e-19)
(0.454698 -0.0382823 7.84474e-20)
(0.542081 -0.031411 2.50716e-19)
(0.62903 -0.0226241 -3.45153e-19)
(0.714089 -0.0124234 6.36118e-19)
(0.795931 -0.00130087 1.75235e-19)
(0.873377 0.0102698 7.2756e-20)
(0.945427 0.0218442 -7.22037e-19)
(1.01128 0.033018 7.31965e-19)
(1.07035 0.0434365 -3.91234e-19)
(1.12228 0.0528051 2.88475e-19)
(1.16694 0.0609073 -6.04038e-19)
(1.20435 0.0675524 -3.41528e-19)
(1.23443 0.0722153 4.058e-19)
(1.25673 0.0745902 1.0538e-19)
(0.0312239 -0.011451 -3.0412e-19)
(0.102578 -0.030505 4.1961e-19)
(0.184837 -0.0398808 8.82982e-20)
(0.27448 -0.0422152 -7.68102e-20)
(0.368765 -0.0393237 2.07722e-19)
(0.465491 -0.0322092 5.1109e-19)
(0.562619 -0.0217698 -2.63859e-19)
(0.658231 -0.00889619 -1.98503e-19)
(0.750576 0.00557017 -5.17698e-19)
(0.838099 0.0208515 4.54555e-19)
(0.919477 0.0362401 -2.39189e-19)
(0.993652 0.0511095 1.01434e-20)
(1.05986 0.0649286 1.10557e-18)
(1.11764 0.0772716 -7.71877e-19)
(1.16682 0.0878253 6.80069e-19)
(1.20753 0.0963932 -7.01761e-20)
(1.24011 0.102899 9.54027e-20)
(1.26509 0.107334 -2.21482e-19)
(1.28293 0.109564 -7.68496e-20)
(1.29396 0.110005 -4.03856e-19)
(0.0447995 -0.0123485 1.7497e-19)
(0.139643 -0.030436 1.12333e-19)
(0.242342 -0.0359417 -7.28635e-20)
(0.349484 -0.0326642 -9.7209e-19)
(0.458266 -0.023257 2.93794e-19)
(0.566333 -0.00931095 -7.11082e-20)
(0.671498 0.00778848 -3.97995e-20)
(0.771759 0.0267424 -5.1044e-20)
(0.865377 0.0463892 8.36598e-20)
(0.950937 0.0657243 -6.15799e-19)
(1.02739 0.0839075 3.2817e-19)
(1.09406 0.100273 -5.01029e-19)
(1.15071 0.114336 6.47694e-20)
(1.19743 0.125794 -2.63938e-19)
(1.23467 0.134516 -9.7511e-20)
(1.26313 0.140527 5.00749e-19)
(1.28371 0.14399 -5.38789e-19)
(1.29739 0.14514 8.24872e-20)
(1.30502 0.144169 2.11698e-19)
(1.30732 0.14183 -2.24565e-19)
(0.0602154 -0.0110934 2.70929e-19)
(0.180492 -0.0245161 -4.20709e-20)
(0.304006 -0.0232006 -3.46932e-19)
(0.427737 -0.0121046 -4.76997e-20)
(0.549021 0.00527349 6.09238e-19)
(0.665532 0.0267456 -2.53732e-19)
(0.775143 0.0504569 2.39567e-19)
(0.876019 0.0747566 -2.68043e-19)
(0.966715 0.0982593 1.26644e-19)
(1.04625 0.119865 -1.20667e-19)
(1.11414 0.138759 5.35612e-19)
(1.17038 0.154406 -3.29482e-19)
(1.2154 0.166536 -3.67385e-20)
(1.25001 0.175115 -4.29276e-20)
(1.27529 0.180307 7.12499e-20)
(1.29247 0.182429 -1.09014e-19)
(1.30285 0.181904 2.45303e-19)
(1.3077 0.179181 7.45776e-21)
(1.30805 0.174677 -3.65542e-19)
(1.30471 0.169225 -1.11058e-19)
(0.0768193 -0.00718108 -2.10864e-19)
(0.223195 -0.0117237 1.67047e-19)
(0.366694 -0.000594885 5.86339e-20)
(0.505013 0.020215 -7.41445e-20)
(0.6359 0.0464548 -2.00829e-20)
(0.757319 0.0754176 8.55371e-20)
(0.867497 0.104891 -6.73116e-20)
(0.965077 0.133026 2.90853e-19)
(1.04923 0.158401 -2.00718e-19)
(1.1197 0.180024 9.59145e-20)
(1.17678 0.197315 -2.15846e-19)
(1.22129 0.210058 2.0867e-19)
(1.25441 0.218347 8.46289e-20)
(1.27759 0.222521 -2.33393e-19)
(1.29243 0.223085 2.36436e-19)
(1.30051 0.220643 -9.49547e-20)
(1.30331 0.215825 4.149e-20)
(1.30212 0.209226 3.72082e-20)
(1.29794 0.201382 1.98345e-21)
(1.29143 0.193003 3.7207e-20)
(0.093722 -0.000279908 -9.70853e-20)
(0.265334 0.00844382 1.6129e-19)
(0.426739 0.0321062 -9.91674e-20)
(0.576696 0.0639606 7.9681e-20)
(0.713681 0.0992223 -1.02286e-19)
(0.836266 0.134858 -1.51373e-20)
(0.943363 0.16852 4.37491e-20)
(1.03441 0.198407 -1.65271e-20)
(1.10946 0.223318 -1.73734e-20)
(1.16918 0.242616 8.64363e-20)
(1.21478 0.25616 -1.30086e-20)
(1.24785 0.264203 -4.69789e-20)
(1.27024 0.267295 9.40557e-20)
(1.28389 0.266168 -7.07313e-20)
(1.29067 0.261637 1.60336e-20)
(1.29228 0.254519 -2.11627e-20)
(1.29016 0.245558 5.93829e-20)
(1.28546 0.235405 -4.66299e-20)
(1.27898 0.22462 -6.73976e-21)
(1.27119 0.213636 -1.109e-20)
(0.10986 0.00969059 5.63782e-20)
(0.304201 0.0358192 -1.71631e-19)
(0.480285 0.0741595 1.03898e-19)
(0.638247 0.117643 -1.59938e-20)
(0.777607 0.161308 2.98529e-20)
(0.897868 0.202107 -5.0406e-20)
(0.998925 0.237872 -3.26469e-20)
(1.08126 0.267165 6.77545e-21)
(1.14596 0.289287 7.8676e-20)
(1.19469 0.304183 -1.11668e-19)
(1.22948 0.312304 1.61348e-20)
(1.2526 0.314451 2.35328e-20)
(1.26636 0.311629 -3.35909e-20)
(1.27294 0.304913 8.90472e-20)
(1.27426 0.295337 -3.08935e-20)
(1.27192 0.283821 2.33144e-20)
(1.26719 0.271126 -4.97671e-20)
(1.26097 0.257881 1.29013e-20)
(1.25382 0.244607 2.05756e-20)
(1.24603 0.231351 1.17025e-20)
(0.124092 0.022505 1.11513e-19)
(0.337067 0.0694868 9.83368e-20)
(0.523681 0.12382 -3.40102e-20)
(0.685674 0.178688 -1.18916e-19)
(0.823866 0.229433 -6.31794e-20)
(0.938942 0.273398 1.49514e-19)
(1.03198 0.308965 6.10157e-20)
(1.10463 0.33539 -1.21888e-19)
(1.15902 0.352726 4.8625e-20)
(1.1977 0.361659 -4.27494e-22)
(1.22338 0.363303 1.6126e-19)
(1.23877 0.358996 -6.30294e-20)
(1.24638 0.350129 -1.43193e-19)
(1.2484 0.338012 1.65062e-19)
(1.24665 0.323784 -6.69304e-20)
(1.24251 0.308363 9.6137e-20)
(1.23698 0.292445 -3.21617e-20)
(1.23071 0.276585 8.1337e-21)
(1.22401 0.261227 -1.59547e-20)
(1.21709 0.24602 -1.14731e-20)
(0.135317 0.037612 -1.13067e-19)
(0.361463 0.107793 -2.31256e-19)
(0.55386 0.178434 3.66066e-19)
(0.715929 0.243638 2.02698e-19)
(0.849919 0.299606 -5.87311e-19)
(0.957823 0.344515 3.4514e-19)
(1.04196 0.377677 7.97116e-20)
(1.10508 0.399314 1.33801e-19)
(1.15024 0.410409 -1.06503e-21)
(1.18067 0.412457 -1.02583e-20)
(1.1995 0.407215 -2.64318e-19)
(1.20962 0.396474 1.76775e-19)
(1.21355 0.381893 6.07709e-20)
(1.21333 0.364896 -3.12714e-20)
(1.21052 0.34662 -7.78457e-20)
(1.20626 0.3279 9.46541e-21)
(1.2013 0.309318 -2.03346e-20)
(1.19603 0.291336 -1.57989e-21)
(1.19056 0.274313 5.58569e-20)
(1.18508 0.2575 -7.41119e-22)
(0.142593 0.0541553 -2.57967e-19)
(0.375449 0.148451 -1.12978e-19)
(0.568646 0.234642 -1.15025e-19)
(0.727174 0.308441 2.97513e-19)
(0.854659 0.367466 2.60098e-20)
(0.954358 0.411152 -1.06406e-19)
(1.02971 0.440043 -1.83391e-19)
(1.08439 0.455522 -1.57623e-20)
(1.12214 0.459568 9.75057e-22)
(1.14657 0.45446 2.11522e-19)
(1.161 0.4425 -2.07177e-19)
(1.16828 0.425805 4.28006e-20)
(1.17076 0.406173 -9.67869e-20)
(1.17022 0.385031 3.64098e-20)
(1.16797 0.363427 9.40967e-22)
(1.16488 0.342067 -4.91539e-20)
(1.16149 0.321402 1.37406e-20)
(1.15799 0.301819 -1.33971e-20)
(1.15432 0.283581 2.25781e-20)
(1.15084 0.265455 -1.32806e-20)
(0.145249 0.0710345 1.08474e-19)
(0.377822 0.18872 1.29501e-19)
(0.566972 0.28866 -1.58977e-19)
(0.718918 0.368792 2.24594e-19)
(0.838421 0.428638 5.57584e-20)
(0.929771 0.469215 -2.72091e-19)
(0.997281 0.492492 6.57729e-20)
(1.04524 0.50108 5.75574e-20)
(1.07776 0.497921 7.56132e-20)
(1.09859 0.48597 -4.74814e-20)
(1.11098 0.467931 7.34189e-20)
(1.11759 0.446103 1.79526e-20)
(1.12048 0.422304 1.22643e-20)
(1.12117 0.397872 2.12617e-21)
(1.12069 0.373715 1.13187e-20)
(1.11971 0.350389 1.04235e-20)
(1.11862 0.328215 -5.85917e-21)
(1.11745 0.307514 4.50955e-20)
(1.11607 0.288481 -1.66181e-20)
(1.11505 0.269512 -1.64592e-19)
(0.142962 0.0870019 3.17078e-19)
(0.368241 0.225643 -2.26152e-19)
(0.548964 0.336597 1.04285e-20)
(0.692017 0.42048 -1.80723e-19)
(0.802849 0.47904 -1.61477e-19)
(0.886436 0.515067 2.43005e-19)
(0.947594 0.531994 -2.63867e-20)
(0.990881 0.533607 -8.25251e-21)
(1.02046 0.52368 1.51043e-20)
(1.03997 0.505678 -2.97751e-20)
(1.05242 0.482554 -2.24057e-21)
(1.06016 0.456653 4.00011e-20)
(1.06495 0.429709 -9.77396e-20)
(1.06802 0.402914 1.59656e-19)
(1.07019 0.377014 3.24429e-20)
(1.07197 0.35241 4.37996e-20)
(1.07364 0.329309 -2.23798e-19)
(1.07516 0.307975 -1.09066e-19)
(1.07639 0.288565 5.08347e-19)
(1.07824 0.269278 -1.94873e-19)
(0.135771 0.100758 -2.45666e-20)
(0.347289 0.256308 -2.2772e-20)
(0.515934 0.374766 1.19742e-19)
(0.648538 0.459706 5.52231e-20)
(0.750708 0.515174 1.83294e-20)
(0.827643 0.545719 9.72522e-21)
(0.884231 0.556168 1.06169e-20)
(0.924946 0.551304 7.46968e-20)
(0.953738 0.535535 -5.47724e-20)
(0.973926 0.512648 -1.59642e-20)
(0.988166 0.485683 3.22484e-19)
(0.998468 0.456918 1.73024e-20)
(1.00628 0.427938 2.75318e-19)
(1.01257 0.399758 8.75386e-20)
(1.018 0.372957 -1.72158e-19)
(1.02295 0.3478 1.5344e-19)
(1.02765 0.324393 7.9053e-20)
(1.03207 0.302914 -3.02608e-19)
(1.03623 0.283505 6.25439e-20)
(1.04128 0.264545 -1.49946e-19)
(0.124184 0.111024 9.96862e-20)
(0.316432 0.278015 -2.789e-20)
(0.470213 0.399993 1.37361e-20)
(0.591578 0.483327 -1.78908e-19)
(0.685643 0.534275 3.8086e-20)
(0.757316 0.558961 1.47318e-19)
(0.811158 0.563356 -2.69431e-19)
(0.851249 0.55299 2.77461e-19)
(0.881095 0.532668 1.76014e-19)
(0.903577 0.506304 1.24475e-19)
(0.92094 0.476885 2.17065e-19)
(0.934845 0.446533 -5.70281e-19)
(0.946458 0.416645 -3.52772e-19)
(0.956564 0.388051 2.20449e-19)
(0.965671 0.361184 1.52483e-19)
(0.974095 0.336212 -2.05506e-19)
(0.982031 0.31315 2.05587e-19)
(0.989627 0.292017 -5.10253e-20)
(0.997172 0.273039 -4.06345e-19)
(1.00554 0.255877 5.49993e-19)
(0.109013 0.116817 2.50821e-20)
(0.277821 0.288669 -1.4357e-19)
(0.415001 0.40983 6.62603e-20)
(0.525019 0.48908 1.23909e-19)
(0.611887 0.534498 1.30451e-19)
(0.679766 0.553432 -4.47832e-19)
(0.732537 0.552648 6.322e-19)
(0.773633 0.53811 5.90164e-19)
(0.805968 0.514766 -4.72972e-20)
(0.831911 0.486467 -1.87832e-19)
(0.853285 0.456027 7.95848e-19)
(0.871427 0.425345 -8.53569e-19)
(0.887275 0.395598 -4.7489e-20)
(0.901462 0.367422 7.85064e-19)
(0.914399 0.341094 -5.27471e-19)
(0.926329 0.316672 -7.11442e-20)
(0.937447 0.294028 9.14019e-20)
(0.948161 0.272765 8.14485e-19)
(0.958949 0.252529 -7.3325e-19)
(0.968027 0.234907 -1.60998e-19)
(0.0913668 0.117356 1.94055e-19)
(0.234217 0.286815 1.61115e-20)
(0.354102 0.402751 -5.04382e-19)
(0.453232 0.475699 7.82323e-21)
(0.534008 0.51498 -3.14553e-19)
(0.59947 0.528673 1.18447e-19)
(0.652555 0.523919 1.60901e-19)
(0.695877 0.506777 -4.05924e-19)
(0.73168 0.482089 5.48863e-19)
(0.761794 0.453489 1.48715e-19)
(0.787639 0.423526 4.1784e-19)
(0.810266 0.393854 -1.43472e-18)
(0.830421 0.365439 5.00222e-19)
(0.848621 0.338763 -1.89115e-19)
(0.865212 0.314001 1.92102e-19)
(0.880412 0.29115 -6.60977e-19)
(0.894431 0.270074 6.72717e-19)
(0.907629 0.250443 -7.77275e-19)
(0.920124 0.231961 4.48826e-19)
(0.930113 0.215609 5.32335e-19)
(0.0725731 0.112223 -5.04678e-19)
(0.188728 0.271779 3.94448e-19)
(0.291639 0.378224 2.56148e-19)
(0.380799 0.442972 6.3369e-20)
(0.456651 0.475847 3.65066e-19)
(0.520864 0.48509 -6.07004e-19)
(0.575277 0.47776 8.82686e-19)
(0.621612 0.45967 -5.07737e-19)
(0.66142 0.435325 3.55539e-19)
(0.696021 0.408004 -9.24823e-19)
(0.726477 0.379932 7.95485e-19)
(0.753604 0.352499 -7.03326e-19)
(0.778009 0.326476 1.17882e-18)
(0.800136 0.302213 -3.0726e-19)
(0.820303 0.279808 -4.86478e-19)
(0.83874 0.259214 -3.9494e-19)
(0.855673 0.24029 -6.11151e-20)
(0.871418 0.222779 9.38205e-19)
(0.886036 0.206485 4.87024e-19)
(0.898172 0.192065 -6.60433e-19)
(0.0540532 0.10139 3.80103e-20)
(0.144578 0.243732 1.03575e-19)
(0.231777 0.336756 1.15557e-19)
(0.312233 0.391736 -3.77882e-19)
(0.38428 0.418198 2.07425e-19)
(0.448126 0.423937 6.02657e-19)
(0.504468 0.415476 -9.83942e-19)
(0.554142 0.398059 4.39884e-19)
(0.598048 0.375653 1.81832e-19)
(0.637048 0.351075 -1.13684e-18)
(0.671902 0.326181 4.12744e-19)
(0.70324 0.302093 -4.47944e-19)
(0.731573 0.279403 1.1702e-18)
(0.757303 0.258359 -7.76347e-19)
(0.780746 0.239001 -2.39733e-19)
(0.802152 0.221262 5.6658e-19)
(0.821762 0.20501 -8.01234e-19)
(0.839875 0.19004 5.55657e-19)
(0.856577 0.176193 5.0551e-19)
(0.870948 0.163838 -1.2434e-18)
(0.0372093 0.0852221 -1.72964e-19)
(0.104874 0.203682 5.77134e-19)
(0.178456 0.279846 -6.37541e-19)
(0.251721 0.323822 -1.74989e-19)
(0.320972 0.344029 -2.85365e-19)
(0.385015 0.347239 6.4456e-20)
(0.44348 0.339017 -3.28092e-20)
(0.496401 0.323754 4.34387e-19)
(0.544104 0.304714 1.08117e-19)
(0.587069 0.284164 -8.65418e-19)
(0.625815 0.263567 -8.89284e-20)
(0.660836 0.243781 3.25018e-19)
(0.692577 0.225241 4.06414e-19)
(0.72142 0.208112 -5.50197e-19)
(0.74769 0.192401 1.09427e-18)
(0.77166 0.178037 -8.15677e-19)
(0.79359 0.164907 9.77653e-19)
(0.813764 0.152857 -8.17202e-19)
(0.832309 0.141754 3.86529e-19)
(0.848688 0.131752 1.99277e-19)
(0.0233169 0.0644593 -1.93531e-19)
(0.0723973 0.1534 2.10994e-19)
(0.135143 0.209896 6.66799e-20)
(0.202898 0.241941 -6.63486e-20)
(0.270223 0.256129 1.21646e-19)
(0.334725 0.257699 -6.10443e-21)
(0.395139 0.2509 4.05028e-20)
(0.450841 0.239043 -5.16537e-19)
(0.501703 0.22455 1.83466e-19)
(0.547908 0.209083 4.80449e-19)
(0.589794 0.193693 -5.91912e-19)
(0.627763 0.178984 2.42831e-19)
(0.662215 0.165252 -2.29627e-19)
(0.693528 0.152599 6.59659e-19)
(0.722037 0.141016 -8.27449e-19)
(0.748039 0.130443 -6.39053e-20)
(0.771808 0.120794 8.1262e-19)
(0.793617 0.11196 -7.47993e-19)
(0.813634 0.103839 -1.3379e-19)
(0.831643 0.0964635 -2.66275e-19)
(0.0134274 0.0401624 -2.38468e-19)
(0.0494086 0.0953084 2.32664e-19)
(0.10463 0.130057 -8.63017e-21)
(0.168663 0.149533 -1.03308e-19)
(0.234794 0.157934 2.51167e-19)
(0.299758 0.158572 -5.84401e-20)
(0.361648 0.154109 -1.03342e-19)
(0.419375 0.146602 2.2816e-20)
(0.472494 0.137542 -4.99559e-19)
(0.520986 0.12794 6.50424e-19)
(0.565074 0.11843 1.06292e-19)
(0.605097 0.109371 -2.26869e-19)
(0.641433 0.100933 -7.59691e-21)
(0.674457 0.0931706 2.54639e-19)
(0.704518 0.0860745 4.42745e-20)
(0.731927 0.0796032 1.62887e-19)
(0.756969 0.0737028 1.26505e-19)
(0.779908 0.0683104 -3.84164e-19)
(0.800945 0.0633584 9.44935e-20)
(0.820098 0.0588344 -2.24905e-19)
(0.00828851 0.0136406 -1.46932e-19)
(0.0375023 0.0323247 2.61701e-19)
(0.088871 0.044051 7.62169e-20)
(0.15103 0.0505836 1.11833e-20)
(0.216592 0.0533642 1.41602e-19)
(0.281836 0.0535248 -1.16035e-19)
(0.344519 0.0519718 7.01812e-20)
(0.40331 0.0494028 -2.6693e-20)
(0.457603 0.046321 -1.01218e-19)
(0.507278 0.0430662 1.58251e-19)
(0.552499 0.0398499 -7.52028e-20)
(0.593576 0.0367907 -9.02165e-20)
(0.630877 0.0339446 2.19045e-20)
(0.664777 0.0313286 -7.27279e-20)
(0.69563 0.0289385 3.82961e-20)
(0.723759 0.0267599 -5.59147e-20)
(0.749451 0.0247744 2.19899e-19)
(0.772967 0.0229613 -7.32271e-20)
(0.794526 0.0212971 -2.50967e-20)
(0.814269 0.0197721 1.23167e-19)
(0.00828851 -0.0136406 1.46932e-19)
(0.0375023 -0.0323247 -2.61701e-19)
(0.088871 -0.044051 -6.36872e-20)
(0.15103 -0.0505836 8.29965e-20)
(0.216592 -0.0533642 -5.40554e-20)
(0.281836 -0.0535248 9.67749e-21)
(0.344519 -0.0519718 -5.55614e-20)
(0.40331 -0.0494028 1.10368e-20)
(0.457603 -0.046321 8.65256e-20)
(0.507278 -0.0430662 -2.25838e-19)
(0.552499 -0.0398499 -2.60716e-20)
(0.593576 -0.0367907 4.91022e-20)
(0.630877 -0.0339446 9.38719e-20)
(0.664777 -0.0313286 -9.91322e-21)
(0.69563 -0.0289385 -8.86295e-20)
(0.723759 -0.0267599 7.56199e-20)
(0.749451 -0.0247744 -1.12931e-19)
(0.772967 -0.0229613 8.67569e-20)
(0.794526 -0.0212971 9.0105e-20)
(0.814269 -0.0197721 -1.06488e-19)
(0.0134274 -0.0401624 2.28794e-19)
(0.0494086 -0.0953084 -3.365e-19)
(0.10463 -0.130057 -4.07171e-19)
(0.168663 -0.149533 -1.94778e-19)
(0.234794 -0.157934 -2.09899e-19)
(0.299758 -0.158572 4.21738e-19)
(0.361648 -0.154109 1.14648e-19)
(0.419375 -0.146602 -9.51667e-20)
(0.472494 -0.137542 4.07556e-19)
(0.520986 -0.12794 -2.61216e-20)
(0.565074 -0.11843 -4.06972e-19)
(0.605097 -0.109371 5.69589e-20)
(0.641433 -0.100933 7.25516e-20)
(0.674457 -0.0931706 7.7307e-22)
(0.704518 -0.0860745 -7.84402e-20)
(0.731927 -0.0796032 -2.07218e-19)
(0.756969 -0.0737028 -6.99209e-20)
(0.779908 -0.0683104 7.59834e-21)
(0.800945 -0.0633584 3.74059e-19)
(0.820098 -0.0588344 2.42489e-19)
(0.0233169 -0.0644593 1.34664e-19)
(0.0723973 -0.1534 -1.55454e-19)
(0.135143 -0.209896 3.36585e-19)
(0.202898 -0.241941 3.52764e-19)
(0.270223 -0.256129 -3.38636e-19)
(0.334725 -0.257699 -3.66297e-19)
(0.395139 -0.2509 -1.17739e-19)
(0.450841 -0.239043 1.87296e-19)
(0.501703 -0.22455 1.41796e-20)
(0.547908 -0.209083 -2.40927e-19)
(0.589794 -0.193693 2.11497e-19)
(0.627763 -0.178984 -1.53957e-19)
(0.662215 -0.165252 6.01941e-20)
(0.693528 -0.152599 -5.61482e-19)
(0.722037 -0.141016 8.09923e-19)
(0.748039 -0.130443 1.98139e-19)
(0.771808 -0.120794 -7.31802e-19)
(0.793617 -0.11196 6.49431e-19)
(0.813634 -0.103839 1.37958e-21)
(0.831643 -0.0964635 1.07583e-19)
(0.0372093 -0.0852221 -6.11858e-20)
(0.104874 -0.203682 -6.37194e-19)
(0.178456 -0.279846 5.20181e-19)
(0.251721 -0.323822 9.24788e-20)
(0.320972 -0.344029 3.95495e-20)
(0.385015 -0.347239 -5.88099e-20)
(0.44348 -0.339017 -3.79865e-19)
(0.496401 -0.323754 4.49122e-19)
(0.544104 -0.304714 4.75455e-21)
(0.587069 -0.284164 7.39545e-19)
(0.625815 -0.263567 9.20819e-20)
(0.660836 -0.243781 -1.04749e-19)
(0.692577 -0.225241 -3.9159e-19)
(0.72142 -0.208112 2.09376e-19)
(0.74769 -0.192401 -6.6231e-19)
(0.77166 -0.178037 9.2892e-19)
(0.79359 -0.164907 -1.12429e-18)
(0.813764 -0.152857 7.74967e-19)
(0.832309 -0.141754 -4.81913e-19)
(0.848688 -0.131752 -2.27261e-19)
(0.0540532 -0.10139 -1.56177e-19)
(0.144578 -0.243732 -5.68176e-20)
(0.231777 -0.336756 -3.35131e-19)
(0.312233 -0.391736 3.20382e-19)
(0.38428 -0.418198 1.42619e-19)
(0.448126 -0.423937 -7.82403e-19)
(0.504468 -0.415476 1.29341e-18)
(0.554142 -0.398059 -1.02834e-18)
(0.598048 -0.375653 -4.66156e-19)
(0.637048 -0.351075 9.75559e-19)
(0.671902 -0.326181 -2.36527e-19)
(0.70324 -0.302093 -8.79408e-20)
(0.731573 -0.279403 -1.10334e-18)
(0.757303 -0.258359 1.18405e-18)
(0.780746 -0.239001 3.29547e-19)
(0.802152 -0.221262 -9.1459e-19)
(0.821762 -0.20501 7.55942e-19)
(0.839875 -0.19004 -5.15426e-19)
(0.856577 -0.176193 -4.55876e-19)
(0.870948 -0.163838 1.51645e-18)
(0.0725731 -0.112223 5.10913e-19)
(0.188728 -0.271779 -1.61137e-19)
(0.291639 -0.378224 1.99418e-19)
(0.380799 -0.442972 2.61901e-21)
(0.456651 -0.475847 -3.81139e-19)
(0.520864 -0.48509 1.0372e-18)
(0.575277 -0.47776 -9.17452e-19)
(0.621612 -0.45967 8.43938e-19)
(0.66142 -0.435325 -8.4663e-19)
(0.696021 -0.408004 7.85072e-19)
(0.726477 -0.379932 -4.36987e-19)
(0.753604 -0.352499 1.079e-18)
(0.778009 -0.326476 -1.32997e-18)
(0.800136 -0.302213 -1.19152e-19)
(0.820303 -0.279808 3.15997e-19)
(0.83874 -0.259214 6.65698e-19)
(0.855673 -0.24029 3.87905e-20)
(0.871418 -0.222779 -7.58244e-19)
(0.886036 -0.206485 -3.92754e-19)
(0.898172 -0.192065 8.12953e-19)
(0.0913668 -0.117356 1.42484e-19)
(0.234217 -0.286815 1.25911e-20)
(0.354102 -0.402751 9.81652e-20)
(0.453232 -0.475699 -3.3461e-20)
(0.534008 -0.51498 5.36449e-19)
(0.59947 -0.528673 -2.59103e-19)
(0.652555 -0.523919 2.82948e-20)
(0.695877 -0.506777 2.83004e-20)
(0.73168 -0.482089 3.90786e-19)
(0.761794 -0.453489 6.71616e-20)
(0.787639 -0.423526 1.27033e-19)
(0.810266 -0.393854 7.08999e-19)
(0.830421 -0.365439 -6.61014e-19)
(0.848621 -0.338763 5.91765e-19)
(0.865212 -0.314001 -3.75676e-19)
(0.880412 -0.29115 3.33481e-19)
(0.894431 -0.270074 -6.07043e-19)
(0.907629 -0.250443 4.68752e-19)
(0.920124 -0.231961 -1.73913e-19)
(0.930113 -0.215609 -8.60002e-19)
(0.109013 -0.116817 -5.2477e-20)
(0.277821 -0.288669 -2.02409e-20)
(0.415001 -0.40983 1.62503e-19)
(0.525019 -0.48908 -3.24794e-20)
(0.611887 -0.534498 -3.06306e-19)
(0.679766 -0.553432 4.97097e-19)
(0.732537 -0.552648 -5.41606e-19)
(0.773633 -0.53811 -4.2655e-19)
(0.805968 -0.514766 -3.20771e-19)
(0.831911 -0.486467 2.97342e-19)
(0.853285 -0.456027 -3.06672e-19)
(0.871427 -0.425345 7.68786e-19)
(0.887275 -0.395598 4.62084e-19)
(0.901462 -0.367422 -9.8939e-19)
(0.914399 -0.341094 3.95529e-19)
(0.926329 -0.316672 2.7643e-19)
(0.937447 -0.294028 -3.58577e-19)
(0.948161 -0.272765 -8.16624e-19)
(0.958949 -0.252529 4.74045e-19)
(0.968027 -0.234907 1.46873e-19)
(0.124184 -0.111024 -6.63803e-20)
(0.316432 -0.278015 9.21625e-21)
(0.470213 -0.399993 4.48762e-20)
(0.591578 -0.483327 1.04072e-19)
(0.685643 -0.534275 -8.95892e-20)
(0.757316 -0.558961 -2.03219e-19)
(0.811158 -0.563356 1.26424e-19)
(0.851249 -0.55299 -3.29887e-19)
(0.881095 -0.532668 -3.65769e-20)
(0.903577 -0.506304 -3.488e-19)
(0.92094 -0.476885 -4.68467e-19)
(0.934845 -0.446533 5.89617e-19)
(0.946458 -0.416645 3.87189e-20)
(0.956564 -0.388051 -1.51581e-19)
(0.965671 -0.361184 -4.72841e-20)
(0.974095 -0.336212 7.06313e-20)
(0.982031 -0.31315 -1.48903e-19)
(0.989627 -0.292017 1.18737e-19)
(0.997172 -0.273039 5.50498e-19)
(1.00554 -0.255877 -5.15836e-19)
(0.135771 -0.100758 -9.98177e-21)
(0.347289 -0.256308 -2.17543e-20)
(0.515934 -0.374766 -1.13947e-20)
(0.648538 -0.459706 6.2834e-20)
(0.750708 -0.515174 -2.75278e-20)
(0.827643 -0.545719 3.29087e-20)
(0.884231 -0.556168 5.70541e-20)
(0.924946 -0.551304 7.02912e-20)
(0.953738 -0.535535 -2.05e-19)
(0.973926 -0.512648 7.0783e-20)
(0.988166 -0.485683 -2.89795e-19)
(0.998468 -0.456918 -8.51949e-20)
(1.00628 -0.427938 -1.56912e-19)
(1.01257 -0.399758 -2.65954e-19)
(1.018 -0.372957 2.13804e-19)
(1.02295 -0.3478 9.33431e-21)
(1.02765 -0.324393 4.70696e-20)
(1.03207 -0.302914 3.54119e-19)
(1.03623 -0.283505 -2.62904e-19)
(1.04128 -0.264545 8.99041e-20)
(0.142962 -0.0870019 -1.09297e-19)
(0.368241 -0.225643 7.76971e-21)
(0.548964 -0.336597 3.99722e-20)
(0.692017 -0.42048 -1.49217e-19)
(0.802849 -0.47904 1.69924e-19)
(0.886436 -0.515067 -1.8363e-19)
(0.947594 -0.531994 5.23142e-20)
(0.990881 -0.533607 3.54021e-20)
(1.02046 -0.52368 2.75326e-20)
(1.03997 -0.505678 -2.84181e-20)
(1.05242 -0.482554 -2.47206e-20)
(1.06016 -0.456653 -3.82422e-20)
(1.06495 -0.429709 1.02841e-19)
(1.06802 -0.402914 -1.7378e-19)
(1.07019 -0.377014 -1.12885e-19)
(1.07197 -0.35241 -9.50896e-20)
(1.07364 -0.329309 2.12395e-19)
(1.07516 -0.307975 1.6648e-19)
(1.07639 -0.288565 -1.61964e-19)
(1.07824 -0.269278 -4.30341e-20)
(0.145249 -0.0710345 -1.4644e-19)
(0.377822 -0.18872 2.12948e-19)
(0.566972 -0.28866 6.44825e-20)
(0.718918 -0.368792 -6.92407e-20)
(0.838421 -0.428638 1.1144e-19)
(0.929771 -0.469215 2.24489e-19)
(0.997281 -0.492492 -1.2696e-19)
(1.04524 -0.50108 -7.95655e-20)
(1.07776 -0.497921 -1.43576e-19)
(1.09859 -0.48597 9.56317e-20)
(1.11098 -0.467931 -1.92512e-20)
(1.11759 -0.446103 1.10701e-20)
(1.12048 -0.422304 4.08248e-20)
(1.12117 -0.397872 9.97446e-21)
(1.12069 -0.373715 -8.63431e-21)
(1.11971 -0.350389 -1.40303e-20)
(1.11862 -0.328215 -8.41209e-21)
(1.11745 -0.307514 -3.19759e-20)
(1.11607 -0.288481 2.23035e-20)
(1.11505 -0.269512 1.31557e-19)
(0.142593 -0.0541553 1.29767e-19)
(0.375449 -0.148451 8.28014e-20)
(0.568646 -0.234642 -5.69437e-20)
(0.727174 -0.308441 -6.59012e-19)