/*--------------------------------*- C++ -*----------------------------------*\
  =========                 |
  \\      /  F ield         | OpenFOAM: The Open Source CFD Toolbox
   \\    /   O peration     | Website:  https://openfoam.org
    \\  /    A nd           | Version:  7
     \\/     M anipulation  |
\*---------------------------------------------------------------------------*/
FoamFile
{
    version     2.0;
    format      ascii;
    class       volScalarField;
    location    "54.999";
    object      p;
}
// * * * * * * * * * * * * * * * * * * * * * * * * * * * * * * * * * * * * * //

dimensions      [0 2 -2 0 0 0 0];

internalField   nonuniform List<scalar> 
3700
(
0.667663
0.640705
0.620556
0.591199
0.559231
0.526404
0.494248
0.463471
0.434481
0.407438
0.382377
0.359252
0.338008
0.318578
0.300805
0.663079
0.636572
0.616969
0.588106
0.556551
0.52407
0.492206
0.461676
0.432895
0.406032
0.381125
0.35813
0.336991
0.317661
0.300024
0.653947
0.628339
0.609822
0.581943
0.55121
0.519418
0.488135
0.458097
0.429734
0.403228
0.378629
0.355891
0.334961
0.315831
0.298464
0.640345
0.61607
0.599168
0.572752
0.543243
0.512479
0.482061
0.452755
0.425015
0.399043
0.374901
0.352549
0.331932
0.313097
0.296127
0.622389
0.599861
0.585086
0.560599
0.532706
0.503299
0.474024
0.445685
0.418767
0.393499
0.369962
0.34812
0.327917
0.30947
0.293018
0.600229
0.57984
0.56768
0.545572
0.519672
0.491938
0.464074
0.43693
0.411028
0.386629
0.36384
0.342629
0.32294
0.304968
0.289144
0.574052
0.556163
0.547081
0.527778
0.504231
0.478474
0.452276
0.426543
0.401843
0.378472
0.356568
0.336106
0.317026
0.299612
0.284515
0.54408
0.529018
0.523441
0.507342
0.486488
0.462994
0.438704
0.41459
0.391266
0.369074
0.348186
0.328585
0.310207
0.293425
0.279143
0.510567
0.498618
0.496936
0.484411
0.466566
0.445602
0.423447
0.401144
0.379361
0.35849
0.33874
0.320106
0.302518
0.286436
0.273045
0.473796
0.465203
0.467764
0.459148
0.4446
0.426411
0.406601
0.386286
0.366198
0.346778
0.32828
0.310715
0.293999
0.278677
0.266238
0.434081
0.429038
0.436141
0.431732
0.420742
0.40555
0.388271
0.370108
0.351853
0.334005
0.316865
0.30046
0.284694
0.270184
0.258745
0.391758
0.39041
0.402305
0.402357
0.395153
0.383153
0.368575
0.352707
0.336411
0.320243
0.304555
0.289396
0.27465
0.260994
0.250592
0.347188
0.349625
0.366506
0.371231
0.368007
0.359368
0.347635
0.334189
0.31996
0.305567
0.291416
0.277581
0.263918
0.25115
0.241806
0.30075
0.307009
0.329012
0.338572
0.339487
0.334347
0.325582
0.314663
0.302596
0.29006
0.27752
0.265078
0.252554
0.240694
0.232417
0.252839
0.2629
0.290102
0.304611
0.309784
0.308253
0.302551
0.294247
0.284416
0.273804
0.262938
0.251954
0.24062
0.229673
0.222453
0.203862
0.217651
0.250066
0.269582
0.279096
0.28125
0.278683
0.273058
0.265525
0.256888
0.247746
0.238279
0.228183
0.218134
0.211936
0.154235
0.171625
0.209203
0.23373
0.247625
0.253509
0.254122
0.251221
0.246026
0.239401
0.232018
0.224124
0.21533
0.20615
0.200882
0.104374
0.125191
0.167815
0.197301
0.215575
0.225204
0.229014
0.228859
0.226028
0.221436
0.215829
0.209555
0.202153
0.193798
0.189242
0.0546925
0.0787258
0.12621
0.160541
0.183154
0.196506
0.203506
0.206097
0.205637
0.203088
0.199251
0.194615
0.188745
0.181296
0.176996
0.00560419
0.0325948
0.0846931
0.123696
0.150565
0.167591
0.177746
0.18306
0.184962
0.184453
0.182369
0.179353
0.175176
0.168954
0.163887
-0.0424825
-0.0128462
0.0435677
0.0870071
0.11801
0.138627
0.151877
0.159871
0.164106
0.165625
0.16527
0.163782
0.161311
0.157008
0.150384
-0.0891731
-0.0572556
0.00313082
0.050706
0.0856877
0.109785
0.126043
0.136651
0.14317
0.14669
0.148048
0.148018
0.147115
0.144946
0.139785
-0.134074
-0.100318
-0.0363375
0.0150118
0.05379
0.0812257
0.100382
0.113519
0.122255
0.127731
0.130788
0.132187
0.132698
0.132529
0.129427
-0.176754
-0.141706
-0.0746055
-0.0198711
0.0225052
0.053107
0.0750277
0.0905891
0.101457
0.108826
0.113552
0.116363
0.11814
0.11952
0.11826
-0.216998
-0.180888
-0.111571
-0.0537371
-0.00798176
0.0255773
0.0501061
0.0679701
0.0808714
0.090049
0.096388
0.100584
0.103528
0.106105
0.106292
-0.254539
-0.217042
-0.147444
-0.0863429
-0.0374977
-0.00122478
0.0257377
0.0457657
0.0605859
0.071476
0.0793501
0.0848845
0.0889457
0.0925594
0.0939395
-0.289176
-0.250665
-0.18127
-0.117373
-0.0658894
-0.0271679
0.0020361
0.0240725
0.0406848
0.0531801
0.0625
0.0693127
0.0744496
0.0790224
0.0815016
-0.32071
-0.281705
-0.212543
-0.14676
-0.0930142
-0.0521278
-0.0208936
0.00298027
0.0212465
0.0352319
0.0459012
0.0539207
0.0600809
0.0655445
0.0690723
-0.348962
-0.309859
-0.241339
-0.174315
-0.118732
-0.0759881
-0.0429563
-0.0174287
0.00234321
0.017696
0.0296125
0.0387595
0.0458796
0.0521608
0.0566746
-0.373804
-0.334892
-0.267631
-0.199931
-0.142952
-0.0986381
-0.0640647
-0.0370803
-0.0159595
0.000630897
0.0136871
0.0238766
0.0318877
0.0389146
0.044347
-0.395168
-0.356672
-0.291299
-0.223518
-0.165706
-0.119916
-0.0841421
-0.0559072
-0.033603
-0.0159116
-0.00182745
0.00931625
0.0181467
0.02585
0.0321408
-0.413036
-0.375134
-0.312227
-0.244963
-0.186739
-0.140023
-0.103067
-0.073852
-0.0505353
-0.031885
-0.0168893
-0.00488071
0.00469575
0.0130033
0.0201008
-0.427438
-0.39026
-0.330346
-0.264201
-0.205982
-0.158736
-0.120976
-0.0908638
-0.0667144
-0.0472488
-0.0314622
-0.0186784
-0.00842734
0.000399883
0.00825774
-0.438447
-0.402083
-0.345628
-0.281198
-0.223428
-0.175983
-0.13774
-0.106978
-0.0821361
-0.0619643
-0.0455157
-0.0320489
-0.021186
-0.0119372
-0.00337292
-0.446184
-0.410693
-0.358084
-0.29594
-0.239076
-0.191763
-0.1533
-0.122127
-0.0967733
-0.0760483
-0.0590226
-0.0449769
-0.0335512
-0.023966
-0.0148128
-0.450812
-0.416233
-0.36776
-0.308429
-0.252928
-0.206088
-0.167655
-0.136281
-0.11059
-0.0894562
-0.0719814
-0.0574718
-0.0455261
-0.0355904
-0.0261497
-0.452536
-0.418901
-0.374746
-0.318691
-0.264992
-0.218969
-0.180819
-0.149439
-0.123577
-0.102169
-0.0843656
-0.0694874
-0.0571099
-0.0468151
-0.0374681
-0.451598
-0.418942
-0.379169
-0.326776
-0.275294
-0.230424
-0.192808
-0.161616
-0.135739
-0.114188
-0.0961618
-0.081007
-0.0682925
-0.0576826
-0.0482478
-0.448273
-0.416653
-0.381188
-0.332756
-0.283879
-0.240485
-0.203646
-0.172831
-0.14709
-0.125519
-0.107372
-0.0920281
-0.0790575
-0.0681603
-0.0584606
-0.442862
-0.41237
-0.380991
-0.336732
-0.290809
-0.249194
-0.213367
-0.183109
-0.157648
-0.136176
-0.118005
-0.102553
-0.089395
-0.0782537
-0.0682683
-0.435687
-0.406447
-0.378803
-0.338831
-0.29616
-0.256604
-0.222011
-0.192481
-0.167437
-0.146176
-0.128074
-0.112591
-0.0993118
-0.0879944
-0.077797
-0.427083
-0.399235
-0.374888
-0.339213
-0.300023
-0.26278
-0.229627
-0.200986
-0.176486
-0.155542
-0.137596
-0.122157
-0.108824
-0.097404
-0.0871008
-0.417383
-0.39107
-0.369546
-0.338059
-0.302502
-0.267789
-0.23627
-0.208669
-0.184832
-0.164301
-0.146594
-0.131271
-0.117948
-0.106486
-0.096174
-0.406917
-0.382259
-0.363101
-0.335574
-0.303715
-0.271707
-0.241997
-0.215577
-0.192514
-0.172486
-0.155093
-0.139953
-0.126701
-0.115239
-0.104987
-0.395992
-0.373074
-0.355887
-0.33198
-0.303789
-0.274615
-0.246868
-0.221762
-0.199575
-0.180132
-0.163121
-0.148224
-0.135096
-0.123666
-0.113519
-0.384886
-0.363749
-0.348225
-0.327513
-0.302863
-0.276597
-0.250945
-0.227274
-0.206059
-0.187276
-0.170709
-0.156106
-0.143154
-0.131781
-0.121772
-0.373842
-0.354484
-0.340403
-0.322415
-0.301086
-0.27774
-0.254288
-0.232162
-0.212009
-0.193958
-0.177889
-0.163626
-0.150894
-0.139602
-0.129755
-0.363055
-0.345447
-0.332654
-0.316929
-0.29862
-0.278137
-0.256955
-0.236472
-0.217468
-0.200214
-0.184696
-0.170811
-0.158341
-0.147154
-0.137486
-0.352682
-0.336775
-0.325154
-0.311291
-0.295632
-0.277885
-0.259003
-0.240249
-0.222475
-0.206083
-0.191165
-0.177691
-0.165519
-0.154459
-0.14498
-0.342834
-0.328574
-0.318021
-0.305707
-0.292296
-0.277087
-0.260488
-0.243528
-0.227064
-0.211599
-0.197328
-0.184297
-0.172455
-0.161541
-0.152254
-0.333588
-0.320915
-0.311331
-0.30034
-0.288784
-0.275852
-0.261469
-0.246343
-0.231262
-0.21679
-0.203219
-0.190659
-0.179174
-0.168423
-0.159326
-0.324997
-0.313841
-0.305134
-0.295301
-0.285255
-0.274299
-0.262005
-0.248723
-0.23509
-0.221677
-0.208862
-0.196807
-0.185703
-0.175133
-0.166215
-0.31708
-0.307363
-0.299456
-0.290649
-0.281845
-0.272551
-0.262167
-0.250694
-0.238558
-0.226276
-0.214279
-0.202766
-0.192069
-0.181695
-0.172944
-0.309845
-0.301473
-0.294307
-0.286409
-0.278651
-0.270726
-0.26203
-0.252287
-0.241673
-0.230586
-0.21948
-0.208557
-0.198295
-0.18814
-0.179535
-0.303279
-0.296147
-0.289677
-0.282589
-0.27573
-0.26893
-0.261679
-0.253536
-0.244436
-0.2346
-0.224461
-0.214191
-0.204405
-0.194488
-0.186024
-0.297359
-0.291352
-0.285545
-0.279184
-0.273107
-0.267243
-0.2612
-0.254488
-0.24685
-0.238301
-0.229208
-0.219665
-0.210412
-0.200778
-0.192424
-0.292053
-0.28705
-0.281874
-0.276179
-0.270788
-0.265715
-0.260672
-0.255199
-0.248925
-0.241665
-0.233685
-0.22496
-0.216319
-0.207015
-0.198844
-0.287318
-0.2832
-0.278625
-0.273551
-0.268771
-0.264373
-0.260158
-0.255729
-0.250679
-0.24467
-0.23785
-0.230029
-0.222118
-0.213229
-0.205289
-0.283105
-0.279757
-0.275751
-0.271266
-0.267042
-0.263229
-0.259702
-0.256136
-0.252145
-0.247305
-0.241642
-0.234821
-0.227731
-0.219421
-0.212036
-0.279362
-0.276677
-0.273206
-0.269283
-0.265579
-0.262282
-0.25933
-0.25647
-0.253361
-0.249572
-0.245012
-0.239242
-0.233125
-0.225462
-0.218967
-0.276023
-0.273915
-0.270943
-0.267557
-0.264347
-0.261518
-0.259055
-0.256769
-0.254374
-0.251492
-0.247911
-0.243259
-0.23797
-0.231776
-0.225277
-0.273023
-0.271431
-0.268916
-0.266041
-0.263305
-0.260912
-0.258874
-0.257059
-0.255229
-0.2531
-0.250315
-0.246859
-0.242107
-0.23789
-0.230705
-0.270321
-0.269168
-0.267079
-0.264689
-0.262407
-0.260426
-0.258771
-0.257348
-0.255962
-0.254442
-0.252238
-0.250018
-0.245385
-0.243177
-0.235298
-0.267861
-0.267085
-0.265388
-0.263457
-0.261606
-0.260017
-0.258715
-0.25763
-0.256596
-0.25556
-0.253741
-0.252726
-0.24776
-0.247751
-0.238941
-0.265584
-0.265149
-0.263808
-0.262304
-0.260859
-0.259641
-0.258667
-0.257882
-0.257139
-0.256485
-0.254912
-0.254976
-0.249366
-0.25184
-0.241499
-0.263446
-0.263317
-0.262318
-0.261197
-0.26013
-0.259256
-0.258587
-0.258073
-0.257584
-0.257223
-0.25585
-0.256726
-0.250518
-0.255351
-0.242981
-0.261413
-0.261576
-0.260883
-0.260111
-0.259388
-0.25883
-0.258441
-0.258171
-0.257912
-0.257767
-0.256624
-0.257928
-0.251571
-0.257932
-0.243764
-0.259459
-0.259907
-0.259487
-0.259029
-0.258614
-0.25834
-0.258203
-0.258152
-0.258099
-0.258112
-0.257245
-0.258599
-0.252702
-0.259347
-0.244477
-0.25757
-0.2583
-0.258122
-0.257941
-0.257797
-0.257773
-0.257858
-0.258
-0.258126
-0.258262
-0.257681
-0.258839
-0.253846
-0.259713
-0.245532
-0.25574
-0.256751
-0.256786
-0.256847
-0.256938
-0.257128
-0.257403
-0.25771
-0.257986
-0.258225
-0.257893
-0.258777
-0.254815
-0.259393
-0.246883
-0.253972
-0.255263
-0.255484
-0.255755
-0.256044
-0.256414
-0.256847
-0.257291
-0.257687
-0.258014
-0.257856
-0.25853
-0.25545
-0.258747
-0.248235
-0.25228
-0.253846
-0.254228
-0.254676
-0.255131
-0.255649
-0.25621
-0.256764
-0.257257
-0.257636
-0.257596
-0.258166
-0.255691
-0.258036
-0.249349
-0.250682
-0.252514
-0.253034
-0.253631
-0.25422
-0.254857
-0.255519
-0.256158
-0.256721
-0.257144
-0.257267
-0.257533
-0.255701
-0.25736
-0.250153
-0.2492
-0.251283
-0.25192
-0.25264
-0.253338
-0.254068
-0.254808
-0.25551
-0.256122
-0.256578
-0.256787
-0.256864
-0.255727
-0.256278
-0.251004
-0.247862
-0.250176
-0.25091
-0.25173
-0.252512
-0.253313
-0.254111
-0.254859
-0.255504
-0.255984
-0.256231
-0.256236
-0.255513
-0.255355
-0.251857
-0.246694
-0.249212
-0.250025
-0.250924
-0.251771
-0.252625
-0.253465
-0.254244
-0.254911
-0.255407
-0.255674
-0.255662
-0.255159
-0.254673
-0.252362
-0.245722
-0.248412
-0.249287
-0.250246
-0.251141
-0.252033
-0.252902
-0.253703
-0.254384
-0.25489
-0.255167
-0.255161
-0.254778
-0.254184
-0.252612
-0.244971
-0.247794
-0.248715
-0.249718
-0.250647
-0.251565
-0.252453
-0.253267
-0.253956
-0.254468
-0.254752
-0.25476
-0.254445
-0.253846
-0.252717
-0.244459
-0.247373
-0.248325
-0.249356
-0.250306
-0.25124
-0.252141
-0.252962
-0.253656
-0.254171
-0.25446
-0.25448
-0.254204
-0.253634
-0.252749
-0.2442
-0.247161
-0.248127
-0.249172
-0.250133
-0.251075
-0.251981
-0.252806
-0.253502
-0.254019
-0.254311
-0.254338
-0.25408
-0.253535
-0.252759
0.277858
0.255262
0.235961
0.221212
0.208372
0.198455
0.189701
0.182884
0.176794
0.172028
0.167769
0.164471
0.161537
0.15929
0.157324
0.155872
0.154657
0.153842
0.153246
0.153021
0.277291
0.254874
0.235666
0.220999
0.208203
0.198328
0.189596
0.182802
0.176725
0.171971
0.167719
0.164427
0.161497
0.159254
0.157291
0.155841
0.154628
0.153814
0.153219
0.152994
0.276158
0.254099
0.235076
0.220574
0.207865
0.198074
0.189386
0.182637
0.176589
0.171858
0.167618
0.164339
0.161419
0.159182
0.157225
0.15578
0.154571
0.153759
0.153166
0.152941
0.274455
0.25294
0.234191
0.219939
0.20736
0.197694
0.189072
0.18239
0.176385
0.171689
0.167468
0.164208
0.161301
0.159076
0.157127
0.155688
0.154484
0.153677
0.153086
0.152862
0.272184
0.251396
0.233015
0.219096
0.206689
0.197189
0.188655
0.182062
0.176111
0.171462
0.167269
0.164034
0.161144
0.158934
0.156997
0.155567
0.15437
0.153567
0.15298
0.152757
0.269341
0.249469
0.231549
0.218046
0.205856
0.196562
0.188137
0.181652
0.175771
0.171185
0.167023
0.163817
0.16095
0.158758
0.156835
0.155415
0.154228
0.153431
0.152848
0.152626
0.265929
0.247163
0.229797
0.216793
0.204861
0.195812
0.187521
0.181163
0.17536
0.170836
0.166726
0.16356
0.160719
0.158547
0.156642
0.155235
0.154058
0.153269
0.152691
0.15247
0.26195
0.24448
0.227761
0.21534
0.20371
0.194943
0.186809
0.180594
0.174879
0.170462
0.166405
0.163262
0.160452
0.158304
0.156418
0.155026
0.153862
0.153081
0.152509
0.152289
0.257405
0.241425
0.225445
0.213688
0.202405
0.193957
0.186003
0.179948
0.174331
0.170015
0.165994
0.162925
0.16015
0.158029
0.156165
0.154789
0.153639
0.152868
0.152303
0.152084
0.252302
0.238001
0.222855
0.211841
0.200951
0.192854
0.185106
0.179227
0.173721
0.1695
0.165632
0.162565
0.159814
0.157723
0.155883
0.154526
0.153392
0.15263
0.152073
0.151856
0.246648
0.234212
0.219995
0.209801
0.199352
0.191638
0.184121
0.178434
0.173056
0.168934
0.16513
0.162152
0.159445
0.157386
0.155574
0.154236
0.153119
0.152369
0.151821
0.151604
0.240452
0.230063
0.216872
0.207569
0.197613
0.19031
0.183051
0.177569
0.172334
0.168327
0.16462
0.161698
0.159044
0.15702
0.155238
0.153922
0.152823
0.152085
0.151546
0.151331
0.233725
0.225556
0.213494
0.205148
0.195739
0.188873
0.1819
0.176635
0.171558
0.167666
0.164048
0.161204
0.158609
0.156627
0.154877
0.153583
0.152504
0.151779
0.151249
0.151037
0.226483
0.220693
0.20987
0.202539
0.193734
0.18733
0.180669
0.175634
0.170729
0.16696
0.163433
0.160702
0.158169
0.156214
0.154492
0.153221
0.152164
0.151452
0.150932
0.150723
0.218742
0.215474
0.206008
0.199745
0.191603
0.185682
0.179362
0.174569
0.169848
0.16621
0.162782
0.160116
0.157689
0.155767
0.154085
0.152837
0.151803
0.151106
0.150596
0.150389
0.210521
0.209897
0.201919
0.196767
0.189351
0.183935
0.17798
0.173442
0.168919
0.165418
0.1621
0.159516
0.15715
0.155308
0.153639
0.152435
0.151422
0.15074
0.150241
0.150037
0.201834
0.203953
0.19761
0.193609
0.186979
0.182092
0.176527
0.172256
0.16794
0.164586
0.161385
0.158885
0.156586
0.154805
0.153236
0.152015
0.151023
0.150356
0.149868
0.149668
0.19272
0.197646
0.193096
0.190274
0.184489
0.180149
0.174999
0.171008
0.166913
0.163712
0.160635
0.158226
0.155999
0.154268
0.152736
0.151589
0.150609
0.149956
0.149479
0.149282
0.183165
0.191
0.188403
0.186823
0.181924
0.178163
0.173439
0.16974
0.165867
0.162825
0.159871
0.157554
0.155402
0.153728
0.152238
0.151124
0.15019
0.149544
0.149074
0.148882
0.1727
0.183533
0.183268
0.183058
0.179157
0.176037
0.171765
0.168386
0.164745
0.161875
0.159053
0.156835
0.154763
0.153151
0.151712
0.150633
0.149729
0.14911
0.148656
0.148469
0.157539
0.171299
0.174907
0.175936
0.173855
0.171585
0.168339
0.165502
0.162458
0.159927
0.157463
0.155459
0.153607
0.152133
0.150831
0.149835
0.14901
0.148436
0.148026
0.147859
0.145649
0.1577
0.16435
0.166922
0.166786
0.165689
0.163618
0.161568
0.159251
0.157232
0.155224
0.153551
0.151988
0.150727
0.149606
0.148742
0.148021
0.147517
0.14716
0.147019
0.13477
0.146541
0.154593
0.158418
0.159871
0.159856
0.158866
0.157574
0.155962
0.154452
0.152901
0.151565
0.150297
0.149256
0.148322
0.147595
0.146986
0.146555
0.146252
0.146133
0.124681
0.13675
0.145636
0.15049
0.153221
0.154179
0.154174
0.153593
0.152657
0.151638
0.150537
0.149532
0.148561
0.147738
0.146996
0.146406
0.14591
0.145556
0.145308
0.145211
0.115592
0.127959
0.137427
0.143155
0.146896
0.148726
0.149589
0.149675
0.149369
0.148822
0.148156
0.147475
0.146797
0.14619
0.145638
0.145185
0.144804
0.144527
0.144335
0.144257
0.107529
0.120045
0.12992
0.136376
0.14092
0.143522
0.14514
0.145848
0.146121
0.146028
0.145774
0.14541
0.145015
0.144623
0.144258
0.143942
0.143675
0.143474
0.143338
0.143279
0.100401
0.112936
0.123077
0.130114
0.135304
0.138582
0.140853
0.142135
0.142934
0.143273
0.143407
0.143352
0.143229
0.143048
0.142864
0.142684
0.142529
0.142406
0.142323
0.142284
0.0940744
0.106552
0.116856
0.124337
0.13005
0.133911
0.136748
0.138552
0.139829
0.140575
0.141071
0.141313
0.141449
0.141475
0.141467
0.141421
0.141375
0.141328
0.141298
0.141279
0.0884438
0.100815
0.111205
0.11902
0.125153
0.129511
0.132839
0.135113
0.136821
0.137947
0.13878
0.139305
0.139688
0.139913
0.140075
0.140159
0.14022
0.140247
0.140267
0.140269
0.0834274
0.0956553
0.106076
0.114133
0.120604
0.125381
0.129133
0.131828
0.133924
0.135401
0.136546
0.13734
0.137955
0.138373
0.138696
0.138908
0.13907
0.139169
0.139239
0.139261
0.0789572
0.0910146
0.10142
0.10965
0.11639
0.121518
0.125636
0.128703
0.131148
0.132948
0.134381
0.135426
0.13626
0.136861
0.137337
0.137672
0.137932
0.138102
0.138218
0.13826
0.0749733
0.086842
0.0971969
0.105545
0.112496
0.117916
0.122348
0.125744
0.128502
0.130595
0.132293
0.133573
0.134611
0.135386
0.136008
0.13646
0.136813
0.13705
0.137211
0.137274
0.071423
0.083092
0.0933695
0.101792
0.108906
0.114569
0.11927
0.122954
0.12599
0.12835
0.13029
0.131788
0.133016
0.133954
0.134713
0.135278
0.135718
0.136021
0.136224
0.136306
0.0682594
0.079724
0.0899044
0.0983672
0.105606
0.111468
0.116398
0.120335
0.123618
0.126219
0.128378
0.130078
0.131482
0.132573
0.133461
0.134131
0.134654
0.135018
0.135261
0.135362
0.0654417
0.0767014
0.0867717
0.0952489
0.102579
0.108605
0.113729
0.117885
0.121387
0.124205
0.126564
0.128448
0.130014
0.131248
0.132256
0.133025
0.133627
0.134048
0.134329
0.134448
0.0629339
0.0739924
0.0839446
0.0924165
0.0998113
0.105971
0.111259
0.115606
0.119301
0.122312
0.124852
0.126904
0.128619
0.129984
0.131103
0.131965
0.13264
0.133116
0.133431
0.133568
0.0607047
0.0715684
0.081399
0.0898508
0.0972895
0.103557
0.108982
0.113494
0.117358
0.120542
0.123244
0.125449
0.127301
0.128787
0.130008
0.130956
0.131698
0.132225
0.132573
0.132727
0.0587269
0.0694045
0.0791134
0.0875348
0.0950005
0.101354
0.106895
0.111549
0.115561
0.118897
0.121745
0.124088
0.126063
0.12766
0.128975
0.130003
0.130807
0.13138
0.131759
0.131928
0.0569768
0.067479
0.0770688
0.0854526
0.0929323
0.0993542
0.104991
0.109767
0.113908
0.117379
0.120356
0.122823
0.124909
0.126607
0.128008
0.129108
0.12997
0.130586
0.130993
0.131176
0.0554339
0.0657725
0.0752482
0.0835902
0.091074
0.0975498
0.103265
0.108146
0.112398
0.115988
0.119079
0.121657
0.123843
0.125632
0.127111
0.128277
0.12919
0.129846
0.130278
0.130474
0.0540803
0.0642684
0.0736365
0.0819349
0.0894156
0.0959333
0.101714
0.106683
0.111031
0.114725
0.117916
0.120592
0.122867
0.124737
0.126286
0.127511
0.128472
0.129163
0.129618
0.129826
0.052901
0.0629522
0.0722207
0.0804755
0.0879481
0.094498
0.100331
0.105375
0.109805
0.113589
0.116868
0.11963
0.121983
0.123925
0.125536
0.126814
0.127817
0.12854
0.129015
0.129234
0.0518827
0.0618114
0.0709892
0.0792021
0.0866635
0.0932376
0.0991135
0.10422
0.108719
0.11258
0.115934
0.118771
0.121194
0.123199
0.124864
0.126188
0.127228
0.127979
0.128473
0.128701
0.0510146
0.0608354
0.0699323
0.078106
0.0855547
0.0921468
0.0980568
0.103215
0.107773
0.111698
0.115117
0.118018
0.120499
0.122559
0.124271
0.125636
0.126708
0.127484
0.127993
0.12823
0.0502873
0.0600151
0.0690415
0.07718
0.0846155
0.0912208
0.0971577
0.102358
0.106964
0.110944
0.114416
0.117371
0.119902
0.122008
0.12376
0.12516
0.126259
0.127055
0.127579
0.127822
0.0496931
0.059343
0.0683097
0.0764178
0.0838407
0.0904554
0.096413
0.101647
0.106291
0.110316
0.113832
0.116831
0.119403
0.121547
0.123332
0.12476
0.125882
0.126696
0.12723
0.127479
0.0492259
0.0588131
0.0677312
0.0758143
0.083226
0.0898472
0.0958204
0.101081
0.105755
0.109814
0.113365
0.116399
0.119003
0.121177
0.122988
0.124439
0.125579
0.126406
0.12695
0.127204
0.0488807
0.0584205
0.0673014
0.0753652
0.082768
0.0893935
0.0953777
0.100657
0.105353
0.109438
0.113014
0.116074
0.118702
0.120899
0.122729
0.124197
0.12535
0.126188
0.126738
0.126996
0.0486539
0.0581618
0.0670169
0.0750678
0.0824639
0.0890923
0.0950833
0.100375
0.105086
0.109187
0.11278
0.115857
0.118501
0.120713
0.122556
0.124036
0.125198
0.126043
0.126597
0.126857
0.048542
0.0580347
0.0668746
0.0749203
0.0823117
0.0889425
0.0949359
0.100235
0.104952
0.109062
0.112663
0.115749
0.1184
0.12062
0.12247
0.123955
0.125121
0.12597
0.126526
0.126787
0.142823
0.133695
0.124009
0.114639
0.106038
0.0982903
0.0913618
0.0851885
0.0797027
0.0748358
0.0705213
0.0666974
0.0633084
0.060305
0.057644
0.0552877
0.0532032
0.051362
0.0497396
0.0483144
0.0470684
0.0459857
0.045053
0.0442591
0.0435946
0.0430517
0.0426245
0.0423078
0.0420987
0.0419994
0.132564
0.12289
0.113771
0.105183
0.0973937
0.0903863
0.0841086
0.078508
0.0735304
0.0691153
0.065202
0.0617335
0.0586588
0.0559326
0.0535158
0.0513739
0.0494774
0.0478003
0.0463205
0.0450186
0.0438782
0.0428852
0.0420275
0.0412949
0.040679
0.0401729
0.0397711
0.039469
0.0392643
0.0391643
0.120728
0.109636
0.100684
0.0927402
0.0858459
0.0797864
0.0744343
0.0696993
0.0655108
0.0618042
0.058521
0.0556093
0.0530242
0.0507271
0.0486852
0.0468699
0.0452569
0.0438254
0.0425573
0.0414373
0.040452
0.0395901
0.0388421
0.0381997
0.0376561
0.0372059
0.0368447
0.0365689
0.0363759
0.0362759
0.110087
0.099019
0.0905015
0.0829735
0.0766119
0.0711292
0.066373
0.0622229
0.0585871
0.0553903
0.0525704
0.0500761
0.0478647
0.0459005
0.0441536
0.0425991
0.0412155
0.0399849
0.0388921
0.0379241
0.0370697
0.0363195
0.0356655
0.035101
0.0346203
0.0342188
0.0338934
0.0336408
0.0334572
0.0333523
0.0993078
0.0893441
0.0819915
0.0751741
0.0693805
0.0643552
0.0600062
0.0562297
0.0529385
0.0500586
0.0475291
0.0452997
0.0433293
0.0415837
0.0400345
0.038658
0.0374341
0.0363461
0.0353799
0.0345234
0.0337666
0.0331008
0.0325188
0.0320145
0.0315828
0.0312197
0.0309222
0.0306878
0.030511
0.0303987
0.0879364
0.0790418
0.0729981
0.067141
0.0621561
0.0577504
0.0539008
0.0505355
0.0475925
0.0450135
0.0427477
0.0407519
0.0389899
0.0374309
0.0360492
0.034823
0.0337341
0.0327669
0.0319083
0.0311472
0.0304743
0.0298816
0.0293623
0.0289109
0.0285226
0.0281936
0.0279212
0.0277035
0.0275336
0.0274147
0.076455
0.0684316
0.0633856
0.0583765
0.0542255
0.0505294
0.0472887
0.0444362
0.0419266
0.0397165
0.0377677
0.0360466
0.0345241
0.0331751
0.0319783
0.0309153
0.0299707
0.029131
0.028385
0.0277229
0.0271365
0.0266189
0.0261641
0.025767
0.0254235
0.02513
0.024884
0.0246842
0.0245238
0.0244005
0.0651114
0.0580238
0.0538032
0.0494832
0.0460382
0.0429849
0.0403366
0.0380106
0.0359632
0.0341564
0.0325588
0.031144
0.0298889
0.028774
0.0277825
0.0268998
0.0261135
0.0254129
0.024789
0.0242337
0.0237404
0.0233033
0.0229174
0.0225785
0.0222831
0.022028
0.0218111
0.0216317
0.0214834
0.0213583
0.0538601
0.0478283
0.044467
0.0408343
0.0380303
0.0355435
0.0334212
0.0315727
0.029956
0.0285341
0.0272786
0.0261667
0.0251795
0.0243012
0.0235186
0.0228202
0.0221964
0.021639
0.0211409
0.0206959
0.0202988
0.0199451
0.0196308
0.0193525
0.0191075
0.0188931
0.0187074
0.0185503
0.0184162
0.0182919
0.0426637
0.0377121
0.035252
0.0323735
0.0302325
0.0283034
0.0266771
0.0252683
0.0240459
0.0229775
0.0220389
0.0212103
0.020476
0.0198231
0.0192411
0.018721
0.0182556
0.0178386
0.0174645
0.0171288
0.0168274
0.016557
0.0163146
0.0160976
0.0159038
0.0157311
0.0155778
0.0154443
0.0153262
0.015205
0.0315603
0.0276527
0.0260742
0.0239743
0.0225201
0.0211677
0.0200425
0.0190663
0.018224
0.0174922
0.0168535
0.0162928
0.0157979
0.0153591
0.0149684
0.0146193
0.0143064
0.0140251
0.0137715
0.0135425
0.013335
0.0131468
0.0129757
0.0128196
0.0126772
0.0125467
0.0124267
0.0123178
0.0122172
0.0121012
0.0205943
0.0176921
0.0169642
0.0156212
0.0148396
0.0140634
0.013442
0.0129
0.0124361
0.012037
0.0116928
0.0113937
0.0111319
0.0109012
0.0106964
0.0105134
0.0103489
0.0102001
0.0100645
0.00994011
0.00982518
0.00971816
0.00961766
0.00952246
0.0094315
0.00934365
0.00925759
0.00917436
0.00909253
0.00898393
0.00977858
0.00785962
0.0079745
0.00735744
0.00721817
0.00699599
0.00686509
0.00674887
0.0066579
0.0065887
0.0065367
0.00649669
0.00646527
0.00643984
0.00641836
0.00639922
0.00638113
0.00636301
0.00634394
0.00632314
0.0062999
0.00627356
0.00624351
0.00620916
0.00616997
0.0061253
0.006074
0.00601731
0.00595569
0.00585641
-0.000896663
-0.00183821
-0.000870647
-0.00078975
-0.000308603
-2.79416e-06
0.000336804
0.000629868
0.000898044
0.00115181
0.0013871
0.00160229
0.00179813
0.00197543
0.00213506
0.00227785
0.00240458
0.0025159
0.00261235
0.00269437
0.00276229
0.00281635
0.00285668
0.0028833
0.00289622
0.00289526
0.00287949
0.0028502
0.00281016
0.00272195
-0.0114484
-0.0113786
-0.00956455
-0.00881319
-0.00772652
-0.00691518
-0.00612191
-0.00543673
-0.00482783
-0.00425896
-0.00374412
-0.00327986
-0.00286158
-0.00248541
-0.00214775
-0.00184546
-0.00157584
-0.00133661
-0.00112582
-0.00094186
-0.00078338
-0.00064929
-0.000538729
-0.000451063
-0.000385799
-0.000342574
-0.000322121
-0.000323395
-0.00034044
-0.000415972
-0.021888
-0.0206921
-0.0181133
-0.0167051
-0.0150379
-0.0137395
-0.0125064
-0.0114422
-0.0105099
-0.00963131
-0.00884576
-0.00813964
-0.0075049
-0.00693469
-0.00642287
-0.00596417
-0.00555412
-0.0051889
-0.00486527
-0.00458049
-0.00433227
-0.0041187
-0.00393822
-0.00378961
-0.00367189
-0.00358419
-0.00352689
-0.00349981
-0.00349258
-0.0035537
-0.0321544
-0.0296728
-0.02655
-0.0244457
-0.0222576
-0.02048
-0.0188263
-0.0173902
-0.0161394
-0.0149567
-0.0139105
-0.01297
-0.0121252
-0.0113661
-0.0106843
-0.0100725
-0.00952474
-0.00903567
-0.00860087
-0.00821658
-0.0078796
-0.00758725
-0.0073373
-0.00712796
-0.00695782
-0.00682553
-0.00673083
-0.00667512
-0.00664313
-0.00668706
-0.042172
-0.0385638
-0.0349394
-0.0321234
-0.0294519
-0.027187
-0.0251356
-0.0233137
-0.0216869
-0.0202269
-0.0189311
-0.0177657
-0.0167177
-0.0157751
-0.0149276
-0.0141662
-0.0134833
-0.0128726
-0.0123283
-0.0118458
-0.0114211
-0.0110507
-0.0107318
-0.010462
-0.0102395
-0.0100626
-0.00993027
-0.00984496
-0.00978992
-0.00981151
-0.0518094
-0.047359
-0.0432026
-0.0397324
-0.0365718
-0.0338346
-0.0313867
-0.0291997
-0.0272352
-0.0254946
-0.0239461
-0.0225547
-0.0213033
-0.0201775
-0.0191646
-0.0182539
-0.0174363
-0.0167041
-0.0160506
-0.0154701
-0.0149576
-0.0145091
-0.0141211
-0.0137906
-0.0135154
-0.0132935
-0.0131234
-0.0130061
-0.0129317
-0.0129248
-0.061118
-0.0559998
-0.0512958
-0.047228
-0.0435814
-0.0403961
-0.0375607
-0.035031
-0.0327636
-0.0307469
-0.0289468
-0.0273298
-0.0258759
-0.0245676
-0.0233902
-0.0223311
-0.0213796
-0.0205266
-0.0197644
-0.0190863
-0.0184864
-0.0179601
-0.0175032
-0.0171122
-0.0167844
-0.0165175
-0.0163095
-0.0161605
-0.016065
-0.0160361
-0.070199
-0.0644873
-0.0592099
-0.0545812
-0.0504642
-0.0468578
-0.0436512
-0.0407937
-0.038237
-0.0359537
-0.0339093
-0.0320718
-0.0304191
-0.0289316
-0.0275922
-0.0263868
-0.0253032
-0.0243311
-0.0234615
-0.0226868
-0.0220006
-0.0213972
-0.020872
-0.020421
-0.020041
-0.0197293
-0.0194837
-0.0193036
-0.0191849
-0.0191401
-0.0791194
-0.0728346
-0.0669516
-0.0617848
-0.0572206
-0.0532166
-0.0496548
-0.0464798
-0.0436394
-0.0410976
-0.0388174
-0.0367664
-0.0349205
-0.033258
-0.0317603
-0.0304116
-0.0291983
-0.0281091
-0.0271338
-0.0262642
-0.0254928
-0.0248134
-0.0242209
-0.0237106
-0.0232791
-0.0229231
-0.0226404
-0.0224296
-0.0222867
-0.0222268
-0.0878916
-0.0810183
-0.0745319
-0.0688512
-0.0638631
-0.0594786
-0.0555741
-0.0520901
-0.0489717
-0.0461777
-0.0436687
-0.0414103
-0.0393763
-0.037543
-0.0358904
-0.0344011
-0.0330606
-0.0318562
-0.030777
-0.0298138
-0.0289585
-0.0282043
-0.0275453
-0.0269766
-0.0264942
-0.0260946
-0.0257752
-0.0255344
-0.0253673
-0.0252901
-0.0964847
-0.0890301
-0.0819612
-0.0757946
-0.0704022
-0.0656503
-0.0614136
-0.0576289
-0.0542388
-0.0511984
-0.0484659
-0.0460049
-0.0437866
-0.0417859
-0.039981
-0.0383537
-0.0368879
-0.0355701
-0.0343886
-0.0333331
-0.0323951
-0.031567
-0.0308424
-0.0302161
-0.0296835
-0.0292409
-0.0288855
-0.0286151
-0.0284243
-0.0283284
-0.104875
-0.0968739
-0.0892484
-0.0826212
-0.076841
-0.0717346
-0.0671756
-0.0630982
-0.0594431
-0.0561619
-0.0532105
-0.0505505
-0.0481512
-0.0459857
-0.044031
-0.0422675
-0.0406783
-0.0392486
-0.037966
-0.0368195
-0.0357998
-0.0348988
-0.0341097
-0.0334266
-0.0328445
-0.0323596
-0.0319687
-0.0316695
-0.0314557
-0.0313409
-0.11306
-0.104559
-0.0963993
-0.089332
-0.0831802
-0.0777327
-0.0728614
-0.0684986
-0.0645844
-0.0610675
-0.0579015
-0.0550459
-0.0524683
-0.0501404
-0.048038
-0.0461403
-0.0444291
-0.042889
-0.0415066
-0.0402702
-0.0391699
-0.038197
-0.0373442
-0.0366051
-0.0359746
-0.0354482
-0.0350224
-0.0346951
-0.0344593
-0.0343263
-0.121045
-0.112093
-0.103416
-0.0959252
-0.0894185
-0.0836447
-0.0784705
-0.0738289
-0.069661
-0.0659136
-0.062537
-0.0594889
-0.0567355
-0.0542475
-0.0519994
-0.0499691
-0.0481375
-0.0464884
-0.0450074
-0.0436823
-0.0425024
-0.0414587
-0.0405431
-0.0397491
-0.0390709
-0.0385038
-0.0380442
-0.0376896
-0.0374327
-0.0372826
-0.128838
-0.119481
-0.1103
-0.102402
-0.0955595
-0.0894738
-0.0840042
-0.0790886
-0.0746722
-0.0706988
-0.0671151
-0.0638772
-0.0609505
-0.0583046
-0.0559126