/*--------------------------------*- C++ -*----------------------------------*\
  =========                 |
  \\      /  F ield         | OpenFOAM: The Open Source CFD Toolbox
   \\    /   O peration     | Website:  https://openfoam.org
    \\  /    A nd           | Version:  7
     \\/     M anipulation  |
\*---------------------------------------------------------------------------*/
FoamFile
{
    version     2.0;
    format      ascii;
    class       surfaceScalarField;
    location    "54.999";
    object      phi;
}
// * * * * * * * * * * * * * * * * * * * * * * * * * * * * * * * * * * * * * //

dimensions      [0 3 -1 0 0 0 0];

internalField   nonuniform List<scalar> 
7248
(
-0.000159366
0.000159351
-0.00043571
0.000276316
-0.000743689
0.000307948
-0.00105653
0.000312813
-0.00137149
0.000314929
-0.0016904
0.000318887
-0.00201513
0.000324697
-0.00234727
0.000332114
-0.00268828
0.000340984
-0.00303948
0.000351181
-0.00340214
0.000362628
-0.00377742
0.000375262
-0.00416639
0.000388944
-0.00456989
0.000403483
0.000419192
-0.00498911
-0.000158671
0.000318022
-0.000434212
0.000551857
-0.000741525
0.000615261
-0.00105379
0.000625077
-0.00136819
0.000629332
-0.00168656
0.000637256
-0.00201074
0.00064888
-0.00234234
0.000663714
-0.00268281
0.000681452
-0.00303347
0.000701843
-0.00339558
0.000724732
-0.00377031
0.000749993
-0.00415872
0.000777352
-0.00456166
0.000806432
0.000837834
-0.00498031
-0.000157281
0.000475303
-0.000431217
0.000825793
-0.000737197
0.000921241
-0.0010483
0.000936182
-0.0013616
0.000942627
-0.00167887
0.000954533
-0.00200198
0.000971981
-0.0023325
0.000994235
-0.00267188
0.00102084
-0.00302146
0.00105142
-0.00338246
0.00108574
-0.00375608
0.00112361
-0.00414337
0.00116464
-0.00454521
0.00120826
0.00125533
-0.0049627
-0.000155199
0.000630502
-0.000426726
0.00109732
-0.000730707
0.00122522
-0.00104007
0.00124555
-0.00135171
0.00125426
-0.00166735
0.00127018
-0.00198883
0.00129346
-0.00231773
0.00132314
-0.0026555
0.00135861
-0.00300345
0.00139936
-0.0033628
0.0014451
-0.00373476
0.00149556
-0.00412037
0.00155026
-0.00452052
0.00160842
0.00167109
-0.00493628
-0.000152428
0.00078293
-0.000420743
0.00136563
-0.000722056
0.00152653
-0.00102911
0.0015526
-0.00133853
0.00156368
-0.001652
0.00158364
-0.00197132
0.00161278
-0.00229807
0.00164989
-0.00263368
0.00169421
-0.00297945
0.00174513
-0.00333661
0.00180226
-0.00370634
0.00186529
-0.00408972
0.00193363
-0.00448762
0.00200632
0.00208453
-0.00490106
-0.000148972
0.000931902
-0.000413269
0.00162993
-0.000711246
0.00182451
-0.00101541
0.00185677
-0.00132208
0.00187035
-0.00163283
0.00189439
-0.00194945
0.00192941
-0.00227352
0.00197395
-0.00260643
0.00202713
-0.00294949
0.00208819
-0.00330391
0.00215668
-0.00367087
0.00223225
-0.00405143
0.0023142
-0.00444652
0.0024014
0.00249506
-0.00485705
-0.000144836
0.00107674
-0.00040431
0.00188941
-0.00069828
0.00211848
-0.00099898
0.00215747
-0.00130235
0.00217372
-0.00160985
0.00220189
-0.00192325
0.00224281
-0.0022441
0.0022948
-0.00257378
0.00235682
-0.00291359
0.002428
-0.00326473
0.00250782
-0.00362835
0.00259587
-0.00400555
0.0026914
-0.00439724
0.00279309
0.00290208
-0.00480426
-0.000140028
0.00121677
-0.000393871
0.00214325
-0.000683162
0.00240777
-0.000979826
0.00245413
-0.00127935
0.00247324
-0.00158308
0.00250562
-0.00189273
0.00255246
-0.00220983
0.0026119
-0.00253576
0.00268275
-0.00287179
0.00276403
-0.00321909
0.00285512
-0.00357883
0.0029556
-0.0039521
0.00306467
-0.00433982
0.00318081
0.00330499
-0.00474273
-0.000134554
0.00135132
-0.000381959
0.00239065
-0.000665896
0.00269171
-0.000957955
0.00274619
-0.00125311
0.0027684
-0.00155253
0.00280504
-0.00185791
0.00285785
-0.00217075
0.00292474
-0.0024924
0.0030044
-0.00282411
0.00309574
-0.00316704
0.00319806
-0.00352235
0.0033109
-0.00389113
0.00343345
-0.00427431
0.00356399
0.00370319
-0.00467252
-0.000128426
0.00147975
-0.000368582
0.00263081
-0.000646487
0.00296961
-0.000933373
0.00303308
-0.00122363
0.00305866
-0.00151823
0.00309964
-0.00181883
0.00315844
-0.00212688
0.00323279
-0.00244373
0.00332125
-0.0027706
0.0034226
-0.00310863
0.00353609
-0.00345895
0.00366123
-0.00382269
0.00379719
-0.00420076
0.00394207
0.00409612
-0.00459368
-0.000121655
0.0016014
-0.000353751
0.0028629
-0.000624942
0.00324081
-0.000906091
0.00331422
-0.00119093
0.0033435
-0.0014802
0.00338891
-0.00177551
0.00345374
-0.00207827
0.00353556
-0.0023898
0.00363278
-0.0027113
0.0037441
-0.00304389
0.00386868
-0.00338869
0.00400603
-0.00374684
0.00415533
-0.00411925
0.00431448
0.00448319
-0.00450632
-0.000114255
0.00171566
-0.000337478
0.00308613
-0.000601268
0.0035046
-0.000876117
0.00358907
-0.00115503
0.00362241
-0.00143847
0.00367235
-0.00172798
0.00374326
-0.00202496
0.00383254
-0.00233067
0.00393849
-0.00264628
0.00405972
-0.0029729
0.0041953
-0.00331164
0.00434476
-0.00366364
0.00450733
-0.00402985
0.00468068
0.00486385
-0.00441051
-0.000106242
0.0018219
-0.000319778
0.00329966
-0.000575475
0.00376029
-0.000843464
0.00385706
-0.00111594
0.00389488
-0.00139306
0.00394948
-0.00167629
0.00402648
-0.00196698
0.00412323
-0.00226637
0.00423788
-0.0025756
0.00436894
-0.00289572
0.00451543
-0.00322784
0.00467688
-0.00357317
0.00485266
-0.00393265
0.00504017
0.00523758
-0.00430638
-9.76357e-05
0.00191954
-0.000300668
0.0035027
-0.000547574
0.0040072
-0.000808144
0.00411763
-0.00107369
0.00416042
-0.00134401
0.0042198
-0.00162048
0.00430295
-0.0019044
0.00440715
-0.00219698
0.00453046
-0.00249932
0.00467128
-0.00281243
0.00482854
-0.00313739
0.00500184
-0.00347548
0.00519075
-0.00382775
0.00539243
0.00560387
-0.00419404
-8.84589e-05
0.00200799
-0.000280169
0.00369441
-0.000517577
0.00424461
-0.00077017
0.00437023
-0.0010283
0.00441856
-0.00129136
0.00448285
-0.00156059
0.00457219
-0.00183728
0.00468383
-0.00212256
0.00481574
-0.00241752
0.00496624
-0.00272311
0.00513413
-0.00304034
0.00531907
-0.00337061
0.00552102
-0.0037152
0.00573702
0.00596232
-0.00407365
-7.87401e-05
0.00208673
-0.000258307
0.00387397
-0.000485499
0.0044718
-0.00072956
0.00461429
-0.000979801
0.0046688
-0.00123513
0.00473819
-0.00149669
0.00483375
-0.00176567
0.00495281
-0.00204319
0.00509326
-0.0023303
0.00525335
-0.0026279
0.00543173
-0.00293687
0.00562804
-0.0032587
0.00584285
-0.00359519
0.00607351
0.00631263
-0.00394549
-6.85151e-05
0.00215525
-0.000235111
0.00404057
-0.00045136
0.00468805
-0.00068633
0.00484926
-0.000928217
0.00491068
-0.00117538
0.00498535
-0.00142881
0.00508718
-0.00168965
0.00521365
-0.00195895
0.00536256
-0.00223772
0.00553212
-0.00252683
0.00572085
-0.00282693
0.00592813
-0.00313941
0.00615534
-0.00346721
0.00640132
0.00665505
-0.00380963
-5.78231e-05
0.00221307
-0.000210613
0.00419336
-0.000415179
0.00489261
-0.0006405
0.00507458
-0.000873579
0.00514376
-0.00111216
0.00522393
-0.00135704
0.00533206
-0.0016093
0.00546591
-0.00186993
0.00562319
-0.00213993
0.00580212
-0.0024202
0.00600111
-0.0027112
0.00621913
-0.00301377
0.00645791
-0.00333213
0.00671967
0.00699044
-0.00366752
-4.66562e-05
0.00225973
-0.000184849
0.00433155
-0.000376983
0.00508475
-0.000592095
0.00528969
-0.000815922
0.00536759
-0.0010455
0.0054535
-0.00128142
0.00556798
-0.00152469
0.00570918
-0.00177623
0.00587473
-0.00203697
0.00606286
-0.00230782
0.00627196
-0.0025891
0.00650041
-0.00288016
0.00674898
-0.00318513
0.00702464
0.00732262
-0.00351731
-3.50516e-05
0.00229478
-0.000157865
0.00445437
-0.000336799
0.00526368
-0.000541142
0.00549403
-0.000755283
0.00558173
-0.000975458
0.00567368
-0.00120203
0.00579455
-0.00143591
0.00594306
-0.00167797
0.00611679
-0.00192904
0.00631393
-0.0021901
0.00653302
-0.00246198
0.00677229
-0.00274389
0.00703089
-0.00303399
0.00731474
0.0076581
-0.00336946
-2.30456e-05
0.00231783
-0.000129709
0.00456103
-0.000294661
0.00542863
-0.000487676
0.00568705
-0.000691703
0.00578576
-0.000902098
0.00588407
-0.00111894
0.00601139
-0.00134306
0.00616718
-0.00157525
0.00634898
-0.00181628
0.00655496
-0.00206702
0.00678376
-0.00232843
0.00703369
-0.00260092
0.00730338
-0.00288536
0.00759918
0.00793228
-0.00315954
-1.06288e-05
0.00232846
-0.000100422
0.00465082
-0.000250607
0.00557882
-0.000431741
0.00586818
-0.000625227
0.00597924
-0.000825475
0.00608432
-0.00103223
0.00621814
-0.00124622
0.00638117
-0.00146819
0.00657095
-0.00169881
0.00678557
-0.0019388
0.00702376
-0.00218907
0.00728396
-0.00245007
0.00756439
-0.00271987
0.00786898
0.00821217
-0.00299976
2.23977e-06
0.00232622
-7.00037e-05
0.00472307
-0.000204689
0.0057135
-0.000373398
0.00603689
-0.000555904
0.00616175
-0.000745652
0.00627407
-0.000941984
0.00641448
-0.00114551
0.0065847
-0.0013569
0.00678234
-0.00157678
0.00700545
-0.00180575
0.00725273
-0.00204467
0.00752288
-0.00229462
0.00781433
-0.00255589
0.00813025
0.00848042
-0.00282414
1.44771e-05
0.00231174
-3.82482e-05
0.00477579
-0.000157023
0.00583228
-0.000312733
0.0061926
-0.000483788
0.0063328
-0.000662697
0.00645298
-0.000848286
0.00660007
-0.00104101
0.00677742
-0.0012415
0.00698284
-0.00145034
0.00721429
-0.00166809
0.00747048
-0.0018956
0.00775039
-0.00213412
0.00805285
-0.00238386
0.00837999
0.0087379
-0.00264134
2.69806e-05
0.00228476
-3.13792e-06
0.00480591
-0.000107898
0.00593704
-0.000249792
0.00633449
-0.000408933
0.00649195
-0.000576685
0.00662073
-0.000751225
0.00677461
-0.000932848
0.00695904
-0.00112213
0.00717212
-0.00131962
0.00741178
-0.00152589
0.00767674
-0.00174173
0.00796624
-0.00196835
0.00827947
-0.00220567
0.00861732
0.008983
-0.00245077
3.90024e-05
0.00224576
2.62674e-05
0.00481864
-5.80571e-05
0.00602136
-0.000184643
0.00646108
-0.000331435
0.00663874
-0.000487698
0.00677699
-0.000650893
0.0069378
-0.000821125
0.00712928
-0.000998903
0.0073499
-0.00118475
0.00759763
-0.00137922
0.00787121
-0.00158306
0.00817008
-0.00179736
0.00849377
-0.00202213
0.00884208
0.00921556
-0.00225468
5.08382e-05
0.00219492
5.78809e-05
0.0048116
-5.839e-06
0.00608508
-0.000117448
0.00657269
-0.000251394
0.00677268
-0.000395814
0.00692141
-0.000547383
0.00708937
-0.000705951
0.00728784
-0.000871944
0.00751589
-0.00104585
0.00777154
-0.00122819
0.00805355
-0.00141967
0.00836156
-0.00162127
0.00869536
-0.00183304
0.00905386
0.00943548
-0.00205296
6.24661e-05
0.00213245
9.0275e-05
0.00478379
4.65148e-05
0.00612884
-4.84485e-05
0.00666765
-0.000168874
0.00689311
-0.000301122
0.00705366
-0.000440797
0.00722904
-0.000587443
0.00743449
-0.000741381
0.00766983
-0.000903059
0.00793321
-0.00107297
0.00822346
-0.00125174
0.00854034
-0.00144022
0.00888384
-0.00163848
0.00925212
0.0096421
-0.0018451
7.36673e-05
0.00205878
0.000122824
0.00473464
0.000100283
0.00615138
2.24025e-05
0.00674553
-8.4031e-05
0.00699954
-0.000203711
0.00717334
-0.00033124
0.00735657
-0.000465722
0.00756897
-0.00060735
0.00781145
-0.000756527
0.00808239
-0.0009137
0.00838063
-0.00107943
0.00870607
-0.00125444
0.00905885
-0.00143877
0.00943644
0.00983471
-0.00163138
8.42348e-05
0.00197455
0.000155196
0.00466368
0.000154845
0.00615173
9.4968e-05
0.00680541
2.15596e-06
0.00709235
-0.000103709
0.00727921
-0.000218845
0.00747171
-0.000340917
0.00769104
-0.000469996
0.00794053
-0.000606413
0.00821881
-0.000750562
0.00852478
-0.000902925
0.00885844
-0.00106412
0.00922004
-0.00123419
0.00960652
0.0100128
-0.00141231
9.39877e-05
0.00188056
0.000187049
0.00457061
0.000209838
0.00612895
0.000169174
0.00684607
9.2439e-05
0.00716909
-2.03523e-06
0.00737368
-0.000103766
0.00757344
-0.000213185
0.00780046
-0.00032947
0.00805682
-0.000452888
0.00834223
-0.000583743
0.00865563
-0.000722414
0.00899711
-0.000869468
0.00936709
-0.00102501
0.00976206
0.0101761
-0.00118828
0.000102749
0.00177781
0.000218003
0.00445536
0.000264918
0.00608203
0.000244515
0.00686648
0.000183847
0.00722976
0.000103959
0.00745357
1.36968e-05
0.0076637
-8.27244e-05
0.00789688
-0.000185954
0.00816005
-0.000296133
0.0084524
-0.000413445
0.00877294
-0.000538133
0.0091218
-0.000670723
0.00949968
-0.000811517
0.00990285
0.0103242
-0.000959582
0.000110344
0.00166747
0.00024765
0.00431805
0.00031965
0.00601003
0.000320695
0.00686543
0.000276995
0.00727346
0.000211235
0.00751933
0.000134614
0.00774032
5.05455e-05
0.00798095
-3.97839e-05
0.00825038
-0.000136363
0.00854898
-0.000239901
0.00887648
-0.000350339
0.00923224
-0.000468123
0.00961746
-0.000594002
0.0100287
0.0104567
-0.000726551
0.000116607
0.00155086
0.000275554
0.00415911
0.000373542
0.00591204
0.000397337
0.00684164
0.000371611
0.00729918
0.000320567
0.00757037
0.000257337
0.00780355
0.000186614
0.00805168
0.000109517
0.00832747
2.60934e-05
0.00863241
-6.3391e-05
0.00896597
-0.000159378
0.00932822
-0.000262011
0.0097201
-0.000372669
0.0101394
0.0105736
-0.00048957
0.000121393
0.00142947
0.000301254
0.00397925
0.000426028
0.00578727
0.000473973
0.00679369
0.000467375
0.00730578
0.000431743
0.007606
0.000382214
0.00785308
0.000324814
0.00810908
0.00026122
0.00839107
0.000191747
0.00870188
0.000116188
0.00904153
3.44028e-05
0.00941001
-5.31905e-05
0.00980769
-0.000147166
0.0102334
0.0106759
-0.000249413
0.000124589
0.00130488
0.000324267
0.00377957
0.000476465
0.00563507
0.00055003
0.00672013
0.000563891
0.00729192
0.00054449
0.00762541
0.000509068
0.00788851
0.000465153
0.00815299
0.000415132
0.00844109
0.000359538
0.00875747
0.000298383
0.00910268
0.000231661
0.00947673
0.000159342
0.00988001
8.12183e-05
0.0103115
0.0107662
-9.11026e-06
0.000126118
0.00117876
0.000344093
0.00356159
0.000524123
0.00545504
0.00062483
0.00661942
0.000660666
0.00725608
0.000658488
0.00762758
0.000637663
0.00790933
0.000607452
0.0081832
0.000571112
0.00847743
0.000529518
0.00879907
0.000482835
0.00914936
0.000431044
0.00952852
0.000374182
0.00993687
0.000311631
0.010374
0.0108337
0.000244137
0.000125951
0.00105281
0.000360168
0.00332738
0.000568181
0.00524703
0.000697567
0.00649003
0.000757086
0.00719657
0.000773334
0.00761134
0.00076773
0.00791494
0.000751488
0.00819944
0.000728955
0.00849996
0.000701456
0.00882657
0.000669325
0.0091815
0.000632617
0.00956523
0.000591441
0.00997805
0.000545796
0.0104197
0.0108839
0.000495569
0.000124117
0.000928692
0.000371974
0.00307952
0.00060775
0.00501125
0.000767297
0.00633049
0.000852395
0.00711147
0.000888524
0.00757521
0.00089894
0.00790452
0.000897016
0.00820137
0.00088843
0.00850855
0.000875105
0.00883989
0.000857605
0.009199
0.000836105
0.00958673
0.000810779
0.0100034
0.000781645
0.0104488
0.0109172
0.000748365
0.0001207
0.000807992
0.00037911
0.00282111
0.000641883
0.00474848
0.000832926
0.00613944
0.000945673
0.00699872
0.00100342
0.00751746
0.00103089
0.00787705
0.00104375
0.00818851
0.00104929
0.00850301
0.00105021
0.00883897
0.00104739
0.00920181
0.00104115
0.00959298
0.00103168
0.0100128
0.00101886
0.0104616
0.0109336
0.00100249
0.000115839
0.000692153
0.000381263
0.00255569
0.00066959
0.00446015
0.000893201
0.00591583
0.0010358
0.00685612
0.00111721
0.00743605
0.00116306
0.0078312
0.00119134
0.00816022
0.00121125
0.0084831
0.0012265
0.00882372
0.0012384
0.00918991
0.00124741
0.00958397
0.00125378
0.0100065
0.00125731
0.0104581
0.0109333
0.0012576
0.000109718
0.000582435
0.000378255
0.00228715
0.000689873
0.00414853
0.000946719
0.00565899
0.00112144
0.00668141
0.00122888
0.0073286
0.00129478
0.0077653
0.00133938
0.00811562
0.00137402
0.00844846
0.00140371
0.00879403
0.00143034
0.00916328
0.00145459
0.00955972
0.00147681
0.00998426
0.00149682
0.0104381
0.0109162
0.00151385
0.000102556
0.00047988
0.000370086
0.00201962
0.000701778
0.00381684
0.000991933
0.00536883
0.00120099
0.00647234
0.00133717
0.00719242
0.00142521
0.00767726
0.00148732
0.00805352
0.00153721
0.00839857
0.00158152
0.00874973
0.00162292
0.00912187
0.00166241
0.00952023
0.00170048
0.00994619
0.00173708
0.0104015
0.0108822
0.00177112
9.46012e-05
0.000385279
0.000356962
0.00175726
0.000704476
0.00346933
0.0010272
0.00504611
0.00127262
0.00622692
0.00144051
0.00702454
0.00155324
0.00756453
0.00163447
0.00797229
0.0017004
0.00833264
0.0017596
0.00869053
0.00181584
0.00906563
0.00187057
0.0094655
0.00192446
0.0098923
0.00197772
0.0103482
0.0108311
0.00202888
8.61143e-05
0.000299164
0.000339308
0.00150406
0.000697364
0.00311127
0.00105083
0.00469265
0.00133422
0.00594353
0.00153696
0.00682179
0.00167743
0.00742406
0.0017799
0.00786983
0.001863
0.00824954
0.00193756
0.00861596
0.00200877
0.00899442
0.00207874
0.00939552
0.00214842
0.00982262
0.00221832
0.0102783
0.0107627
0.00228662
7.73496e-05
0.000221815
0.00031776
0.00126365
0.000680183
0.00274885
0.00106122
0.00431161
0.00138342
0.00562133
0.0016242
0.00658101
0.00179596
0.0072523
0.00192238
0.00774341
0.00202425
0.00814767
0.00211491
0.0085253
0.00220133
0.00890801
0.00228659
0.00931026
0.00237199
0.00973722
0.00245848
0.0101919
0.0106773
0.00254389
6.85402e-05
0.000153274
0.000293127
0.00103907
0.00065314
0.00238884
0.00105697
0.00390778
0.00141774
0.00526055
0.0016995
0.00629924
0.00190652
0.00704529
0.00206029
0.00758964
0.00218314
0.00802482
0.00229103
0.00841741
0.0023931
0.00880594
0.00249374
0.00920961
0.00259481
0.00963616
0.00269781
0.0100888
0.0105749
0.00280026
5.98874e-05
9.3387e-05
0.000266337
0.000832616
0.000616993
0.00203818
0.00103709
0.00348769
0.00143463
0.00486302
0.00175971
0.00597415
0.0020062
0.0067988
0.00219145
0.00740439
0.00233825
0.00787802
0.00246505
0.00829061
0.00258352
0.00868748
0.00269979
0.00909334
0.0028165
0.00951944
0.00293593
0.00996942
0.0104555
0.00305529
5.15568e-05
4.18303e-05
0.000238358
0.000645815
0.000573068
0.00170347
0.00100126
0.0030595
0.00143172
0.00443255
0.00180136
0.00560452
0.00209152
0.00650864
0.00231302
0.00718289
0.00248762
0.00770342
0.00263578
0.00814244
0.00277187
0.00855139
0.00290423
0.00896097
0.00303666
0.00938701
0.00317244
0.00983364
0.0103194
0.00330858
4.36796e-05
-1.8493e-06
0.000210119
0.000479376
0.000523176
0.00139041
0.000950025
0.00263265
0.00140715
0.00397543
0.00182081
0.00519086
0.00215833
0.00617112
0.00242137
0.00691984
0.0026286
0.0074962
0.00280151
0.00796953
0.00295712
0.00839578
0.00310645
0.00881165
0.00325483
0.00923863
0.00340692
0.00968155
0.0101666
0.00355968
3.63569e-05
-3.82062e-05
0.000182441
0.000333292
0.000469447
0.00110341
0.000885014
0.00221708
0.00135989
0.00350055
0.00181454
0.0047362
0.00220193
0.00578373
0.00251196
0.00660981
0.00275758
0.00725057
0.00295979
0.00776732
0.00313779
0.00821779
0.00330554
0.00864389
0.00347042
0.00907376
0.00363891
0.00951305
0.0099974
0.00380815
2.96599e-05
-6.78661e-05
0.000155995
0.000206957
0.000414103
0.000845301
0.000808908
0.00182228
0.00129025
0.00301921
0.00177967
0.00424678
0.00221733
0.00534607
0.00257929
0.00624786
0.00286982
0.00696004
0.00310716
0.00752998
0.00331165
0.00801329
0.00350021
0.00845534
0.00368264
0.00889132
0.00386785
0.00932784
0.00981168
0.00405357
2.36392e-05
-9.15053e-05
0.000131291
9.93045e-05
0.000359228
0.000617365
0.000725245
0.00145626
0.0012002
0.00254426
0.00171449
0.00373249
0.00219968
0.00486088
0.00261706
0.00583048
0.00295925
0.00661786
0.00323881
0.00725042
0.00347544
0.00777666
0.00368844
0.00824234
0.00389034
0.00868942
0.00409302
0.00912517
0.00960941
0.00429528
1.83242e-05
-0.00010983
0.000108693
8.93527e-06
0.000306584
0.000419475
0.000637993
0.00112485
0.00109355
0.00208871
0.00161929
0.00320674
0.00214499
0.00433518
0.00261856
0.00535691
0.00301848
0.00621794
0.00334829
0.0069206
0.00362436
0.00750059
0.00386716
0.00799955
0.00409167
0.00846491
0.00431333
0.0089035
0.00938994
0.00453281
1.37269e-05
-0.000123556
8.84369e-05
-6.57747e-05
0.000257523
0.000250388
0.000551037
0.000831338
0.000975617
0.00166413
0.00149692
0.00268544
0.0020512
0.00378091
0.00257739
0.00483071
0.00303902
0.00575631
0.00342725
0.00653237
0.00375166
0.00717619
0.00403161
0.00771959
0.00428375
0.00821277
0.004527
0.00866026
0.00915214
0.0047648
9.84335e-06
-0.0001334
7.06479e-05
-0.000126579
0.000212972
0.000108064
0.000467728
0.000576582
0.0008526
0.00127925
0.00135301
0.00218502
0.0019193
0.00321462
0.00248878
0.00426123
0.00301203
0.00523306
0.00346552
0.00607888
0.0038481
0.00679361
0.00417481
0.00739289
0.00446176
0.00792582
0.00473153
0.00839048
0.00889385
0.00498982
6.65391e-06
-0.000140054
5.53546e-05
-0.00017528
0.000173467
-1.00483e-05
0.000390599
0.00035945
0.000730591
0.000939263
0.0011955
0.00172012
0.0017542
0.00265592
0.0023512
0.00366423
0.00292977
0.00465449
0.00345176
0.00555688
0.00390183
0.00634354
0.00428667
0.00700805
0.00461863
0.00759386
0.00492134
0.00808777
0.00860964
0.00520556
4.12222e-06
-0.000144176
4.24946e-05
-0.000213652
0.000139209
-0.000106763
0.000321285
0.000177374
0.000614754
0.000645793
0.00103335
0.00130152
0.00156476
0.00212451
0.00216805
0.00306093
0.00278775
0.00403479
0.00337498
0.00496966
0.00389894
0.00581958
0.00435345
0.00655354
0.00474317
0.00720413
0.00509093
0.00774001
0.0082973
0.00540327
2.19457e-06
-0.000146371
3.19209e-05
-0.000243379
0.000110109
-0.000184951
0.000260574
2.69088e-05
0.000508793
0.000397574
0.000875046
0.00093527
0.00136252
0.00163704
0.00194839
0.00247506
0.00258733
0.00339586
0.0032274
0.00432958
0.00382479
0.0052222
0.00435878
0.00601954
0.00481925
0.00674367
0.0052255
0.00733376
0.00793414
0.00558866
8.0436e-07
-0.000147175
2.34095e-05
-0.000265984
8.58338e-05
-0.000247375
0.000208537
-9.57945e-05
0.000414814
0.000191297
0.000727304
0.000622779
0.0011596
0.00120474
0.001706
0.00192866
0.00233734
0.00276451
0.00300786
0.00365906
0.00366833
0.00456173
0.00428256
0.00540531
0.00483124
0.00619499
0.00530345
0.00686155
0.00751554
0.00572205
-1.51007e-07
-0.000147024
1.66636e-05
-0.000282798
6.58514e-05
-0.000296563
0.000164669
-0.000194613
0.000333468
2.24986e-05
0.000594396
0.000361851
0.000966388
0.00083275
0.00145672
0.00143833
0.00205367
0.00216756
0.00272472
0.00298801
0.00342607
0.00386038
0.00411009
0.00472129
0.00474804
0.00555704
0.00531974
0.00628984
0.00704131
0.00579397
-8.84651e-07
-0.000146139
1.13367e-05
-0.00029502
4.94895e-05
-0.000334716
0.000128044
-0.000273167
0.000264248
-0.000113705
0.000478143
0.000147956
0.000790089
0.000520804
0.00121512
0.0010133
0.00175599
0.0016267
0.00239613
0.00234787
0.00310603
0.00315047
0.00383651
0.00399081
0.00455201
0.00484154
0.00523731
0.00560454
0.00648265
0.00579597
-1.3181e-06
-0.000144821
7.07865e-06
-0.000303416
3.5996e-05
-0.000363633
9.74683e-05
-0.00033464
0.00020583
-0.000222067
0.000378335
-2.45489e-05
0.000634286
0.000264854
0.000991906
0.000655682
0.00146325
0.00115535
0.00204634
0.00176477
0.00272864
0.00246817
0.00347096
0.00324849
0.00423467
0.00407783
0.00501488
0.00482433
0.00582325
0.00567429
-1.61588e-06
-0.000143205
3.53074e-06
-0.000308563
2.46068e-05
-0.000384709
7.16339e-05
-0.000381667
0.000156413
-0.000306846
0.000293341
-0.000161477
0.000499414
5.87804e-05
0.000792856
0.000362239
0.00118995
0.000758264
0.00169952
0.0012552
0.00232233
0.00184537
0.00303745
0.00253337
0.00380937
0.00330591
0.00464489
0.0039888
0.00506736
0.00540078
-1.91361e-06
-0.000141292
4.10987e-07
-0.000310888
1.46042e-05
-0.000398902
4.92563e-05
-0.000416319
0.000114032
-0.000371622
0.00022074
-0.000268184
0.000383677
-0.000104157
0.000619282
0.000126635
0.00094444
0.000433106
0.00137412
0.000825522
0.00191622
0.00130327
0.00257008
0.00187951
0.00330847
0.00256752
0.0041439
0.00315337
0.00424017
0.00497109
-2.29904e-06
-0.000138993
-2.75426e-06
-0.000310432
5.35484e-06
-0.000407011
2.91884e-05
-0.000440152
7.68119e-05
-0.000419245
0.000157863
-0.000349235
0.00028406
-0.000230354
0.000469337
-5.86425e-05
0.000729209
0.000173234
0.00108042
0.000474314
0.00153354
0.000850143
0.00210333
0.00130972
0.00277335
0.00189749
0.00355401
0.00237272
0.00338833
0.00440584
-2.82132e-06
-0.000136171
-6.00212e-06
-0.000307252
-3.62084e-06
-0.000409393
1.04959e-05
-0.000454269
4.31416e-05
-0.000451891
0.000102212
-0.000408306
0.000197192
-0.000325334
0.000339478
-0.000200929
0.000542386
-2.96737e-05
0.000821375
0.000195325
0.00118801
0.000483504
0.00166318
0.000834558
0.00224273
0.00131794
0.00292936
0.0016861
0.00256977
0.00374793
-3.51725e-06
-0.000132654
-9.51048e-06
-0.000301258
-1.26607e-05
-0.000406243
-7.50253e-06
-0.000459427
1.17811e-05
-0.000471175
5.17214e-05
-0.000448246
0.000119974
-0.000393587
0.000225687
-0.000306642
0.000379801
-0.000183787
0.000595132
-2.00066e-05
0.000883647
0.000194989
0.00126391
0.000454294
0.00174474
0.000837108
0.00231785
0.00111299
0.00183677
0.00305084
-4.40238e-06
-0.000128252
-1.33575e-05
-0.000292303
-2.19505e-05
-0.00039765
-2.52284e-05
-0.000456149
-1.81075e-05
-0.000478296
4.87757e-06
-0.000471231
4.9931e-05
-0.00043864
0.000124326
-0.000381037
0.000236786
-0.000296247
0.000397379
-0.0001806
0.000617619
-2.52506e-05
0.000910094
0.000161819
0.00129418
0.00045302
0.00175065
0.000656519
0.00122118
0.00236625
-5.47054e-06
-0.000122781
-1.75473e-05
-0.000280227
-3.15439e-05
-0.000383653
-4.28618e-05
-0.000444831
-4.69779e-05
-0.000474179
-3.92558e-05
-0.000478953
-1.46515e-05
-0.000463244
3.2599e-05
-0.000428288
0.000109316
-0.000372964
0.000223224
-0.000294508
0.000384405
-0.000186432
0.000600199
-5.3975e-05
0.000894798
0.000158421
0.0012427
0.000308614
0.000730822
0.00173306
-6.69644e-06
-0.000116085
-2.20249e-05
-0.000264898
-4.13753e-05
-0.000364302
-6.03824e-05
-0.000425824
-7.49554e-05
-0.000459606
-8.11173e-05
-0.000472791
-7.47452e-05
-0.000469616
-5.13036e-05
-0.000451729
-5.60706e-06
-0.000418661
6.85383e-05
-0.000368653
0.000178751
-0.000296645
0.000329848
-0.000205072
0.000544378
-5.61085e-05
0.000798427
5.45651e-05
0.000356856
0.00117239
-8.03943e-06
-0.000108045
-2.66881e-05
-0.000246249
-5.12865e-05
-0.000339704
-7.761e-05
-0.000399501
-0.000101906
-0.000435311
-0.00012073
-0.000453967
-0.000130706
-0.000459641
-0.000128264
-0.00045417
-0.000109395
-0.00043753
-6.98025e-05
-0.000408246
-4.49943e-06
-0.000361948
9.48819e-05
-0.000304454
0.000238864
-0.00020009
0.000416636
-0.000123207
8.44448e-05
0.000689047
-9.44755e-06
-9.85977e-05
-3.1401e-05
-0.000224296
-6.1054e-05
-0.000310051
-9.4253e-05
-0.000366302
-0.000127512
-0.000402051
-0.000157826
-0.000423653
-0.000182422
-0.000435045
-0.000198513
-0.00043808
-0.000203089
-0.000432953
-0.000192845
-0.00041849
-0.000162719
-0.000392074
-0.000111241
-0.000355931
-2.6804e-05
-0.000284527
9.43529e-05
-0.000244364
-9.80428e-05
0.00027684
-1.08618e-05
-8.77359e-05
-3.60072e-05
-0.000199151
-7.04148e-05
-0.000275643
-0.000109952
-0.000326764
-0.000151345
-0.000360658
-0.000191951
-0.000383048
-0.000229488
-0.000397507
-0.000261792
-0.000405776
-0.000286601
-0.000408144
-0.000301362
-0.000403729
-0.000302559
-0.000390877
-0.000288861
-0.000369629
-0.000246215
-0.000327174
-0.000185664
-0.000304915
-0.000211239
-7.24679e-05
-1.22204e-05
-7.55155e-05
-4.03423e-05
-0.000171029
-7.90906e-05
-0.000236895
-0.00012432
-0.000281535
-0.000172924
-0.000312053
-0.000222557
-0.000333415
-0.000271338
-0.000348727
-0.000317585
-0.000359529
-0.0003596
-0.000366129
-0.000395433
-0.000367896
-0.000422561
-0.000363749
-0.000439055
-0.000353135
-0.000435219
-0.000331009
-0.00042013
-0.000320004
-0.000271981
-0.000359389
-1.34624e-05
-6.20532e-05
-4.42445e-05
-0.000140246
-8.68075e-05
-0.000194332
-0.000136973
-0.00023137
-0.000191768
-0.000257259
-0.000249083
-0.0002761
-0.000307353
-0.000290457
-0.000365272
-0.00030161
-0.000421557
-0.000309844
-0.000474721
-0.000314732
-0.000522877
-0.000315593
-0.000564024
-0.000311989
-0.000592295
-0.000302738
-0.000612674
-0.000299624
-0.000281928
-0.000602727
-1.45315e-05
-4.75217e-05
-4.75649e-05
-0.000107213
-9.3314e-05
-0.000148583
-0.00014756
-0.000177124
-0.000207428
-0.00019739
-0.000270998
-0.00021253
-0.000336946
-0.000224508
-0.000404245
-0.000234312
-0.000471915
-0.000242174
-0.000538819
-0.000247828
-0.000603531
-0.000250881
-0.000664355
-0.000251165
-0.000718048
-0.000249045
-0.000767038
-0.000250634
-0.000249369
-0.000799597
-1.5379e-05
-3.21427e-05
-5.01746e-05
-7.24174e-05
-9.83936e-05
-0.000100364
-0.000155777
-0.00011974
-0.000219525
-0.000133643
-0.00028785
-0.000144204
-0.000359608
-0.000152751
-0.000433966
-0.000159953
-0.000510165
-0.000165975
-0.000587322
-0.000170671
-0.000664362
-0.000173841
-0.000740026
-0.000175501
-0.000812723
-0.000176348
-0.000883823
-0.000179535
-0.000184269
-0.000948923
-1.5966e-05
-1.61767e-05
-5.1972e-05
-3.64114e-05
-0.000101876
-5.04603e-05
-0.000161389
-6.02277e-05
-0.000227756
-6.72759e-05
-0.000299283
-7.26769e-05
-0.000374936
-7.70979e-05
-0.000454014
-8.08744e-05
-0.000535895
-8.40941e-05
-0.000619872
-8.66942e-05
-0.000705114
-8.85988e-05
-0.000790751
-8.98641e-05
-0.000876145
-9.09537e-05
-0.000962435
-9.32455e-05
-9.72648e-05
-0.00104944
-1.62657e-05
-5.28866e-05
-0.000103643
-0.00016423
-0.000231916
-0.000305051
-0.000382658
-0.000464097
-0.000548817
-0.000636198
-0.00072554
-0.000816192
-0.000907956
-0.001002
-0.00109999
-0.00515153
0.00016239
-0.00525623
0.000104665
-0.00534442
8.81612e-05
-0.005399
5.45497e-05
-0.00544512
4.61008e-05
-0.00547048
2.53353e-05
-0.00549126
2.07586e-05
-0.00549866
7.37861e-06
-0.00550341
4.73447e-06
-0.00549921
-4.21199e-06
-0.00549317
-6.05655e-06
-0.00548085
-1.23377e-05
-0.00546718
-1.36757e-05
-0.00544916
-1.80279e-05
-0.00543003
-1.91472e-05
-0.00540775
-2.22861e-05
-0.00538443
-2.33168e-05
-0.00535874
-2.57031e-05
-0.005332
-2.67339e-05
-2.87035e-05
-0.00514311
0.000325199
-0.00524808
0.000209633
-0.00533672
0.000176799
-0.00539166
0.000109493
-0.00543826
9.27003e-05
-0.00546404
5.11162e-05
-0.0054853
4.20111e-05
-0.00549314
1.52225e-05
-0.00549834
9.93765e-06
-0.00549461
-7.9428e-06
-0.00548904
-1.16301e-05
-0.00547718
-2.41972e-05
-0.00546397
-2.68809e-05
-0.00544642
-3.55808e-05
-0.00542774
-3.78291e-05
-0.00540592
-4.41031e-05
-0.00538307
-4.6173e-05
-0.00535783
-5.09435e-05
-0.00533155
-5.30119e-05
-5.69505e-05
-0.00512627
0.000488767
-0.0052318
0.000315168
-0.00532132
0.000266314
-0.00537701
0.000165181
-0.00542455
0.000140242
-0.00545118
7.77494e-05
-0.00547338
6.42071e-05
-0.00548212
2.39631e-05
-0.00548822
1.60434e-05
-0.00548542
-1.07446e-05
-0.00548078
-1.62705e-05
-0.00546985
-3.51261e-05
-0.00545756
-3.91698e-05
-0.00544094
-5.22041e-05
-0.00542317
-5.55988e-05
-0.00540228
-6.49964e-05
-0.00538033
-6.81194e-05
-0.00535601
-7.52663e-05
-0.00533064
-7.8383e-05
-8.42865e-05
-0.00510097
0.000653457
-0.0052074
0.000421598
-0.00529821
0.000357124
-0.00535505
0.000222013