/*--------------------------------*- C++ -*----------------------------------*\
  =========                 |
  \\      /  F ield         | OpenFOAM: The Open Source CFD Toolbox
   \\    /   O peration     | Website:  https://openfoam.org
    \\  /    A nd           | Version:  7
     \\/     M anipulation  |
\*---------------------------------------------------------------------------*/
FoamFile
{
    version     2.0;
    format      ascii;
    class       volVectorField;
    location    "54.999";
    object      U;
}
// * * * * * * * * * * * * * * * * * * * * * * * * * * * * * * * * * * * * * //

dimensions      [0 1 -1 0 0 0 0];

internalField   nonuniform List<vector> 
3700
(
(0.0317781 -0.0166858 4.1996e-20)
(0.12735 -0.0260551 -5.27227e-21)
(0.248126 -0.025409 -2.1757e-20)
(0.34556 -0.0224853 1.11473e-20)
(0.429258 -0.019615 3.40635e-20)
(0.500076 -0.0172043 -2.97581e-20)
(0.560959 -0.0151714 -1.08249e-21)
(0.613484 -0.0134437 -3.22639e-21)
(0.659148 -0.0119632 1.35725e-20)
(0.699029 -0.0106855 1.9002e-21)
(0.734051 -0.00957565 -8.73524e-21)
(0.764937 -0.00860552 -6.98603e-21)
(0.792253 -0.00774733 -2.50643e-20)
(0.816433 -0.0069756 2.64382e-20)
(0.837925 -0.0062944 -1.04377e-20)
(0.0342621 -0.0499204 -8.78584e-20)
(0.131093 -0.0779977 5.06568e-20)
(0.251711 -0.0760872 1.74595e-20)
(0.348685 -0.0673431 -3.72262e-21)
(0.431936 -0.0587517 -3.15907e-20)
(0.502386 -0.0515349 -5.79755e-20)
(0.562964 -0.0454483 4.70949e-20)
(0.615234 -0.0402755 -7.67872e-21)
(0.660685 -0.0358424 -3.56379e-20)
(0.700386 -0.0320163 -3.50041e-20)
(0.735255 -0.0286926 4.17102e-20)
(0.766012 -0.0257871 -4.28054e-20)
(0.793228 -0.0232164 5.80931e-20)
(0.817314 -0.0209051 -5.27342e-20)
(0.838673 -0.0188672 -1.02711e-20)
(0.0392011 -0.0827249 -1.35805e-19)
(0.138545 -0.129404 -2.34232e-19)
(0.258856 -0.126311 -1.26516e-20)
(0.354914 -0.11183 5.81432e-20)
(0.437275 -0.0975788 2.74855e-20)
(0.506991 -0.085603 9.27286e-20)
(0.56696 -0.075502 -6.14323e-20)
(0.618724 -0.0669164 -6.98469e-20)
(0.66375 -0.0595577 7.59829e-20)
(0.703092 -0.053206 2.85986e-20)
(0.737655 -0.0476877 -8.60753e-20)
(0.768157 -0.0428628 2.87801e-20)
(0.795171 -0.0385927 -2.47102e-20)
(0.819072 -0.0347548 -2.61543e-20)
(0.840168 -0.0313779 -3.98609e-20)
(0.0465364 -0.114817 1.18712e-19)
(0.149639 -0.179922 3.79374e-19)
(0.269504 -0.175782 -1.78313e-19)
(0.364203 -0.155702 1.42042e-20)
(0.44524 -0.135892 -6.16601e-20)
(0.51386 -0.119236 1.68775e-19)
(0.572922 -0.105185 -4.87136e-21)
(0.623931 -0.0932406 -7.79112e-22)
(0.668324 -0.0830011 -5.18416e-20)
(0.707131 -0.0741616 5.56672e-20)
(0.741237 -0.0664807 1.44778e-19)
(0.77136 -0.059763 4.89862e-20)
(0.798072 -0.0538149 6.98775e-21)
(0.821697 -0.0484716 -1.13504e-20)
(0.842404 -0.0437844 4.5908e-20)
(0.056181 -0.145921 2.46566e-19)
(0.164275 -0.229204 -1.79444e-19)
(0.283577 -0.224205 -4.80416e-21)
(0.376488 -0.19872 -1.88154e-20)
(0.455777 -0.173492 1.28654e-19)
(0.522951 -0.152265 -9.44782e-20)
(0.580813 -0.134354 3.26255e-20)
(0.630824 -0.119125 -4.35374e-20)
(0.67438 -0.106067 2.54859e-20)
(0.712479 -0.0947917 -1.41084e-19)
(0.745982 -0.0849926 -1.02654e-19)
(0.7756 -0.0764191 -6.33896e-20)
(0.801912 -0.068823 9.29713e-20)
(0.825174 -0.062003 -2.42099e-20)
(0.845376 -0.0560441 2.21293e-20)
(0.0680197 -0.175771 -2.79073e-21)
(0.182319 -0.276915 -2.88132e-19)
(0.300966 -0.271295 2.16207e-19)
(0.391685 -0.240649 -1.69652e-19)
(0.468817 -0.210184 -1.37864e-19)
(0.534203 -0.184524 7.23709e-20)
(0.590583 -0.162868 -4.87166e-20)
(0.63936 -0.144449 1.82414e-19)
(0.681881 -0.128651 -5.1753e-20)
(0.719106 -0.115007 1.07856e-19)
(0.751863 -0.103147 -5.07656e-20)
(0.780855 -0.0927642 1.12244e-19)
(0.806669 -0.0835585 2.3031e-20)
(0.829485 -0.0752974 4.90439e-20)
(0.849075 -0.0681134 -5.62807e-20)
(0.0819102 -0.204111 2.19037e-20)
(0.203608 -0.322728 2.88579e-19)
(0.321539 -0.316774 -2.74674e-20)
(0.409689 -0.281265 -5.18234e-21)
(0.484273 -0.24578 -3.4534e-20)
(0.547544 -0.215855 -3.23947e-19)
(0.602171 -0.190591 2.38448e-20)
(0.649487 -0.169097 -1.44408e-19)
(0.690782 -0.150655 -1.92278e-20)
(0.726971 -0.134722 -9.0123e-21)
(0.758845 -0.120868 3.90847e-20)
(0.787095 -0.108734 -8.56846e-20)
(0.812315 -0.0979646 -1.92852e-19)
(0.834607 -0.0883042 2.05147e-19)
(0.85349 -0.0799484 7.03811e-20)
(0.0976844 -0.230701 -1.5515e-19)
(0.227945 -0.366334 -2.6712e-19)
(0.34514 -0.360377 7.07091e-20)
(0.430375 -0.320352 1.16252e-19)
(0.502043 -0.2801 1.15502e-19)
(0.562888 -0.246105 -8.48066e-21)
(0.615502 -0.217395 -9.42987e-20)
(0.661143 -0.192957 2.76515e-19)
(0.701031 -0.171982 1.46443e-21)
(0.736031 -0.153854 7.15458e-20)
(0.766889 -0.138085 1.65041e-19)
(0.794284 -0.124266 -1.59143e-19)
(0.818819 -0.111988 2.07882e-19)
(0.840514 -0.100975 -1.03335e-19)
(0.858606 -0.0915052 -6.89814e-20)
(0.115149 -0.255318 9.07031e-20)
(0.255106 -0.407439 -8.16343e-20)
(0.371585 -0.401851 1.56821e-19)
(0.4536 -0.357705 -1.35973e-19)
(0.522011 -0.312975 -1.71074e-19)
(0.580136 -0.275131 -1.94822e-19)
(0.630495 -0.243155 7.9368e-20)
(0.674256 -0.215925 5.19706e-20)
(0.712566 -0.192543 -2.46341e-19)
(0.746232 -0.172324 -1.65867e-19)
(0.775951 -0.154731 -1.47977e-19)
(0.802382 -0.139303 2.06143e-19)
(0.826143 -0.125576 -5.97676e-20)
(0.847175 -0.113262 -5.04649e-20)
(0.864406 -0.102741 3.42008e-21)
(0.134089 -0.277756 3.18243e-19)
(0.284838 -0.445768 4.17165e-19)
(0.400672 -0.44096 -1.70506e-19)
(0.479205 -0.393133 -1.97744e-19)
(0.544045 -0.344246 4.23009e-19)
(0.599179 -0.302798 3.16682e-20)
(0.647054 -0.267758 1.47228e-19)
(0.688747 -0.237902 -3.36294e-19)
(0.72532 -0.212251 1.44774e-19)
(0.757516 -0.190059 2.26775e-20)
(0.785979 -0.17074 -9.27285e-20)
(0.811345 -0.153788 -2.255e-19)
(0.834248 -0.138682 -9.96307e-20)
(0.854556 -0.125122 7.05152e-20)
(0.87087 -0.113613 1.4928e-20)
(0.154265 -0.297832 -2.21071e-19)
(0.31686 -0.481068 -2.82155e-19)
(0.432174 -0.477483 1.7723e-19)
(0.507011 -0.426457 6.39876e-19)
(0.568001 -0.373765 5.97381e-20)
(0.619894 -0.328982 1.26609e-20)
(0.665079 -0.291096 -1.94016e-19)
(0.704528 -0.258797 4.01181e-19)
(0.739217 -0.231028 1.42294e-20)
(0.769819 -0.20699 1.91936e-19)
(0.796918 -0.186054 2.38973e-19)
(0.821124 -0.167671 1.49867e-19)
(0.843088 -0.151263 -1.31941e-20)
(0.862621 -0.136514 4.03584e-20)
(0.877976 -0.124081 1.32927e-19)
(0.175423 -0.315385 -1.00945e-19)
(0.350868 -0.513108 -1.66253e-19)
(0.465845 -0.511218 6.01852e-20)
(0.536826 -0.457516 4.69163e-20)
(0.593722 -0.401399 -4.79451e-19)
(0.642151 -0.353569 4.86469e-19)
(0.684458 -0.313074 -1.84165e-20)
(0.721506 -0.278525 -1.11172e-19)
(0.754177 -0.248802 -7.29725e-20)
(0.783071 -0.223054 -4.95207e-20)
(0.808707 -0.200617 -7.97176e-20)
(0.831665 -0.180904 5.50749e-20)
(0.852617 -0.163278 -1.60281e-19)
(0.871331 -0.147403 -1.2315e-19)
(0.885697 -0.134107 -7.98877e-20)
(0.197288 -0.33028 -2.54678e-20)
(0.386535 -0.541686 3.22719e-19)
(0.501419 -0.541983 -5.0265e-19)
(0.568444 -0.486164 -6.30689e-19)
(0.62104 -0.427029 2.16772e-19)
(0.66581 -0.376458 -8.12164e-20)
(0.705072 -0.333603 1.84254e-19)
(0.73958 -0.297013 2.52395e-20)
(0.770113 -0.265507 3.09032e-19)
(0.797198 -0.238195 -6.48647e-20)
(0.821283 -0.21438 -2.35523e-19)
(0.842912 -0.193445 3.06144e-20)
(0.862783 -0.174693 -6.77825e-20)
(0.880643 -0.157757 2.84205e-20)
(0.894007 -0.143657 -5.41102e-21)
(0.219571 -0.34241 1.67975e-19)
(0.42351 -0.566623 1.53591e-19)
(0.538612 -0.569618 4.70566e-19)
(0.601645 -0.512273 3.60388e-19)
(0.649781 -0.450551 2.72985e-19)
(0.690723 -0.397562 -3.1254e-19)
(0.726797 -0.352609 -6.49889e-20)
(0.758642 -0.314193 -1.32942e-19)
(0.786935 -0.281086 -8.32217e-20)
(0.812123 -0.25236 1.77695e-19)
(0.834578 -0.227296 9.7573e-20)
(0.854802 -0.205252 -2.25367e-20)
(0.873531 -0.185473 2.97154e-19)
(0.890511 -0.167545 -6.75352e-20)
(0.902875 -0.152698 1.63365e-19)
(0.241975 -0.351695 -7.30746e-20)
(0.461426 -0.587771 -5.64479e-19)
(0.577125 -0.593985 -3.38552e-19)
(0.636197 -0.535734 -1.59798e-19)
(0.679757 -0.471875 -4.08655e-19)
(0.716735 -0.416804 3.52606e-19)
(0.749502 -0.370026 1.40154e-19)
(0.778583 -0.330011 1.31664e-19)
(0.804548 -0.295491 -6.21838e-19)
(0.827764 -0.265509 -1.94429e-19)
(0.848522 -0.23933 1.47721e-19)
(0.867273 -0.216299 -7.61103e-20)
(0.884799 -0.195605 9.52167e-20)
(0.90089 -0.176764 -9.77643e-20)
(0.912274 -0.161212 -4.50704e-20)
(0.264189 -0.358086 1.21388e-20)
(0.499899 -0.605012 2.5514e-19)
(0.616645 -0.614968 2.43483e-19)
(0.67186 -0.556457 9.37538e-20)
(0.710778 -0.490931 1.8492e-19)
(0.743688 -0.434126 -1.92616e-19)
(0.773054 -0.385803 -9.73007e-20)
(0.799288 -0.344419 1.20688e-19)
(0.822854 -0.308678 1.77418e-20)
(0.844039 -0.277601 1.00416e-19)
(0.863046 -0.250439 -2.19774e-20)
(0.880258 -0.226534 -2.77876e-20)
(0.89652 -0.205029 -2.56122e-20)
(0.911726 -0.185355 -5.66697e-20)
(0.922185 -0.169157 1.54471e-19)
(0.285903 -0.361566 8.63799e-20)
(0.53853 -0.618256 -9.99057e-20)
(0.656842 -0.632477 -1.1285e-19)
(0.708385 -0.574373 -2.40083e-20)
(0.742647 -0.507664 -1.02012e-19)
(0.771418 -0.44948 1.49895e-19)
(0.797313 -0.399897 -1.63086e-19)
(0.82064 -0.35738 -3.71707e-20)
(0.841753 -0.320617 1.87979e-19)
(0.860859 -0.288611 -4.41904e-21)
(0.878074 -0.26061 1.63988e-19)
(0.893688 -0.235968 -1.45381e-19)
(0.908608 -0.213806 -2.03208e-20)
(0.922946 -0.19345 -2.94347e-20)
(0.932596 -0.176649 -1.55631e-19)
(0.306804 -0.362149 -1.36124e-19)
(0.576907 -0.627448 3.31251e-20)
(0.697379 -0.646448 4.04697e-20)
(0.745514 -0.589434 6.42108e-20)
(0.775162 -0.522036 2.40548e-19)
(0.79976 -0.462835 6.854e-20)
(0.82214 -0.41228 -1.67466e-19)
(0.842521 -0.36887 9.69439e-20)
(0.861141 -0.331283 4.22501e-19)
(0.878139 -0.298511 -1.52418e-19)
(0.893546 -0.2698 -3.77977e-20)
(0.907524 -0.244507 9.61783e-20)
(0.921007 -0.221733 -5.09961e-20)
(0.934482 -0.200701 5.01596e-20)
(0.943568 -0.183364 -6.14699e-20)
(0.326579 -0.35988 5.945e-20)
(0.614613 -0.632565 -9.67325e-20)
(0.737906 -0.656842 -1.09581e-19)
(0.782987 -0.60161 -1.1404e-19)
(0.808121 -0.534028 -1.94811e-19)
(0.828545 -0.474174 -2.03304e-19)
(0.847396 -0.422938 2.19614e-19)
(0.864811 -0.378873 -3.21692e-19)
(0.880918 -0.340661 -2.59712e-19)
(0.895787 -0.307294 2.27975e-19)
(0.909377 -0.278021 -1.74189e-19)
(0.921691 -0.252234 4.58152e-20)
(0.933571 -0.229093 8.40127e-20)
(0.946028 -0.207847 1.10861e-19)
(0.955043 -0.190527 5.62653e-20)
(0.344914 -0.354832 2.44369e-20)
(0.651227 -0.633622 -3.9418e-20)
(0.778066 -0.663647 1.415e-20)
(0.820536 -0.610896 -1.69275e-21)
(0.841321 -0.543636 4.30231e-20)
(0.857609 -0.483496 4.71886e-21)
(0.872938 -0.431865 -1.66435e-19)
(0.887391 -0.387383 1.37237e-19)
(0.900983 -0.348744 -1.27555e-19)
(0.913712 -0.314947 -1.76776e-19)
(0.925497 -0.285236 1.13461e-19)
(0.936198 -0.259006 -8.77366e-20)
(0.94641 -0.235387 3.34846e-20)
(0.957617 -0.213485 -8.26619e-20)
(0.967599 -0.195425 -3.96835e-20)
(0.3615 -0.347112 -5.43549e-20)
(0.686327 -0.630671 4.38692e-20)
(0.817499 -0.666875 -4.78881e-22)
(0.857894 -0.617308 7.08148e-20)
(0.874557 -0.550876 8.27083e-20)
(0.886785 -0.490812 -4.44241e-20)
(0.898629 -0.439073 1.22966e-19)
(0.910145 -0.394406 -9.66821e-20)
(0.921236 -0.355537 5.22792e-20)
(0.931829 -0.321473 1.63449e-19)
(0.941822 -0.291461 9.52015e-20)
(0.950992 -0.264907 -1.41514e-19)
(0.959548 -0.241106 6.27479e-20)
(0.968675 -0.219917 3.72608e-20)
(0.979061 -0.203512 6.47407e-20)
(0.376027 -0.33686 1.69622e-19)
(0.719491 -0.6238 -1.32056e-19)
(0.855841 -0.666568 4.0883e-21)
(0.894796 -0.62088 3.30065e-20)
(0.907629 -0.555776 -2.74638e-20)
(0.915911 -0.49615 1.01687e-19)
(0.924332 -0.444581 -6.13525e-20)
(0.932956 -0.399959 -2.11374e-20)
(0.941581 -0.36105 2.1992e-19)
(0.950056 -0.326883 -1.98526e-19)
(0.95826 -0.29671 -5.92195e-20)
(0.965948 -0.269946 1.51522e-19)
(0.972991 -0.246049 -8.53972e-20)
(0.980037 -0.225128 -5.82235e-20)
(0.989121 -0.207295 -1.41577e-20)
(0.388181 -0.324242 -1.42446e-19)
(0.750287 -0.613128 1.99494e-19)
(0.892738 -0.662796 3.19471e-22)
(0.930977 -0.621672 1.48115e-20)
(0.940338 -0.55838 -5.01973e-20)
(0.944829 -0.499549 4.49067e-20)
(0.949913 -0.448424 -7.98713e-21)
(0.95571 -0.404068 8.39114e-20)
(0.961923 -0.365303 -1.82089e-19)
(0.968316 -0.33119 8.43653e-20)
(0.97474 -0.300984 -2.81161e-20)
(0.980973 -0.27409 4.33998e-20)
(0.986692 -0.250076 6.22357e-21)
(0.991978 -0.229206 -3.78969e-21)
(0.999219 -0.210527 -1.4379e-20)
(0.397765 -0.309536 4.44674e-20)
(0.77825 -0.598808 -1.66375e-19)
(0.927861 -0.655675 -9.60641e-20)
(0.966179 -0.619746 -3.08865e-21)
(0.97249 -0.55874 1.83957e-20)
(0.973384 -0.501062 2.65601e-20)
(0.975246 -0.450646 -1.89911e-20)
(0.978299 -0.40677 -9.87065e-20)
(0.982168 -0.368326 -2.43527e-20)
(0.986536 -0.334414 7.39434e-20)
(0.991211 -0.3043 2.43044e-20)
(0.99601 -0.277373 -9.75335e-21)
(1.00055 -0.253295 -7.58845e-20)
(1.0045 -0.232521 2.05247e-20)
(1.01 -0.213466 1.96221e-20)
(0.40463 -0.292939 -2.53267e-20)
(0.802627 -0.580827 2.80634e-19)
(0.960966 -0.645446 5.93388e-20)
(1.00014 -0.615178 5.14708e-21)
(1.00389 -0.556922 1.1308e-20)
(1.00143 -0.500758 -3.36465e-20)
(1.00021 -0.451303 -2.49173e-20)
(1.00062 -0.408109 8.10836e-20)
(1.00223 -0.370157 7.03565e-20)
(1.00464 -0.336588 -1.25631e-19)
(1.00763 -0.306692 1.17586e-20)
(1.01102 -0.27985 9.47171e-21)
(1.01445 -0.255801 9.2704e-20)
(1.01732 -0.235164 1.28288e-20)
(1.02138 -0.215909 -9.67286e-20)
(0.408713 -0.27463 -6.18659e-20)
(0.823191 -0.559666 -4.19612e-19)
(0.991632 -0.63235 -2.03673e-20)
(1.03263 -0.607912 -3.84403e-20)
(1.03435 -0.553 -5.13202e-20)
(1.02882 -0.498714 8.84265e-21)
(1.02468 -0.450459 2.06459e-20)
(1.02257 -0.408139 -2.69808e-20)
(1.02201 -0.37084 5.1509e-21)
(1.02256 -0.337752 5.6305e-20)
(1.02392 -0.308196 -3.69593e-20)
(1.02595 -0.28156 2.37468e-20)
(1.02831 -0.25763 -3.33413e-20)
(1.0302 -0.237141 -5.85882e-20)
(1.03298 -0.217839 1.23049e-20)
(0.409868 -0.254965 -9.63244e-21)
(0.83994 -0.535791 5.58091e-20)
(1.01912 -0.616237 6.91602e-20)
(1.06332 -0.598069 -9.96291e-21)
(1.06367 -0.547095 -1.25214e-20)
(1.05541 -0.495019 -2.85795e-20)
(1.04855 -0.448188 -7.68693e-21)
(1.04405 -0.406925 5.63726e-21)
(1.04145 -0.370431 -3.32687e-21)
(1.04023 -0.337952 -2.70207e-20)
(1.04005 -0.308852 3.61213e-20)
(1.04076 -0.282531 -1.06879e-20)
(1.04206 -0.258797 -6.49159e-21)
(1.04301 -0.23847 1.73059e-20)
(1.04459 -0.219273 -9.66379e-21)
(0.407954 -0.234296 1.64085e-19)
(0.852568 -0.509366 2.69406e-19)
(1.04309 -0.597249 4.30402e-20)
(1.09189 -0.585869 -8.31645e-20)
(1.09165 -0.53931 9.22054e-20)
(1.08108 -0.489766 3.89742e-20)
(1.07172 -0.444572 -1.3745e-20)
(1.06499 -0.404535 -4.8905e-21)
(1.06045 -0.368987 1.04602e-20)
(1.05756 -0.337236 -3.68678e-21)
(1.05593 -0.308698 -6.70959e-21)
(1.05539 -0.282793 1.97294e-20)
(1.05565 -0.25933 4.79866e-20)
(1.05571 -0.239188 -3.35465e-20)
(1.05613 -0.220223 5.42671e-20)
(0.4029 -0.212946 -1.90743e-19)
(0.860671 -0.4806 -8.43926e-20)
(1.06336 -0.575661 -2.03651e-19)
(1.11805 -0.571468 2.17407e-19)
(1.11811 -0.529762 -1.51038e-19)
(1.1057 -0.483065 5.03315e-20)
(1.09409 -0.439705 9.64579e-21)
(1.0853 -0.401046 3.7797e-21)
(1.07896 -0.366572 4.75353e-21)
(1.0745 -0.335659 -6.16001e-22)
(1.07151 -0.307779 7.04432e-21)
(1.06978 -0.282383 2.33708e-20)
(1.06906 -0.259264 -2.00642e-20)
(1.06827 -0.239335 -1.96196e-20)
(1.0676 -0.220706 -5.02382e-20)
(0.394721 -0.19124 -1.84533e-19)
(0.863916 -0.449799 8.27786e-20)
(1.07967 -0.551712 5.7993e-20)
(1.14153 -0.55502 -1.24678e-19)
(1.14291 -0.5186 2.23484e-20)
(1.12909 -0.475001 -6.13188e-21)
(1.11557 -0.43368 -2.35195e-20)
(1.1049 -0.396542 -1.78904e-20)
(1.0969 -0.363254 1.21961e-20)
(1.091 -0.333277 1.71449e-21)
(1.08674 -0.306142 -1.11701e-20)
(1.0839 -0.281338 -1.39493e-20)
(1.08224 -0.258632 9.3907e-21)
(1.08064 -0.23895 1.274e-20)
(1.07898 -0.220746 1.55217e-20)
(0.383498 -0.169504 1.79413e-19)
(0.862051 -0.417318 -8.25385e-20)
(1.09164 -0.525636 4.18147e-20)
(1.16207 -0.536704 1.83822e-19)
(1.16588 -0.505919 1.40747e-19)
(1.15123 -0.465697 -9.33304e-20)
(1.13604 -0.426614 3.30077e-20)
(1.12373 -0.391102 2.69699e-20)
(1.11423 -0.359108 -2.88297e-20)
(1.107 -0.330153 1.06744e-20)
(1.10157 -0.303837 3.88968e-21)
(1.09769 -0.2797 -2.55817e-21)
(1.09514 -0.257474 1.54274e-21)
(1.0928 -0.238066 -1.52696e-20)
(1.09023 -0.220359 1.95269e-20)
(0.369377 -0.148064 -1.67302e-19)
(0.854885 -0.383534 1.05413e-19)
(1.09895 -0.497673 1.2828e-19)
(1.17934 -0.516667 -2.75658e-20)
(1.18674 -0.491849 -1.95601e-19)
(1.17207 -0.455283 -6.42591e-20)
(1.15549 -0.418591 -7.4561e-20)
(1.14172 -0.38484 2.68135e-20)
(1.13088 -0.354205 -7.90612e-21)
(1.12246 -0.326349 -1.65008e-20)
(1.11596 -0.300918 -9.47894e-21)
(1.11112 -0.277512 -8.64207e-22)
(1.10773 -0.255824 -7.5403e-21)
(1.10472 -0.236714 7.19792e-21)
(1.10131 -0.219557 -9.14946e-21)
(0.352565 -0.127232 7.22328e-20)
(0.842284 -0.348847 7.88825e-22)
(1.10127 -0.468084 -3.89557e-19)
(1.19307 -0.495063 -2.13242e-20)
(1.20529 -0.476522 1.56084e-19)
(1.19139 -0.443871 1.30544e-19)
(1.17391 -0.40973 6.78042e-20)
(1.15885 -0.377827 -1.03598e-21)
(1.14682 -0.348638 1.26674e-20)
(1.13733 -0.321932 -1.04566e-21)
(1.12988 -0.297436 1.55016e-20)
(1.12415 -0.274817 3.45742e-21)
(1.11999 -0.253727 -7.21369e-22)
(1.11638 -0.234931 -3.53362e-21)
(1.1122 -0.218351 -2.01819e-21)
(0.333328 -0.107305 -1.23461e-20)
(0.824181 -0.313675 1.2829e-19)
(1.09829 -0.437144 2.11267e-19)
(1.20294 -0.472056 6.12761e-20)
(1.22136 -0.460061 -1.47317e-19)
(1.20907 -0.431582 -1.54848e-19)
(1.19118 -0.400133 5.71361e-20)
(1.17512 -0.37016 -2.15495e-20)
(1.16205 -0.34247 7.07542e-20)
(1.1516 -0.316969 -9.84322e-22)
(1.14329 -0.293452 -8.2277e-21)
(1.13676 -0.271658 -3.92087e-21)
(1.13187 -0.251221 1.02203e-20)
(1.12776 -0.232749 3.59357e-21)
(1.12291 -0.216767 -4.98941e-22)
(0.311989 -0.0885566 1.84642e-19)
(0.800588 -0.278452 -1.94552e-19)
(1.08973 -0.405143 1.11132e-19)
(1.20863 -0.447813 1.37049e-19)
(1.23472 -0.44258 1.02454e-19)
(1.22501 -0.418525 3.33023e-20)
(1.20721 -0.389908 2.20372e-20)
(1.19045 -0.36193 -7.49488e-22)
(1.17653 -0.335783 -3.24272e-20)
(1.16525 -0.311523 1.39787e-20)
(1.15619 -0.289011 2.92519e-20)
(1.14895 -0.268082 7.74335e-21)
(1.14337 -0.24836 -7.23999e-21)
(1.1388 -0.230219 -4.89329e-21)
(1.13343 -0.21483 -3.56611e-21)
(0.288922 -0.0712252 -9.97369e-20)
(0.771607 -0.243626 7.07398e-20)
(1.07535 -0.372381 -5.66332e-21)
(1.2098 -0.422504 -1.46949e-19)
(1.24512 -0.424186 -3.05073e-20)
(1.23908 -0.404794 7.09584e-20)
(1.22197 -0.379152 -5.25638e-20)
(1.20481 -0.35323 6.79078e-21)
(1.19022 -0.328655 -3.4815e-21)
(1.17826 -0.305659 -1.04094e-20)
(1.16855 -0.284181 -1.66547e-20)
(1.1607 -0.26413 -2.54749e-20)
(1.15449 -0.24516 -1.1935e-20)
(1.14945 -0.227375 1.37114e-20)
(1.14388 -0.212617 2.72187e-21)
(0.264541 -0.0555124 -1.24072e-19)
(0.737444 -0.209655 -1.52714e-20)
(1.05493 -0.339169 -7.34701e-20)
(1.2061 -0.396296 6.25549e-20)
(1.25228 -0.40498 -6.71615e-20)
(1.25112 -0.390476 -2.61161e-20)
(1.23538 -0.367954 6.98307e-21)
(1.21818 -0.344147 -7.09056e-21)
(1.20311 -0.321165 1.87365e-20)
(1.19061 -0.299447 8.82224e-22)
(1.18035 -0.279017 1.1496e-20)
(1.17198 -0.259846 1.42094e-20)
(1.16523 -0.241646 1.37232e-20)
(1.15972 -0.224374 -4.22496e-21)
(1.15415 -0.210151 -3.86887e-21)
(0.239289 -0.0415745 7.20639e-20)
(0.698428 -0.176999 7.53538e-20)
(1.02831 -0.305826 2.47331e-20)
(1.19715 -0.369358 -3.77455e-20)
(1.25587 -0.385052 7.27492e-21)
(1.26094 -0.375644 5.19855e-20)
(1.24738 -0.356393 -3.39075e-20)
(1.23053 -0.334762 -2.75883e-20)
(1.21521 -0.313387 -6.04854e-21)
(1.20229 -0.292951 5.26758e-21)
(1.19159 -0.273571 -2.40766e-20)
(1.18278 -0.25528 6.23277e-21)
(1.17557 -0.237864 1.3591e-20)
(1.16964 -0.221192 -3.16113e-21)
(1.1639 -0.207414 -4.23601e-21)
(0.213622 -0.0295186 -4.72087e-20)
(0.65503 -0.14611 -3.18894e-20)
(0.995388 -0.272681 -5.97825e-20)
(1.18258 -0.34186 -9.3539e-21)
(1.25551 -0.364481 -6.25657e-21)
(1.26831 -0.360355 -5.79406e-20)
(1.25786 -0.344535 1.72915e-20)
(1.24184 -0.325147 9.15043e-21)
(1.2265 -0.305391 -1.53633e-20)
(1.2133 -0.286231 -9.009e-21)
(1.20226 -0.267897 -1.11331e-21)
(1.19309 -0.250481 -7.60047e-21)
(1.1855 -0.233845 -1.19461e-20)
(1.17919 -0.217776 -1.06864e-20)
(1.17317 -0.204421 7.18954e-21)
(0.187997 -0.0193991 -2.09063e-20)
(0.607859 -0.117418 7.52979e-21)
(0.956162 -0.240067 1.00754e-20)
(1.16201 -0.313978 1.0131e-20)
(1.25079 -0.34334 1.67449e-20)
(1.27294 -0.344649 1.14689e-20)
(1.26667 -0.33243 -3.19851e-21)
(1.25206 -0.315366 1.05458e-20)
(1.23698 -0.297241 -3.55685e-22)
(1.22367 -0.279347 -1.04433e-22)
(1.21238 -0.262046 3.91003e-21)
(1.20293 -0.24549 -1.78833e-21)
(1.19503 -0.229618 1.14754e-21)
(1.18838 -0.214129 4.64932e-21)
(1.18209 -0.201191 -3.77884e-21)
(0.162849 -0.0112132 -1.25025e-20)
(0.557658 -0.0913114 -3.3248e-21)
(0.910733 -0.208328 1.46245e-20)
(1.13507 -0.2859 6.51564e-21)
(1.24124 -0.321693 1.83286e-20)
(1.27447 -0.328548 1.24727e-20)
(1.27364 -0.320109 -4.77488e-22)
(1.26112 -0.305467 1.48097e-20)
(1.24665 -0.288995 -7.23969e-21)
(1.23338 -0.272352 7.882e-22)
(1.22196 -0.256064 4.85632e-21)
(1.2123 -0.240349 -2.22524e-21)
(1.20414 -0.225222 2.113e-21)
(1.19724 -0.21029 7.64769e-21)
(1.19075 -0.197745 -2.95538e-21)
(0.138584 -0.00489953 -1.69063e-20)
(0.505289 -0.068128 -5.01654e-20)
(0.859356 -0.177816 -5.79075e-20)
(1.10143 -0.257821 -2.12921e-21)
(1.22632 -0.299598 -8.49482e-21)
(1.27247 -0.312053 -6.41924e-20)
(1.2785 -0.307582 3.24506e-20)
(1.26893 -0.295484 5.05408e-21)
(1.25547 -0.2807 -2.19873e-20)
(1.24245 -0.265296 -1.91239e-20)
(1.231 -0.249998 3.4454e-21)
(1.22121 -0.235098 -1.18789e-20)
(1.21287 -0.220697 -1.25227e-20)
(1.20577 -0.206315 -1.63233e-20)
(1.19919 -0.194107 1.02146e-20)
(0.115554 -0.00034142 6.55793e-20)
(0.451709 -0.048132 4.79049e-20)
(0.802472 -0.148896 2.08116e-20)
(1.06085 -0.229953 -3.14408e-20)
(1.20549 -0.277114 1.53768e-20)
(1.26642 -0.29515 3.38501e-20)
(1.28093 -0.294833 -2.82135e-20)
(1.27532 -0.285431 -5.70005e-20)
(1.2634 -0.272391 -8.37749e-21)
(1.25088 -0.258223 3.32851e-20)
(1.23952 -0.24389 -4.3198e-20)
(1.22968 -0.229776 1.66265e-20)
(1.22122 -0.216082 7.32483e-21)
(1.21398 -0.202253 -1.05357e-21)
(1.20738 -0.190313 1.63295e-21)
(0.0940524 0.00262459 -7.63156e-20)
(0.397937 -0.0314962 -4.90108e-20)
(0.740737 -0.121942 -8.0844e-20)
(1.01316 -0.202529 7.58402e-20)
(1.17813 -0.254304 -8.64627e-20)
(1.25569 -0.277808 -2.30337e-20)
(1.28049 -0.281822 -2.62273e-21)
(1.28007 -0.275296 -1.48632e-21)
(1.27036 -0.264088 4.64209e-20)
(1.25864 -0.251167 -5.53953e-20)
(1.24754 -0.237778 4.15046e-20)
(1.23773 -0.224419 2.04859e-20)
(1.22921 -0.211407 5.21239e-20)
(1.22186 -0.198145 -5.88417e-21)
(1.2153 -0.186396 -1.60229e-20)
(0.0743018 0.00419604 1.27966e-20)
(0.345001 -0.0182815 1.36564e-20)
(0.67505 -0.0973331 -2.89221e-20)
(0.958365 -0.175805 -1.18796e-19)
(1.14367 -0.231245 -3.39134e-20)
(1.23956 -0.259988 9.13911e-20)
(1.27662 -0.268482 -7.74714e-20)
(1.28285 -0.265042 -4.24838e-20)
(1.27621 -0.25579 1.25335e-20)
(1.26572 -0.24415 -1.8606e-20)
(1.25505 -0.231695 -8.48714e-20)
(1.24537 -0.219061 -4.1506e-20)
(1.23685 -0.206695 2.97268e-21)
(1.22943 -0.19402 1.03642e-20)
(1.22294 -0.182386 9.17984e-21)
(0.0564517 0.00458948 1.42529e-19)
(0.293883 -0.00842177 -1.81329e-19)
(0.606556 -0.0754402 1.32122e-19)
(0.896683 -0.150076 7.23271e-20)
(1.10154 -0.208042 2.37388e-19)
(1.21721 -0.241651 1.2928e-20)
(1.2686 -0.254726 6.51941e-20)
(1.28322 -0.2546 1.74249e-20)
(1.28072 -0.247471 -1.49261e-19)
(1.27202 -0.23718 5.13389e-20)
(1.26204 -0.225661 3.51391e-20)
(1.2526 -0.213729 6.84107e-20)
(1.24415 -0.201968 -6.90361e-20)
(1.23669 -0.189899 -2.29427e-20)
(1.23029 -0.17831 -5.43393e-21)
(0.0405819 0.00402581 -1.90035e-20)
(0.245461 -0.00172065 2.12403e-19)
(0.536621 -0.0566 1.80564e-19)
(0.828629 -0.125679 3.79884e-20)
(1.05131 -0.184839 -2.34436e-19)
(1.18777 -0.222767 -1.5899e-19)
(1.25559 -0.240443 5.85214e-20)
(1.28057 -0.243871 -4.41337e-20)
(1.28358 -0.239078 8.38905e-20)
(1.27741 -0.230244 2.31281e-20)
(1.26848 -0.21969 1.73746e-20)
(1.25943 -0.208446 -4.09538e-20)
(1.25113 -0.197243 2.26142e-20)
(1.24366 -0.1858 9.7005e-20)
(1.23738 -0.174191 1.11517e-19)
(0.0267097 0.00271831 1.57704e-19)
(0.200456 0.00213363 -1.75035e-19)
(0.466769 -0.0410785 -2.98225e-19)
(0.755081 -0.103005 3.06762e-20)
(0.99273 -0.161838 2.07072e-19)
(1.15032 -0.203336 2.22417e-19)
(1.23655 -0.225519 1.36362e-19)
(1.2741 -0.232722 -2.21298e-21)
(1.28428 -0.230521 3.36339e-20)
(1.28166 -0.223304 1.24336e-20)
(1.27428 -0.213775 8.7068e-20)
(1.26586 -0.203229 2.4017e-20)
(1.2578 -0.192536 1.86087e-20)
(1.25037 -0.181739 -2.45102e-20)
(1.2442 -0.170052 -3.23916e-20)
(0.0147994 0.000864377 -2.03725e-19)
(0.159397 0.00353681 1.61451e-19)
(0.398569 -0.0290227 1.58232e-19)
(0.677335 -0.082491 -1.28865e-19)
(0.925882 -0.13932 -3.18447e-19)
(1.10401 -0.183404 -6.7603e-20)
(1.21034 -0.209841 -1.9079e-19)
(1.26281 -0.220996 7.41048e-20)
(1.28216 -0.221673 -1.1742e-20)
(1.2844 -0.21629 -9.65382e-20)
(1.2793 -0.207891 -3.91314e-20)
(1.27182 -0.198079 1.68518e-21)
(1.26415 -0.187856 -2.70714e-20)
(1.25682 -0.177723 -2.76179e-20)
(1.25079 -0.165913 3.33592e-21)
(0.00477217 -0.00135895 2.96647e-19)
(0.12261 0.00292738 -1.96022e-19)
(0.333508 -0.0204156 1.25553e-19)
(0.597105 -0.0645952 1.41534e-19)
(0.851278 -0.11766 2.75089e-19)
(1.04817 -0.163093 -2.18341e-19)
(1.17571 -0.193325 9.56766e-20)
(1.24544 -0.208514 1.11761e-19)
(1.2763 -0.212368 -1.15265e-19)
(1.28509 -0.209093 -4.87141e-20)
(1.28325 -0.201986 -1.4016e-20)
(1.27722 -0.192986 -1.84709e-20)
(1.27016 -0.183208 -8.65488e-20)
(1.26302 -0.173758 6.93032e-20)
(1.25717 -0.161788 -1.29111e-19)
(-0.00348277 -0.00379626 -1.63194e-19)
(0.0902313 0.000746689 8.14264e-21)
(0.272855 -0.0150561 8.82664e-20)
(0.516441 -0.0497415 -2.21027e-19)
(0.770011 -0.0973408 1.14355e-19)
(0.982459 -0.14263 -6.993e-22)
(1.13141 -0.175938 -1.29213e-19)
(1.22055 -0.1951 -5.73908e-20)
(1.26547 -0.202401 8.60498e-21)
(1.28291 -0.20156 1.2292e-19)
(1.28572 -0.195969 1.52728e-19)
(1.28188 -0.187913 1.34215e-19)
(1.27577 -0.178581 2.31601e-20)
(1.26896 -0.169842 -1.45454e-19)
(1.26333 -0.157691 -1.85688e-20)
(-0.0101034 -0.00631493 3.39002e-20)
(0.0622332 -0.00259075 -1.94574e-19)
(0.217556 -0.0125809 -2.96747e-19)
(0.437543 -0.0382367 2.87764e-19)
(0.683832 -0.0789389 -2.12177e-19)
(0.907059 -0.122384 1.15925e-19)
(1.07635 -0.157744 1.28351e-19)
(1.18652 -0.180601 9.3146e-20)
(1.24817 -0.191543 8.74581e-20)
(1.27676 -0.193487 2.54146e-20)
(1.28601 -0.189702 -1.02741e-19)
(1.28545 -0.182792 -1.26681e-19)
(1.28084 -0.173951 3.12445e-20)
(1.27459 -0.16596 3.59264e-20)
(1.26929 -0.15362 1.47708e-19)
(-0.0152468 -0.00880697 1.39726e-19)
(0.0384583 -0.00671772 3.86074e-19)
(0.1682 -0.0125223 -9.37221e-20)
(0.362513 -0.0301861 -1.84585e-19)
(0.595124 -0.0630726 4.23434e-19)
(0.822923 -0.10289 1.72706e-19)
(1.00985 -0.138947 3.95522e-20)
(1.1417 -0.164933 -6.08691e-20)
(1.22255 -0.179558 2.24015e-20)
(1.26512 -0.184624 -1.6676e-19)
(1.28314 -0.182995 7.76541e-20)
(1.28737 -0.177509 2.16993e-20)
(1.28511 -0.169264 -1.27183e-19)
(1.27985 -0.162088 -4.12678e-20)
(1.27501 -0.14957 -1.09665e-19)
(-0.0190797 -0.0111876 -6.00774e-20)
(0.0186534 -0.0113223 1.80488e-19)
(0.125032 -0.0143794 1.73403e-19)
(0.293109 -0.025452 -7.55509e-20)
(0.506705 -0.0502946 -3.01336e-20)
(0.731923 -0.0848404 -2.00781e-19)
(0.931892 -0.119945 9.48136e-20)
(1.08463 -0.148132 -1.04804e-19)
(1.18659 -0.166242 -5.29083e-20)
(1.24609 -0.174691 1.43519e-19)
(1.27565 -0.175595 -1.36506e-19)
(1.28676 -0.171891 6.84748e-20)
(1.28812 -0.16443 1.53477e-19)
(1.28446 -0.158167 -1.78875e-19)
(1.28049 -0.145521 1.23409e-19)
(-0.021774 -0.0133962 -1.40916e-19)
(0.00249923 -0.0161506 -5.84889e-19)
(0.0880058 -0.0176746 2.58939e-20)
(0.230578 -0.0236806 -1.44979e-19)
(0.421476 -0.0409599 -4.23263e-19)
(0.63687 -0.0690229 1.39839e-19)
(0.843493 -0.101368 -2.64142e-19)
(1.01438 -0.13043 1.16713e-19)
(1.1382 -0.151484 1.12726e-19)
(1.21734 -0.1634 -1.682e-19)
(1.26162 -0.167196 6.86031e-20)
(1.28226 -0.165698 2.52421e-20)
(1.28908 -0.159294 4.31037e-21)
(1.28815 -0.154126 4.87613e-20)
(1.28533 -0.141389 -3.69983e-20)
(-0.0235016 -0.0153955 8.88854e-21)
(-0.0103651 -0.021005 3.32864e-19)
(0.0568625 -0.0219868 2.11484e-19)
(0.175606 -0.024384 1.7451e-19)
(0.342002 -0.0351279 1.75113e-19)
(0.541264 -0.0561746 2.12583e-19)
(0.746933 -0.0840621 1.58592e-19)
(0.931005 -0.112327 -2.13127e-19)
(1.07562 -0.13535 -2.95267e-19)
(1.17632 -0.150524 2.79771e-19)
(1.23854 -0.157454 3.5384e-20)
(1.27194 -0.158619 -2.55359e-20)
(1.28674 -0.153636 -1.8094e-19)
(1.29004 -0.149803 -5.29545e-20)
(1.2897 -0.137153 1.45667e-19)
(-0.0244283 -0.0171696 1.07439e-19)
(-0.0203214 -0.0257395 -4.62542e-19)
(0.0311902 -0.0269615 -4.07836e-20)
(0.128378 -0.0270306 -1.61264e-19)
(0.270192 -0.0325545 -1.18339e-19)
(0.448786 -0.0468004 -8.26937e-21)
(0.64574 -0.0689835 -6.65611e-20)
(0.835987 -0.0946275 2.28103e-19)
(0.997961 -0.118187 1.74737e-19)
(1.12053 -0.13598 -1.95047e-19)
(1.20346 -0.146055 1.10788e-19)
(1.25314 -0.150263 -1.49456e-19)
(1.27921 -0.147166 1.42175e-19)
(1.28918 -0.145015 -3.36757e-20)
(1.29196 -0.132464 -1.43654e-19)
(-0.0247103 -0.0187202 -3.84126e-19)
(-0.0277563 -0.0302521 6.39234e-19)
(0.0104799 -0.032308 7.2614e-21)
(0.0886815 -0.0311095 -1.76962e-19)
(0.207159 -0.0327706 2.34029e-19)
(0.362696 -0.0410387 -6.86246e-20)
(0.544269 -0.0569852 -1.89044e-19)
(0.732502 -0.0783817 -2.12489e-19)
(0.905821 -0.10071 4.02879e-19)
(1.04821 -0.119971 -1.06157e-19)
(1.15325 -0.132782 -3.50449e-20)
(1.22263 -0.14029 1.94788e-19)
(1.26358 -0.139397 -1.43435e-19)
(1.28363 -0.139576 5.03442e-20)
(1.29243 -0.12726 -6.24114e-20)
(-0.0244906 -0.0200632 5.41988e-19)
(-0.0330469 -0.0344751 -5.94106e-19)
(-0.00583233 -0.0377896 -2.46073e-19)
(0.0560185 -0.0361599 9.7083e-20)
(0.153266 -0.0351933 -4.03894e-20)
(0.285364 -0.0386465 -1.45493e-19)
(0.446943 -0.0485867 1.8916e-19)
(0.625186 -0.064676 -1.39777e-19)
(0.801835 -0.0839971 -2.31131e-19)
(0.959066 -0.103103 2.82001e-19)
(1.08534 -0.117737 -9.57929e-20)
(1.17654 -0.128298 5.2918e-20)
(1.23669 -0.130158 1.14503e-20)
(1.26986 -0.132693 1.35805e-19)
(1.28769 -0.121286 7.074e-20)
(-0.0238958 -0.021224 -2.23415e-19)
(-0.0365496 -0.0383651 8.74641e-20)
(-0.0183325 -0.0432114 -5.88507e-20)