/*--------------------------------*- C++ -*----------------------------------*\
  =========                 |
  \\      /  F ield         | OpenFOAM: The Open Source CFD Toolbox
   \\    /   O peration     | Website:  https://openfoam.org
    \\  /    A nd           | Version:  7
     \\/     M anipulation  |
\*---------------------------------------------------------------------------*/
FoamFile
{
    version     2.0;
    format      ascii;
    class       volScalarField;
    location    "50";
    object      p;
}
// * * * * * * * * * * * * * * * * * * * * * * * * * * * * * * * * * * * * * //

dimensions      [0 2 -2 0 0 0 0];

internalField   nonuniform List<scalar> 
1360
(
-0.0765997
-0.0750202
-0.0737525
-0.0727998
-0.0721637
-0.0718456
-0.115389
-0.112646
-0.110054
-0.107077
-0.103862
-0.100529
-0.0971707
-0.0938692
-0.0906883
-0.0876765
-0.0848703
-0.0822969
-0.0799766
-0.0779241
-0.0761505
-0.0746635
-0.0734687
-0.0725698
-0.0719693
-0.0716689
-0.11156
-0.109123
-0.106818
-0.104148
-0.101244
-0.0982148
-0.095145
-0.0921122
-0.0891775
-0.0863883
-0.0837809
-0.0813829
-0.0792153
-0.0772939
-0.0756304
-0.0742337
-0.07311
-0.0722639
-0.0716981
-0.071415
-0.107838
-0.105686
-0.103648
-0.101266
-0.098654
-0.0959106
-0.0931141
-0.0903367
-0.0876369
-0.0850608
-0.0826444
-0.0804155
-0.0783956
-0.076601
-0.0750445
-0.0737356
-0.0726812
-0.0718865
-0.0713548
-0.0710886
-0.104222
-0.102335
-0.100546
-0.0984324
-0.0960946
-0.0936207
-0.0910825
-0.0885477
-0.0860718
-0.0836995
-0.0814663
-0.0793999
-0.0775223
-0.0758505
-0.0743977
-0.0731739
-0.0721869
-0.0714423
-0.0709437
-0.0706941
-0.100711
-0.0990713
-0.0975135
-0.0956504
-0.0935693
-0.0913489
-0.0890547
-0.0867497
-0.0844868
-0.0823091
-0.0802513
-0.0783411
-0.0766006
-0.0750471
-0.0736945
-0.0725533
-0.0716316
-0.0709356
-0.0704693
-0.0702356
-0.0973057
-0.0958939
-0.0945511
-0.0929217
-0.0910807
-0.0890984
-0.0870344
-0.0849471
-0.0828866
-0.0808943
-0.0790042
-0.0772436
-0.0756348
-0.0741954
-0.0729394
-0.071878
-0.0710196
-0.0703707
-0.0699356
-0.0697175
-0.0940031
-0.0928029
-0.0916596
-0.0902477
-0.0886312
-0.0868723
-0.0850251
-0.0831436
-0.0812751
-0.0794593
-0.0777292
-0.076112
-0.0746295
-0.0732997
-0.0721368
-0.0711524
-0.0703551
-0.0697517
-0.0693468
-0.0691438
-0.0908022
-0.0897978
-0.0888393
-0.0876297
-0.0862227
-0.0846732
-0.0830299
-0.0813428
-0.0796562
-0.0780081
-0.0764306
-0.0749502
-0.0735887
-0.0723641
-0.0712908
-0.0703804
-0.069642
-0.0690826
-0.0687069
-0.0685184
-0.0877013
-0.0868777
-0.0860904
-0.0850686
-0.0838568
-0.0825033
-0.0810517
-0.0795479
-0.0780334
-0.0765445
-0.0751121
-0.0737623
-0.0725165
-0.0713926
-0.0704052
-0.069566
-0.0688843
-0.0683672
-0.0680196
-0.0678452
-0.0846988
-0.0840419
-0.0834127
-0.082565
-0.0815351
-0.0803648
-0.0790929
-0.0777616
-0.0764098
-0.0750717
-0.0737773
-0.0725518
-0.0714164
-0.0703889
-0.0694838
-0.0687129
-0.0680857
-0.0676093
-0.0672888
-0.0671278
-0.0817927
-0.0812892
-0.0808058
-0.0801194
-0.0792585
-0.0782592
-0.0771558
-0.0759868
-0.0747883
-0.073593
-0.0724295
-0.0713222
-0.0702921
-0.0693566
-0.0685302
-0.0678248
-0.0672497
-0.0668124
-0.0665179
-0.0663699
-0.078981
-0.0786184
-0.0782694
-0.0777321
-0.077028
-0.076188
-0.0752423
-0.0742257
-0.0731717
-0.0721113
-0.0710717
-0.0700767
-0.0691467
-0.0682989
-0.0675477
-0.0669049
-0.0663798
-0.0659799
-0.0657103
-0.0655747
-0.0762615
-0.0760282
-0.0758027
-0.0754029
-0.0748443
-0.0741525
-0.0733541
-0.0724803
-0.0715623
-0.0706291
-0.0697068
-0.0688183
-0.0679835
-0.0672192
-0.0665396
-0.0659565
-0.0654792
-0.065115
-0.0648693
-0.0647457
-0.073632
-0.073517
-0.0734048
-0.0731319
-0.0727077
-0.0721537
-0.0714926
-0.0707527
-0.0699624
-0.0691491
-0.0683375
-0.0675498
-0.0668053
-0.0661203
-0.065509
-0.0649827
-0.064551
-0.064221
-0.0639981
-0.0638858
-0.0710904
-0.0710833
-0.0710749
-0.0709185
-0.0706186
-0.0701924
-0.0696593
-0.0690443
-0.0683739
-0.0676733
-0.0669662
-0.0662739
-0.0656148
-0.0650051
-0.0644586
-0.0639865
-0.0635982
-0.0633008
-0.0630996
-0.0629982
-0.0686342
-0.0687254
-0.0688119
-0.0687625
-0.0685771
-0.0682693
-0.0678551
-0.0673568
-0.0667985
-0.0662039
-0.0655952
-0.0649928
-0.0644146
-0.0638763
-0.0633912
-0.0629706
-0.0626235
-0.0623571
-0.0621766
-0.0620856
-0.0662611
-0.0664416
-0.0666146
-0.0666631
-0.0665832
-0.0663847
-0.0660809
-0.0656914
-0.065238
-0.0647427
-0.0642265
-0.0637088
-0.063207
-0.0627362
-0.0623094
-0.0619376
-0.0616297
-0.0613928
-0.061232
-0.0611508
-0.0639687
-0.0642301
-0.0644816
-0.0646197
-0.0646366
-0.064539
-0.0643376
-0.0640492
-0.0636937
-0.0632913
-0.062862
-0.0624241
-0.0619943
-0.0615872
-0.0612155
-0.06089
-0.0606193
-0.0604103
-0.0602681
-0.0601963
-0.0617546
-0.0620891
-0.0624119
-0.0626315
-0.062737
-0.0627324
-0.0626256
-0.0624312
-0.0621668
-0.0618514
-0.0615035
-0.0611406
-0.0607785
-0.0604315
-0.0601119
-0.0598301
-0.0595945
-0.059412
-0.0592876
-0.0592246
-0.0596164
-0.0600166
-0.0604038
-0.0606976
-0.0608842
-0.0609649
-0.0609454
-0.0608381
-0.0606586
-0.0604243
-0.0601526
-0.0598599
-0.0595616
-0.0592712
-0.0590007
-0.0587601
-0.0585577
-0.0584003
-0.0582926
-0.058238
-0.0575517
-0.0580109
-0.058456
-0.058817
-0.0590776
-0.0592365
-0.0592975
-0.0592706
-0.0591699
-0.0590112
-0.0588106
-0.0585838
-0.0583452
-0.058108
-0.0578837
-0.057682
-0.057511
-0.0573773
-0.0572854
-0.0572387
-0.0555581
-0.05607
-0.0565671
-0.0569888
-0.0573165
-0.0575471
-0.0576819
-0.0577294
-0.0577017
-0.0576132
-0.057479
-0.0573136
-0.0571311
-0.0569438
-0.0567629
-0.0565978
-0.0564564
-0.0563449
-0.056268
-0.0562288
-0.0536333
-0.0541919
-0.0547355
-0.0552118
-0.0556005
-0.0558962
-0.0560988
-0.0562148
-0.0562546
-0.0562313
-0.0561588
-0.0560509
-0.0559207
-0.0557802
-0.0556401
-0.0555094
-0.0553957
-0.0553052
-0.0552424
-0.0552102
-0.0517749
-0.0523749
-0.0529597
-0.053485
-0.0539287
-0.0542838
-0.0545483
-0.0547271
-0.0548293
-0.0548663
-0.0548512
-0.0547968
-0.0547155
-0.0546187
-0.0545167
-0.0544183
-0.0543307
-0.0542599
-0.0542103
-0.0541847
-0.0499806
-0.0506169
-0.0512383
-0.0518072
-0.0523004
-0.0527092
-0.0530303
-0.0532667
-0.0534262
-0.0535191
-0.0535571
-0.0535523
-0.0535166
-0.0534607
-0.0533944
-0.0533261
-0.053263
-0.0532107
-0.0531734
-0.0531541
-0.0482482
-0.0489161
-0.0495695
-0.0501773
-0.0507148
-0.0511722
-0.0515446
-0.0518337
-0.0520458
-0.0521901
-0.0522773
-0.0523187
-0.0523253
-0.0523074
-0.0522744
-0.0522343
-0.0521941
-0.0521591
-0.0521335
-0.05212
-0.0465755
-0.0472707
-0.047952
-0.0485941
-0.0491711
-0.0496721
-0.050091
-0.0504281
-0.0506885
-0.05088
-0.0510126
-0.0510967
-0.0511426
-0.0511601
-0.051158
-0.0511443
-0.0511254
-0.0511066
-0.0510918
-0.0510838
-0.0449602
-0.0456789
-0.0463842
-0.0470563
-0.0476684
-0.0482084
-0.0486693
-0.04905
-0.0493544
-0.0495893
-0.0497637
-0.0498872
-0.0499694
-0.0500197
-0.0500465
-0.0500573
-0.0500583
-0.0500546
-0.05005
-0.050047
-0.0434003
-0.0441387
-0.0448646
-0.0455627
-0.0462058
-0.0467806
-0.0472792
-0.0476993
-0.0480438
-0.0483184
-0.0485311
-0.0486909
-0.0488067
-0.0488874
-0.0489409
-0.0489745
-0.0489939
-0.0490043
-0.0490091
-0.0490109
-0.0418937
-0.0426485
-0.0433918
-0.0441122
-0.0447823
-0.045388
-0.0459203
-0.046376
-0.0467567
-0.0470675
-0.0473153
-0.0475084
-0.0476552
-0.047764
-0.0478422
-0.0478968
-0.0479335
-0.0479569
-0.0479705
-0.0479767
-0.0404384
-0.0412065
-0.0419641
-0.0427036
-0.0433971
-0.0440299
-0.0445921
-0.0450797
-0.0454933
-0.0458369
-0.0461168
-0.0463404
-0.0465156
-0.0466502
-0.0467513
-0.0468254
-0.046878
-0.0469134
-0.0469352
-0.0469455
-0.0390325
-0.0398111
-0.0405802
-0.0413356
-0.0420492
-0.0427056
-0.0432944
-0.0438104
-0.0442535
-0.0446268
-0.0449358
-0.0451873
-0.0453886
-0.0455469
-0.0456691
-0.0457611
-0.0458283
-0.045875
-0.0459042
-0.0459183
-0.0376741
-0.0384605
-0.0392386
-0.0400071
-0.0407377
-0.0414146
-0.0420265
-0.0425677
-0.0430372
-0.0434373
-0.0437727
-0.0440496
-0.0442747
-0.0444547
-0.0445962
-0.0447047
-0.0447855
-0.0448424
-0.0448786
-0.0448962
-0.0363613
-0.0371533
-0.037938
-0.0387169
-0.0394616
-0.0401559
-0.040788
-0.0413515
-0.0418444
-0.0422685
-0.0426277
-0.0429276
-0.0431743
-0.0433742
-0.0435333
-0.043657
-0.0437502
-0.0438166
-0.0438592
-0.04388
-0.0350924
-0.0358877
-0.0366769
-0.0374638
-0.0382201
-0.038929
-0.0395784
-0.0401613
-0.040675
-0.0411205
-0.041501
-0.0418216
-0.042088
-0.0423059
-0.0424811
-0.0426187
-0.0427231
-0.0427982
-0.0428467
-0.0428704
-0.0338656
-0.0346623
-0.0354541
-0.0362468
-0.037012
-0.037733
-0.0383972
-0.0389968
-0.0395287
-0.0399931
-0.0403927
-0.040732
-0.041016
-0.0412503
-0.04144
-0.0415902
-0.0417051
-0.0417881
-0.0418419
-0.0418684
-0.0326793
-0.0334757
-0.0342682
-0.0350646
-0.0358366
-0.0365673
-0.0372438
-0.0378577
-0.0384054
-0.0388864
-0.0393029
-0.0396588
-0.0399587
-0.0402077
-0.0404107
-0.0405723
-0.0406966
-0.0407868
-0.0408455
-0.0408744
-0.031532
-0.0323263
-0.033118
-0.0339162
-0.034693
-0.0354312
-0.0361176
-0.0367436
-0.0373048
-0.0378003
-0.0382317
-0.0386023
-0.0389164
-0.0391785
-0.0393934
-0.0395654
-0.0396981
-0.0397949
-0.039858
-0.0398892
-0.0304221
-0.0312129
-0.0320022
-0.0328005
-0.0335801
-0.0343237
-0.0350181
-0.035654
-0.0362266
-0.0367346
-0.0371789
-0.0375625
-0.0378892
-0.0381631
-0.0383886
-0.0385698
-0.0387103
-0.0388129
-0.03888
-0.0389132
-0.029348
-0.030134
-0.0309196
-0.0317164
-0.0324971
-0.0332444
-0.0339446
-0.0345885
-0.0351706
-0.0356892
-0.0361447
-0.0365396
-0.0368773
-0.0371616
-0.0373966
-0.0375861
-0.0377334
-0.0378413
-0.037912
-0.037947
-0.0283084
-0.0290884
-0.0298691
-0.030663
-0.0314432
-0.0321923
-0.0328967
-0.0335467
-0.0341365
-0.0346639
-0.0351289
-0.0355336
-0.0358809
-0.0361743
-0.0364177
-0.0366145
-0.0367679
-0.0368805
-0.0369544
-0.036991
-0.0273019
-0.0280749
-0.0288496
-0.0296393
-0.0304175
-0.0311669
-0.0318738
-0.0325281
-0.033124
-0.0336585
-0.0341315
-0.0345444
-0.0349
-0.0352014
-0.035452
-0.0356553
-0.035814
-0.0359308
-0.0360076
-0.0360456
-0.0263272
-0.0270922
-0.0278598
-0.0286441
-0.029419
-0.0301673
-0.0308751
-0.0315324
-0.0321326
-0.0326728
-0.0331522
-0.0335721
-0.0339347
-0.0342429
-0.0344999
-0.0347087
-0.0348722
-0.0349926
-0.0350719
-0.0351112
-0.025383
-0.0261391
-0.0268989
-0.0276768
-0.0284471
-0.0291929
-0.0299003
-0.0305589
-0.0311621
-0.0317065
-0.0321911
-0.0326166
-0.032985
-0.0332989
-0.0335613
-0.033775
-0.0339425
-0.0340661
-0.0341476
-0.034188
-0.0244682
-0.0252146
-0.0259657
-0.0267362
-0.0275009
-0.028243
-0.0289486
-0.0296073
-0.0302122
-0.0307595
-0.0312478
-0.0316778
-0.0320509
-0.0323696
-0.0326365
-0.0328543
-0.0330253
-0.0331516
-0.0332349
-0.0332762
-0.0235814
-0.0243176
-0.0250593
-0.0258215
-0.0265796
-0.0273169
-0.0280196
-0.0286771
-0.0292824
-0.0298313
-0.0303223
-0.0307556
-0.0311324
-0.031455
-0.0317256
-0.0319467
-0.0321206
-0.0322492
-0.0323341
-0.0323762
-0.0227217
-0.023447
-0.0241787
-0.0249319
-0.0256825
-0.026414
-0.0271126
-0.0277678
-0.0283723
-0.0289218
-0.0294144
-0.0298499
-0.0302295
-0.0305549
-0.0308285
-0.0310523
-0.0312286
-0.0313591
-0.0314453
-0.0314881
-0.021888
-0.0226019
-0.023323
-0.0240665
-0.0248088
-0.0255335
-0.0262272
-0.026879
-0.0274816
-0.0280306
-0.0285237
-0.0289605
-0.0293419
-0.0296695
-0.0299453
-0.0301712
-0.0303494
-0.0304814
-0.0305686
-0.030612
-0.11907
-0.115057
-0.111159
-0.107375
-0.103703
-0.100143
-0.0966924
-0.0933501
-0.0901142
-0.0869826
-0.0839533
-0.0810241
-0.0781927
-0.0754566
-0.0728136
-0.070261
-0.0677962
-0.0654169
-0.0631203
-0.0609039
-0.0587651
-0.0567013
-0.0547101
-0.0527889
-0.0509353
-0.0491469
-0.0474213
-0.0457562
-0.0441493
-0.0425984
-0.0411014
-0.0396563
-0.0382609
-0.0369135
-0.0356119
-0.0343546
-0.0331396
-0.0319654
-0.0308302
-0.0297325
-0.0286708
-0.0276436
-0.0266496
-0.0256873
-0.0247556
-0.0238531
-0.0229788
-0.0221314
-0.120226
-0.11607
-0.11204
-0.108136
-0.104354
-0.100694
-0.0971522
-0.0937273
-0.0904165
-0.0872174
-0.0841274
-0.0811437
-0.0782636
-0.0754842
-0.0728026
-0.0702161
-0.0677215
-0.0653161
-0.0629969
-0.0607611
-0.0586057
-0.0565281
-0.0545253
-0.0525948
-0.0507337
-0.0489396
-0.0472099
-0.0455422
-0.0439339
-0.0423828
-0.0408867
-0.0394433
-0.0380505
-0.0367064
-0.0354088
-0.0341559
-0.032946
-0.0317771
-0.0306477
-0.0295562
-0.0285008
-0.0274802
-0.026493
-0.0255376
-0.0246129
-0.0237176
-0.0228504
-0.0220102
-0.0211959
-0.121703
-0.117445
-0.113318
-0.109322
-0.105453
-0.101711
-0.098092
-0.0945944
-0.0912154
-0.0879524
-0.0848026
-0.0817631
-0.078831
-0.0760032
-0.0732766
-0.0706483
-0.068115
-0.0656738
-0.0633215
-0.0610552
-0.0588718
-0.0567683
-0.0547419
-0.0527897
-0.050909
-0.0490969
-0.0473508
-0.0456682
-0.0440466
-0.0424834
-0.0409765
-0.0395234
-0.0381221
-0.0367704
-0.0354661
-0.0342075
-0.0329925
-0.0318194
-0.0306865
-0.0295919
-0.0285342
-0.0275117
-0.0265231
-0.0255669
-0.0246416
-0.0237461
-0.0228792
-0.0220395
-0.021226
-0.123594
-0.119232
-0.115006
-0.110914
-0.106954
-0.103124
-0.0994221
-0.0958456
-0.0923919
-0.0890581
-0.0858414
-0.0827387
-0.079747
-0.076863
-0.0740836
-0.0714056
-0.0688257
-0.0663407
-0.0639474
-0.0616427
-0.0594233
-0.0572862
-0.0552284
-0.0532469
-0.0513388
-0.0495012
-0.0477315
-0.0460268
-0.0443847
-0.0428026
-0.041278
-0.0398087
-0.0383923
-0.0370266
-0.0357095
-0.034439
-0.0332131
-0.03203
-0.0308878
-0.0297849
-0.0287195
-0.02769
-0.026695
-0.025733
-0.0248025
-0.0239023
-0.0230311
-0.0221876
-0.0213707
-0.0205793
-0.121329
-0.117012
-0.112832
-0.108785
-0.104872
-0.101088
-0.0974332
-0.0939037
-0.0904971
-0.0872105
-0.0840408
-0.0809849
-0.0780398
-0.075202
-0.0724684
-0.0698356
-0.0673003
-0.0648593
-0.0625092
-0.0602469
-0.0580692
-0.055973
-0.0539551
-0.0520127
-0.0501427
-0.0483423
-0.0466089
-0.0449396
-0.0433319
-0.0417833
-0.0402913
-0.0388536
-0.0374679
-0.036132
-0.0348439
-0.0336016
-0.032403
-0.0312463
-0.0301298
-0.0290516
-0.0280103
-0.0270042
-0.0260318
-0.0250917
-0.0241824
-0.0233028
-0.0224514
-0.0216272
-0.020829
-0.0200556
-0.123891
-0.119485
-0.115216
-0.111082
-0.107082
-0.103214
-0.0994752
-0.0958641
-0.092378
-0.0890141
-0.0857695
-0.0826412
-0.079626
-0.0767208
-0.0739222
-0.071227
-0.0686318
-0.0661333
-0.0637282
-0.0614132
-0.0591851
-0.0570408
-0.0549771
-0.0529908
-0.0510792
-0.0492391
-0.0474679
-0.0457626
-0.0441208
-0.0425397
-0.0410169
-0.0395499
-0.0381364
-0.0367743
-0.0354612
-0.0341951
-0.0329741
-0.0317962
-0.0306596
-0.0295624
-0.0285031
-0.0274799
-0.0264914
-0.025536
-0.0246123
-0.023719
-0.0228547
-0.0220183
-0.0212086
-0.0204243
-0.0196645
-0.122542
-0.118177
-0.113947
-0.109851
-0.105888
-0.102055
-0.0983518
-0.094775
-0.0913223
-0.087991
-0.0847782
-0.0816809
-0.0786959
-0.0758201
-0.0730502
-0.0703828
-0.0678147
-0.0653426
-0.0629631
-0.060673
-0.0584691
-0.0563482
-0.0543071
-0.052343
-0.0504527
-0.0486333
-0.0468821
-0.0451963
-0.0435732
-0.0420103
-0.040505
-0.0390551
-0.0376581
-0.0363119
-0.0350142
-0.033763
-0.0325564
-0.0313924
-0.0302692
-0.0291851
-0.0281383
-0.0271273
-0.0261505
-0.0252065
-0.0242938
-0.0234112
-0.0225572
-0.0217307
-0.0209306
-0.0201557
-0.121838
-0.117496
-0.113288
-0.109213
-0.105271
-0.101458
-0.0977743
-0.0942163
-0.0907818
-0.0874682
-0.0842726
-0.0811919
-0.0782231
-0.0753629
-0.0726081
-0.0699554
-0.0674016
-0.0649432
-0.0625771
-0.0602999
-0.0581085
-0.0559997
-0.0539704
-0.0520175
-0.0501382
-0.0483294
-0.0465884
-0.0449125
-0.043299
-0.0417453
-0.040249
-0.0388077
-0.037419
-0.0360808
-0.0347909
-0.0335472
-0.0323478
-0.0311909
-0.0300744
-0.0289968
-0.0279564
-0.0269515
-0.0259806
-0.0250422
-0.0241351
-0.0232577
-0.0224089
)
;

boundaryField
{
    inlet
    {
        type            zeroGradient;
    }
    outlet
    {
        type            fixedValue;
        value           nonuniform 0();
    }
    cylinder
    {
        type            zeroGradient;
    }
    top
    {
        type            symmetryPlane;
    }
    bottom
    {
        type            symmetryPlane;
    }
    defaultFaces
    {
        type            empty;
    }
    procBoundary2to1
    {
        type            processor;
        value           nonuniform List<scalar> 
34
(
-0.0769729
-0.0752987
-0.0739568
-0.0729491
-0.0722767
-0.0719407
-0.119326
-0.119326
-0.116255
-0.113355
-0.110049
-0.106503
-0.102849
-0.0991859
-0.0956021
-0.0921636
-0.0889198
-0.0859071
-0.083152
-0.0806739
-0.0784865
-0.0784865
-0.123199
-0.123199
-0.12451
-0.12451
-0.126094
-0.126094
-0.128094
-0.125783
-0.125783
-0.128432
-0.127042
-0.126315
)
;
    }
    procBoundary2to3
    {
        type            processor;
        value           nonuniform List<scalar> 
30
(
-0.0210792
-0.0213099
-0.0217813
-0.0224913
-0.0232245
-0.0239577
-0.0246749
-0.0253626
-0.0260102
-0.02661
-0.0271574
-0.0276501
-0.0280873
-0.0284697
-0.0287987
-0.029076
-0.0293035
-0.029483
-0.0296162
-0.0297042
-0.029748
-0.0213099
-0.0204065
-0.0204376
-0.0204376
-0.0198123
-0.0193061
-0.0189281
-0.0194049
-0.0194049
)
;
    }
    procBoundary2to6
    {
        type            processor;
        value           nonuniform List<scalar> 
51
(
-0.121838
-0.117496
-0.113288
-0.109213
-0.105271
-0.101458
-0.0977743
-0.0942163
-0.0907818
-0.0874682
-0.0842726
-0.0811919
-0.0782231
-0.0753629
-0.0726081
-0.0699554
-0.0674016
-0.0649432
-0.0625771
-0.0602999
-0.0581085
-0.0559997
-0.0539704
-0.0520175
-0.0501382
-0.0483294
-0.0465884
-0.0449125
-0.043299
-0.0417453
-0.040249
-0.0388077
-0.037419
-0.0360808
-0.0347909
-0.0335472
-0.0323478
-0.0311909
-0.0300744
-0.0289968
-0.0279564
-0.0269515
-0.0259806
-0.0250422
-0.0241351
-0.0232577
-0.0224089
-0.0215874
-0.020792
-0.0200217
-0.0215874
)
;
    }
}


// ************************************************************************* //
