/*--------------------------------*- C++ -*----------------------------------*\
  =========                 |
  \\      /  F ield         | OpenFOAM: The Open Source CFD Toolbox
   \\    /   O peration     | Website:  https://openfoam.org
    \\  /    A nd           | Version:  7
     \\/     M anipulation  |
\*---------------------------------------------------------------------------*/
FoamFile
{
    version     2.0;
    format      ascii;
    class       surfaceScalarField;
    location    "75";
    object      phi;
}
// * * * * * * * * * * * * * * * * * * * * * * * * * * * * * * * * * * * * * //

dimensions      [0 3 -1 0 0 0 0];

internalField   nonuniform List<scalar> 
27710
(
-7.4842e-05
7.48037e-05
3.82343e-08
-0.000225915
0.00015066
4.12975e-07
-0.000423555
0.000196748
8.91874e-07
-0.000651963
0.000226979
1.42873e-06
-0.000903652
0.000249594
2.09555e-06
-0.00117527
0.000268631
2.98362e-06
-0.00146176
0.000282339
4.15596e-06
-0.00174725
0.000279857
5.62979e-06
-0.00205878
0.0003042
7.33451e-06
0.000238905
9.39105e-06
-0.00230708
-6.9543e-05
0.000144347
-0.000210577
0.000291693
-0.000393965
0.000380137
-0.000603081
0.000436095
-0.000828697
0.00047521
-0.00106539
0.000505324
-0.00131043
0.000527377
-0.00152854
0.000497969
-0.00178173
0.000557389
0.000370291
-0.00191312
-5.98462e-05
0.000204193
-0.000182015
0.000413862
-0.000338122
0.000536243
-0.000509814
0.000607788
-0.000684507
0.000649903
-0.000850177
0.000670993
-0.00101071
0.000687906
-0.0010939
0.000581159
-0.00121797
0.000681459
0.000282834
-0.00113051
-4.74482e-05
0.000251641
-0.000144284
0.000510698
-0.000262552
0.000654511
-0.000381006
0.000726241
-0.000482866
0.000751763
-0.000543476
0.000731603
-0.000566419
0.000710849
-0.000457741
0.000472481
-0.000325004
0.000548722
-7.93112e-05
3.71419e-05
-3.44817e-05
0.000286123
-0.00010252
0.000578736
-0.000175577
0.000727569
-0.000227686
0.00077835
-0.000235318
0.000759395
-0.00016805
0.000664335
2.95911e-05
0.000513208
0.000373255
0.000128817
0.000867262
5.47157e-05
-0.000948922
0.00173687
-2.30302e-05
0.000309153
-6.16959e-05
0.000617402
-8.49979e-05
0.000750871
-6.02781e-05
0.00075363
5.21405e-05
0.000646977
0.000283698
0.000432777
0.000728768
6.81379e-05
0.00143173
-0.000574147
0.00239116
-0.000904713
-0.00247676
0.003919
-1.45587e-05
0.000323712
-2.48956e-05
0.000627738
5.63673e-06
0.000720339
0.000121364
0.000637903
0.000378148
0.000390192
0.000838265
-2.73391e-05
0.00161958
-0.00071318
0.00273151
-0.00168607
0.0042613
-0.00243451
-0.004615
0.00639954
-9.60875e-06
0.000333321
8.19473e-06
0.000609935
0.000100194
0.000628339
0.000330844
0.000407253
0.000784103
-6.30663e-05
0.00155418
-0.000797412
0.00273302
-0.00189203
0.00431563
-0.00326868
0.00639066
-0.00450954
-0.0069857
0.00876137
-6.46238e-06
0.000339783
4.18158e-05
0.000561657
0.000213253
0.000456902
0.000601094
1.94121e-05
0.00132019
-0.00078216
0.00247914
-0.00195637
0.00405864
-0.00347152
0.00602176
-0.00523181
0.00837963
-0.00686741
-0.00910508
0.010499
-2.03698e-06
0.00034182
8.68924e-05
0.000472727
0.000369153
0.000174642
0.000976637
-0.000588072
0.00202859
-0.00183411
0.00356163
-0.00348941
0.00543202
-0.00534191
0.00747884
-0.00727863
0.00958798
-0.00897655
-0.0107478
0.0112307
6.12923e-06
0.000335691
0.00015563
0.000323226
0.00059575
-0.000265478
0.0014844
-0.00147672
0.00287411
-0.00322382
0.00463263
-0.00524793
0.00652569
-0.00723497
0.00831853
-0.00907147
0.00985349
-0.0105115
-0.011889
0.0109947
2.16294e-05
0.000314061
0.000260529
8.43263e-05
0.000912036
-0.000916985
0.00209914
-0.00266382
0.00370657
-0.00483126
0.00544681
-0.00698817
0.00707575
-0.00886391
0.00841433
-0.01041
0.00953925
-0.0116364
-0.0128604
0.0105106
4.77001e-05
0.000266361
0.000411316
-0.00027929
0.00130989
-0.00181555
0.00272053
-0.00407447
0.00433364
-0.00644437
0.00583625
-0.00849078
0.00707999
-0.0101077
0.00806767
-0.0113977
0.00892264
-0.0124914
-0.0135961
0.0096584
8.66282e-05
0.000179733
0.000610837
-0.000803499
0.00173726
-0.00294198
0.00321164
-0.00554884
0.00464169
-0.00787442
0.00582047
-0.00966956
0.00674216
-0.0110293
0.007485
-0.0121406
0.00815192
-0.0131583
-0.0142425
0.00879829
0.000141177
3.85561e-05
0.000845746
-0.00150807
0.00210961
-0.00420584
0.0034831
-0.00692233
0.00464476
-0.00903608
0.00553063
-0.0105554
0.00621135
-0.0117101
0.00678234
-0.0127115
0.00733266
-0.0137086
-0.0147784
0.00786857
0.000213721
-0.000175165
0.00108249
-0.00237684
0.00235455
-0.0054779
0.00352943
-0.00809721
0.00442413
-0.00993078
0.00507354
-0.0112048
0.00557834
-0.0122149
0.00602612
-0.0131593
0.0064669
-0.0141494
-0.0152189
0.00690741
0.000301622
-0.000476787
0.00128021
-0.00335542
0.00244886
-0.00664656
0.0033944
-0.00904275
0.00405584
-0.0105922
0.00452207
-0.0116711
0.00489426
-0.0125871
0.00523724
-0.0135023
0.00558229
-0.0144945
-0.0155663
0.00592962
0.000393064
-0.000869851
0.00140569
-0.00436805
0.00240738
-0.00764825
0.00312939
-0.00976475
0.00359744
-0.0110603
0.0039203
-0.0119939
0.00418409
-0.0128509
0.00443364
-0.0137518
0.00468272
-0.0147436
-0.0158138
0.00493024
0.000472737
-0.00134259
0.00144191
-0.00533722
0.00225715
-0.00846349
0.00277836
-0.010286
0.00308791
-0.0113698
0.00329405
-0.0122001
0.00346284
-0.0130196
0.00362146
-0.0139105
0.00377578
-0.0148979
-0.0159641
0.00392608
0.000528357
-0.00187094
0.00139364
-0.0062025
0.00202629
-0.00909614
0.00237471
-0.0106344
0.00255308
-0.0115482
0.00265884
-0.0123058
0.00273831
-0.0130991
0.00280715
-0.0139793
0.00286778
-0.0149585
-0.0160175
0.00292119
0.000552501
-0.00242345
0.00128374
-0.00693374
0.0017413
-0.0095537
0.00194195
-0.0108351
0.00200908
-0.0116153
0.00202403
-0.0123208
0.0020169
-0.013092
0.00199533
-0.0139577
0.00195998
-0.0149232
-0.015976
0.00191856
0.000542569
-0.00296602
0.00112711
-0.00751828
0.00142316
-0.00984975
0.00149603
-0.0109079
0.00146601
-0.0115853
0.00139584
-0.0122506
0.00130361
-0.0129997
0.00119178
-0.0138459
0.00105743
-0.0147888
-0.0158316
0.000913012
0.000501334
-0.00346735
0.000937702
-0.00795465
0.0010877
-0.00999974
0.00104892
-0.0108691
0.000930758
-0.0114671
0.000778344
-0.0120982
0.000601891
-0.0128233
0.000400621
-0.0136446
0.000178291
-0.0145665
-0.0155599
-9.33926e-05
0.000435654
-0.003903
0.000727901
-0.00824689
0.00074713
-0.010019
0.000608583
-0.0107306
0.000407307
-0.0112658
0.000173217
-0.0118641
-8.71164e-05
-0.0125629
-0.000369628
-0.0133621
-0.000687894
-0.0142482
-0.0152088
-0.00103905
0.000353559
-0.00425656
0.000507967
-0.0084013
0.000409663
-0.00992067
0.000178312
-0.0104993
-0.000101434
-0.0109861
-0.000407069
-0.0115585
-0.000743412
-0.0122266
-0.00111475
-0.0129908
-0.00152406
-0.0138389
-0.0147705
-0.00196236
0.000262123
-0.00451869
0.000287037
-0.00842621
7.81004e-05
-0.00971173
-0.00023134
-0.0101898
-0.00058104
-0.0106364
-0.000964024
-0.0111755
-0.00137935
-0.0118113
-0.00183371
-0.0125364
-0.00232567
-0.013347
-0.014245
-0.00285111
0.000166866
-0.00468555
7.56095e-05
-0.00833496
-0.00023301
-0.00940311
-0.000619478
-0.00980334
-0.00104197
-0.0102139
-0.00149747
-0.01072
-0.00198841
-0.0113203
-0.00252044
-0.0120044
-0.00309242
-0.012775
-0.0136364
-0.00370105
7.32918e-05
-0.00475884
-0.000139267
-0.0081224
-0.000528817
-0.00901356
-0.000988272
-0.00934389
-0.00147994
-0.00972223
-0.00200507
-0.0101949
-0.00256769
-0.0107577
-0.00317215
-0.0113999
-0.00382008
-0.0121271
-0.0129519
-0.00450464
-1.28186e-05
-0.00474603
-0.000341312
-0.0077939
-0.000809373
-0.0085455
-0.00133495
-0.00881831
-0.00189243
-0.00916475
-0.00248492
-0.0096024
-0.0031167
-0.0101259
-0.00378929
-0.0107274
-0.00449791
-0.0114184
-0.0121991
-0.00525068
-0.000118932
-0.00462709
-0.000528344
-0.00738449
-0.00107022
-0.00800363
-0.00165786
-0.00823067
-0.00227748
-0.00854513
-0.00293419
-0.00894569
-0.00363277
-0.00942734
-0.00437603
-0.0099841
-0.00516786
-0.0106266
-0.0114259
-0.00594103
-0.000209125
-0.00441797
-0.00070119
-0.00689243
-0.00130922
-0.0073956
-0.00195528
-0.00758461
-0.00263305
-0.00786736
-0.00334929
-0.00822945
-0.00410921
-0.00866741
-0.0049156
-0.00917771
-0.00576941
-0.00977281
-0.0104267
-0.00676864
-0.000289988
-0.00412798
-0.000858579
-0.00632384
-0.00152611
-0.00672807
-0.00222604
-0.00688468
-0.00295771
-0.00713568
-0.00372811
-0.00745904
-0.0045409
-0.00785463
-0.00539999
-0.00831862
-0.00632501
-0.00884779
-0.00939911
-0.00735257
-0.00036201
-0.00376597
-0.00099933
-0.00568652
-0.00172006
-0.00600734
-0.00246893
-0.00613581
-0.00324978
-0.00635483
-0.00407054
-0.00663829
-0.00493771
-0.00698746
-0.00586031
-0.00739602
-0.00685307
-0.00785503
-0.00834259
-0.00790959
-0.000424883
-0.00334109
-0.00112273
-0.00498867
-0.00189049
-0.00523959
-0.00268294
-0.00534336
-0.00350701
-0.00553076
-0.00437059
-0.00577471
-0.00528159
-0.00607646
-0.00625102
-0.00642659
-0.00729053
-0.00681551
-0.00723795
-0.00839518
-0.000477624
-0.00286346
-0.00122809
-0.0042382
-0.00203697
-0.0044307
-0.0028678
-0.00451254
-0.00373038
-0.00466817
-0.00463333
-0.00487176
-0.00558551
-0.00512428
-0.00659652
-0.00541558
-0.00767365
-0.00573839
-0.00609436
-0.00881724
-0.000518725
-0.00234474
-0.00131506
-0.00344186
-0.00215915
-0.00358661
-0.0030222
-0.00364949
-0.00391662
-0.00377375
-0.00485159
-0.0039368
-0.00583675
-0.00413912
-0.00688105
-0.00437128
-0.007991
-0.00462844
-0.00491544
-0.00916991
-0.000554043
-0.0017907
-0.00138494
-0.00261096
-0.00225726
-0.0027143
-0.00314658
-0.00276017
-0.00406711
-0.00285322
-0.00502836
-0.00297555
-0.0060401
-0.00312738
-0.00711046
-0.00330092
-0.00824586
-0.00349304
-0.00370914
-0.00945216
-0.000581462
-0.00120923
-0.00143771
-0.00175472
-0.00233093
-0.00182107
-0.00323999
-0.00185112
-0.00418011
-0.00191309
-0.00516102
-0.00199464
-0.00619258
-0.00209582
-0.00728237
-0.00221112
-0.00843665
-0.00233876
-0.00248295
-0.00966284
-0.000599961
-0.000609273
-0.00147309
-0.00088159
-0.00238017
-0.00091399
-0.00330243
-0.00092886
-0.0042557
-0.000959829
-0.00524975
-0.00100059
-0.00629442
-0.00105115
-0.00739686
-0.00110868
-0.00856332
-0.0011723
-0.0012443
-0.00980197
-0.000609255
-1.78464e-08
-0.00149084
-1.0422e-08
-0.00240482
-2.71054e-09
-0.00333369
3.99139e-09
-0.00429353
1.14989e-08
-0.00529413
1.90971e-08
-0.00634531
2.67271e-08
-0.00745401
3.4133e-08
-0.00862636
4.14433e-08
4.82763e-08
-0.00987071
-0.000609254
0.000609236
-0.00149083
0.000881569
-0.00240482
0.000913984
-0.00333368
0.000928867
-0.00429352
0.000959851
-0.00529413
0.00100063
-0.0063453
0.0010512
-0.00745401
0.00110874
-0.00862636
0.00117239
0.0012444
-0.0098707
-0.000599958
0.00120919
-0.00147308
0.00175469
-0.00238016
0.00182106
-0.00330242
0.00185112
-0.00425568
0.00191312
-0.00524973
0.00199468
-0.0062944
0.00209587
-0.00739685
0.00221119
-0.00856331
0.00233884
0.00248305
-0.00980196
-0.000581457
0.00179065
-0.0014377
0.00261093
-0.00233092
0.00271429
-0.00323997
0.00276017
-0.00418009
0.00285324
-0.005161
0.00297558
-0.00619256
0.00312743
-0.00728235
0.00330098
-0.00843663
0.00349312
0.00370924
-0.00966282
-0.000554035
0.00234469
-0.00138493
0.00344183
-0.00225724
0.0035866
-0.00314655
0.00364949
-0.00406708
0.00377376
-0.00502833
0.00393683
-0.00604007
0.00413917
-0.00711043
0.00437134
-0.00824583
0.00462852
0.00491554
-0.00945213
-0.000518715
0.0028634
-0.00131504
0.00423815
-0.00215912
0.00443068
-0.00302217
0.00451254
-0.00391659
0.00466818
-0.00485155
0.00487179
-0.00583671
0.00512432
-0.006881
0.00541564
-0.00799095
0.00573847
0.00609445
-0.00916987
-0.000477612
0.00334101
-0.00122807
0.00498861
-0.00203694
0.00523955
-0.00286776
0.00534335
-0.00373034
0.00553076
-0.00463328
0.00577474
-0.00558546
0.0060765
-0.00659647
0.00642665
-0.00767359
0.00681559
0.00723805
-0.00881718
-0.000424868
0.00376588
-0.0011227
0.00568644
-0.00189045
0.0060073
-0.00268289
0.00613579
-0.00350696
0.00635483
-0.00437053
0.00663831
-0.00528152
0.0069875
-0.00625095
0.00739608
-0.00729047
0.00785511
0.00834269
-0.00839512
-0.000361992
0.00412787
-0.000999295
0.00632375
-0.00172001
0.00672801
-0.00246887
0.00688465
-0.00324971
0.00713567
-0.00407047
0.00745906
-0.00493764
0.00785467
-0.00586023
0.00831868
-0.006853
0.00884787
0.00939921
-0.00790952
-0.000289968
0.00441784
-0.000858537
0.00689232
-0.00152605
0.00739553
-0.00222597
0.00758457
-0.00295763
0.00786734
-0.00372803
0.00822946
-0.00454081
0.00866745
-0.0053999
0.00917777
-0.00632492
0.00977289
0.0104268
-0.00735248
-0.000209101
0.00462694
-0.000701142
0.00738436
-0.00130915
0.00800354
-0.0019552
0.00823061
-0.00263296
0.0085451
-0.00334919
0.00894569
-0.00410911
0.00942737
-0.00491549
0.00998415
-0.0057693
0.0106267
0.011426
-0.00676853
-0.000118904
0.00474585
-0.000528288
0.00779374
-0.00107014
0.0085454
-0.00165777
0.00881824
-0.00227738
0.00916471
-0.00293408
0.00960239
-0.00363266
0.0101259
-0.00437591
0.0107274
-0.00516774
0.0114185
0.0121992
-0.00594092
-1.27786e-05
0.00475862
-0.000341248
0.00812221
-0.000809285
0.00901343
-0.00133484
0.0093438
-0.00189232
0.00972218
-0.00248479
0.0101949
-0.00311657
0.0107577
-0.00378916
0.0114
-0.00449777
0.0121271
0.012952
-0.00525055
7.332e-05
0.0046853
-0.000139193
0.00833472
-0.000528718
0.00940296
-0.000988153
0.00980324
-0.00147981
0.0102138
-0.00200493
0.01072
-0.00256754
0.0113203
-0.003172
0.0120045
-0.00381993
0.0127751
0.0136365
-0.0045045
0.0001669
0.00451841
7.56839e-05
0.00842594
-0.000232901
0.00971154
-0.000619343
0.0101897
-0.00104182
0.0106363
-0.00149731
0.0111755
-0.00198824
0.0118113
-0.00252026
0.0125365
-0.00309225
0.0133471
0.0142452
-0.00370088
0.000262159
0.00425625
0.000287123
0.00840097
7.82296e-05
0.00992044
-0.000231189
0.0104991
-0.000580867
0.010986
-0.000963837
0.0115584
-0.00137916
0.0122266
-0.00183351
0.0129908
-0.00232547
0.013839
0.0147706
-0.00285092
0.000353595
0.00390265
0.00050806
0.00824651
0.000409802
0.0100187
0.000178487
0.0107304
-0.000101241
0.0112657
-0.000406858
0.011864
-0.000743188
0.0125629
-0.00111452
0.0133622
-0.00152384
0.0142483
0.0152089
-0.00196215
0.000435688
0.00346696
0.000727999
0.0079542
0.000747284
0.00999941
0.000608776
0.0108689
0.000407531
0.011467
0.000173462
0.0120981
-8.68652e-05
0.0128232
-0.00036937
0.0136447
-0.000687638
0.0145666
0.0155601
-0.00103881
0.000501361
0.0029656
0.000937801
0.00751776
0.00108786
0.00984935
0.00104913
0.0109077
0.000931008
0.0115851
0.00077862
0.0122505
0.000602186
0.0129997
0.000400922
0.0138459
0.00017858
0.0147889
0.0158318
-9.31265e-05
0.000542585
0.00242302
0.00112721
0.00693314
0.00142333
0.00955322
0.00149627
0.0108347
0.00146629
0.0116151
0.00139616
0.0123206
0.00130394
0.0130919
0.00119213
0.0139578
0.00105778
0.0149233
0.0159762
0.000913342
0.000552501
0.00187052
0.00128382
0.00620182
0.00174147
0.00909557
0.00194221
0.010634
0.00200939
0.0115479
0.00202438
0.0123056
0.00201728
0.013099
0.00199573
0.0139793
0.00196039
0.0149586
0.0160177
0.00191894
0.00052834
0.00134218
0.0013937
0.00533646
0.00202646
0.00846281
0.00237498
0.0102855
0.00255343
0.0113694
0.00265924
0.0121998
0.00273875
0.0130195
0.00280762
0.0139104
0.00286826
0.014898
0.0159643
0.00292164
0.000472703
0.000869472
0.00144193
0.00436723
0.00225729
0.00764745
0.00277863
0.00976412
0.00308828
0.0110598
0.0032945
0.0119936
0.00346335
0.0128506
0.00362201
0.0137518
0.00377636
0.0147436
0.015814
0.00392663
0.000393017
0.000476456
0.00140566
0.00335459
0.00240748
0.00664563
0.00312964
0.00904196
0.00359782
0.0105916
0.00392079
0.0116706
0.00418467
0.0125868
0.00443429
0.0135022
0.0046834
0.0144945
0.0155665
0.00493091
0.000301569
0.000174887
0.00128012
0.00237604
0.00244889
0.00547686
0.00339461
0.00809624
0.00405622
0.00993
0.00452261
0.0112042
0.00489493
0.0122144
0.005238
0.0131591
0.00558311
0.0141494
0.0152192
0.00593045
0.000213669
-3.87826e-05
0.00108236
0.00150735
0.00235448
0.00420474
0.00352954
0.00692118
0.00442447
0.00903507
0.0050741
0.0105546
0.00557909
0.0117095
0.00602701
0.0127112
0.00646789
0.0137085
0.0147786
0.00690843
0.000141126
-0.000179909
0.000845575
0.000802903
0.00210941
0.00294091
0.00348306
0.00554753
0.004645
0.00787312
0.00553117
0.00966844
0.00621217
0.0110285
0.00678338
0.01214
0.00733386
0.0131581
0.0142427
0.00786983
8.65731e-05
-0.000266482
0.000610639
0.000278837
0.00173694
0.0018146
0.00321139
0.00407308
0.00464173
0.00644278
0.00582092
0.00848925
0.00674301
0.0101064
0.0074862
0.0113968
0.00815337
0.0124909
0.0135962
0.00879984
4.76298e-05
-0.000314112
0.000411089
-8.46221e-05
0.00130947
0.000916222
0.00272006
0.00266249
0.00433339
0.00482946
0.00583645
0.00698618
0.00708078
0.00886204
0.00806899
0.0104086
0.00892437
0.0116355
0.0128602
0.00966035
2.15382e-05
-0.00033565
0.000260264
-0.000323348
0.000911551
0.000264935
0.00209848
0.00147556
0.00370596
0.00322198
0.00544659
0.00524555
0.00707626
0.00723237
0.00841566
0.00906916
0.00954132
0.0105098
0.0118885
0.010513
6.02542e-06
-0.000341676
0.000155337
-0.000472659
0.000595233
-0.000174961
0.00148363
0.000587158
0.00287321
0.00183241
0.00463189
0.00348686
0.00652563
0.00533863
0.00831946
0.00727533
0.00985589
0.00897342
0.0107465
0.0109979
-2.17027e-06
-0.000339505
8.661e-05
-0.00056144
0.000368679
-0.00045703
0.000975917
-2.00809e-05
0.00202762
0.000780709
0.00356057
0.00195392
0.00543136
0.00346784
0.0074789
0.00522779
0.00959004
0.00686227
0.00910222
0.0112344
-6.55731e-06
-0.000332948
4.16129e-05
-0.00060961
0.000212932
-0.000628348
0.00060061
-0.000407759
0.00131947
6.18535e-05
0.00247817
0.000795206
0.00405776
0.00188826
0.00602112
0.00326443
0.00838073
0.00450266
0.00698087
0.0105021
-9.65518e-06
-0.000323293
8.12916e-06
-0.000627394
0.000100137
-0.000720356
0.000330782
-0.000638404
0.000783968
-0.000391332
0.00155386
2.53119e-05
0.0027327
0.000709421
0.00431527
0.00168186
0.00639116
0.00242677
0.00460826
0.00876377
-1.45506e-05
-0.000308742
-2.4801e-05
-0.000617144
5.89139e-06
-0.000751048
0.000121816
-0.000754329
0.000378795
-0.000648311
0.000839047
-0.00043494
0.00162054
-7.20733e-05
0.00273271
0.000569687
0.00426293
0.000896555
0.00246847
0.00640272
-2.29683e-05
-0.000285774
-6.14547e-05
-0.000578657
-8.44706e-05
-0.000728033
-5.93778e-05
-0.000779422
5.3482e-05
-0.000761171
0.000285673
-0.000667131
0.00073126
-0.000517661
0.00143512
-0.000134169
0.00239519
-6.35152e-05
0.000939315
0.00392434
-3.43808e-05
-0.000251393
-0.000102181
-0.000510858
-0.000174878
-0.000655336
-0.000226499
-0.0007278
-0.000233476
-0.000754194
-0.000165435
-0.000735172
3.29122e-05
-0.000716008
0.000378591
-0.000479848
0.000873481
-0.000558405
6.77698e-05
0.00174503
-4.73315e-05
-0.000204062
-0.000143916
-0.000414273
-0.000261816
-0.000537436
-0.00037977
-0.000609847
-0.000480957
-0.000653006
-0.000540662
-0.000675467
-0.000562389
-0.000694281
-0.000452332
-0.000589906
-0.000317917
-0.00069282
-0.000298173
4.80267e-05
-5.97394e-05
-0.000144322
-0.000181691
-0.000292321
-0.000337486
-0.000381641
-0.000508756
-0.000438576
-0.000682876
-0.000478887
-0.000847755
-0.000510588
-0.00100727
-0.000534767
-0.00108914
-0.000508034
-0.00121148
-0.000570481
-0.000387531
-0.00112212
-6.94687e-05
-7.48537e-05
-0.000210356
-0.000151434
-0.000393537
-0.00019846
-0.000602374
-0.000229739
-0.000827609
-0.000253652
-0.00106378
-0.000274417
-0.00130814
-0.00029041
-0.00152536
-0.000290809
-0.00177739
-0.000318451
-0.000257296
-0.00190763
-7.48154e-05
-0.000225837
-0.000423404
-0.000651715
-0.000903271
-0.0011747
-0.00146096
-0.00174614
-0.00205725
-0.00230516
-0.00234874
3.66236e-05
5.0407e-06
-0.00238709
3.31743e-05
5.17688e-06
-0.00242094
2.86249e-05
5.22052e-06
-0.00245064
2.45292e-05
5.16876e-06
-0.00247669
2.10598e-05
4.99331e-06
-0.00249953
1.81476e-05
4.6874e-06
-0.0025195
1.57376e-05
4.23941e-06
-0.00253691
1.37705e-05
3.64057e-06
-0.00255198
1.21843e-05
2.88673e-06
-0.00256489
1.09224e-05
1.97843e-06
-0.00257574
9.93365e-06
9.18759e-07
-0.00258465
9.17038e-06
-2.6251e-07
-0.00259166
8.58608e-06
-1.56913e-06
-0.00259683
8.13677e-06
-2.97166e-06
-0.0026002
7.78454e-06
-4.40986e-06
-0.00260188
7.5147e-06
-5.83349e-06
-0.00260193
7.34066e-06
-7.29131e-06
-0.00260039
7.24489e-06
-8.7884e-06
-0.00259727
7.18945e-06
-1.03105e-05
-0.00259258
7.15405e-06
-1.18433e-05
-0.00258632
7.10159e-06
-1.33612e-05
-0.00257849
7.00522e-06
-1.48338e-05
-0.00256909
6.83435e-06
-1.62316e-05
-0.00255814
6.5653e-06
-1.75239e-05
-0.0025456
6.15745e-06
-1.86915e-05
-0.00253147
5.58303e-06
-1.97104e-05
-0.00251573
4.81372e-06
-2.05546e-05
-0.00249835
3.81917e-06
-2.11995e-05
-0.00247929
2.56148e-06
-2.16209e-05
-0.00245846
9.62169e-07
-2.18004e-05
-0.00243593
-7.76963e-07
-2.1747e-05
-0.00241183
-2.63129e-06
-2.14698e-05
-0.00238606
-4.84403e-06
-2.09293e-05
-0.00235857
-7.38109e-06
-2.01094e-05
-0.00232933
-1.02306e-05
-1.90038e-05
-0.00229834
-1.33842e-05
-1.76118e-05
-0.00226557
-1.68331e-05
-1.59373e-05
-0.00223101
-2.0566e-05
-1.39884e-05
-0.00219467
-2.45684e-05
-1.17761e-05
-0.00215653
-2.88225e-05
-9.31481e-06
-0.0021166
-3.3307e-05
-6.62132e-06
-0.00207489
-3.79979e-05
-3.70968e-06
-0.00203143
-4.28669e-05
-5.94977e-07
-0.00198616
-4.78711e-05
2.60006e-06
-0.00193913
-5.2984e-05
5.95514e-06
-0.00189036
-5.81678e-05
9.3989e-06
-0.00183987
-6.33821e-05
1.28928e-05
-0.00178769
-6.85852e-05
1.63988e-05
-0.00173383
-7.37349e-05
1.98779e-05
-0.00167833
-7.8789e-05
2.32916e-05
-0.00162123
-8.37056e-05
2.66016e-05
-0.00156256
-8.8444e-05
2.97713e-05
-0.00150234
-9.29789e-05
3.27676e-05
-0.00144061
-9.72887e-05
3.55554e-05
-0.00137745
-0.000101239
3.80794e-05
-0.00131292
-0.000104857
4.03239e-05
-0.00124706
-0.000108119
4.22589e-05
-0.00117992
-0.000110994
4.38574e-05
-0.00111156
-0.000113457
4.50966e-05
-0.00104203
-0.000115487
4.59576e-05
-0.000971392
-0.000117066
4.64255e-05
-0.0008997
-0.000118182
4.64894e-05
-0.000827014
-0.000118828
4.61424e-05
-0.000753395
-0.000119001
4.53822e-05
-0.000678903
-0.000118703
4.42109e-05
-0.000603598
-0.000117938
4.26336e-05
-0.000527531
-0.000116716
4.06495e-05
-0.000450775
-0.000115045
3.82891e-05
-0.00037339
-0.000112966
3.55814e-05
-0.000295441
-0.000110497
3.25476e-05
-0.000216986
-0.000107657
2.9202e-05
-0.000138085
-0.000104475
2.55743e-05
-5.87983e-05
-0.000100983
2.16965e-05
2.08241e-05
-9.72167e-05
1.75943e-05
0.000100735
-9.32179e-05
1.3307e-05
0.000180867
-8.90143e-05
8.88215e-06
0.000261184
-8.46507e-05
4.3339e-06
0.000341611
-8.0174e-05
-2.53491e-07
0.000422057
-7.56295e-05
-4.81651e-06
0.000502512
-7.10448e-05
-9.40931e-06
0.000582927
-6.64613e-05
-1.39539e-05
0.000663255
-6.19192e-05
-1.84094e-05
0.000743451
-5.74571e-05
-2.27389e-05
0.000823471
-5.31117e-05
-2.69076e-05
0.000903272
-4.89181e-05
-3.08828e-05
0.000982814
-4.49089e-05
-3.46338e-05
0.00106206
-4.11145e-05
-3.81324e-05
0.00114098
-3.75629e-05
-4.13529e-05
0.00121953
-3.42791e-05
-4.4272e-05
0.00129768
-3.12856e-05
-4.68697e-05
0.00137541
-2.86017e-05
-4.91285e-05
0.00145269
-2.62438e-05
-5.10341e-05
0.00152949
-2.42253e-05
-5.25753e-05
0.00160579
-2.25564e-05
-5.37436e-05
0.00168157
-2.12445e-05
-5.45339e-05
0.00175681
-2.02939e-05
-5.49436e-05
0.00183149
-1.97058e-05
-5.49733e-05
0.00190559
-1.94791e-05
-5.46262e-05
0.00197911
-1.96097e-05
-5.3908e-05
0.00205203
-2.00911e-05
-5.2827e-05
0.00212434
-2.09145e-05
-5.13939e-05
0.00219603
-2.20686e-05
-4.96216e-05
0.00226709
-2.35406e-05
-4.7525e-05
0.00233753
-2.53156e-05
-4.51207e-05
0.00240733
-2.73772e-05
-4.2427e-05
0.0024765
-2.97078e-05
-3.94633e-05
0.00254504
-3.2289e-05
-3.62503e-05
0.00261295
-3.51014e-05
-3.28093e-05
0.00268024
-3.81257e-05
-2.91622e-05
0.00274692
-4.13425e-05
-2.53308e-05
0.00281298
-4.47328e-05
-2.13368e-05
0.00287846
-4.82794e-05
-1.72007e-05
0.00294337
-5.19654e-05
-1.29421e-05
0.00300773
-5.57794e-05
-8.57456e-06
0.00307154
-5.97052e-05
-4.1085e-06
0.00313488
-6.37478e-05
4.10203e-07
0.00319778
-6.78724e-05
4.97305e-06
0.00326033
-7.21967e-05
9.64711e-06
0.00332246
-7.65027e-05
1.4374e-05
-8.12353e-05
1.96779e-05
-0.00194788
7.1385e-05
-0.00198062
6.59141e-05
-0.00200995
5.7963e-05
-0.00203563
5.02086e-05
-0.00205808
4.35088e-05
-0.00207764
3.77017e-05
-0.00209458
3.26777e-05
-0.00210914
2.83321e-05
-0.0021215
2.45445e-05
-0.00213179
2.12099e-05
-0.0021401
1.82424e-05
-0.00214649
1.55666e-05
-0.00215102
1.31145e-05
-0.00215371
1.08273e-05
-0.0021546
8.67514e-06
-0.00215378
6.69256e-06
-0.00215129
4.84752e-06
-0.00214709
3.05347e-06
-0.00214114
1.23401e-06
-0.00213344
-5.494e-07
-0.00212432
-2.00953e-06
-0.0021137
-3.62028e-06
-0.00210149
-5.37509e-06
-0.00208772
-7.20033e-06
-0.00207238
-9.18676e-06
-0.00205544
-1.13536e-05
-0.00203691
-1.37238e-05
-0.00201677
-1.63207e-05
-0.00199504
-1.91667e-05
-0.00197179
-2.22817e-05
-0.00194689
-2.56798e-05
-0.00192018
-2.93427e-05
-0.00189173
-3.3294e-05
-0.00186156
-3.75453e-05
-0.00182969
-4.21005e-05
-0.00179612
-4.69572e-05
-0.00176085
-5.21079e-05
-0.00172387
-5.75406e-05
-0.0016852
-6.32387e-05
-0.00164484
-6.91815e-05
-0.00160281
-7.53442e-05
-0.00155911
-8.16979e-05
-0.00151376
-8.82093e-05
-0.00146679
-9.48418e-05
-0.00141822
-0.000101558
-0.00136807
-0.000108318
-0.00131637
-0.000115077
-0.00126317
-0.000121791
-0.00120849
-0.000128415
-0.00115237
-0.000134904
-0.00109487
-0.000141212
-0.00103602
-0.000147294
-0.00097589
-0.000153105
-0.00091436
-0.000158819
-0.000851682
-0.000163917
-0.000787872
-0.000168666
-0.000722967
-0.000173023
-0.000657016
-0.000176945
-0.000590069
-0.000180404
-0.000522177
-0.000183379
-0.00045339
-0.000185852
-0.00038376
-0.000187812
-0.000313337
-0.000189251
-0.000242172
-0.000190166
-0.000170314
-0.000190561
-9.78106e-05
-0.000190441
-2.4708e-05
-0.000189819
4.89658e-05
-0.000188719
0.000123155
-0.000187156
0.000197808
-0.00018515
0.000272882
-0.000182731
0.000348336
-0.000179929
0.000424131
-0.000176779
0.000500229
-0.000173314
0.000576587
-0.000169575
0.000653171
-0.000165599
0.000729946
-0.000161426
0.000806871
-0.000157099
0.000883902
-0.000152661
0.000961007
-0.000148149
0.00103815
-0.000143605
0.0011153
-0.000139067
0.00119241
-0.000134574
0.00126947
-0.000130163
0.00134642
-0.00012587
0.00142324
-0.000121727
0.00149989
-0.000117766
0.00157634
-0.000114015
0.00165256
-0.000110499
0.00172852
-0.000107242
0.00180418
-0.000104262
0.00187951
-0.000101578
0.00195449
-9.92038e-05
0.00202908
-9.71496e-05
0.00210326
-9.54238e-05
0.002177
-9.40315e-05
0.00225027
-9.29751e-05
0.00232304
-9.22541e-05
0.0023953
-9.18657e-05
0.00246701
-9.18044e-05
0.00253816
-9.20626e-05
0.00260872
-9.26304e-05
0.00267868
-9.34965e-05
0.00274801
-9.46474e-05
0.0028167
-9.60687e-05
0.00288474
-9.77446e-05
0.00295211
-9.96587e-05
0.0030188
-0.000101794
0.00308481
-0.000104133
0.00315012
-0.000106659
0.00321475
-0.000109356
0.00327868
-0.00011221
0.00334192
-0.000115203
0.00340447
-0.000118332
0.00346634
-0.000121575
0.00352755
-0.000124959
0.00358809
-0.000128413
0.00364799
-0.000132099
0.00370722
-0.000135725
-0.000139766
-0.00115717
9.80408e-05
-0.00117825
8.6995e-05
-0.00119999
7.97089e-05
-0.00121933
6.95493e-05
-0.00123651
6.0686e-05
-0.00125147
5.26619e-05
-0.00126426
4.54696e-05
-0.00127499
3.9057e-05
-0.00128372
3.32813e-05
-0.00129053
2.80128e-05
-0.00129544
2.31545e-05
-0.00129849
1.86188e-05
-0.00129969
1.43133e-05
-0.00129901
1.01492e-05
-0.00129642
6.08515e-06
-0.00129182
2.09211e-06
-0.00128541
-1.56369e-06
-0.00127761
-4.74253e-06
-0.0012684
-7.98143e-06
-0.00125771
-1.12378e-05
-0.00124519
-1.45289e-05
-0.00123093
-1.78815e-05
-0.00121495
-2.13507e-05
-0.00119734
-2.48119e-05
-0.00117809
-2.84433e-05
-0.00115719
-3.22516e-05
-0.00113465
-3.62632e-05
-0.00111047
-4.05031e-05
-0.00108464
-4.49904e-05
-0.00105719
-4.97378e-05
-0.00102812
-5.47507e-05
-0.000997415
-6.00427e-05
-0.000965082
-6.56274e-05
-0.000931117
-7.15102e-05
-0.000895527
-7.76905e-05
-0.000858322
-8.41626e-05
-0.000819513
-9.09164e-05
-0.000779117
-9.79367e-05
-0.000737152
-0.000105204
-0.000693638
-0.000112695
-0.000648601
-0.000120381
-0.000602068
-0.000128231
-0.00055407
-0.000136207
-0.00050464
-0.000144273
-0.000453813
-0.000152385
-0.000401629
-0.000160501
-0.00034813
-0.000168576
-0.00029336
-0.000176562
-0.000237362
-0.000184413
-0.000180183
-0.000192083
-0.00012187
-0.000199525
-6.2455e-05
-0.000206709
-1.94427e-06
-0.000213615
5.91293e-05
-0.000219892
0.000121194
-0.000225982
0.000184163
-0.000231635
0.000247957
-0.000236818
0.000312517
-0.000241505
0.000377786
-0.000245673
0.000443709
-0.000249303
0.000510237
-0.00025238
0.000577322
-0.000254897
0.000644919
-0.000256848
0.000712986
-0.000258233
0.000781484
-0.000259059
0.000850377
-0.000259335
0.000919633
-0.000259075
0.000989215
-0.000258301
0.00105909
-0.000257033
0.00112924
-0.000255297
0.00119963
-0.000253122
0.00127024
-0.00025054
0.00134105
-0.000247586
0.00141203
-0.000244297
0.00148317
-0.000240711
0.00155444
-0.000236867
0.00162582
-0.000232807
0.00169729
-0.000228573
0.00176884
-0.000224205
0.00184043
-0.000219744
0.00191205
-0.000215229
0.00198369
-0.000210699
0.00205531
-0.000206193
0.00212689
-0.000201747
0.00219842
-0.000197394
0.00226986
-0.000193168
0.00234119
-0.000189098
0.00241238
-0.000185211
0.00248342
-0.000181533
0.00255426
-0.000178085
0.00262488
-0.000174886
0.00269526
-0.000171954
0.00276536
-0.0001693
0.00283514
-0.000166937
0.00290459
-0.000164872
0.00297367
-0.000163109
0.00304235
-0.000161651
0.00311059
-0.000160498
0.00317837
-0.000159647
0.00324566
-0.000159092
0.00331242
-0.000158829
0.00337864
-0.000158846
0.00344428
-0.000159134
0.00350931
-0.000159681
0.00357372
-0.000160474
0.00363747
-0.000161499
0.00370055
-0.000162741
0.00376294
-0.000164185
0.00382463
-0.000165816
0.00388559
-0.000167621
0.00394581
-0.000169583
0.0040053
-0.000171692
0.00406403
-0.000173932
0.004122
-0.000176304
0.0041792
-0.000178778
0.00423563
-0.000181392
0.00429128
-0.000184063
0.00434611
-0.00018692
0.00440013
-0.000189747
-0.000193027
3.01099e-05
0.000105073
1.16659e-05
0.000105439
-2.99738e-06
9.43722e-05
-1.7797e-05
8.43489e-05
-3.19386e-05
7.48276e-05
-4.48704e-05
6.55937e-05
-5.62625e-05
5.68617e-05
-6.59565e-05
4.8751e-05
-7.38262e-05
4.1151e-05
-7.9766e-05
3.39525e-05
-8.37242e-05
2.71127e-05
-8.56851e-05
2.05796e-05
-8.56199e-05
1.4248e-05
-8.34369e-05
7.96623e-06
-7.87667e-05
1.41493e-06
-7.26364e-05
-4.03824e-06
-6.4925e-05
-9.27509e-06
-5.51826e-05
-1.44849e-05
-4.353e-05
-1.96341e-05
-3.00112e-05
-2.47566e-05
-1.4663e-05
-2.98772e-05
2.49129e-06
-3.50358e-05