/*--------------------------------*- C++ -*----------------------------------*\
  =========                 |
  \\      /  F ield         | OpenFOAM: The Open Source CFD Toolbox
   \\    /   O peration     | Website:  https://openfoam.org
    \\  /    A nd           | Version:  7
     \\/     M anipulation  |
\*---------------------------------------------------------------------------*/
FoamFile
{
    version     2.0;
    format      ascii;
    class       volVectorField;
    location    "75";
    object      U;
}
// * * * * * * * * * * * * * * * * * * * * * * * * * * * * * * * * * * * * * //

dimensions      [0 1 -1 0 0 0 0];

internalField   nonuniform List<vector> 
14000
(
(-0.00750668 0.00520234 -4.83785e-22)
(-0.0296263 0.0090583 9.67457e-22)
(-0.0612383 0.00993196 6.21286e-20)
(-0.0905195 0.00961446 1.08338e-20)
(-0.116819 0.00882213 2.10827e-20)
(-0.139959 0.00786418 -1.21982e-20)
(-0.159671 0.00674062 -2.26177e-20)
(-0.175066 0.00511075 2.19534e-20)
(-0.188868 0.00460633 2.1501e-20)
(-0.194132 0.0014204 1.6783e-20)
(-0.00859226 0.0151921 -7.87453e-20)
(-0.030574 0.0266617 5.21291e-20)
(-0.0605609 0.0294016 -7.09517e-20)
(-0.0876143 0.0286006 3.80731e-21)
(-0.111152 0.0263882 -5.06283e-20)
(-0.13103 0.0237089 6.22251e-21)
(-0.147304 0.0207273 3.24985e-20)
(-0.157225 0.0157205 -1.4291e-19)
(-0.168157 0.0152253 3.52643e-20)
(-0.165136 0.00466819 1.51698e-22)
(-0.0106399 0.0239664 1.46609e-19)
(-0.032411 0.042441 -1.29734e-20)
(-0.059287 0.0470325 9.85971e-20)
(-0.0819776 0.0458486 -9.23393e-21)
(-0.10003 0.042335 -1.07959e-19)
(-0.113135 0.0380227 7.97199e-20)
(-0.122843 0.0338007 -3.42817e-20)
(-0.120278 0.0247901 3.43763e-20)
(-0.126253 0.0264383 -1.04358e-19)
(-0.104768 0.00616202 1.48072e-19)
(-0.0134424 0.0309301 1.73166e-20)
(-0.0350377 0.0553694 -2.33311e-19)
(-0.0575661 0.0616735 -1.38856e-19)
(-0.0739222 0.0601783 7.30581e-20)
(-0.0839133 0.0555101 8.67767e-20)
(-0.086241 0.0496599 -1.4446e-19)
(-0.0866854 0.0445686 6.18932e-20)
(-0.0624885 0.0319666 4.11528e-20)
(-0.0615186 0.0365563 1.65301e-19)
(-0.00613734 0.0101933 -2.13409e-19)
(-0.016767 0.035769 -7.37935e-20)
(-0.0383043 0.0646933 1.14922e-19)
(-0.0555035 0.0723222 3.36335e-19)
(-0.0636494 0.0704513 -1.67762e-19)
(-0.0630742 0.0646734 1.55706e-19)
(-0.0502328 0.0577153 2.62613e-19)
(-0.0376386 0.0498031 -7.28676e-21)
(0.017219 0.0383731 7.4667e-21)
(0.0277313 0.0420554 -2.43979e-19)
(0.139368 0.0209168 1.14972e-19)
(-0.0204169 0.0384761 -1.74978e-19)
(-0.0419763 0.0700013 1.03631e-19)
(-0.0529645 0.0782305 -4.69444e-19)
(-0.0508817 0.0757236 2.28584e-19)
(-0.0365323 0.0686366 3.20843e-20)
(-0.00434153 0.061539 -2.96232e-19)
(0.0291681 0.0483996 -8.69577e-20)
(0.127335 0.0448772 8.6896e-20)
(0.143285 0.0372992 1.65013e-19)
(0.348324 0.0339414 -9.17206e-20)
(-0.0242683 0.0393079 -1.91792e-20)
(-0.0456369 0.0712357 -3.25992e-19)
(-0.0492172 0.0790249 3.22063e-19)
(-0.0342321 0.0754282 -2.31554e-19)
(-0.00100616 0.0670648 5.7456e-20)
(0.057277 0.0609741 1.92509e-19)
(0.12262 0.0424477 -3.52943e-19)
(0.273334 0.0517486 -1.4778e-19)
(0.304101 0.0307722 1.25537e-19)
(0.607823 0.0465261 7.31339e-20)
(-0.028265 0.0386787 1.91975e-19)
(-0.048528 0.0686484 5.62576e-19)
(-0.0424578 0.0748149 -5.42963e-19)
(-0.00998805 0.0697338 1.32804e-19)
(0.0501345 0.0607358 3.32454e-19)
(0.144838 0.0565466 -1.69266e-19)
(0.26057 0.0400504 -5.38178e-20)
(0.452999 0.0567732 -1.99965e-19)
(0.535655 0.0399324 2.38259e-19)
(0.86901 0.0680094 -1.67085e-19)
(-0.0323144 0.0369744 -3.52024e-19)
(-0.0493805 0.0627561 9.7315e-20)
(-0.0292936 0.0662444 2.03072e-19)
(0.0286144 0.0598839 -1.01012e-19)
(0.128071 0.0523973 -3.41351e-19)
(0.272034 0.0516078 4.04324e-19)
(0.450437 0.0510042 2.56644e-19)
(0.660032 0.0647417 2.31296e-19)
(0.814038 0.069848 -1.88418e-19)
(1.07739 0.0957768 1.42549e-19)
(-0.0360714 0.0344272 -8.74337e-20)
(-0.0461759 0.0541832 -2.84468e-19)
(-0.00448403 0.0545328 -1.68801e-19)
(0.0914233 0.0486928 1.98237e-19)
(0.24538 0.0475667 3.80644e-20)
(0.447769 0.0555295 -2.38212e-19)
(0.672168 0.0742121 2.77606e-19)
(0.879797 0.0872635 -3.89723e-19)
(1.05263 0.111419 -2.1901e-19)
(1.19632 0.116363 7.62142e-20)
(-0.0388751 0.0311359 2.13595e-19)
(-0.0358888 0.0435113 2.99781e-19)
(0.0390184 0.0416204 1.24543e-19)
(0.189401 0.0409161 1.73558e-19)
(0.407951 0.0530317 -1.00624e-19)
(0.657788 0.0765388 -2.5733e-19)
(0.88795 0.10548 1.02569e-19)
(1.06809 0.122284 1.25796e-19)
(1.18812 0.144586 4.18619e-19)
(1.23249 0.120112 -2.45855e-19)
(-0.039764 0.027051 3.18488e-19)
(-0.0145369 0.0313028 -3.8845e-20)
(0.109363 0.0306181 2.87111e-19)
(0.329135 0.0431258 -1.27594e-19)
(0.603848 0.0738572 3.89803e-19)
(0.863568 0.110652 1.54418e-19)
(1.05938 0.140097 1.90992e-19)
(1.1826 0.15452 -3.12474e-19)
(1.23523 0.157665 -1.27543e-19)
(1.25997 0.143256 1.22274e-19)
(-0.0374054 0.0220007 2.28703e-20)
(0.0227131 0.0184648 -2.80592e-19)
(0.21373 0.0265957 -2.66332e-19)
(0.504047 0.0607829 -6.72093e-20)
(0.800942 0.108095 -1.0616e-19)
(1.02803 0.147812 1.15616e-19)
(1.16631 0.170222 -4.78472e-19)
(1.23124 0.173724 3.19678e-19)
(1.25473 0.17178 -3.17023e-21)
(1.25868 0.153317 -3.76253e-19)
(-0.0300796 0.0158681 -4.54295e-19)
(0.0812868 0.00713261 -9.2675e-20)
(0.353388 0.0357605 -9.82853e-21)
(0.690408 0.0933538 2.8618e-20)
(0.966206 0.147263 1.4991e-19)
(1.13729 0.18055 -4.67593e-19)
(1.22017 0.191694 4.57243e-19)
(1.25078 0.189496 -1.00647e-19)
(1.25378 0.180056 5.89598e-20)
(1.2478 0.16271 9.67769e-20)
(-0.0156775 0.00882565 1.21295e-20)
(0.165841 0.00193212 3.72443e-19)
(0.517139 0.0613316 9.4522e-20)
(0.859468 0.134253 -5.0733e-20)
(1.08595 0.18433 -4.2489e-20)
(1.20061 0.206765 2.72241e-19)
(1.24421 0.209189 -1.21103e-21)
(1.25187 0.201172 1.98532e-19)
(1.24592 0.18838 -6.18844e-20)
(1.23939 0.172709 -2.89636e-21)
(0.00857619 0.00166169 7.42248e-20)
(0.277096 0.00954592 -1.3518e-19)
(0.68287 0.100393 1.06281e-19)
(0.994737 0.176956 1.40285e-19)
(1.16436 0.217151 -9.20268e-20)
(1.2332 0.228784 -1.52406e-20)
(1.24957 0.22364 -2.65662e-19)
(1.24546 0.212056 -1.73872e-19)
(1.23601 0.19648 2.12393e-19)
(1.22585 0.181331 -1.33404e-19)
(0.0455443 -0.00344455 9.60628e-20)
(0.408342 0.0347323 1.71289e-19)
(0.830753 0.147131 1.20224e-19)
(1.09381 0.218442 -1.81365e-19)
(1.21102 0.2464 2.13999e-19)
(1.24544 0.247893 -1.13363e-19)
(1.2454 0.23711 -2.83471e-20)
(1.23495 0.222275 -1.01744e-20)
(1.22329 0.20469 -6.01512e-20)
(1.21371 0.190531 1.91847e-20)
(0.0965872 -0.00296635 2.4387e-19)
(0.546151 0.0765499 -1.3538e-19)
(0.951653 0.197243 8.47253e-20)
(1.16084 0.257804 9.88528e-20)
(1.23444 0.272841 -7.04784e-20)
(1.24519 0.265572 1.06722e-19)
(1.23536 0.250012 3.88225e-20)
(1.2219 0.232451 5.15702e-20)
(1.21021 0.213356 3.28097e-20)
(1.19943 0.198907 5.23737e-20)
(0.160489 0.00665721 -8.98618e-20)
(0.676193 0.130283 -1.31627e-19)
(1.04412 0.248399 -1.03013e-19)
(1.20161 0.294763 -9.75967e-20)
(1.24144 0.2973 -4.28708e-20)
(1.2367 0.28243 4.70442e-20)
(1.22174 0.262816 -2.31639e-20)
(1.20722 0.242595 -2.2613e-22)
(1.19524 0.221943 -2.12892e-20)
(1.18486 0.206847 3.85345e-21)
(0.233368 0.0274627 2.40547e-20)
(0.78835 0.19109 -5.23357e-21)
(1.10981 0.299216 2.32464e-20)
(1.22161 0.329458 1.81745e-20)
(1.23666 0.320297 1.36e-20)
(1.22264 0.298856 -3.64108e-20)
(1.20531 0.275437 1.68088e-20)
(1.19064 0.252533 -1.63803e-20)
(1.17936 0.230339 -5.22395e-21)
(1.16923 0.213879 -8.51904e-21)
(0.309635 0.0594076 1.24858e-21)
(0.878019 0.255283 -7.30647e-22)
(1.15135 0.34867 -5.03717e-21)
(1.22528 0.362073 6.05002e-20)
(1.22322 0.342132 -1.63797e-20)
(1.20423 0.314785 -1.5325e-20)
(1.18637 0.287694 1.98805e-21)
(1.17236 0.26203 -1.6305e-21)
(1.16177 0.238005 -6.04027e-21)
(1.15257 0.219946 -1.25451e-20)
(0.38322 0.100871 -1.0351e-19)
(0.944262 0.320283 1.95796e-20)
(1.17179 0.395928 -1.66759e-19)
(1.21593 0.392561 -5.83489e-20)
(1.203 0.362768 -1.77967e-20)
(1.18212 0.329975 -2.24193e-21)
(1.16497 0.299232 -1.16849e-20)
(1.15217 0.270741 -6.26644e-21)
(1.14283 0.24482 5.92211e-21)
(1.13433 0.224934 8.61913e-21)
(0.448575 0.149537 1.78603e-19)
(0.987505 0.384018 -9.10485e-20)
(1.17396 0.440086 1.26646e-19)
(1.19594 0.420663 5.03136e-20)
(1.17716 0.381928 -1.7514e-20)
(1.15662 0.343985 5.81162e-20)
(1.14117 0.309607 -1.47222e-20)
(1.13026 0.278374 1.66251e-20)
(1.12226 0.250736 3.30778e-21)
(1.1144 0.228762 5.41576e-21)
(0.501422 0.202815 -1.09411e-19)
(1.00905 0.444704 4.14151e-19)
(1.16039 0.480303 -7.61601e-20)
(1.16704 0.445937 -4.23196e-20)
(1.14645 0.39909 8.87477e-20)
(1.12803 0.356278 -3.68239e-20)
(1.11514 0.31834 -1.27305e-20)
(1.1066 0.284579 -8.10655e-21)
(1.10005 0.255673 1.21475e-21)
(1.09357 0.231401 -1.06292e-20)
(0.539066 0.257937 -1.98432e-19)
(1.01062 0.500694 -2.21193e-19)
(1.13313 0.515658 1.34938e-19)
(1.13062 0.467732 3.71961e-20)
(1.11156 0.413576 -4.36359e-20)
(1.09673 0.366306 -5.37653e-21)
(1.08709 0.325058 1.90755e-20)
(1.08111 0.289122 6.68431e-21)
(1.07622 0.259007 -2.1024e-20)
(1.07213 0.232687 -2.45945e-21)
(0.560364 0.312012 6.84667e-20)
(0.994119 0.550426 2.84279e-19)
(1.094 0.545125 -5.71311e-20)
(1.08809 0.485226 4.43921e-21)
(1.07318 0.424672 -3.28106e-21)
(1.06288 0.373454 1.21796e-21)
(1.05708 0.329463 1.50697e-20)
(1.05393 0.291677 -1.19905e-20)
(1.05132 0.260461 1.99397e-20)
(1.05009 0.232526 -1.96337e-20)
(0.565519 0.362259 -5.06034e-19)
(0.961324 0.592272 2.52844e-20)
(1.04505 0.567704 -1.05226e-19)
(1.04057 0.497389 1.2609e-20)
(1.03163 0.43173 -1.86655e-21)
(1.02673 0.377219 5.91504e-20)
(1.02541 0.331058 -4.81381e-20)
(1.02558 0.291915 2.79985e-20)
(1.02592 0.259747 -2.67018e-20)
(1.02819 0.230848 -8.95846e-20)
(0.555601 0.406393 2.56675e-19)
(0.913791 0.624152 -2.39627e-19)
(0.988569 0.582529 -1.68304e-20)
(0.98901 0.503427 -3.11104e-21)
(0.98751 0.43398 9.1781e-20)
(0.988849 0.377056 -8.79372e-21)
(0.992463 0.329432 7.19818e-20)
(0.996617 0.289438 8.37642e-21)
(1.00089 0.256686 5.75308e-21)
(1.00726 0.227747 1.25408e-19)
(0.531736 0.442721 1.41862e-19)
(0.854007 0.644487 -1.97503e-20)
(0.926595 0.588354 -7.98541e-21)
(0.934498 0.50288 7.20611e-20)
(0.941564 0.430882 -3.07701e-20)
(0.9497 0.372477 -1.09983e-19)
(0.95875 0.324056 -7.08159e-20)
(0.967646 0.283655 7.04496e-21)
(0.97692 0.250756 9.75341e-20)
(0.987677 0.223575 -7.96685e-20)
(0.495104 0.468687 -1.19939e-20)
(0.786015 0.652944 -2.60632e-20)
(0.860997 0.584264 -1.00317e-19)
(0.878183 0.495194 4.62009e-21)
(0.894579 0.422006 1.50589e-19)
(0.909932 0.363132 -4.80563e-20)
(0.924816 0.314595 1.80108e-19)
(0.939074 0.273997 -2.4881e-19)
(0.953918 0.240693 -1.67685e-19)
(0.968283 0.217153 -3.61091e-20)
(0.44804 0.481031 3.64499e-20)
(0.712354 0.647981 5.39225e-20)
(0.793308 0.570156 3.46449e-20)
(0.821257 0.479925 -5.3526e-20)
(0.847437 0.407068 -2.27294e-19)
(0.870272 0.348838 2.14598e-19)
(0.891311 0.301065 8.3206e-20)
(0.91113 0.260869 1.07932e-19)
(0.931216 0.226039 3.09204e-19)
(0.94644 0.199848 -7.50968e-20)
(0.394712 0.479402 1.31179e-19)
(0.636022 0.62917 -2.32751e-20)
(0.725414 0.545835 -5.78766e-20)
(0.764982 0.456817 1.12449e-19)
(0.801105 0.385878 2.01199e-19)
(0.83156 0.329451 -4.77427e-19)
(0.858945 0.283453 -7.44217e-20)
(0.884038 0.245253 -1.94176e-19)
(0.907223 0.212988 3.93211e-20)
(0.921973 0.188134 -1.41085e-19)
(0.338277 0.463413 -2.66181e-19)
(0.559678 0.596169 -1.20347e-19)
(0.659107 0.511363 4.00811e-19)
(0.710646 0.425875 -2.30023e-19)
(0.756581 0.358441 -3.31999e-19)
(0.794593 0.304924 3.11598e-19)
(0.828279 0.261272 -2.85933e-19)
(0.858491 0.224782 1.42155e-19)
(0.885015 0.193867 -1.76896e-19)
(0.901907 0.170292 2.79954e-19)
(0.281868 0.433494 -1.08412e-19)
(0.486119 0.549355 5.94889e-19)
(0.596196 0.46701 -6.20005e-19)
(0.65954 0.387313 2.59302e-20)
(0.714875 0.325006 2.02591e-19)
(0.760072 0.27576 -1.25439e-20)
(0.799475 0.235841 4.37215e-19)
(0.833845 0.202693 -3.81369e-19)
(0.863106 0.174595 2.77985e-19)
(0.883107 0.152531 -1.88017e-19)
(0.228304 0.390664 -1.77383e-19)
(0.417857 0.489462 9.69999e-20)
(0.538405 0.413289 2.67119e-19)
(0.61293 0.341533 3.07291e-19)
(0.677026 0.285788 -7.05712e-20)
(0.728952 0.241777 2.91657e-19)
(0.773677 0.206114 2.4516e-20)
(0.811872 0.176551 3.1513e-20)
(0.843823 0.151684 -1.11994e-19)
(0.866879 0.132264 -6.07256e-21)
(0.179991 0.336492 5.35283e-19)
(0.357151 0.417688 -3.71622e-19)
(0.487396 0.350986 -4.96668e-19)
(0.571978 0.289241 2.789e-20)
(0.64384 0.241528 -1.46152e-19)
(0.701644 0.203971 1.22113e-19)
(0.750904 0.17362 -4.46634e-19)
(0.792356 0.148462 1.31757e-19)
(0.826898 0.127204 3.75093e-19)
(0.85306 0.110429 -1.81455e-19)
(0.138808 0.272654 7.27136e-20)
(0.306023 0.335789 4.6211e-19)
(0.444751 0.281172 3.33856e-19)
(0.53783 0.231227 -3.12345e-19)
(0.616268 0.192724 1.94944e-19)
(0.679025 0.162455 -8.83328e-20)
(0.732045 0.138043 -5.75519e-20)
(0.77617 0.11786 -2.73736e-20)
(0.812947 0.100807 -1.16e-19)
(0.84189 0.0872227 2.1421e-19)
(0.106313 0.20079 -3.58466e-19)
(0.266137 0.245803 -4.17944e-19)
(0.41168 0.205303 -6.7634e-21)
(0.511366 0.168605 2.97698e-19)
(0.594921 0.140356 -5.4613e-20)
(0.661516 0.118174 -5.9062e-20)
(0.717421 0.100299 8.58386e-20)
(0.763606 0.0855215 -4.63828e-20)
(0.802189 0.0730041 -3.70194e-20)
(0.833445 0.0629519 3.8493e-20)
(0.083851 0.122937 5.21169e-20)
(0.238802 0.149898 -6.85565e-20)
(0.389114 0.124988 2.9584e-19)
(0.493321 0.102557 -7.25742e-20)
(0.580379 0.0853001 1.36947e-19)
(0.649595 0.0717596 -3.67928e-20)
(0.707454 0.0608593 -5.74035e-20)
(0.755033 0.0518521 9.19589e-20)
(0.794877 0.0442033 1.28005e-20)
(0.8278 0.0380149 -3.3126e-20)
(0.0723759 0.0413957 -1.41028e-21)
(0.224908 0.0503731 1.85503e-21)
(0.377674 0.0419662 1.37521e-19)
(0.484176 0.0344199 -6.8739e-20)
(0.573011 0.0286157 3.15371e-20)
(0.643555 0.0240626 -1.67101e-20)
(0.702399 0.0203985 1.99266e-20)
(0.750681 0.0173714 -2.61788e-20)
(0.791172 0.0147967 -1.5954e-20)
(0.824973 0.0127048 5.62844e-24)
(0.0723755 -0.0413905 1.41034e-21)
(0.224908 -0.0503703 -1.85505e-21)
(0.377673 -0.0419655 -1.37522e-19)
(0.484175 -0.0344208 -2.45211e-20)
(0.573011 -0.0286182 -4.15923e-20)
(0.643555 -0.0240663 2.22647e-20)
(0.702399 -0.0204034 3.53257e-20)
(0.750681 -0.0173771 -3.24713e-20)
(0.791172 -0.0148031 -2.84761e-20)
(0.824973 -0.0127117 -1.95567e-20)
(0.08385 -0.122932 1.6674e-19)
(0.238801 -0.149895 -1.18536e-19)
(0.389112 -0.124987 1.68821e-19)
(0.49332 -0.102557 -2.3475e-21)
(0.580378 -0.0853025 9.85005e-20)
(0.649594 -0.0717634 -8.10428e-21)
(0.707453 -0.0608642 -4.98605e-20)
(0.755032 -0.0518579 2.01575e-19)
(0.794876 -0.0442099 -4.72967e-20)
(0.8278 -0.038022 -1.24811e-21)
(0.106311 -0.200784 -3.5789e-19)
(0.266135 -0.2458 4.16546e-20)
(0.411677 -0.205302 -2.27417e-19)
(0.511364 -0.168606 2.10618e-20)
(0.594918 -0.140359 1.962e-19)
(0.661514 -0.118178 -1.32651e-19)
(0.717419 -0.100304 5.26798e-20)
(0.763604 -0.0855275 -4.91569e-20)
(0.802188 -0.0730109 1.30553e-19)
(0.833444 -0.0629592 -1.7367e-19)
(0.138806 -0.272647 -5.7498e-21)
(0.30602 -0.335786 5.1275e-19)
(0.444748 -0.281171 2.79603e-19)
(0.537826 -0.231228 -1.36121e-19)
(0.616264 -0.192726 -1.60175e-19)
(0.679023 -0.162459 2.40051e-19)
(0.732043 -0.138048 -9.21183e-20)
(0.776169 -0.117867 -5.76139e-20)
(0.812946 -0.100814 -1.92209e-19)
(0.84189 -0.0872302 2.45207e-19)
(0.179987 -0.336484 1.57158e-19)
(0.357146 -0.417684 -2.27447e-19)
(0.487391 -0.350985 -6.27802e-19)
(0.571973 -0.289242 2.98591e-19)
(0.643836 -0.241531 -2.6611e-19)
(0.70164 -0.203975 -3.76301e-19)
(0.750901 -0.173626 2.90225e-20)
(0.792353 -0.148468 -1.21673e-20)
(0.826896 -0.127211 2.74011e-19)
(0.853059 -0.110436 -1.27768e-19)
(0.228299 -0.390655 2.66408e-19)
(0.417851 -0.489457 -1.52503e-19)
(0.538399 -0.413288 7.75198e-19)
(0.612924 -0.341534 -3.62574e-19)
(0.67702 -0.285791 -3.55152e-20)
(0.728948 -0.241782 4.12982e-19)
(0.773674 -0.206121 1.27049e-19)
(0.811869 -0.176559 -1.05833e-19)
(0.843821 -0.151692 -1.77002e-19)
(0.866878 -0.132273 9.5092e-20)
(0.281861 -0.433484 -4.72846e-21)
(0.48611 -0.54935 4.06812e-19)
(0.596188 -0.467009 -4.45666e-19)
(0.659532 -0.387315 3.06004e-19)
(0.714868 -0.32501 -7.53873e-20)
(0.760067 -0.275766 -2.47421e-19)
(0.799471 -0.235848 4.06881e-19)
(0.833842 -0.202701 1.56794e-19)
(0.863104 -0.174604 -1.36153e-19)
(0.883106 -0.15254 -6.86613e-20)
(0.338267 -0.463403 -1.36933e-19)
(0.559667 -0.596163 -6.41019e-19)
(0.659097 -0.511362 6.22647e-19)
(0.710637 -0.425877 -1.65504e-19)
(0.756573 -0.358446 -3.61706e-19)
(0.794587 -0.304931 1.74038e-19)
(0.828274 -0.26128 3.5583e-20)
(0.858487 -0.224791 1.90753e-19)
(0.885012 -0.193877 -2.20094e-19)
(0.901906 -0.170302 1.46965e-19)
(0.3947 -0.479389 2.36893e-19)
(0.636008 -0.629164 -4.95135e-20)
(0.725402 -0.545834 -2.20769e-19)
(0.764971 -0.456821 8.96213e-20)
(0.801096 -0.385883 3.45057e-19)
(0.831553 -0.329459 -3.8212e-19)
(0.858939 -0.283462 -2.4607e-19)
(0.884034 -0.245263 -2.00128e-19)
(0.90722 -0.212998 1.61216e-19)
(0.921971 -0.188144 -1.20525e-19)
(0.448025 -0.481018 -5.30948e-20)
(0.712336 -0.647974 9.36936e-20)
(0.793293 -0.570157 5.64366e-20)
(0.821245 -0.479929 -1.46395e-19)
(0.847427 -0.407075 -2.40603e-20)
(0.870263 -0.348847 2.12485e-19)
(0.891304 -0.301075 -2.19352e-19)
(0.911126 -0.26088 3.10139e-19)
(0.931212 -0.226051 1.54318e-19)
(0.946438 -0.199861 -5.30676e-20)
(0.495085 -0.468672 -4.70878e-21)
(0.785995 -0.652938 -2.94896e-20)
(0.860979 -0.584265 -9.02262e-20)
(0.878168 -0.495199 -6.18934e-20)
(0.894566 -0.422014 6.00844e-20)
(0.909922 -0.363142 1.56762e-19)
(0.924809 -0.314607 -6.74651e-20)
(0.939068 -0.274009 -8.15181e-20)
(0.953915 -0.240705 -2.99036e-19)
(0.968281 -0.217166 1.69098e-19)
(0.531712 -0.442704 1.85241e-19)
(0.853982 -0.64448 1.83125e-20)
(0.926574 -0.588356 -2.97622e-20)
(0.934481 -0.502887 4.91017e-20)
(0.94155 -0.430892 -1.47571e-19)
(0.949689 -0.372489 -7.61944e-20)
(0.958741 -0.32407 -9.75524e-20)
(0.96764 -0.283669 1.77819e-19)
(0.976916 -0.25077 7.24958e-20)
(0.987676 -0.223589 -6.90483e-20)
(0.555572 -0.406376 9.90228e-20)
(0.913761 -0.624146 -1.42811e-19)
(0.988545 -0.582534 -1.95792e-20)
(0.98899 -0.503436 6.55863e-21)
(0.987495 -0.433992 3.62131e-20)
(0.988837 -0.37707 -9.63816e-21)
(0.992454 -0.329448 1.77634e-19)
(0.996611 -0.289454 -1.45622e-19)
(1.00089 -0.256702 -1.08046e-20)
(1.00726 -0.227762 1.98215e-19)
(0.565484 -0.362243 -3.70149e-19)
(0.961288 -0.592267 -1.07782e-19)
(1.04502 -0.567711 -1.02696e-20)
(1.04055 -0.497401 -9.66786e-22)
(1.03161 -0.431745 5.77995e-21)
(1.02672 -0.377236 7.99088e-20)
(1.0254 -0.331076 -1.15984e-19)
(1.02558 -0.291933 2.69811e-20)
(1.02592 -0.259765 -3.28177e-20)
(1.02819 -0.230865 -5.36233e-20)
(0.560324 -0.311997 8.93939e-21)
(0.994076 -0.550422 2.92559e-19)
(1.09397 -0.545134 3.05928e-20)
(1.08807 -0.485241 -1.67353e-20)
(1.07316 -0.42469 -1.33511e-22)
(1.06286 -0.373474 2.50933e-21)
(1.05707 -0.329484 1.93636e-20)
(1.05393 -0.291698 -2.86362e-20)
(1.05132 -0.260481 4.10616e-21)
(1.05009 -0.232545 -1.83652e-21)
(0.53902 -0.257922 7.33499e-20)
(1.01057 -0.500691 -1.37046e-19)
(1.1331 -0.515669 4.82517e-20)
(1.1306 -0.46775 6.25055e-20)
(1.11154 -0.413598 -4.51513e-20)
(1.09671 -0.36633 -3.37213e-21)
(1.08708 -0.325083 -1.15092e-20)
(1.08111 -0.289147 1.53514e-20)
(1.07622 -0.259031 -2.18455e-20)
(1.07213 -0.232709 2.13344e-20)
(0.50137 -0.202802 1.00904e-19)
(1.009 -0.444702 1.73627e-19)
(1.16034 -0.480317 9.88268e-20)
(1.16701 -0.445959 -1.06442e-19)
(1.14642 -0.399116 9.71602e-20)
(1.12801 -0.356306 -4.16098e-20)
(1.11513 -0.318368 -5.76029e-21)
(1.10659 -0.284607 -5.2771e-21)
(1.10005 -0.255699 1.86482e-21)
(1.09358 -0.231426 -1.18958e-20)
(0.448518 -0.149525 2.59725e-19)
(0.987439 -0.384017 -1.3661e-19)
(1.17391 -0.440103 7.80807e-20)
(1.1959 -0.42069 7.19338e-20)
(1.17713 -0.381959 -3.16697e-20)
(1.1566 -0.344017 4.86847e-20)
(1.14116 -0.30964 1.48819e-20)
(1.13025 -0.278406 1.55551e-20)
(1.12226 -0.250766 8.62988e-21)
(1.11441 -0.22879 3.56962e-21)
(0.383159 -0.100862 -9.50247e-20)
(0.944186 -0.320283 -1.3213e-19)
(1.17173 -0.395948 -8.72396e-20)
(1.21589 -0.392592 -7.99006e-20)
(1.20297 -0.362804 -2.78845e-20)
(1.18211 -0.330013 3.63358e-20)
(1.16496 -0.299271 -1.46147e-20)
(1.15216 -0.270779 2.96557e-21)
(1.14284 -0.244855 -7.86256e-21)
(1.13434 -0.224965 4.7646e-21)
(0.309572 -0.0594015 2.45929e-20)
(0.877934 -0.255284 -5.37267e-21)
(1.15128 -0.348692 2.20635e-20)
(1.22523 -0.362109 1.44998e-20)
(1.22319 -0.342174 1.26419e-20)
(1.20421 -0.314829 -2.92714e-20)
(1.18636 -0.287739 1.30438e-20)
(1.17236 -0.262073 -1.21207e-20)
(1.16178 -0.238045 -2.96463e-21)
(1.15258 -0.219982 -3.92242e-21)
(0.233306 -0.0274604 1.02388e-21)
(0.788254 -0.191092 -7.78068e-22)
(1.10973 -0.299241 -5.20928e-21)
(1.22156 -0.329498 6.67271e-20)
(1.23663 -0.320345 -1.80891e-20)
(1.22262 -0.298907 -2.08035e-20)
(1.2053 -0.275488 3.79917e-21)
(1.19064 -0.252584 -3.81984e-21)
(1.17937 -0.230386 -9.00518e-21)
(1.16925 -0.213921 -1.98177e-20)
(0.160431 -0.00665922 -9.84161e-20)
(0.676086 -0.130286 2.13466e-20)
(1.04403 -0.248425 -1.8317e-19)
(1.20155 -0.294806 -6.94012e-20)
(1.24141 -0.297354 -2.57011e-20)
(1.23668 -0.282488 -7.59038e-21)
(1.22173 -0.262876 -1.94441e-20)
(1.20723 -0.242653 -1.85187e-20)
(1.19525 -0.221997 5.61882e-21)
(1.18488 -0.206896 1.37621e-20)
(0.0965357 0.00296018 1.66477e-19)
(0.546037 -0.0765545 -9.33536e-20)
(0.951549 -0.197269 1.43553e-19)
(1.16077 -0.25785 7.34933e-20)
(1.2344 -0.2729 -4.31721e-20)
(1.24516 -0.265638 1.33229e-19)
(1.23535 -0.250081 -2.78904e-20)
(1.22191 -0.232519 5.10802e-20)
(1.21022 -0.21342 3.51647e-21)
(1.19946 -0.198963 5.06276e-20)
(0.0455008 0.00343531 -1.02811e-19)
(0.408228 -0.0347405 4.26769e-19)
(0.830632 -0.147155 -9.36981e-20)
(1.09372 -0.218488 -7.95498e-20)
(1.21096 -0.246464 2.0316e-19)
(1.24541 -0.247968 -9.02589e-20)
(1.24538 -0.237189 -4.67699e-20)
(1.23495 -0.222354 -2.51617e-20)
(1.22331 -0.204765 -9.5586e-20)
(1.21375 -0.190598 3.42782e-20)
(0.00854121 -0.00167205 -1.86086e-19)
(0.27699 -0.00955955 -2.53393e-19)
(0.682734 -0.100414 2.00209e-19)
(0.994624 -0.176999 5.62767e-20)
(1.16429 -0.217217 -1.4509e-19)
(1.23316 -0.228866 -1.46893e-19)
(1.24956 -0.22373 7.82494e-21)
(1.24546 -0.21215 -9.55946e-20)
(1.23604 -0.196569 1.45454e-19)
(1.2259 -0.18141 -2.09035e-20)
(-0.0157051 -0.00883503 8.27432e-20)
(0.165751 -0.00194897 3.95899e-19)
(0.516995 -0.0613501 -4.97187e-20)
(0.859328 -0.134291 1.39884e-20)
(1.08585 -0.184395 -3.30147e-20)
(1.20054 -0.206853 1.92562e-19)
(1.24419 -0.209292 6.52118e-20)
(1.25188 -0.201282 1.10972e-19)
(1.24596 -0.188487 -1.01431e-19)
(1.23945 -0.172804 6.09964e-20)
(-0.0301009 -0.0158748 -6.12483e-19)
(0.0812135 -0.00714699 1.55693e-19)
(0.353249 -0.0357761 -1.98824e-19)
(0.690243 -0.0933841 2.39687e-19)
(0.966064 -0.147323 -5.91913e-20)
(1.1372 -0.180641 -3.37852e-19)
(1.22012 -0.191809 1.80865e-19)
(1.25078 -0.189625 -6.76302e-20)
(1.25382 -0.180184 6.14951e-20)
(1.24788 -0.162828 1.83983e-19)
(-0.0374201 -0.0220018 2.86799e-19)
(0.0226555 -0.0184695 -4.31177e-19)
(0.213606 -0.0266046 -5.33627e-20)
(0.503868 -0.060805 -2.66234e-19)
(0.800756 -0.108145 -3.28807e-19)
(1.02788 -0.147901 1.61971e-19)
(1.16623 -0.170349 -2.01339e-19)
(1.23122 -0.173874 -2.42285e-20)
(1.25477 -0.171938 -1.88814e-20)
(1.25877 -0.153458 -2.35121e-19)
(-0.0397714 -0.0270436 2.66351e-19)
(-0.0145807 -0.0312923 -1.01984e-19)
(0.109257 -0.0306143 9.72673e-20)
(0.32896 -0.0431387 -1.44239e-19)
(0.603628 -0.0738985 1.41924e-19)
(0.863358 -0.110735 2.62985e-19)
(1.05923 -0.140229 1.5587e-19)
(1.18255 -0.154692 -7.72282e-21)
(1.23526 -0.157858 -1.73693e-19)
(1.26009 -0.143435 1.39363e-19)
(-0.038874 -0.0311175 3.09862e-19)
(-0.0359188 -0.0434832 9.93535e-20)
(0.0389297 -0.0416018 1.66579e-19)
(0.189242 -0.0409199 4.89432e-20)
(0.407723 -0.0530677 -2.38047e-19)
(0.657525 -0.0766184 7.13821e-20)
(0.887711 -0.105616 -2.71339e-19)
(1.06795 -0.122472 3.75565e-19)
(1.18811 -0.14482 2.25333e-19)
(1.23261 -0.120349 6.01699e-20)
(-0.0360598 -0.0343955 -4.38415e-19)
(-0.0461915 -0.0541409 -1.09124e-19)
(-0.00455247 -0.0545048 -1.2718e-19)
(0.0912919 -0.0486942 7.40014e-20)
(0.245174 -0.0476052 3.00727e-19)
(0.447496 -0.0556175 -2.42078e-19)
(0.67186 -0.0743637 -1.05088e-19)
(0.879549 -0.0874658 -1.32611e-19)
(1.05248 -0.111703 -4.23573e-19)
(1.19642 -0.116634 1.07589e-19)
(-0.0322937 -0.0369293 -1.78898e-19)
(-0.0493813 -0.0627061 3.91438e-20)
(-0.0293346 -0.0662192 1.95471e-20)
(0.0285251 -0.0598967 -1.19715e-19)
(0.127916 -0.052453 -1.91663e-19)
(0.271809 -0.0517241 5.06376e-19)
(0.450111 -0.0511873 7.11826e-20)
(0.659766 -0.0649833 2.21287e-19)
(0.8137 -0.0701896 -4.36091e-20)
(1.07738 -0.0961125 1.66793e-19)
(-0.0282389 -0.0386253 3.19151e-19)
(-0.0485138 -0.0686005 7.13998e-20)
(-0.0424659 -0.0748074 -3.37413e-19)
(-0.0100229 -0.0697757 1.88018e-19)
(0.0500568 -0.0608295 3.06021e-19)
(0.144712 -0.05671 -2.9821e-19)
(0.260316 -0.0402976 2.54414e-19)
(0.452809 -0.057077 -1.38241e-19)
(0.535261 -0.0403771 2.01267e-19)
(0.868896 -0.068437 -3.16187e-19)
(-0.0242403 -0.0392529 6.13649e-20)
(-0.0456102 -0.0712014 -4.60108e-19)
(-0.0491934 -0.0790486 4.47218e-19)
(-0.0342109 -0.0755151 -2.56094e-20)
(-0.000996003 -0.0672161 -1.48807e-19)
(0.0572733 -0.0612034 -5.13049e-21)
(0.122523 -0.0427904 -3.91791e-19)
(0.273287 -0.0521341 3.52205e-19)
(0.303882 -0.0313744 -2.81799e-19)
(0.607709 -0.0471009 1.96489e-19)
(-0.0203901 -0.0384265 9.20215e-20)
(-0.0419419 -0.0699903 -4.61999e-20)
(-0.052916 -0.0782946 -1.58299e-19)
(-0.0508144 -0.0758642 -1.94361e-19)
(-0.0364454 -0.0688554 4.40567e-20)
(-0.00423802 -0.0618524 -2.16295e-19)
(0.0292519 -0.0488498 -7.21276e-21)
(0.127457 -0.0453775 -3.27608e-20)
(0.14336 -0.0380452 9.72675e-20)
(0.348375 -0.0346803 4.51933e-21)
(-0.0167441 -0.0357306 -2.63907e-19)
(-0.0382676 -0.064712 1.88926e-19)
(-0.0554413 -0.07243 2.65843e-19)
(-0.0635549 -0.070647 -1.14683e-20)
(-0.0629431 -0.0649598 8.78008e-20)
(-0.0500622 -0.058111 -8.25463e-20)
(-0.0374143 -0.0503448 3.30081e-19)
(0.01747 -0.0390401 -1.0632e-19)
(0.0280577 -0.0429179 -3.3799e-19)
(0.139642 -0.0218233 1.59883e-19)
(-0.0134248 -0.0309066 -1.86156e-20)
(-0.0350039 -0.0554194 -2.12636e-19)
(-0.0575026 -0.0618228 -1.68182e-19)
(-0.0738225 -0.0604241 1.63891e-19)
(-0.0837708 -0.055858 -1.20867e-19)
(-0.0860463 -0.050128 5.50579e-20)
(-0.0864323 -0.0451862 4.12629e-20)
(-0.0621999 -0.0327677 1.92792e-20)
(-0.0610863 -0.0375283 1.00203e-19)
(-0.00588279 -0.0113081 -1.89098e-19)
(-0.0106278 -0.0239581 1.4554e-19)
(-0.0323841 -0.0425192 1.83769e-19)
(-0.0592333 -0.0472164 5.73305e-21)
(-0.0818922 -0.0461347 -1.47374e-19)
(-0.0999069 -0.0427312 2.40715e-20)
(-0.112965 -0.0385501 3.78141e-20)
(-0.122621 -0.0344887 -5.73941e-20)
(-0.120007 -0.0256603 2.99369e-20)
(-0.125877 -0.0274925 3.07276e-20)
(-0.104397 -0.0074587 -3.1588e-20)
(-0.00858535 -0.015196 -2.0754e-20)
(-0.0305569 -0.0267609 2.86391e-20)
(-0.0605253 -0.0296101 -1.27878e-19)
(-0.0875574 -0.0289146 3.32357e-20)
(-0.11107 -0.0268171 -7.32828e-20)
(-0.130916 -0.0242761 1.98536e-20)
(-0.147155 -0.0214614 3.57651e-20)
(-0.157039 -0.016642 -6.40108e-20)
(-0.167908 -0.0163388 -7.42133e-21)
(-0.164869 -0.00600727 2.8602e-20)
(-0.00750445 -0.00521314 -1.42942e-20)
(-0.0296205 -0.00916881 3.05258e-21)
(-0.0612258 -0.0101532 6.81569e-20)
(-0.0904996 -0.00994258 2.7063e-20)
(-0.11679 -0.00926766 -1.59312e-20)
(-0.139919 -0.00845135 9.04414e-21)
(-0.159619 -0.00749772 -1.21177e-20)
(-0.175 -0.00605922 1.86899e-20)
(-0.188781 -0.00574927 1.23801e-20)
(-0.194035 -0.00277401 5.2214e-24)
(-0.197855 0.0024423 -4.92225e-20)
(-0.201606 0.0021658 3.52201e-20)
(-0.204845 0.00182688 4.7751e-22)
(-0.207697 0.00153619 -6.09975e-21)
(-0.210229 0.00129982 -1.21707e-20)
(-0.212477 0.00111394 -1.39851e-20)
(-0.214471 0.000974952 -2.39104e-20)
(-0.21624 0.000878608 4.25162e-20)
(-0.217804 0.000820371 -2.40954e-20)
(-0.21918 0.000795791 4.9394e-20)
(-0.220379 0.000800552 -3.11022e-20)
(-0.221409 0.000830326 -4.48556e-21)
(-0.222277 0.000880127 -1.09673e-20)
(-0.222986 0.000944316 2.84313e-20)
(-0.223539 0.00101762 -1.87217e-20)
(-0.223944 0.00109549 1.90804e-20)
(-0.224207 0.0011796 -1.32678e-20)
(-0.224332 0.00126847 -1.11644e-20)
(-0.22432 0.00136107 7.19033e-21)
(-0.224172 0.00146007 -4.77251e-21)
(-0.223888 0.00156458 1.77933e-20)
(-0.223467 0.00166662 -8.10565e-21)
(-0.22291 0.00176031 -1.19922e-20)
(-0.222216 0.00184114 7.43529e-21)
(-0.221384 0.00190441 -1.00828e-20)
(-0.220412 0.0019462 1.18658e-20)
(-0.219298 0.00196288 3.28919e-21)
(-0.21804 0.00195095 -9.47651e-21)
(-0.216633 0.00190678 1.69918e-20)
(-0.215073 0.00182585 1.73374e-20)
(-0.213359 0.0017028 -1.80281e-20)
(-0.211499 0.00153503 7.59026e-21)
(-0.209492 0.0013247 9.31264e-21)
(-0.207333 0.00107262 -1.67169e-20)
(-0.205019 0.000779146 1.95249e-20)
(-0.202545 0.000444743 -1.90928e-20)
(-0.199913 7.01856e-05 2.27329e-20)
(-0.197118 -0.000343295 -1.03605e-20)
(-0.194162 -0.000793942 -4.00987e-21)
(-0.191043 -0.00127945 7.21663e-22)
(-0.187761 -0.00179697 6.06569e-21)
(-0.184316 -0.00234324 3.52729e-21)
(-0.18071 -0.00291468 8.14541e-23)
(-0.17694 -0.00350781 -9.33512e-21)
(-0.173007 -0.00411682 -1.05788e-21)
(-0.168913 -0.00473666 -2.98858e-21)
(-0.164659 -0.00536198 6.30371e-21)
(-0.160248 -0.00598722 -5.37553e-22)
(-0.155681 -0.00660667 6.76107e-21)
(-0.15096 -0.00721464 -1.29358e-20)
(-0.146088 -0.00780548 6.53937e-21)
(-0.141068 -0.00837358 5.04025e-22)
(-0.135903 -0.00891392 -1.10786e-20)
(-0.130593 -0.00942275 5.32671e-21)
(-0.125144 -0.00988906 2.41799e-21)
(-0.119563 -0.0103121 1.38671e-21)
(-0.113853 -0.0106878 -3.25801e-21)
(-0.108019 -0.0110121 1.91691e-22)
(-0.102064 -0.0112814 1.01716e-20)
(-0.0959933 -0.011493 -1.48399e-20)
(-0.0898113 -0.0116445 1.02225e-20)
(-0.083523 -0.0117344 1.39446e-21)
(-0.0771332 -0.0117616 -1.40576e-21)
(-0.0706471 -0.0117257 -1.06682e-21)
(-0.0640697 -0.0116269 1.16015e-21)
(-0.0574061 -0.0114661 -2.20323e-21)
(-0.0506609 -0.0112443 -2.07025e-22)
(-0.0438392 -0.0109621 -5.48051e-22)
(-0.0369467 -0.0106271 2.81912e-22)
(-0.0299891 -0.0102408 1.49071e-21)
(-0.0229714 -0.00980598 -2.79984e-21)
(-0.0158986 -0.00932676 -7.43084e-22)
(-0.00877562 -0.00880764 2.30354e-21)
(-0.00160675 -0.00825302 1.60755e-21)
(0.00560139 -0.00766892 -1.91937e-21)
(0.0128442 -0.00706095 7.89035e-22)