/*--------------------------------*- C++ -*----------------------------------*\
  =========                 |
  \\      /  F ield         | OpenFOAM: The Open Source CFD Toolbox
   \\    /   O peration     | Website:  https://openfoam.org
    \\  /    A nd           | Version:  7
     \\/     M anipulation  |
\*---------------------------------------------------------------------------*/
FoamFile
{
    version     2.0;
    format      ascii;
    class       volScalarField;
    location    "65";
    object      p;
}
// * * * * * * * * * * * * * * * * * * * * * * * * * * * * * * * * * * * * * //

dimensions      [0 2 -2 0 0 0 0];

internalField   nonuniform List<scalar> 
6000
(
-0.241543
-0.243617
-0.244478
-0.245276
-0.245938
-0.246525
-0.247079
-0.247613
-0.248134
-0.248639
-0.24912
-0.249569
-0.249975
-0.250329
-0.250618
-0.250835
-0.250968
-0.251013
-0.250964
-0.25082
-0.241692
-0.243748
-0.244601
-0.245393
-0.246051
-0.246635
-0.247187
-0.24772
-0.248242
-0.248747
-0.249231
-0.249684
-0.250096
-0.250455
-0.250753
-0.250978
-0.251122
-0.251177
-0.25114
-0.251008
-0.241956
-0.243977
-0.244818
-0.245598
-0.246247
-0.246824
-0.247371
-0.247901
-0.24842
-0.248925
-0.24941
-0.249866
-0.250281
-0.250647
-0.250951
-0.251185
-0.251338
-0.251403
-0.251373
-0.251248
-0.242331
-0.244303
-0.245125
-0.245888
-0.246523
-0.24709
-0.247628
-0.248152
-0.248666
-0.249169
-0.249653
-0.25011
-0.250528
-0.250898
-0.251209
-0.25145
-0.251612
-0.251684
-0.251661
-0.251538
-0.251317
-0.242813
-0.244722
-0.245518
-0.246258
-0.246876
-0.247428
-0.247954
-0.248468
-0.248976
-0.249474
-0.249955
-0.250411
-0.250832
-0.251205
-0.251521
-0.251769
-0.251937
-0.252016
-0.251995
-0.251871
-0.251641
-0.243396
-0.245228
-0.245994
-0.246706
-0.247301
-0.247834
-0.248345
-0.248846
-0.249344
-0.249834
-0.250311
-0.250764
-0.251184
-0.25156
-0.25188
-0.252133
-0.252307
-0.252389
-0.25237
-0.252241
-0.251995
-0.244074
-0.245817
-0.246548
-0.247226
-0.247793
-0.248304
-0.248794
-0.249279
-0.249763
-0.250243
-0.250711
-0.25116
-0.251577
-0.251953
-0.252276
-0.252533
-0.252711
-0.252797
-0.252777
-0.252639
-0.252374
-0.244838
-0.246484
-0.247173
-0.247813
-0.248347
-0.248829
-0.249296
-0.24976
-0.250226
-0.250691
-0.251149
-0.251589
-0.252002
-0.252376
-0.252699
-0.252958
-0.253138
-0.253226
-0.253203
-0.253056
-0.252767
-0.245682
-0.24722
-0.247864
-0.24846
-0.248956
-0.249405
-0.249842
-0.250281
-0.250725
-0.251172
-0.251614
-0.252043
-0.252447
-0.252816
-0.253137
-0.253395
-0.253577
-0.253665
-0.253639
-0.253479
-0.253167
-0.246596
-0.248021
-0.248614
-0.249161
-0.249614
-0.250024
-0.250426
-0.250834
-0.251251
-0.251674
-0.252097
-0.25251
-0.252902
-0.253262
-0.253578
-0.253833
-0.254014
-0.254099
-0.254069
-0.253897
-0.25356
-0.247572
-0.248879
-0.249417
-0.249909
-0.250314
-0.250679
-0.251041
-0.251411
-0.251795
-0.252189
-0.252587
-0.25298
-0.253355
-0.253703
-0.254008
-0.254258
-0.254433
-0.254515
-0.254477
-0.254293
-0.253932
-0.248602
-0.249787
-0.250267
-0.2507
-0.251049
-0.251364
-0.251677
-0.252004
-0.252348
-0.252708
-0.253075
-0.253441
-0.253795
-0.254124
-0.254416
-0.254654
-0.254821
-0.254895
-0.254849
-0.25465
-0.254262
-0.253639
-0.249678
-0.25074
-0.251158
-0.251526
-0.251814
-0.252071
-0.252329
-0.252605
-0.252903
-0.25322
-0.25355
-0.253883
-0.254209
-0.254515
-0.254787
-0.255009
-0.255163
-0.255225
-0.255166
-0.254951
-0.254538
-0.253871
-0.250793
-0.251733
-0.252085
-0.252383
-0.252603
-0.252794
-0.25299
-0.253206
-0.253449
-0.253717
-0.254002
-0.254296
-0.254587
-0.254863
-0.255109
-0.255309
-0.255444
-0.255488
-0.255412
-0.255176
-0.254734
-0.254034
-0.25194
-0.25276
-0.253044
-0.253266
-0.253411
-0.253528
-0.253653
-0.253802
-0.253982
-0.254192
-0.254425
-0.254671
-0.254921
-0.255159
-0.255373
-0.255544
-0.255652
-0.255672
-0.255571
-0.255309
-0.254828
-0.254109
-0.253115
-0.253818
-0.25403
-0.254171
-0.254233
-0.254269
-0.254313
-0.254385
-0.254494
-0.254637
-0.254809
-0.255001
-0.255201
-0.255395
-0.255569
-0.255704
-0.255778
-0.255765
-0.255631
-0.255335
-0.254802
-0.254074
-0.252506
-0.254315
-0.254906
-0.255041
-0.255095
-0.255068
-0.255012
-0.254967
-0.254953
-0.25498
-0.255048
-0.255151
-0.25528
-0.255423
-0.255565
-0.255691
-0.255782
-0.255815
-0.255761
-0.255583
-0.255245
-0.254639
-0.253916
-0.252059
-0.255537
-0.25602
-0.256077
-0.256038
-0.255913
-0.255757
-0.255612
-0.255502
-0.255438
-0.255421
-0.255447
-0.255504
-0.255582
-0.255665
-0.255736
-0.255776
-0.255758
-0.255654
-0.255422
-0.255032
-0.254329
-0.253622
-0.251412
-0.256781
-0.257163
-0.257137
-0.256999
-0.256767
-0.256501
-0.256247
-0.256031
-0.255867
-0.255756
-0.255695
-0.255673
-0.255679
-0.255695
-0.255704
-0.255683
-0.255607
-0.255444
-0.255145
-0.254694
-0.253869
-0.253181
-0.250572
-0.251593
-0.258051
-0.258335
-0.258222
-0.257978
-0.257631
-0.257246
-0.256873
-0.256541
-0.256266
-0.256053
-0.255897
-0.255788
-0.255714
-0.255656
-0.255596
-0.255508
-0.255364
-0.255131
-0.254751
-0.254228
-0.253256
-0.252577
-0.249561
-0.250915
-0.259349
-0.259541
-0.259336
-0.25898
-0.258508
-0.257994
-0.257491
-0.257033
-0.256639
-0.256315
-0.256056
-0.255853
-0.255692
-0.255554
-0.255416
-0.255254
-0.255033
-0.254718
-0.254243
-0.25363
-0.252493
-0.251786
-0.248406
-0.249912
-0.260682
-0.260785
-0.260484
-0.260007
-0.259402
-0.258749
-0.258106
-0.257513
-0.256991
-0.256547
-0.256178
-0.255874
-0.25562
-0.255394
-0.255173
-0.254926
-0.254617
-0.254206
-0.253618
-0.252892
-0.251579
-0.250783
-0.247127
-0.248542
-0.237343
-0.262059
-0.262074
-0.26167
-0.261064
-0.260317
-0.259515
-0.258724
-0.257987
-0.257329
-0.256758
-0.256272
-0.255861
-0.255507
-0.255187
-0.254873
-0.254531
-0.25412
-0.253595
-0.252874
-0.252004
-0.250507
-0.249539
-0.245724
-0.246788
-0.236124
-0.26349
-0.263417
-0.262902
-0.26216
-0.261261
-0.260301
-0.259352
-0.258463
-0.257661
-0.256957
-0.256348
-0.255823
-0.255363
-0.254941
-0.254525
-0.254075
-0.253543
-0.252882
-0.252001
-0.250948
-0.249261
-0.248034
-0.24417
-0.244672
-0.234856
-0.264988
-0.264823
-0.264189
-0.263302
-0.262241
-0.261114
-0.259999
-0.25895
-0.257998
-0.257155
-0.256417
-0.255774
-0.2552
-0.254667
-0.254135
-0.253559
-0.252885
-0.252057
-0.250987
-0.249706
-0.247817
-0.246253
-0.242419
-0.242234
-0.233432
-0.266566
-0.2663
-0.265545
-0.2645
-0.263268
-0.261965
-0.260676
-0.259461
-0.258353
-0.257364
-0.256493
-0.255724
-0.255029
-0.254372
-0.253708
-0.252984
-0.252138
-0.251109
-0.249812
-0.248258
-0.246146
-0.24419
-0.240423
-0.239519
-0.231761
-0.26824
-0.267863
-0.266977
-0.265764
-0.264351
-0.262864
-0.261395
-0.260007
-0.258738
-0.2576
-0.256589
-0.255686
-0.254858
-0.254062
-0.253245
-0.252344
-0.251291
-0.25002
-0.248454
-0.246582
-0.244218
-0.241835
-0.238136
-0.236545
-0.229763
-0.270028
-0.269528
-0.268498
-0.267106
-0.265503
-0.263824
-0.262168
-0.260603
-0.259168
-0.257875
-0.256718
-0.255672
-0.254697
-0.253742
-0.252743
-0.25163
-0.250329
-0.248771
-0.246892
-0.244664
-0.242011
-0.239184
-0.235524
-0.233266
-0.227355
-0.271948
-0.271305
-0.27012
-0.268538
-0.266737
-0.264858
-0.263009
-0.261262
-0.259657
-0.258204
-0.256892
-0.25569
-0.25455
-0.253409
-0.252194
-0.250828
-0.249234
-0.247343
-0.245109
-0.242497
-0.239519
-0.23625
-0.232562
-0.229565
-0.22448
-0.27402
-0.273209
-0.271858
-0.270075
-0.268064
-0.265979
-0.263933
-0.261999
-0.260218
-0.258598
-0.257121
-0.255747
-0.254417
-0.253058
-0.251587
-0.249922
-0.247988
-0.245722
-0.243096
-0.240083
-0.236751
-0.233073
-0.229264
-0.225409
-0.221197
-0.276256
-0.27526
-0.273725
-0.271728
-0.2695
-0.267202
-0.264952
-0.262828
-0.260866
-0.259069
-0.257413
-0.255845
-0.254294
-0.252678
-0.250906
-0.248894
-0.246574
-0.243896
-0.240853
-0.237435
-0.233736
-0.229704
-0.225685
-0.221181
-0.217529
-0.27868
-0.27747
-0.275737
-0.273513
-0.271058
-0.26854
-0.266082
-0.263761
-0.261611
-0.259626
-0.257771
-0.255981
-0.254174
-0.252256
-0.250134
-0.247727
-0.244981
-0.241864
-0.23839
-0.23457
-0.230513
-0.226175
-0.221867
-0.217139
-0.213131
-0.281309
-0.279853
-0.277906
-0.275443
-0.272751
-0.270007
-0.267335
-0.264812
-0.262464
-0.260275
-0.258197
-0.256151
-0.254044
-0.251774
-0.249252
-0.246407
-0.243202
-0.239629
-0.235724
-0.231517
-0.227124
-0.222506
-0.217953
-0.213036
-0.208724
-0.284161
-0.282425
-0.280248
-0.277532
-0.274593
-0.271616
-0.268726
-0.265992
-0.263432
-0.261018
-0.258686
-0.256344
-0.253887
-0.251215
-0.248245
-0.244923
-0.241237
-0.237203
-0.232876
-0.228304
-0.223601
-0.218738
-0.213973
-0.208916
-0.204441
-0.287253
-0.285201
-0.282777
-0.279794
-0.276599
-0.273382
-0.270265
-0.267309
-0.264521
-0.261856
-0.259232
-0.256546
-0.253687
-0.25056
-0.247097
-0.243271
-0.239091
-0.2346
-0.22987
-0.224958
-0.219975
-0.214896
-0.209953
-0.204788
-0.200197
-0.290601
-0.288194
-0.285506
-0.282242
-0.278782
-0.275317
-0.271964
-0.268773
-0.265733
-0.262782
-0.259822
-0.256738
-0.253422
-0.249791
-0.2458
-0.241448
-0.236773
-0.231839
-0.226728
-0.221503
-0.216268
-0.210998
-0.205903
-0.200646
-0.195986
-0.294219
-0.291417
-0.288449
-0.284891
-0.281155
-0.277434
-0.273833
-0.270388
-0.267067
-0.263788
-0.260439
-0.256901
-0.253073
-0.248893
-0.244345
-0.239458
-0.234296
-0.228937
-0.223469
-0.217958
-0.212494
-0.207054
-0.201826
-0.196489
-0.191769
-0.29812
-0.294882
-0.291618
-0.287752
-0.28373
-0.279743
-0.275879
-0.272155
-0.268516
-0.264861
-0.261065
-0.257012
-0.25262
-0.247853
-0.242729
-0.237308
-0.231671
-0.22591
-0.220111
-0.214337
-0.208665
-0.20307
-0.19772
-0.192307
-0.187533
-0.302316
-0.298602
-0.295026
-0.290838
-0.286521
-0.282254
-0.278108
-0.274074
-0.270072
-0.265983
-0.261677
-0.257049
-0.252044
-0.246662
-0.240953
-0.235004
-0.228912
-0.222771
-0.216665
-0.210647
-0.204783
-0.199045
-0.193579
-0.188094
-0.183263
-0.306815
-0.302586
-0.298683
-0.294162
-0.289537
-0.284976
-0.280522
-0.276138
-0.271719
-0.267131
-0.262248
-0.256988
-0.25133
-0.245312
-0.239019
-0.232555
-0.226028
-0.219531
-0.213137
-0.206893
-0.200849
-0.194975
-0.189399
-0.183843
-0.178952
-0.311626
-0.306842
-0.3026
-0.297733
-0.292789
-0.287914
-0.283119
-0.278336
-0.273437
-0.26828
-0.262754
-0.256808
-0.250465
-0.243801
-0.236928
-0.229968
-0.223028
-0.216195
-0.209532
-0.203075
-0.19686
-0.190857
-0.185172
-0.179546
-0.174591
-0.316754
-0.311379
-0.306785
-0.301561
-0.296283
-0.291068
-0.285892
-0.280652
-0.275202
-0.269401
-0.263166
-0.256489
-0.249436
-0.242124
-0.234685
-0.227248
-0.219916
-0.212766
-0.205849
-0.19919
-0.192811
-0.186683
-0.180892
-0.175196
-0.170174
-0.322201
-0.3162
-0.311245
-0.305653
-0.300022
-0.294437
-0.288829
-0.283064
-0.276983
-0.270462
-0.263457
-0.256011
-0.248236
-0.24028
-0.232292
-0.224398
-0.216694
-0.209244
-0.202086
-0.195233
-0.188696
-0.182447
-0.17655
-0.170787
-0.165695
-0.327965
-0.321308
-0.315984
-0.310012
-0.304007
-0.298012
-0.29191
-0.285542
-0.278747
-0.271432
-0.263603
-0.255359
-0.246856
-0.238268
-0.229748
-0.221418
-0.213361
-0.205626
-0.198237
-0.191198
-0.184508
-0.17814
-0.172141
-0.166311
-0.161148
-0.334043
-0.326702
-0.321002
-0.314637
-0.308231
-0.301777
-0.295111
-0.288054
-0.280458
-0.272276
-0.263577
-0.254517
-0.24529
-0.236084
-0.227053
-0.218307
-0.209913
-0.201905
-0.194295
-0.187076
-0.18024
-0.173756
-0.167656
-0.161763
-0.156528
-0.340425
-0.332377
-0.326297
-0.319524
-0.312683
-0.30571
-0.298399
-0.290558
-0.282075
-0.272962
-0.263358
-0.253473
-0.24353
-0.233726
-0.224204
-0.21506
-0.206345
-0.198076
-0.190252
-0.182861
-0.175882
-0.169287
-0.163089
-0.157135
-0.151828
-0.347096
-0.338324
-0.331861
-0.324661
-0.317343
-0.309783
-0.301734
-0.293013
-0.283558
-0.273459
-0.262925
-0.252214
-0.24157
-0.231187
-0.221195
-0.211671
-0.202648
-0.194129
-0.186101
-0.178542
-0.171427
-0.164724
-0.158433
-0.152423
-0.147045
-0.354038
-0.344529
-0.337678
-0.33003
-0.322185
-0.313957
-0.30507
-0.295369
-0.284866
-0.273735
-0.262257
-0.250728
-0.239401
-0.228461
-0.21802
-0.208133
-0.198814
-0.190055
-0.181831
-0.174112
-0.166866
-0.160061
-0.153682
-0.14762
-0.142173
-0.361224
-0.350971
-0.34373
-0.335607
-0.327173
-0.318186
-0.308355
-0.297579
-0.285958
-0.273763
-0.261336
-0.249002
-0.237014
-0.225539
-0.214668
-0.204434
-0.194834
-0.185845
-0.177433
-0.169561
-0.162192
-0.155289
-0.148828
-0.142721
-0.137207
-0.368621
-0.357625
-0.349989
-0.341357
-0.332265
-0.322417
-0.311533
-0.29959
-0.286795
-0.273514
-0.260143
-0.247023
-0.234398
-0.222412
-0.21113
-0.200565
-0.190696
-0.181488
-0.172898
-0.164881
-0.157396
-0.150403
-0.143867
-0.137719
-0.132142
-0.37619
-0.364457
-0.356421
-0.347238
-0.337407
-0.326591
-0.314545
-0.301352
-0.287339
-0.272962
-0.25866
-0.244779
-0.231542
-0.219068
-0.207395
-0.196514
-0.186389
-0.176973
-0.168215
-0.160063
-0.15247
-0.145394
-0.138791
-0.132609
-0.126975
-0.383885
-0.371427
-0.362981
-0.3532
-0.342539
-0.330641
-0.317329
-0.302814
-0.287553
-0.272081
-0.256869
-0.242254
-0.228433
-0.215494
-0.203449
-0.192269
-0.181902
-0.172291
-0.163375
-0.155098
-0.147407
-0.140257
-0.133596
-0.127387
-0.1217
-0.391649
-0.378487
-0.369618
-0.359182
-0.347592
-0.334498
-0.319822
-0.303928
-0.287402
-0.270848
-0.254753
-0.239434
-0.225057
-0.211677
-0.19928
-0.187818
-0.177224
-0.16743
-0.158369
-0.149978
-0.1422
-0.134985
-0.128276
-0.122047
-0.116315
-0.399422
-0.38558
-0.376273
-0.365117
-0.352493
-0.338088
-0.321961
-0.304646
-0.286852
-0.269238
-0.252292
-0.236302
-0.221398
-0.207602
-0.194875
-0.183148
-0.172343
-0.162381
-0.153188
-0.144696
-0.136842
-0.129572
-0.122826
-0.116585
-0.110816
-0.407133
-0.392644
-0.382876
-0.370929
-0.35716
-0.341335
-0.323685
-0.304922
-0.285871
-0.267228
-0.249468
-0.232843
-0.217443
-0.203256
-0.19022
-0.178248
-0.167248
-0.157134
-0.147823
-0.139243
-0.131326
-0.124013
-0.117242
-0.110998
-0.1052
-0.414706
-0.399606
-0.389351
-0.376533
-0.361509
-0.344165
-0.324935
-0.304715
-0.284428
-0.264795
-0.246262
-0.229038
-0.213174
-0.198624
-0.185302
-0.173104
-0.161929
-0.151679
-0.142267
-0.133613
-0.125647
-0.118303
-0.11152
-0.10528
-0.0994643
-0.422059
-0.406389
-0.395615
-0.381841
-0.365453
-0.346502
-0.325653
-0.303981
-0.282495
-0.261916
-0.242654
-0.224872
-0.208576
-0.193691
-0.180108
-0.167707
-0.156375
-0.146008
-0.136511
-0.127799
-0.119798
-0.112437
-0.105655
-0.0994304
-0.0936073
-0.429101
-0.412908
-0.401577
-0.38676
-0.368904
-0.348274
-0.325785
-0.302684
-0.280042
-0.258569
-0.238626
-0.220326
-0.203634
-0.188444
-0.174625
-0.162044
-0.150577
-0.140112
-0.130548
-0.121796
-0.113775
-0.106412
-0.0996447
-0.0934455
-0.0876299
-0.435739
-0.419072
-0.407142
-0.391193
-0.371774
-0.349411
-0.325279
-0.300786
-0.277044
-0.254732
-0.234159
-0.215384
-0.198332
-0.182868
-0.168841
-0.156105
-0.144526
-0.133984
-0.124373
-0.115597
-0.107573
-0.100224
-0.0934867
-0.087325
-0.0815352
-0.441874
-0.424785
-0.412209
-0.395041
-0.373977
-0.349846
-0.324089
-0.298254
-0.273474
-0.250384
-0.229234
-0.210029
-0.192656
-0.17695
-0.162745
-0.149881
-0.138214
-0.127617
-0.117978
-0.109198
-0.101188
-0.0938697
-0.0871779
-0.0810683
-0.0753268
-0.447406
-0.429948
-0.416678
-0.398207
-0.375431
-0.349516
-0.322171
-0.295057
-0.269308
-0.245506
-0.223834
-0.204247
-0.186591
-0.17068
-0.156327
-0.143362
-0.131632
-0.121004
-0.111359
-0.102594
-0.0946171
-0.0873458
-0.0807158
-0.0746743
-0.0690033
-0.452231
-0.434459
-0.420443
-0.400593
-0.376057
-0.348366
-0.319483
-0.291165
-0.264524
-0.240077
-0.217942
-0.198021
-0.180126
-0.164045
-0.149578
-0.136542
-0.124776
-0.11414
-0.104511
-0.095781
-0.0878558
-0.0806493
-0.0740976
-0.0681419
-0.0625626
-0.456247
-0.438216
-0.423401
-0.402108
-0.375781
-0.346341
-0.315991
-0.286553
-0.259102
-0.234082
-0.211544
-0.19134
-0.173248
-0.157037
-0.142489
-0.129412
-0.117638
-0.10702
-0.0974303
-0.0887566
-0.0809016
-0.0737766
-0.0673195
-0.0614696
-0.0560037
-0.459349
-0.441116
-0.425453
-0.402662
-0.374537
-0.343395
-0.311661
-0.281196
-0.253021
-0.227503
-0.204624
-0.18419
-0.165948
-0.149646
-0.135054
-0.121969
-0.110216
-0.0996423
-0.0901147
-0.0815183
-0.073752
-0.0667243
-0.0603763
-0.0546512
-0.0493156
-0.461439
-0.443057
-0.4265
-0.402173
-0.372262
-0.339487
-0.306465
-0.275074
-0.246267
-0.220326
-0.197171
-0.176562
-0.158217
-0.141866
-0.127266
-0.114207
-0.102505
-0.092003
-0.0825623
-0.074065
-0.0664062
-0.0594908
-0.0532649
-0.0476735
-0.0424552
-0.462419
-0.443941
-0.426449
-0.400565
-0.368903
-0.33458
-0.300379
-0.26817
-0.238823
-0.21254
-0.189175
-0.168446
-0.150047
-0.13369
-0.119123
-0.106124
-0.0945046
-0.0841014
-0.0747729
-0.066397
-0.0588645
-0.0520783
-0.0459903
-0.0405308
-0.0353452
-0.462198
-0.443676
-0.425215
-0.397769
-0.364413
-0.328644
-0.293384
-0.260467
-0.230679
-0.204133
-0.180626
-0.159836
-0.141434
-0.125117
-0.110621
-0.0977178
-0.0862128
-0.0759374
-0.0667467
-0.0585152
-0.0511289
-0.0444906
-0.0385621
-0.0332421
-0.0279763
-0.460688
-0.442174
-0.422719
-0.393727
-0.358752
-0.321656
-0.285462
-0.251956
-0.221824
-0.195099
-0.171519
-0.150728
-0.132374
-0.116143
-0.101759
-0.0889882
-0.0776302
-0.067512
-0.0584854
-0.0504216
-0.0432034
-0.0367328
-0.0309821
-0.025803
-0.0205929
-0.457812
-0.439355
-0.418891
-0.388387
-0.35189
-0.313596
-0.276604
-0.242627
-0.212253
-0.185432
-0.16185
-0.141118
-0.122867
-0.106767
-0.0925373
-0.0799362
-0.0687584
-0.0588278
-0.0499921
-0.0421196
-0.0350938
-0.0288155
-0.0232598
-0.0181896
-0.0131965
-0.453497
-0.435145
-0.413671
-0.381707
-0.343802
-0.304452
-0.266801
-0.232477
-0.201962
-0.175131
-0.151618
-0.131008
-0.11291
-0.0969906
-0.0829577
-0.0705648
-0.0596012
-0.0498894
-0.0412729
-0.0336165
-0.0268013
-0.0207388
-0.0153868
-0.0104558
-0.00571999
-0.447683
-0.429481
-0.407007
-0.373656
-0.334472
-0.294218
-0.256052
-0.221504
-0.190951
-0.164194
-0.140824
-0.120397
-0.102508
-0.0868169
-0.0730247
-0.0608801
-0.050166
-0.0407012
-0.0323298
-0.0249144
-0.0183334
-0.0125054
-0.00737183
-0.00261233
0.00186132
-0.440317
-0.422311
-0.398861
-0.36421
-0.323891
-0.282893
-0.244359
-0.20971
-0.179223
-0.152626
-0.12947
-0.109286
-0.0916689
-0.076254
-0.0627482
-0.0508863
-0.0404547
-0.0312684
-0.0231698
-0.0160197
-0.00969579
-0.00412103
0.000776129
0.0053404
0.00954894
-0.431357
-0.41359
-0.389202
-0.353358
-0.31206
-0.270481
-0.231727
-0.197103
-0.166783
-0.140431
-0.11756
-0.0976814
-0.0804055
-0.0653112
-0.0521288
-0.04059
-0.0304755
-0.0215986
-0.0138001
-0.00693959
-0.00089498
0.00440707
0.00904978
0.0134019
0.0173373
-0.420772
-0.403288
-0.378013
-0.341096
-0.298984
-0.256993
-0.218169
-0.183693
-0.153641
-0.127619
-0.10511
-0.0856154
-0.0687052
-0.0539914
-0.0411777
-0.0300004
-0.0202372
-0.0117002
-0.004229
0.00231777
0.00806136
0.0130712
0.0174424
0.0215684
0.0252192
-0.408542
-0.391382
-0.365286
-0.32743
-0.284677
-0.242445
-0.203698
-0.169491
-0.139809
-0.114207
-0.0921341
-0.073076
-0.0565936
-0.0423062
-0.0299054
-0.0191278
-0.00974991
-0.00158296
0.00553407
0.0117433
0.0171645
0.0218629
0.0259467
0.0298339
0.0331872
-0.394658
-0.377865
-0.351027
-0.312375
-0.26916
-0.226859
-0.188334
-0.154516
-0.12531
-0.100209
-0.0786401
-0.0600809
-0.0440835
-0.0302693
-0.0183242
-0.00798401
0.000975062
0.00874221
0.0154786
0.0213269
0.0264046
0.030773
0.0345544
0.0381905
0.0412335
-0.379122
-0.362738
-0.335248
-0.295954
-0.252459
-0.210261
-0.172102
-0.138796
-0.11016
-0.0856402
-0.0646464
-0.0466473
-0.0311901
-0.0178957
-0.00644806
0.00341764
0.0119251
0.0192632
0.0255931
0.0310574
0.035771
0.0397913
0.043256
0.0466288
0.0493492
-0.361948
-0.346015
-0.317974
-0.278199
-0.234611
-0.192683
-0.155031
-0.122354
-0.0943801
-0.0705223
-0.0501733
-0.0327945
-0.0179305
-0.00520194
0.00570747
0.0150625
0.0230863
0.0299669
0.035865
0.0409227
0.0452521
0.0489067
0.0520409
0.0551385
0.0575242
-0.343161
-0.327725
-0.299235
-0.259151
-0.215661
-0.174158
-0.137154
-0.105216
-0.0779975
-0.0548804
-0.0352435
-0.0185434
-0.00432402
0.00779372
0.0181253
0.0269346
0.0344435
0.0408389
0.0462805
0.0509097
0.0548351
0.058107
0.0608974
0.0637077
0.0657472
-0.322796
-0.3079
-0.279075
-0.238867
-0.195648
-0.154722
-0.118505
-0.0874143
-0.0610423
-0.0387417
-0.019882
-0.00391731
0.00960792
0.0210714
0.0307869
0.0390166
0.0459805
0.0518639
0.0568251
0.0610045
0.0645064
0.0673792
0.0698128
0.072323
0.0740055
-0.300899
-0.286587
-0.257552
-0.217425
-0.174564
-0.134434
-0.0991261
-0.0689871
-0.0435475
-0.0221363
-0.00411636
0.0110585
0.023842
0.0346095
0.0436722
0.0512899
0.05768
0.0630256
0.0674836
0.0711921
0.0742516
0.0767091
0.0787729
0.0809693
0.0822839
-0.27752
-0.263845
-0.234745
-0.194871
-0.152475
-0.113329
-0.0790627
-0.0499745
-0.0255491
-0.00509681
0.0120236
0.0263566
0.0383531
0.0483849
0.0567599
0.0637347
0.0695237
0.074307
0.0782396
0.0814572
0.0840556
0.086082
0.0877625
0.0896284
0.0905609
-0.252714
-0.239753
-0.210722
-0.171071
-0.129604
-0.0914758
-0.0583628
-0.0304198
-0.00708598
0.0123417
0.0285058
0.0419479
0.0531145
0.0623731
0.0700274
0.0763302
0.0814922
0.0856903
0.0890766
0.0917839
0.093903
0.0954825
0.0967649
0.0982784
0.0988094
-0.22655
-0.214404
-0.185486
-0.146285
-0.10589
-0.0689331
-0.0370791
-0.0103688
0.0118005
0.0301416
0.0452963
0.0578013
0.0680977
0.0765479
0.0834509
0.0890546
0.0935655
0.0971568
0.0999775
0.102156
0.103778
0.104895
0.105763
0.106897
0.107007
-0.199109
-0.187894
-0.158984
-0.120697
-0.0814101
-0.045761
-0.0152668
0.0101296
0.0310665
0.0482635
0.062359
0.0738839
0.0832729
0.0908823
0.0970053
0.101885
0.105723
0.108688
0.110925
0.112557
0.113665
0.114305
0.114744
0.115471
0.115139
-0.170474
-0.160268
-0.131482
-0.0942819
-0.056244
-0.0220239
0.0070168
0.0310242
0.050666
0.0666656
0.0796562
0.0901615
0.0986087
0.105347
0.110665
0.114797
0.117942
0.120263
0.121901
0.12297
0.123547
0.123698
0.1237
0.123987
0.123157
-0.140734
-0.131547
-0.103203
-0.0671141
-0.0304703
0.00221034
0.029712
0.0522615
0.0705509
0.0853045
0.0971485
0.106598
0.114073
0.119914
0.124402
0.127768
0.130202
0.131863
0.132887
0.133379
0.13341
0.133065
0.132624
0.132399
0.13091
-0.110033
-0.101904
-0.07417
-0.0392864
-0.0041679
0.0268717
0.0527566
0.0737858
0.0906712
0.104135
0.114795
0.123157
0.129631
0.134551
0.138189
0.14077
0.142478
0.143468
0.143866
0.143768
0.143244
0.142407
0.141498
0.140591
0.138214
-0.0785718
-0.0713597
-0.044453
-0.0108945
0.0225814
0.051888
0.0760864
0.0955398
0.110975
0.12311
0.132553
0.139799
0.145249
0.149227
0.151998
0.153779
0.154749
0.155055
0.154818
0.154123
0.15305
0.151737
0.150313
0.148491
0.145108
-0.0463653
-0.0400885
-0.014146
0.0179656
0.0496931
0.0771851
0.0996354
0.117464
0.13141
0.142183
0.15038
0.156486
0.160891
0.163909
0.165798
0.166767
0.166989
0.166604
0.165725
0.164432
0.162823
0.161054
0.159078
0.156272
0.152148
-0.0135196
-0.00822575
0.0166474
0.0471961
0.0770808
0.102687
0.123336
0.139499
0.15192
0.161303
0.168231
0.173177
0.17652
0.178565
0.17956
0.179707
0.179172
0.17809
0.176565
0.174676
0.172542
0.170309
0.167735
0.164034
0.160986
0.0198388
0.0241068
0.0478175
0.0766975
0.104656
0.128316
0.147119
0.161582
0.172452
0.180421
0.186062
0.189831
0.192099
0.193159
0.193252
0.192571
0.191274
0.18949
0.187316
0.184834
0.182169
0.179426
0.176255
0.172138
0.169731
0.0535833
0.0567879
0.0792512
0.106369
0.132331
0.153993
0.170916
0.183651
0.192948
0.199487
0.203825
0.206407
0.207591
0.20766
0.206844
0.20533
0.203268
0.20078
0.197958
0.194885
0.191683
0.188412
0.184705
0.180305
0.17794
0.0875866
0.0896953
0.110834
0.136109
0.160015
0.17964
0.194654
0.205642
0.213352
0.218448
0.221475
0.222863
0.222957
0.22203
0.220304
0.217955
0.215128
0.211936
0.208467
0.204804
0.20106
0.197264
0.193077
0.188415
0.185839
0.121719
0.122706
0.142451
0.165814
0.187617
0.205177
0.218264
0.227493
0.233606
0.237254
0.238965
0.239156
0.238159
0.236237
0.2336
0.230418
0.226826
0.222933
0.218821
0.21457
0.210282
0.205967
0.201324
0.196366
0.193471
0.155852
0.155695
0.173986
0.195383
0.215048
0.230523
0.241674
0.249139
0.253653
0.255853
0.256249
0.255245
0.253159
0.250244
0.2467
0.242689
0.238337
0.233747
0.228996
0.224161
0.219331
0.214508
0.20942
0.204138
0.200875
0.189855
0.188539
0.205325
0.224714
0.242218
0.255599
0.264813
0.270517
0.273437
0.274193
0.27328
0.271087
0.267919
0.264017
0.259574
0.254739
0.249634
0.244354
0.238971
0.233555
0.22819
0.222867
0.217338
0.211716
0.208062
0.223597
0.221113
0.236355
0.253706
0.269037
0.280326
0.28761
0.291564
0.2929
0.292223
0.290012
0.28664
0.2824
0.277522
0.272188
0.26654
0.260691
0.254729
0.248721
0.242733
0.23684
0.231025
0.225061
0.219091
0.215035
0.256951
0.253295
0.266962
0.282258
0.295418
0.304626
0.309997
0.312216
0.311986
0.309892
0.306398
0.301862
0.296565
0.290725
0.284513
0.278064
0.271482
0.264849
0.258227
0.251676
0.245262
0.238964
0.232572
0.226253
0.221788
0.289789
0.284964
0.297036
0.310273
0.321273
0.328422
0.331904
0.332413
0.330639
0.327151
0.322394
0.316714
0.310377
0.303591
0.296518
0.289282
0.281981
0.274691
0.267466
0.260362
0.253439
0.246668
0.239856
0.233191
0.228314
0.321986
0.316
0.326468
0.337654
0.346518
0.351638
0.353263
0.352093
0.348805
0.343949
0.337956
0.331154
0.3238
0.316088
0.308172
0.300167
0.292164
0.284231
0.276418
0.268775
0.261353
0.254121
0.246901
0.239893
0.234604
0.35342
0.346287
0.355152
0.364307
0.371069
0.374201
0.374008
0.371198
0.36643
0.360239
0.353039
0.345144
0.336797
0.328183
0.319446
0.310692
0.302005
0.293447
0.285061
0.276894
0.268988
0.261308
0.253692
0.246349
0.240648
0.383971
0.37571
0.382985
0.390141
0.394846
0.396037
0.394076
0.389669
0.383463
0.375975
0.367601
0.358644
0.349334
0.339845
0.330311
0.320831
0.311482
0.302317
0.293377
0.284702
0.276326
0.268213
0.260215
0.252545
0.246437
0.413523
0.404159
0.409868
0.415068
0.41777
0.417078
0.413403
0.407451
0.399853
0.391109
0.381602
0.371618
0.361377
0.351043
0.34074
0.330559
0.32057
0.310821
0.301347
0.292181
0.283353
0.274822
0.266458
0.25847
0.25196
0.441963
0.431528
0.435704
0.439002
0.439766
0.437257
0.43193
0.424489
0.415551
0.4056
0.395001
0.38403
0.372894
0.361748
0.350706
0.339852
0.329249
0.318938
0.308951
0.299314
0.290052
0.281121
0.272407
0.264112
0.257208
0.469185
0.457715
0.4604
0.461861
0.460761
0.456509
0.449598
0.440732
0.430511
0.419403
0.40776
0.395846
0.383854
0.371931
0.360182
0.348685
0.337495
0.326649
0.316172
0.306086
0.296409
0.287097
0.278051
0.269461
0.262173
0.495086
0.482622
0.483869
0.483568
0.480686
0.474771
0.466353
0.45613
0.444688
0.43248
0.419844
0.407031
0.394226
0.381565
0.369145
0.357037
0.34529
0.333935
0.322993
0.31248
0.302409
0.292738
0.283377
0.274504
0.266846
0.519567
0.506157
0.506028
0.504048
0.499476
0.491987
0.482142
0.470635
0.458039
0.444791
0.431217
0.417556
0.403983
0.390624
0.377571
0.364887
0.352614
0.340779
0.329397
0.318483
0.308041
0.29803
0.288374
0.279233
0.271218
0.542536
0.528232
0.526797
0.523233
0.517069
0.5081
0.496915
0.484203
0.470524
0.456301
0.441847
0.427391
0.413097
0.399085
0.385438
0.372213
0.359448
0.347163
0.335371
0.32408
0.31329
0.302962
0.293031
0.283637
0.275282
0.563907
0.548766
0.546104
0.541056
0.533407
0.523059
0.510626
0.496794
0.482107
0.466976
0.451704
0.436507
0.421544
0.406924
0.392725
0.378998
0.365775
0.353073
0.340899
0.329258
0.318145
0.307523
0.297338
0.287708
0.279031
0.5836
0.567682
0.56388
0.557458
0.548436
0.536816
0.523233
0.508367
0.492751
0.476785
0.460758
0.44488
0.429299
0.414121
0.399414
0.385224
0.37158
0.358493
0.345968
0.334005
0.322595
0.311703
0.301285
0.291437
0.282459
0.601541
0.584912
0.580062
0.572382
0.562107
0.549327
0.534696
0.518888
0.502426
0.485697
0.468984
0.452485
0.436343
0.420655
0.405485
0.390875
0.376847
0.363411
0.350567
0.33831
0.32663
0.315494
0.304864
0.294815
0.28556
0.617662
0.600391
0.594594
0.585779
0.574375
0.560551
0.544978
0.528324
0.511101
0.493688
0.476357
0.459301
0.442655
0.426509
0.410924
0.395937
0.381565
0.367814
0.354683
0.342164
0.330242
0.318885
0.308066
0.297837
0.288329
0.631904
0.614063
0.607424
0.597603
0.585201
0.570454
0.554048
0.536645
0.518751
0.500734
0.482857
0.465309
0.448217
0.431668
0.415716
0.400395
0.385719
0.371692
0.358308
0.345556
0.33342
0.32187
0.310885
0.300496
0.290762
0.644213
0.625878
0.618507
0.607814
0.594548
0.579003
0.561877
0.543828
0.525352
0.506813
0.488465
0.470492
0.453015
0.436116
0.419848
0.404239
0.389301
0.375034
0.361432
0.34848
0.336159
0.324443
0.313313
0.302785
0.292855
0.654543
0.635791
0.627804
0.616378
0.602385
0.586171
0.56844
0.549848
0.530886
0.511907
0.493165
0.474834
0.457034
0.439843
0.423309
0.407459
0.3923
0.377833
0.364047
0.350928
0.338452
0.326596
0.315346
0.304702
0.294605
0.662856
0.643769
0.635284
0.623266
0.608688
0.591934
0.573717
0.554688
0.535334
0.516002
0.496942
0.478324
0.460264
0.442838
0.42609
0.410045
0.39471
0.380082
0.366149
0.352894
0.340293
0.328325
0.316979
0.30624
0.296008
0.66912
0.64978
0.640919
0.628454
0.613435
0.596275
0.577691
0.558333
0.538683
0.519086
0.499786
0.480952
0.462696
0.445093
0.428184
0.411993
0.396524
0.381774
0.36773
0.354373
0.341679
0.329626
0.318208
0.307398
0.297064
0.673313
0.653803
0.64469
0.631926
0.616612
0.599179
0.580349
0.560772
0.540924
0.521149
0.501689
0.48271
0.464323
0.446601
0.429585
0.413295
0.397738
0.382906
0.368788
0.355363
0.342606
0.330497
0.31903
0.308172
0.29777
0.675418
0.655823
0.646583
0.63367
0.618207
0.600637
0.581685
0.561997
0.542049
0.522185
0.502644
0.483593
0.465141
0.447359
0.430288
0.41395
0.398347
0.383475
0.36932
0.355861
0.343073
0.330935
0.319444
0.308562
0.298125
-0.242924
-0.239207
-0.235323
-0.231384
-0.227499
-0.229564
-0.223817
-0.225807
-0.217528
-0.220366
-0.204651
-0.20897
-0.19277
-0.197776
-0.181653
-0.186974
-0.171172
-0.176707
-0.161434
-0.167077
-0.152437
-0.158113
-0.144154
-0.149812
-0.136555
-0.142155
-0.129597
-0.135115
-0.123236
-0.128655
-0.117431
-0.122739
-0.11214
-0.117332
-0.107325
-0.112399
-0.102951
-0.107907
-0.0989875
-0.103827
-0.0954039
-0.100132
-0.092174
-0.0967965
-0.0892743
-0.0937972
-0.0866834
-0.091114
-0.0843826
-0.0887284
-0.0823553
-0.0866243
-0.0805871
-0.0847875
-0.0790653
-0.0832056
-0.0777792
-0.0818679
-0.0767198
-0.0807656
-0.0758801
-0.0798915
-0.0752526
-0.0792394
-0.0748381
-0.0788073
-0.0746197
-0.0785864
-0.211653
-0.197897
-0.185691
-0.174849
-0.164573
-0.155108
-0.14642
-0.138441
-0.131137
-0.124457
-0.118354
-0.112788
-0.107716
-0.103104
-0.0989165
-0.0951222