/*--------------------------------*- C++ -*----------------------------------*\
  =========                 |
  \\      /  F ield         | OpenFOAM: The Open Source CFD Toolbox
   \\    /   O peration     | Website:  https://openfoam.org
    \\  /    A nd           | Version:  7
     \\/     M anipulation  |
\*---------------------------------------------------------------------------*/
FoamFile
{
    version     2.0;
    format      ascii;
    class       surfaceScalarField;
    location    "65";
    object      phi;
}
// * * * * * * * * * * * * * * * * * * * * * * * * * * * * * * * * * * * * * //

dimensions      [0 3 -1 0 0 0 0];

internalField   nonuniform List<scalar> 
11803
(
-3.85235e-06
4.9582e-06
-1.34897e-05
1.23857e-05
-2.7712e-05
1.82204e-05
-4.55589e-05
2.2773e-05
-6.62802e-05
2.63269e-05
-8.92959e-05
2.91204e-05
-0.000114164
3.13503e-05
-0.000140552
3.3174e-05
-0.000168214
3.4711e-05
-0.000196964
3.60451e-05
-0.000226661
3.72283e-05
-0.000257188
3.82863e-05
-0.00028844
3.92235e-05
-0.000320314
4.00288e-05
-0.000352704
4.0681e-05
-0.000385498
4.11551e-05
-0.000418587
4.14287e-05
-0.000451874
4.14901e-05
-0.000485306
4.13476e-05
4.10382e-05
-3.81339e-06
8.77159e-06
-1.3361e-05
2.19333e-05
-2.74563e-05
3.23157e-05
-4.51471e-05
4.04638e-05
-6.56872e-05
4.6867e-05
-8.84979e-05
5.19311e-05
-0.000113136
5.59889e-05
-0.000139269
5.93066e-05
-0.000166646
6.20881e-05
-0.00019508
6.4479e-05
-0.000224426
6.6574e-05
-0.000254564
6.84242e-05
-0.000285386
7.00459e-05
-0.000316787
7.14293e-05
-0.000348654
7.25488e-05
-0.000380873
7.33733e-05
-0.000413323
7.38792e-05
-0.000445899
7.4066e-05
-0.000478527
7.39751e-05
7.37087e-05
-3.74242e-06
1.2514e-05
-1.31258e-05
3.13167e-05
-2.69873e-05
4.61773e-05
-4.43889e-05
5.78654e-05
-6.4591e-05
6.70691e-05
-8.70168e-05
7.43569e-05
-0.000111222
8.01941e-05
-0.000136869
8.49536e-05
-0.000163703
8.89221e-05
-0.000191531
9.23067e-05
-0.000220201
9.52441e-05
-0.000249587
9.78106e-05
-0.000279576
0.000100034
-0.000310053
0.000101906
-0.000340899
0.000103395
-0.000371986
0.000104461
-0.000403179
0.000105072
-0.000434347
0.000105234
-0.000465379
0.000105007
0.000104548
-3.64086e-06
1.61549e-05
-1.27884e-05
4.04643e-05
-2.6313e-05
5.97019e-05
-4.3296e-05
7.48484e-05
-6.30071e-05
8.67802e-05
-8.48716e-05
9.62214e-05
-0.000108443
0.000103765
-0.000133377
0.000109888
-0.000159412
0.000114957
-0.000186346
0.000119241
-0.000214017
0.000122915
-0.00024229
0.000126084
-0.00027104
0.000128784
-0.000300143
0.000131009
-0.000329466
0.000132718
-0.000358864
0.000133859
-0.000388178
0.000134387
-0.000417242
0.000134297
-0.000445894
0.000133659
-0.000474006
0.00013266
0.000131652
-3.5108e-06
1.96657e-05
-1.23551e-05
4.93085e-05
-2.54448e-05
7.27916e-05
-4.18854e-05
9.1289e-05
-6.09579e-05
0.000105853
-8.209e-05
0.000117354
-0.000104831
0.000126507
-0.000128831
0.000133888
-0.000153815
0.000139942
-0.000179571
0.000144996
-0.000205922
0.000149267
-0.000232721
0.000152882
-0.000259827
0.000155891
-0.000287102
0.000158284
-0.000314396
0.000160012
-0.000341542
0.000161005
-0.000368352
0.000161197
-0.000394616
0.000160561
-0.000420109
0.000159152
-0.000444614
0.000157165
0.000154998
-3.35489e-06
2.30206e-05
-1.18339e-05
5.77876e-05
-2.43975e-05
8.53552e-05
-4.01792e-05
0.000107071
-5.84727e-05
0.000124146
-7.87082e-05
0.000137589
-0.00010043
0.000148229
-0.000123278
0.000156735
-0.000146966
0.000163629
-0.000171262
0.000169292
-0.000195977
0.000173981
-0.000220942
0.000177847
-0.000245999
0.000180948
-0.000270991
0.000183275
-0.000295745
0.000184766
-0.000320068
0.000185328
-0.000343739
0.000184868
-0.0003665
0.000183321
-0.000388055
0.000180708
-0.000408086
0.000177196
0.000173191
-3.17634e-06
2.61969e-05
-1.12347e-05
6.58459e-05
-2.31891e-05
9.73096e-05
-3.8204e-05
0.000122086
-5.5587e-05
0.000141529
-7.47701e-05
0.000156772
-9.52919e-05
0.000168751
-0.000116779
0.000178223
-0.000138929
0.000185779
-0.000161492
0.000191856
-0.000184256
0.000196745
-0.00020703
0.000200621
-0.000229633
0.000203551
-0.000251882
0.000205524
-0.000273577
0.000206461
-0.000294496
0.000206247
-0.000314379
0.000204751
-0.000332917
0.00020186
-0.000349745
0.000197535
-0.000364434
0.000191886
0.000185275
-2.97881e-06
2.91757e-05
-1.05685e-05
7.34356e-05
-2.18401e-05
0.000108581
-3.59907e-05
0.000136236
-5.23417e-05
0.00015788
-7.03266e-05
0.000174757
-8.94759e-05
0.0001879
-0.000109402
0.000198149
-0.000129782
0.00020616
-0.000150344
0.000212417
-0.000170849
0.00021725
-0.000191077
0.00022085
-0.00021082
0.000223294
-0.00022986
0.000224564
-0.000247968
0.000224569
-0.000264884
0.000223163
-0.000280306
0.000220173
-0.000293876
0.000215429
-0.000305154
0.000208814
-0.000313611
0.000200343
0.000190285
-2.76637e-06
3.19421e-05
-9.8478e-06
8.05171e-05
-2.03735e-05
0.000119107
-3.35734e-05
0.000149436
-4.87825e-05
0.000173089
-6.54344e-05
0.000191409
-8.30498e-05
0.000205515
-0.000101224
0.000216323
-0.000119611
0.000224547
-0.00013791
0.000230717
-0.000155852
0.000235192
-0.000173184
0.000238181
-0.000189658
0.000239768
-0.000205021
0.000239927
-0.000219
0.000238548
-0.000231294
0.000235457
-0.000241552
0.000230432
-0.000249362
0.000223239
-0.000254219
0.00021367
-0.000255495
0.000201619
0.000187212
-2.54335e-06
3.44854e-05
-9.0858e-06
8.70595e-05
-1.88138e-05
0.000128835
-3.09889e-05
0.000161611
-4.49586e-05
0.000187059
-6.01547e-05
0.000206605
-7.6086e-05
0.000221447
-9.23274e-05
0.000232564
-0.000108507
0.000240726
-0.000124291
0.000246501
-0.000139373
0.000250274
-0.000153459
0.000252268
-0.000166257
0.000252566
-0.000177465
0.000251135
-0.000186759
0.000247843
-0.000193785
0.000242482
-0.000198137
0.000234784
-0.000199341
0.000224443
-0.000196824
0.000211153
-0.000189874
0.000194669
0.000174938
-2.31426e-06
3.67997e-05
-8.29633e-06
9.30416e-05
-1.71867e-05
0.000137725
-2.8276e-05
0.0001727
-4.09217e-05
0.000199705
-5.4552e-05
0.000220235
-6.8661e-05
0.000235556
-8.28003e-05
0.000246703
-9.65669e-05
0.000254493
-0.00010959
0.000259524
-0.00012152
0.000262203
-0.000132013
0.000262761
-0.000140724
0.000261276
-0.000147291
0.000257702
-0.000151328
0.00025188
-0.000152411
0.000243566
-0.000150066
0.000232439
-0.000143747
0.000218124
-0.000132808
0.000200214
-0.000116459
0.00017832
0.00015217
-2.08368e-06
3.88834e-05
-7.49343e-06
9.84513e-05
-1.55182e-05
0.00014575
-2.54736e-05
0.000182656
-3.67243e-05
0.000210955
-4.86914e-05
0.000232202
-6.08519e-05
0.000247716
-7.27303e-05
0.000258582
-8.38882e-05
0.000265651
-9.39122e-05
0.000269548
-0.000102401
0.000270692
-0.000108955
0.000269314
-0.000113162
0.000265483
-0.000114589
0.000259129
-0.000112773
0.000250064
-0.000107205
0.000237998
-9.7322e-05
0.000222556
-8.24873e-05
0.000203289
-6.19664e-05
0.000179693
-3.48884e-05
0.000151242
-1.78991e-07
0.00011746
7.81085e-05
-1.85614e-06
4.07395e-05
-6.69092e-06
0.000103286
-1.3834e-05
0.000152893
-2.26206e-05
0.000191443
-3.2418e-05
0.000220753
-4.26372e-05
0.000242422
-5.27342e-05
0.000257813
-6.22024e-05
0.00026805
-7.05633e-05
0.000274011
-7.73538e-05
0.000276339
-8.21145e-05
0.000275453
-8.43773e-05
0.000271577
-8.36541e-05
0.00026476
-7.94263e-05
0.000254901
-7.11337e-05
0.000241771
-5.81643e-05
0.000225029
-3.98433e-05
0.000204235
-1.54182e-05
0.000178864
1.59596e-05
0.000148316
5.52669e-05
0.000111934
0.000103684
6.90435e-05
1.92242e-05
-1.63595e-06
4.23754e-05
-5.90203e-06
0.000107552
-1.21587e-05
0.00015915
-1.97537e-05
0.000199038
-2.80518e-05
0.000229051
-3.64498e-05
0.00025082
-4.43782e-05
0.000265741
-5.12948e-05
0.000274967
-5.66749e-05
0.000279391
-5.99989e-05
0.000279663
-6.07399e-05
0.000276194
-5.83512e-05
0.000269188
-5.22545e-05
0.000258663
-4.18287e-05
0.000244475
-2.63992e-05
0.000226342
-5.2276e-06
0.000203857
2.24988e-05
0.000176509
5.76764e-05
0.000143686
0.000101299
0.000104693
0.000154474
5.87595e-05
0.000218497
5.02063e-06
-5.69811e-05
-1.42711e-06
4.38026e-05
-5.13887e-06
0.000111264
-1.05147e-05
0.000164526
-1.69064e-05
0.000205429
-2.36702e-05
0.000235815
-3.01831e-05
0.000257333
-3.58454e-05
0.000271404
-4.00736e-05
0.000279195
-4.229e-05
0.000281608
-4.19101e-05
0.000279283
-3.83293e-05
0.000272613
-3.09097e-05
0.000261769
-1.89678e-05
0.000246722
-1.7624e-06
0.00022727
2.15167e-05
0.000203063
5.17578e-05
0.000173616
8.99366e-05
0.00013833
0.000137123
9.64996e-05
0.00019449
4.73264e-05
0.000263302
-1.00527e-05
0.000345014
-7.66911e-05
-0.000152863
-1.23316e-06
4.50357e-05
-4.41207e-06
0.000114443
-8.92149e-06
0.000169035
-1.41075e-05
0.000210615
-1.93103e-05
0.000241017
-2.38812e-05
0.000261904
-2.71841e-05
0.000274707
-2.85873e-05
0.000280598
-2.74522e-05
0.000280473
-2.31194e-05
0.00027495
-1.48945e-05
0.000264388
-2.03425e-06
0.000248909
1.62672e-05
0.00022842
4.08906e-05
0.000202647
7.28024e-05
0.000171151
0.000113065
0.000133353
0.000162842
8.85526e-05
0.000223402
3.59396e-05
0.000296119
-2.53899e-05
0.000382433
-9.63674e-05
0.000483997
-0.000178255
0.000602004
-0.00027087
-0.000379839
-1.05701e-06
4.60927e-05
-3.73026e-06
0.000117116
-7.39453e-06
0.000172699
-1.13792e-05
0.0002146
-1.5e-05
0.000244638
-1.75754e-05
0.000264479
-1.84252e-05
0.000275556
-1.68613e-05
0.000279034
-1.21743e-05
0.000275786
-3.61817e-06
0.000266394
9.60526e-06
0.000251165
2.83613e-05
0.000230153
5.35966e-05
0.000203185
8.63522e-05
0.000169891
0.000127774
0.000129729
0.000179118
8.20088e-05
0.000241757
2.59132e-05
0.000317172
-3.94754e-05
0.000406947
-0.000115165
0.000512695
-0.000202115
0.000636244
-0.000301804
0.00077874
-0.000413366
-0.000544313
-9.00849e-07
4.69936e-05
-3.09961e-06
0.000119315
-5.94449e-06
0.000175544
-8.73589e-06
0.000217391
-1.07557e-05
0.000246658
-1.12805e-05
0.000265004
-9.57723e-06
0.000273853
-4.89119e-06
0.000274348
3.56979e-06
0.000267325
1.66525e-05
0.000253311
3.52754e-05
0.000232542
6.04445e-05
0.000204983
9.32682e-05
0.000170361
0.000134969
0.00012819
0.000186892
7.78068e-05
0.000250506
1.83947e-05
0.000327401
-5.09818e-05
0.000419268
-0.000131343
0.000527884
-0.000223781
0.000654998
-0.000329228
0.000802516
-0.000449322
0.000971557
-0.000582406
-0.00073767
-7.65998e-07
4.77596e-05
-2.52345e-06
0.000121072
-4.57626e-06
0.000177597
-6.18264e-06
0.000218998
-6.57966e-06
0.000247055
-4.99171e-06
0.000263416
-6.22023e-07
0.000269483
7.3629e-06
0.000266363
1.98526e-05
0.000254835
3.78115e-05
0.000235352
6.22972e-05
0.000208056
9.44776e-05
0.000172803
0.000135644
0.000129195
0.000187221
7.66135e-05
0.000250768
1.42597e-05
0.000327975
-5.88121e-05
0.000420642
-0.000143649
0.000530644
-0.000241345
0.000659891
-0.000353028
0.000810191
-0.000479528
0.000983327
-0.000622458
0.00118038
-0.000779462
0.00140348
-0.000960766
-0.00113407
-6.52792e-07
4.84124e-05
-2.00183e-06
0.000122421
-3.2882e-06
0.000178883
-3.71359e-06
0.000219423
-2.45785e-06
0.000245799
1.31857e-06
0.000259639
8.48908e-06
0.000262313
1.99816e-05
0.000254871
3.67999e-05
0.000238017
6.00452e-05
0.000212107
9.09361e-05
0.000177165
0.000130824
0.000132915
0.000181204
7.88144e-05
0.000243718
1.40995e-05
0.000320148
-6.21697e-05
0.000412392
-0.000151056
0.00052243
-0.000253687
0.000652254
-0.000371169
0.000803794
-0.000504567
0.00097879
-0.000654524
0.00117861
-0.000822278
0.0014042
-0.00100505
0.00165648
-0.00121305
-0.0014082
-5.60489e-07
4.89729e-05
-1.53123e-06
0.000123392
-2.07144e-06
0.000179424
-1.31063e-06
0.000218662
1.64129e-06
0.000242847
7.70254e-06
0.000253578
1.78394e-05
0.000252176
3.30909e-05
0.000239619
5.4595e-05
0.000216513
8.36123e-05
0.00018309
0.000121545
0.000139233
0.000169948
8.45113e-05
0.000230538
1.82245e-05
0.00030518
-6.0542e-05
0.000395865
-0.000152854
0.000504665
-0.000259857
0.000633666
-0.000382688
0.000784863
-0.000522366
0.000960022
-0.000679727
0.00116062
-0.000855124
0.00138728
-0.00104893
0.00164056
-0.00125834
0.00191968
-0.00149217
-0.00170849
-4.87213e-07
4.94601e-05
-1.10429e-06
0.000124009
-9.09419e-07
0.000179229
1.05618e-06
0.000216697
5.76808e-06
0.000238136
1.42403e-05
0.000245106
2.75486e-05
0.000238868
4.68641e-05
0.000220304
7.34817e-05
0.000189895
0.000108844
0.000147727
0.000154559
9.35181e-05
0.000212405
2.66659e-05
0.000284322
-5.36925e-05
0.000372387
-0.000148608
0.000478765
-0.000259232
0.000605625
-0.000386716
0.00075503
-0.000532093
0.0009288
-0.000696136
0.0011283
-0.000879224
0.00135445
-0.00108127
0.00160681
-0.0013013
0.0018852
-0.00153673
0.00218679
-0.00179376
0.00250753
-0.00202923
-0.00237492
-4.2991e-07
4.989e-05
-7.09694e-07
0.000124289
2.23277e-07
0.000178296
3.42976e-06
0.00021349
9.99362e-06
0.000231572
2.10391e-05
0.000234061
3.77734e-05
0.000222133
6.15222e-05
0.000196555
9.37615e-05
0.000157656
0.000136139
0.000105349
0.000190487
3.91706e-05
0.000258812
-4.16589e-05
0.00034327
-0.000138151
0.000446114
-0.000251451
0.000569597
-0.000382716
0.00071586
-0.000532979
0.000886757
-0.00070299
0.00108369
-0.000893066
0.00130731
-0.00110285
0.00155764
-0.0013316
0.00183297
-0.00157664
0.00213193
-0.00183568
0.00244958
-0.0021114
0.00278291
-0.00236256
-0.00271717
-3.8435e-07
5.02743e-05
-3.31631e-07
0.000124236
1.3552e-06
0.000176609
5.8678e-06
0.000208978
1.44078e-05
0.000223032
2.82335e-05
0.000220235
4.87061e-05
0.000201661
7.73306e-05
0.00016793
0.000115787
0.000119199
0.00016595
5.51868e-05
0.000229882
-2.47617e-05
0.000309813
-0.00012159
0.000408078
-0.000236416
0.000527024
-0.000370397
0.000668871
-0.000524563
0.000835534
-0.000699642
0.00102841
-0.000895869
0.00124818
-0.00111283
0.00149448
-0.00134915
0.00176604
-0.00160316
0.00205982
-0.00187043
0.00237291
-0.00214877
0.00269855
-0.00243705
0.00303509
-0.0026991
-0.00305093
-3.45325e-07
5.06197e-05
5.26072e-08
0.000123838
2.52958e-06
0.000174132
8.4388e-06
0.000203068
1.91187e-05
0.000212352
3.59829e-05
0.000203371
6.0571e-05
0.000177073
9.45917e-05
0.00013391
0.000139951
7.38391e-05
0.000198761
-3.62242e-06
0.000273312
-9.93131e-05
0.000366022
-0.0002143
0.000479332
-0.000349726
0.000615559
-0.000506623
0.000776698
-0.000685702
0.000964194
-0.000887138
0.00117869
-0.00111036
0.00141978
-0.00135393
0.00168585
-0.00161522
0.00197404
-0.00189135
0.00228006
-0.00217644
0.00259936
-0.00246807
0.00292408
-0.00276177
0.00325398
-0.003029
-0.00336716
0.00357022
-3.07363e-07
5.0927e-05
4.44189e-07
0.000123087
3.78972e-06
0.000170786
1.12224e-05
0.000195636
2.42503e-05
0.000199324
4.44677e-05
0.000183153
7.36173e-05
0.000147923
0.000113634
9.38927e-05
0.000166666
2.08076e-05
0.000235059
-7.20157e-05
0.000321307
-0.000185561
0.00042795
-0.000320942
0.000557412
-0.000479189
0.0007118
-0.000661011
0.000892639
-0.00086654
0.0011006
-0.0010951
0.00133525
-0.00134501
0.00159483
-0.00161351
0.00187624
-0.00189663
0.002175
-0.0021901
0.00248577
-0.00248722
0.00280264
-0.00278494
0.00311771
-0.00307683
0.00343198
-0.00334327
-0.00365926
0.00372407
-2.62793e-07
5.11898e-05
8.89898e-07
0.000121934
5.18877e-06
0.000166487
1.43069e-05
0.000186518
2.9939e-05
0.000183692
5.38836e-05
0.000159209
8.81101e-05
0.000113697
0.000134798
4.7205e-05
0.000196339
-4.07336e-05
0.000275297
-0.000150974
0.000374309
-0.000284573
0.000495925
-0.000442559
0.000642387
-0.000625651
0.000815348
-0.000833972
0.00101557
-0.00106676
0.00124264
-0.00132217
0.00149475
-0.00159712
0.00176861
-0.00188737
0.0020596
-0.00218763
0.00236184
-0.00249234
0.00266936
-0.00279474
0.00297543
-0.00309101
0.00327338
-0.00337478
0.00356493
-0.00363482
-0.00392343
0.00382911
-2.05007e-07
5.13948e-05
1.40987e-06
0.000120319
6.78201e-06
0.000161115
1.7787e-05
0.000175513
3.6329e-05
0.00016515
6.44341e-05
0.000131103
0.000104318
7.38126e-05
0.000158414
-6.89035e-06
0.000229346
-0.000111666
0.000319847
-0.000241475
0.000432602
-0.000397328
0.000570015
-0.000579972
0.000733915
-0.000789551
0.000925221
-0.00102528
0.00114362
-0.00128516
0.00138733
-0.00156587
0.00165298
-0.00186277
0.00193572
-0.00217011
0.00222965
-0.00248156
0.00252796
-0.00279065
0.00282456
-0.00309133
0.00311273
-0.00337919
0.00338816
-0.00365021
0.00365238
-0.00389904
-0.00415849
0.00388743
-1.24931e-07
5.15197e-05
2.03141e-06
0.000118163
8.62675e-06
0.00015452
2.17601e-05
0.000162379
4.3567e-05
0.000143343
7.63218e-05
9.83486e-05
0.0001225
2.76343e-05
0.000184783
-6.91733e-05
0.000265994
-0.000192877
0.000368955
-0.000344436
0.000496255
-0.000524629
0.000649945
-0.000733661
0.000831168
-0.000970774
0.0010398
-0.00123391
0.00127418
-0.00151954
0.00153094
-0.00182263
0.00180515
-0.00213698
0.00209063
-0.00245559
0.00238056
-0.00277149
0.00266799
-0.00307807
0.00294722
-0.00337057
0.00321251
-0.00364448
0.00346228
-0.00389998
0.00369694
-0.0041337
-0.00436523
0.00390368
7.68638e-10
5.1519e-05
2.783e-06
0.000115381
1.07805e-05
0.000146523
2.63229e-05
0.000146837
5.1796e-05
0.00011787
8.97385e-05
6.04061e-05
0.000142889
-2.55158e-05
0.000214154
-0.000140438
0.000306492
-0.000285214
0.000422692
-0.000460637
0.000565063
-0.000667
0.000735041
-0.000903639
0.000932789
-0.00116852
0.00115686
-0.00145798
0.00140401
-0.00176669
0.00166929
-0.00208791
0.00194638
-0.00241407
0.0022282
-0.00273741
0.00250769
-0.00305098
0.00277845
-0.00334882
0.00303575
-0.00362787
0.00327571
-0.00388444
0.00349872
-0.00412299
0.0037029
-0.00433789
-0.00454717
0.00388485
1.45547e-07
5.13734e-05
3.68918e-06
0.000111837
1.3299e-05
0.000136913
3.15676e-05
0.000128568
6.1149e-05
8.82885e-05
0.000104855
1.67003e-05
0.000165674
-8.63354e-05
0.000246695
-0.000221459
0.000350911
-0.00038943
0.000480915
-0.000590641
0.000638499
-0.000824583
0.0008242
-0.00108934
0.00103691
-0.00138123
0.00127363
-0.0016947
0.00152948
-0.00202255
0.00179809
-0.00235652
0.00207217
-0.00268815
0.00234435
-0.0030096
0.00260802
-0.00331466
0.002858
-0.0035988
0.00309098
-0.00386085
0.00330543
-0.00409889
0.00350276
-0.00432031
0.00368086
-0.00451599
-0.0047153
0.00384899
3.42487e-07
5.10309e-05
4.77705e-06
0.000107402
1.62342e-05
0.000125456
3.75785e-05
0.000107224
7.1743e-05
5.41239e-05
0.00012181
-3.3367e-05
0.000190991
-0.000155516
0.000282477
-0.000312946
0.000399162
-0.000506115
0.000543233
-0.000734713
0.000715695
-0.000997045
0.000915898
-0.00128954
0.00114122
-0.00160655
0.001387
-0.00194048
0.00164688
-0.00228242
0.0019134
-0.00262304
0.00217889
-0.00295364
0.0024364
-0.00326711
0.00268041
-0.00355867
0.00290738
-0.00382577
0.0031157
-0.00406917
0.00330595
-0.00428914
0.00347943
-0.00449379
0.00363922
-0.00467577
-0.00486551
0.00378942
5.92955e-07
5.0438e-05
6.06969e-06
0.000101926
1.96324e-05
0.000111893
4.44281e-05
8.24282e-05
8.36729e-05
1.48791e-05
0.000140704
-9.03978e-05
0.0002189
-0.000233712
0.00032145
-0.000415495
0.000450967
-0.000635632
0.000608989
-0.000892734
0.000795446
-0.0011835
0.00100824
-0.00150234
0.0012431
-0.0018414
0.00149377
-0.00219116
0.00175272
-0.00254137
0.00201196
-0.00288228
0.00226412
-0.0032058
0.00250327
-0.00350626
0.00272547
-0.00378086
0.00292896
-0.00402927
0.00311387
-0.00425408
0.00328216
-0.00445742
0.00343605
-0.00464769
0.00357945
-0.00481917
-0.00500042
0.00371437
9.02389e-07
4.95356e-05
7.58685e-06
9.52412e-05
2.35328e-05
9.59468e-05
5.21751e-05
5.37859e-05
9.70064e-05
-2.99522e-05
0.000161585
-0.000154976
0.000249378
-0.000321506
0.000363427
-0.000529544
0.000505849
-0.000778054
0.000677258
-0.00106414
0.000876241
-0.00138248
0.00109907
-0.00172517
0.0013398
-0.00208214
0.00159089
-0.00244225
0.00184408
-0.00279456
0.00209153
-0.00312973
0.00232677
-0.00344104
0.00254537
-0.00372486
0.00274518
-0.00398067
0.00292617
-0.00421026
0.0030899
-0.00441781
0.00323927
-0.00460679
0.00337702
-0.00478545
0.00350711
-0.00494926
-0.00512479
0.00363149
1.27565e-06
4.82599e-05
9.34489e-06
8.7172e-05
2.79665e-05
7.73253e-05
6.08611e-05
2.08912e-05
0.00011178
-8.08709e-05
0.000184448
-0.000227644
0.000282311
-0.000419369
0.00040808
-0.000655313
0.000563129
-0.000933102
0.000746873
-0.00124789
0.000956331
-0.00159194
0.00118607
-0.00195491
0.00142869
-0.00232476
0.00167573
-0.00268929
0.00191886
-0.00303768
0.00215098
-0.00336185
0.00236704
-0.0036571
0.00256435
-0.00392217
0.00274249
-0.00415881
0.00290292
-0.00437069
0.00304821
-0.0045631
0.00318175
-0.00474032
0.00330643
-0.00491013
0.00342603
-0.00506886
-0.0052406
0.00354184
1.71671e-06
4.65432e-05
1.13566e-05
7.75321e-05
3.29552e-05
5.57267e-05
7.05092e-05
-1.66628e-05
0.000127994
-0.000138356
0.000209225
-0.000308875
0.000317482
-0.000527626
0.000454932
-0.000792763
0.000621937
-0.00110011
0.000816464
-0.00144241
0.00103383
-0.00180931
0.001267
-0.00218807
0.00150743
-0.00256519
0.00174632
-0.00292818
0.00197589
-0.00326725
0.0021903
-0.00357626
0.0023862
-0.00385299
0.00256265
-0.00409863
0.00272078
-0.00431694
0.00286309
-0.004513
0.00299277
-0.00469278
0.00311332
-0.00486087
0.0032275
-0.00502431
0.00333863
-0.00517999
-0.00534953
0.00344756
2.22859e-06
4.43147e-05
1.36311e-05
6.61296e-05
3.85114e-05
3.08464e-05
8.11226e-05
-5.92739e-05
0.000145614
-0.000202848
0.000235785
-0.000399045
0.000354574
-0.000646416
0.000503362
-0.00094155
0.000681237
-0.00127798
0.000884524
-0.0016457
0.00110683
-0.00203161
0.00133976
-0.002421
0.00157414
-0.00279957
0.00180143
-0.00315548
0.00201493
-0.00348074
0.00221041
-0.00377174
0.00238627
-0.00402886
0.0025432
-0.00425556
0.00268346
-0.00445719
0.00281024
-0.00463979
0.00292695
-0.00480948
0.00303691
-0.00497083
0.00314257
-0.00512997
0.00324677
-0.00528419
-0.00545263
0.00334986
2.81348e-06
4.15012e-05
1.61734e-05
5.27697e-05
4.46378e-05
2.38199e-06
9.26839e-05
-0.00010732
0.000164564
-0.000274728
0.000263927
-0.000498409
0.000393168
-0.000775656
0.000552621
-0.001101
0.000739868
-0.00146523
0.000949492
-0.00185533
0.00117353
-0.00225566
0.00140264
-0.00265011
0.00162757
-0.0030245
0.00184062
-0.00336853
0.00203654
-0.00367667
0.00221289
-0.00394809
0.00236972
-0.00418568
0.00250896
-0.0043948
0.00263369
-0.00458193
0.00274741
-0.0047535
0.00285342
-0.00491549
0.00295471
-0.00507213
0.00305334
-0.0052286
0.00315164
-0.00538248
-0.00555058
0.00324958
3.47278e-06
3.80284e-05
1.89849e-05
3.72575e-05
5.13268e-05
-2.99598e-05
0.000105154
-0.000161147
0.000184728
-0.000354302
0.000293387
-0.000607067
0.000432748
-0.000915017
0.000601851
-0.00127011
0.000796595
-0.00165997
0.00100985
-0.00206858
0.00123237
-0.00247818
0.00145436
-0.0028721
0.00166709
-0.00323723
0.00186413
-0.00356557
0.00204195
-0.00385449
0.00219979
-0.00410593
0.00233911
-0.004325
0.00246277
-0.00451846
0.00257426
-0.00469341
0.00267707
-0.00485631
0.00277424
-0.00501267
0.00286834
-0.00516622
0.00296098
-0.00532125
0.00305406
-0.00547556
-0.00564378
0.00314727
4.20717e-06
3.38212e-05
2.20636e-05
1.94011e-05
5.85609e-05
-6.64571e-05
0.000118472
-0.000221058
0.000205949
-0.00044178
0.000323831
-0.000724949
0.000472715
-0.0010639
0.000650121
-0.00144751
0.000850178
-0.00186003
0.0010642
-0.0022826
0.00128209
-0.00269607
0.00149416
-0.00308417
0.00169268
-0.00343575
0.00187282
-0.00374571
0.00203277
-0.00401445
0.00217331
-0.00424647
0.00229696
-0.00444865
0.00240714
-0.00462864
0.00250745
-0.00479373
0.00260117
-0.00495003
0.00269095
-0.00510246
0.00277891
-0.00525418
0.00286629
-0.00540863
0.00295458
-0.00556385
-0.00573247
0.00304327
5.01667e-06
2.88045e-05
2.54034e-05
-9.85687e-07
6.63121e-05
-0.000107366
0.000132553
-0.000287299
0.00022803
-0.000537257
0.000354868
-0.000851787
0.000512404
-0.00122144
0.000696463
-0.00163157
0.000899436
-0.00206301
0.00111138
-0.00249454
0.00132185
-0.00290654
0.00152178
-0.0032841
0.00170484
-0.00361881
0.00186793
-0.0039088
0.00201087
-0.00415738
0.00213565
-0.00437125
0.00224553
-0.00455853
0.00234419
-0.0047273
0.00243509
-0.00488463
0.00252117
-0.0050361
0.00260465
-0.00518594
0.0026872
-0.00533674
0.00276978
-0.00549121
0.00285354
-0.00564762
-0.00581676
0.00293784
5.90065e-06
2.29039e-05
2.89948e-05
-2.40798e-05
7.45417e-05
-0.000152913
0.000147292
-0.000360049
0.000250732
-0.000640697
0.000386051
-0.000987106
0.0005511
-0.00138649
0.00073992
-0.00182039
0.000943315
-0.0022664
0.00115049
-0.00270172
0.00135118
-0.00310722
0.00153741
-0.00347033
0.00170448
-0.00378588
0.00185097
-0.00405529
0.00197812
-0.00428453
0.00208885
-0.00448197
0.00218681
-0.00465649
0.00227567
-0.00481616
0.00235861
-0.00496757
0.00243814
-0.00511564
0.0025161
-0.00526389
0.00259376
-0.0054144
0.00267183
-0.00556927
0.0027512
-0.00572699
-0.0058967
0.00283114
6.85774e-06
1.60462e-05
3.2824e-05
-5.0046e-05
8.31996e-05
-0.000203288
0.000162557
-0.000439406
0.000273781
-0.000751921
0.000416891
-0.00113022
0.000588076
-0.00155767
0.000779596
-0.00201191
0.000980943
-0.00246775
0.00118095
-0.00290173
0.00137003
-0.0032963
0.00154162
-0.00364192
0.00169275
-0.00393701
0.00182355
-0.00418609
0.00193637
-0.00439735
0.00203473
-0.00458034
0.00212244
-0.0047442
0.00220294
-0.00489667
0.00227906
-0.00504368
0.00235288
-0.00518946
0.00242585
-0.00533686
0.00249895
-0.0054875
0.00257267
-0.00564299
0.00264771
-0.00580203
-0.00597229
0.0027233
7.88579e-06
8.16036e-06
3.6873e-05
-7.90332e-05
9.22242e-05
-0.00025864
0.000178196
-0.000525377
0.000296868
-0.000870593
0.000446872
-0.00128022
0.000622616
-0.00173341
0.000814695
-0.00220399
0.00101167
-0.00266472
0.0012025
-0.00309256
0.00137867
-0.00347247
0.00153527
-0.00379853
0.00167098
-0.00407271
0.00178725
-0.00430236
0.00188726
-0.00449736
0.00197486
-0.00466793
0.00205375
-0.00482309
0.00212708
-0.00496999
0.00219724
-0.00511385
0.00226594
-0.00525816
0.00233428
-0.0054052
0.00240302
-0.00555623
0.00247248
-0.00571245
0.0025432
-0.00587275
-0.00604351
0.00261442
8.98167e-06
-8.21304e-07
4.11192e-05
-0.000111171
0.000101542
-0.000319062
0.000194034
-0.000617869
0.000319658
-0.000996218
0.000475468
-0.00143603
0.00065405
-0.001912
0.000844566
-0.00239451
0.00103507
-0.00285523
0.00121514
-0.00327263
0.00137765
-0.00363498
0.00151938
-0.00394026
0.00164051
-0.00419384
0.00174357
-0.00440542
0.00183227
-0.00458606
0.00191052
-0.00474618
0.0019818
-0.00489437
0.00204887
-0.00503706
0.00211373
-0.0051787
0.00217771
-0.00532214
0.00224167
-0.00546916
0.00230615
-0.00562071
0.00237138
-0.00577769
0.00243779
-0.00593916
-0.00611034
0.00250461
1.01411e-05
-1.09624e-05
4.55349e-05
-0.000146565
0.000111067
-0.000384595
0.000209877
-0.000716678
0.0003418
-0.00112814
0.000502161
-0.00159639
0.000681786
-0.00209162
0.00086872
-0.00258144
0.00105099
-0.0030375
0.00121917
-0.00344081
0.00136772
-0.00378353
0.00149506
-0.0040676
0.00160268
-0.00430146
0.00169388
-0.00449662
0.00177264
-0.00466483
0.00184276
-0.00481631
0.00190741
-0.00495901
0.00196892
-0.00509858
0.00202893
-0.00523871
0.00208847
-0.00538169
0.00214819
-0.00552887
0.00220848
-0.005681
0.0022695
-0.00583871
0.00233156
-0.00600122
-0.00617273
0.00239395
1.13587e-05
-2.23211e-05
5.00874e-05
-0.000185293
0.000120703
-0.00045521
0.000225515
-0.00082149
0.000362933
-0.00126556
0.000526466
-0.00175992
0.000705333
-0.00227049
0.000886851
-0.00276296
0.00105947
-0.00321012
0.00121505
-0.0035964
0.00134974
-0.00391822
0.00146345
-0.0041813
0.00155871
-0.00439672
0.00163934
-0.00457725
0.00170939
-0.00473488
0.00177242
-0.00487933
0.00183119
-0.00501778
0.00188767
-0.00515506
0.00194315
-0.00529419
0.00199843
-0.00543697
0.00205399
-0.00558443
0.00211011
-0.00573712
0.0021669
-0.0058955
0.0022246
-0.00605891
-0.00623067
0.00228253
1.26275e-05
-3.49486e-05
5.47386e-05
-0.000227404
0.000130342
-0.000530813
0.000240726
-0.000931874
0.000382703
-0.00140754
0.000547948
-0.00192517
0.000724319
-0.00244686
0.000898825
-0.00293746
0.00106073
-0.00337202
0.00120341
-0.00373908
0.00132463
-0.00403944
0.00142562
-0.00428229
0.0015097
-0.0044808
0.00158098
-0.00464853
0.00164338
-0.00479728
0.00170013
-0.00493609
0.00175362
-0.00507127
0.00180545
-0.00520689
0.00185662
-0.00534536
0.00190775
-0.0054881
0.00195919
-0.00563586
0.00201115
-0.00578908
0.00206369
-0.00594804
0.00211698
-0.0061122
-0.0062841
0.00217042
1.39393e-05
-4.88879e-05
5.94452e-05
-0.00027291
0.000139867
-0.000611235
0.000255284
-0.00104729
0.000400773
-0.00155303
0.000566242
-0.00209064
0.0007385
-0.00261912
0.000904675
-0.00310364
0.00105516
-0.00352251
0.00118496
-0.00386887
0.00129333
-0.00414782
0.00138261
-0.00437157
0.00145665
-0.00455484
0.00151964
-0.00471152
0.00157527
-0.00485291
0.0016264
-0.00498722
0.00167505
-0.00511991
0.00172248
-0.00525433
0.0017695
-0.00539238
0.00181654
-0.00553514
0.00186387
-0.0056832
0.00191166
-0.00583687
0.00195993
-0.00599632
0.0020088
-0.00616107
-0.00633302
0.00205772
1.52842e-05
-6.41721e-05
6.41596e-05
-0.000321786
0.000149156
-0.000696231
0.000268962
-0.0011671
0.000416835
-0.0017009
0.000581059
-0.00225486
0.000747758
-0.00278582
0.000904572
-0.00326045
0.00104326
-0.0036612
0.00116044
-0.00398605
0.00125674
-0.00424411
0.00133532
-0.00445015
0.00140037
-0.0046199
0.001456
-0.00476715
0.00150559
-0.00490249
0.00155162
-0.00503325
0.00159574
-0.00516403
0.00163897
-0.00529756
0.00168191
-0.00543532
0.0017249
-0.00557813
0.00176814
-0.00572644
0.00181174
-0.00588047
0.00185571
-0.00604029
0.00190012
-0.00620548
-0.00637739
0.00194449
1.66509e-05
-8.0823e-05
6.88298e-05
-0.000373964
0.000158082
-0.000785483
0.000281543
-0.00129056
0.000430623
-0.00184998
0.000592201
-0.00241644
0.000752097
-0.00294572
0.000898803
-0.00340716
0.0010256
-0.00378799
0.00113062
-0.00409108
0.00121568
-0.00432918
0.00128456
-0.00451903
0.00134158
-0.00467691
0.00139064
-0.0048162
0.00143476
-0.00494662
0.00147607
-0.00507455
0.0015159
-0.00520386
0.00155504
-0.0053367
0.00159396
-0.00547424
0.00163291
-0.00561708
0.00167205
-0.00576557
0.00171144
-0.00591987
0.00175109
-0.00607994
0.00179104
-0.00624543
-0.00641719
0.00183084
1.8027e-05
-9.88501e-05
7.34011e-05
-0.000429339
0.000166518
-0.0008786
0.000292825
-0.00141687
0.000441922
-0.00199908
0.000599555
-0.00257407
0.000751624
-0.00309778
0.000887744
-0.00354328
0.00100276
-0.00390301
0.00109624
-0.00418456
0.00117094
-0.00440387
0.00123105
-0.00457914
0.00128086
-0.00472673
0.00132399
-0.00485933
0.00136311
-0.00498574
0.00139998
-0.00511142
0.00143568
-0.00523956
0.00147082
-0.00537185
0.00150575
-0.00550917
0.00154066
-0.00565199
0.00157568
-0.00580058
0.00161085
-0.00595504
0.00164616
-0.00611525
0.00168162
-0.00628089
-0.00645241
0.00171684
1.93988e-05
-0.000118249
7.78166e-05
-0.000487756
0.00017434
-0.000975124
0.000302628
-0.00154515
0.000450569
-0.00214702
0.000603097
-0.0027266
0.000746537
-0.00324122
0.000871828
-0.00366857
0.000975365