/*--------------------------------*- C++ -*----------------------------------*\
  =========                 |
  \\      /  F ield         | OpenFOAM: The Open Source CFD Toolbox
   \\    /   O peration     | Website:  https://openfoam.org
    \\  /    A nd           | Version:  7
     \\/     M anipulation  |
\*---------------------------------------------------------------------------*/
FoamFile
{
    version     2.0;
    format      ascii;
    class       volVectorField;
    location    "65";
    object      U;
}
// * * * * * * * * * * * * * * * * * * * * * * * * * * * * * * * * * * * * * //

dimensions      [0 1 -1 0 0 0 0];

internalField   nonuniform List<vector> 
6000
(
(-0.000825279 0.00108663 5.45e-22)
(-0.00522665 0.00259218 -2.44578e-21)
(-0.0133996 0.00361904 -2.70128e-22)
(-0.0231003 0.00429299 1.67794e-21)
(-0.033785 0.00470439 -1.18328e-21)
(-0.0448826 0.00492802 3.8791e-21)
(-0.0560121 0.00502194 1.21139e-21)
(-0.0669289 0.0050297 -1.26259e-21)
(-0.0774765 0.0049823 4.8928e-22)
(-0.087561 0.00490024 -3.98319e-21)
(-0.0971293 0.0047957 8.50396e-22)
(-0.106154 0.00467463 -7.55722e-23)
(-0.114621 0.00453867 -1.04345e-21)
(-0.122524 0.00438667 2.4162e-21)
(-0.12986 0.00421601 5.49905e-23)
(-0.136625 0.00402361 -2.12757e-21)
(-0.14282 0.00380684 -8.44819e-22)
(-0.148447 0.00356429 -1.27091e-22)
(-0.153524 0.00329653 -1.54331e-21)
(-0.158081 0.00300662 -7.22139e-22)
(-0.000898875 0.00245145 -2.35724e-22)
(-0.00537375 0.00582717 -5.01526e-21)
(-0.0135543 0.00810506 -3.62001e-21)
(-0.0232262 0.00958741 -6.66778e-21)
(-0.0338552 0.0104766 5.61135e-21)
(-0.0448785 0.0109387 -3.60468e-21)
(-0.05592 0.0111008 6.87797e-22)
(-0.0667382 0.0110583 -1.05957e-21)
(-0.0771787 0.0108802 -5.68588e-21)
(-0.0871486 0.0106136 -7.95436e-22)
(-0.0965955 0.010289 -1.02064e-21)
(-0.105492 0.0099234 -1.21451e-21)
(-0.113824 0.00952497 6.54178e-21)
(-0.121586 0.00909583 3.14477e-21)
(-0.128774 0.00863491 -2.9557e-21)
(-0.135383 0.00814051 6.5329e-21)
(-0.141414 0.00761258 4.56665e-22)
(-0.146867 0.00705504 3.46603e-21)
(-0.151756 0.00647804 5.10268e-21)
(-0.156109 0.00589955 -3.73866e-22)
(-0.0010358 0.00379279 6.15283e-21)
(-0.00564861 0.00901203 1.47519e-22)
(-0.0138452 0.0125274 -1.53228e-20)
(-0.0234646 0.0148118 1.29924e-20)
(-0.0339903 0.0161771 1.51773e-21)
(-0.0448739 0.0168782 -9.19773e-21)
(-0.0557487 0.0171104 -5.1227e-21)
(-0.066379 0.0170201 -4.97061e-21)
(-0.0766141 0.0167139 -1.18677e-22)
(-0.0863628 0.0162657 -2.24448e-21)
(-0.0955741 0.0157239 -2.60158e-21)
(-0.104221 0.015117 3.27139e-21)
(-0.11229 0.0144596 -1.32721e-20)
(-0.119774 0.013757 -1.25352e-20)
(-0.126669 0.0130096 1.0149e-20)
(-0.132972 0.0122167 -1.65902e-20)
(-0.138677 0.0113802 -3.43553e-21)
(-0.143784 0.0105082 1.61343e-20)
(-0.148299 0.0096195 1.86933e-21)
(-0.152243 0.00874585 -3.5848e-21)
(-0.00123368 0.00509717 -4.85129e-21)
(-0.00604705 0.0121177 1.80886e-20)
(-0.0142683 0.0168486 2.50289e-20)
(-0.0238127 0.0199248 -1.06771e-20)
(-0.0341885 0.0217625 -1.57142e-21)
(-0.0448683 0.0227032 2.47926e-20)
(-0.0554987 0.023008 1.50912e-21)
(-0.0658525 0.0228734 1.94343e-21)
(-0.0757839 0.0224432 1.07028e-20)
(-0.0852051 0.0218178 -2.04356e-20)
(-0.0940663 0.0210634 -5.85464e-21)
(-0.102341 0.02022 3.37465e-21)
(-0.110017 0.0193089 -3.47336e-21)
(-0.117086 0.0183385 1.08946e-20)
(-0.123543 0.0173105 -4.83002e-21)
(-0.129383 0.0162245 2.34092e-20)
(-0.134599 0.0150833 6.13464e-21)
(-0.139185 0.013898 -7.18575e-22)
(-0.14314 0.0126936 9.20387e-21)
(-0.146473 0.0115141 -8.68803e-21)
(-0.149212 0.010426 -4.9006e-21)
(-0.00148914 0.00635189 1.02874e-20)
(-0.00656314 0.0151166 -1.58882e-20)
(-0.0148182 0.021033 7.00213e-21)
(-0.0242664 0.0248861 9.80137e-21)
(-0.0344476 0.027191 -3.40191e-20)
(-0.044861 0.0283712 -7.8486e-21)
(-0.0551707 0.0287515 1.01435e-20)
(-0.0651602 0.0285771 -1.04302e-21)
(-0.0746905 0.028028 1.94477e-20)
(-0.0836776 0.0272308 1.44123e-21)
(-0.0920737 0.0262696 1.26591e-20)
(-0.0998535 0.0251961 1.23837e-20)
(-0.107004 0.0240381 2.42241e-20)
(-0.113518 0.0228075 -1.1783e-20)
(-0.119388 0.0215068 3.52279e-21)
(-0.124608 0.0201354 -4.59239e-21)
(-0.129168 0.0186956 -1.29301e-20)
(-0.133056 0.0171994 -5.10992e-21)
(-0.13626 0.0156756 2.44188e-21)
(-0.138778 0.0141772 -1.19693e-20)
(-0.140617 0.0127882 8.40055e-21)
(-0.00179789 0.00754532 -1.84774e-20)
(-0.00718931 0.0179829 -2.77056e-21)
(-0.0154877 0.0250467 -1.78333e-20)
(-0.0248203 0.0296573 -7.61251e-21)
(-0.0347643 0.0324217 2.85014e-20)
(-0.044851 0.0338405 -1.96871e-21)
(-0.0547653 0.0342993 -2.37499e-20)
(-0.0643039 0.03409 2.01355e-20)
(-0.0733362 0.0334278 -9.3638e-21)
(-0.0817828 0.0324652 3.33126e-20)
(-0.0895983 0.0313041 -1.71501e-20)
(-0.0967584 0.0300079 -2.94788e-20)
(-0.10325 0.0286114 5.68096e-21)
(-0.109065 0.0271299 -2.05911e-21)
(-0.114196 0.0255664 -1.2523e-20)
(-0.118633 0.0239196 -1.40846e-20)
(-0.122363 0.02219 -1.06182e-20)
(-0.125369 0.0203882 1.02646e-20)
(-0.127629 0.0185434 9.58443e-23)
(-0.129124 0.0167135 5.73124e-21)
(-0.129842 0.0149962 -1.45428e-20)
(-0.0021549 0.0086671 5.54833e-20)
(-0.00791663 0.0206934 -1.40061e-20)
(-0.0162686 0.0288584 -1.67159e-20)
(-0.025468 0.0342023 -7.74382e-21)
(-0.0351348 0.0374157 -2.22439e-20)
(-0.0448368 0.0390708 1.11566e-20)
(-0.054283 0.0396104 1.74189e-20)
(-0.0632857 0.039371 -1.848e-20)
(-0.0717236 0.038602 1.31975e-20)
(-0.0795232 0.0374809 -2.59406e-20)
(-0.0866417 0.0361275 -2.8911e-21)
(-0.0930555 0.0346171 -1.09232e-20)
(-0.0987513 0.0329915 -2.26445e-20)
(-0.10372 0.0312696 -2.54303e-20)
(-0.107953 0.0294552 -7.93514e-21)
(-0.111438 0.0275456 1.51732e-20)
(-0.114157 0.0255384 -9.01781e-21)
(-0.116088 0.0234405 -2.192e-20)
(-0.117201 0.0212776 -2.29779e-20)
(-0.11746 0.0191077 2.24776e-20)
(-0.116831 0.0170357 -1.92151e-20)
(-0.00255454 0.0097084 -5.85393e-21)
(-0.008735 0.0232274 3.97062e-20)
(-0.0171511 0.0324397 2.07668e-20)
(-0.0262021 0.0384873 1.38381e-20)
(-0.0355543 0.042136 3.05509e-20)
(-0.0448163 0.0440232 -1.79078e-20)
(-0.0537239 0.0446449 -1.56182e-21)
(-0.0621069 0.0443797 -2.57616e-20)
(-0.0698551 0.04351 -2.66235e-20)
(-0.0769009 0.0422376 1.65393e-20)
(-0.0832047 0.0406999 2.45452e-20)
(-0.0887435 0.038984 -2.09459e-20)
(-0.0935034 0.0371394 -1.31301e-20)
(-0.0974736 0.0351888 7.02178e-20)
(-0.100643 0.0331369 3.08213e-21)
(-0.102997 0.0309795 7.69278e-21)
(-0.104514 0.0287105 6.25172e-21)
(-0.105165 0.026331 7.9605e-21)
(-0.104913 0.0238601 -1.0355e-20)
(-0.10371 0.0213497 3.34027e-21)
(-0.101497 0.0189038 -5.35404e-21)
(-0.00299076 0.010662 -4.79197e-20)
(-0.0096335 0.0255674 -2.89565e-20)
(-0.0181247 0.0357654 -4.5078e-20)
(-0.0270142 0.042482 1.43287e-20)
(-0.0360174 0.0465482 -5.13468e-20)
(-0.0447866 0.0486607 3.82604e-21)
(-0.0530873 0.0493639 3.9205e-20)
(-0.0607683 0.0490764 -9.03553e-21)
(-0.0677317 0.0481115 3.64699e-21)
(-0.0739167 0.0466945 -3.03548e-20)
(-0.0792865 0.0449803 -1.80189e-20)
(-0.0838186 0.0430679 3.8702e-20)
(-0.0874978 0.0410146 2.14372e-20)
(-0.0903107 0.0388474 -3.40697e-20)
(-0.0922431 0.0365726 8.86192e-21)
(-0.0932765 0.0341843 -2.16761e-20)
(-0.0933857 0.0316728 -4.80655e-21)
(-0.0925366 0.0290323 -1.72152e-20)
(-0.0906832 0.0262722 3.8793e-20)
(-0.0877668 0.0234325 5.93669e-21)
(-0.0837135 0.0206074 -1.48001e-20)
(-0.00345731 0.0115227 1.96891e-20)
(-0.0106006 0.0276992 3.20547e-21)
(-0.0191782 0.0388143 3.4462e-20)
(-0.027895 0.0461589 1.55623e-20)
(-0.0365174 0.0506207 5.38954e-20)
(-0.0447437 0.0529482 -4.42518e-20)
(-0.0523711 0.0537303 -1.32326e-20)
(-0.0592692 0.0534222 3.0561e-20)
(-0.065353 0.0523664 -3.18989e-20)
(-0.0705689 0.050811 -3.50955e-21)
(-0.0748833 0.0489275 -8.13235e-21)
(-0.0782734 0.0468272 -1.45635e-20)
(-0.0807216 0.0445754 1.81766e-20)
(-0.0822111 0.0422038 -1.43291e-20)
(-0.0827229 0.0397209 -7.35343e-21)
(-0.0822335 0.0371203 3.6834e-21)
(-0.0807124 0.0343885 9.88052e-21)
(-0.0781198 0.0315128 3.51754e-20)
(-0.0744027 0.0284915 -3.21634e-20)
(-0.0694938 0.0253487 -6.95546e-21)
(-0.0633091 0.0221593 3.95037e-20)
(-0.00394794 0.0122867 -1.74218e-20)
(-0.0116247 0.0296123 8.24321e-21)
(-0.0202997 0.0415688 -1.00878e-21)
(-0.0288343 0.0494947 2.4761e-20)
(-0.0370465 0.054325 -5.8236e-20)
(-0.0446822 0.0568533 9.24331e-20)
(-0.0515716 0.0577086 2.37754e-20)
(-0.0576063 0.0573795 6.65793e-22)
(-0.0627152 0.0562358 5.82083e-20)
(-0.0668523 0.0545468 9.18452e-21)
(-0.0699866 0.0525005 1.7892e-20)
(-0.0720944 0.0502201 -5.39701e-20)
(-0.0731547 0.0477792 -1.85039e-20)
(-0.0731453 0.0452151 6.06487e-20)
(-0.0720408 0.042539 -8.4495e-21)
(-0.0698106 0.0397449 9.6509e-21)
(-0.066417 0.0368169 -2.80903e-21)
(-0.0618128 0.0337363 -7.82965e-20)
(-0.0559382 0.0304906 2.36773e-20)
(-0.0487178 0.0270861 1.77829e-20)
(-0.0400619 0.0235713 1.17481e-20)
(-0.00445658 0.0129526 2.24284e-20)
(-0.012694 0.0312996 1.54989e-20)
(-0.0214771 0.0440153 -5.13139e-20)
(-0.0298213 0.0524696 -3.17891e-20)
(-0.0375955 0.0576359 -3.03807e-21)
(-0.0445942 0.0603466 -3.68188e-20)
(-0.0506818 0.0612658 -4.39407e-20)
(-0.0557727 0.0609126 -1.97583e-21)
(-0.0598103 0.0596817 -6.44621e-20)
(-0.0627561 0.0578627 5.06204e-21)
(-0.0645812 0.0556589 2.31855e-20)
(-0.0652601 0.0532051 4.66938e-20)
(-0.0647666 0.0505839 -1.36778e-20)
(-0.0630714 0.0478383 -4.22548e-20)
(-0.0601402 0.0449834 -2.19456e-20)
(-0.0559328 0.0420147 -2.94549e-20)
(-0.0504011 0.0389154 -4.19268e-20)
(-0.0434884 0.035663 7.88468e-20)
(-0.0351259 0.032236 -9.35102e-21)
(-0.0252304 0.0286246 -4.87787e-20)
(-0.013704 0.0248497 9.33506e-21)
(-0.000405349 0.0210164 -3.1128e-20)
(-0.00497754 0.0135205 7.52559e-21)
(-0.0137971 0.0327575 1.16919e-20)
(-0.0226979 0.0461445 4.02085e-20)
(-0.0308437 0.0550681 7.24711e-20)
(-0.0381533 0.0605321 4.58356e-20)
(-0.0444695 0.0634016 9.64477e-21)
(-0.0496914 0.0643715 2.08802e-20)
(-0.0537569 0.063988 6.56576e-21)
(-0.056624 0.0626685 5.18302e-20)
(-0.0582616 0.0607211 -2.54254e-21)
(-0.058642 0.0583637 1.47951e-20)
(-0.0577366 0.0557427 3.46199e-20)
(-0.0555122 0.052949 -1.65622e-20)
(-0.0519298 0.0500325 5.76908e-20)
(-0.0469436 0.0470126 3.3987e-20)
(-0.0405002 0.0438878 3.48649e-20)
(-0.032538 0.0406426 8.32582e-20)
(-0.0229868 0.0372526 -3.50001e-20)
(-0.0117658 0.0336914 -4.49201e-20)
(0.00121744 0.029937 2.52631e-21)
(0.016068 0.0259847 4.64834e-20)
(0.0329102 0.021896 -3.37773e-20)
(-0.00550569 0.0139924 -3.26958e-20)
(-0.0149233 0.033986 -5.98293e-20)
(-0.0239495 0.0479511 8.91046e-21)
(-0.0318885 0.0572785 -6.65781e-20)
(-0.0387065 0.062996 8.21497e-21)
(-0.0442939 0.0659955 1.7892e-21)
(-0.0485848 0.0669986 -8.41831e-20)
(-0.0515406 0.0665751 1.65857e-20)
(-0.0531337 0.0651631 3.73448e-20)
(-0.0533396 0.0630872 -3.21554e-21)
(-0.052131 0.0605792 -3.69551e-20)
(-0.0494741 0.0577961 -1.84899e-20)
(-0.0453266 0.0548377 2.08302e-20)
(-0.0396371 0.0517606 3.66751e-21)
(-0.0323448 0.0485898 3.60033e-20)
(-0.0233797 0.045328 -5.10662e-20)
(-0.0126628 0.0419625 -4.14511e-20)
(-0.00010632 0.0384706 -8.61582e-21)
(0.0143862 0.0348244 8.57304e-21)
(0.0309187 0.0309957 -7.94595e-21)
(0.0496112 0.0269617 -3.32861e-20)
(0.0705241 0.0227524 2.00486e-20)
(-0.00603659 0.0143717 6.9267e-21)
(-0.0160624 0.0349882 1.06612e-19)
(-0.0252192 0.0494336 -6.69795e-20)
(-0.032941 0.0590936 -3.4401e-20)
(-0.0392386 0.0650143 -4.08067e-20)
(-0.0440489 0.0681097 -3.47924e-20)
(-0.0473401 0.0691238 5.47351e-20)
(-0.049097 0.0686474 -3.72352e-21)
(-0.0493056 0.0671362 -2.266e-20)
(-0.0479471 0.0649303 2.96445e-20)
(-0.0449926 0.0622736 3.58027e-21)
(-0.0404012 0.0593337 3.40975e-21)
(-0.0341187 0.0562188 -8.97317e-21)
(-0.0260781 0.0529927 -5.45758e-20)
(-0.0162003 0.0496867 -4.51427e-20)
(-0.00439473 0.046309 3.50902e-20)
(0.00943896 0.0428518 -3.34551e-20)
(0.0254094 0.0392963 4.01763e-21)
(0.0436322 0.0356174 2.87609e-20)
(0.0642224 0.031787 -1.21052e-20)
(0.08733 0.0277742 2.00992e-20)
(0.112876 0.0235883 -9.0192e-21)
(-0.0065666 0.0146635 -5.98524e-20)
(-0.0172051 0.0357702 -2.78236e-20)
(-0.0264941 0.0505943 8.48677e-20)
(-0.0339848 0.0605101 3.02702e-20)
(-0.0397297 0.0665778 1.36642e-20)
(-0.0437101 0.0697295 2.09922e-20)
(-0.0459274 0.0707282 2.33331e-20)
(-0.0463885 0.0701824 -6.11855e-20)
(-0.0450921 0.0685635 2.23827e-20)
(-0.0420231 0.0662247 -7.04213e-20)
(-0.0371491 0.0634214 4.02716e-21)
(-0.0304192 0.0603309 -4.44858e-20)
(-0.0217641 0.0570698 6.25345e-20)
(-0.0110979 0.0537094 1.47182e-20)
(0.00168087 0.0502882 -7.56536e-21)
(0.0166864 0.046821 -9.24782e-21)
(0.0340435 0.0433065 3.70273e-20)
(0.0538836 0.0397324 -9.54866e-21)
(0.0763434 0.0360799 5.12338e-20)
(0.101542 0.0323262 1.80402e-20)
(0.129684 0.028444 -2.71344e-20)
(0.16043 0.0244216 -2.38988e-20)
(0.195936 0.0203494 -3.36213e-21)
(-0.00709291 0.0148739 7.15271e-20)
(-0.0183429 0.0363405 1.29796e-20)
(-0.0277606 0.0514389 3.93067e-20)
(-0.0350012 0.0615288 5.1718e-20)
(-0.0401553 0.067682 -1.47974e-22)
(-0.043246 0.0708453 -4.80991e-20)
(-0.0443064 0.071798 -1.67117e-20)
(-0.0433639 0.0711635 2.75133e-20)
(-0.040428 0.0694265 3.50136e-21)
(-0.0354848 0.0669519 5.57821e-20)
(-0.0284955 0.0640052 3.86693e-20)
(-0.0193957 0.0607729 4.40945e-20)
(-0.00809764 0.05738 -3.04344e-20)
(0.00550751 0.0539061 5.70792e-20)
(0.0215465 0.0503972 -1.99509e-20)
(0.0401601 0.0468763 1.87944e-20)
(0.0614987 0.0433501 4.62004e-20)
(0.0857156 0.0398151 -4.17933e-20)
(0.112966 0.0362618 -1.57815e-20)
(0.143356 0.0326747 -1.08292e-20)
(0.177179 0.0290474 -7.32897e-21)
(0.213659 0.02531 3.66189e-20)
(0.256229 0.0218166 -4.04964e-20)
(-0.0076136 0.0150098 -5.51032e-21)
(-0.0194682 0.0367097 -5.65358e-21)
(-0.0290045 0.0519759 -1.0145e-19)
(-0.0359686 0.0621542 1.4395e-20)
(-0.0404852 0.0683264 1.75346e-20)
(-0.0426165 0.0714526 2.84827e-20)
(-0.0424249 0.0723253 7.25977e-21)
(-0.0399561 0.0715806 -3.34349e-20)
(-0.0352273 0.0697145 7.43711e-20)
(-0.0282228 0.0671019 -6.99347e-20)
(-0.0188935 0.0640179 -9.91539e-20)
(-0.00715799 0.0606574 -1.36067e-21)
(0.0070943 0.0571544 1.3046e-21)
(0.0239985 0.0535968 9.30194e-21)
(0.0437091 0.0500398 4.09306e-20)
(0.0663943 0.0465156 -1.48375e-20)
(0.0922281 0.0430408 -6.30598e-20)
(0.12138 0.0396222 5.40979e-20)
(0.154016 0.0362623 2.24839e-20)
(0.190194 0.0329504 -2.40009e-20)
(0.230337 0.0297296 -4.06451e-20)
(0.273006 0.0263771 -3.65982e-20)
(0.323369 0.0238195 -9.75737e-22)
(-0.00812755 0.0150787 -2.67118e-20)
(-0.0205734 0.0368897 -3.58088e-20)
(-0.0302105 0.0522166 5.48169e-20)
(-0.0368617 0.0623942 -1.08946e-19)
(-0.0406827 0.0685154 -1.77309e-20)
(-0.0417714 0.0715521 -2.85549e-20)
(-0.0402165 0.0723084 5.46916e-21)
(-0.0360787 0.0714311 -1.66339e-20)
(-0.0293793 0.0694257 -1.6703e-19)
(-0.0200967 0.066676 4.4767e-20)
(-0.00816706 0.0634655 9.20352e-20)
(0.00651267 0.0599982 1.32274e-20)
(0.0240794 0.0564169 3.36017e-20)
(0.0446973 0.0528193 -1.55154e-20)
(0.0685493 0.0492707 -7.43372e-20)
(0.0958282 0.045814 -5.42719e-20)
(0.126725 0.0424774 6.49118e-20)
(0.161409 0.0392789 1.14431e-21)
(0.200043 0.0362361 -6.01452e-20)
(0.242588 0.0333318 4.33801e-20)
(0.289622 0.0307074 -4.82539e-20)
(0.338807 0.0278254 -1.07539e-20)
(0.39741 0.0265689 -1.54548e-20)
(0.443372 0.0217613 2.93234e-20)
(-0.0086343 0.0150884 2.44304e-20)
(-0.0216517 0.0368937 7.11494e-20)
(-0.0313612 0.052174 -7.70736e-20)
(-0.0376507 0.06226 9.00151e-20)
(-0.0407031 0.0682576 8.56711e-20)
(-0.0406485 0.0711505 3.76398e-20)
(-0.037598 0.0717532 -3.85715e-20)
(-0.0316234 0.0707214 4.88501e-20)
(-0.0227451 0.068569 1.11302e-19)
(-0.0109308 0.0656878 -5.70082e-20)
(0.00390308 0.0623698 1.33212e-20)
(0.0218856 0.0588278 -6.46283e-20)
(0.0431831 0.0552147 -1.08048e-20)
(0.0679893 0.051639 -7.91833e-20)
(0.0965126 0.0481776 8.39807e-20)
(0.128962 0.0448855 -9.19324e-21)
(0.165529 0.0418034 -1.36959e-20)
(0.20636 0.0389603 -1.26889e-20)
(0.251582 0.0363917 2.41438e-20)
(0.300994 0.0340523 -4.04116e-20)
(0.355325 0.0322495 3.32021e-20)
(0.411166 0.0299292 7.55907e-21)
(0.477967 0.0302985 -8.18785e-21)
(0.527873 0.0256697 -3.1571e-20)
(-0.00913394 0.0150464 5.84269e-21)
(-0.0226956 0.0367348 -1.02162e-19)
(-0.0324371 0.0518626 1.02954e-20)
(-0.0383003 0.0617655 -7.80782e-20)
(-0.0404927 0.067566 -3.93334e-20)
(-0.0391721 0.0702604 3.10287e-20)
(-0.0344678 0.070673 -1.17328e-20)
(-0.0264571 0.0694677 -1.1156e-20)
(-0.0151546 0.0671658 -4.13258e-20)
(-0.00051107 0.0641667 4.14885e-20)
(0.0175817 0.060771 -1.06103e-19)
(0.0392822 0.0572015 5.36654e-20)
(0.0647875 0.053622 8.71553e-20)
(0.0943174 0.0501533 2.55521e-21)
(0.128096 0.0468851 2.00271e-20)
(0.166332 0.0438855 3.18731e-20)
(0.20919 0.0412074 1.21848e-20)
(0.256751 0.038888 3.03394e-20)
(0.30906 0.036983 -2.26906e-20)
(0.365682 0.0353876 1.099e-19)
(0.427424 0.0346414 1.21828e-19)
(0.489795 0.0330037 8.11897e-20)
(0.564057 0.0352045 4.69835e-20)
(0.617382 0.0308482 7.59174e-20)
(-0.0096268 0.01496 7.8998e-21)
(-0.0236969 0.0364259 5.47539e-20)
(-0.0334153 0.0512976 1.02743e-19)
(-0.0387691 0.0609269 1.96755e-20)
(-0.0399874 0.066458 6.38671e-20)
(-0.0372515 0.0689007 -9.4801e-20)
(-0.0307035 0.0690898 5.63798e-20)
(-0.0204203 0.0676971 -1.88566e-20)
(-0.00640411 0.065251 1.4287e-19)
(0.0114168 0.0621588 -9.21374e-20)
(0.0331796 0.0587305 2.4e-20)
(0.0590742 0.0551996 -4.24621e-20)
(0.0893248 0.0517427 -1.15135e-19)
(0.124168 0.0484939 -7.23863e-20)
(0.163825 0.0455563 -2.977e-20)
(0.208471 0.0430104 1.02186e-20)
(0.258203 0.0409189 1.1548e-20)
(0.31298 0.039321 -1.63673e-20)
(0.372689 0.0382907 -3.09736e-20)
(0.436603 0.0376323 -9.93503e-20)
(0.505439 0.0381421 -7.80005e-20)
(0.573848 0.0373515 -5.29824e-20)
(0.654017 0.04139 -2.87592e-20)
(0.710058 0.0374827 6.62841e-20)
(0.821021 0.0468561 -1.06072e-20)
(-0.0101132 0.0148355 5.13338e-20)
(-0.0246463 0.035979 2.05572e-20)
(-0.034269 0.0504945 -3.2502e-20)
(-0.039008 0.059763 -2.68585e-20)
(-0.0391116 0.0649546 -4.0482e-20)
(-0.0347796 0.0670965 3.72132e-20)
(-0.0261608 0.0670345 -1.08032e-21)
(-0.0133252 0.0654488 4.68897e-20)
(0.00374414 0.0628751 -9.19484e-20)
(0.0251466 0.0597295 9.73522e-20)
(0.051051 0.0563325 1.23123e-20)
(0.0816757 0.0529301 1.36481e-21)
(0.117262 0.0497124 7.05261e-20)
(0.158044 0.0468275 4.7102e-20)
(0.204208 0.044391 1.50807e-20)
(0.25585 0.0424922 2.71239e-20)
(0.312934 0.0411981 -5.97143e-20)
(0.375221 0.0405386 1.32685e-20)
(0.442351 0.0405952 -7.76592e-20)
(0.513256 0.0410653 1.15939e-19)
(0.58833 0.0429434 1.43591e-21)
(0.661806 0.0431898 -2.14367e-21)
(0.745542 0.0488337 -2.35746e-20)
(0.803327 0.0456 -7.95523e-20)
(0.914298 0.0569644 -4.28062e-20)
(-0.0105931 0.0146779 -1.20284e-19)
(-0.0255318 0.0354043 -2.11982e-20)
(-0.0349669 0.0494692 9.90233e-21)
(-0.03896 0.0582934 3.01092e-20)
(-0.0377772 0.0630807 2.01693e-20)
(-0.0316317 0.0648794 -1.63192e-20)
(-0.0206726 0.0645477 -9.22718e-21)
(-0.0049557 0.0627746 7.56754e-20)
(0.0155612 0.0601048 -1.80869e-20)
(0.0410085 0.0569645 -1.60185e-20)
(0.0715852 0.0536861 2.90191e-20)
(0.107529 0.0505293 2.23749e-20)
(0.149079 0.0476983 -2.77586e-20)
(0.196432 0.0453538 -9.82195e-20)
(0.24969 0.0436203 1.69815e-20)
(0.308803 0.0425885 -2.06626e-21)
(0.373521 0.0423183 -1.05309e-20)
(0.443321 0.0428153 1.52691e-20)
(0.517483 0.0441431 1.22541e-19)
(0.594588 0.0459037 -2.44117e-20)
(0.67446 0.0491389 -4.96449e-20)
(0.75147 0.0505784 -6.56094e-21)
(0.835857 0.0573814 5.69007e-20)
(0.894073 0.0550077 4.7676e-20)
(1.00009 0.0675458 1.263e-20)
(-0.0110659 0.0144911 4.70164e-20)
(-0.0263383 0.0347103 -5.45593e-20)
(-0.035472 0.0482372 3.77641e-21)
(-0.0385589 0.0565388 3.19166e-20)
(-0.0358831 0.060865 5.51078e-20)
(-0.0276659 0.0622877 2.57155e-20)
(-0.0140495 0.0616792 -2.85946e-20)
(0.00493101 0.0597396 8.49065e-21)
(0.0293475 0.057024 5.31756e-20)
(0.0593617 0.0539704 -6.31703e-20)
(0.0951942 0.0509248 1.70064e-20)
(0.137083 0.048161 -5.63816e-20)
(0.185232 0.045896 7.87798e-20)
(0.239749 0.0442992 4.6268e-20)
(0.300581 0.0434955 -3.1069e-20)
(0.367449 0.0435649 -3.1032e-21)
(0.439788 0.0445415 -3.69083e-20)
(0.5167 0.046388 3.12889e-20)
(0.597014 0.0491106 1.64731e-20)
(0.678965 0.0522537 2.70237e-20)
(0.761658 0.0567012 -9.96807e-20)
(0.840117 0.0593797 7.64521e-20)
(0.922011 0.0667498 -1.10776e-19)
(0.979025 0.0653031 5.40533e-20)
(1.07558 0.0780256 3.0395e-20)
(-0.0115302 0.0142772 -5.44474e-20)
(-0.0270486 0.0339049 1.17363e-19)
(-0.0357397 0.0468111 -2.4779e-20)
(-0.0377291 0.0545207 -1.17964e-19)
(-0.0333147 0.0583395 5.04273e-20)
(-0.0227224 0.0593655 -4.89846e-20)
(-0.00608065 0.0584886 -3.97701e-20)
(0.0166015 0.056422 -4.29928e-20)
(0.0454271 0.0537335 4.83597e-20)
(0.0805826 0.0508747 6.04407e-20)
(0.122294 0.0482058 -5.00802e-20)
(0.170765 0.0460138 4.11282e-20)
(0.226114 0.0445245 4.49232e-21)
(0.288288 0.0439069 -1.86409e-20)
(0.35699 0.044273 5.49946e-20)
(0.431607 0.0456724 -8.11617e-20)
(0.511163 0.0480891 4.7142e-20)
(0.594302 0.0514206 -3.3153e-20)
(0.679354 0.0555715 -1.15336e-20)
(0.764243 0.060074 1.22536e-19)
(0.847382 0.0654694 1.25798e-19)
(0.924793 0.0692673 2.4151e-20)
(1.00123 0.0765462 -5.78211e-20)
(1.05528 0.0759483 -3.32521e-20)
(1.13894 0.0878446 1.49279e-20)
(-0.0119823 0.0140374 6.62935e-20)
(-0.0276418 0.0329931 -1.23868e-19)
(-0.0357192 0.0452016 4.40795e-20)
(-0.0363843 0.0522614 9.00259e-20)
(-0.0299442 0.0555391 -7.29357e-20)
(-0.0166251 0.0561635 5.47727e-20)
(0.00346321 0.0550452 -6.50792e-20)
(0.0303407 0.0529134 5.69362e-21)
(0.0641374 0.0503508 -3.20097e-20)
(0.10505 0.047824 -3.74348e-20)
(0.153277 0.0457069 8.85137e-21)
(0.208943 0.0442956 -7.40925e-20)
(0.272003 0.0438159 5.09248e-20)
(0.342154 0.0444223 -1.34665e-21)
(0.418748 0.0461926 -1.03731e-20)
(0.500733 0.0491206 -3.85955e-21)
(0.586636 0.0531103 6.46433e-21)
(0.674598 0.0579713 9.19775e-20)
(0.762472 0.0634719 -1.37423e-19)
(0.847954 0.0691653 6.08727e-20)
(0.928981 0.0751553 -1.36054e-19)
(1.00271 0.079782 -4.73358e-21)
(1.07126 0.0863136 5.79189e-21)
(1.12074 0.086396 4.16297e-20)
(1.18951 0.0965418 3.02926e-20)
(-0.0124175 0.0137709 3.15226e-20)
(-0.0280908 0.0319754 2.39947e-20)
(-0.0353535 0.0434199 -1.28564e-19)
(-0.0344285 0.049784 -1.19478e-20)
(-0.0256309 0.0525018 -3.43602e-20)
(-0.00918358 0.0527379 -1.29971e-20)
(0.0148259 0.0514271 1.91584e-19)
(0.0464444 0.0493175 -6.77928e-20)
(0.0858173 0.0470086 -1.3032e-20)
(0.133124 0.0449819 4.09603e-20)
(0.188489 0.0436217 -1.0777e-20)
(0.251884 0.0432252 2.73036e-20)
(0.323012 0.0440033 -1.87895e-20)
(0.401207 0.0460743 -1.37451e-21)
(0.48536 0.0494541 -3.215e-20)
(0.573888 0.0540494 1.05067e-20)
(0.664769 0.0596546 2.49863e-20)
(0.755665 0.0659716 -2.71592e-20)
(0.844064 0.0726225 4.37012e-20)
(0.92757 0.0791921 -4.6162e-20)
(1.00401 0.0853765 2.67166e-20)
(1.07162 0.0904076 3.84001e-20)
(1.13071 0.0956133 3.17712e-21)
(1.17441 0.0962361 -7.01716e-21)
(1.22762 0.103796 -5.29174e-20)
(-0.0128287 0.0134747 -1.20989e-20)
(-0.0283637 0.0308508 3.74327e-20)
(-0.0345772 0.0414758 9.15314e-20)
(-0.0317562 0.0471116 1.84576e-20)
(-0.0202234 0.0492684 1.15799e-20)
(-0.000195875 0.049151 -2.14101e-21)
(0.0282602 0.0477215 -9.02444e-20)
(0.0652099 0.0457497 -1.96993e-20)
(0.110791 0.0438526 2.12957e-20)
(0.165122 0.0425247 -1.22059e-20)
(0.228188 0.0421531 1.05023e-19)
(0.299714 0.0430218 -1.03605e-20)
(0.379037 0.0453048 4.85679e-20)
(0.465015 0.049055 8.20377e-20)
(0.555974 0.0541926 -4.46233e-20)
(0.649745 0.0605052 1.72522e-20)
(0.743777 0.0676541 4.16952e-20)
(0.83535 0.0752236 -1.39192e-20)
(0.921787 0.0827117 -1.04085e-19)
(1.00081 0.0897309 2.07807e-21)
(1.07054 0.0957124 3.8516e-20)
(1.13012 0.100645 -3.48526e-20)
(1.17911 0.104136 3.82228e-20)
(1.21625 0.105288 -3.14641e-20)
(1.25427 0.109369 -3.56301e-20)
(-0.0132044 0.0131432 -5.39297e-20)
(-0.0284246 0.0296183 1.94705e-20)
(-0.0333176 0.0393778 -9.54677e-21)
(-0.0282528 0.0442681 -7.36432e-20)
(-0.0135603 0.0458826 5.48343e-20)
(0.0105478 0.0454702 2.01631e-20)
(0.0440208 0.0440234 -5.06549e-20)
(0.0869239 0.0423352 6.51149e-20)
(0.13935 0.0410393 -3.15352e-20)
(0.201294 0.0406367 -5.67244e-20)
(0.272513 0.0415047 -1.5759e-19)
(0.352373 0.0438921 5.90323e-20)
(0.439724 0.0479061 -1.04671e-19)
(0.532832 0.0534982 -3.92877e-21)
(0.629395 0.0604574 -1.1314e-20)
(0.726664 0.0684252 1.4089e-20)
(0.821661 0.0769205 -3.29404e-20)
(0.911474 0.0854192 -1.31979e-20)
(0.993527 0.0933433 4.45063e-20)
(1.06591 0.100336 -4.97137e-20)
(1.12736 0.105761 -5.74543e-20)
(1.17776 0.11008 8.17564e-20)
(1.21695 0.111806 -5.3325e-20)
(1.24697 0.113472 -5.81482e-21)
(1.27095 0.112913 -1.27747e-20)
(-0.0135318 0.0127731 -3.1434e-20)
(-0.0282293 0.0282747 -3.48324e-20)
(-0.0314948 0.0371329 5.5744e-20)
(-0.0237956 0.0412781 3.81271e-21)
(-0.0054735 0.0423913 -9.79686e-20)
(0.0232602 0.0417686 -1.36426e-19)
(0.0623564 0.0404353 4.21388e-20)
(0.11185 0.0392076 -5.16303e-20)
(0.171732 0.0387317 4.80077e-20)
(0.241795 0.0395037 -4.46983e-20)
(0.321454 0.0418706 1.0343e-19)
(0.409587 0.046016 -1.45416e-20)
(0.504439 0.0519427 4.76322e-20)
(0.603603 0.0594613 6.72032e-20)
(0.704139 0.0681989 -7.11587e-20)
(0.80281 0.0776367 -7.34403e-20)
(0.896401 0.0871629 4.83302e-21)
(0.982071 0.0961776 1.53825e-20)
(1.05763 0.104092 -1.51636e-20)
(1.12178 0.110605 7.0434e-20)
(1.17407 0.11518 8.46292e-20)
(1.215 0.118458 -9.42413e-20)
(1.24533 0.118755 1.30536e-20)
(1.26784 0.120347 2.3645e-20)
(1.27963 0.114047 -3.50968e-20)
(-0.0137979 0.0123595 9.001e-20)
(-0.0277284 0.0268134 5.68014e-20)
(-0.0290212 0.0347487 -8.35387e-20)
(-0.0182553 0.038168 5.3287e-20)
(0.00420947 0.0388449 3.32816e-20)
(0.0381519 0.0381247 1.5713e-19)
(0.0835001 0.0370666 1.01406e-19)
(0.140212 0.036507 -4.94453e-22)
(0.208105 0.0370955 -3.59243e-20)
(0.286658 0.0393055 9.76621e-20)
(0.374817 0.0434242 -1.0149e-19)
(0.470845 0.0495318 4.0302e-20)
(0.572278 0.0574835 3.04599e-20)
(0.676009 0.0669132 -9.28119e-20)
(0.778535 0.0772663 6.93564e-21)
(0.876314 0.0878712 1.03712e-19)
(0.966156 0.098021 1.21952e-20)
(1.04559 0.107095 1.36855e-20)
(1.11307 0.114563 6.29268e-20)
(1.16808 0.120225 -4.13274e-20)
(1.21098 0.123724 -7.62791e-20)
(1.24293 0.12574 6.16898e-20)
(1.26554 0.125016 -1.49099e-19)
(1.28043 0.125132 6.68607e-20)
(1.28916 0.11885 -1.98748e-20)
(-0.0139851 0.0118954 -1.00357e-19)
(-0.0268688 0.0252301 -1.01711e-19)
(-0.0258035 0.0322343 2.06459e-20)
(-0.0114976 0.0349669 2.9119e-20)
(0.0156617 0.0352979 -3.6466e-20)
(0.0554247 0.0346228 -1.53924e-19)
(0.10766 0.0340324 -4.17565e-20)
(0.172183 0.0343773 1.00284e-19)
(0.24854 0.0362945 1.41952e-21)
(0.33577 0.0402079 -4.49899e-20)
(0.432213 0.0463069 8.33605e-20)
(0.535398 0.0545225 -1.23798e-20)
(0.642097 0.0645204 1.36454e-19)
(0.748553 0.0757309 2.66999e-20)
(0.850866 0.0874195 -3.13704e-20)
(0.945449 0.098794 -3.90243e-20)
(1.02944 0.109111 5.7702e-21)
(1.10102 0.117796 2.59486e-20)
(1.15945 0.124441 4.951e-20)
(1.20509 0.128991 6.2972e-21)
(1.23902 0.131275 -6.48119e-21)
(1.26298 0.132048 -2.36429e-20)
(1.27884 0.130312 7.15555e-20)
(1.28835 0.129355 1.05602e-20)
(1.29363 0.122827 6.07989e-20)
(-0.0140731 0.011374 -3.87843e-21)
(-0.0255919 0.023521 3.51012e-20)
(-0.0217434 0.0296003 4.86527e-20)
(-0.00338531 0.0317072 -7.21918e-20)
(0.0290533 0.0318101 9.81644e-21)
(0.0752656 0.0313531 3.12785e-20)
(0.135007 0.0314534 -2.12495e-20)
(0.207867 0.0329633 -9.98854e-21)
(0.292998 0.0364842 1.90203e-20)
(0.38886 0.0423536 -4.58341e-20)
(0.49305 0.0506161 -7.90298e-20)
(0.602279 0.0610055 -3.98133e-20)
(0.712574 0.0729631 -2.84195e-20)
(0.819667 0.0857082 -8.51923e-20)
(0.919513 0.0983537 2.89789e-20)
(1.00879 0.110044 -9.25476e-23)
(1.08527 0.120071 -5.21624e-20)
(1.14795 0.127975 7.95089e-21)
(1.19702 0.133518 2.25357e-20)
(1.23362 0.136806 1.89182e-23)
(1.25945 0.137854 6.58398e-21)
(1.27658 0.137459 6.07538e-20)
(1.28703 0.134848 -6.70312e-20)
(1.29243 0.13302 -7.33478e-20)
(1.29492 0.126283 -1.51787e-20)
(-0.0140394 0.0107896 1.18282e-19)
(-0.0238345 0.0216842 1.00046e-19)
(-0.0167385 0.0268608 -6.91139e-20)
(0.0062194 0.0284262 5.10769e-20)
(0.044547 0.0284473 -3.72558e-20)
(0.0978393 0.0284119 5.28532e-20)
(0.165668 0.029454 -1.46884e-20)
(0.247285 0.0324078 -3.66796e-20)
(0.341313 0.0378059 -2.44884e-20)
(0.445485 0.0458528 9.80304e-20)
(0.55654 0.0563957 3.97553e-20)
(0.67035 0.0689267 3.8093e-20)
(0.782299 0.0826441 -5.35547e-20)
(0.887841 0.0965749 1.09078e-19)
(0.983097 0.109733 -1.0551e-19)
(1.06532 0.121274 -2.23753e-20)
(1.13314 0.1306 1.91157e-20)
(1.18649 0.13742 -3.76224e-20)
(1.22644 0.14169 -1.27384e-19)
(1.25478 0.143675 3.94369e-20)
(1.27361 0.143546 1.66579e-20)
(1.28518 0.142118 -3.98544e-20)
(1.29142 0.138779 2.97658e-20)
(1.29381 0.136255 3.84866e-21)
(1.29448 0.129386 -2.42656e-20)
(-0.0138596 0.0101375 -1.72536e-19)
(-0.0215295 0.0197207 -3.3107e-20)
(-0.0106834 0.0240344 -5.71304e-21)
(0.0174525 0.0251672 2.33183e-20)
(0.0622938 0.0252823 5.91827e-20)
(0.123281 0.0259019 -5.24279e-20)
(0.199709 0.0281611 -6.75785e-20)
(0.290364 0.0328472 -6.57197e-21)
(0.393184 0.0403797 5.06333e-20)
(0.505034 0.0507752 -1.42663e-19)
(0.621733 0.0636297 -1.49041e-20)
(0.738368 0.078162 4.35423e-22)
(0.849879 0.0933328 -8.44278e-23)
(0.951746 0.108024 -5.42402e-20)
(1.04058 0.121226 9.42848e-20)
(1.11449 0.132187 3.87716e-20)
(1.17307 0.14048 1.0652e-20)
(1.21721 0.146017 -2.24259e-20)
(1.24869 0.148948 6.68576e-20)
(1.2698 0.149674 -9.25358e-21)
(1.28283 0.148484 2.61816e-20)
(1.29001 0.146177 1.0611e-20)
(1.29311 0.142252 9.16233e-22)
(1.2934 0.139191 3.01534e-21)
(1.29271 0.132214 -9.10611e-21)
(-0.0135072 0.00941448 1.44323e-19)
(-0.0186066 0.0176353 -6.70882e-20)
(-0.00347214 0.0211454 7.89638e-20)
(0.0304452 0.021981 -1.88516e-20)
(0.082428 0.0223955 -2.6108e-20)
(0.151688 0.0239319 5.07749e-20)
(0.23713 0.0277017 7.17575e-20)
(0.336925 0.0344063 3.6234e-20)
(0.448168 0.0442971 -5.26916e-20)
(0.566748 0.0571421 9.08197e-20)
(0.687563 0.07224 -1.77084e-20)
(0.805067 0.0885252 -1.52775e-20)
(0.914039 0.104757 2.46495e-20)
(1.01033 0.119744 1.76935e-21)
(1.09134 0.132539 -3.67259e-20)
(1.15617 0.142556 1.34532e-20)
(1.20546 0.149582 -5.4195e-21)
(1.24092 0.153739 4.60705e-20)
(1.26488 0.155352 -2.83939e-20)
(1.27989 0.154923 -9.09788e-21)
(1.28828 0.152814 3.20069e-21)
(1.29212 0.149782 -2.73523e-20)
(1.29293 0.145403 2.53851e-20)
(1.29178 0.141917 3.50836e-20)
(1.29021 0.134875 4.83435e-20)
(-0.0129542 0.00861906 -4.94199e-20)