/*--------------------------------*- C++ -*----------------------------------*\
  =========                 |
  \\      /  F ield         | OpenFOAM: The Open Source CFD Toolbox
   \\    /   O peration     | Website:  https://openfoam.org
    \\  /    A nd           | Version:  7
     \\/     M anipulation  |
\*---------------------------------------------------------------------------*/
FoamFile
{
    version     2.0;
    format      ascii;
    class       volScalarField;
    location    "50";
    object      p;
}
// * * * * * * * * * * * * * * * * * * * * * * * * * * * * * * * * * * * * * //

dimensions      [0 2 -2 0 0 0 0];

internalField   nonuniform List<scalar> 
14000
(
-0.231607
-0.235211
-0.236667
-0.238332
-0.240053
-0.24166
-0.242889
-0.243463
-0.24383
-0.241866
-0.232668
-0.236062
-0.23744
-0.239052
-0.240736
-0.242342
-0.243639
-0.24393
-0.244933
-0.241946
-0.234678
-0.237669
-0.238875
-0.240365
-0.241952
-0.243502
-0.245089
-0.244389
-0.247274
-0.241729
-0.23744
-0.239861
-0.240778
-0.24204
-0.243446
-0.244711
-0.247138
-0.244096
-0.25086
-0.24036
-0.240728
-0.242443
-0.242917
-0.243794
-0.244944
-0.245519
-0.249449
-0.24272
-0.253899
-0.238967
-0.244343
-0.245241
-0.245085
-0.245363
-0.246138
-0.245931
-0.250334
-0.241337
-0.255788
-0.237664
-0.248173
-0.248154
-0.247164
-0.246627
-0.246663
-0.246002
-0.250053
-0.239776
-0.253812
-0.238215
-0.252239
-0.251177
-0.249159
-0.2476
-0.246694
-0.245588
-0.247935
-0.239485
-0.247171
-0.237564
-0.25674
-0.254399
-0.251235
-0.24847
-0.246448
-0.244743
-0.244236
-0.238783
-0.23813
-0.231698
-0.261999
-0.258096
-0.253649
-0.249529
-0.246237
-0.243321
-0.23992
-0.234774
-0.227708
-0.220764
-0.268378
-0.262646
-0.256745
-0.251079
-0.246176
-0.241248
-0.235003
-0.227578
-0.216312
-0.206358
-0.276324
-0.268429
-0.260801
-0.253264
-0.246175
-0.238421
-0.228983
-0.218236
-0.205174
-0.193124
-0.286306
-0.275772
-0.265959
-0.256165
-0.246046
-0.234641
-0.221752
-0.208188
-0.193487
-0.180346
-0.29873
-0.284816
-0.272401
-0.259713
-0.245437
-0.229753
-0.213535
-0.197392
-0.181584
-0.168097
-0.313861
-0.2953
-0.280371
-0.263469
-0.24385
-0.223644
-0.204225
-0.186049
-0.169466
-0.155359
-0.331673
-0.306881
-0.289384
-0.266513
-0.240768
-0.216091
-0.193846
-0.174003
-0.156741
-0.142122
-0.350984
-0.319613
-0.297726
-0.267591
-0.235665
-0.206908
-0.182202
-0.16104
-0.143269
-0.128039
-0.369765
-0.333311
-0.303511
-0.265564
-0.228055
-0.195795
-0.169079
-0.146928
-0.128748
-0.113125
-0.385843
-0.346307
-0.305631
-0.25974
-0.217477
-0.182439
-0.154191
-0.131386
-0.113055
-0.0973865
-0.397548
-0.355709
-0.303203
-0.249718
-0.20355
-0.166494
-0.137253
-0.114176
-0.0959939
-0.0807865
-0.403759
-0.358867
-0.295049
-0.235105
-0.185958
-0.147661
-0.118017
-0.0951035
-0.0774032
-0.0629306
-0.403497
-0.353861
-0.280296
-0.215474
-0.164436
-0.125706
-0.0963243
-0.0741239
-0.0571898
-0.04326
-0.395592
-0.339631
-0.258426
-0.190464
-0.138771
-0.100527
-0.0721445
-0.0512838
-0.0353808
-0.0217883
-0.378653
-0.315662
-0.229118
-0.159865
-0.108933
-0.0722437
-0.0456135
-0.0266159
-0.0117732
0.000408143
-0.351325
-0.281828
-0.192139
-0.123806
-0.0751903
-0.041168
-0.0169728
4.08462e-05
0.013391
0.0233307
-0.312673
-0.238255
-0.147578
-0.0828252
-0.0379225
-0.00730282
0.0137314
0.0283606
0.0396069
0.0467763
-0.262471
-0.184982
-0.0964458
-0.0371732
0.00270889
0.0289533
0.046198
0.0578209
0.0661964
0.0700113
-0.201153
-0.121897
-0.0401308
0.0124718
0.0461595
0.0671575
0.0800144
0.0878354
0.0922922
0.0920379
-0.129264
-0.0511632
0.0206392
0.0651163
0.0917173
0.106796
0.114726
0.117942
0.117397
0.112599
-0.0472778
0.0235631
0.0847373
0.119752
0.138548
0.147211
0.149766
0.147864
0.142091
0.133458
0.041308
0.101019
0.150601
0.175273
0.185726
0.187599
0.184396
0.177199
0.166906
0.159261
0.133366
0.17958
0.216562
0.230434
0.232256
0.227109
0.217924
0.205588
0.191955
0.183902
0.225539
0.257141
0.28092
0.283914
0.277084
0.264931
0.249924
0.232975
0.216433
0.205955
0.314482
0.331469
0.341986
0.334373
0.319136
0.300193
0.279693
0.258619
0.2393
0.225754
0.396961
0.400353
0.398118
0.380519
0.357414
0.332174
0.306679
0.281873
0.259736
0.242983
0.470147
0.461638
0.447732
0.421106
0.390942
0.360106
0.330258
0.302202
0.277407
0.257569
0.531895
0.513151
0.489341
0.455028
0.418876
0.383324
0.349841
0.319057
0.291923
0.269337
0.580183
0.553217
0.521679
0.481336
0.440496
0.401272
0.364979
0.332067
0.303037
0.278182
0.613345
0.580616
0.543779
0.499293
0.455231
0.413492
0.375283
0.340915
0.310554
0.284067
0.630222
0.594524
0.554993
0.508399
0.462697
0.419681
0.380501
0.345392
0.314344
0.286998
0.630222
0.594524
0.554993
0.508399
0.462697
0.419681
0.380501
0.345392
0.314344
0.286998
0.613345
0.580615
0.543779
0.499293
0.455231
0.413492
0.375283
0.340915
0.310554
0.284067
0.580182
0.553217
0.521679
0.481336
0.440495
0.401272
0.364978
0.332066
0.303037
0.278182
0.531894
0.513151
0.489341
0.455028
0.418876
0.383324
0.349841
0.319057
0.291923
0.269337
0.470146
0.461637
0.447732
0.421106
0.390941
0.360106
0.330257
0.302202
0.277407
0.257569
0.39696
0.400352
0.398117
0.380519
0.357414
0.332174
0.306678
0.281873
0.259736
0.242983
0.314481
0.331468
0.341985
0.334373
0.319135
0.300192
0.279692
0.258618
0.239299
0.225753
0.225538
0.25714
0.280919
0.283913
0.277084
0.26493
0.249924
0.232975
0.216432
0.205955
0.133365
0.179579
0.216561
0.230433
0.232255
0.227108
0.217923
0.205587
0.191954
0.183902
0.0413064
0.101017
0.1506
0.175272
0.185725
0.187598
0.184396
0.177198
0.166905
0.15926
-0.0472795
0.0235616
0.084736
0.119751
0.138547
0.147211
0.149765
0.147863
0.14209
0.133458
-0.129265
-0.0511649
0.0206378
0.065115
0.0917162
0.106795
0.114725
0.117941
0.117396
0.112598
-0.201155
-0.121898
-0.0401323
0.0124704
0.0461583
0.0671564
0.0800134
0.0878345
0.0922914
0.0920372
-0.262473
-0.184984
-0.0964475
-0.0371747
0.00270756
0.0289521
0.0461969
0.0578199
0.0661955
0.0700105
-0.312676
-0.238257
-0.14758
-0.0828268
-0.037924
-0.00730411
0.0137302
0.0283595
0.0396059
0.0467755
-0.351327
-0.281831
-0.192141
-0.123808
-0.0751919
-0.0411693
-0.016974
3.97301e-05
0.01339
0.0233298
-0.378655
-0.315665
-0.22912
-0.159867
-0.108935
-0.0722452
-0.0456148
-0.0266171
-0.0117743
0.000407213
-0.395595
-0.339633
-0.258428
-0.190466
-0.138773
-0.100529
-0.072146
-0.0512851
-0.0353819
-0.0217892
-0.4035
-0.353864
-0.280298
-0.215476
-0.164438
-0.125708
-0.0963258
-0.0741252
-0.0571909
-0.043261
-0.403762
-0.35887
-0.295051
-0.235107
-0.18596
-0.147663
-0.118019
-0.0951049
-0.0774044
-0.0629317
-0.397551
-0.355712
-0.303206
-0.24972
-0.203552
-0.166496
-0.137255
-0.114178
-0.0959952
-0.0807876
-0.385846
-0.34631
-0.305634
-0.259742
-0.217479
-0.182441
-0.154193
-0.131388
-0.113056
-0.0973877
-0.369768
-0.333314
-0.303513
-0.265567
-0.228058
-0.195797
-0.169081
-0.14693
-0.128749
-0.113126
-0.350987
-0.319616
-0.297728
-0.267594
-0.235668
-0.20691
-0.182204
-0.161042
-0.143271
-0.128041
-0.331676
-0.306884
-0.289387
-0.266516
-0.24077
-0.216094
-0.193849
-0.174005
-0.156743
-0.142124
-0.313864
-0.295303
-0.280373
-0.263472
-0.243853
-0.223647
-0.204228
-0.186051
-0.169468
-0.155361
-0.298733
-0.284819
-0.272403
-0.259715
-0.24544
-0.229756
-0.213537
-0.197394
-0.181586
-0.168099
-0.286309
-0.275775
-0.265962
-0.256168
-0.246049
-0.234644
-0.221755
-0.208191
-0.193489
-0.180348
-0.276327
-0.268432
-0.260804
-0.253267
-0.246178
-0.238424
-0.228987
-0.21824
-0.205177
-0.193126
-0.268381
-0.262649
-0.256747
-0.251082
-0.246179
-0.241251
-0.235007
-0.227582
-0.216315
-0.20636
-0.262002
-0.258099
-0.253652
-0.249532
-0.24624
-0.243325
-0.239925
-0.234778
-0.227713
-0.220767
-0.256743
-0.254401
-0.251238
-0.248473
-0.246451
-0.244747
-0.244241
-0.238789
-0.238136
-0.231702
-0.252241
-0.25118
-0.249162
-0.247603
-0.246698
-0.245592
-0.24794
-0.239491
-0.247177
-0.23757
-0.248175
-0.248157
-0.247167
-0.24663
-0.246666
-0.246006
-0.250058
-0.239782
-0.253818
-0.238221
-0.244345
-0.245243
-0.245088
-0.245366
-0.246141
-0.245935
-0.250339
-0.241343
-0.255794
-0.23767
-0.24073
-0.242445
-0.242919
-0.243797
-0.244947
-0.245523
-0.249453
-0.242725
-0.253905
-0.238972
-0.237442
-0.239863
-0.24078
-0.242042
-0.243449
-0.244714
-0.247142
-0.244101
-0.250865
-0.240365
-0.234679
-0.23767
-0.238876
-0.240366
-0.241954
-0.243504
-0.245091
-0.244392
-0.247277
-0.241733
-0.232669
-0.236063
-0.23744
-0.239053
-0.240737
-0.242344
-0.24364
-0.243932
-0.244935
-0.241948
-0.231607
-0.235211
-0.236667
-0.238332
-0.240054
-0.241661
-0.242889
-0.243464
-0.24383
-0.241866
-0.241044
-0.240259
-0.239371
-0.238396
-0.237336
-0.236202
-0.234998
-0.23373
-0.232401
-0.231016
-0.229575
-0.22808
-0.226531
-0.224929
-0.223274
-0.221565
-0.219802
-0.217992
-0.216135
-0.214228
-0.212272
-0.210265
-0.208208
-0.206101
-0.203942
-0.201732
-0.19947
-0.197156
-0.194791
-0.192374
-0.189904
-0.187383
-0.184811
-0.182187
-0.179513
-0.176789
-0.174016
-0.171195
-0.168327
-0.165413
-0.162456
-0.159457
-0.156417
-0.15334
-0.150227
-0.147081
-0.143904
-0.140699
-0.13747
-0.13422
-0.130951
-0.127668
-0.124373
-0.12107
-0.117764
-0.114458
-0.111155
-0.107861
-0.104578
-0.10131
-0.0980604
-0.0948338
-0.0916333
-0.0884625
-0.0853248
-0.0822234
-0.0791616
-0.0761422
-0.0731682
-0.070242
-0.0673663
-0.0645434
-0.0617756
-0.059064
-0.0564115
-0.0538189
-0.0512875
-0.0488187
-0.0464135
-0.0440725
-0.0417965
-0.0395859
-0.0374409
-0.0353618
-0.0333485
-0.0314009
-0.0295188
-0.0277015
-0.0259487
-0.02426
-0.0226346
-0.0210718
-0.0195707
-0.0181305
-0.0167503
-0.0154291
-0.014166
-0.01296
-0.01181
-0.0107152
-0.00967432
-0.00868657
-0.00775094
-0.00686651
-0.00603238
-0.00524773
-0.00451177
-0.00382381
-0.00318323
-0.00258949
-0.0020422
-0.00154109
-0.00108605
-0.000677138
-0.000314937
8.42037e-07
0.00026495
0.000493167
0.000599833
0.000897269
-0.241521
-0.240705
-0.239781
-0.238781
-0.237701
-0.23655
-0.235334
-0.234058
-0.232724
-0.231336
-0.229893
-0.228398
-0.22685
-0.225249
-0.223592
-0.221882
-0.220126
-0.218322
-0.21647
-0.214568
-0.212616
-0.210613
-0.20856
-0.206457
-0.204303
-0.202097
-0.19984
-0.197531
-0.19517
-0.192757
-0.190291
-0.187774
-0.185205
-0.182584
-0.179913
-0.177191
-0.17442
-0.171601
-0.168734
-0.165822
-0.162866
-0.159867
-0.156827
-0.153749
-0.150635
-0.147488
-0.14431
-0.141103
-0.137872
-0.134619
-0.131347
-0.12806
-0.124762
-0.121456
-0.118146
-0.114836
-0.111529
-0.108229
-0.104941
-0.101667
-0.0984127
-0.0951805
-0.0919744
-0.0887978
-0.0856544
-0.0825474
-0.079479
-0.0764524
-0.0734727
-0.0705406
-0.0676589
-0.0648298
-0.0620557
-0.0593383
-0.0566796
-0.0540808
-0.0515434
-0.0490686
-0.0466574
-0.0443106
-0.0420288
-0.0398124
-0.0376618
-0.0355771
-0.0335582
-0.0316052
-0.0297176
-0.0278951
-0.0261372
-0.0244435
-0.0228131
-0.0212453
-0.0197395
-0.0182946
-0.0169098
-0.0155841
-0.0143166
-0.0131063
-0.0119521
-0.0108531
-0.00980828
-0.0088166
-0.00787712
-0.00698892
-0.00615111
-0.00536283
-0.00462331
-0.00393183
-0.00328775
-0.00269053
-0.00213973
-0.00163503
-0.0011763
-0.000763389
-0.000397062
-7.58772e-05
0.000192511
0.000431447
0.000536729
0.000823158
-0.242388
-0.24142
-0.240426
-0.239399
-0.238301
-0.237134
-0.235906
-0.234622
-0.233284
-0.231895
-0.230456
-0.228967
-0.227426
-0.225832
-0.224181
-0.222483
-0.220739
-0.218943
-0.217097
-0.215201
-0.213256
-0.211261
-0.209216
-0.20712
-0.204972
-0.202774
-0.200523
-0.198221
-0.195866
-0.19346
-0.191001
-0.18849
-0.185927
-0.183312
-0.180645
-0.177929
-0.175162
-0.172347
-0.169483
-0.166574
-0.163619
-0.160622
-0.157583
-0.154505
-0.151391
-0.148242
-0.145062
-0.141853
-0.138618
-0.135362
-0.132086
-0.128796
-0.125497
-0.122164
-0.118853
-0.115538
-0.112223
-0.108915
-0.105619
-0.102336
-0.0990722
-0.0958303
-0.092614
-0.0894271
-0.0862729
-0.0831548
-0.080076
-0.0770395
-0.0740483
-0.0711048
-0.0682118
-0.0653716
-0.0625862
-0.0598576
-0.0571877
-0.0545779
-0.0520296
-0.049544
-0.0471221
-0.0447647
-0.0424725
-0.0402458
-0.038085
-0.0359903
-0.0339616
-0.0319988
-0.0301017
-0.0282698
-0.0265028
-0.0248
-0.0231607
-0.0215843
-0.0200699
-0.0186166
-0.0172236
-0.0158899
-0.0146145
-0.0133964
-0.0122346
-0.0111281
-0.0100759
-0.00907689
-0.00813024
-0.00723494
-0.00639009
-0.00559483
-0.00484834
-0.00414987
-0.00349876
-0.00289438
-0.00233626
-0.00182393
-0.00135726
-0.000935574
-0.000560256
-0.00022725
5.05902e-05
0.000309578
0.000419994
0.000694707
-0.244516
-0.242099
-0.241194
-0.240058
-0.238929
-0.237754
-0.236527
-0.235249
-0.233921
-0.232541
-0.231111
-0.229631
-0.228099
-0.226512
-0.224866
-0.223186
-0.221448
-0.219664
-0.217833
-0.215953
-0.214027
-0.212033
-0.21
-0.207919
-0.205787
-0.203603
-0.201367
-0.199078
-0.196737
-0.194342
-0.191895
-0.189395
-0.186842
-0.184237
-0.181579
-0.178871
-0.176111
-0.173302
-0.170445
-0.16754
-0.16459
-0.161595
-0.158559
-0.155483
-0.152369
-0.14922
-0.146039
-0.142828
-0.139591
-0.136331
-0.13305
-0.129753
-0.126443
-0.123124
-0.1198
-0.116475
-0.113151
-0.109835
-0.106528
-0.103236
-0.0999612
-0.0967084
-0.093481
-0.0902826
-0.0871167
-0.0839866
-0.0808955
-0.0778465
-0.0748426
-0.0718865
-0.0689807
-0.0661275
-0.0633292
-0.0605876
-0.0579047
-0.0552819
-0.0527206
-0.050222
-0.0477872
-0.045417
-0.0431119
-0.0408725
-0.0386991
-0.0365918
-0.0345507
-0.0325756
-0.0306663
-0.0288224
-0.0270433
-0.0253287
-0.0236777
-0.0220896
-0.0205636
-0.019099
-0.0176946
-0.0163497
-0.0150631
-0.013834
-0.0126612
-0.0115438
-0.0104807
-0.00947091
-0.00851344
-0.00760731
-0.0067516
-0.00594539
-0.00518784
-0.00447813
-0.00381555
-0.00319936
-0.00262904
-0.00210382
-0.00162373
-0.0011871
-0.00079664
-0.000444286
-0.00014998
0.000136206
0.000267314
0.000539603
-0.243287
-0.242972
-0.24172
-0.240517
-0.239385
-0.238219
-0.237005
-0.235747
-0.234444
-0.233093
-0.231695
-0.230248
-0.228751
-0.227198
-0.225585
-0.223921
-0.222208
-0.220443
-0.218627
-0.216762
-0.214846
-0.21288
-0.210863
-0.208794
-0.206673
-0.2045
-0.202275
-0.199998
-0.197668
-0.195285
-0.192849
-0.19036
-0.187818
-0.185223
-0.182576
-0.179876
-0.177126
-0.174326
-0.171476
-0.168579
-0.165635
-0.162647
-0.159616
-0.156544
-0.153434
-0.150288
-0.14711
-0.1439
-0.140664
-0.137404
-0.134123
-0.130825
-0.127513
-0.12419
-0.120862
-0.117533
-0.114205
-0.110884
-0.107572
-0.104273
-0.100992
-0.0977317
-0.0944967
-0.0912901
-0.0881156
-0.0849765
-0.0818761
-0.0788175
-0.0758035
-0.072837
-0.0699206
-0.0670565
-0.0642469
-0.061494
-0.0587993
-0.0561647
-0.0535913
-0.0510805
-0.0486333
-0.0462505
-0.0439327
-0.0416804
-0.039494
-0.0373736
-0.0353193
-0.0333309
-0.0314081
-0.0295507
-0.0277581
-0.0260297
-0.0243649
-0.022763
-0.0212232
-0.0197446
-0.0183262
-0.0169671
-0.0156664
-0.0144229
-0.0132358
-0.0121038
-0.0110261
-0.0100016
-0.00902917
-0.00810791
-0.00723681
-0.00641493
-0.00564137
-0.00491521
-0.00423568
-0.00360187
-0.00301325
-0.00246859
-0.00196827
-0.00150922
-0.00109596
-0.000716086
-0.000395719
-7.62962e-05
9.54734e-05
0.000380158
-0.240418
-0.241329
-0.241031
-0.240249
-0.239268
-0.238193
-0.237066
-0.235881
-0.234625
-0.233306
-0.231934
-0.230512
-0.229036
-0.227499
-0.225893
-0.224216
-0.222543
-0.220831
-0.219062
-0.217234
-0.215353
-0.213419
-0.211435
-0.209399
-0.20731
-0.205167
-0.202971
-0.20072
-0.198415
-0.196056
-0.193643
-0.191175
-0.188653
-0.186077
-0.183448
-0.180766
-0.178032
-0.175247
-0.172412
-0.169529
-0.166598
-0.163623
-0.160604
-0.157543
-0.154444
-0.151308
-0.148138
-0.144938
-0.14171
-0.138457
-0.135183
-0.131891
-0.128585
-0.125268
-0.121945
-0.118619
-0.115295
-0.111975
-0.108665
-0.105368
-0.102088
-0.0988277
-0.0955923
-0.0923848
-0.0892087
-0.0860675
-0.0829643
-0.0799023
-0.0768844
-0.0739134
-0.0709918
-0.068122
-0.0653061
-0.0625463
-0.0598442
-0.0572015
-0.0546196
-0.0520997
-0.0496428
-0.0472498
-0.0449213
-0.0426578
-0.0404598
-0.0383272
-0.0362602
-0.0342587
-0.0323225
-0.0304511
-0.0286441
-0.0269011
-0.0252212
-0.0236038
-0.0220481
-0.0205532
-0.0191183
-0.0177423
-0.0164243
-0.0151633
-0.0139582
-0.0128079
-0.0117115
-0.0106678
-0.0096759
-0.00873463
-0.00784302
-0.00700005
-0.00620476
-0.00545613
-0.00475333
-0.0040952
-0.00348124
-0.00290969
-0.00238131
-0.00189165
-0.00144672
-0.00103114
-0.000673405
-0.000314614
-8.40611e-05
0.000228994
-0.236914
-0.237694
-0.238448
-0.238421
-0.237759
-0.236913
-0.23606
-0.235121
-0.234036
-0.232841
-0.231581
-0.230268
-0.228895
-0.227454
-0.225938
-0.224327
-0.222612
-0.220888
-0.219179
-0.217423
-0.215598
-0.213703
-0.211747
-0.209735
-0.207668
-0.205547
-0.203372
-0.201144
-0.198864
-0.19653
-0.194141
-0.191698
-0.189199
-0.186647
-0.184041
-0.181382
-0.178671
-0.175909
-0.173097
-0.170236
-0.167327
-0.164373
-0.161376
-0.158337
-0.155258
-0.152143
-0.148994
-0.145814
-0.142605
-0.139372
-0.136117
-0.132844
-0.129556
-0.126257
-0.122951
-0.119641
-0.116333
-0.113028
-0.109732
-0.106449
-0.103181
-0.099933
-0.0967085
-0.0935111
-0.0903441
-0.0872111
-0.0841152
-0.0810594
-0.0780466
-0.0750797
-0.0721611
-0.0692933
-0.0664784
-0.0637183
-0.061015
-0.05837
-0.0557847
-0.0532604
-0.050798
-0.0483985
-0.0460626
-0.0437906
-0.0415831
-0.0394402
-0.037362
-0.0353483
-0.033399
-0.0315138
-0.0296922
-0.0279336
-0.0262375
-0.0246032
-0.0230299
-0.0215167
-0.0200627
-0.018667
-0.0173287
-0.0160466
-0.0148198
-0.0136473
-0.0125279
-0.0114606
-0.0104442
-0.00947782
-0.00856027
-0.00769048
-0.00686744
-0.00609
-0.00535725
-0.00466782
-0.0040212
-0.00341514
-0.0028506
-0.0023223
-0.00183654
-0.0013775
-0.000971269
-0.000566489
-0.000264314
9.13548e-05
-0.233779
-0.233493
-0.234804
-0.235109
-0.234467
-0.233825
-0.233361
-0.232761
-0.231904
-0.23088
-0.229773
-0.228592
-0.227328
-0.225986
-0.224573
-0.223087
-0.221518
-0.219842
-0.218072
-0.21632
-0.214633
-0.212897
-0.21108
-0.209182
-0.207207
-0.205161
-0.20305
-0.200883
-0.198662
-0.196387
-0.194053
-0.191662
-0.189215
-0.186713
-0.184156
-0.181544
-0.178879
-0.176162
-0.173393
-0.170574
-0.167707
-0.164793
-0.161835
-0.158835
-0.155795
-0.152717
-0.149605
-0.146461
-0.143288
-0.14009
-0.136869
-0.133629
-0.130374
-0.127108
-0.123833
-0.120554
-0.117275
-0.114
-0.110732
-0.107474
-0.104232
-0.101008
-0.0978069
-0.0946312
-0.0914846
-0.0883705
-0.0852921
-0.0822523
-0.0792542
-0.0763003
-0.0733932
-0.0705353
-0.0677287
-0.0649755
-0.0622774
-0.059636
-0.0570529
-0.0545291
-0.0520658
-0.0496639
-0.047324
-0.0450467
-0.0428324
-0.0406814
-0.0385937
-0.0365692
-0.0346078
-0.0327093
-0.0308732
-0.029099
-0.0273861
-0.0257339
-0.0241416
-0.0226084
-0.0211335
-0.0197159
-0.0183546
-0.0170486
-0.015797
-0.0145987
-0.0134525
-0.0123574
-0.0113124
-0.0103162
-0.00936776
-0.00846595
-0.00760965
-0.00679761
-0.00602883
-0.00530177
-0.0046158
-0.00396846
-0.00336044
-0.0027865
-0.00225177
-0.0017425
-0.00127856
-0.000820967
-0.000439459
-2.97905e-05
-0.228191
-0.228271
-0.230131
-0.230122
-0.229243
-0.228912
-0.228944
-0.228765
-0.228277
-0.227619
-0.226856
-0.225975
-0.224972
-0.223861
-0.222651
-0.221348
-0.219952
-0.218465
-0.21687
-0.215119
-0.213215
-0.211366
-0.209639
-0.207876
-0.206026
-0.204082
-0.202054
-0.199961
-0.197812
-0.195604
-0.193332
-0.190999
-0.188608
-0.186162
-0.183661
-0.181105
-0.178496
-0.175834
-0.173121
-0.170358
-0.167548
-0.164691
-0.161789
-0.158846
-0.155862
-0.152841
-0.149785
-0.146697
-0.143579
-0.140436
-0.13727
-0.134085
-0.130883
-0.127669
-0.124446
-0.121218
-0.117989
-0.114762
-0.111541
-0.108329
-0.105131
-0.10195
-0.0987886
-0.0956516
-0.0925418
-0.0894625
-0.0864168
-0.0834077
-0.080438
-0.0775103
-0.0746271
-0.0717908
-0.0690036
-0.0662675
-0.0635842
-0.0609554
-0.0583825
-0.0558669
-0.0534095
-0.0510113
-0.048673
-0.0463953
-0.0441786
-0.0420231
-0.039929
-0.0378963
-0.0359249
-0.0340146
-0.0321651
-0.0303758
-0.0286463
-0.0269759
-0.0253639
-0.0238096
-0.0223122
-0.0208707
-0.0194843
-0.0181519
-0.0168725
-0.0156452
-0.0144688
-0.0133422
-0.0122643
-0.011234
-0.0102502
-0.0093115
-0.00841688
-0.00756497
-0.00675466
-0.00598432
-0.00525307
-0.00455856
-0.00390075
-0.00327526
-0.00268493
-0.00211974
-0.0015914
-0.00107465
-0.000609194
-0.00013459
-0.220273
-0.222367
-0.223919
-0.222924
-0.221838
-0.221718
-0.221918
-0.221915
-0.221707
-0.221385
-0.220955
-0.220401
-0.219727
-0.218942
-0.218049
-0.217049
-0.215945
-0.214742
-0.213446
-0.212064
-0.210571
-0.208892
-0.207027
-0.205246
-0.203547
-0.201775
-0.19991
-0.197986
-0.19601
-0.193967
-0.19185
-0.189662
-0.187408
-0.185093
-0.182715
-0.180278
-0.177782
-0.17523
-0.172623
-0.169962
-0.16725
-0.164489
-0.161681
-0.158829
-0.155933
-0.152998
-0.150026
-0.147019
-0.143981
-0.140915
-0.137824
-0.134711
-0.131579
-0.128433
-0.125275
-0.12211
-0.11894
-0.115771
-0.112604
-0.109444
-0.106295
-0.10316
-0.100043
-0.0969467
-0.0938748
-0.0908305
-0.0878169
-0.0848371
-0.0818937
-0.0789895
-0.076127
-0.0733084
-0.0705362
-0.0678123
-0.0651386
-0.0625167
-0.0599482
-0.0574345
-0.0549766
-0.0525756
-0.0502323
-0.0479474
-0.0457213
-0.0435545
-0.0414472
-0.0393995
-0.0374113
-0.0354824
-0.0336127
-0.0318017
-0.030049
-0.028354
-0.0267161
-0.0251345
-0.0236084
-0.0221371
-0.0207196
-0.019355
-0.0180422
-0.0167803
-0.0155681
-0.0144046
-0.0132885
-0.0122189
-0.0111943
-0.0102136
-0.00927546
-0.0083786
-0.00752166
-0.00670309
-0.00592156
-0.00517511
-0.00446265
-0.00378118
-0.00313066
-0.00250551
-0.0019091
-0.00132936
-0.000780072
-0.000233978
-0.207771
-0.214743
-0.215732
-0.21434
-0.213261
-0.213058
-0.213307
-0.213585
-0.213727
-0.213711
-0.213555
-0.21328
-0.212893
-0.212395
-0.211783
-0.211056
-0.210219
-0.209274
-0.208225
-0.207076
-0.20583
-0.204492
-0.203049
-0.201458
-0.199727
-0.197916
-0.196072
-0.194219
-0.192333
-0.190388
-0.188373
-0.18629
-0.184142
-0.181931
-0.179659
-0.177326
-0.174933
-0.172483
-0.169977
-0.167418
-0.164807
-0.162146
-0.159438
-0.156685
-0.15389
-0.151054
-0.148182
-0.145275
-0.142337
-0.13937
-0.136379
-0.133365
-0.130333
-0.127286
-0.124227
-0.121159
-0.118088
-0.115014
-0.111944
-0.108879
-0.105823
-0.10278
-0.0997531
-0.0967453
-0.09376
-0.0908002
-0.0878689
-0.0849688
-0.0821027
-0.079273
-0.0764823
-0.0737328
-0.0710266
-0.0683656
-0.0657516
-0.0631862
-0.0606709
-0.058207
-0.0557956
-0.0534377
-0.0511341
-0.0488854
-0.0466922
-0.0445548
-0.0424736
-0.0404486
-0.0384798
-0.0365672
-0.0347104
-0.0329092
-0.0311632
-0.0294718
-0.0278345
-0.0262506
-0.0247194
-0.0232401
-0.0218118
-0.0204336
-0.0191046
-0.0178238
-0.0165901
-0.0154024
-0.0142597
-0.0131606
-0.0121041
-0.0110889
-0.0101135
-0.00917683
-0.00827722
-0.00741334
-0.0065834
-0.00578599
-0.00501891
-0.0042808
-0.00356865
-0.00288148
-0.0022147
-0.00156832
-0.000934294
-0.000315115
-0.189135
-0.198374
-0.201393
-0.200845
-0.199858
-0.199663
-0.200158
-0.200856
-0.201417
-0.201744
-0.201871
-0.201852
-0.201718
-0.201471
-0.201105
-0.200615
-0.200001
-0.199265
-0.198409
-0.197435
-0.196342
-0.195132
-0.193813
-0.192414
-0.190988
-0.189579
-0.188165
-0.186676
-0.185058
-0.183326
-0.181508
-0.179619
-0.177663
-0.175639
-0.173548
-0.171394
-0.169177
-0.166901
-0.164567
-0.162179
-0.159738
-0.157246
-0.154707
-0.152122
-0.149495
-0.146827
-0.144122
-0.141382
-0.138611
-0.135811
-0.132986
-0.130139
-0.127272
-0.12439
-0.121495
-0.11859
-0.11568
-0.112767
-0.109854
-0.106945
-0.104044
-0.101152
-0.0982744
-0.0954127
-0.0925702
-0.0897499
-0.0869545
-0.0841866
-0.0814487
-0.0787432
-0.0760723
-0.0734382
-0.0708429
-0.068288
-0.0657754
-0.0633066
-0.060883
-0.0585058
-0.0561761
-0.0538948
-0.0516629
-0.0494809
-0.0473494
-0.0452688
-0.0432395
-0.0412616
-0.0393352
-0.0374602
-0.0356365
-0.0338639
-0.0321419
-0.0304704
-0.0288486
-0.0272761
-0.0257522
-0.0242762
-0.0228474
-0.021465
-0.0201279
-0.0188354
-0.0175865
-0.0163801
-0.0152151
-0.0140904
-0.0130049
-0.0119573
-0.0109463
-0.00997058
-0.0090286
-0.00811917
-0.00724015
-0.00639071
-0.00556768
-0.00477125
-0.00399601
-0.0032448
-0.00250705
-0.00179214
-0.00107673
-0.000384634
-0.172392
-0.18233
-0.18647
-0.186887
-0.186477
-0.186647
-0.187474
-0.188529
-0.189449
-0.190106
-0.19053
-0.19079
-0.190926
-0.190948
-0.19085
-0.190628
-0.190281
-0.189812
-0.189228
-0.188536
-0.187744
-0.186862
-0.185903
-0.184874
-0.183772
-0.182577
-0.181258
-0.179802
-0.17825
-0.176646
-0.174991
-0.173275
-0.17149
-0.169637
-0.167716
-0.165731
-0.163684
-0.161578
-0.159414
-0.157194
-0.154922
-0.152599
-0.150228
-0.147811
-0.145351
-0.142851
-0.140313
-0.13774
-0.135134
-0.1325
-0.12984
-0.127156
-0.124452
-0.121731
-0.118996
-0.11625
-0.113496
-0.110738
-0.107978
-0.105219
-0.102465
-0.0997186
-0.0969823
-0.0942591
-0.0915518
-0.0888631
-0.0861955
-0.0835516
-0.0809336
-0.0783439
-0.0757845
-0.0732575
-0.0707646
-0.0683078
-0.0658886
-0.0635084
-0.0611687
-0.0588706
-0.0566153
-0.0544037
-0.0522366
-0.0501147
-0.0480387
-0.046009
-0.0440258
-0.0420896
-0.0402004
-0.0383582
-0.0365629
-0.0348145
-0.0331127
-0.0314571
-0.0298473
-0.0282829
-0.0267633
-0.0252879
-0.023856
-0.0224668
-0.0211196
-0.0198135
-0.0185476
-0.0173209
-0.0161323
-0.0149809
-0.0138655
-0.0127849
-0.0117378
-0.010723
-0.00973876
-0.00878425
-0.00785699
-0.00695666
-0.00607945
-0.00522667
-0.00439134
-0.00357898
-0.0027752
-0.00199552
-0.00120663
-0.000444272
-0.158141
-0.16758
-0.172205
-0.173468
-0.173765
-0.174401
-0.175546
-0.176874
-0.178068
-0.179003
-0.179698
-0.180214
-0.180595
-0.180857
-0.180995
-0.181007
-0.180891
-0.180653
-0.180297
-0.179831
-0.17926
-0.178586
-0.177809
-0.176927
-0.17594
-0.174853
-0.173679
-0.17244
-0.171152
-0.169788
-0.168338
-0.166807
-0.165201
-0.163524
-0.16178
-0.15997
-0.158097
-0.156164
-0.154171
-0.152122
-0.15002
-0.147866
-0.145663
-0.143414
-0.141122
-0.138788
-0.136416
-0.134008
-0.131568
-0.129097
-0.126599
-0.124077
-0.121534
-0.118972
-0.116394
-0.113804
-0.111205
-0.108598
-0.105988
-0.103377
-0.100768
-0.0981635
-0.0955664
-0.0929793
-0.0904049
-0.0878456
-0.0853039
-0.082782
-0.0802823
-0.0778068
-0.0753575
-0.0729364
-0.0705452
-0.0681856
-0.0658592
-0.0635673
-0.0613114
-0.0590926
-0.056912
-0.0547704
-0.0526689
-0.050608
-0.0485884
-0.0466106
-0.044675
-0.0427819
-0.0409315
-0.0391238
-0.0373588
-0.0356366
-0.0339568
-0.0323194
-0.0307238
-0.0291698
-0.0276568
-0.0261844
-0.0247518
-0.0233585
-0.0220037
-0.0206866
-0.0194064
-0.0181622
-0.016953
-0.0157779
-0.0146356
-0.0135252
-0.0124452
-0.0113947
-0.010372
-0.0093762
-0.00840484
-0.00745795
-0.00653134
-0.00562709
-0.00473733
-0.00386924
-0.00300614
-0.00216712
-0.00131307
-0.000487397
-0.145191
-0.154088
-0.158958
-0.160863
-0.161782
-0.162859
-0.164296
-0.165855
-0.167278
-0.168455
-0.169394
-0.170146
-0.170754
-0.171233
-0.171584
-0.171804
-0.171895
-0.17186
-0.171704
-0.171433
-0.17105
-0.170558
-0.16996
-0.169259
-0.168462
-0.16758
-0.166621
-0.165588
-0.164472
-0.163267
-0.161978
-0.16061
-0.159168
-0.157655
-0.156074
-0.154428
-0.152717
-0.150945
-0.149114
-0.147227
-0.145285
-0.143291
-0.141249
-0.139159
-0.137026
-0.134851
-0.132637
-0.130387
-0.128103
-0.125788
-0.123446
-0.121078
-0.118687
-0.116277
-0.113849
-0.111408
-0.108955
-0.106493
-0.104026
-0.101555
-0.0990836
-0.0966142
-0.0941495
-0.0916918
-0.0892437
-0.0868075
-0.0843854
-0.0819796
-0.0795923
-0.0772255
-0.0748811
-0.0725609
-0.0702665
-0.0679997
-0.0657618
-0.0635544
-0.0613785
-0.0592356
-0.0571265
-0.0550522
-0.0530136
-0.0510114
-0.0490463
-0.0471187
-0.0452292
-0.043378
-0.0415653
-0.0397914
-0.0380562
-0.0363599
-0.0347022
-0.033083
-0.031502
-0.0299589
-0.0284533
-0.0269847
-0.0255526
-0.0241565
-0.0227955
-0.0214691
-0.0201765
-0.0189168
-0.0176891
-0.0164925
-0.0153259
-0.0141884
-0.0130786
-0.0119957
-0.0109378
-0.00990448
-0.00889305
-0.00790384
-0.00693251
-0.00598166
-0.00504291
-0.00412452
-0.00320847
-0.00231624
-0.00140529
-0.000523727
-0.133595
-0.141986
-0.146927
-0.149263
-0.15066
-0.152105
-0.153798
-0.155559
-0.157179
-0.158562
-0.159713
-0.160677
-0.161487
-0.162161
-0.162703
-0.163111
-0.163387
-0.163536
-0.163561
-0.163469
-0.163262
-0.162947
-0.162527
-0.162007
-0.161394
-0.160691
-0.1599
-0.159021
-0.158054
-0.157003
-0.15587
-0.15466
-0.153376
-0.152021
-0.150597
-0.149106
-0.147551
-0.145933
-0.144256
-0.142522
-0.140734
-0.138893
-0.137003
-0.135065
-0.133083
-0.131058
-0.128994
-0.126893
-0.124758
-0.122591
-0.120395
-0.118172
-0.115926
-0.113659
-0.111373
-0.109071
-0.106757
-0.104431
-0.102098
-0.0997591
-0.0974174
-0.0950753
-0.0927351
-0.0903993
-0.0880701
-0.0857497
-0.0834403
-0.081144
-0.0788628
-0.0765986
-0.0743531
-0.0721282
-0.0699255
-0.0677465
-0.0655927
-0.0634653
-0.0613657
-0.0592949
-0.0572541
-0.0552441
-0.0532658
-0.05132
-0.0494073
-0.0475282
-0.0456832
-0.0438727
-0.0420969
-0.0403561
-0.0386504
-0.0369797
-0.0353442
-0.0337436
-0.0321777
-0.0306463
-0.029149
-0.0276855
-0.0262553
-0.0248578
-0.0234925
-0.0221587
-0.0208557
-0.0195828
-0.0183391
-0.0171238
-0.0159358
-0.0147743
-0.013638
-0.0125261
-0.011437
-0.01037
-0.00932282
-0.00829581
-0.0072846
-0.0062922
-0.00530993
-0.00434684
-0.00338411
-0.0024448
-0.00148417
-0.000553487
-0.123444
-0.131229
-0.136101
-0.138715
-0.140465
-0.142199
-0.1441
-0.146026
-0.147805
-0.149358
-0.150687
-0.151829
-0.152815
-0.15366
-0.154369
-0.154943
-0.155384
-0.155697
-0.155886
-0.155956
-0.155913
-0.15576
-0.155503
-0.155144
-0.154689
-0.154138
-0.153495
-0.152762
-0.151943
-0.151041
-0.150059
-0.149
-0.147866
-0.146659
-0.145382
-0.144038
-0.142628
-0.141157
-0.139625
-0.138036
-0.136391
-0.134694
-0.132947
-0.131152
-0.129312
-0.127429
-0.125506
-0.123545
-0.121549
-0.119521
-0.117462
-0.115376
-0.113265
-0.111132
-0.108979
-0.106808
-0.104623
-0.102425
-0.100218
-0.0980028
-0.0957826
-0.0935596
-0.0913362
-0.0891145
-0.0868968
-0.0846851
-0.0824815
-0.080288
-0.0781064
-0.0759386
-0.0737863
-0.0716512
-0.0695348
-0.0674387
-0.0653642
-0.0633126
-0.061285
-0.0592828
-0.0573068
-0.0553579
-0.0534371
-0.0515451
-0.0496825
-0.0478499
-0.0460478
-0.0442766
-0.0425366
-0.0408281
-0.0391511
-0.0375059
-0.0358923
-0.0343104
-0.0327599
-0.0312407
-0.0297526
-0.0282951
-0.0268679
-0.0254704
-0.0241023
-0.0227629
-0.0214516
-0.0201676
-0.0189103
-0.0176788
-0.0164721
-0.0152896
-0.0141299
-0.0129925
-0.0118756
-0.010779
-0.00970003
-0.00863953
-0.00759303
-0.00656386
-0.00554319
-0.00454069
-0.00353696
-0.00255634
-0.00155242
-0.000578962
-0.114469
-0.121646
-0.126383
-0.129171
-0.131176
-0.133125