/*--------------------------------*- C++ -*----------------------------------*\
  =========                 |
  \\      /  F ield         | OpenFOAM: The Open Source CFD Toolbox
   \\    /   O peration     | Website:  https://openfoam.org
    \\  /    A nd           | Version:  7
     \\/     M anipulation  |
\*---------------------------------------------------------------------------*/
FoamFile
{
    version     2.0;
    format      ascii;
    class       volVectorField;
    location    "25";
    object      U;
}
// * * * * * * * * * * * * * * * * * * * * * * * * * * * * * * * * * * * * * //

dimensions      [0 1 -1 0 0 0 0];

internalField   nonuniform List<vector> 
1360
(
(-0.00433258 0.00353716 2.33598e-21)
(-0.00954537 0.00443871 -6.53868e-20)
(-0.0152986 0.00465685 -3.7072e-20)
(-0.0207197 0.00439598 2.3302e-20)
(-0.0253727 0.00379517 -3.98937e-21)
(-0.0289889 0.00295472 2.59291e-20)
(-0.0313936 0.00194728 -5.03886e-21)
(-0.0324853 0.000825236 -4.30235e-20)
(-0.0322147 -0.000373091 1.143e-19)
(-0.0305675 -0.00161826 1.4897e-20)
(-0.0275548 -0.00288533 -2.52698e-20)
(-0.0232095 -0.00414957 -5.1039e-20)
(-0.0175861 -0.00538236 5.29053e-21)
(-0.0107666 -0.00654677 4.92982e-20)
(-0.00287168 -0.00759346 -4.30711e-20)
(0.00592792 -0.00845856 6.46724e-20)
(0.0154159 -0.00906155 -5.00163e-20)
(0.0253131 -0.00928933 -5.32681e-20)
(0.0350494 -0.00898656 6.42463e-20)
(-0.00157571 0.0046893 -1.15334e-19)
(-0.00513697 0.0100405 1.41711e-19)
(-0.00988616 0.0125529 2.37795e-20)
(-0.0146507 0.0131047 9.00262e-20)
(-0.0187035 0.012282 9.76722e-20)
(-0.0216928 0.0104863 -2.00723e-19)
(-0.0234093 0.0080076 -5.63904e-20)
(-0.0237233 0.00505595 4.77486e-20)
(-0.0225663 0.00178289 -2.09301e-19)
(-0.0199136 -0.00170097 8.76222e-21)
(-0.0157696 -0.00531115 2.15493e-19)
(-0.0101603 -0.00897651 -2.81928e-20)
(-0.00312959 -0.0126275 -4.20051e-20)
(0.00525933 -0.0161839 -1.13891e-21)
(0.0149178 -0.0195414 4.65588e-20)
(0.0257159 -0.0225584 1.2183e-19)
(0.0374677 -0.0250472 4.21105e-20)
(0.0499717 -0.026757 -2.42555e-21)
(0.0630512 -0.0273145 -2.23653e-19)
(0.0758817 -0.0262451 -1.49502e-19)
(-0.00244759 0.00704038 -6.15509e-20)
(-0.0063868 0.0149183 6.89049e-20)
(-0.010097 0.0184894 -8.32267e-20)
(-0.0128289 0.0190795 -1.76651e-19)
(-0.0141266 0.0175801 1.68479e-19)
(-0.0137955 0.0146103 1.87711e-19)
(-0.0117394 0.0106189 6.33704e-20)
(-0.00791401 0.00593106 -9.36295e-20)
(-0.00231505 0.000781342 -9.71321e-21)
(0.00503377 -0.00465945 1.29135e-19)
(0.0140902 -0.0102619 -1.14986e-19)
(0.0247979 -0.0159193 9.10936e-20)
(0.0370873 -0.0215297 -3.69693e-20)
(0.0508746 -0.0269767 3.29311e-19)
(0.0660536 -0.0321076 -4.82972e-19)
(0.0824724 -0.0367102 -1.23384e-19)
(0.0999087 -0.0404892 4.43628e-19)
(0.118171 -0.0430073 -3.99548e-19)
(0.137274 -0.0435363 -3.22153e-21)
(0.155984 -0.0412283 -7.45438e-20)
(-0.00339512 0.00835799 3.67042e-20)
(-0.00741477 0.0173593 3.49907e-19)
(-0.00928999 0.0211517 -3.99058e-19)
(-0.00882841 0.0213318 9.8855e-20)
(-0.00593547 0.0189859 -1.23845e-20)
(-0.00063004 0.0148841 3.85826e-20)
(0.00702915 0.00958717 2.36301e-19)
(0.0169664 0.00350168 -2.70917e-19)
(0.0290943 -0.00307908 -7.58564e-21)
(0.0433176 -0.00994179 -4.62912e-19)
(0.0595356 -0.0169268 -5.0669e-20)
(0.0776416 -0.023906 6.13727e-20)
(0.0975219 -0.0307614 2.45969e-19)
(0.119052 -0.0373624 -1.37207e-19)
(0.14209 -0.0435369 4.23162e-19)
(0.166442 -0.0490396 -6.0727e-19)
(0.191822 -0.0535095 7.29188e-19)
(0.218011 -0.0563321 -5.03982e-19)
(0.245265 -0.0563013 3.1488e-19)
(0.271964 -0.0520435 1.61343e-19)
(-0.00405031 0.00845486 1.20412e-19)
(-0.00733154 0.0169031 4.62906e-20)
(-0.00625563 0.0199145 2.49071e-19)
(-0.0012541 0.0191583 -1.44413e-19)
(0.00735538 0.0157869 -6.64527e-20)
(0.0193051 0.0106424 5.56222e-19)
(0.0343507 0.00434123 -8.76766e-19)
(0.0522695 -0.0026705 7.0523e-19)
(0.0728571 -0.0100708 3.23011e-19)
(0.095922 -0.0176261 -6.86655e-19)
(0.12128 -0.0251637 1.76827e-19)
(0.148748 -0.032549 7.1205e-20)
(0.178142 -0.039665 7.79444e-19)
(0.209266 -0.0463887 -8.47946e-19)
(0.241912 -0.052562 -2.50603e-19)
(0.275816 -0.0579561 6.50904e-19)
(0.310597 -0.062217 -5.40309e-19)
(0.345946 -0.0646277 3.68306e-19)
(0.382347 -0.0634359 3.18825e-19)
(0.418013 -0.0564774 -1.08962e-18)
(-0.00400616 0.0073072 -3.80437e-19)
(-0.00512513 0.013485 1.20824e-19)
(0.000415534 0.0147075 -1.69483e-19)
(0.0115503 0.0125229 4.89143e-22)
(0.0275335 0.00801817 4.61438e-19)
(0.0478305 0.00202456 -8.98525e-19)
(0.071991 -0.0048474 8.04504e-19)
(0.0996213 -0.0121591 -7.23326e-19)
(0.130373 -0.019595 7.40569e-19)
(0.16393 -0.0269276 -6.49027e-19)
(0.19999 -0.0339909 3.58036e-19)
(0.238261 -0.0406611 -8.69902e-19)
(0.278445 -0.0468376 1.08813e-18)
(0.320238 -0.0524251 8.89637e-20)
(0.363322 -0.0573073 -2.76381e-19)
(0.407328 -0.0613205 -5.35736e-19)
(0.451752 -0.0642068 -2.92013e-20)
(0.496137 -0.0652962 5.9533e-19)
(0.541114 -0.0623748 2.92862e-19)
(0.585123 -0.0522407 -6.34607e-19)
(-0.00285383 0.0050392 -1.24244e-19)
(0.000244785 0.00742487 -5.50477e-20)
(0.0121987 0.00602942 -8.47132e-20)
(0.0313359 0.00210254 4.49082e-20)
(0.0564918 -0.00345954 -6.1375e-19)
(0.0868579 -0.0099192 1.1754e-18)
(0.121761 -0.0167357 -1.40348e-20)
(0.160611 -0.0235287 -4.2678e-20)
(0.202885 -0.0300299 -4.21356e-19)
(0.248101 -0.0360499 -8.04465e-20)
(0.295799 -0.0414566 -1.26034e-19)
(0.345528 -0.0461582 -7.09484e-19)
(0.396833 -0.0500897 6.71469e-19)
(0.449248 -0.053198 -5.83444e-19)
(0.502298 -0.0554257 3.49435e-19)
(0.555466 -0.0566996 -3.03965e-19)
(0.608111 -0.0569129 5.58372e-19)
(0.659621 -0.0555813 -4.12696e-19)
(0.710669 -0.0503042 1.48218e-19)
(0.760441 -0.0371138 7.53523e-19)
(-0.000204832 0.0018946 1.46803e-19)
(0.00976763 -0.000620114 -1.43792e-20)
(0.0304922 -0.00509547 -2.43044e-19)
(0.0597426 -0.0107439 3.2911e-20)
(0.0959568 -0.0169805 5.21569e-19)
(0.138048 -0.0232428 -1.00559e-18)
(0.185102 -0.0291257 5.85023e-19)
(0.236303 -0.0343637 -3.15253e-20)
(0.29091 -0.0387846 4.27018e-19)
(0.348235 -0.0422808 -4.75228e-19)
(0.407611 -0.044793 3.87599e-19)
(0.468385 -0.0462966 -1.01802e-18)
(0.529906 -0.04679 -5.64228e-19)
(0.591525 -0.0462834 1.16938e-18)
(0.652591 -0.044787 -4.68228e-19)
(0.712439 -0.0423103 -3.01154e-19)
(0.770329 -0.0388524 4.08216e-19)
(0.825557 -0.0340848 8.83107e-19)
(0.878516 -0.0260334 -5.29766e-19)
(0.929227 -0.0122822 -1.4302e-19)
(0.00428973 -0.00178766 2.99098e-19)
(0.0243019 -0.00970522 -2.85801e-19)
(0.0564621 -0.0171872 -2.29392e-19)
(0.0980548 -0.0240695 -6.53341e-19)
(0.147151 -0.0301944 5.72339e-19)
(0.202379 -0.0352577 7.95054e-19)
(0.262559 -0.0390611 -4.01085e-19)
(0.326611 -0.04152 4.66927e-19)
(0.393537 -0.0426197 -1.64021e-19)
(0.462396 -0.0423938 5.00089e-20)
(0.532281 -0.040913 8.23295e-19)
(0.602318 -0.038275 -1.11819e-18)
(0.67167 -0.034594 -3.99505e-20)
(0.739542 -0.02999 2.28968e-19)
(0.805201 -0.0245778 8.37876e-20)
(0.867999 -0.0184534 -8.48086e-20)
(0.92741 -0.0116351 2.42968e-19)
(0.983107 -0.00392029 -1.33827e-19)
(1.03475 0.00467921 -7.52186e-19)
(1.08129 0.0114514 6.83016e-19)
(0.0109199 -0.00558372 2.35023e-19)
(0.0444843 -0.0186469 7.70411e-20)
(0.0908613 -0.0284102 -2.32077e-19)
(0.146932 -0.0354929 2.72177e-19)
(0.210433 -0.0402822 -6.18883e-19)
(0.279705 -0.0428197 1.30995e-18)
(0.353271 -0.0431928 -8.91906e-19)
(0.429756 -0.0415722 -4.84741e-19)
(0.507869 -0.0381718 1.28217e-18)
(0.586392 -0.0332336 -1.01002e-18)
(0.664171 -0.0270222 1.23852e-18)
(0.740126 -0.0198177 -1.51409e-18)
(0.813265 -0.0119076 5.09245e-19)
(0.882703 -0.00357903 5.96417e-19)
(0.94769 0.00488691 -5.13703e-19)
(1.00763 0.0132243 -1.04444e-20)
(1.0621 0.0212136 -7.94748e-20)
(1.11091 0.0286421 -5.86702e-19)
(1.15364 0.034626 4.27583e-19)
(1.18946 0.0373083 -1.18639e-19)
(0.019881 -0.00899385 -3.1206e-19)
(0.0706241 -0.0260761 1.17791e-19)
(0.133852 -0.0366924 -5.26888e-21)
(0.206163 -0.0424027 -4.64782e-19)
(0.285012 -0.044256 6.24124e-19)
(0.368449 -0.0427308 -8.5676e-19)
(0.454698 -0.0382823 7.84474e-20)
(0.542081 -0.031411 2.50716e-19)
(0.62903 -0.0226241 -3.45153e-19)
(0.714089 -0.0124234 6.36118e-19)
(0.795931 -0.00130087 1.75235e-19)
(0.873377 0.0102698 7.2756e-20)
(0.945427 0.0218442 -7.22037e-19)
(1.01128 0.033018 7.31965e-19)
(1.07035 0.0434365 -3.91234e-19)
(1.12228 0.0528051 2.88475e-19)
(1.16694 0.0609073 -6.04038e-19)
(1.20435 0.0675524 -3.41528e-19)
(1.23443 0.0722153 4.058e-19)
(1.25673 0.0745902 1.0538e-19)
(0.0312239 -0.011451 -3.0412e-19)
(0.102578 -0.030505 4.1961e-19)
(0.184837 -0.0398808 8.82982e-20)
(0.27448 -0.0422152 -7.68102e-20)
(0.368765 -0.0393237 2.07722e-19)
(0.465491 -0.0322092 5.1109e-19)
(0.562619 -0.0217698 -2.63859e-19)
(0.658231 -0.00889619 -1.98503e-19)
(0.750576 0.00557017 -5.17698e-19)
(0.838099 0.0208515 4.54555e-19)
(0.919477 0.0362401 -2.39189e-19)
(0.993652 0.0511095 1.01434e-20)
(1.05986 0.0649286 1.10557e-18)
(1.11764 0.0772716 -7.71877e-19)
(1.16682 0.0878253 6.80069e-19)
(1.20753 0.0963932 -7.01761e-20)
(1.24011 0.102899 9.54027e-20)
(1.26509 0.107334 -2.21482e-19)
(1.28293 0.109564 -7.68496e-20)
(1.29396 0.110005 -4.03856e-19)
(0.0447995 -0.0123485 1.7497e-19)
(0.139643 -0.030436 1.12333e-19)
(0.242342 -0.0359417 -7.28635e-20)
(0.349484 -0.0326642 -9.7209e-19)
(0.458266 -0.023257 2.93794e-19)
(0.566333 -0.00931095 -7.11082e-20)
(0.671498 0.00778848 -3.97995e-20)
(0.771759 0.0267424 -5.1044e-20)
(0.865377 0.0463892 8.36598e-20)
(0.950937 0.0657243 -6.15799e-19)
(1.02739 0.0839075 3.2817e-19)
(1.09406 0.100273 -5.01029e-19)
(1.15071 0.114336 6.47694e-20)
(1.19743 0.125794 -2.63938e-19)
(1.23467 0.134516 -9.7511e-20)
(1.26313 0.140527 5.00749e-19)
(1.28371 0.14399 -5.38789e-19)
(1.29739 0.14514 8.24872e-20)
(1.30502 0.144169 2.11698e-19)
(1.30732 0.14183 -2.24565e-19)
(0.0602154 -0.0110934 2.70929e-19)
(0.180492 -0.0245161 -4.20709e-20)
(0.304006 -0.0232006 -3.46932e-19)
(0.427737 -0.0121046 -4.76997e-20)
(0.549021 0.00527349 6.09238e-19)
(0.665532 0.0267456 -2.53732e-19)
(0.775143 0.0504569 2.39567e-19)
(0.876019 0.0747566 -2.68043e-19)
(0.966715 0.0982593 1.26644e-19)
(1.04625 0.119865 -1.20667e-19)
(1.11414 0.138759 5.35612e-19)
(1.17038 0.154406 -3.29482e-19)
(1.2154 0.166536 -3.67385e-20)
(1.25001 0.175115 -4.29276e-20)
(1.27529 0.180307 7.12499e-20)
(1.29247 0.182429 -1.09014e-19)
(1.30285 0.181904 2.45303e-19)
(1.3077 0.179181 7.45776e-21)
(1.30805 0.174677 -3.65542e-19)
(1.30471 0.169225 -1.11058e-19)
(0.0768193 -0.00718108 -2.10864e-19)
(0.223195 -0.0117237 1.67047e-19)
(0.366694 -0.000594885 5.86339e-20)
(0.505013 0.020215 -7.41445e-20)
(0.6359 0.0464548 -2.00829e-20)
(0.757319 0.0754176 8.55371e-20)
(0.867497 0.104891 -6.73116e-20)
(0.965077 0.133026 2.90853e-19)
(1.04923 0.158401 -2.00718e-19)
(1.1197 0.180024 9.59145e-20)
(1.17678 0.197315 -2.15846e-19)
(1.22129 0.210058 2.0867e-19)
(1.25441 0.218347 8.46289e-20)
(1.27759 0.222521 -2.33393e-19)
(1.29243 0.223085 2.36436e-19)
(1.30051 0.220643 -9.49547e-20)
(1.30331 0.215825 4.149e-20)
(1.30212 0.209226 3.72082e-20)
(1.29794 0.201382 1.98345e-21)
(1.29143 0.193003 3.7207e-20)
(0.093722 -0.000279908 -9.70853e-20)
(0.265334 0.00844382 1.6129e-19)
(0.426739 0.0321062 -9.91674e-20)
(0.576696 0.0639606 7.9681e-20)
(0.713681 0.0992223 -1.02286e-19)
(0.836266 0.134858 -1.51373e-20)
(0.943363 0.16852 4.37491e-20)
(1.03441 0.198407 -1.65271e-20)
(1.10946 0.223318 -1.73734e-20)
(1.16918 0.242616 8.64363e-20)
(1.21478 0.25616 -1.30086e-20)
(1.24785 0.264203 -4.69789e-20)
(1.27024 0.267295 9.40557e-20)
(1.28389 0.266168 -7.07313e-20)
(1.29067 0.261637 1.60336e-20)
(1.29228 0.254519 -2.11627e-20)
(1.29016 0.245558 5.93829e-20)
(1.28546 0.235405 -4.66299e-20)
(1.27898 0.22462 -6.73976e-21)
(1.27119 0.213636 -1.109e-20)
(0.10986 0.00969059 5.63782e-20)
(0.304201 0.0358192 -1.71631e-19)
(0.480285 0.0741595 1.03898e-19)
(0.638247 0.117643 -1.59938e-20)
(0.777607 0.161308 2.98529e-20)
(0.897868 0.202107 -5.0406e-20)
(0.998925 0.237872 -3.26469e-20)
(1.08126 0.267165 6.77545e-21)
(1.14596 0.289287 7.8676e-20)
(1.19469 0.304183 -1.11668e-19)
(1.22948 0.312304 1.61348e-20)
(1.2526 0.314451 2.35328e-20)
(1.26636 0.311629 -3.35909e-20)
(1.27294 0.304913 8.90472e-20)
(1.27426 0.295337 -3.08935e-20)
(1.27192 0.283821 2.33144e-20)
(1.26719 0.271126 -4.97671e-20)
(1.26097 0.257881 1.29013e-20)
(1.25382 0.244607 2.05756e-20)
(1.24603 0.231351 1.17025e-20)
(0.124092 0.022505 1.11513e-19)
(0.337067 0.0694868 9.83368e-20)
(0.523681 0.12382 -3.40102e-20)
(0.685674 0.178688 -1.18916e-19)
(0.823866 0.229433 -6.31794e-20)
(0.938942 0.273398 1.49514e-19)
(1.03198 0.308965 6.10157e-20)
(1.10463 0.33539 -1.21888e-19)
(1.15902 0.352726 4.8625e-20)
(1.1977 0.361659 -4.27494e-22)
(1.22338 0.363303 1.6126e-19)
(1.23877 0.358996 -6.30294e-20)
(1.24638 0.350129 -1.43193e-19)
(1.2484 0.338012 1.65062e-19)
(1.24665 0.323784 -6.69304e-20)
(1.24251 0.308363 9.6137e-20)
(1.23698 0.292445 -3.21617e-20)
(1.23071 0.276585 8.1337e-21)
(1.22401 0.261227 -1.59547e-20)
(1.21709 0.24602 -1.14731e-20)
(0.135317 0.037612 -1.13067e-19)
(0.361463 0.107793 -2.31256e-19)
(0.55386 0.178434 3.66066e-19)
(0.715929 0.243638 2.02698e-19)
(0.849919 0.299606 -5.87311e-19)
(0.957823 0.344515 3.4514e-19)
(1.04196 0.377677 7.97116e-20)
(1.10508 0.399314 1.33801e-19)
(1.15024 0.410409 -1.06503e-21)
(1.18067 0.412457 -1.02583e-20)
(1.1995 0.407215 -2.64318e-19)
(1.20962 0.396474 1.76775e-19)
(1.21355 0.381893 6.07709e-20)
(1.21333 0.364896 -3.12714e-20)
(1.21052 0.34662 -7.78457e-20)
(1.20626 0.3279 9.46541e-21)
(1.2013 0.309318 -2.03346e-20)
(1.19603 0.291336 -1.57989e-21)
(1.19056 0.274313 5.58569e-20)
(1.18508 0.2575 -7.41119e-22)
(0.142593 0.0541553 -2.57967e-19)
(0.375449 0.148451 -1.12978e-19)
(0.568646 0.234642 -1.15025e-19)
(0.727174 0.308441 2.97513e-19)
(0.854659 0.367466 2.60098e-20)
(0.954358 0.411152 -1.06406e-19)
(1.02971 0.440043 -1.83391e-19)
(1.08439 0.455522 -1.57623e-20)
(1.12214 0.459568 9.75057e-22)
(1.14657 0.45446 2.11522e-19)
(1.161 0.4425 -2.07177e-19)
(1.16828 0.425805 4.28006e-20)
(1.17076 0.406173 -9.67869e-20)
(1.17022 0.385031 3.64098e-20)
(1.16797 0.363427 9.40967e-22)
(1.16488 0.342067 -4.91539e-20)
(1.16149 0.321402 1.37406e-20)
(1.15799 0.301819 -1.33971e-20)
(1.15432 0.283581 2.25781e-20)
(1.15084 0.265455 -1.32806e-20)
(0.145249 0.0710345 1.08474e-19)
(0.377822 0.18872 1.29501e-19)
(0.566972 0.28866 -1.58977e-19)
(0.718918 0.368792 2.24594e-19)
(0.838421 0.428638 5.57584e-20)
(0.929771 0.469215 -2.72091e-19)
(0.997281 0.492492 6.57729e-20)
(1.04524 0.50108 5.75574e-20)
(1.07776 0.497921 7.56132e-20)
(1.09859 0.48597 -4.74814e-20)
(1.11098 0.467931 7.34189e-20)
(1.11759 0.446103 1.79526e-20)
(1.12048 0.422304 1.22643e-20)
(1.12117 0.397872 2.12617e-21)
(1.12069 0.373715 1.13187e-20)
(1.11971 0.350389 1.04235e-20)
(1.11862 0.328215 -5.85917e-21)
(0.142962 0.0870019 3.17078e-19)
(0.368241 0.225643 -2.26152e-19)
(0.548964 0.336597 1.04285e-20)
(0.692017 0.42048 -1.80723e-19)
(0.802849 0.47904 -1.61477e-19)
(0.886436 0.515067 2.43005e-19)
(0.947594 0.531994 -2.63867e-20)
(0.990881 0.533607 -8.25251e-21)
(1.02046 0.52368 1.51043e-20)
(1.03997 0.505678 -2.97751e-20)
(1.05242 0.482554 -2.24057e-21)
(1.06016 0.456653 4.00011e-20)
(1.06495 0.429709 -9.77396e-20)
(1.06802 0.402914 1.59656e-19)
(0.135771 0.100758 -2.45666e-20)
(0.347289 0.256308 -2.2772e-20)
(0.515934 0.374766 1.19742e-19)
(0.648538 0.459706 5.52231e-20)
(0.750708 0.515174 1.83294e-20)
(0.827643 0.545719 9.72522e-21)
(0.884231 0.556168 1.06169e-20)
(0.924946 0.551304 7.46968e-20)
(0.953738 0.535535 -5.47724e-20)
(0.973926 0.512648 -1.59642e-20)
(0.988166 0.485683 3.22484e-19)
(0.124184 0.111024 9.96862e-20)
(0.316432 0.278015 -2.789e-20)
(0.470213 0.399993 1.37361e-20)
(0.591578 0.483327 -1.78908e-19)
(0.685643 0.534275 3.8086e-20)
(0.757316 0.558961 1.47318e-19)
(0.811158 0.563356 -2.69431e-19)
(0.851249 0.55299 2.77461e-19)
(0.881095 0.532668 1.76014e-19)
(0.109013 0.116817 2.50821e-20)
(0.277821 0.288669 -1.4357e-19)
(0.415001 0.40983 6.62603e-20)
(0.525019 0.48908 1.23909e-19)
(0.611887 0.534498 1.30451e-19)
(0.679766 0.553432 -4.47832e-19)
(0.732537 0.552648 6.322e-19)
(0.0913668 0.117356 1.94055e-19)
(0.234217 0.286815 1.61115e-20)
(0.354102 0.402751 -5.04382e-19)
(0.453232 0.475699 7.82323e-21)
(0.534008 0.51498 -3.14553e-19)
(0.0725731 0.112223 -5.04678e-19)
(0.188728 0.271779 3.94448e-19)
(0.291639 0.378224 2.56148e-19)
(0.380799 0.442972 6.3369e-20)
(0.0540532 0.10139 3.80103e-20)
(0.144578 0.243732 1.03575e-19)
(0.231777 0.336756 1.15557e-19)
(0.312233 0.391736 -3.77882e-19)
(0.0372093 0.0852221 -1.72964e-19)
(0.104874 0.203682 5.77134e-19)
(0.178456 0.279846 -6.37541e-19)
(0.0233169 0.0644593 -1.93531e-19)
(0.0723973 0.1534 2.10994e-19)
(0.0134274 0.0401624 -2.38468e-19)
(0.0494086 0.0953084 2.32664e-19)
(0.0434159 -0.00818335 4.51169e-20)
(0.050674 -0.00766822 -1.53282e-19)
(0.0575566 -0.00745386 6.29871e-20)
(0.0644139 -0.00737982 5.34091e-20)
(0.0712851 -0.00737466 -9.37631e-21)
(0.0781899 -0.00741659 -4.33912e-20)
(0.0851638 -0.00749181 1.68284e-20)
(0.0922345 -0.00758766 -2.02414e-20)
(0.0994164 -0.00769435 -1.30635e-20)
(0.106715 -0.00780493 3.11986e-20)
(0.114132 -0.00791438 -1.51613e-20)
(0.121662 -0.00801895 6.99331e-21)
(0.1293 -0.00811586 8.21491e-21)
(0.137037 -0.00820309 -4.64816e-20)
(0.144862 -0.00827925 6.49937e-21)
(0.152764 -0.00834347 1.3445e-20)
(0.160732 -0.00839526 2.65612e-21)
(0.168753 -0.00843448 -3.42852e-21)
(0.176815 -0.00846124 1.60703e-20)
(0.0851683 -0.0238342 -2.55567e-20)
(0.0915663 -0.0224391 6.0737e-20)
(0.0976217 -0.0218979 1.48246e-19)
(0.103966 -0.0217185 -1.00837e-20)
(0.110442 -0.0217214 1.08755e-19)
(0.116979 -0.0218585 -8.06136e-20)
(0.123602 -0.0220923 -2.15734e-20)
(0.13034 -0.022385 -1.08128e-19)
(0.137201 -0.0227076 8.30597e-20)
(0.144184 -0.0230397 9.46177e-20)
(0.151285 -0.0233667 -9.04756e-20)
(0.158497 -0.0236776 -3.69593e-20)
(0.165812 -0.0239642 3.9384e-20)
(0.173218 -0.0242209 -1.26482e-19)
(0.180704 -0.0244437 1.31347e-19)
(0.188258 -0.0246304 -9.90602e-20)
(0.195867 -0.0247797 9.87967e-20)
(0.203521 -0.0248915 -2.58732e-20)
(0.211205 -0.0249662 -1.04281e-19)
(0.166729 -0.0372125 5.53723e-19)
(0.171465 -0.0353774 -2.94489e-19)
(0.175836 -0.0348337 -2.50054e-19)
(0.181082 -0.0347006 5.73022e-19)
(0.186708 -0.0347865 -3.00685e-19)
(0.192459 -0.0350693 4.86714e-20)
(0.198341 -0.0354984 -7.32971e-20)
(0.204378 -0.0360121 7.76736e-21)
(0.210567 -0.0365641 2.29728e-19)
(0.21689 -0.037123 -1.79218e-19)
(0.223334 -0.0376663 1.83207e-19)
(0.229885 -0.038177 -6.68637e-20)
(0.236528 -0.038643 -3.92336e-20)
(0.243249 -0.0390559 1.52637e-19)
(0.250035 -0.0394104 4.89521e-20)
(0.256871 -0.0397037 -3.98088e-19)
(0.263745 -0.0399347 1.15639e-19)
(0.270646 -0.0401039 1.19221e-19)
(0.277563 -0.0402126 -2.21613e-20)
(0.284 -0.046491 -6.3689e-19)
(0.286392 -0.0449155 6.33441e-19)
(0.288263 -0.0449442 -1.48594e-19)
(0.29178 -0.0451656 -5.35166e-19)
(0.296043 -0.0455126 3.62978e-19)
(0.300537 -0.0460715 -1.49787e-19)
(0.305235 -0.0467926 1.32945e-19)
(0.310159 -0.0475915 -3.73279e-20)
(0.315278 -0.048411 -1.05504e-19)
(0.320553 -0.0492157 2.34463e-19)
(0.32595 -0.0499804 -1.0995e-19)
(0.331448 -0.0506859 1.27693e-19)
(0.337023 -0.0513189 -1.85446e-19)
(0.342659 -0.0518713 -4.05109e-20)
(0.348338 -0.0523385 1.90836e-20)
(0.354046 -0.0527189 -8.48763e-20)
(0.359773 -0.0530129 4.13168e-19)
(0.365507 -0.0532226 -1.40273e-19)
(0.37124 -0.0533509 -1.64665e-19)
(0.376965 -0.0534019 -6.59602e-20)
(0.430336 -0.0497211 6.80234e-19)
(0.429916 -0.0493306 1.63052e-20)
(0.428755 -0.0507252 -5.66008e-19)
(0.430046 -0.0517757 -6.07616e-20)
(0.432487 -0.0526983 1.22832e-18)
(0.435276 -0.0537771 -6.74315e-19)
(0.438352 -0.054968 4.52717e-19)
(0.441726 -0.0561674 -1.41286e-19)
(0.445337 -0.057323 -2.79892e-19)
(0.449113 -0.0584108 8.17987e-20)
(0.453008 -0.0594125 3.59116e-20)
(0.456989 -0.0603138 -2.78026e-20)
(0.461029 -0.0611063 -2.17457e-19)
(0.46511 -0.0617863 1.10929e-19)
(0.469215 -0.0623532 1.01223e-19)
(0.473334 -0.0628091 -2.37856e-19)
(0.477457 -0.0631572 2.39237e-19)
(0.481577 -0.0634022 7.54095e-20)
(0.485689 -0.0635493 4.33207e-21)
(0.48979 -0.0636043 -1.34374e-19)
(0.596189 -0.0452384 -3.64846e-19)
(0.593009 -0.0472107 1.03473e-19)
(0.589005 -0.0508552 6.75724e-19)
(0.588039 -0.0532785 -7.54722e-19)
(0.588446 -0.0551796 5.90271e-19)
(0.589213 -0.0570872 1.06866e-20)
(0.590277 -0.0589491 -2.80576e-19)
(0.59165 -0.0606647 4.64709e-19)
(0.593245 -0.062221 -1.00117e-19)
(0.594983 -0.0636271 -6.21761e-19)
(0.596816 -0.0648841 -2.48017e-19)
(0.598717 -0.0659919 8.49386e-19)
(0.600666 -0.066953 -4.38142e-20)
(0.602648 -0.0677723 1.09277e-19)
(0.604656 -0.0684555 -6.89878e-19)
(0.606683 -0.0690089 -1.01188e-19)
(0.608726 -0.069439 4.64756e-19)
(0.610781 -0.0697528 -1.60642e-19)
(0.612848 -0.0699573 3.72784e-19)
(0.614926 -0.0700595 -1.95311e-19)
(0.617013 -0.0700662 1.31963e-20)
(0.769595 -0.0320889 -9.24477e-19)
(0.765139 -0.0381679 1.16414e-18)
(0.75982 -0.0448489 -1.6446e-18)
(0.757256 -0.0491482 6.24434e-19)
(0.75562 -0.05249 -3.43848e-19)
(0.754033 -0.0555418 4.43978e-19)
(0.752567 -0.0582367 5.09862e-20)
(0.751284 -0.0605498 1.24325e-19)
(0.75014 -0.0625534 -1.03399e-19)
(0.749098 -0.0643061 -2.58046e-19)
(0.748151 -0.0658391 -1.0127e-19)
(0.747295 -0.0671749 3.14127e-19)
(0.746526 -0.0683324 3.14301e-19)
(0.74584 -0.0693269 1.7835e-19)
(0.745237 -0.0701706 -8.57423e-19)
(0.744713 -0.0708735 6.44227e-19)
(0.744267 -0.0714446 -5.48624e-19)
(0.743896 -0.071892 1.078e-19)
(0.7436 -0.0722233 1.3885e-19)
(0.743375 -0.0724457 5.45843e-19)
(0.743219 -0.0725659 -3.98649e-19)
(0.743129 -0.0725907 -1.64833e-19)
(0.941428 -0.0147599 9.87719e-19)
(0.939397 -0.0255839 -9.40274e-19)
(0.93471 -0.0338834 -2.60932e-19)
(0.930332 -0.0392404 1.4251e-19)
(0.925537 -0.0436025 -3.95272e-19)
(0.920347 -0.047454 -1.61885e-19)
(0.915128 -0.0507751 8.13849e-19)
(0.910044 -0.0536535 3.69578e-19)
(0.905146 -0.0561985 -5.82939e-19)
(0.900466 -0.0584697 7.88666e-19)
(0.896026 -0.0604997 -5.82784e-19)
(0.891832 -0.0623133 -5.84004e-19)
(0.887879 -0.0639299 5.4744e-19)
(0.884159 -0.0653641 -1.5287e-19)
(0.880661 -0.0666275 -4.25348e-19)
(0.877373 -0.0677299 1.04353e-18)
(0.874284 -0.0686798 -7.73591e-19)
(0.871382 -0.0694855 -2.09872e-19)
(0.868656 -0.0701546 6.70585e-19)
(0.866096 -0.0706946 -6.65659e-20)
(0.863692 -0.0711127 -9.20549e-20)
(0.861436 -0.0714161 1.64272e-19)
(0.859319 -0.0716118 -4.05874e-19)
(1.13284 0.0109138 2.53572e-27)
(1.11805 0.0009271 -5.09682e-27)
(1.10439 -0.00703358 2.43245e-27)
(1.09123 -0.0138473 -4.98824e-27)
(1.07892 -0.0199212 0)
(1.06766 -0.0253175 0)
(1.05736 -0.0301095 0)
(1.04791 -0.0343924 0)
(1.03919 -0.0382392 0)
(1.03112 -0.0417018 -7.00768e-28)
(1.02364 -0.0448217 -4.1983e-27)
(1.01667 -0.0476329 0)
(1.01017 -0.050164 0)
(1.00407 -0.0524387 0)
(0.998356 -0.0544772 0)
(0.992976 -0.0562968 0)
(0.987905 -0.0579132 0)
(0.983116 -0.0593402 1.64205e-27)
(0.978588 -0.0605902 -3.31438e-27)
(0.974301 -0.0616749 3.71803e-11)
(0.970237 -0.0626051 3.60298e-11)
(0.966383 -0.0633907 1.44894e-27)
(0.962723 -0.0640412 -2.92123e-27)
(0.959246 -0.0645657 0)
(1.22061 0.0345927 -2.54159e-27)
(1.2122 0.0264282 5.10352e-27)
(1.20274 0.0180422 -2.4356e-27)
(1.19278 0.00989725 4.99462e-27)
(1.18286 0.00232682 0)
(1.17316 -0.00457651 0)
(1.16376 -0.0108343 0)
(1.15468 -0.0164916 0)
(1.14596 -0.0215952 0)
(1.1376 -0.0261944 7.01636e-28)
(1.12961 -0.030336 4.20348e-27)
(1.12198 -0.0340643 0)
(1.1147 -0.0374192 0)
(1.10774 -0.0404357 0)
(1.1011 -0.0431448 0)
(1.09476 -0.0455734 0)
(1.0887 -0.0477453 0)
(1.08291 -0.0496813 -1.64408e-27)
(1.07737 -0.0514 3.3185e-27)
(1.07207 -0.0529182 -3.72267e-11)
(1.06699 -0.054251 -3.60748e-11)
(1.06213 -0.0554119 -1.45076e-27)
(1.05746 -0.0564136 2.92491e-27)
(1.05299 -0.0572677 0)
(1.26625 0.0482137 0)
(1.26141 0.040375 0)
(1.25507 0.0326382 1.1259e-28)
(1.24844 0.0251358 5.5606e-28)
(1.24177 0.0180385 0)
(1.23501 0.0113959 0)
(1.22812 0.00520215 9.21898e-28)
(1.22119 -0.000554374 1.32423e-27)
(1.21426 -0.0058855 8.89121e-28)
(1.20739 -0.0108052 -4.40469e-11)
(1.20061 -0.0153341 -8.62908e-11)
(1.19395 -0.0194947 -4.22255e-11)
(1.18743 -0.0233087 -9.40125e-29)
(1.18106 -0.0267978 -4.03508e-11)
(1.17484 -0.0299827 -3.94042e-11)
(1.1688 -0.0328835 0)
(1.16291 -0.0355191 -8.53986e-29)
(1.1572 -0.037907 0)
(1.15165 -0.040064 -3.56282e-11)
(1.14628 -0.0420056 -3.46983e-11)
(1.14106 -0.0437461 0)
(1.13601 -0.0452993 0)
(1.13111 -0.0466777 0)
(1.12636 -0.0478933 0)
(1.28698 0.0572149 0)
(1.28463 0.0496143 0)
(1.28046 0.0423295 -1.1259e-28)
(1.27611 0.0353542 -5.5606e-28)
(1.2718 0.0287277 0)
(1.26734 0.0224631 0)
(1.26266 0.0165565 -9.21898e-28)
(1.25781 0.0110021 -1.32423e-27)
(1.25283 0.00579377 -8.89121e-28)
(1.24777 0.000925392 4.40469e-11)
(1.24265 -0.00361435 8.62908e-11)
(1.23749 -0.00783761 4.22255e-11)
(1.23233 -0.0117577 9.40125e-29)
(1.22718 -0.0153885 4.03508e-11)
(1.22206 -0.0187438 3.94042e-11)
(1.21698 -0.0218374 0)
(1.21195 -0.024683 8.53986e-29)
(1.20699 -0.0272942 0)
(1.20211 -0.0296837 3.56282e-11)
(1.1973 -0.0318643 3.46983e-11)
(1.19258 -0.0338478 0)
(1.18794 -0.035646 0)
(1.1834 -0.0372698 0)
(1.17896 -0.0387298 0)
(1.29118 0.0620371 4.08528e-11)
(1.29073 0.0548633 4.04495e-11)
(1.28839 0.0480507 0)
(1.28584 0.0415796 0)
(1.28332 0.0354303 0)
(1.28062 0.0295948 3.96385e-11)
(1.27768 0.0240684 3.93418e-11)
(1.27451 0.0188458 0)
(1.27117 0.0139204 0)
(1.26768 0.00928313 0)
(1.26407 0.00492667 0)
(1.26035 0.000842672 0)
(1.25655 -0.00297862 0)
(1.25268 -0.00654698 0)
(1.24877 -0.00987267 0)
(1.24482 -0.012966 0)
(1.24085 -0.015837 0)
(1.23687 -0.0184959 0)
(1.23289 -0.0209525 0)
(1.22893 -0.0232168 0)
(1.22499 -0.0252982 0)
(1.22107 -0.0272061 0)
(1.21719 -0.0289496 2.98267e-11)
(1.21335 -0.0305374 2.91358e-11)
(1.28554 0.0631931 -4.08565e-11)
(1.2865 0.0566918 -4.04495e-11)
(1.28567 0.0505067 0)
(1.28456 0.0446323 0)
(1.28342 0.0390335 0)
(1.28209 0.0336963 -3.96385e-11)
(1.28048 0.0286183 -3.93418e-11)
(1.27863 0.0237971 0)
(1.27657 0.0192278 0)
(1.27435 0.0149047 0)
(1.27196 0.0108218 0)
(1.26944 0.00697245 0)
(1.26679 0.00335006 0)
(1.26404 -5.22684e-05 0)
(1.26119 -0.00324217 0)
(1.25828 -0.00622732 0)
(1.25529 -0.00901552 0)
(1.25226 -0.0116145 0)
(1.24919 -0.0140321 0)
(1.24608 -0.016276 0)
(1.24295 -0.0183539 0)
(1.23981 -0.0202734 0)
(1.23667 -0.0220418 -2.98267e-11)
(1.23352 -0.0236666 -2.91358e-11)
(1.27518 0.0617767 0)
(1.27704 0.0560522 0)
(1.27731 0.0505645 1.49947e-27)
(1.27727 0.0453279 -2.07784e-27)
(1.27714 0.0403115 1.51205e-27)
(1.27681 0.0355035 0)
(1.2762 0.0309053 -2.64977e-28)
(1.27534 0.0265184 0)
(1.27426 0.0223414 0)
(1.273 0.0183713 0)
(1.27157 0.0146046 0)
(1.26998 0.0110375 0)
(1.26825 0.00766544 0)
(1.26639 0.00448344 0)
(1.26442 0.0014863 0)
(1.26236 -0.00133148 0)
(1.2602 -0.00397572 0)
(1.25798 -0.00645243 0)
(1.25568 -0.00876768 0)
(1.25333 -0.0109276 0)
(1.25093 -0.0129384 0)
(1.2485 -0.0148061 1.29598e-27)
(1.24603 -0.0165369 -1.75661e-27)
(1.24353 -0.0181368 1.24903e-27)
(1.26324 0.0587721 0)
(1.2656 0.0538002 0)
(1.26659 0.0489938 -1.49947e-27)
(1.26728 0.0443796 2.07784e-27)
(1.26786 0.0399349 -1.51205e-27)
(1.26823 0.0356518 0)
(1.26833 0.0315348 2.64977e-28)
(1.26819 0.0275886 0)
(1.26784 0.0238143 0)
(1.26729 0.0202115 0)
(1.26657 0.0167791 0)
(1.26568 0.0135153 0)
(1.26465 0.0104177 0)
(1.26348 0.00748322 0)
(1.2622 0.0047085 0)
(1.2608 0.00208966 0)
(1.2593 -0.00037741 0)
(1.25771 -0.00269715 0)
(1.25605 -0.0048742 0)
(1.25431 -0.00691331 0)
(1.25252 -0.00881935 0)
(1.25066 -0.0105973 -1.29598e-27)
(1.24876 -0.012252 1.75661e-27)
(1.24682 -0.0137885 -1.24903e-27)
(1.25138 0.0548501 0)
(1.25397 0.0505601 -2.59067e-11)
(1.25543 0.0463826 -2.64373e-11)
(1.2566 0.0423479 2.68225e-11)
(1.25765 0.0384403 5.64362e-28)
(1.25848 0.0346561 -2.75156e-11)
(1.25908 0.0310015 -1.53297e-27)
(1.25944 0.0274829 -3.92224e-28)
(1.25959 0.0241037 -1.54993e-27)
(1.25956 0.0208651 -3.94902e-28)
(1.25936 0.0177679 -2.43347e-27)
(1.25899 0.0148119 0)
(1.25848 0.0119963 1.16465e-27)
(1.25783 0.00931968 0)
(1.25706 0.00678012 2.77893e-11)
(1.25617 0.00437516 1.1926e-27)
(1.25517 0.00210197 -2.73861e-11)
(1.25408 -4.25601e-05 0)
(1.25291 -0.00206181 -2.68698e-11)
(1.25165 -0.00395939 -2.65758e-11)
(1.25032 -0.00573907 2.26922e-27)
(1.24894 -0.00740475 0)
(1.24749 -0.00896041 -2.21018e-27)
(1.24599 -0.0104101 0)
(1.24035 0.0504325 0)
(1.24302 0.0467461 2.59067e-11)
(1.24476 0.0431342 2.64373e-11)
(1.24624 0.0396264 -2.68225e-11)
(1.24759 0.0362124 -5.64362e-28)
(1.24874 0.0328913 2.75156e-11)
(1.24967 0.0296704 1.53297e-27)
(1.25038 0.0265569 3.92224e-28)
(1.2509 0.0235552 1.54993e-27)
(1.25123 0.020668 3.94902e-28)
(1.2514 0.0178973 2.43347e-27)
(1.25142 0.0152439 0)
(1.25128 0.0127085 -1.16465e-27)
(1.25102 0.0102906 0)
(1.25062 0.00798942 -2.77893e-11)
(1.25012 0.0058037 -1.1926e-27)
(1.2495 0.00373167 2.73861e-11)
(1.24879 0.00177123 0)
(1.24799 -8.00071e-05 2.68698e-11)
(1.2471 -0.00182467 2.65758e-11)
(1.24614 -0.00346563 -2.26922e-27)
(1.24511 -0.00500588 0)
(1.24401 -0.00644859 2.21018e-27)
(1.24287 -0.00779699 0)
(1.23041 0.0457654 0)
(1.23308 0.0426091 0)
(1.23499 0.0395013 9.06983e-28)
(1.23668 0.0364685 0)
(1.23823 0.0335042 0)
(1.23959 0.0306093 0)
(1.24074 0.0277913 0)
(1.24169 0.0250574 0)
(1.24246 0.0224126 -1.34155e-27)
(1.24307 0.0198604 0)
(1.24351 0.0174034 2.13308e-27)
(1.2438 0.0150434 0)
(1.24395 0.0127816 0)
(1.24397 0.0106186 -2.15313e-27)
(1.24386 0.00855429 0)
(1.24364 0.00658827 2.14946e-27)
(1.24331 0.0047196 -1.02957e-27)
(1.24289 0.00294698 0)
(1.24237 0.00126883 0)
(1.24177 -0.000316721 0)
(1.24108 -0.00181177 2.09314e-27)
(1.24033 -0.00321859 0)
(1.23951 -0.00453964 0)
(1.23863 -0.00577748 0)
(1.22159 0.0409798 0)
(1.22423 0.0382911 0)
(1.22626 0.0356334 -9.06983e-28)
(1.22807 0.0330294 0)
(1.22975 0.0304751 0)
(1.23126 0.0279722 0)
(1.23257 0.0255278 0)
(1.2337 0.023149 0)
(1.23465 0.0208407 1.34155e-27)
(1.23545 0.0186067 0)
(1.23609 0.0164499 -2.13308e-27)
(1.23659 0.0143726 0)
(1.23695 0.0123764 0)
(1.23719 0.0104626 2.15313e-27)
(1.2373 0.00863159 0)
(1.2373 0.00688349 -2.14946e-27)
(1.23719 0.005218 1.02957e-27)
(1.23699 0.00363445 0)
(1.23669 0.00213186 0)
(1.2363 0.000708967 0)