/*--------------------------------*- C++ -*----------------------------------*\
  =========                 |
  \\      /  F ield         | OpenFOAM: The Open Source CFD Toolbox
   \\    /   O peration     | Website:  https://openfoam.org
    \\  /    A nd           | Version:  7
     \\/     M anipulation  |
\*---------------------------------------------------------------------------*/
FoamFile
{
    version     2.0;
    format      ascii;
    class       volScalarField;
    location    "84.999";
    object      p;
}
// * * * * * * * * * * * * * * * * * * * * * * * * * * * * * * * * * * * * * //

dimensions      [0 2 -2 0 0 0 0];

internalField   nonuniform List<scalar> 
3700
(
-0.245398
-0.248359
-0.249316
-0.250345
-0.251281
-0.252188
-0.253047
-0.25381
-0.254427
-0.254845
-0.255014
-0.254896
-0.25447
-0.253735
-0.25276
-0.245126
-0.24807
-0.249004
-0.249995
-0.250873
-0.251701
-0.252454
-0.253082
-0.25353
-0.253745
-0.253675
-0.253284
-0.252556
-0.251507
-0.250162
-0.245117
-0.247998
-0.248895
-0.249833
-0.250645
-0.251385
-0.252029
-0.252521
-0.252804
-0.252818
-0.252515
-0.251854
-0.250814
-0.249461
-0.247611
-0.245362
-0.248138
-0.248983
-0.249855
-0.25059
-0.251238
-0.251768
-0.252124
-0.252244
-0.252065
-0.251535
-0.250614
-0.249244
-0.247642
-0.245099
-0.245849
-0.248481
-0.24926
-0.250052
-0.250699
-0.251246
-0.251659
-0.251878
-0.251838
-0.251473
-0.250725
-0.249565
-0.247832
-0.246107
-0.242593
-0.246561
-0.249016
-0.249712
-0.250409
-0.250955
-0.251392
-0.251683
-0.251764
-0.251568
-0.251022
-0.250066
-0.248708
-0.246533
-0.244924
-0.240027
-0.247477
-0.249727
-0.250324
-0.250908
-0.251338
-0.251654
-0.251816
-0.251756
-0.251405
-0.250688
-0.249525
-0.248044
-0.245269
-0.244162
-0.237353
-0.248574
-0.250597
-0.251077
-0.251528
-0.251826
-0.252007
-0.252029
-0.251823
-0.251319
-0.25044
-0.249054
-0.247581
-0.243971
-0.243761
-0.234971
-0.24983
-0.251608
-0.251953
-0.252251
-0.252396
-0.252425
-0.252296
-0.251936
-0.251276
-0.250247
-0.248598
-0.247269
-0.242838
-0.243271
-0.232933
-0.251223
-0.252746
-0.252935
-0.253055
-0.253024
-0.252882
-0.252587
-0.252065
-0.251242
-0.250078
-0.248179
-0.246919
-0.241767
-0.243082
-0.230894
-0.252738
-0.253997
-0.254008
-0.253924
-0.253691
-0.253355
-0.252877
-0.252181
-0.251188
-0.249879
-0.24774
-0.246635
-0.240551
-0.243136
-0.228961
-0.254363
-0.255352
-0.25516
-0.254843
-0.254381
-0.253828
-0.253148
-0.252265
-0.251091
-0.249643
-0.247225
-0.246367
-0.239241
-0.243176
-0.227367
-0.256094
-0.256806
-0.256385
-0.255805
-0.255083
-0.254287
-0.253385
-0.252301
-0.250935
-0.249349
-0.246637
-0.245987
-0.237978
-0.242814
-0.226389
-0.257933
-0.25836
-0.257681
-0.256806
-0.255794
-0.254728
-0.253584
-0.252285
-0.250712
-0.24897
-0.245995
-0.245339
-0.236933
-0.24164
-0.226057
-0.259892
-0.260021
-0.259053
-0.257849
-0.256516
-0.255156
-0.253748
-0.252217
-0.250425
-0.248484
-0.245311
-0.244294
-0.236154
-0.239489
-0.225933
-0.261993
-0.261805
-0.260511
-0.258945
-0.257263
-0.255583
-0.253891
-0.252107
-0.250078
-0.247872
-0.244551
-0.242809
-0.235439
-0.23656
-0.225332
-0.264264
-0.263731
-0.262073
-0.260113
-0.258052
-0.256029
-0.254032
-0.251967
-0.249669
-0.24712
-0.243625
-0.240915
-0.234395
-0.233183
-0.223786
-0.266741
-0.26581
-0.263776
-0.261378
-0.25891
-0.256521
-0.254193
-0.25181
-0.249187
-0.246203
-0.242416
-0.238641
-0.232665
-0.229429
-0.221196
-0.269472
-0.268087
-0.265638
-0.262769
-0.259871
-0.257091
-0.254399
-0.251644
-0.248609
-0.245081
-0.240819
-0.235974
-0.230078
-0.225046
-0.217656
-0.272513
-0.270593
-0.267692
-0.264323
-0.260969
-0.257771
-0.254668
-0.251464
-0.247903
-0.243698
-0.238764
-0.232896
-0.226641
-0.21987
-0.213253
-0.275911
-0.273369
-0.269978
-0.26608
-0.262243
-0.258588
-0.25501
-0.251254
-0.247028
-0.242005
-0.236223
-0.229401
-0.222473
-0.214419
-0.207886
-0.279703
-0.276469
-0.272541
-0.268081
-0.263729
-0.259564
-0.255422
-0.250988
-0.245936
-0.23996
-0.233208
-0.225478
-0.217714
-0.209098
-0.201669
-0.283955
-0.279925
-0.275422
-0.270369
-0.265459
-0.260712
-0.255894
-0.250628
-0.244584
-0.237539
-0.229755
-0.221148
-0.212668
-0.203516
-0.195525
-0.28872
-0.283781
-0.278667
-0.272983
-0.267457
-0.262034
-0.2564
-0.250127
-0.24293
-0.234735
-0.225906
-0.216497
-0.207366
-0.19782
-0.189573
-0.294045
-0.28808
-0.282322
-0.27596
-0.269737
-0.263522
-0.256902
-0.249433
-0.240945
-0.231557
-0.221714
-0.211572
-0.201887
-0.192023
-0.183572
-0.299972
-0.292864
-0.286431
-0.279324
-0.272308
-0.265154
-0.257341
-0.248486
-0.23861
-0.228024
-0.217223
-0.206422
-0.196249
-0.186109
-0.177531
-0.306535
-0.298172
-0.291028
-0.283095
-0.275166
-0.266883
-0.257644
-0.247235
-0.235917
-0.224159
-0.212465
-0.201069
-0.190455
-0.180082
-0.171351
-0.313759
-0.30404
-0.29614
-0.287279
-0.27829
-0.268633
-0.257728
-0.245637
-0.232863
-0.21998
-0.20746
-0.195521
-0.184501
-0.173914
-0.165028
-0.321656
-0.310491
-0.301777
-0.291872
-0.281624
-0.270304
-0.25751
-0.243657
-0.229447
-0.215498
-0.202213
-0.189772
-0.178368
-0.167591
-0.158531
-0.330223
-0.317536
-0.307931
-0.296849
-0.285073
-0.271776
-0.256918
-0.241268
-0.225666
-0.21071
-0.196716
-0.183804
-0.172041
-0.161088
-0.151846
-0.339444
-0.325162
-0.314575
-0.302151
-0.288504
-0.272932
-0.255884
-0.238442
-0.221507
-0.205606
-0.190952
-0.177598
-0.165496
-0.154386
-0.144953
-0.349259
-0.333328
-0.321661
-0.307668
-0.291758
-0.273653
-0.254348
-0.235152
-0.216951
-0.200165
-0.184898
-0.171127
-0.158713
-0.147463
-0.137837
-0.359598
-0.341962
-0.329111
-0.313237
-0.294664
-0.273831
-0.252252
-0.231365
-0.211972
-0.19436
-0.178524
-0.164365
-0.151667
-0.140297
-0.130483
-0.370346
-0.350958
-0.336806
-0.31865
-0.297049
-0.273362
-0.24954
-0.227043
-0.206536
-0.188159
-0.1718
-0.157282
-0.144336
-0.132868
-0.122878
-0.381349
-0.360179
-0.344571
-0.323673
-0.298745
-0.272151
-0.246155
-0.222143
-0.200606
-0.181526
-0.164691
-0.149853
-0.136699
-0.125157
-0.115007
-0.392407
-0.369455
-0.352171
-0.328062
-0.299593
-0.270106
-0.242038
-0.21662
-0.194138
-0.174423
-0.157166
-0.14205
-0.128733
-0.117141
-0.106857
-0.403281
-0.378588
-0.359318
-0.331576
-0.299443
-0.267137
-0.237129
-0.210424
-0.187091
-0.166813
-0.149193
-0.133849
-0.120419
-0.108803
-0.0984175
-0.413691
-0.38734
-0.36569
-0.33398
-0.298155
-0.263161
-0.231367
-0.203503
-0.179419
-0.158659
-0.140742
-0.12523
-0.11174
-0.100131
-0.0896911
-0.423327
-0.395442
-0.370955
-0.335053
-0.295603
-0.258097
-0.22469
-0.195808
-0.171082
-0.149926
-0.131787
-0.116173
-0.102683
-0.0911227
-0.0806975
-0.431864
-0.402585
-0.374788
-0.33459
-0.291669
-0.251869
-0.217042
-0.187291
-0.162039
-0.140584
-0.122303
-0.106658
-0.0932313
-0.0817813
-0.0714675
-0.438965
-0.408434
-0.376891
-0.332408
-0.28625
-0.244408
-0.208366
-0.177907
-0.152255
-0.130605
-0.112269
-0.0966661
-0.0833703
-0.072103
-0.0620066
-0.444297
-0.412637
-0.377001
-0.328351
-0.279254
-0.23565
-0.198616
-0.167617
-0.141701
-0.119967
-0.101668
-0.0861839
-0.0730842
-0.062067
-0.0522607
-0.447539
-0.41484
-0.374893
-0.322292
-0.270605
-0.225544
-0.187749
-0.15639
-0.130353
-0.108653
-0.0904876
-0.0752027
-0.0623675
-0.0516436
-0.042106
-0.44839
-0.414709
-0.370381
-0.314129
-0.260242
-0.214044
-0.175732
-0.144201
-0.118194
-0.0966509
-0.0787187
-0.0637206
-0.0512313
-0.0408301
-0.0313875
-0.446575
-0.411949
-0.363306
-0.303791
-0.248119
-0.201121
-0.162543
-0.131031
-0.10521
-0.0839524
-0.0663602
-0.05174
-0.0396924
-0.0296589
-0.0201392
-0.441853
-0.406315
-0.35354
-0.291228
-0.23421
-0.186756
-0.148164
-0.116867
-0.0913944
-0.0705581
-0.0534262
-0.0392783
-0.0277616
-0.0180813
-0.00885916
-0.434021
-0.397609
-0.340997
-0.276416
-0.218507
-0.170935
-0.13258
-0.101709
-0.0767597
-0.0564865
-0.0399444
-0.0263837
-0.015435
-0.00610005
0.00253017
-0.422915
-0.385689
-0.325629
-0.259353
-0.201013
-0.153648
-0.115791
-0.0855885
-0.0613428
-0.0417845
-0.0259131
-0.0130451
-0.00271377
0.00619117
0.0141122
-0.408417
-0.370468
-0.307427
-0.240052
-0.181724
-0.134903
-0.0978506
-0.068573
-0.0451678
-0.026435
-0.0113622
0.00072197
0.0103724
0.0187504
0.0259073
-0.390453
-0.351912
-0.286418
-0.218542
-0.160636
-0.114789
-0.0789007
-0.0506175
-0.0282404
-0.0104761
0.00367745
0.0148891
0.023787
0.0315545
0.0379002
-0.368994
-0.330041
-0.262674
-0.194889
-0.137808
-0.0935058
-0.0588205
-0.0317832
-0.0106022
0.00605144
0.0191695
0.02942
0.0374923
0.0445775
0.05006
-0.344059
-0.304921
-0.236308
-0.169212
-0.113561
-0.070813
-0.0377071
-0.0121282
0.00769446
0.0231013
0.0350721
0.0442736
0.0514488
0.0577827
0.0623424
-0.315719
-0.276686
-0.207438
-0.141606
-0.0878186
-0.0469176
-0.0156362
0.00828122
0.0265901
0.0406212
0.0513376
0.0594055
0.0656151
0.0711261
0.0746958
-0.284099
-0.24557
-0.176088
-0.112176
-0.0606682
-0.0219316
0.00730216
0.029372
0.0460192
0.0585524
0.0679127
0.0747678
0.0799488
0.084564
0.0870817
-0.249381
-0.211867
-0.142212
-0.0811022
-0.0322511
0.00403041
0.0310106
0.051062
0.0659092
0.0768301
0.0847382
0.0903095
0.0944097
0.0980611
0.0994768
-0.211762
-0.175616
-0.106317
-0.0484623
-0.0027118
0.0308467
0.055383
0.0732613
0.086182
0.0953837
0.101751
0.105978
0.108957
0.111568
0.111788
-0.171446
-0.136376
-0.0693032
-0.0145666
0.0277951
0.0583867
0.0803057
0.0958729
0.106753
0.114139
0.118888
0.121727
0.123532
0.124942
0.123715
-0.128702
-0.0949327
-0.0309889
0.0203426
0.0590956
0.086512
0.105658
0.118793
0.127534
0.133022
0.136097
0.137518
0.138054
0.137913
0.134844
-0.0837387
-0.051827
0.0085188
0.0560591
0.091005
0.115074
0.131314
0.141913
0.148431
0.151957
0.153328
0.153315
0.152433
0.150291
0.145167
-0.0369958
-0.00737878
0.0489874
0.0923778
0.123335
0.143916
0.15714
0.165118
0.169346
0.170866
0.170519
0.169045
0.166591
0.162314
0.155728
0.0111352
0.0380955
0.0901372
0.129079
0.155893
0.172874
0.182997
0.188289
0.190179
0.189666
0.187586
0.184579
0.180417
0.174219
0.169182
0.0602598
0.0842534
0.131672
0.165931
0.18848
0.201781
0.208742
0.211306
0.210829
0.208271
0.204434
0.199804
0.193946
0.18652
0.182242
0.10997
0.130739
0.173288
0.202692
0.220896
0.230466
0.234232
0.234044
0.231191
0.226588
0.220977
0.214705
0.207313
0.19898
0.19444
0.159851
0.177184
0.214679
0.239118
0.252934
0.258755
0.259318
0.25638
0.251159
0.244519
0.237129
0.229235
0.220449
0.211287
0.206032
0.20949
0.223216
0.255539
0.27496
0.28439
0.286475
0.283853
0.278188
0.270625
0.261969
0.252818
0.243348
0.233259
0.223227
0.217038
0.258469
0.268461
0.295565
0.309973
0.315058
0.313453
0.307692
0.299343
0.289481
0.278847
0.267969
0.256981
0.245651
0.234719
0.227507
0.306374
0.312559
0.334459
0.343913
0.344735
0.339518
0.33069
0.319724
0.307622
0.295062
0.282508
0.270061
0.25754
0.245693
0.237422
0.352797
0.355156
0.371929
0.376544
0.373224
0.364505
0.352707
0.339211
0.324945
0.310527
0.29636
0.282518
0.268857
0.256101
0.246762
0.397343
0.395913
0.407697
0.407637
0.400334
0.388252
0.373607
0.357687
0.341352
0.325157
0.309452
0.294286
0.279541
0.265896
0.255498
0.439633
0.434505
0.441496
0.436972
0.425882
0.410606
0.393259
0.375042
0.356747
0.338872
0.321713
0.305301
0.289536
0.275035
0.2636
0.479305
0.470625
0.473073
0.464343
0.449694
0.43142
0.41154
0.391171
0.371043
0.351594
0.333078
0.315505
0.29879
0.283477
0.271042
0.516023
0.503986
0.502193
0.489554
0.471608
0.450559
0.428335
0.405977
0.384153
0.363253
0.343485
0.324844
0.307257
0.291184
0.277796
0.549474
0.534324
0.528638
0.512427
0.491473
0.467894
0.443536
0.419367
0.396003
0.373783
0.352877
0.333268
0.314892
0.298119
0.283843
0.579373
0.561399
0.552211
0.532797
0.509153
0.483313
0.457047
0.431261
0.40652
0.383122
0.361202
0.340733
0.321655
0.304251
0.289161
0.605467
0.584995
0.572735
0.550521
0.524526
0.496711
0.46878
0.441584
0.415644
0.391219
0.368414
0.347198
0.327512
0.309552
0.293736
0.627534
0.604927
0.590057
0.565469
0.537486
0.508
0.478661
0.450273
0.423318
0.398025
0.374475
0.352629
0.332431
0.313997
0.297555
0.645386
0.621037
0.604048
0.577537
0.547942
0.517104
0.486626
0.457272
0.429498
0.403503
0.37935
0.356995
0.336385
0.317564
0.300609
0.658873
0.633198
0.614603
0.586636
0.555823
0.523962
0.492622
0.462539
0.434145
0.40762
0.383011
0.360274
0.339354
0.320239
0.30289
0.667878
0.641312
0.621642
0.5927
0.561072
0.528527
0.496611
0.46604
0.437232
0.410352
0.385439
0.362447
0.341319
0.322008
0.304393
0.672325
0.645316
0.625112
0.595686
0.563653
0.530768
0.498566
0.467753
0.438739
0.411684
0.38662
0.363501
0.342271
0.322863
0.305116
-0.25215
-0.25081
-0.249573
-0.249614
-0.248298
-0.247298
-0.247312
-0.245947
-0.245181
-0.245257
-0.243763
-0.24322
-0.243475
-0.241739
-0.241411
-0.242032
-0.239844
-0.239758
-0.239925
-0.240946
-0.238073
-0.238245
-0.238611
-0.239733
-0.236818
-0.236799
-0.237408
-0.238649
-0.235782
-0.235513
-0.236317
-0.237681
-0.235001
-0.234422
-0.235331
-0.236668
-0.23446
-0.233533
-0.234448
-0.235452
-0.234015
-0.232812
-0.233653
-0.235832
-0.233989
-0.233433
-0.232155
-0.232897
-0.235044
-0.232374
-0.232483
-0.231397
-0.232078
-0.234136
-0.230601
-0.231027
-0.230344
-0.23104
-0.232984
-0.228467
-0.229
-0.228838
-0.229611
-0.231453
-0.234442
-0.225701
-0.226421
-0.226783
-0.227663
-0.229451
-0.232311
-0.222299
-0.223399
-0.224151
-0.225125
-0.226967
-0.229734
-0.218599
-0.220052
-0.220943
-0.221963
-0.223893
-0.226625
-0.214838
-0.216434
-0.217119
-0.218144
-0.220077
-0.222721
-0.225994
-0.208552
-0.211578
-0.212146
-0.213154
-0.215182
-0.217958
-0.22129
-0.196961
-0.202358
-0.203681
-0.20473
-0.206845
-0.209883
-0.213418
-0.18567
-0.192488
-0.194688
-0.196067
-0.198355
-0.201563
-0.205192
-0.175023
-0.182514
-0.185553
-0.187429
-0.189935
-0.19323
-0.19686
-0.164846
-0.172739
-0.176485
-0.178887
-0.181637
-0.184994
-0.188591
-0.155283
-0.163375
-0.167667
-0.170544
-0.17354
-0.17696
-0.180523
-0.146394
-0.154517
-0.159214
-0.162493
-0.165717
-0.169204
-0.172737
-0.138155
-0.146209
-0.151192
-0.154796
-0.15822
-0.16177
-0.16528
-0.130548
-0.138464
-0.143635
-0.147494
-0.151082
-0.154688
-0.158181
-0.123547
-0.131273
-0.136558
-0.140608
-0.144328
-0.147978
-0.151456
-0.117112
-0.12462
-0.12996
-0.134149
-0.137969
-0.141653
-0.145117
-0.111206
-0.118481
-0.123833
-0.128118
-0.132011
-0.135717
-0.139167
-0.105797
-0.112831
-0.118162
-0.12251
-0.126453
-0.13017
-0.133605
-0.100852
-0.107645
-0.112932
-0.117316
-0.12129
-0.12501
-0.128428
-0.0963395
-0.102896
-0.108124
-0.112524
-0.116513
-0.120228
-0.123628
-0.0922317
-0.09856
-0.103718
-0.108119
-0.112113
-0.115817
-0.119196
-0.0885029
-0.0946142
-0.0996965
-0.104086
-0.108076
-0.111765
-0.115124
-0.0851293
-0.0910366
-0.0960407
-0.100412
-0.104391
-0.108061
-0.111399
-0.0820896
-0.0878071
-0.0927332
-0.0970802
-0.101045
-0.104694
-0.108011
-0.0793647
-0.0849077
-0.0897578
-0.0940777
-0.0980243
-0.101653
-0.104948
-0.0769375
-0.0823215
-0.0870995
-0.0913911
-0.0953184
-0.0989257
-0.102201
-0.0747929
-0.0800339
-0.0847448
-0.0890081
-0.0929157
-0.0965024
-0.099759
-0.0729175
-0.0780317
-0.0826814
-0.0869176
-0.0908061
-0.0943734
-0.0976125
-0.0712998
-0.0763033
-0.0808985
-0.0851096
-0.0889803
-0.0925298
-0.0957533
-0.0699297
-0.0748389
-0.0793869
-0.0835757
-0.0874304
-0.0909641
-0.0941739
-0.068799
-0.0736299
-0.0781384
-0.0823082
-0.0861492
-0.0896695
-0.0928677
-0.0679004
-0.0726693
-0.0771466
-0.0813012
-0.085131
-0.0886404
-0.0918291
-0.0672291
-0.0719523
-0.0764067
-0.0805501
-0.0843714
-0.0878724
-0.0910541
-0.0667815
-0.0714752
-0.0759153
-0.0800516
-0.0838673
-0.0873627
-0.0905394
-0.0665438
-0.0712306
-0.0756662
-0.0798003
-0.0836142
-0.0871074
-0.090282
-0.200943
-0.188395
-0.176168
-0.165794
-0.155879
-0.146578
-0.138086
-0.130255
-0.123041
-0.116429
-0.110366
-0.104811
-0.0997306
-0.0950928
-0.0908654
-0.0870204
-0.0835325
-0.0803786
-0.0775379
-0.074992
-0.0727244
-0.0707208
-0.0689683
-0.067456
-0.0661745
-0.0651157
-0.0642726
-0.0636407
-0.0632171
-0.0629772
-0.194011
-0.181941
-0.169682
-0.159677
-0.150161
-0.141098
-0.132886
-0.125352
-0.118399
-0.112034
-0.106211
-0.100877
-0.0960014
-0.0915525
-0.0874981
-0.0838103
-0.0804646
-0.0774386
-0.0747122
-0.0722675
-0.0700889
-0.0681624
-0.0664759
-0.0650187
-0.0637818
-0.0627575
-0.0619389
-0.0613219
-0.060902
-0.0606552
-0.188248
-0.176522
-0.164014
-0.154001
-0.144804
-0.135944
-0.127921
-0.120641
-0.113924
-0.107774
-0.102161
-0.0970268
-0.0923346
-0.0880555
-0.0841577
-0.0806131
-0.0773973
-0.0744888
-0.0718677
-0.0695168
-0.0674208
-0.0655662
-0.0639412
-0.0625357
-0.0613409
-0.0603492
-0.059554
-0.0589515
-0.058536
-0.058286
-0.182263
-0.170718
-0.158282
-0.148325
-0.139455
-0.130869
-0.123032
-0.115979
-0.109497
-0.103552
-0.0981351
-0.0931902
-0.088673
-0.0845549
-0.080806
-0.0773977
-0.0743059
-0.0715093
-0.0689889
-0.0667277
-0.0647108
-0.0629253
-0.0613597
-0.0600042
-0.0588502
-0.0578905
-0.0571187
-0.0565312
-0.0561212
-0.0558708
-0.176302
-0.165004
-0.152708
-0.142743
-0.13408
-0.125773
-0.118128
-0.111281
-0.10503
-0.0992944
-0.0940694
-0.0893097
-0.0849658
-0.0810066
-0.0774041
-0.0741302
-0.0711608
-0.068475
-0.0660543
-0.0638821
-0.0619441
-0.0602275
-0.0587214
-0.0574161
-0.0563036
-0.0553767
-0.0546293
-0.0540579
-0.0536556
-0.053407
-0.170113
-0.158969
-0.146922
-0.137062
-0.128603
-0.1206
-0.113191
-0.106549
-0.100522
-0.0950004
-0.0899673
-0.085389
-0.0812163
-0.0774146
-0.0739565
-0.0708152
-0.0679666
-0.0653903
-0.0630682
-0.0609841
-0.0591242
-0.0574762
-0.0560294
-0.0547745
-0.0537038
-0.0528103
-0.0520883
-0.0515343
-0.0511412
-0.0508966
-0.163756
-0.152824
-0.1411
-0.131383
-0.123086
-0.115359
-0.108202
-0.101767
-0.095957
-0.0906506
-0.0858126
-0.0814149
-0.0774125
-0.0737681
-0.0704541
-0.0674448
-0.0647167
-0.0622496
-0.0600258
-0.0580299
-0.0562483
-0.0546692
-0.0532821
-0.0520784
-0.0510502
-0.0501912
-0.0494957
-0.0489605
-0.0485784
-0.0483395
-0.157214
-0.146466
-0.135099
-0.125593
-0.117482
-0.110029
-0.103145
-0.096935
-0.0913404
-0.0862487
-0.0816087
-0.0773919
-0.0735585
-0.0700709
-0.0669005
-0.0640225
-0.0614143
-0.0590559
-0.0569303
-0.0550224
-0.0533191
-0.0518089
-0.050482
-0.0493298
-0.048345
-0.0475213
-0.0468534
-0.0463384
-0.0459687
-0.0457374
-0.15049
-0.139957
-0.128992
-0.119743
-0.111828
-0.104631
-0.0980214
-0.0920468
-0.0866681
-0.0817892
-0.0773492
-0.0733149
-0.0696504
-0.0663195
-0.0632928
-0.0605462
-0.0580578
-0.0558082
-0.0537808
-0.0519611
-0.0503365
-0.0488958
-0.0476296
-0.0465297
-0.0455891
-0.0448017
-0.0441626
-0.0436691
-0.0433134
-0.0430913
-0.143585
-0.133282
-0.122732
-0.113778
-0.10609
-0.0991551
-0.0928232
-0.0870972
-0.0819408
-0.0772747
-0.0730356
-0.0691855
-0.0656904
-0.0625159
-0.0596331
-0.057018
-0.0546493
-0.0525086
-0.0505796
-0.0488483
-0.0473026
-0.0459318
-0.0447269
-0.04368
-0.0427843
-0.0420343
-0.0414251
-0.0409543
-0.040614
-0.0404027
-0.136493
-0.126454
-0.116345
-0.107718
-0.100282
-0.0936112
-0.0875553
-0.0820839
-0.0771556
-0.0727033
-0.0686659
-0.0650017
-0.061677
-0.0586595
-0.055921
-0.0534377
-0.0511892
-0.0491576
-0.0473273
-0.0456848
-0.0442186
-0.0429183
-0.0417753
-0.0407821
-0.0399323
-0.0392205
-0.0386424
-0.0381955
-0.037872
-0.0376731
-0.129213
-0.119474
-0.109818
-0.101542
-0.0943841
-0.0879904
-0.082214
-0.0770038
-0.0723108
-0.0680756
-0.0642411
-0.0607644
-0.0576115
-0.0547518
-0.052158
-0.049807
-0.0476791
-0.0457571
-0.044026
-0.0424728
-0.0410865
-0.0398573
-0.0387769
-0.0378382
-0.0370351
-0.0363626
-0.0358166
-0.0353947
-0.0350892
-0.034904
-0.121738
-0.112344
-0.103158
-0.095255
-0.0884004
-0.0822959
-0.0768023
-0.071857
-0.067405
-0.0633905
-0.0597608
-0.0564732
-0.0534938
-0.050793
-0.0483449
-0.046127
-0.0441204
-0.0423086
-0.0406772
-0.039214
-0.0379083
-0.0367508
-0.0357337
-0.0348503
-0.0340948
-0.0334624
-0.0329495
-0.0325536
-0.0322674
-0.0320973
-0.114066
-0.105062
-0.096361
-0.0888502
-0.0823209
-0.076521
-0.0713174
-0.0666422
-0.0624369
-0.0586478
-0.0552257
-0.0521293
-0.0493251
-0.0467848
-0.0444834
-0.0423996
-0.0405151
-0.0388142
-0.0372833
-0.0359107
-0.0346862
-0.0336012
-0.0326481
-0.0318207
-0.0311136
-0.0305223
-0.0300434
-0.0296746
-0.0294087
-0.0292547
-0.106192
-0.0976268
-0.0894285
-0.0823291
-0.0761456
-0.0706656
-0.06576
-0.0613602
-0.0574066
-0.0538476
-0.0506363
-0.0477334
-0.0451067
-0.0427285
-0.0405752
-0.0386267
-0.0368653
-0.0352762
-0.0338466
-0.0325653
-0.0314228
-0.0304109
-0.0295226
-0.028752
-0.0280941
-0.0275447
-0.0271006
-0.0267597
-0.0265151
-0.0263784
-0.098109
-0.0900352
-0.0823592
-0.07569
-0.0698706
-0.0647259
-0.0601283
-0.0560107
-0.0523145
-0.0489905
-0.0459939
-0.0432874
-0.0408403
-0.0386262
-0.0366227
-0.0348106
-0.0331735
-0.0316973
-0.0303698
-0.0291806
-0.0281209
-0.0271829
-0.0263601
-0.025647
-0.0250389
-0.0245321
-0.0241236
-0.0238114
-0.0235892
-0.0234705
-0.0898126
-0.0822793
-0.0751511
-0.0689346
-0.0634965
-0.0587015
-0.0544223
-0.0505945
-0.0471617
-0.0440778
-0.0412999
-0.038793
-0.036528
-0.0344801
-0.0326281
-0.030954
-0.0294424
-0.0280801
-0.0268557
-0.0257595
-0.0247833
-0.02392
-0.0231634
-0.0225084
-0.0219509
-0.0214874
-0.0211151
-0.0208322
-0.0206332
-0.0205332
-0.0813072
-0.0743509
-0.0677985
-0.0620616
-0.0570224
-0.0525906
-0.0486402
-0.0451107
-0.0419481
-0.0391099
-0.0365551
-0.0342512
-0.0321712
-0.030292
-0.0285935
-0.0270591
-0.0256744
-0.0244272
-0.023307
-0.0223048
-0.021413
-0.020625
-0.0199353
-0.0193392
-0.0188329
-0.0184132
-0.0180776
-0.0178245
-0.0176495
-0.0175681
-0.0726167
-0.0662465
-0.0602925
-0.0550645
-0.0504449
-0.0463901
-0.0427792
-0.0395563
-0.0366705
-0.0340839
-0.0317576
-0.0296612
-0.02777
-0.0260624
-0.0245201
-0.0231275
-0.0218715
-0.0207409
-0.0197261
-0.0188189
-0.0180124
-0.0173006
-0.0166785
-0.0161419
-0.0156873
-0.015312
-0.0150135
-0.0147908
-0.0146401
-0.0145759
-0.063773
-0.0579748
-0.052623
-0.0479294
-0.0437536
-0.0400932
-0.0368344
-0.0339259
-0.0313232
-0.0289952
-0.0269044
-0.0250215
-0.0233239
-0.0217919
-0.0204088
-0.0191606
-0.0180355
-0.0170232
-0.0161153
-0.0153044
-0.0145842
-0.0139495
-0.0133958
-0.0129194
-0.0125171
-0.0121866
-0.0119257
-0.011734
-0.0116075
-0.0115584
-0.0547637
-0.0495594
-0.0447792
-0.0406436
-0.0369357
-0.0336942
-0.030803
-0.0282177
-0.0259052
-0.0238446
-0.0219978
-0.0203353
-0.0188365
-0.0174843
-0.0162638
-0.0151627
-0.0141706
-0.0132786
-0.0124791
-0.0117658
-0.0111331
-0.0105764
-0.0100918
-0.00967611
-0.00932674
-0.00904147
-0.0088186
-0.00865821
-0.00855495
-0.00852174
-0.0455224
-0.0409878
-0.036754
-0.033214
-0.0299901
-0.0271954
-0.024688
-0.0224424
-0.0204328
-0.0186493
-0.0170533
-0.0156159
-0.0143198
-0.0131503
-0.0120948
-0.0111428
-0.0102855
-0.00951511
-0.00882526
-0.00821042
-0.00766593
-0.00718787
-0.00677296
-0.0064185
-0.00612232
-0.00588257
-0.00569789
-0.00556948
-0.00548734
-0.00547635
-0.0359483
-0.0322586
-0.028556
-0.0256688
-0.0229324
-0.0206091
-0.0184939
-0.0166238
-0.01494
-0.0134378
-0.0120935
-0.010882
-0.00978934
-0.00880337
-0.00791375
-0.0071117
-0.00638974
-0.00574155
-0.00516174
-0.00464576
-0.00418977
-0.00379055
-0.00344543
-0.00315222
-0.00290925
-0.00271494
-0.00256832
-0.00247213
-0.00240936
-0.00242708
-0.02599
-0.0234284
-0.0202283
-0.0180519
-0.0157977
-0.0139604
-0.0122382
-0.0107829
-0.00944535
-0.00822159
-0.00712694
-0.00614053
-0.00525118
-0.00444901
-0.00372555
-0.00307367
-0.00248735
-0.0019615
-0.00149182
-0.0010747
-0.000707119
-0.000386569
-0.000110984
0.000121279
0.000311477
0.00046084
0.000569503
0.000636056
0.000675425
0.000635888
-0.0157807
-0.0145006
-0.0118521
-0.0103692
-0.00863726
-0.00727648
-0.00598035
-0.00488406
-0.00387708
-0.00295093
-0.00211711
-0.00136465
-0.000685345
-7.21529e-05
0.000481075
0.000979558
0.0014277
0.00182922
0.00218721
0.00250427
0.00278255
0.0030238
0.00322944
0.00340055
0.00353797
0.00364244
0.0037135
0.00375133
0.00376578
0.00370942
-0.00540459
-0.00524419
-0.00336207
-0.00253552
-0.00138398
-0.000509027
0.000343607
0.00107411
0.00174609
0.00236626
0.00292981
0.0034408
0.00390384
0.00432302
0.00470197
0.00504382
0.00535122
0.00562637
0.0058711
0.00608691
0.00627502
0.00643636
0.00657169
0.00668149
0.00676615
0.0068259
0.00685994
0.00686929
0.00685943
0.00678883
0.00508704
0.00423821
0.00527459
0.0054302
0.00597689
0.00634673
0.00674473
0.0070905
0.00741595
0.00772229
0.00800686
0.00826913
0.00850998
0.00873038
0.00893126
0.00911349
0.00927779
0.00942474
0.00955482
0.00966834
0.00976552
0.00984649
0.00991125
0.00995971
0.00999175
0.0100071
0.0100048
0.00998598
0.00995314
0.00986993
0.0157062
0.0138791
0.0140637
0.0135207
0.0134476
0.0132895
0.0132175
0.0131572
0.0131217
0.0131052
0.013103
0.0131104
0.0131243
0.0131421
0.0131619
0.0131821
0.0132015
0.0132188
0.0132331
0.0132435
0.0132493
0.0132496
0.0132437
0.0132309
0.0132106
0.0131821
0.013144
0.0130977
0.0130433
0.012949
0.0264689
0.0236564
0.0229984
0.021729
0.021014
0.0203019
0.0197404
0.0192556
0.0188469
0.0185007
0.0182066
0.0179553
0.017739
0.0175516
0.0173882
0.0172446
0.0171175
0.0170039
0.0169016
0.0168082
0.016722
0.0166414
0.0165648
0.0164909
0.0164187
0.0163468
0.0162739
0.0162009
0.0161263
0.0160227
0.0373837
0.0335639
0.0320548
0.0300278
0.0286404
0.0273524
0.0262877
0.0253696
0.0245827
0.023904
0.0233157
0.0228031
0.022354
0.0219588
0.0216096
0.0212999
0.0210243
0.0207782
0.0205577
0.0203595
0.0201806
0.0200186
0.0198711
0.0197363
0.0196124
0.0194977
0.0193907
0.019292
0.0191986
0.0190875
0.0484378
0.0435723
0.0411807
0.0383744
0.0363002
0.0344356
0.0328705
0.0315201
0.0303535
0.0293384
0.0284505
0.0276703
0.026982
0.0263729
0.0258325
0.0253519
0.0249239
0.024542
0.0242009
0.0238959
0.023623
0.0233786
0.0231598
0.0229638
0.0227884
0.0226314
0.022491
0.0223676
0.0222566
0.0221402
0.0595868
0.0536391
0.0503457
0.0467846
0.0440472
0.0416249
0.0395639
0.037774
0.0362134
0.034845
0.0336405
0.0325772
0.0316363
0.030802
0.0300611
0.0294023
0.028816
0.0282938
0.0278286
0.0274144
0.0270457
0.0267179
0.026427
0.0261696
0.0259429
0.0257441
0.0255712
0.025424
0.025297
0.0251774
0.070792
0.0637867
0.0596336
0.0553842
0.0520055
0.0490163
0.0464294
0.0441621
0.042171
0.0404179
0.0388717
0.0375057
0.0362972
0.0352266
0.0342771
0.0334342
0.0326855
0.0320203
0.0314293
0.0309048
0.0304398
0.0300286
0.029666
0.029348
0.0290707
0.0288311
0.0286269
0.0284574
0.028316
0.0281954
0.0820904
0.0741475
0.0691683
0.0642286
0.0601434
0.0565112
0.053332
0.0505385
0.0480855
0.0459296
0.0440326
0.0423608
0.0408852
0.0395809
0.0384265
0.0374036
0.0364967
0.0356924
0.0349795
0.0343481
0.0337901
0.0332983
0.0328667
0.0324903
0.0321648
0.0318866
0.0316532
0.0314631
0.0313096
0.0311905
0.0935273
0.0847107
0.0787334
0.0729448
0.0680257
0.0636841
0.0598964
0.0565907
0.0537049
0.0511806
0.048967
0.0470211
0.0453064
0.0437924
0.0424533
0.0412673
0.0402163
0.0392845
0.038459
0.0377285
0.0370838
0.0365167
0.0360205
0.0355896
0.0352192
0.0349053
0.0346452
0.034437
0.0342739
0.034159
0.104855
0.0949675
0.0876819
0.0809331
0.0752058
0.0702449
0.0659584
0.0622418
0.0590081
0.0561833
0.0537062
0.0515268
0.0496039
0.0479033
0.0463967
0.0450603
0.0438742
0.0428216
0.0418883
0.0410622
0.0403333
0.039693
0.0391338
0.0386498
0.0382358
0.0378875
0.0376022
0.0373772
0.0372069
0.0370984
0.115594
0.1046
0.0961511
0.0886914
0.0823959
0.0769775
0.0722834
0.068193
0.0646145
0.0614725
0.058705
0.0562607
0.0540967
0.0521775
0.0504732
0.0489588
0.0476129
0.0464177
0.0453579
0.0444203
0.0435938
0.042869
0.0422379
0.0416936
0.0412304
0.0408438
0.0405304
0.0402871
0.0401099
0.0400086
0.126196
0.115175
0.106289
0.098411
0.0915814
0.0855853
0.0802946
0.0756191
0.0714878
0.0678362
0.0646057
0.0617443
0.0592071
0.0569557
0.0549569
0.0531824
0.0516078
0.0502123
0.0489778
0.0478887
0.046932
0.0460961
0.0453713
0.0447495
0.0442238
0.0437887
0.0434397
0.0431732
0.0429867
0.04289
0.137989
0.128374
0.119317
0.110793
0.103068
0.0961234
0.0899075
0.0843672
0.0794478
0.0750888
0.0712295
0.0678127
0.0647872
0.062108
0.0597357
0.0576361
0.0557792
0.0541394
0.0526942
0.0514245
0.0503137
0.0493475
0.048514
0.0478027
0.0472052
0.0467146
0.0463254
0.0460328
0.0458346
0.0457378
0.148209
0.139134
0.129509
0.120204
0.111667
0.103983
0.0971175
0.091005
0.0855781
0.0807679
0.0765078
0.072736
0.0693967
0.0664407
0.0638246
0.0615108
0.0594663
0.0576626
0.056075
0.0546822
0.0534657
0.05241
0.0515014
0.0507288
0.0500826
0.0495552
0.0491404
0.0488331
0.0486302
0.048534
0.162867
0.151044
0.14023
0.130207
0.121182
0.113183
0.106115
0.0998476
0.0942735
0.0893111
0.0848926
0.0809581
0.0774548
0.0743359
0.0715603
0.0690923
0.0669005
0.0649576
0.0632399
0.0617268
0.0604006
0.059246
0.0582499
0.0574012
0.0566906
0.0561105
0.0556545
0.0553178
0.0550966
0.0549875
0.176554
0.163029
0.151937
0.14221
0.133481
0.125627
0.118576
0.112248
0.106563
0.101454
0.096862
0.0927357
0.0890296
0.0857031
0.0827199
0.0800477
0.0776584
0.0755268
0.0736311
0.0719521
0.0704731
0.0691796
0.0680591
0.0671008
0.0662958
0.0656365
0.0651168
0.0647319
0.0644783
0.0643537
0.180113
0.169623
0.159929
0.151033
0.142883
0.135432
0.128644
0.122474
0.116874
0.111793
0.107183
0.103003
0.0992172
0.0957912
0.0926954
0.089903
0.0873899
0.0851346
0.083118
0.081323
0.0797348
0.0783401
0.0771275
0.0760871
0.0752105
0.0744906
0.0739216
0.073499
0.0732191
0.0730793
0.181106
0.172153
0.163708
0.155837
0.148557
0.141831
0.135619
0.129892
0.124621
0.119779
0.115339
0.111274
0.10756
0.104172
0.101088
0.098288
0.0957528
0.0934651
0.0914091
0.0895708
0.0879375
0.0864979
0.0852421
0.0841616
0.0832488
0.0824977
0.081903
0.0814607
0.0811677
0.0810224
0.179
0.171987
0.165125
0.158527
0.152252
0.146325
0.140757
0.135548
0.130694
0.126187
0.122013
0.118156
0.114603
0.111337
0.108342
0.105605
0.103112
0.100849
0.0988056
0.0969699
0.095332
0.093883
0.0926149
0.0915205
0.0905937
0.0898293
0.0892229
0.0887711
0.0884712
0.088321
0.176713
0.170867
0.165083
0.159454
0.154046
0.148887
0.14399
0.139361
0.135001
0.13091
0.127084
0.123518
0.120204
0.117135
0.114302
0.111696
0.109308
0.10713
0.105153
0.10337
0.101773
0.100355
0.0991098
0.0980325
0.0971181
0.0963624
0.0957621
0.0953142
0.0950169
0.094869
0.173455
0.168779
0.164071
0.159423
0.15488
0.150472
0.146225
0.142158
0.138286
0.134615
0.131152
0.127897
0.12485
0.122008
0.119367
0.116923
0.114671
0.112607
0.110724
0.109018
0.107484
0.106118
0.104915
0.103871
0.102982
0.102247
0.101661
0.101224
0.100933
0.100788
0.170611