/*--------------------------------*- C++ -*----------------------------------*\
  =========                 |
  \\      /  F ield         | OpenFOAM: The Open Source CFD Toolbox
   \\    /   O peration     | Website:  https://openfoam.org
    \\  /    A nd           | Version:  7
     \\/     M anipulation  |
\*---------------------------------------------------------------------------*/
FoamFile
{
    version     2.0;
    format      ascii;
    class       volScalarField;
    location    "10";
    object      p;
}
// * * * * * * * * * * * * * * * * * * * * * * * * * * * * * * * * * * * * * //

dimensions      [0 2 -2 0 0 0 0];

internalField   nonuniform List<scalar> 
10880
(
-0.341553
-0.34637
-0.34872
-0.348983
-0.347934
-0.34583
-0.342798
-0.338959
-0.334418
-0.329263
-0.323573
-0.317425
-0.310892
-0.304052
-0.296989
-0.289799
-0.282575
-0.275394
-0.268348
-0.261785
-0.34699
-0.351019
-0.352767
-0.352585
-0.351166
-0.348748
-0.345453
-0.34139
-0.336656
-0.33133
-0.325481
-0.319175
-0.312477
-0.305452
-0.298177
-0.290742
-0.28324
-0.275692
-0.268112
-0.261477
-0.357512
-0.360028
-0.360609
-0.359552
-0.3574
-0.354359
-0.350536
-0.346024
-0.340903
-0.335234
-0.329069
-0.322456
-0.31544
-0.308069
-0.300397
-0.292509
-0.284496
-0.276281
-0.267711
-0.260859
-0.372501
-0.372888
-0.371801
-0.36947
-0.36624
-0.362273
-0.357661
-0.352477
-0.346774
-0.340592
-0.333959
-0.326901
-0.319439
-0.311592
-0.303389
-0.294902
-0.286219
-0.277152
-0.267276
-0.259955
-0.391211
-0.388981
-0.385806
-0.38185
-0.377227
-0.372052
-0.366403
-0.360327
-0.353853
-0.346991
-0.339748
-0.332121
-0.324104
-0.315689
-0.306875
-0.297711
-0.288285
-0.278311
-0.267003
-0.258851
-0.412908
-0.407696
-0.4021
-0.396228
-0.389942
-0.383311
-0.376401
-0.369236
-0.361812
-0.354116
-0.346123
-0.337807
-0.329136
-0.320076
-0.310598
-0.300726
-0.290539
-0.27969
-0.266984
-0.257559
-0.436954
-0.428493
-0.420233
-0.412223
-0.404067
-0.395784
-0.387433
-0.379009
-0.370478
-0.361796
-0.352914
-0.343779
-0.334336
-0.324528
-0.3143
-0.303644
-0.292605
-0.280759
-0.266567
-0.255428
-0.462812
-0.450918
-0.439824
-0.429537
-0.419378
-0.409314
-0.399389
-0.38957
-0.379791
-0.369982
-0.36007
-0.349986
-0.339664
-0.329046
-0.318077
-0.306732
-0.294976
-0.282297
-0.267338
-0.25562
-0.489939
-0.474483
-0.460486
-0.447872
-0.435654
-0.423736
-0.412141
-0.400804
-0.389625
-0.378511
-0.367377
-0.356158
-0.344812
-0.333329
-0.321747
-0.310155
-0.298678
-0.287552
-0.278
-0.272317
-0.517642
-0.498589
-0.481706
-0.466799
-0.452531
-0.438721
-0.425361
-0.412344
-0.399537
-0.386822
-0.374105
-0.361318
-0.348427
-0.335436
-0.322387
-0.309354
-0.296432
-0.283893
-0.272649
-0.261944
-0.544908
-0.522345
-0.502706
-0.485619
-0.469354
-0.453622
-0.438373
-0.423462
-0.408731
-0.394052
-0.379342
-0.364554
-0.349684
-0.334765
-0.319861
-0.305056
-0.290441
-0.276208
-0.262771
-0.248997
-0.570281
-0.544464
-0.522323
-0.503234
-0.485041
-0.467329
-0.450009
-0.432913
-0.415883
-0.398816
-0.381672
-0.364457
-0.347222
-0.330051
-0.313046
-0.296314
-0.279953
-0.264118
-0.249014
-0.233658
-0.591807
-0.563207
-0.538949
-0.518083
-0.498022
-0.478231
-0.458603
-0.438987
-0.41927
-0.399427
-0.379502
-0.359593
-0.339834
-0.320373
-0.301359
-0.282923
-0.265175
-0.248249
-0.232252
-0.216405
-0.607088
-0.576405
-0.550538
-0.528153
-0.506271
-0.484274
-0.462089
-0.439642
-0.416933
-0.394066
-0.371216
-0.348594
-0.32642
-0.304898
-0.284205
-0.264472
-0.245796
-0.228263
-0.211894
-0.196085
-0.613405
-0.581559
-0.554699
-0.531078
-0.507428
-0.483123
-0.458198
-0.432741
-0.406933
-0.381053
-0.355428
-0.33038
-0.306195
-0.283104
-0.261274
-0.240804
-0.221743
-0.204106
-0.187824
-0.172501
-0.607932
-0.576022
-0.54887
-0.52433
-0.499013
-0.472397
-0.444722
-0.416317
-0.387599
-0.359046
-0.331125
-0.30424
-0.278703
-0.254728
-0.232432
-0.211854
-0.192975
-0.175716
-0.159933
-0.14553
-0.587995
-0.557238
-0.530551
-0.505467
-0.478698
-0.449958
-0.419789
-0.388824
-0.357738
-0.327194
-0.297762
-0.26988
-0.243835
-0.219781
-0.197758
-0.17773
-0.159601
-0.143193
-0.128318
-0.115286
-0.551357
-0.523015
-0.497594
-0.472427
-0.444596
-0.414184
-0.382105
-0.349321
-0.316752
-0.2852
-0.255281
-0.227407
-0.201797
-0.178514
-0.15751
-0.138669
-0.121821
-0.10669
-0.0930607
-0.0817059
-0.496499
-0.471808
-0.448473
-0.423807
-0.395522
-0.364189
-0.331118
-0.297585
-0.2647
-0.233337
-0.204096
-0.177312
-0.153106
-0.13144
-0.112177
-0.0951325
-0.0800694
-0.066611
-0.0545263
-0.0451644
-0.422858
-0.402958
-0.382535
-0.359083
-0.331188
-0.299967
-0.267106
-0.234135
-0.202277
-0.172407
-0.145049
-0.120433
-0.0985665
-0.0793152
-0.0624681
-0.0477913
-0.0349878
-0.0235812
-0.0134227
-0.00658676
-0.330987
-0.316863
-0.300165
-0.278765
-0.252293
-0.222433
-0.191172
-0.160199
-0.130762
-0.103682
-0.0793617
-0.0579087
-0.0392272
-0.0230996
-0.00926286
0.00254743
0.012674
0.0216808
0.029629
0.0337028
-0.222607
-0.215074
-0.202871
-0.18445
-0.160504
-0.133373
-0.105165
-0.077622
-0.0519524
-0.0288477
-0.00858606
0.00884175
0.0236224
0.0360318
0.0463634
0.0548961
0.0620061
0.0683178
0.0737717
0.0748676
-0.10046
-0.100339
-0.093234
-0.078636
-0.0585109
-0.0354143
-0.0116069
0.0112104
0.0319549
0.0500827
0.065447
0.0781565
0.0884608
0.0966658
0.103073
0.107964
0.111712
0.114886
0.117281
0.115378
0.0311055
0.0238682
0.0252242
0.035106
0.0503913
0.068265
0.0865068
0.103547
0.118468
0.13088
0.140756
0.148277
0.153723
0.157398
0.159587
0.16055
0.16053
0.159743
0.15803
0.153481
0.167667
0.152875
0.148155
0.152664
0.162259
0.174
0.185827
0.196369
0.204896
0.211174
0.21528
0.217452
0.217992
0.217203
0.215387
0.212822
0.20956
0.205154
0.199993
0.199826
0.303834
0.281653
0.270741
0.269465
0.272819
0.277872
0.282805
0.286481
0.288366
0.28836
0.286617
0.283409
0.279035
0.273785
0.267935
0.261722
0.25516
0.24796
0.240844
0.238158
0.434006
0.404887
0.387929
0.380769
0.377712
0.375937
0.373918
0.370767
0.366129
0.360022
0.352654
0.344306
0.335265
0.32579
0.316115
0.306423
0.296721
0.286846
0.277454
0.271643
0.552652
0.517303
0.494726
0.481933
0.472702
0.464393
0.455786
0.446232
0.435537
0.423806
0.411285
0.398251
0.384965
0.371651
0.3585
0.345648
0.333102
0.320753
0.309089
0.300248
0.654612
0.613968
0.586483
0.568661
0.553903
0.539776
0.525348
0.510182
0.494216
0.477622
0.460664
0.443609
0.426691
0.410098
0.393978
0.378432
0.363464
0.349004
0.335368
0.323907
0.735377
0.690571
0.659149
0.637228
0.617958
0.599105
0.579976
0.560304
0.540127
0.519665
0.49919
0.478956
0.45917
0.43999
0.42153
0.403862
0.38699
0.37087
0.35567
0.342119
0.791332
0.74366
0.709483
0.684666
0.662208
0.640023
0.617595
0.594775
0.571666
0.548518
0.525606
0.503173
0.481406
0.46044
0.440366
0.421235
0.403053
0.385793
0.369512
0.354505
0.819957
0.770823
0.73523
0.708914
0.684805
0.660899
0.636772
0.612332
0.587719
0.563195
0.539038
0.51548
0.492701
0.470825
0.449927
0.43005
0.411201
0.393361
0.376528
0.360773
0.819957
0.770823
0.73523
0.708914
0.684805
0.660899
0.636772
0.612332
0.587719
0.563195
0.539038
0.51548
0.492701
0.470825
0.449927
0.43005
0.411201
0.393361
0.376528
0.360773
0.791332
0.74366
0.709483
0.684666
0.662208
0.640023
0.617595
0.594775
0.571666
0.548518
0.525606
0.503173
0.481406
0.46044
0.440366
0.421235
0.403053
0.385793
0.369512
0.354505
0.735377
0.690571
0.659149
0.637228
0.617958
0.599105
0.579976
0.560304
0.540127
0.519665
0.49919
0.478956
0.45917
0.43999
0.42153
0.403862
0.38699
0.37087
0.35567
0.342119
0.654612
0.613968
0.586483
0.568661
0.553903
0.539776
0.525348
0.510182
0.494216
0.477622
0.460664
0.443609
0.426691
0.410098
0.393978
0.378432
0.363464
0.349004
0.335368
0.323907
0.552652
0.517303
0.494726
0.481933
0.472702
0.464393
0.455786
0.446232
0.435537
0.423806
0.411285
0.398251
0.384965
0.371651
0.3585
0.345648
0.333102
0.320753
0.309089
0.300248
0.434006
0.404887
0.387929
0.380769
0.377712
0.375937
0.373918
0.370767
0.366129
0.360022
0.352654
0.344306
0.335265
0.32579
0.316115
0.306422
0.296721
0.286846
0.277454
0.271643
0.303834
0.281653
0.270741
0.269465
0.272819
0.277872
0.282805
0.286481
0.288366
0.28836
0.286617
0.283409
0.279035
0.273785
0.267935
0.261722
0.25516
0.24796
0.240844
0.238158
0.167667
0.152875
0.148155
0.152664
0.162259
0.174
0.185827
0.196369
0.204896
0.211174
0.21528
0.217452
0.217992
0.217203
0.215387
0.212822
0.20956
0.205154
0.199993
0.199826
0.0311055
0.0238682
0.0252242
0.035106
0.0503913
0.068265
0.0865068
0.103547
0.118468
0.13088
0.140756
0.148277
0.153723
0.157398
0.159587
0.16055
0.16053
0.159743
0.15803
0.153481
-0.10046
-0.100339
-0.093234
-0.078636
-0.0585109
-0.0354143
-0.0116069
0.0112104
0.0319549
0.0500827
0.065447
0.0781565
0.0884608
0.0966658
0.103073
0.107964
0.111712
0.114886
0.117281
0.115378
-0.222607
-0.215074
-0.202871
-0.18445
-0.160504
-0.133373
-0.105165
-0.077622
-0.0519524
-0.0288477
-0.00858606
0.00884175
0.0236224
0.0360318
0.0463634
0.0548961
0.0620061
0.0683178
0.0737717
0.0748675
-0.330987
-0.316863
-0.300165
-0.278765
-0.252293
-0.222433
-0.191172
-0.160199
-0.130762
-0.103682
-0.0793617
-0.0579088
-0.0392272
-0.0230996
-0.00926287
0.00254742
0.012674
0.0216808
0.029629
0.0337028
-0.422858
-0.402958
-0.382535
-0.359083
-0.331188
-0.299967
-0.267106
-0.234135
-0.202277
-0.172407
-0.145049
-0.120433
-0.0985665
-0.0793153
-0.0624681
-0.0477913
-0.0349878
-0.0235812
-0.0134228
-0.00658677
-0.496499
-0.471808
-0.448473
-0.423807
-0.395522
-0.364189
-0.331118
-0.297585
-0.2647
-0.233337
-0.204096
-0.177312
-0.153106
-0.13144
-0.112177
-0.0951325
-0.0800694
-0.066611
-0.0545263
-0.0451644
-0.551357
-0.523015
-0.497594
-0.472427
-0.444596
-0.414184
-0.382105
-0.349321
-0.316752
-0.2852
-0.255281
-0.227407
-0.201797
-0.178514
-0.15751
-0.138669
-0.121821
-0.10669
-0.0930608
-0.0817059
-0.587995
-0.557238
-0.530551
-0.505467
-0.478698
-0.449958
-0.419789
-0.388824
-0.357738
-0.327194
-0.297762
-0.26988
-0.243835
-0.219781
-0.197758
-0.177731
-0.159601
-0.143193
-0.128318
-0.115286
-0.607932
-0.576022
-0.54887
-0.52433
-0.499013
-0.472397
-0.444722
-0.416317
-0.387599
-0.359046
-0.331125
-0.30424
-0.278703
-0.254728
-0.232432
-0.211854
-0.192975
-0.175716
-0.159933
-0.14553
-0.613405
-0.581559
-0.554699
-0.531078
-0.507428
-0.483123
-0.458198
-0.432741
-0.406933
-0.381053
-0.355428
-0.33038
-0.306195
-0.283104
-0.261274
-0.240804
-0.221743
-0.204106
-0.187824
-0.172501
-0.607088
-0.576405
-0.550538
-0.528153
-0.506271
-0.484274
-0.462089
-0.439642
-0.416933
-0.394066
-0.371216
-0.348594
-0.32642
-0.304898
-0.284205
-0.264472
-0.245796
-0.228263
-0.211894
-0.196085
-0.591807
-0.563207
-0.538949
-0.518083
-0.498022
-0.478231
-0.458603
-0.438987
-0.41927
-0.399427
-0.379502
-0.359593
-0.339834
-0.320373
-0.301359
-0.282923
-0.265175
-0.248249
-0.232252
-0.216405
-0.570281
-0.544464
-0.522323
-0.503234
-0.485041
-0.467329
-0.450009
-0.432913
-0.415883
-0.398816
-0.381672
-0.364457
-0.347222
-0.330051
-0.313046
-0.296314
-0.279953
-0.264118
-0.249014
-0.233658
-0.544908
-0.522345
-0.502706
-0.485619
-0.469354
-0.453622
-0.438373
-0.423462
-0.408731
-0.394052
-0.379342
-0.364554
-0.349684
-0.334765
-0.319861
-0.305056
-0.290441
-0.276208
-0.262771
-0.248997
-0.517642
-0.498589
-0.481706
-0.466799
-0.452531
-0.438721
-0.425361
-0.412344
-0.399537
-0.386822
-0.374105
-0.361318
-0.348427
-0.335436
-0.322387
-0.309354
-0.296432
-0.283893
-0.272649
-0.261944
-0.489939
-0.474483
-0.460486
-0.447872
-0.435654
-0.423736
-0.412141
-0.400804
-0.389625
-0.378511
-0.367377
-0.356158
-0.344812
-0.333329
-0.321747
-0.310155
-0.298678
-0.287552
-0.278
-0.272317
-0.462812
-0.450918
-0.439824
-0.429537
-0.419378
-0.409314
-0.399389
-0.38957
-0.379791
-0.369982
-0.36007
-0.349986
-0.339664
-0.329046
-0.318077
-0.306732
-0.294976
-0.282297
-0.267338
-0.25562
-0.436954
-0.428493
-0.420233
-0.412223
-0.404067
-0.395784
-0.387433
-0.379009
-0.370478
-0.361796
-0.352914
-0.343779
-0.334336
-0.324528
-0.3143
-0.303644
-0.292605
-0.280759
-0.266567
-0.255428
-0.412908
-0.407696
-0.4021
-0.396228
-0.389942
-0.383311
-0.376401
-0.369236
-0.361812
-0.354116
-0.346123
-0.337807
-0.329136
-0.320076
-0.310598
-0.300726
-0.290539
-0.27969
-0.266984
-0.257559
-0.391211
-0.388981
-0.385806
-0.38185
-0.377227
-0.372052
-0.366403
-0.360327
-0.353853
-0.346991
-0.339748
-0.332121
-0.324104
-0.315689
-0.306875
-0.297711
-0.288285
-0.278311
-0.267003
-0.258851
-0.372501
-0.372888
-0.371801
-0.36947
-0.36624
-0.362273
-0.357661
-0.352477
-0.346774
-0.340592
-0.333959
-0.326901
-0.319439
-0.311592
-0.303389
-0.294902
-0.286219
-0.277152
-0.267276
-0.259955
-0.357512
-0.360028
-0.360609
-0.359552
-0.3574
-0.354359
-0.350536
-0.346024
-0.340903
-0.335234
-0.329069
-0.322456
-0.31544
-0.308069
-0.300397
-0.292509
-0.284496
-0.276281
-0.267711
-0.260859
-0.34699
-0.351019
-0.352767
-0.352585
-0.351166
-0.348748
-0.345453
-0.34139
-0.336656
-0.33133
-0.325481
-0.319175
-0.312477
-0.305452
-0.298177
-0.290742
-0.28324
-0.275692
-0.268112
-0.261477
-0.341553
-0.34637
-0.34872
-0.348983
-0.347934
-0.34583
-0.342798
-0.338959
-0.334418
-0.329263
-0.323573
-0.317425
-0.310892
-0.304052
-0.296989
-0.289799
-0.282575
-0.275394
-0.268348
-0.261785
-0.256275
-0.24998
-0.24343
-0.23696
-0.230587
-0.224282
-0.218046
-0.211891
-0.205824
-0.199852
-0.19398
-0.188214
-0.182558
-0.177016
-0.171591
-0.166286
-0.161103
-0.156044
-0.15111
-0.146301
-0.141618
-0.137059
-0.132624
-0.128311
-0.124119
-0.120044
-0.116086
-0.112241
-0.108507
-0.10488
-0.101358
-0.097937
-0.0946144
-0.0913867
-0.0882508
-0.0852035
-0.0822417
-0.0793623
-0.0765624
-0.073839
-0.0711893
-0.0686108
-0.0661009
-0.0636571
-0.0612771
-0.0589589
-0.0567004
-0.0544997
-0.052355
-0.0502647
-0.0482274
-0.0462416
-0.044306
-0.0424196
-0.0405811
-0.0387898
-0.0370446
-0.0353449
-0.0336897
-0.0320786
-0.0305108
-0.0289859
-0.0275032
-0.0260623
-0.0246628
-0.0233042
-0.0219861
-0.020708
-0.0194697
-0.0182706
-0.0171104
-0.0159887
-0.0149052
-0.0138594
-0.0128509
-0.0118791
-0.0109438
-0.0100445
-0.00918067
-0.00835189
-0.00755767
-0.00679754
-0.00607098
-0.00537751
-0.0047166
-0.00408773
-0.00349038
-0.00292402
-0.0023881
-0.00188207
-0.0014054
-0.000957517
-0.000537864
-0.000145873
0.000219027
0.000557415
0.000869876
0.001157
0.00141939
0.00165764
0.00187238
0.00206422
0.00223379
0.00238175
0.00250874
0.00261543
0.00270252
0.00277069
0.00282066
0.00285319
0.00286904
0.00286901
0.00285394
0.00282473
0.00278252
0.00272807
0.00265679
0.00257696
0.00267507
0.00275212
-0.258306
-0.252126
-0.245126
-0.23842
-0.231954
-0.225584
-0.219288
-0.213081
-0.206971
-0.200963
-0.195059
-0.189263
-0.183579
-0.178011
-0.172563
-0.167235
-0.162032
-0.156953
-0.152
-0.147174
-0.142473
-0.137899
-0.133448
-0.129121
-0.124915
-0.120828
-0.116857
-0.113001
-0.109255
-0.105618
-0.102085
-0.098655
-0.0953232
-0.0920867
-0.0889424
-0.085887
-0.0829173
-0.0800304
-0.0772231
-0.0744925
-0.0718358
-0.0692503
-0.0667335
-0.0642829
-0.0618962
-0.0595712
-0.0573059
-0.0550984
-0.0529468
-0.0508496
-0.0488052
-0.0468123
-0.0448695
-0.0429757
-0.0411298
-0.0393309
-0.037578
-0.0358704
-0.0342074
-0.0325882
-0.0310123
-0.0294792
-0.0279882
-0.0265389
-0.0251309
-0.0237638
-0.0224371
-0.0211505
-0.0199035
-0.0186958
-0.0175269
-0.0163965
-0.0153042
-0.0142497
-0.0132325
-0.0122522
-0.0113082
-0.0104003
-0.00952785
-0.00869051
-0.00788778
-0.00711917
-0.00638418
-0.00568231
-0.00501306
-0.0043759
-0.00377031
-0.00319576
-0.00265172
-0.00213763
-0.00165295
-0.00119714
-0.00076962
-0.000369843
2.76411e-06
0.000348775
0.000668769
0.000963331
0.00123305
0.00147854
0.00170039
0.00189922
0.00207566
0.00223034
0.0023639
0.002477
0.00257032
0.00264452
0.00270033
0.00273844
0.00275962
0.00276461
0.00275424
0.00272933
0.00269095
0.00263983
0.00257152
0.00249365
0.00258477
0.00265763
-0.262146
-0.256284
-0.248406
-0.241217
-0.234564
-0.228063
-0.221642
-0.215329
-0.209133
-0.203053
-0.197086
-0.191234
-0.1855
-0.179886
-0.174395
-0.169028
-0.163787
-0.158674
-0.153688
-0.148831
-0.144101
-0.139498
-0.135021
-0.130669
-0.126438
-0.122328
-0.118335
-0.114457
-0.110691
-0.107034
-0.103483
-0.100034
-0.0966846
-0.0934312
-0.0902706
-0.0871995
-0.0842145
-0.0813127
-0.0784909
-0.0757461
-0.0730755
-0.0704763
-0.067946
-0.0654819
-0.0630819
-0.0607435
-0.0584649
-0.056244
-0.0540789
-0.0519682
-0.0499101
-0.0479033
-0.0459465
-0.0440385
-0.0421783
-0.0403648
-0.0385972
-0.0368747
-0.0351965
-0.0335621
-0.0319707
-0.0304219
-0.0289151
-0.0274499
-0.0260259
-0.0246426
-0.0232997
-0.0219968
-0.0207334
-0.0195093
-0.0183239
-0.0171771
-0.0160683
-0.0149973
-0.0139637
-0.0129669
-0.0120066
-0.0110823
-0.0101936
-0.00934006
-0.00852118
-0.00773649
-0.0069855
-0.00626771
-0.00558262
-0.00492972
-0.00430848
-0.00371837
-0.00315888
-0.00262945
-0.00212955
-0.00165863
-0.00121614
-0.000801528
-0.000414229
-5.36788e-05
0.000280691
0.000589458
0.000873201
0.00113251
0.00136797
0.0015802
0.00176979
0.00193736
0.00208354
0.00220896
0.00231426
0.0024001
0.00246715
0.00251607
0.00254757
0.00256234
0.00256112
0.00254465
0.00251386
0.00246937
0.0024071
0.00233341
0.00241194
0.0024772
-0.267319
-0.262086
-0.252976
-0.245076
-0.238155
-0.231463
-0.224854
-0.21838
-0.212059
-0.205877
-0.199824
-0.193898
-0.1881
-0.182429
-0.176887
-0.171474
-0.16619
-0.161037
-0.156013
-0.15112
-0.146356
-0.14172
-0.137211
-0.132827
-0.128567
-0.124427
-0.120406
-0.1165
-0.112707
-0.109024
-0.105447
-0.101973
-0.0985999
-0.0953229
-0.0921392
-0.0890455
-0.0860385
-0.0831151
-0.0802722
-0.0775067
-0.0748157
-0.0721964
-0.0696461
-0.0671624
-0.0647428
-0.062385
-0.0600869
-0.0578465
-0.055662
-0.0535317
-0.051454
-0.0494274
-0.0474507
-0.0455226
-0.0436421
-0.0418081
-0.0400198
-0.0382763
-0.0365771
-0.0349213
-0.0333084
-0.0317378
-0.0302092
-0.028722
-0.0272758
-0.0258702
-0.0245049
-0.0231794
-0.0218935
-0.0206467
-0.0194388
-0.0182692
-0.0171378
-0.0160441
-0.0149878
-0.0139684
-0.0129855
-0.0120387
-0.0111276
-0.0102517
-0.00941055
-0.00860368
-0.00783061
-0.00709084
-0.00638387
-0.00570921
-0.00506632
-0.00445471
-0.00387383
-0.00332316
-0.00280216
-0.0023103
-0.00184704
-0.00141182
-0.0010041
-0.000623334
-0.00026895
5.96063e-05
0.000362903
0.00064151
0.000896005
0.00112697
0.00133499
0.00152065
0.00168456
0.00182732
0.00194954
0.00205183
0.00213481
0.00219911
0.00224534
0.00227414
0.00228613
0.00228195
0.00226235
0.00222783
0.00217475
0.00210794
0.00217083
0.00222642
-0.273051
-0.268752
-0.258232
-0.249508
-0.242299
-0.235382
-0.228537
-0.221868
-0.2154
-0.209103
-0.202958
-0.196957
-0.191097
-0.185375
-0.179788
-0.174336
-0.169017
-0.163831
-0.158777
-0.153853
-0.149059
-0.144394
-0.139856
-0.135443
-0.131153
-0.126984
-0.122934
-0.118998
-0.115176
-0.111463
-0.107857
-0.104355
-0.100952
-0.0976464
-0.0944344
-0.0913126
-0.088278
-0.0853273
-0.0824574
-0.0796652
-0.0769479
-0.0743026
-0.0717266
-0.0692173
-0.0667724
-0.0643895
-0.0620663
-0.0598011
-0.0575917
-0.0554366
-0.053334
-0.0512825
-0.0492808
-0.0473277
-0.0454219
-0.0435626
-0.0417488
-0.0399797
-0.0382546
-0.0365729
-0.0349338
-0.033337
-0.0317819
-0.0302681
-0.0287952
-0.0273628
-0.0259706
-0.0246181
-0.0233051
-0.0220313
-0.0207962
-0.0195995
-0.0184408
-0.01732
-0.0162366
-0.0151902
-0.0141803
-0.0132066
-0.0122686
-0.0113659
-0.0104981
-0.00966468
-0.00886515
-0.00809903
-0.00736585
-0.00666509
-0.00599624
-0.0053588
-0.00475224
-0.00417604
-0.00362967
-0.00311261
-0.00262432
-0.00216427
-0.00173192
-0.00132673
-0.000948148
-0.000595637
-0.000268643
3.33855e-05
0.000311006
0.000564777
0.000795263
0.00100303
0.00118865
0.00135268
0.00149571
0.00161829
0.00172101
0.00180442
0.00186907
0.00191552
0.00194429
0.00195588
0.00195088
0.00192963
0.00188907
0.0018324
0.00187966
0.00192531
-0.278082
-0.27485
-0.263083
-0.253704
-0.246301
-0.239171
-0.232087
-0.225232
-0.218634
-0.212242
-0.206027
-0.199978
-0.194086
-0.188342
-0.182742
-0.17728
-0.171954
-0.166761
-0.161699
-0.156767
-0.151963
-0.147285
-0.142732
-0.138302
-0.133993
-0.129802
-0.125729
-0.121769
-0.11792
-0.114181
-0.110546
-0.107015
-0.103583
-0.100247
-0.0970047
-0.0938525
-0.0907873
-0.0878061
-0.0849057
-0.0820831
-0.0793356
-0.0766603
-0.0740545
-0.0715157
-0.0690414
-0.0666292
-0.0642772
-0.061983
-0.059745
-0.0575613
-0.0554302
-0.0533503
-0.0513202
-0.0493386
-0.0474044
-0.0455166
-0.0436742
-0.0418765
-0.0401227
-0.038412
-0.0367441
-0.0351182
-0.0335339
-0.0319908
-0.0304885
-0.0290266
-0.0276048
-0.0262228
-0.0248801
-0.0235766
-0.0223118
-0.0210853
-0.019897
-0.0187465
-0.0176334
-0.0165574
-0.0155179
-0.0145148
-0.0135474
-0.0126155
-0.0117185
-0.0108559
-0.0100274
-0.00923246
-0.00847053
-0.00774115
-0.00704382
-0.00637803
-0.00574326
-0.005139
-0.00456473
-0.00401992
-0.00350406
-0.00301661
-0.00255706
-0.00212487
-0.0017195
-0.00134044
-0.000987148
-0.000659083
-0.000355712
-7.6495e-05
0.000179106
0.000411631
0.000621621
0.000809613
0.000976143
0.00112174
0.00124692
0.0013522
0.00143807
0.001505
0.00155342
0.00158373
0.00159635
0.00159152
0.00156676
0.00152382
0.00155832
0.00159547
-0.280451
-0.2781
-0.266001
-0.256807
-0.249599
-0.242456
-0.23532
-0.228441
-0.221824
-0.21541
-0.209179
-0.20312
-0.197225
-0.191482
-0.185885
-0.180427
-0.175105
-0.169916
-0.164855
-0.159922
-0.155113
-0.150428
-0.145865
-0.141421
-0.137095
-0.132885
-0.128789
-0.124805
-0.120929
-0.117161
-0.113496
-0.109933
-0.106468
-0.103099
-0.099822
-0.0966349
-0.0935345
-0.0905178
-0.0875819
-0.0847239
-0.081941
-0.0792305
-0.0765897
-0.0740162
-0.0715075
-0.0690613
-0.0666755
-0.0643479
-0.0620767
-0.0598601
-0.0576964
-0.0555841
-0.0535218
-0.0515082
-0.0495421
-0.0476226
-0.0457485
-0.0439191
-0.0421337
-0.0403915
-0.0386919
-0.0370345
-0.0354186
-0.0338439
-0.0323099
-0.0308163
-0.0293628
-0.027949
-0.0265746
-0.0252394
-0.0239428
-0.0226847
-0.0214647
-0.0202825
-0.0191378
-0.0180302
-0.0169593
-0.0159248
-0.0149262
-0.0139631
-0.013035
-0.0121415
-0.0112822
-0.0104566
-0.00966411
-0.00890434
-0.00817675
-0.00748085
-0.00681612
-0.00618206
-0.00557814
-0.00500386
-0.00445869
-0.00394212
-0.00345363
-0.00299269
-0.00255879
-0.0021514
-0.00177001
-0.00141409
-0.00108312
-0.000776585
-0.000493957
-0.00023472
1.64152e-06
0.000215639
0.000407779
0.000578556
0.000728454
0.000857941
0.00096746
0.00105742
0.00112821
0.00118013
0.0012135
0.00122847
0.00122314
0.00119816
0.0012255
0.00125713
-0.278847
-0.274976
-0.264285
-0.25635
-0.249535
-0.242621
-0.235815
-0.229271
-0.222942
-0.216786
-0.210795
-0.204958
-0.199267
-0.193711
-0.188283
-0.182979
-0.177794
-0.172727
-0.167774
-0.162933
-0.158204
-0.153585
-0.149076
-0.144674
-0.140381
-0.136193
-0.13211
-0.12813
-0.124253
-0.120475
-0.116796
-0.113213
-0.109723
-0.106326
-0.103017
-0.0997956
-0.0966583
-0.0936028
-0.0906267
-0.0877272
-0.084902
-0.0821486
-0.0794646
-0.0768477
-0.0742955
-0.0718059
-0.0693769
-0.0670065
-0.0646929
-0.0624342
-0.0602289
-0.0580755
-0.0559725
-0.0539187
-0.0519128
-0.0499539
-0.0480409
-0.046173
-0.0443494
-0.0425693
-0.0408322
-0.0391374
-0.0374845
-0.0358729
-0.0343023
-0.0327722
-0.0312824
-0.0298324
-0.028422
-0.0270508
-0.0257186
-0.0244249
-0.0231694
-0.0219519
-0.020772
-0.0196294
-0.0185236
-0.0174544
-0.0164212
-0.0154237
-0.0144615
-0.0135341
-0.0126411
-0.0117819
-0.0109561
-0.0101632
-0.00940277
-0.00867421
-0.00797705
-0.00731077
-0.00667486
-0.00606881
-0.0054921
-0.0049442
-0.00442461
-0.0039328
-0.00346826
-0.00303046
-0.00261889
-0.00223304
-0.00187238
-0.0015364
-0.0012246
-0.000936461
-0.000671483
-0.000429168
-0.000209026
-1.05807e-05
0.000166633
0.000323059
0.00045912
0.000575203
0.000671659
0.000748786
0.000806854
0.000846016
0.00086501
0.000864016
0.0008936
0.000923718
-0.24938
-0.249124
-0.248404
-0.245518
-0.241109
-0.236055
-0.230752
-0.225311
-0.219798
-0.214274
-0.208785
-0.203356
-0.198002
-0.192731
-0.187551
-0.182463
-0.177471
-0.172576
-0.16778
-0.163082
-0.158484
-0.153985
-0.149587
-0.145288
-0.141089
-0.136988
-0.132986
-0.129081
-0.125272
-0.121558
-0.117938
-0.114408
-0.110968
-0.107616
-0.104349
-0.101165
-0.0980626
-0.0950383
-0.0920903
-0.089216
-0.0864133
-0.0836797
-0.0810131
-0.078411
-0.0758715
-0.0733924
-0.0709718
-0.0686078
-0.0662985
-0.0640424
-0.0618378
-0.0596834
-0.0575778
-0.0555198
-0.0535082
-0.0515421
-0.0496205
-0.0477427
-0.0459079
-0.0441155
-0.0423649
-0.0406557
-0.0389874
-0.0373596
-0.0357719
-0.0342241
-0.0327158
-0.0312469
-0.0298169
-0.0284258
-0.0270732
-0.0257588
-0.0244823
-0.0232436
-0.0220422
-0.0208779
-0.0197503
-0.0186591
-0.0176039
-0.0165843
-0.0155997
-0.0146499
-0.0137343
-0.0128525
-0.012004
-0.0111883
-0.0104049
-0.00965328
-0.00893297
-0.00824346
-0.00758424
-0.0069548
-0.00635465
-0.00578327
-0.00524018
-0.00472488
-0.00423687
-0.00377567
-0.00334078
-0.00293172
-0.002548
-0.00218915
-0.00185467
-0.00154411
-0.00125698
-0.000992823
-0.000751168
-0.000531566
-0.000333573
-0.000156762
-7.19412e-07
0.000134945
0.000250595
0.000346567
0.000423181
0.000480694
0.000518573
0.000537487
0.000568974
0.000589849
-0.236314
-0.235481
-0.232987
-0.229262
-0.225121
-0.220837
-0.216428
-0.211905
-0.20731
-0.202683
-0.198051
-0.193431
-0.188835
-0.184273
-0.179754
-0.175284
-0.170869
-0.166512
-0.162219
-0.157991
-0.153833
-0.149745
-0.145731
-0.141791
-0.137927
-0.13414
-0.130429
-0.126797
-0.123241
-0.119763
-0.116361
-0.113036
-0.109785
-0.106608
-0.103504
-0.100471
-0.0975081
-0.0946131
-0.0917847
-0.0890213
-0.086321
-0.0836823
-0.0811035
-0.0785827
-0.0761186
-0.0737093
-0.0713534
-0.0690495
-0.0667961
-0.0645919
-0.0624356
-0.0603261
-0.0582624
-0.0562433
-0.0542681
-0.0523359
-0.0504459
-0.0485976
-0.0467901
-0.0450232
-0.0432962
-0.0416087
-0.0399605
-0.0383511
-0.0367803
-0.0352477
-0.0337532
-0.0322965
-0.0308774
-0.0294956
-0.0281509
-0.0268431
-0.025572
-0.0243372
-0.0231385
-0.0219756
-0.0208482
-0.0197559
-0.0186984
-0.0176753
-0.0166863
-0.0157308
-0.0148085
-0.0139189
-0.0130616
-0.012236
-0.0114419
-0.0106785
-0.00994559
-0.00924254
-0.00856891
-0.00792421
-0.00730798
-0.00671973
-0.00615898
-0.00562527
-0.00511812
-0.00463707
-0.00418165
-0.0037514
-0.00334587
-0.00296459
-0.00260711
-0.00227298
-0.00196175
-0.00167298
-0.00140623
-0.00116107
-0.000937076
-0.000733833
-0.000550943
-0.000388022
-0.000244701
-0.000120631
-1.54714e-05
7.10884e-05
0.000139
0.000188774
0.000235205
0.000267934
-0.216969
-0.217682
-0.215151
-0.211948
-0.208888
-0.2058
-0.202515
-0.199036
-0.195419
-0.191706
-0.187922
-0.184086
-0.180216
-0.176327
-0.172432
-0.168543
-0.164668
-0.160815
-0.156991
-0.153203
-0.149455
-0.145751
-0.142095
-0.13849
-0.13494
-0.131445
-0.128008
-0.124631
-0.121314
-0.118057
-0.114863
-0.11173
-0.108658
-0.105648
-0.102699
-0.0998099
-0.0969803
-0.0942094
-0.091496
-0.0888392
-0.0862378
-0.0836908
-0.0811969
-0.0787549
-0.0763637
-0.0740221
-0.0717289
-0.0694831
-0.0672836
-0.0651294
-0.0630195
-0.060953
-0.0589292
-0.0569471
-0.0550062
-0.0531057
-0.051245
-0.0494238
-0.0476414
-0.0458974
-0.0441915
-0.0425234
-0.0408927
-0.0392993
-0.0377428
-0.036223
-0.0347398
-0.033293
-0.0318824
-0.0305078
-0.029169
-0.0278658
-0.026598
-0.0253654
-0.0241677
-0.0230047
-0.0218761
-0.0207815
-0.0197206
-0.0186932
-0.0176988
-0.016737
-0.0158074
-0.0149096
-0.0140433
-0.0132078
-0.0124029
-0.011628
-0.0108827
-0.0101665
-0.00947894
-0.00881961
-0.00818803
-0.00758372
-0.00700625
-0.00645516
-0.00592999
-0.0054303
-0.00495565
-0.00450558
-0.00407967
-0.00367747
-0.00329855
-0.00294247
-0.0026088
-0.00229711
-0.00200698
-0.00173798
-0.00148971
-0.00126176
-0.00105371
-0.000865197
-0.000695828
-0.00054524
-0.000413079
-0.000299009
-0.000202714
-0.000123875
-6.1957e-05
-1.66623e-05
-0.19704
-0.199445
-0.197664
-0.195228
-0.193096
-0.190965
-0.188597
-0.185994
-0.183221
-0.180317
-0.177303
-0.174198
-0.17102
-0.167784
-0.164506
-0.161197
-0.157868
-0.154529
-0.151189
-0.147855
-0.144534
-0.141231
-0.137951
-0.1347
-0.13148
-0.128296
-0.12515
-0.122045
-0.118982
-0.115964
-0.112992
-0.110066
-0.107189
-0.104359
-0.101578
-0.0988455
-0.0961617
-0.0935263
-0.090939
-0.0883994
-0.085907
-0.0834611
-0.0810612
-0.0787066
-0.0763966
-0.0741304
-0.0719073
-0.0697266
-0.0675877
-0.0654898
-0.0634322
-0.0614145
-0.0594359
-0.0574959
-0.0555941
-0.05373
-0.0519032
-0.0501133
-0.04836
-0.046643
-0.044962
-0.0433168
-0.0417071
-0.040133
-0.038594
-0.0370902
-0.0356214
-0.0341873
-0.032788
-0.0314233
-0.0300929
-0.0287969
-0.0275349
-0.0263068
-0.0251124
-0.0239514
-0.0228237
-0.0217289
-0.0206667
-0.0196368
-0.0186389
-0.0176726
-0.0167376
-0.0158335
-0.0149598
-0.0141162
-0.0133021
-0.0125173
-0.0117613
-0.0110336
-0.0103337
-0.00966134
-0.00901597
-0.00839717
-0.00780451
-0.00723754
-0.00669584
-0.00617897
-0.00568651
-0.00521802
-0.00477308
-0.00435126
-0.00395214
-0.00357529
-0.0032203
-0.00288675
-0.0025742
-0.00228225
-0.00201049
-0.0017585
-0.00152588
-0.00131222
-0.00111714
-0.000940249
-0.000781176
-0.000639553
-0.00051477
-0.00040658
-0.000326205
-0.000265343
-0.178207
-0.181557
-0.180679
-0.179108
-0.177823
-0.176524
-0.17497
-0.173159
-0.171151
-0.168988
-0.166686
-0.164259
-0.161728
-0.159109
-0.156416
-0.153662
-0.150859
-0.148018
-0.145148
-0.142258
-0.139356
-0.136449
-0.133543
-0.130643
-0.127754
-0.124881
-0.122028
-0.119197
-0.116393
-0.113616
-0.110871
-0.108158
-0.105478
-0.102835
-0.100227
-0.0976568
-0.0951244
-0.0926303
-0.0901748
-0.0877581
-0.0853802
-0.0830411
-0.0807407
-0.0784787
-0.076255
-0.0740693
-0.0719211
-0.0698103
-0.0677365
-0.0656992
-0.0636982
-0.0617332
-0.0598038
-0.0579097
-0.0560507
-0.0542265
-0.0524368
-0.0506815
-0.0489603
-0.0472731
-0.0456198
-0.0440003
-0.0424143
-0.040862
-0.039343
-0.0378575
-0.0364052
-0.0349862
-0.0336003
-0.0322475
-0.0309276
-0.0296405
-0.0283862
-0.0271644
-0.025975
-0.0248178
-0.0236926
-0.0225992
-0.0215372
-0.0205065
-0.0195066
-0.0185373
-0.0175983
-0.0166892
-0.0158096
-0.0149592
-0.0141375
-0.0133441
-0.0125787
-0.0118408
-0.0111301
-0.010446
-0.0097882
-0.00915625
-0.00854974
-0.00796824
-0.00741133
-0.0068786
-0.00636962
-0.00588398
-0.00542126
-0.00498105
-0.00456292
-0.00416646
-0.00379125
-0.00343687
-0.0031029
-0.00278892
-0.00249452
-0.00221927
-0.00196275
-0.00172456
-0.00150428
-0.0013015
-0.00111583
-0.000946861
-0.000793749
-0.000656254
-0.000555035
-0.000476252
-0.160857