/*--------------------------------*- C++ -*----------------------------------*\
  =========                 |
  \\      /  F ield         | OpenFOAM: The Open Source CFD Toolbox
   \\    /   O peration     | Website:  https://openfoam.org
    \\  /    A nd           | Version:  7
     \\/     M anipulation  |
\*---------------------------------------------------------------------------*/
FoamFile
{
    version     2.0;
    format      ascii;
    class       volScalarField;
    location    "60";
    object      p;
}
// * * * * * * * * * * * * * * * * * * * * * * * * * * * * * * * * * * * * * //

dimensions      [0 2 -2 0 0 0 0];

internalField   nonuniform List<scalar> 
3700
(
-0.243901
-0.246861
-0.247828
-0.248873
-0.249834
-0.250776
-0.251682
-0.252508
-0.253205
-0.253722
-0.254014
-0.254042
-0.253785
-0.25324
-0.252464
-0.244165
-0.247079
-0.248031
-0.249062
-0.250013
-0.250948
-0.25185
-0.252673
-0.253369
-0.253887
-0.254178
-0.2542
-0.253926
-0.253358
-0.252474
-0.244682
-0.247504
-0.248426
-0.24943
-0.25036
-0.251279
-0.25217
-0.252987
-0.25368
-0.254196
-0.254484
-0.254496
-0.254185
-0.253589
-0.25246
-0.245438
-0.248127
-0.249003
-0.249963
-0.25086
-0.251755
-0.252627
-0.253431
-0.254117
-0.254629
-0.254912
-0.254913
-0.254535
-0.253945
-0.252374
-0.246415
-0.248932
-0.249746
-0.250646
-0.251495
-0.252352
-0.253197
-0.253981
-0.254654
-0.255158
-0.255432
-0.255428
-0.254932
-0.254451
-0.252141
-0.247588
-0.249901
-0.250636
-0.251457
-0.252242
-0.253047
-0.25385
-0.254604
-0.255257
-0.255746
-0.256002
-0.256016
-0.255301
-0.255149
-0.251653
-0.248931
-0.251013
-0.251651
-0.252372
-0.253073
-0.253807
-0.254553
-0.255262
-0.255883
-0.256349
-0.256568
-0.256657
-0.255528
-0.256087
-0.250815
-0.250416
-0.252247
-0.252768
-0.253367
-0.25396
-0.254602
-0.255271
-0.255917
-0.25649
-0.256923
-0.257059
-0.257337
-0.255515
-0.257183
-0.249976
-0.252019
-0.253583
-0.253966
-0.254416
-0.254874
-0.255398
-0.255966
-0.256529
-0.257033
-0.257423
-0.257396
-0.25798
-0.255515
-0.257871
-0.249182
-0.253714
-0.255004
-0.255225
-0.255498
-0.255791
-0.256167
-0.256608
-0.257061
-0.257468
-0.257808
-0.257664
-0.258352
-0.255283
-0.25859
-0.248076
-0.255485
-0.256494
-0.25653
-0.256594
-0.256688
-0.256884
-0.257167
-0.257484
-0.257772
-0.258024
-0.257706
-0.258604
-0.254654
-0.259241
-0.246728
-0.257317
-0.258046
-0.257868
-0.25769
-0.25755
-0.257532
-0.257625
-0.257777
-0.257915
-0.258064
-0.257498
-0.25867
-0.253688
-0.259563
-0.245379
-0.259209
-0.259655
-0.259236
-0.25878
-0.258369
-0.258101
-0.257972
-0.257931
-0.25789
-0.257917
-0.257064
-0.258431
-0.252546
-0.259195
-0.244323
-0.261165
-0.261325
-0.260634
-0.259864
-0.259144
-0.258592
-0.258212
-0.257952
-0.257704
-0.257572
-0.256444
-0.257759
-0.251413
-0.257776
-0.243605
-0.263199
-0.263069
-0.262069
-0.26095
-0.259887
-0.259018
-0.258358
-0.257853
-0.257376
-0.257028
-0.255669
-0.256555
-0.250356
-0.255189
-0.242813
-0.265339
-0.264901
-0.263561
-0.262058
-0.260617
-0.259403
-0.258437
-0.257662
-0.25693
-0.256289
-0.254728
-0.254801
-0.249198
-0.25167
-0.241321
-0.267616
-0.266837
-0.265141
-0.263211
-0.261363
-0.25978
-0.258485
-0.257409
-0.256386
-0.255361
-0.253553
-0.252546
-0.247584
-0.247572
-0.23875
-0.270077
-0.268921
-0.266832
-0.264444
-0.262164
-0.260188
-0.25854
-0.257126
-0.255749
-0.25424
-0.252046
-0.249831
-0.2452
-0.242987
-0.235094
-0.272779
-0.271185
-0.268669
-0.265795
-0.263062
-0.260673
-0.258642
-0.256834
-0.255014
-0.252895
-0.250117
-0.246664
-0.241912
-0.237689
-0.23049
-0.275779
-0.273668
-0.270697
-0.267311
-0.264103
-0.261279
-0.258821
-0.256543
-0.254157
-0.251283
-0.247707
-0.243057
-0.237765
-0.231563
-0.22505
-0.279117
-0.27643
-0.27296
-0.269037
-0.265335
-0.262041
-0.259095
-0.256242
-0.253141
-0.249358
-0.244802
-0.239033
-0.232912
-0.225239
-0.21873
-0.282861
-0.279511
-0.275505
-0.27102
-0.266797
-0.262988
-0.259465
-0.255906
-0.251921
-0.247086
-0.241426
-0.234604
-0.227509
-0.219189
-0.211793
-0.287073
-0.282954
-0.278378
-0.273305
-0.268525
-0.264131
-0.259921
-0.255497
-0.250452
-0.244446
-0.237628
-0.229804
-0.221889
-0.212992
-0.20504
-0.291808
-0.286804
-0.281628
-0.275933
-0.270543
-0.265472
-0.260433
-0.254965
-0.248695
-0.241437
-0.233457
-0.22473
-0.216084
-0.206771
-0.198591
-0.297115
-0.291106
-0.285299
-0.278937
-0.272861
-0.267
-0.26096
-0.254252
-0.246617
-0.238069
-0.228975
-0.219429
-0.210171
-0.20053
-0.192167
-0.303034
-0.295901
-0.289432
-0.282343
-0.275485
-0.268687
-0.261438
-0.253298
-0.244199
-0.234364
-0.224224
-0.21395
-0.20416
-0.194236
-0.185764
-0.309601
-0.301228
-0.294061
-0.286164
-0.278406
-0.270482
-0.261788
-0.252046
-0.241433
-0.230346
-0.219238
-0.208312
-0.198046
-0.187885
-0.179273
-0.316837
-0.307119
-0.299211
-0.290403
-0.2816
-0.272307
-0.261924
-0.250452
-0.238316
-0.226033
-0.214034
-0.202518
-0.191816
-0.181437
-0.172681
-0.324753
-0.313597
-0.304889
-0.295056
-0.28501
-0.274055
-0.261761
-0.248479
-0.234845
-0.221432
-0.208614
-0.196556
-0.185448
-0.174873
-0.165949
-0.333346
-0.320672
-0.311087
-0.300096
-0.288539
-0.275607
-0.261223
-0.246097
-0.231015
-0.216541
-0.202968
-0.190405
-0.178917
-0.168161
-0.159058
-0.342592
-0.32833
-0.317777
-0.305462
-0.292051
-0.276841
-0.260241
-0.24328
-0.226815
-0.211348
-0.197075
-0.184041
-0.172195
-0.161276
-0.151985
-0.35244
-0.336532
-0.324911
-0.311047
-0.295386
-0.277639
-0.258755
-0.239999
-0.222225
-0.20583
-0.190909
-0.177433
-0.165258
-0.154193
-0.144711
-0.362814
-0.345205
-0.332411
-0.316685
-0.298374
-0.27789
-0.256706
-0.236222
-0.217216
-0.199959
-0.184439
-0.170551
-0.158078
-0.146887
-0.137216
-0.373601
-0.354242
-0.34016
-0.322171
-0.30084
-0.277492
-0.254038
-0.231909
-0.211755
-0.193701
-0.17763
-0.163364
-0.150629
-0.139334
-0.129484
-0.384646
-0.363507
-0.347982
-0.327269
-0.302616
-0.276348
-0.250694
-0.22702
-0.205803
-0.187018
-0.170449
-0.155843
-0.142888
-0.131511
-0.121499
-0.395751
-0.372833
-0.355644
-0.331735
-0.303542
-0.274365
-0.246616
-0.221507
-0.199318
-0.179873
-0.162859
-0.147959
-0.134829
-0.123396
-0.113246
-0.406677
-0.382018
-0.362858
-0.335328
-0.303467
-0.271456
-0.241743
-0.215321
-0.192256
-0.172226
-0.15483
-0.139687
-0.126432
-0.114968
-0.104712
-0.417143
-0.390829
-0.369303
-0.337813
-0.302253
-0.267537
-0.236015
-0.208412
-0.184573
-0.164039
-0.14633
-0.131005
-0.117679
-0.106214
-0.0958993
-0.426842
-0.398994
-0.374644
-0.338966
-0.299773
-0.262527
-0.229371
-0.200728
-0.176226
-0.155279
-0.137331
-0.12189
-0.108554
-0.0971313
-0.0868256
-0.435447
-0.406205
-0.378559
-0.338584
-0.295909
-0.25635
-0.221754
-0.192222
-0.167175
-0.145912
-0.127807
-0.112323
-0.0990409
-0.0877211
-0.0775213
-0.442621
-0.412128
-0.380746
-0.336483
-0.290557
-0.248938
-0.213109
-0.182849
-0.157385
-0.135911
-0.117738
-0.102284
-0.0891234
-0.0779798
-0.0679921
-0.448031
-0.416411
-0.380943
-0.332506
-0.283626
-0.240228
-0.203387
-0.17257
-0.146826
-0.125253
-0.107104
-0.0917579
-0.0787851
-0.0678858
-0.0581839
-0.451356
-0.418699
-0.378922
-0.326525
-0.27504
-0.230167
-0.192548
-0.161354
-0.135474
-0.113921
-0.0958928
-0.0807359
-0.0680193
-0.0574074
-0.0479705
-0.452293
-0.418657
-0.374498
-0.31844
-0.264737
-0.21871
-0.180557
-0.149176
-0.123311
-0.101902
-0.0840957
-0.0692156
-0.0568361
-0.0465393
-0.0371904
-0.450568
-0.415988
-0.367512
-0.308177
-0.252672
-0.205829
-0.167393
-0.136016
-0.110324
-0.0891875
-0.0717107
-0.0571992
-0.0452517
-0.0353141
-0.0258717
-0.445939
-0.410447
-0.357834
-0.295686
-0.238819
-0.191503
-0.153037
-0.121862
-0.0965057
-0.0757787
-0.0587511
-0.0447036
-0.0332762
-0.0236892
-0.0145344
-0.438201
-0.401836
-0.345377
-0.280943
-0.223169
-0.175721
-0.137475
-0.106711
-0.0818676
-0.0616939
-0.0452435
-0.0317749
-0.0209104
-0.0116599
-0.00309405
-0.427191
-0.390011
-0.330094
-0.263945
-0.205722
-0.158473
-0.120711
-0.0905964
-0.066445
-0.0469775
-0.0311892
-0.0184037
-0.00815108
0.000677727
0.00853709
-0.412788
-0.374884
-0.311973
-0.244706
-0.186478
-0.139759
-0.1028
-0.0735837
-0.0502649
-0.0316129
-0.0166155
-0.00460536
0.00497263
0.0132816
0.0203806
-0.394918
-0.356421
-0.291043
-0.223259
-0.165443
-0.119651
-0.0838746
-0.0556378
-0.0333318
-0.0156386
-0.00155292
0.00959228
0.0184242
0.0261289
0.0324211
-0.373552
-0.334639
-0.267375
-0.199671
-0.142688
-0.0983722
-0.0637963
-0.03681
-0.0156874
0.000904642
0.0139624
0.0241533
0.0321658
0.0391941
0.0446277
-0.348709
-0.309605
-0.241081
-0.174053
-0.118467
-0.075721
-0.0426868
-0.0171574
0.0026162
0.0179706
0.0298885
0.0390369
0.0461583
0.0524408
0.0569558
-0.320456
-0.281449
-0.212283
-0.146496
-0.0927482
-0.0518595
-0.0206232
0.00325253
0.0215204
0.0355073
0.0461779
0.0541988
0.0603602
0.0658251
0.069354
-0.28892
-0.250407
-0.181008
-0.117108
-0.0656221
-0.0268984
0.00230756
0.0243457
0.0409596
0.0534563
0.0627775
0.0695914
0.0747295
0.0793036
0.0817838
-0.254282
-0.216782
-0.147181
-0.086077
-0.0372292
-0.000954162
0.0260102
0.0460398
0.0608615
0.0717529
0.0796283
0.0851639
0.0892262
0.0928411
0.0942221
-0.216739
-0.180627
-0.111307
-0.0534699
-0.00771207
0.025849
0.0503796
0.0682452
0.0811479
0.0903268
0.0966669
0.100864
0.103809
0.106388
0.106575
-0.176493
-0.141444
-0.0743397
-0.0196026
0.0227761
0.0533799
0.0753023
0.0908651
0.101735
0.109104
0.113832
0.116644
0.118421
0.119802
0.118543
-0.133812
-0.100053
-0.0360703
0.0152817
0.0540621
0.0814997
0.100658
0.113796
0.122533
0.12801
0.131069
0.132468
0.13298
0.132813
0.129711
-0.0889091
-0.0569898
0.00339951
0.0509772
0.085961
0.11006
0.12632
0.136929
0.143449
0.14697
0.148329
0.1483
0.147398
0.14523
0.140069
-0.0422169
-0.0125788
0.0438379
0.0872796
0.118285
0.138904
0.152155
0.16015
0.164386
0.165906
0.165552
0.164065
0.161595
0.157293
0.150668
0.00587144
0.0328637
0.0849647
0.12397
0.15084
0.167868
0.178024
0.18334
0.185243
0.184735
0.182652
0.179636
0.175461
0.169239
0.164172
0.0549613
0.0789963
0.126483
0.160816
0.183431
0.196785
0.203786
0.206378
0.205919
0.20337
0.199534
0.194899
0.18903
0.181581
0.177282
0.104645
0.125463
0.16809
0.197577
0.215853
0.225483
0.229295
0.229141
0.22631
0.22172
0.216113
0.20984
0.202438
0.194084
0.189528
0.154507
0.171898
0.209479
0.234008
0.247904
0.25379
0.254403
0.251503
0.246309
0.239685
0.232303
0.22441
0.215617
0.206437
0.20117
0.204136
0.217926
0.250343
0.269861
0.279376
0.281531
0.278965
0.273342
0.265809
0.257173
0.248032
0.238565
0.22847
0.218422
0.212224
0.253114
0.263176
0.29038
0.304891
0.310066
0.308535
0.302834
0.294531
0.284701
0.27409
0.263225
0.252241
0.240907
0.229961
0.222741
0.301027
0.307287
0.329291
0.338854
0.33977
0.334631
0.325866
0.314948
0.302881
0.290346
0.277807
0.265366
0.252842
0.240982
0.232706
0.347466
0.349905
0.366787
0.371513
0.368291
0.359652
0.34792
0.334475
0.320247
0.305855
0.291704
0.27787
0.264207
0.251439
0.242096
0.392038
0.390691
0.402587
0.402641
0.395438
0.383439
0.368861
0.352994
0.336698
0.320531
0.304843
0.289685
0.274939
0.261284
0.250883
0.434362
0.42932
0.436425
0.432017
0.421028
0.405836
0.388559
0.370395
0.352141
0.334294
0.317154
0.30075
0.284984
0.270474
0.259036
0.474079
0.465487
0.468048
0.459434
0.444887
0.426699
0.406889
0.386575
0.366487
0.347068
0.32857
0.311005
0.29429
0.278968
0.266529
0.510851
0.498903
0.497222
0.484698
0.466853
0.44589
0.423736
0.401433
0.379651
0.35878
0.33903
0.320397
0.302809
0.286728
0.273337
0.544365
0.529304
0.523728
0.50763
0.486777
0.463283
0.438994
0.414881
0.391557
0.369366
0.348478
0.328877
0.310499
0.293717
0.279436
0.574339
0.556451
0.547369
0.528067
0.504521
0.478764
0.452566
0.426835
0.402134
0.378764
0.356861
0.336398
0.317319
0.299905
0.284808
0.600517
0.580129
0.56797
0.545863
0.519963
0.49223
0.464365
0.437222
0.41132
0.386921
0.364133
0.342922
0.323233
0.305262
0.289438
0.622679
0.600151
0.585377
0.560891
0.532998
0.503591
0.474316
0.445978
0.41906
0.393792
0.370256
0.348414
0.328211
0.309764
0.293312
0.640637
0.616362
0.59946
0.573044
0.543536
0.512772
0.482355
0.453049
0.425309
0.399337
0.375195
0.352843
0.332226
0.313391
0.296422
0.654239
0.628632
0.610116
0.582236
0.551504
0.519713
0.48843
0.458391
0.430028
0.403523
0.378924
0.356187
0.335257
0.316126
0.298759
0.663373
0.636867
0.617264
0.588401
0.556846
0.524366
0.492502
0.461971
0.433191
0.406328
0.381421
0.358426
0.337287
0.317957
0.30032
0.667959
0.641001
0.620852
0.591495
0.559527
0.5267
0.494545
0.463767
0.434777
0.407735
0.382674
0.359549
0.338305
0.318874
0.301101
-0.251983
-0.250732
-0.249506
-0.252155
-0.250835
-0.249607
-0.252489
-0.251031
-0.249807
-0.252966
-0.251292
-0.250086
-0.253574
-0.251584
-0.250415
-0.254344
-0.251858
-0.250759
-0.249135
-0.255255
-0.252011
-0.251088
-0.249453
-0.255742
-0.2524
-0.251284
-0.249724
-0.255954
-0.25277
-0.251371
-0.24989
-0.255907
-0.253046
-0.251323
-0.249911
-0.255399
-0.253157
-0.251114
-0.249737
-0.254271
-0.252926
-0.250696
-0.249324
-0.247836
-0.252526
-0.252108
-0.249969
-0.248616
-0.24723
-0.250297
-0.250532
-0.248791
-0.247529
-0.246253
-0.247647
-0.248187
-0.247027
-0.245956
-0.244824
-0.244437
-0.245121
-0.244609
-0.243802
-0.242875
-0.241762
-0.240498
-0.241464
-0.241541
-0.241018
-0.240363
-0.239533
-0.23604
-0.237401
-0.237907
-0.237663
-0.237335
-0.236823
-0.231399
-0.233115
-0.233821
-0.233856
-0.233895
-0.233745
-0.226829
-0.228621
-0.229043
-0.229153
-0.229464
-0.229648
-0.229476
-0.219569
-0.222875
-0.223081
-0.223182
-0.223693
-0.224228
-0.224449
-0.206601
-0.212264
-0.213125
-0.213172
-0.213774
-0.2147
-0.215419
-0.194352
-0.201271
-0.202937
-0.203307
-0.204159
-0.205451
-0.206614
-0.183018
-0.190449
-0.192933
-0.193856
-0.195059
-0.196668
-0.198186
-0.172344
-0.180075
-0.183278
-0.184815
-0.186413
-0.188312
-0.190122
-0.16245
-0.170316
-0.174096
-0.176207
-0.178204
-0.180381
-0.182446
-0.15336
-0.161225
-0.165452
-0.168067
-0.17044
-0.172882
-0.175179
-0.145018
-0.152806
-0.157372
-0.160413
-0.163126
-0.165816
-0.168324
-0.137388
-0.145047
-0.149859
-0.153253
-0.156263
-0.159177
-0.161875
-0.130423
-0.137916
-0.142903
-0.146582
-0.149846
-0.152956
-0.155822
-0.12407
-0.131377
-0.136482
-0.140388
-0.143863
-0.147142
-0.150155
-0.118282
-0.125393
-0.130571
-0.134655
-0.138304
-0.141725
-0.144865
-0.113015
-0.119926
-0.125142
-0.129364
-0.133154
-0.136693
-0.13994
-0.108229
-0.114941
-0.120169
-0.124495
-0.128397
-0.132033
-0.135369
-0.103886
-0.110403
-0.115624
-0.120028
-0.124018
-0.127731
-0.131141
-0.0999521
-0.106283
-0.111482
-0.115942
-0.12
-0.123775
-0.127244
-0.096398
-0.102552
-0.107719
-0.112217
-0.116327
-0.120149
-0.123667
-0.0931961
-0.0991832
-0.104312
-0.108835
-0.112984
-0.116842
-0.120398
-0.0903223
-0.0961546
-0.101241
-0.105779
-0.109955
-0.11384
-0.117425
-0.087755
-0.0934449
-0.0984872
-0.103032
-0.107227
-0.111132
-0.114739
-0.0854752
-0.0910356
-0.0960338
-0.100579
-0.104787
-0.108705
-0.11233
-0.0834664
-0.0889102
-0.093866
-0.0984081
-0.102624
-0.106551
-0.110188
-0.0817141
-0.0870543
-0.0919703
-0.0965068
-0.100727
-0.104659
-0.108305
-0.0802056
-0.0854554
-0.0903353
-0.0948648
-0.0990863
-0.103022
-0.106673
-0.0789303
-0.084103
-0.088951
-0.0934732
-0.0976947
-0.101632
-0.105287
-0.0778793
-0.082988
-0.0878091
-0.0923246
-0.0965452
-0.100483
-0.10414
-0.0770448
-0.0821031
-0.0869027
-0.0914125
-0.095632
-0.0995691
-0.103228
-0.0764217
-0.0814429
-0.086227
-0.0907326
-0.094951
-0.0988876
-0.102547
-0.0760064
-0.0810038
-0.0857785
-0.0902816
-0.0944992
-0.0984353
-0.102095
-0.0757844
-0.0807779
-0.0855507
-0.090054
-0.0942722
-0.0982086
-0.101869
-0.211129
-0.197379
-0.184394
-0.173553
-0.163272
-0.153731
-0.145104
-0.137211
-0.129993
-0.123425
-0.117443
-0.111993
-0.107039
-0.102539
-0.0984576
-0.0947621
-0.0914238
-0.0884166
-0.0857175
-0.083306
-0.0811642
-0.0792764
-0.0776289
-0.0762098
-0.075009
-0.0740181
-0.0732295
-0.0726386
-0.0722422
-0.0720148
-0.203671
-0.190615
-0.177688
-0.167325
-0.157514
-0.14825
-0.139933
-0.132355
-0.125406
-0.119087
-0.11334
-0.108106
-0.103345
-0.0990232
-0.0951019
-0.0915501
-0.0883404
-0.0854477
-0.0828498
-0.0805272
-0.0784628
-0.0766414
-0.0750501
-0.0736774
-0.0725136
-0.0715506
-0.0707811
-0.0702009
-0.0698051
-0.0695687
-0.197472
-0.18497
-0.17186
-0.161557
-0.152133
-0.143102
-0.134995
-0.127684
-0.120977
-0.114871
-0.10933
-0.104287
-0.0997005
-0.0955366
-0.09176
-0.0883392
-0.0852471
-0.0824599
-0.079956
-0.0777163
-0.0757245
-0.0739658
-0.0724277
-0.0710992
-0.0699711
-0.0690352
-0.0682846
-0.0677153
-0.0673212
-0.0670801
-0.191099
-0.17896
-0.166004
-0.155802
-0.146759
-0.138032
-0.130123
-0.123051
-0.116582
-0.110679
-0.105329
-0.100468
-0.0960473
-0.0920346
-0.0883962
-0.0851009
-0.0821221
-0.0794365
-0.0770232
-0.0748638
-0.0729423
-0.0712447
-0.0697587
-0.0684737
-0.0673808
-0.0664721
-0.065741
-0.0651835
-0.0647929
-0.0645502
-0.184793
-0.173051
-0.160322
-0.150145
-0.141352
-0.132933
-0.125229
-0.118371
-0.112136
-0.106441
-0.101279
-0.0965962
-0.0923407
-0.0884777
-0.0849763
-0.0818056
-0.0789395
-0.0763552
-0.0740325
-0.0719536
-0.070103
-0.068467
-0.0670338
-0.0657933
-0.0647367
-0.0638566
-0.0631464
-0.0626024
-0.0622175
-0.0619757
-0.178298
-0.166831
-0.154437
-0.144395
-0.135836
-0.127749
-0.120293
-0.113645
-0.107638
-0.102156
-0.0971811
-0.0926745
-0.0885832
-0.0848698
-0.0815043
-0.0784576
-0.0757037
-0.0732204
-0.0709882
-0.0689898
-0.0672102
-0.0656362
-0.0642565
-0.0630612
-0.0620418
-0.0611913
-0.0605033
-0.0599744
-0.0595971
-0.0593584
-0.17167
-0.160511
-0.148519
-0.13865
-0.130275
-0.122488
-0.115296
-0.108861
-0.103074
-0.0978066
-0.0930233
-0.0886923
-0.084765
-0.0812018
-0.0779728
-0.0750504
-0.0724091
-0.0700274
-0.0678863
-0.0659692
-0.0642615
-0.0627505
-0.0614252
-0.0602762
-0.0592954
-0.0584759
-0.0578117
-0.0572995
-0.0569318
-0.0566982
-0.16489
-0.153988
-0.142422
-0.132795
-0.124624
-0.117131
-0.110225
-0.104019
-0.0984489
-0.0933964
-0.0888083
-0.0846537
-0.0808901
-0.0774775
-0.0743854
-0.0715875
-0.0690592
-0.0667795
-0.06473
-0.0628947
-0.0612595
-0.0598123
-0.0585424
-0.0574407
-0.0564996
-0.0557123
-0.0550733
-0.0545795
-0.054223
-0.0539965
-0.157953
-0.147325
-0.136219
-0.126879
-0.118921
-0.1117
-0.105079
-0.0991133
-0.0937612
-0.0889215
-0.0845311
-0.0805553
-0.0769558
-0.0736944
-0.0707403
-0.0680675
-0.065653
-0.063476
-0.0615189
-0.0597663
-0.0582045
-0.056822
-0.0556086
-0.0545554
-0.0536552
-0.0529016
-0.0522892
-0.0518153
-0.0514718
-0.0512541
-0.150861
-0.140507
-0.129865
-0.120848
-0.113131
-0.106184
-0.0998516
-0.0941397
-0.0890116
-0.0843846
-0.0801935
-0.0763987
-0.0729645
-0.0698549
-0.0670394
-0.0644928
-0.0621926
-0.0601191
-0.0582552
-0.056586
-0.0550987
-0.0537818
-0.0526258
-0.0516223
-0.0507642
-0.0500454
-0.0494611
-0.0490084
-0.0486795
-0.0484724
-0.143602
-0.133548
-0.123385
-0.11472
-0.107268
-0.100597
-0.0945487
-0.0890963
-0.0841982
-0.0797852
-0.0757944
-0.0721828
-0.0689156
-0.0659589
-0.0632832
-0.0608637
-0.0586788
-0.0567097
-0.05494
-0.0533552
-0.0519432
-0.050693
-0.0495955
-0.0486428
-0.0478279
-0.0471454
-0.0465904
-0.0461605
-0.0458476
-0.0456526
-0.136173
-0.126446
-0.116767
-0.108473
-0.101314
-0.0949283
-0.0891674
-0.0839807
-0.0793199
-0.0751241
-0.0713353
-0.067909
-0.0648106
-0.0620082
-0.0594734
-0.0571821
-0.0551137
-0.05325
-0.0515753
-0.050076
-0.0487403
-0.0475578
-0.0465199
-0.0456189
-0.0448486
-0.0442034
-0.043679
-0.0432731
-0.0429776
-0.0427963
-0.128563
-0.119201
-0.110017
-0.102116
-0.095271
-0.089183
-0.0837113
-0.0787939
-0.0743759
-0.0704013
-0.0668165
-0.0635777
-0.0606503
-0.0580038
-0.0556113
-0.0534495
-0.0514987
-0.0497415
-0.0481631
-0.0467502
-0.0454918
-0.0443782
-0.0434009
-0.0425529
-0.041828
-0.0412214
-0.0407288
-0.040348
-0.0400713
-0.0399049
-0.120769
-0.111813
-0.103134
-0.0956398
-0.0891306
-0.0833546
-0.0781784
-0.073535
-0.0693657
-0.0656169
-0.0622392
-0.0591902
-0.0564361
-0.0539475
-0.0516989
-0.0496681
-0.0478362
-0.0461868
-0.0447056
-0.0433803
-0.0422004
-0.0411565
-0.0402409
-0.0394468
-0.0387686
-0.0382016
-0.0377419
-0.0373874
-0.0371305
-0.0369803
-0.112784
-0.104279
-0.096117
-0.089047
-0.0828928
-0.0774432
-0.07257
-0.0682055
-0.0642898
-0.0607717
-0.0576046
-0.0547481
-0.0521696
-0.0498411
-0.0477382
-0.04584
-0.0441285
-0.0425881
-0.0412054
-0.0399689
-0.0388684
-0.0378954
-0.0370425
-0.0363034
-0.0356728
-0.0351463
-0.0347206
-0.0343933
-0.0341574
-0.0340245
-0.104599
-0.0965944
-0.0889662
-0.0823365
-0.0765541
-0.0714456
-0.0668848
-0.0628058
-0.0591492
-0.0558668
-0.0529143
-0.0502534
-0.0478533
-0.0456871
-0.0437319
-0.0419679
-0.0403783
-0.0389483
-0.0376654
-0.0365187
-0.0354988
-0.0345977
-0.0338084
-0.0331252
-0.0325431
-0.0320582
-0.0316672
-0.031368
-0.0311542
-0.0310394
-0.0962078
-0.0887505
-0.0816791
-0.0755102
-0.0701156
-0.0653618
-0.0611233
-0.0573371
-0.0539456
-0.050904
-0.0481704
-0.0457085
-0.0434894
-0.041488
-0.0396825
-0.0380547
-0.0365885
-0.0352703
-0.0340885
-0.0330328
-0.0320945
-0.0312663
-0.0305416
-0.0299152
-0.0293825
-0.0289399
-0.0285844
-0.028314
-0.0281232
-0.0280272
-0.0876144
-0.0807386
-0.0742499
-0.068567
-0.0635769
-0.0591905
-0.0552844
-0.0517989
-0.0486791
-0.0458839
-0.0433739
-0.0411146
-0.0390797
-0.0372458
-0.0355925
-0.0341027
-0.0327617
-0.0315569
-0.0304775
-0.029514
-0.0286585
-0.0279041
-0.0272449
-0.0266761
-0.0261936
-0.025794
-0.0254745
-0.0252336
-0.0250666
-0.0249893
-0.0788418
-0.0725548
-0.0666696
-0.0615007
-0.0569347
-0.052929
-0.0493655
-0.0461891
-0.0433474
-0.0408044
-0.0385232
-0.0364712
-0.0346245
-0.0329614
-0.031463
-0.0301137
-0.0289
-0.0278103
-0.0268348
-0.0259648
-0.0251932
-0.0245136
-0.0239209
-0.0234105
-0.0229789
-0.0226229
-0.02234
-0.0221292
-0.0219863
-0.0219264
-0.0699211
-0.0642073
-0.0589279
-0.0542973
-0.0501785
-0.0465704
-0.0433623
-0.0405034
-0.0379455
-0.0356611
-0.0336156
-0.0317772
-0.0301237
-0.0286354
-0.0272955
-0.0260895
-0.0250054
-0.0240328
-0.0231629
-0.0223879
-0.0217014
-0.0210979
-0.0205725
-0.0201214
-0.0197412
-0.0194294
-0.0191838
-0.0190036
-0.0188849
-0.0188401
-0.0608398
-0.0557196
-0.0510138
-0.0469442
-0.0432959
-0.040109
-0.0372722
-0.0347411
-0.0324726
-0.0304547
-0.0286536
-0.0270357
-0.025581
-0.024272
-0.023094
-0.0220343
-0.0210823
-0.0202289
-0.0194663
-0.0187878
-0.0181877
-0.0176612
-0.0172041
-0.0168129
-0.016485
-0.0162179
-0.0160099
-0.0158608
-0.0157652
-0.0157363
-0.0515308
-0.0470787
-0.0429205
-0.0394487
-0.0362865
-0.0335478
-0.0310985
-0.0289101
-0.0269446
-0.0252029
-0.0236533
-0.0222611
-0.0210089
-0.0198824
-0.0188688
-0.0179575
-0.0171395
-0.0164068
-0.0157529
-0.015172
-0.0146593
-0.0142105
-0.0138223
-0.0134917
-0.0132164
-0.0129944
-0.0128241
-0.0127068
-0.0126323
-0.0126254
-0.0418931
-0.0382833
-0.0346573
-0.0318397
-0.0291667
-0.0269005
-0.0248477
-0.0230246
-0.0213966
-0.0199356
-0.0186388
-0.0174725
-0.0164237
-0.0154804
-0.0146322
-0.0138703
-0.0131869
-0.0125757
-0.0120311
-0.0115482
-0.0111232
-0.0107526
-0.0104334
-0.0101635
-0.00994083
-0.00976382
-0.00963134
-0.00954596
-0.00949087
-0.00951243
-0.0318751
-0.0293922
-0.0262677
-0.024162
-0.0219725
-0.0201936
-0.0185386
-0.0171017
-0.0158493
-0.0146657
-0.0136186
-0.0126773
-0.0118316
-0.0110718
-0.0103893
-0.00977703
-0.00922872
-0.0087392
-0.008304
-0.00791936
-0.00758207
-0.00728946
-0.00703928
-0.00682975
-0.00665945
-0.00652703
-0.00643223
-0.00637644
-0.00634441
-0.00638831
-0.0216083
-0.0204111
-0.017831
-0.0164214
-0.0147529
-0.0134532
-0.0122189
-0.0111538
-0.0102202
-0.00934065
-0.00855417
-0.00784721
-0.0072117
-0.00664078
-0.00612832
-0.00566905
-0.00525849
-0.00489281
-0.00456877
-0.00428363
-0.0040351
-0.00382126
-0.00364055
-0.00349173
-0.00337386
-0.00328602
-0.00322861
-0.00320145
-0.00319417
-0.00325526
-0.0111684
-0.0110974
-0.00928208
-0.00852944
-0.00744155
-0.00662902
-0.00583461
-0.00514845
-0.00453841
-0.00396858
-0.00345285
-0.00298776
-0.00256872
-0.00219186
-0.00185356
-0.0015507
-0.00128057
-0.00104088
-0.000829677
-0.000645351
-0.000486552
-0.000352185
-0.000241384
-0.000153514
-8.80793e-05
-4.47136e-05
-2.41505e-05
-2.53404e-05
-4.23303e-05
-0.000117827
-0.000616437
-0.00155677
-0.000588036
-0.000505953
-2.36519e-05
0.000283284
0.000623953
0.000918021
0.00118722
0.00144193
0.00167809
0.00189408
0.00209068
0.00226866
0.00242891
0.00257228
0.00269952
0.0028113
0.00290816
0.00299055
0.00305879
0.00311313
0.00315371
0.00318054
0.00319363
0.00319282
0.00317717
0.00314796
0.00310798
0.00301981
0.0100591
0.00814128
0.00825726
0.00764131
0.00750313
0.00728201
0.00715213
0.00703689
0.00694688
0.00687858
0.00682744
0.00678821
0.00675752
0.00673277
0.00671191
0.00669333
0.00667575
0.00665809
0.00663944
0.00661901
0.00659609
0.00657004
0.00654024
0.0065061
0.00646709
0.00642257
0.00637139
0.00631479
0.00625322
0.00615398
0.0208752
0.017974
0.0172471
0.0159052
0.0151246
0.0143494
0.013729
0.0131879
0.0127249
0.0123267
0.0119833
0.011685
0.0114239
0.0111938
0.0109896
0.0108072
0.0106432
0.0104949
0.0103597
0.0102357
0.0101211
0.0100143
0.0099141
0.00981912
0.00972834
0.00964065
0.00955471
0.00947156
0.0093898
0.00928124
0.0318415
0.0279348
0.0263573
0.0242583
0.0228051
0.0214536
0.0203294
0.0193541
0.0185127
0.0177817
0.0171438
0.0165838
0.0160897
0.0156515
0.0152614
0.0149129
0.0146004
0.0143196
0.0140664
0.0138378
0.0136307
0.0134428
0.0132718
0.013116
0.0129738
0.0128434
0.0127235
0.0126148
0.0125142
0.0123983
0.0429453
0.0379945
0.0355353
0.0326577
0.0305176
0.0285893
0.026964
0.025556
0.0243345
0.0232669
0.022329
0.0215011
0.0207675
0.0201153
0.0195338
0.0190143
0.0185494
0.0181328
0.0177592
0.0174238
0.0171228
0.0168527
0.0166105
0.0163937
0.0162001
0.0160276
0.0158744
0.015741
0.015623
0.0155018
0.0541421
0.048111
0.0447505
0.0411187
0.0383154
0.0358295
0.0337081
0.0318603
0.0302445
0.0288233
0.0275686
0.0264574
0.0254709
0.0245932
0.0238111
0.0231132
0.02249
0.021933
0.0214353
0.0209907
0.020594
0.0202405
0.0199264
0.0196484
0.0194035
0.0191893
0.0190037
0.0188467
0.0187127
0.0185884
0.0653938
0.0583069
0.054087
0.0497678
0.0463235
0.043271
0.0406235
0.0382982
0.0362516
0.0344455
0.0328487
0.0314345
0.0301801
0.0290658
0.0280748
0.0271926
0.0264068
0.0257067
0.0250832
0.0245283
0.0240353
0.0235985
0.0232128
0.0228741
0.0225789
0.022324
0.0221073
0.021928
0.0217797
0.0216547
0.0767377
0.068715
0.0636696
0.0586612
0.0545109
0.0508155
0.0475756
0.0447238
0.0422149
0.0400056
0.0380575
0.036337
0.0348151
0.0334667
0.0322704
0.031208
0.0302638
0.0294246
0.028679
0.0280172
0.0274312
0.0269139
0.0264593
0.0260624
0.0257191
0.0254258
0.0251799
0.0249802
0.0248199
0.0246966
0.0882196
0.0793255
0.0732824
0.0674259
0.0624417
0.0580366
0.0541877
0.0508231
0.0478808
0.0453025
0.0430373
0.0410422
0.0392807
0.0377223
0.0363412
0.0351155
0.0340271
0.0330603
0.0322021
0.0314414
0.0307688
0.0301764
0.0296573
0.0292062
0.0288181
0.0284892
0.028217
0.0279993
0.0278295
0.0277106
0.0995914
0.0896282
0.082276
0.0754593
0.0696663
0.0646415
0.0602932
0.0565173
0.0532268
0.0503476
0.0478187
0.0455899
0.0436201
0.0418751
0.0403264
0.0389504
0.037727
0.0366394
0.0356736
0.0348174
0.0340609
0.0333954
0.0328136
0.0323095
0.0318781
0.0315151
0.0312177
0.0309835
0.0308066
0.0306944
0.110371
0.0993034
0.0907864
0.0832589
0.0768978
0.0714157
0.0666601
0.0625106
0.0588754
0.0556792
0.05286
0.0503663
0.0481554
0.0461917
0.0444454
0.0428913
0.0415082
0.040278
0.0391856
0.0382179
0.0373638
0.0366139
0.0359602
0.0353958
0.0349153
0.0345141
0.0341887
0.0339363
0.0337527
0.0336479
0.121012
0.109921
0.100969
0.0930258
0.0861319
0.080073
0.0747214
0.069987
0.0657991
0.062093
0.0588104
0.0558992
0.0533147
0.0510182
0.0489767
0.0471619
0.0455494
0.0441183
0.0428506
0.0417309
0.0407459
0.0398844
0.0391366
0.0384944
0.037951
0.0375009
0.0371399
0.0368642
0.0366712
0.0365713
0.132848
0.123175
0.114057
0.105469
0.0976799
0.0906729
0.0843957
0.0787956
0.0738185
0.0694039
0.0654912
0.0620233
0.0589491
0.0562235
0.0538071
0.0516657
0.0497696
0.048093
0.0466135
0.045312
0.044172
0.0431793
0.0423218
0.0415895
0.0409737
0.0404678
0.0400661
0.0397641
0.0395595
0.0394595
0.143108
0.13398
0.124295
0.114925
0.106324
0.0985771
0.0916491
0.0854763
0.079991
0.0751246
0.0708106
0.0669872
0.0635987
0.0605958
0.0579353
0.0555794
0.0534954
0.0516546
0.0500325
0.0486078
0.047362
0.0462796
0.0453472
0.0445535
0.0438891
0.0433465
0.0429194
0.0426028
0.0423938
0.0422944
0.157825
0.145936
0.135057
0.124969
0.115879
0.107817
0.100689
0.094363
0.0887329
0.0837169
0.079247
0.0752636
0.0717137
0.0685506
0.0657332
0.0632258
0.060997
0.0590195
0.0572698
0.0557271
0.0543739
0.0531947
0.0521767
0.0513088
0.0505816
0.0499876
0.0495205
0.0491754
0.0489486
0.0488367
0.171588
0.157988
0.14683
0.137039
0.128248
0.120334
0.113225
0.106842
0.101105
0.0959455
0.0913051
0.0871328
0.0833832
0.0800154
0.0769932
0.0742844
0.0718608
0.0696972
0.0677719
0.0660656
0.0645617
0.0632457
0.0621051
0.0611292
0.0603091
0.0596372
0.0591073
0.0587148
0.0584561
0.058329
0.175197
0.16464
0.154883
0.145926
0.137718
0.13021
0.123367
0.117146
0.111496
0.106366
0.101711
0.0974882
0.093661
0.0901961
0.0870637
0.0842368
0.0816914
0.0794061
0.0773617
0.0755412
0.0739297
0.0725141
0.0712828
0.070226
0.0693353
0.0686036
0.0680252
0.0675955
0.0673109
0.0671687
0.176228
0.167213
0.158709
0.150781
0.143446
0.136667
0.130405
0.124628
0.119311
0.114425
0.109942
0.105837
0.102084
0.0986593
0.0955412
0.0927089
0.0901434
0.0878275
0.0857455
0.0838833
0.0822281
0.0807688
0.0794955
0.0783996
0.0774737
0.0767115
0.076108
0.0756591
0.0753617
0.0752142
0.174147
0.167078
0.160163
0.153513
0.147188
0.141212
0.135596
0.130342
0.125445
0.120896
0.116682
0.112788
0.109198
0.105898
0.102871
0.100104
0.0975822
0.0952933
0.0932253
0.0913671
0.0897088
0.0882414
0.0869569
0.0858482
0.084909
0.0841343
0.0835197
0.0830616
0.0827576
0.0826054
0.171878
0.165982
0.160149
0.154472
0.149018
0.143815
0.138874
0.134203
0.129803
0.125673
0.121811
0.118209
0.114862
0.111761
0.108898
0.106263
0.103849
0.101647
0.0996473
0.097843
0.0962266
0.0947913
0.093531
0.0924402
0.0915143
0.0907489
0.0901408
0.0896872
0.0893859
0.0892362
0.168632
0.163911
0.159159
0.154467
0.149882
0.145433
0.141146
0.137041
0.133131
0.129426
0.125928
0.122641
0.119562
0.116691
0.114022
0.111552
0.109275
0.107188
0.105284
0.103558
0.102007
0.100624
0.0994069
0.0983503
0.0974512
0.0967066