/*--------------------------------*- C++ -*----------------------------------*\
  =========                 |
  \\      /  F ield         | OpenFOAM: The Open Source CFD Toolbox
   \\    /   O peration     | Website:  https://openfoam.org
    \\  /    A nd           | Version:  7
     \\/     M anipulation  |
\*---------------------------------------------------------------------------*/
FoamFile
{
    version     2.0;
    format      ascii;
    class       surfaceScalarField;
    location    "45";
    object      phi;
}
// * * * * * * * * * * * * * * * * * * * * * * * * * * * * * * * * * * * * * //

dimensions      [0 3 -1 0 0 0 0];

internalField   nonuniform List<scalar> 
6856
(
-0.000424155
0.000197909
-0.000652909
0.00022874
-0.000905024
0.000252097
-0.00117716
0.000272115
-0.0014643
0.000287106
-0.00175054
0.000286202
-0.00206302
0.000312438
0.000249345
-0.00231242
-6.9611e-05
0.000144562
-0.000210771
0.000292435
-0.000394317
0.000381454
-0.000603607
0.00043803
-0.000829399
0.000477889
-0.00106626
0.000508971
-0.00131145
0.0005323
-0.0015296
0.000504352
-0.00178283
0.000565666
0.000380623
-0.00191411
-5.98635e-05
0.000204426
-0.00018206
0.000414632
-0.000338176
0.000537571
-0.000509828
0.000609682
-0.000684387
0.000652448
-0.000849756
0.00067434
-0.00100982
0.000692361
-0.00109214
0.000586673
-0.00121505
0.000688581
0.000291435
-0.00112587
-4.74205e-05
0.000251846
-0.00014419
0.000511401
-0.000262325
0.000655706
-0.000380529
0.000727886
-0.000481957
0.000753876
-0.00054184
0.000734223
-0.000563627
0.000714148
-0.000453384
0.00047643
-0.000318423
0.00055362
-7.55011e-05
4.85133e-05
-3.44262e-05
0.000286272
-0.000102331
0.000579306
-0.000175149
0.000728523
-0.00022685
0.000779587
-0.000233811
0.000760836
-0.000165596
0.000666008
3.33265e-05
0.000515226
0.000379891
0.000129865
0.000876695
5.68155e-05
-0.000949702
0.0017509
-2.29703e-05
0.000309243
-6.14753e-05
0.000617811
-8.44824e-05
0.00075153
-5.92794e-05
0.000754384
5.39007e-05
0.000647656
0.000286735
0.000433175
0.000733615
6.83454e-05
0.00143919
-0.000575711
0.00240218
-0.000906174
-0.00248256
0.00393504
-1.45167e-05
0.000323759
-2.47007e-05
0.000627995
6.13259e-06
0.000720697
0.000122388
0.000638129
0.000380047
0.000389997
0.000841519
-2.82978e-05
0.00162491
-0.00071505
0.00273965
-0.00169044
0.00427325
-0.00243978
-0.00462502
0.00641571
-9.59864e-06
0.000333358
8.32095e-06
0.000610076
0.000100618
0.0006284
0.000331838
0.000406909
0.000786112
-6.42765e-05
0.00155786
-0.000800047
0.00273897
-0.00189616
0.00432446
-0.00327593
0.00640309
-0.00451841
-0.00699782
0.00877589
-6.48176e-06
0.00033984
4.18914e-05
0.000561703
0.000213652
0.000456639
0.000602203
1.83576e-05
0.00132257
-0.000784648
0.00248348
-0.00196095
0.0040653
-0.00347798
0.00603058
-0.00524121
0.00839049
-0.00687832
-0.00911722
0.0105099
-2.07587e-06
0.000341916
8.69639e-05
0.000472663
0.000369654
0.00017395
0.000978116
-0.000590104
0.00203165
-0.00183818
0.00356652
-0.00349582
0.00543867
-0.00535013
0.00748606
-0.0072886
0.0095946
-0.00898686
-0.0107594
0.0112368
6.10644e-06
0.000335809
0.000155776
0.000322993
0.000596525
-0.000266798
0.00148643
-0.00148001
0.00287771
-0.00322947
0.0046374
-0.00525551
0.00653088
-0.00724361
0.00832276
-0.00908048
0.00985628
-0.0105204
-0.0118986
0.0109954
2.16352e-05
0.000314174
0.000260826
8.38021e-05
0.000913207
-0.000919179
0.00210164
-0.00266844
0.00371011
-0.00483794
0.0054505
-0.0069959
0.00707867
-0.00887178
0.00841589
-0.0104177
0.00953956
-0.0116441
-0.0128684
0.0105094
4.77511e-05
0.000266423
0.000411819
-0.000280266
0.00131143
-0.00181879
0.00272308
-0.00408009
0.00433641
-0.00645127
0.00583838
-0.00849786
0.00708105
-0.0101145
0.00806767
-0.0114043
0.00892165
-0.012498
-0.0136032
0.00965643
8.67343e-05
0.000179689
0.000611563
-0.000805095
0.00173896
-0.00294619
0.00321375
-0.00555488
0.00464338
-0.0078809
0.0058213
-0.00967579
0.0067421
-0.0110352
0.00748411
-0.0121463
0.0081503
-0.0131642
-0.0142487
0.00879586
0.000141349
3.83393e-05
0.000846639
-0.00151038
0.00211116
-0.0042107
0.00348452
-0.00692824
0.00464552
-0.00904191
0.0055306
-0.0105609
0.0062106
-0.0117152
0.00678096
-0.0127167
0.00733065
-0.0137139
-0.0147839
0.00786578
0.000213969
-0.00017563
0.00108343
-0.00237985
0.00235572
-0.005483
0.00353018
-0.0081027
0.00442421
-0.00993594
0.00507297
-0.0112096
0.0055772
-0.0122195
0.00602444
-0.0131639
0.00646464
-0.0141541
-0.0152237
0.00690449
0.000301937
-0.000477567
0.00128106
-0.00335897
0.00244961
-0.00665155
0.00339463
-0.00904772
0.00405547
-0.0105968
0.00452117
-0.0116753
0.00489288
-0.0125912
0.00523538
-0.0135064
0.00557991
-0.0144987
-0.0155704
0.0059266
0.000393408
-0.000870975
0.00140635
-0.0043719
0.00240775
-0.00765296
0.00312924
-0.00976921
0.00359677
-0.0110643
0.00391918
-0.0119977
0.00418257
-0.0128546
0.00443169
-0.0137556
0.00468027
-0.0147472
-0.0158174
0.00492723
0.000473067
-0.00134404
0.00144232
-0.00534116
0.00225721
-0.00846784
0.00277795
-0.0102899
0.00308705
-0.0113734
0.00329282
-0.0122035
0.00346124
-0.013023
0.00361946
-0.0139138
0.00377334
-0.0149011
-0.0159672
0.00392313
0.000528638
-0.00187268
0.00139384
-0.00620635
0.00202612
-0.00910012
0.00237412
-0.0106379
0.00255212
-0.0115514
0.00265755
-0.0123089
0.00273667
-0.0131021
0.00280515
-0.0139823
0.00286537
-0.0149613
-0.0160201
0.00291834
0.00055271
-0.00242539
0.00128377
-0.00693741
0.00174096
-0.00955731
0.00194124
-0.0108382
0.00200805
-0.0116182
0.0020227
-0.0123236
0.00201526
-0.0130947
0.00199335
-0.0139603
0.00195763
-0.0149256
-0.0159783
0.00191582
0.000542694
-0.00296808
0.00112701
-0.00752173
0.00142271
-0.00985301
0.00149526
-0.0109108
0.00146496
-0.0115879
0.00139451
-0.0122531
0.00130199
-0.0130021
0.00118986
-0.0138482
0.00105517
-0.0147909
-0.0158335
0.000910371
0.000501379
-0.00346946
0.000937496
-0.00795785
0.00108717
-0.0100027
0.00104811
-0.0108717
0.000929692
-0.0114695
0.00077703
-0.0121005
0.000600298
-0.0128254
0.000398759
-0.0136467
0.000176196
-0.0145684
-0.0155616
-9.5745e-05
0.000435633
-0.0039051
0.000727623
-0.00824984
0.00074656
-0.0100216
0.000607759
-0.0107329
0.00040624
-0.011268
0.000171917
-0.0118662
-8.86147e-05
-0.0125649
-0.00037139
-0.0133639
-0.000689942
-0.0142498
-0.0152102
-0.00104133
0.000353489
-0.00425858
0.000507642
-0.00840399
0.000409074
-0.00992306
0.000177481
-0.0105013
-0.000102447
-0.0109881
-0.000408301
-0.0115603
-0.000744879
-0.0122283
-0.00111644
-0.0129923
-0.00152599
-0.0138403
-0.0147717
-0.00196451
0.000262022
-0.00452061
0.000286688
-0.00842866
7.74859e-05
-0.00971385
-0.000232134
-0.0101917
-0.000582038
-0.0106381
-0.000965215
-0.0111771
-0.00138075
-0.0118128
-0.00183532
-0.0125378
-0.00232747
-0.0133481
-0.014246
-0.00285311
0.000166749
-0.00468736
7.52686e-05
-0.00833718
-0.000233585
-0.009405
-0.000620255
-0.00980503
-0.00104294
-0.0102155
-0.00149861
-0.0107214
-0.00198974
-0.0113216
-0.00252195
-0.0120056
-0.00309411
-0.012776
-0.0136372
-0.0037029
7.31755e-05
-0.00476053
-0.000139651
-0.00812435
-0.000529387
-0.00901526
-0.000989022
-0.0093454
-0.00148086
-0.00972363
-0.00200616
-0.0101962
-0.00256895
-0.0107589
-0.00317357
-0.0114009
-0.00382165
-0.0121279
-0.0129525
-0.00450636
-1.30087e-05
-0.00474752
-0.000341683
-0.00779567
-0.000809927
-0.00854702
-0.00133567
-0.00881966
-0.00189331
-0.00916598
-0.00248595
-0.00960351
-0.00311788
-0.0101269
-0.00379062
-0.0107282
-0.00449937
-0.0114191
-0.0121996
-0.00525226
-0.000119083
-0.00462844
-0.000528701
-0.00738606
-0.00107075
-0.00800497
-0.00165855
-0.00823186
-0.00227831
-0.00854622
-0.00293517
-0.00894666
-0.00363389
-0.00942819
-0.00437727
-0.00998482
-0.00516922
-0.0106272
-0.0114264
-0.00594247
-0.000209276
-0.00441916
-0.000701534
-0.0068938
-0.00130973
-0.00739678
-0.00195593
-0.00758566
-0.00263384
-0.00786831
-0.00335021
-0.00823029
-0.00411026
-0.00866815
-0.00491675
-0.00917832
-0.00577066
-0.0097733
-0.010427
-0.00677001
-0.000290138
-0.00412903
-0.000858908
-0.00632503
-0.00152659
-0.00672909
-0.00222666
-0.00688559
-0.00295846
-0.00713651
-0.00372898
-0.00745977
-0.00454187
-0.00785526
-0.00540106
-0.00831914
-0.00632616
-0.00884819
-0.00939937
-0.0073538
-0.000362156
-0.00376687
-0.000999646
-0.00568754
-0.00172052
-0.00600822
-0.00246952
-0.00613659
-0.00325049
-0.00635553
-0.00407136
-0.0066389
-0.00493863
-0.00698799
-0.00586132
-0.00739645
-0.00685416
-0.00785535
-0.0083428
-0.00791072
-0.000425025
-0.00334184
-0.00112304
-0.00498953
-0.00189093
-0.00524032
-0.0026835
-0.00534402
-0.00350769
-0.00553135
-0.00437136
-0.00577523
-0.00528245
-0.0060769
-0.00625196
-0.00642694
-0.00729154
-0.00681578
-0.00723812
-0.00839622
-0.000477762
-0.00286408
-0.00122838
-0.0042389
-0.0020374
-0.00443131
-0.00286834
-0.00451309
-0.00373103
-0.00466865
-0.00463407
-0.00487219
-0.00558634
-0.00512464
-0.00659741
-0.00541587
-0.00767458
-0.0057386
-0.00609449
-0.00881821
-0.000518858
-0.00234522
-0.00131534
-0.00344242
-0.00215956
-0.00358709
-0.00302272
-0.00364992
-0.00391724
-0.00377413
-0.0048523
-0.00393713
-0.00583753
-0.00413941
-0.00688189
-0.00437151
-0.00799188
-0.00462861
-0.00491555
-0.00917083
-0.000554171
-0.00179105
-0.00138522
-0.00261137
-0.00225765
-0.00271466
-0.00314708
-0.00276049
-0.00406771
-0.00285351
-0.00502904
-0.0029758
-0.00604085
-0.0031276
-0.00711127
-0.00330109
-0.00824671
-0.00349317
-0.00370923
-0.00945303
-0.000581588
-0.00120947
-0.00143797
-0.00175499
-0.00233132
-0.00182131
-0.00324048
-0.00185133
-0.0041807
-0.00191329
-0.00516169
-0.00199481
-0.00619331
-0.00209597
-0.00728316
-0.00221125
-0.00843747
-0.00233886
-0.00248302
-0.00966368
-0.000600086
-0.00147335
-0.00238055
-0.00330292
-0.000928968
-0.00425628
-0.000959931
-0.0052504
-0.00100068
-0.00629514
-0.00105123
-0.00739763
-0.00110875
-0.00856412
-0.00117237
-0.00124436
-0.00980278
-0.00333417
-0.0042941
-0.00529479
-0.00634602
-0.00745478
-0.00862715
-0.00987151
-0.00235449
4.20427e-05
-0.00239329
3.87768e-05
-0.00242757
3.42611e-05
-0.00245776
3.01636e-05
-0.00248432
2.65457e-05
-0.0025077
2.33641e-05
-0.00252826
2.05465e-05
-0.00254628
1.80213e-05
-0.002562
1.57211e-05
-0.00257558
1.35882e-05
-0.00258714
1.15759e-05
-0.00259676
9.64684e-06
-0.0026045
7.77256e-06
-0.00261039
5.9361e-06
-0.00261448
4.13951e-06
-0.00261681
2.39519e-06
-0.00261737
6.35132e-07
-0.00261636
-9.31453e-07
-0.00261386
-2.4197e-06
-0.00260981
-3.95194e-06
-0.00260421
-5.50475e-06
-0.00259703
-7.0727e-06
-0.00258828
-8.64215e-06
-0.00257793
-1.02305e-05
-0.00256597
-1.18379e-05
-0.00255238
-1.34663e-05
-0.00253714
-1.51179e-05
-0.00252023
-1.67943e-05
-1.84964e-05
-0.00194887
7.68111e-05
-0.00198184
7.17403e-05
-0.00201129
6.37135e-05
-0.00203723
5.6107e-05
-0.00205996
4.92749e-05
-0.00207984
4.32423e-05
-0.00209716
3.78654e-05
-0.00211215
3.3017e-05
-0.002125
2.85697e-05
-0.00213583
2.44144e-05
-0.00214472
2.04653e-05
-0.00215172
1.66517e-05
-0.00215687
1.29167e-05
-0.00216016
9.22547e-06
-0.0021616
5.58518e-06
-0.00216119
1.97868e-06
-0.00215916
-1.38853e-06
-0.00215571
-4.38265e-06
-0.00215066
-7.46884e-06
-0.00214402
-1.0592e-05
-0.00213579
-1.37424e-05
-0.00212591
-1.69457e-05
-0.00211447
-2.00875e-05
-0.00210143
-2.32707e-05
-0.00208678
-2.64893e-05
-0.0020705
-2.97459e-05
-0.00205257
-3.30446e-05
-0.00203298
-3.63874e-05
-3.97757e-05
-0.00115196
0.00010291
-0.00117296
9.2731e-05
-0.00119421
8.49671e-05
-0.00121343
7.53296e-05
-0.00123044
6.62838e-05
-0.0012453
5.81006e-05
-0.00125806
5.0626e-05
-0.00126882
4.37807e-05
-0.00127767
3.74169e-05
-0.00128465
3.13974e-05
-0.00128981
2.56197e-05
-0.00129315
1.99931e-05
-0.00129466
1.44298e-05
-0.0012943
8.85875e-06
-0.00129192
3.21344e-06
-0.00128789
-2.05161e-06
-0.00128254
-6.74271e-06
-0.00127541
-1.1515e-05
-0.00126658
-1.62986e-05
-0.00125607
-2.1096e-05
-0.0012439
-2.59182e-05
-0.00123003
-3.08107e-05
-0.00121456
-3.55577e-05
-0.00119746
-4.03772e-05
-0.00117871
-4.5236e-05
-0.00115831
-5.01398e-05
-0.00113626
-5.50951e-05
-0.00111255
-6.01041e-05
-6.5168e-05
4.1531e-05
0.000109892
2.43416e-05
0.00010992
9.91614e-06
9.93925e-05
-4.02179e-06
8.92675e-05
-1.74884e-05
7.97504e-05
-2.97998e-05
7.04119e-05
-4.06225e-05
6.14488e-05
-4.98124e-05
5.29706e-05
-5.72549e-05
4.48593e-05
-6.28522e-05
3.69947e-05
-6.65552e-05
2.93227e-05
-6.83414e-05
2.17793e-05
-6.81581e-05
1.42465e-05
-6.58505e-05
6.55119e-06
-6.13137e-05
-1.32336e-06
-5.55134e-05
-7.85193e-06
-4.77135e-05
-1.45427e-05
-3.80463e-05
-2.11821e-05
-2.65541e-05
-2.77908e-05
-1.32617e-05
-3.43884e-05
1.83594e-06
-4.10158e-05
1.84933e-05
-4.7468e-05
3.69306e-05
-5.3995e-05
5.71054e-05
-6.0552e-05
7.90119e-05
-6.71425e-05
0.000102648
-7.3776e-05
0.000128011
-8.04577e-05
0.000155095
-8.71884e-05
0.000183895
-9.39676e-05
-0.000100795
0.00169697
0.000163823
0.00165961
0.000147272
0.00162743
0.00013158
0.00159908
0.000117609
0.00157429
0.000104542
0.00155281
9.1896e-05
0.00153409
8.01684e-05
0.00151775
6.93056e-05
0.00150377
5.88471e-05
0.00149221
4.8553e-05
0.0014831
3.84306e-05
0.0014764
2.84756e-05
0.00147208
1.85723e-05
0.00147013
8.50083e-06
0.00147059
-1.78507e-06
0.00147324
-1.05011e-05
0.0014782
-1.95027e-05
0.00148552
-2.85006e-05
0.00149511
-3.7379e-05
0.00150687
-4.61521e-05
0.0015207
-5.4851e-05
0.00153665
-6.34142e-05
0.00155463
-7.19708e-05
0.00157458
-8.05097e-05
0.00159649
-8.90461e-05
0.00162031
-9.75972e-05
0.00164602
-0.000106171
0.0016736
-0.000114766
0.00170301
-0.000123378
-0.000132008
0.00383848
0.000260386
0.00375764
0.000228115
0.00368263
0.000206587
0.00361312
0.000187112
0.00355173
0.00016594
0.0034985
0.000145118
0.00345197
0.000126701
0.00341094
0.000110335
0.00337492
9.48703e-05
0.00334359
7.98807e-05
0.00331659
6.54298e-05
0.00329357
5.14966e-05
0.00327424
3.79031e-05
0.00325831
2.44351e-05
0.00324573
1.07958e-05
0.00323803
-2.80871e-06
0.00323271
-1.41777e-05
0.00323017
-2.59638e-05
0.00323054
-3.7752e-05
0.00323386
-4.94661e-05
0.00323996
-6.09505e-05
0.00324876
-7.2214e-05
0.0032601
-8.33113e-05
0.00327387
-9.42825e-05
0.00329
-0.000105172
0.00330842
-0.000116019
0.00332909
-0.000126839
0.00335195
-0.000137625
0.00337693
-0.000148362
-0.000159051
0.00627556
0.000400531
0.00614826
0.000355416
0.00602754
0.000327305
0.00591074
0.000303918
0.00580351
0.000273168
0.00570661
0.000242017
0.00561858
0.000214733
0.00553863
0.000190284
0.0054666
0.000166899
0.0054021
0.000144387
0.00534448
0.000123044
0.00529318
0.000102802
0.00524768
8.3401e-05
0.00520746
6.46583e-05
0.0051718
4.64548e-05
0.00514033
2.86564e-05
0.00511523
1.09205e-05
0.00509524
-5.97014e-06
0.0050786
-2.11115e-05
0.00506556
-3.64271e-05
0.00505615
-5.15364e-05
0.00505043
-6.64947e-05
0.00504824
-8.11207e-05
0.00504934
-9.53853e-05
0.00505353
-0.000109364
0.00506066
-0.000123145
0.0050706
-0.000136778
0.00508323
-0.000150256
0.00509842
-0.000163558
0.00511606
-0.000176691
-0.000189677
0.0086111
0.000565321
0.00845422
0.0005123
0.00829703
0.000484494
0.00814603
0.000454921
0.00800581
0.000413389
0.00787499
0.000372834
0.00775228
0.000337445
0.00763799
0.00030457
0.0075325
0.000272392
0.00743552
0.000241365
0.00734661
0.000211952
0.00726541
0.000184002
0.00719154
0.00015727
0.00712457
0.000131635
0.00706401
0.000107006
0.0070094
8.32751e-05
0.00695995
6.03622e-05
0.00691596
3.80235e-05
0.0068791
1.57473e-05
0.00684843
-5.75968e-06
0.00682098
-2.40821e-05
0.0067973
-4.28181e-05
0.00677748
-6.12997e-05
0.00676158
-7.94822e-05
0.00674947
-9.72582e-05
0.00674101
-0.000114677
0.00673602
-0.000131795
0.00673434
-0.000148567
0.00673573
-0.000164954
0.00674002
-0.000180984
0.00674705
-0.000196706
-0.000212141
0.0103498
0.000725356
0.0101914
0.00067071
0.0100287
0.000647218
0.00987476
0.00060887
0.00972916
0.000558997
0.00959011
0.000511881
0.00945771
0.000469842
0.00933243
0.000429852
0.00921434
0.000390486
0.00910337
0.00035233
0.00899959
0.000315738
0.00890298
0.000280604
0.00881342
0.000246833
0.00873065
0.000214401
0.00865441
0.000183254
0.00858439
0.000153293
0.00852032
0.00012443
0.00846174
9.66058e-05
0.00840769
6.97904e-05
0.00835822
4.37174e-05
0.00831632
1.78188e-05
0.0082806
-7.10137e-06
0.00824791
-2.86108e-05
0.00821874
-5.03141e-05
0.00819303
-7.15476e-05
0.00817088
-9.2527e-05
0.00815231
-0.000113227
0.00813717
-0.000133428
0.00812526
-0.000153043
0.0081164
-0.000172124
0.00811043
-0.000190732
-0.000208885
0.0111326
0.00082955
0.0110062
0.000797143
0.0108895
0.000763891
0.0107772
0.000721142
0.0106657
0.000670519
0.0105567
0.000620923
0.0104512
0.000575304
0.0103492
0.000531904
0.0102504
0.000489256
0.0101552
0.000447557
0.0100638
0.000407073
0.00997663
0.000367808
0.00989371
0.000329751
0.00981518
0.000292931
0.00974109
0.000257347
0.00967142
0.00022296
0.00960612
0.000189725
0.00954515
0.000157579
0.00948845
0.00012649
0.00943574
9.643e-05
0.00938606
6.74976e-05
0.00933974
3.92189e-05
0.00930034
1.0794e-05
0.00926457
-1.45436e-05
0.00923131
-3.82913e-05
0.00920106
-6.22791e-05
0.00917379
-8.59592e-05
0.00914939
-0.000109023
0.00912777
-0.000131421
0.00910885
-0.000153209
0.00909255
-0.000174427
0.00907874
-0.000195081
-0.000215167
0.0165718
0.000935312
-0.0166775
0.016491
0.000877919
0.0164218
0.00083303
0.0163558
0.000787238
0.0162868
0.000739491
0.0162155
0.000692246
0.0161446
0.000646174
0.016075
0.000601458
0.0160062
0.000558119
0.0159377
0.000516005
0.0158698
0.000474945
0.0158028
0.000434889
0.0157366
0.000395876
0.0156716
0.000357936
0.0156079
0.000321067
0.0155456
0.000285248
0.0154849
0.000250456
0.0154258
0.00021666
0.0153685
0.000183846
0.0153129
0.000151977
0.0152594
0.000121043
0.0152075
9.10744e-05
0.0151559
6.23992e-05
0.0151062
3.51863e-05
0.0150584
9.50362e-06
0.0150135
-1.73614e-05
0.0149712
-4.37215e-05
0.014931
-6.87627e-05
0.0148926
-9.30202e-05
0.014856
-0.000116633
0.0148211
-0.000139585
0.0147879
-0.00016186
-0.000183468
0.0166771
0.000946404
-0.0166882
0.0166639
0.000891076
0.0166571
0.000839861
0.0166508
0.00079356
0.0166408
0.00074952
0.0166268
0.000706168
0.0166098
0.000663203
0.0165902
0.00062103
0.0165684
0.000579964
0.0165444
0.000539983
0.0165184
0.000500941
0.0164906
0.000462746
0.0164611
0.000425384
0.0164301
0.000388872
0.016398
0.000353225
0.0163648
0.000318438
0.0163307
0.000284508
0.0162959
0.000251433
0.0162606
0.000219216
0.0162247
0.000187864
0.0161883
0.000157384
0.0161516
0.000127772
0.0161151
9.8946e-05
0.0160795
7.08106e-05
0.0160457
4.32682e-05
0.0160123
1.60981e-05
0.0159785
-9.9669e-06
0.0159445
-3.47356e-05
0.0159108
-5.93321e-05
0.0158775
-8.33139e-05
0.0158445
-0.00010659
0.0158118
-0.000129204
-0.00015119
0.0165767
0.0009267
-0.016557
0.0165941
0.000873681
0.0166096
0.000824446
0.0166236
0.00077954
0.0166356
0.000737489
0.016645
0.000696737
0.0166517
0.000656587
0.0166556
0.000617088
0.0166571
0.000578444
0.0166564
0.000540731
0.0166534
0.000503897
0.0166483
0.00046786
0.0166411
0.000432572
0.016632
0.00039802
0.016621
0.000364207
0.0166083
0.000331133
0.016594
0.000298798
0.0165782
0.000267199
0.0165611
0.000236332
0.0165428
0.00020618
0.0165235
0.000176716
0.0165033
0.0001479
0.0164826
0.000119735
0.0164611
9.22926e-05
0.0164387
6.5672e-05
0.0164149
3.98893e-05
0.0163899
1.49657e-05
0.0163648
-9.63078e-06
0.0163396
-3.40698e-05
0.0163138
-5.75805e-05
0.0162877
-8.04475e-05
0.0162612
-0.000102714
-0.000124371
0.0164323
0.000888095
-0.0163937
0.0164623
0.000843687
0.0164876
0.000799149
0.0165104
0.000756767
0.0165312
0.000716727
0.0165497
0.000678237
0.0165656
0.000640613
0.0165791
0.00060362
0.0165902
0.000567303
0.0165992
0.000531747
0.0166061
0.000496968
0.0166111
0.000462933
0.0166141
0.000429596
0.0166151
0.000396931
0.0166144
0.000364927
0.016612
0.000333583
0.0166079
0.000302895
0.0166022
0.000272858
0.0165951
0.000243463
0.0165866
0.0002147
0.0165767
0.000186563
0.0165656
0.000159057
0.0165531
0.000132209
0.0165393
0.000106044
0.0165244
8.05846e-05
0.0165085
5.57998e-05
0.016492
3.14437e-05
0.0164749
7.4651e-06
0.0164566
-1.57459e-05
0.0164375
-3.84186e-05
0.0164175
-6.05182e-05
0.0163968
-8.20162e-05
-0.000102935
0.0162782
0.000846916
-0.016237
0.0163139
0.000807968
0.0163453
0.000767697
0.0163736
0.000728516
0.0163992
0.000691103
0.0164224
0.000655097
0.016443
0.000619972
0.0164612
0.000585432
0.016477
0.000551438
0.0164907
0.000518049
0.0165024
0.000485314
0.0165121
0.000453234
0.0165199
0.000421786
0.0165259
0.000390945
0.0165301
0.000360699
0.0165327
0.000331042
0.0165336
0.000301974
0.016533
0.000273491
0.0165308
0.000245591
0.0165272
0.000218275
0.0165223
0.000191544
0.0165159
0.000165405
0.0165083
0.000139861
0.0164994
0.000114903
0.0164895
9.05088e-05
0.0164786
6.66484e-05
0.0164668
4.32903e-05
0.0164538
2.04705e-05
0.0164397
-1.70569e-06
0.0164248
-2.34363e-05
0.0164088
-4.45883e-05
0.016392
-6.51984e-05
-8.52696e-05
0.0161313
0.000804462
-0.0160889
0.0161704
0.000768873
0.0162056
0.000732549
0.0162372
0.00069691
0.0162658
0.00066251
0.0162917
0.00062918
0.0163151
0.00059657
0.0163361
0.00056445
0.0163548
0.000532767
0.0163712
0.000501564
0.0163857
0.000470892
0.0163981
0.000440774
0.0164087
0.000411204
0.0164175
0.000382169
0.0164245
0.000353658
0.0164299
0.000325671
0.0164337
0.000298208
0.0164359
0.00027127
0.0164366
0.000244862
0.0164359
0.000218983
0.0164338
0.000193635
0.0164304
0.000168818
0.0164257
0.000144525
0.0164199
0.00012075
0.0164129
9.74844e-05
0.0164048
7.47297e-05
0.0163956
5.24962e-05
0.0163853
3.07849e-05
0.016374
9.58795e-06
0.0163617
-1.11214e-05
0.0163484
-3.13236e-05
0.0163343
-5.10177e-05
-7.02069e-05
0.0159991
0.000759836
-0.0159545
0.0160397
0.000728268
0.0160765
0.00069576
0.0161099
0.000663546
0.0161402
0.000632153
0.0161679
0.000601518
0.016193
0.00057141
0.0162158
0.000541672
0.0162363
0.000512266
0.0162547
0.000483232
0.0162709
0.000454619
0.0162852
0.000426457
0.0162977
0.000398754
0.0163084
0.000371509
0.0163173
0.000344718
0.0163246
0.000318384
0.0163303
0.000292511
0.0163344
0.000267104
0.0163371
0.000242169
0.0163384
0.000217706
0.0163383
0.000193718
0.0163369
0.000170204
0.0163343
0.000147164
0.0163305
0.000124598
0.0163254
0.000102509
0.0163193
8.09005e-05
0.016312
5.97729e-05
0.0163036
3.91203e-05
0.0162943
1.89369e-05
0.016284
-7.84597e-07
0.0162727
-2.00225e-05
0.0162604
-3.87943e-05
-5.70917e-05
0.0158805
0.000715247
-0.015836
0.0159214
0.000687447
0.0159587
0.000658394
0.015993
0.000629323
0.0160243
0.000600776
0.0160531
0.000572752
0.0160794
0.000545088
0.0161034
0.000517672
0.0161252
0.000490488
0.0161448
0.000463577
0.0161625
0.000436988
0.0161782
0.000410755
0.016192
0.000384895
0.0162041
0.000359416
0.0162145
0.000334322
0.0162233
0.000309619
0.0162305
0.000285316
0.0162362
0.00026142
0.0162404
0.000237939
0.0162432
0.000214876
0.0162447
0.000192236
0.0162449
0.000170022
0.0162438
0.000148239
0.0162415
0.000126889
0.0162381
0.000105975
0.0162335
8.54998e-05
0.0162278
6.54617e-05
0.016221
4.58597e-05
0.0162133
2.66939e-05
0.0162045
7.96499e-06
0.0161948
-1.0321e-05
0.0161842
-2.81662e-05
-4.55704e-05
0.0157729
0.000671822
-0.0157295
0.0158134
0.000646983
0.0158508
0.000620958
0.0158854
0.000594763
0.0159173
0.000568882
0.0159467
0.000543339
0.0159738
0.000518016
0.0159986
0.000492834
0.0160213
0.000467792
0.016042
0.000442935
0.0160606
0.000418312
0.0160774
0.000393961
0.0160924
0.000369905
0.0161057
0.000346157
0.0161173
0.000322727
0.0161273
0.000299628
0.0161357
0.000276869
0.0161427
0.000254461
0.0161482
0.000232414
0.0161523
0.000210735
0.0161551
0.000189431
0.0161567
0.000168509
0.0161569
0.000147973
0.016156
0.000127828
0.0161539
0.000108077
0.0161507
8.87236e-05
0.0161463
6.97695e-05
0.016141
5.12169e-05
0.0161346
3.30684e-05
0.0161273
1.53258e-05
0.0161189
-2.01102e-06
0.0161097
-1.89335e-05
-3.54479e-05
0.0156744
0.0006294
-0.015632
0.0157142
0.000607165
0.0157513
0.000583845
0.0157858
0.000560267
0.0158179
0.000536849
0.0158476
0.000513627
0.0158751
0.000490512
0.0159005
0.000467451
0.0159238
0.000444451
0.0159452
0.000421561
0.0159647
0.000398831
0.0159823
0.0003763
0.0159982
0.000353994
0.0160125
0.00033193
0.0160251
0.000310124
0.0160361
0.000288591
0.0160456
0.000267344
0.0160537
0.000246397
0.0160603
0.00022576
0.0160656
0.000205444
0.0160696
0.000185458
0.0160723
0.000165809
0.0160738
0.000146504
0.0160741
0.00012755
0.0160732
0.00010895
0.0160712
9.07107e-05
0.0160681
7.28347e-05
0.016064
5.53263e-05
0.0160589
3.81886e-05
0.0160528
2.14242e-05
0.0160458
5.03468e-06
0.0160378
-1.09739e-05
-2.66027e-05
0.0155836
0.000588059
-0.0155423
0.0156225
0.000568232
0.015659
0.000547346
0.0156932
0.00052613
0.0157251
0.000504962
0.0157548
0.000483884
0.0157825
0.000462831
0.0158082
0.000441763
0.0158319
0.000420695
0.0158538
0.000399674
0.0158739
0.000378751
0.0158922
0.000357965
0.0159089
0.000337344
0.0159239
0.000316909
0.0159374
0.000296677
0.0159493
0.000276666
0.0159597
0.000256893
0.0159688
0.000237371
0.0159764
0.000218114
0.0159827
0.000199134
0.0159877
0.000180441
0.0159915
0.000162044
0.0159941
0.000143952
0.0159954
0.000126172
0.0159957
0.00010871
0.0159948
9.15719e-05
0.0159929
7.47636e-05
0.0159899
5.82895e-05
0.015986
4.21535e-05
0.015981
2.63592e-05
0.0159751
1.09094e-05
0.0159684
-4.19272e-06
-1.89409e-05
0.0154997
0.000548056
-0.0154597
0.0155375
0.00053035
0.0155733
0.000511632
0.0156068
0.000492543
0.0156384
0.000473423
0.0156679
0.000454319
0.0156956
0.000435178
0.0157214
0.000415972
0.0157454
0.000396718
0.0157676
0.000377463
0.0157881
0.000358255
0.0158069
0.000339132
0.0158241
0.000320124
0.0158398
0.000301253
0.0158539
0.000282539
0.0158666
0.000264
0.0158778
0.000245654
0.0158877
0.000227518
0.0158962
0.000209605
0.0159034
0.000191928
0.0159093
0.0001745
0.015914
0.00015733
0.0159176
0.000140428
0.0159199
0.000123802
0.0159212
0.00010746
0.0159214
9.14081e-05
0.0159205
7.56532e-05
0.0159186
6.02005e-05
0.0159157
4.50548e-05
0.0159118
3.02206e-05
0.015907
1.57016e-05
0.0159013
1.49704e-06
-1.23765e-05
0.0154219
0.000509446
-0.0153833
0.0154587
0.000493592
0.0154935
0.000476806
0.0155264
0.000459636
0.0155575
0.000442382
0.0155867
0.000425088
0.0156142
0.000407716
0.0156399
0.000390242
0.0156639
0.000372685
0.0156863
0.00035509
0.0157071
0.000337501
0.0157262
0.000319956
0.0157439
0.000302485
0.01576
0.00028511
0.0157747
0.000267851
0.015788
0.000250729
0.0157999
0.000233762
0.0158104
0.000216965
0.0158197
0.000200356
0.0158277
0.000183947
0.0158344
0.00016775
0.01584
0.000151778
0.0158443
0.00013604
0.0158476
0.000120545
0.0158498
0.000105302
0.0158509
9.03172e-05
0.0158509
7.55988e-05
0.01585
6.11523e-05
0.015848
4.69832e-05
0.0158452
3.30964e-05
0.0158414
1.94962e-05
0.0158367
6.18574e-06
-6.82789e-06
0.01535
0.000472175
-0.0153128
0.0153857
0.000457978
0.0154195
0.000442925
0.0154517
0.00042749
0.0154821
0.000411935
0.0155109
0.000396303
0.0155381
0.000380563
0.0155636
0.000364696
0.0155876
0.000348723
0.01561
0.000332683
0.0156309
0.000316619
0.0156503
0.000300567
0.0156682
0.000284555
0.0156847
0.000268605
0.0156998
0.000252739
0.0157136
0.000236976
0.015726
0.000221334
0.0157371
0.000205831
0.015747
0.000190482
0.0157556
0.000175301
0.0157631
0.000160302
0.0157694
0.000145495
0.0157745
0.000130892
0.0157786
0.000116501
0.0157815
0.000102333
0.0157835
8.83948e-05
0.0157844
7.46935e-05
0.0157843
6.12359e-05
0.0157832
4.80279e-05
0.0157813
3.50749e-05
0.0157784
2.23816e-05
0.0157746
9.95208e-06
-2.21099e-06
0.0152836
0.000436203
-0.0152477
0.0153181
0.0004235
0.015351
0.000410011
0.0153824
0.000396148
0.0154121
0.000382143
0.0154404
0.000368036
0.0154672
0.000353801
0.0154924
0.000339426
0.0155162
0.000324928
0.0155386
0.000310344
0.0155595
0.000295714
0.015579
0.000281071
0.0155971
0.000266441
0.0156139
0.000251847
0.0156293
0.000237309
0.0156434
0.000222846
0.0156563
0.000208477
0.0156679
0.000194218
0.0156783
0.000180085
0.0156875
0.000166092
0.0156955
0.000152252
0.0157025
0.000138578
0.0157083
0.000125079
0.015713
0.000111766
0.0157167
9.86471e-05
0.0157194
8.57316e-05
0.015721
7.30266e-05
0.0157217
6.0539e-05
0.0157215
4.8275e-05
0.0157203
3.62403e-05
0.0157182
2.44399e-05
0.0157153
1.28783e-05
1.55597e-06
0.0152224
0.000401483
-0.0151876
0.0152557
0.000390126
0.0152877
0.000378052
0.0153182
0.000365618
0.0153473
0.00035303
0.015375
0.000340325
0.0154014
0.000327483
0.0154263
0.000314492
0.0154499
0.000301369
0.0154721
0.000288149
0.0154929
0.000274866
0.0155124
0.000261552
0.0155306
0.00024823
0.0155476
0.000234924
0.0155632
0.000221651
0.0155776
0.000208431
0.0155908
0.00019528
0.0156028
0.000182217
0.0156137
0.000169255
0.0156233
0.000156409
0.0156319
0.000143692
0.0156394
0.000131115
0.0156458
0.000118689
0.0156511
0.000106424
0.0156554
9.43286e-05
0.0156587
8.2412e-05
0.0156611
7.06814e-05
0.0156625
5.91439e-05
0.0156629
4.78058e-05
0.0156625
3.66728e-05
0.0156612
2.57501e-05
0.015659
1.50423e-05
4.55281e-06
0.015166
0.000367943
-0.0151325
0.0151983
0.000357804
0.0152294
0.000347015
0.0152591
0.000335887
0.0152875
0.0003246
0.0153147
0.000313188
0.0153405
0.000301635
0.0153651
0.000289931
0.0153884
0.000278093
0.0154104
0.000266149
0.0154311
0.000254133
0.0154506
0.000242072
0.0154688
0.00022999
0.0154858
0.000217905
0.0155016
0.000205838
0.0155163
0.000193804
0.0155297
0.000181822
0.015542
0.000169906
0.0155532
0.000158072
0.0155633
0.000146332
0.0155723
0.000134699
0.0155802
0.000123185
0.0155871
0.0001118
0.015593
0.000100554
0.0155978
8.94559e-05
0.0156017
7.85137e-05
0.0156047
6.77352e-05
0.0156067
5.71273e-05
0.0156078
4.66964e-05
0.015608
3.64482e-05
0.0156074
2.6388e-05
0.0156059
1.65205e-05
6.84941e-06
0.0151144
0.000335501
-0.0150819
0.0151457
0.000326472
0.0151759
0.000316857
0.0152048
0.000306926
0.0152326
0.000296838
0.0152591
0.000286623
0.0152845
0.000276268
0.0153087
0.000265764
0.0153316
0.000255126
0.0153534
0.00024438
0.015374
0.000233557
0.0153934
0.00022268
0.0154116
0.000211771
0.0154287
0.000200848
0.0154446
0.000189929
0.0154593
0.000179029
0.015473
0.000168165
0.0154856
0.000157351
0.015497
0.000146601
0.0155074
0.000135928
0.0155168
0.000125344
0.0155251
0.000114859
0.0155324
0.000104484
0.0155388
9.4228e-05
0.0155441
8.41e-05
0.0155485
7.41078e-05
0.015552
6.42589e-05
0.0155546
5.45601e-05
0.0155562
4.50176e-05
0.015557
3.56371e-05
0.015557
2.64239e-05
0.0155562
1.73828e-05
8.51795e-06
0.0150672
0.000304069
-0.0150358
0.0150976
0.000296058
0.015127
0.000287523
0.0151552
0.000278696