/*--------------------------------*- C++ -*----------------------------------*\
  =========                 |
  \\      /  F ield         | OpenFOAM: The Open Source CFD Toolbox
   \\    /   O peration     | Website:  https://openfoam.org
    \\  /    A nd           | Version:  7
     \\/     M anipulation  |
\*---------------------------------------------------------------------------*/
FoamFile
{
    version     2.0;
    format      ascii;
    class       volVectorField;
    location    "45";
    object      U;
}
// * * * * * * * * * * * * * * * * * * * * * * * * * * * * * * * * * * * * * //

dimensions      [0 1 -1 0 0 0 0];

internalField   nonuniform List<vector> 
3500
(
(-0.0613289 0.0100576 6.36523e-20)
(-0.0906549 0.00979472 1.10982e-20)
(-0.117 0.00906262 2.15945e-20)
(-0.140188 0.00817757 -1.24931e-20)
(-0.159953 0.00714136 -2.3161e-20)
(-0.175401 0.00560887 2.24809e-20)
(-0.189261 0.00520622 2.20185e-20)
(-0.194585 0.00212653 1.71944e-20)
(-0.00860244 0.0152187 -8.07031e-20)
(-0.0306107 0.0267516 5.34088e-20)
(-0.0606304 0.0295516 -7.26899e-20)
(-0.087713 0.0288071 3.89258e-21)
(-0.111277 0.0266567 -5.1848e-20)
(-0.131177 0.0240526 6.36956e-21)
(-0.147471 0.0211617 3.32759e-20)
(-0.157403 0.016252 -1.46334e-19)
(-0.16834 0.0158676 3.61039e-20)
(-0.165324 0.00542492 1.51727e-22)
(-0.0106483 0.0239993 1.50216e-19)
(-0.0324377 0.0425419 -1.33083e-20)
(-0.0593303 0.0471951 1.00998e-19)
(-0.0820293 0.0460675 -9.45815e-21)
(-0.100081 0.0426149 -1.10534e-19)
(-0.113172 0.0383753 8.16144e-20)
(-0.122857 0.0342435 -3.50927e-20)
(-0.120241 0.0253252 3.52027e-20)
(-0.12615 0.0270887 -1.0686e-19)
(-0.104599 0.00692402 1.51702e-19)
(-0.0134489 0.0309624 1.76943e-20)
(-0.0350546 0.0554698 -2.38953e-19)
(-0.0575833 0.0618349 -1.42182e-19)
(-0.073926 0.0603931 7.48002e-20)
(-0.0838879 0.0557805 8.88587e-20)
(-0.0861624 0.049995 -1.47889e-19)
(-0.0865423 0.0449849 6.33467e-20)
(-0.0622274 0.0324769 4.21315e-20)
(-0.0611216 0.0371696 1.69161e-19)
(-0.00568657 0.0108341 -2.18684e-19)
(-0.0167716 0.0357953 -7.55826e-20)
(-0.0383136 0.0647827 1.17668e-19)
(-0.0554998 0.0724684 3.44335e-19)
(-0.0636137 0.0706445 -1.71741e-19)
(-0.0629859 0.0649123 1.59391e-19)
(-0.0500608 0.0580099 2.6875e-19)
(-0.0373617 0.0501674 -7.50904e-21)
(0.0177002 0.0387886 7.62004e-21)
(0.0283122 0.042568 -2.4954e-19)
(0.14036 0.0214225 1.17881e-19)
(-0.02042 0.0384937 -1.79091e-19)
(-0.0419815 0.0700719 1.06054e-19)
(-0.0529485 0.0783497 -4.80497e-19)
(-0.0508203 0.0758804 2.33952e-19)
(-0.0363987 0.0688262 3.28271e-20)
(-0.00409535 0.0617711 -3.03165e-19)
(0.0295138 0.0486764 -8.89869e-20)
(0.128003 0.0451665 8.89383e-20)
(0.143979 0.0376559 1.68833e-19)
(0.349636 0.0342608 -9.39358e-20)
(-0.0242714 0.039317 -1.95947e-20)
(-0.0456418 0.071284 -3.33536e-19)
(-0.0491966 0.0791096 3.29565e-19)
(-0.034156 0.0755376 -2.36943e-19)
(-0.000841549 0.0671909 5.87932e-20)
(0.0575896 0.0611256 1.96982e-19)
(0.123062 0.0426159 -3.61025e-19)
(0.274144 0.051912 -1.51183e-19)
(0.304999 0.0309966 1.28521e-19)
(0.609286 0.0466397 7.50258e-20)
(-0.02827 0.0386819 1.96327e-19)
(-0.0485353 0.068675 5.75541e-19)
(-0.0424348 0.0748626 -5.55495e-19)
(-0.00989503 0.0697916 1.35891e-19)
(0.0503458 0.0607944 3.40178e-19)
(0.145242 0.0566132 -1.73217e-19)
(0.261191 0.0401433 -5.51435e-20)
(0.453939 0.0567918 -2.04777e-19)
(0.536883 0.040051 2.43813e-19)
(0.870425 0.0679658 -1.71311e-19)
(-0.0323233 0.0369754 -3.59982e-19)
(-0.0493894 0.0627651 9.94964e-20)
(-0.0292598 0.0662578 2.07755e-19)
(0.0287491 0.0598939 -1.03332e-19)
(0.128381 0.0523998 -3.49276e-19)
(0.2726 0.0516007 4.13772e-19)
(0.451277 0.0510393 2.62651e-19)
(0.661116 0.0646764 2.36927e-19)
(0.815415 0.0698605 -1.92949e-19)
(1.07859 0.0955864 1.46085e-19)
(-0.0360853 0.0344294 -8.92587e-20)
(-0.0461803 0.0541792 -2.90784e-19)
(-0.00441841 0.0545185 -1.72581e-19)
(0.0916469 0.0486666 2.028e-19)
(0.245857 0.0475355 3.89473e-20)
(0.448548 0.0554904 -2.43805e-19)
(0.673165 0.0741814 2.84247e-19)
(0.880944 0.0871619 -3.99207e-19)
(1.05377 0.111303 -2.24695e-19)
(1.19721 0.116033 7.83476e-20)
(-0.038893 0.0311405 2.18248e-19)
(-0.0358774 0.0434983 3.0635e-19)
(0.0391496 0.0415869 1.27385e-19)
(0.189772 0.0408722 1.77516e-19)
(0.408631 0.0529897 -1.02929e-19)
(0.658716 0.0764886 -2.6343e-19)
(0.888962 0.105392 1.05092e-19)
(1.06906 0.122124 1.29043e-19)
(1.18888 0.144332 4.29522e-19)
(1.23317 0.119696 -2.52616e-19)
(-0.0397822 0.027057 3.25035e-19)
(-0.0144934 0.0312823 -3.97276e-20)
(0.1096 0.0305755 2.93457e-19)
(0.329689 0.0430852 -1.30471e-19)
(0.604681 0.0738158 3.98951e-19)
(0.864499 0.110575 1.58229e-19)
(1.06024 0.139949 1.95878e-19)
(1.18329 0.154276 -3.20524e-19)
(1.23578 0.157331 -1.31142e-19)
(1.26043 0.14284 1.25941e-19)
(-0.037419 0.022006 2.30288e-20)
(0.0228096 0.018436 -2.864e-19)
(0.214108 0.0265582 -2.72155e-19)
(0.504758 0.0607566 -6.87456e-20)
(0.801802 0.108041 -1.08578e-19)
(1.02883 0.147688 1.18614e-19)
(1.16696 0.17001 -4.90808e-19)
(1.23176 0.17343 3.28403e-19)
(1.25515 0.171434 -3.20643e-21)
(1.25905 0.152892 -3.87967e-19)
(-0.0300823 0.0158696 -4.63213e-19)
(0.0814603 0.00709735 -9.43735e-20)
(0.353918 0.0357422 -1.00148e-20)
(0.691186 0.093331 2.92146e-20)
(0.966985 0.147177 1.53368e-19)
(1.13794 0.180378 -4.79198e-19)
(1.22069 0.191444 4.69418e-19)
(1.2512 0.189192 -1.03361e-19)
(1.25414 0.179703 6.08193e-20)
(1.24814 0.162315 9.98596e-20)
(-0.0156618 0.00882047 1.24025e-20)
(0.166115 0.00190133 3.79767e-19)
(0.517779 0.0613332 9.65465e-20)
(0.860218 0.134215 -5.18416e-20)
(1.08662 0.184208 -4.35116e-20)
(1.20114 0.206564 2.79178e-19)
(1.24464 0.20893 -1.06564e-21)
(1.25224 0.200868 2.04669e-19)
(1.24625 0.188045 -6.39879e-20)
(1.23968 0.172335 -2.95307e-21)
(0.00862188 0.00164879 7.56343e-20)
(0.277477 0.00953696 -1.37646e-19)
(0.683546 0.1004 1.08508e-19)
(0.995417 0.176895 1.43386e-19)
(1.16493 0.217007 -9.40854e-20)
(1.23366 0.228573 -1.5324e-20)
(1.24995 0.223383 -2.7315e-19)
(1.24579 0.211768 -1.79523e-19)
(1.2363 0.196162 2.19843e-19)
(1.22612 0.180983 -1.38943e-19)
(0.0456326 -0.00346071 9.78026e-20)
(0.408815 0.0347549 1.74372e-19)
(0.83141 0.147133 1.22539e-19)
(1.09441 0.218363 -1.85251e-19)
(1.21151 0.246245 2.19144e-19)
(1.24584 0.247684 -1.16564e-19)
(1.24574 0.236865 -2.92806e-20)
(1.23525 0.222002 -1.06118e-20)
(1.22357 0.204395 -6.23422e-20)
(1.21396 0.190211 1.97882e-20)
(0.0967257 -0.00297658 2.47764e-19)
(0.546678 0.0765984 -1.37789e-19)
(0.952268 0.197237 8.63016e-20)
(1.16137 0.257716 1.00954e-19)
(1.23487 0.272685 -7.22235e-20)
(1.24555 0.265373 1.09722e-19)
(1.23567 0.249784 4.01311e-20)
(1.22219 0.2322 5.3566e-20)
(1.21046 0.213084 3.43456e-20)
(1.19966 0.198613 5.49481e-20)
(0.160679 0.00666215 -9.12246e-20)
(0.676735 0.130347 -1.33887e-19)
(1.04468 0.248388 -1.05028e-19)
(1.20208 0.294671 -9.97948e-20)
(1.24183 0.297152 -4.4055e-20)
(1.23703 0.282246 4.85098e-20)
(1.22204 0.262607 -2.39845e-20)
(1.2075 0.242364 -1.10498e-22)
(1.19548 0.221694 -2.22372e-20)
(1.18507 0.20658 4.1379e-21)
(0.233602 0.0274884 2.44149e-20)
(0.788879 0.191162 -5.31058e-21)
(1.11032 0.299203 2.37188e-20)
(1.22204 0.32937 1.85819e-20)
(1.23702 0.32016 1.3975e-20)
(1.22295 0.298689 -3.75841e-20)
(1.2056 0.275248 1.74862e-20)
(1.19089 0.252324 -1.7139e-20)
(1.17958 0.230114 -5.50271e-21)
(1.16943 0.213635 -8.98812e-21)
(0.309903 0.0594548 1.2612e-21)
(0.878523 0.255359 -7.52943e-22)
(1.15182 0.348659 -5.16863e-21)
(1.22566 0.361994 6.1988e-20)
(1.22355 0.342011 -1.68743e-20)
(1.20452 0.314637 -1.5999e-20)
(1.18663 0.287525 2.10539e-21)
(1.1726 0.261842 -1.79477e-21)
(1.16199 0.237801 -6.52395e-21)
(1.15276 0.219726 -1.38572e-20)
(0.383509 0.100938 -1.05032e-19)
(0.944734 0.320364 1.99487e-20)
(1.17222 0.395923 -1.70127e-19)
(1.21628 0.392494 -5.98284e-20)
(1.20331 0.362663 -1.83476e-20)
(1.1824 0.329847 -2.3822e-21)
(1.16522 0.299083 -1.24218e-20)
(1.15239 0.270574 -7.022e-21)
(1.14304 0.244639 6.24888e-21)
(1.1345 0.224736 9.54744e-21)
(0.448871 0.149621 1.8121e-19)
(0.987943 0.384103 -9.27644e-20)
(1.17435 0.440088 1.29351e-19)
(1.19627 0.42061 5.19172e-20)
(1.17745 0.38184 -1.84678e-20)
(1.15688 0.343874 6.20107e-20)
(1.14141 0.309477 -1.55428e-20)
(1.13047 0.278225 1.8504e-20)
(1.12245 0.250575 3.42115e-21)
(1.11457 0.228586 7.65907e-21)
(0.501713 0.202916 -1.11036e-19)
(1.00946 0.444795 4.21791e-19)
(1.16074 0.480314 -7.79397e-20)
(1.16734 0.445898 -4.40074e-20)
(1.14672 0.399018 9.36119e-20)
(1.12828 0.356185 -3.92535e-20)
(1.11536 0.318227 -1.41152e-20)
(1.1068 0.284448 -9.03077e-21)
(1.10023 0.255531 -2.38431e-21)
(1.09373 0.231245 -9.5066e-21)
(0.539343 0.258051 -2.01597e-19)
(1.01099 0.500789 -2.25933e-19)
(1.13346 0.515679 1.38825e-19)
(1.1309 0.467707 3.83035e-20)
(1.11182 0.413521 -4.71756e-20)
(1.09696 0.366228 -9.3457e-21)
(1.0873 0.324961 1.9292e-20)
(1.0813 0.289009 3.90041e-21)
(1.07639 0.258882 -1.58099e-20)
(1.07228 0.232548 -3.25549e-21)
(0.560623 0.312136 7.0078e-20)
(0.994451 0.550528 2.92002e-19)
(1.09429 0.545155 -5.80341e-20)
(1.08835 0.485214 4.73763e-21)
(1.07341 0.42463 -3.99937e-21)
(1.06309 0.373391 5.97286e-21)
(1.05728 0.329381 1.70029e-20)
(1.05411 0.291579 -8.64016e-21)
(1.05148 0.260351 1.63821e-20)
(1.05023 0.232404 -1.75891e-20)
(0.565755 0.362391 -5.17817e-19)
(0.96162 0.592378 2.85791e-20)
(1.04531 0.567743 -1.09214e-19)
(1.04081 0.497388 1.78019e-20)
(1.03185 0.431702 -3.15514e-21)
(1.02693 0.377168 5.10979e-20)
(1.02559 0.330989 -4.35637e-20)
(1.02575 0.291831 2.59661e-20)
(1.02607 0.259652 -2.50798e-20)
(1.02832 0.230741 -8.38993e-20)
(0.555813 0.406531 2.62149e-19)
(0.914052 0.624262 -2.48263e-19)
(0.988806 0.582575 -1.79046e-20)
(0.989225 0.503435 -8.81327e-21)
(0.987711 0.433962 8.43685e-20)
(0.989035 0.377017 -4.98259e-21)
(0.992634 0.329376 6.69687e-20)
(0.996773 0.289367 7.67645e-21)
(1.00103 0.256604 4.89842e-21)
(1.00738 0.227654 1.18183e-19)
(0.531919 0.44286 1.47221e-19)
(0.854237 0.644599 -2.18603e-20)
(0.926809 0.588405 -5.93705e-21)
(0.934694 0.502897 6.8877e-20)
(0.941748 0.430874 -2.76662e-20)
(0.949872 0.372448 -1.04009e-19)
(0.958909 0.324011 -6.71349e-20)
(0.967791 0.283596 6.9544e-21)
(0.977052 0.250686 9.29985e-20)
(0.987796 0.223496 -7.55387e-20)
(0.495258 0.468822 -5.48523e-21)
(0.786216 0.653055 -2.39591e-20)
(0.861187 0.584319 -9.67166e-20)
(0.87836 0.495217 5.66876e-21)
(0.894748 0.422005 1.4526e-19)
(0.91009 0.363112 -4.64521e-20)
(0.924964 0.314559 1.7377e-19)
(0.93921 0.273948 -2.39787e-19)
(0.954042 0.240633 -1.62268e-19)
(0.968395 0.217085 -3.44042e-20)
(0.44817 0.481161 2.72263e-20)
(0.712526 0.648089 5.159e-20)
(0.793476 0.570213 3.19196e-20)
(0.821417 0.479952 -5.19119e-20)
(0.847591 0.407074 -2.2062e-19)
(0.870417 0.348825 2.09212e-19)
(0.891447 0.301038 8.07991e-20)
(0.911257 0.260828 1.04835e-19)
(0.931332 0.225988 2.98841e-19)
(0.946544 0.199789 -7.24109e-20)
(0.394819 0.479523 1.27324e-19)
(0.636169 0.629272 -2.24353e-20)
(0.725562 0.545891 -5.74405e-20)
(0.765125 0.456848 1.09813e-19)
(0.801245 0.385887 1.96966e-19)
(0.831694 0.329445 -4.66151e-19)
(0.859071 0.283433 -7.28612e-20)
(0.884156 0.245221 -1.89097e-19)
(0.907331 0.212947 3.83813e-20)
(0.92207 0.188086 -1.37229e-19)
(0.338364 0.463524 -2.59288e-19)
(0.559802 0.596264 -1.18783e-19)
(0.659237 0.511418 3.93435e-19)
(0.710774 0.425906 -2.25896e-19)
(0.756708 0.358454 -3.25247e-19)
(0.794716 0.304922 3.04999e-19)
(0.828396 0.261257 -2.8037e-19)
(0.858601 0.224756 1.39009e-19)
(0.885116 0.193833 -1.72471e-19)
(0.901997 0.170251 2.72781e-19)
(0.281937 0.433592 -1.0705e-19)
(0.486222 0.549441 5.84852e-19)
(0.596309 0.467061 -6.10206e-19)
(0.659654 0.387344 2.53688e-20)
(0.71499 0.32502 1.9932e-19)
(0.760185 0.275761 -1.26413e-20)
(0.799584 0.235831 4.28665e-19)
(0.833948 0.202674 -3.73546e-19)
(0.863201 0.174569 2.71802e-19)
(0.883193 0.152499 -1.83619e-19)
(0.228357 0.390748 -1.75334e-19)
(0.417944 0.489537 9.59677e-20)
(0.538504 0.413335 2.63626e-19)
(0.613033 0.341561 3.03011e-19)
(0.677131 0.285802 -6.96015e-20)
(0.729057 0.24178 2.86896e-19)
(0.773779 0.206108 2.43688e-20)
(0.811968 0.176537 3.08038e-20)
(0.843912 0.151663 -1.09954e-19)
(0.866961 0.132239 -6.02005e-21)
(0.180032 0.336562 5.29376e-19)
(0.357223 0.417751 -3.67421e-19)
(0.487483 0.351025 -4.90771e-19)
(0.572071 0.289266 2.76301e-20)
(0.643937 0.241541 -1.44212e-19)
(0.701741 0.203975 1.20319e-19)
(0.750999 0.173616 -4.39448e-19)
(0.792447 0.148452 1.29402e-19)
(0.826983 0.127189 3.67857e-19)
(0.853137 0.110409 -1.77885e-19)
(0.138839 0.272708 7.227e-20)
(0.306084 0.335839 4.57352e-19)
(0.444829 0.281204 3.3011e-19)
(0.537915 0.231247 -3.08699e-19)
(0.616358 0.192735 1.9228e-19)
(0.679117 0.162459 -8.71202e-20)
(0.732135 0.138041 -5.66495e-20)
(0.776257 0.117854 -2.69468e-20)
(0.813029 0.100796 -1.1387e-19)
(0.841965 0.0872092 2.09948e-19)
(0.106336 0.200828 -3.55153e-19)
(0.26619 0.245839 -4.13813e-19)
(0.41175 0.205326 -6.63697e-21)
(0.511445 0.168621 2.944e-19)
(0.595006 0.140366 -5.4066e-20)
(0.661603 0.118178 -5.82284e-20)
(0.717507 0.100299 8.45741e-20)
(0.763689 0.0855179 -4.57185e-20)
(0.802268 0.0729978 -3.63352e-20)
(0.833518 0.0629435 3.78064e-20)
(0.0838696 0.122959 5.16433e-20)
(0.238849 0.149919 -6.79108e-20)
(0.389179 0.125002 2.92951e-19)
(0.493396 0.102566 -7.18271e-20)
(0.580461 0.0853062 1.35311e-19)
(0.649679 0.0717629 -3.63496e-20)
(0.707538 0.0608603 -5.66104e-20)
(0.755114 0.0518512 9.054e-20)
(0.794954 0.0442009 1.26322e-20)
(0.827872 0.0380114 -3.24857e-20)
(0.484249 0.0344234 -6.80161e-20)
(0.573092 0.0286186 3.11793e-20)
(0.643638 0.0240649 -1.65077e-20)
(0.702482 0.0204005 1.96574e-20)
(0.750761 0.017373 -2.57645e-20)
(0.791249 0.014798 -1.56804e-20)
(0.825044 0.0127059 5.75712e-24)
(-0.19835 0.00318209 -5.04299e-20)
(-0.202139 0.00292428 3.60903e-20)
(-0.205415 0.00259111 4.92679e-22)
(-0.208305 0.00229481 -6.24915e-21)
(-0.210878 0.00203498 -1.24753e-20)
(-0.213168 0.00180761 -1.43403e-20)
(-0.215208 0.00160744 -2.45254e-20)
(-0.217024 0.00142902 4.36078e-20)
(-0.218638 0.00126729 -2.47212e-20)
(-0.220066 0.00111797 5.06871e-20)
(-0.221319 0.000977661 -3.1918e-20)
(-0.222406 0.000843752 -4.6047e-21)
(-0.22333 0.000714389 -1.12624e-20)
(-0.224097 0.000588551 2.91983e-20)
(-0.224707 0.000466489 -1.92294e-20)
(-0.225164 0.000349916 1.96034e-20)
(-0.22547 0.000239475 -1.36315e-20)
(-0.225635 0.000129542 -1.14739e-20)
(-0.225668 1.73178e-05 7.38971e-21)
(-0.225571 -9.60308e-05 -4.90689e-21)
(-0.225339 -0.000210175 1.8295e-20)
(-0.224971 -0.000324878 -8.33421e-21)
(-0.224467 -0.000439513 -1.23342e-20)
(-0.223825 -0.000555058 7.64751e-21)
(-0.223043 -0.000671846 -1.03737e-20)
(-0.222118 -0.000790192 1.22079e-20)
(-0.22105 -0.000910344 3.38479e-21)
(-0.219835 -0.00103247 -9.7525e-21)
(-0.218472 -0.0011567 1.74885e-20)
(-0.165643 0.00896405 5.18761e-21)
(-0.169109 0.00824342 4.29885e-20)
(-0.171882 0.00731159 -6.74454e-20)
(-0.174272 0.006468 1.03333e-19)
(-0.176401 0.00572327 -8.50379e-20)
(-0.178288 0.0050683 -2.7736e-21)
(-0.179954 0.00448793 1.11024e-19)
(-0.181421 0.0039678 -3.61984e-20)
(-0.182705 0.00349432 1.33887e-20)
(-0.183815 0.00305588 -4.371e-20)
(-0.184761 0.00264308 -5.10696e-20)
(-0.185547 0.00224844 2.76134e-20)
(-0.186174 0.00186628 -3.55461e-20)
(-0.186644 0.00149358 7.13456e-20)
(-0.186953 0.00113204 -2.24035e-20)
(-0.187103 0.000786427 2.33566e-20)
(-0.187108 0.000448229 -1.20305e-20)
(-0.186983 0.000104816 -2.74251e-20)
(-0.186727 -0.00024172 3.08679e-20)
(-0.186332 -0.000589006 -1.01152e-20)
(-0.185799 -0.000936551 -4.46581e-20)
(-0.185124 -0.00128497 4.1693e-20)
(-0.18431 -0.00163232 -2.69921e-20)
(-0.183358 -0.00198332 -6.15148e-21)
(-0.182264 -0.00233789 1.04409e-20)
(-0.181028 -0.00269647 3.0028e-20)
(-0.179647 -0.00305955 -8.21905e-21)
(-0.17812 -0.00342746 5.50872e-20)
(-0.176444 -0.00380048 -7.18381e-22)
(-0.0998537 0.0136615 -1.34381e-19)
(-0.102849 0.0121411 5.39072e-20)
(-0.104673 0.0108799 -1.42401e-19)
(-0.106213 0.00958226 2.59562e-19)
(-0.107624 0.00841502 -1.74884e-19)
(-0.108881 0.00739271 2.12231e-19)
(-0.109976 0.00648278 -2.11626e-19)
(-0.110913 0.00566267 9.53462e-20)
(-0.111695 0.00490927 -2.15092e-20)
(-0.112324 0.00420362 1.1536e-19)
(-0.112801 0.00353162 -5.41821e-20)
(-0.113127 0.00288214 -6.83349e-20)
(-0.1133 0.00224661 -1.30847e-19)
(-0.113313 0.00162123 1.35119e-19)
(-0.113155 0.00101184 -1.8256e-21)
(-0.112844 0.00042636 -1.20842e-19)
(-0.112411 -0.000164071 2.82103e-20)
(-0.111841 -0.000751998 1.05577e-19)
(-0.11112 -0.00133526 -3.01248e-20)
(-0.110251 -0.00191726 5.50839e-21)
(-0.109238 -0.00250021 6.22523e-20)
(-0.108075 -0.00309804 -6.04913e-20)
(-0.106768 -0.00367226 9.66749e-20)
(-0.105321 -0.00425373 -1.52604e-20)
(-0.103728 -0.00484043 -1.2666e-19)
(-0.101989 -0.00543313 1.27203e-19)
(-0.100103 -0.00603282 -4.63727e-20)
(-0.0980685 -0.00663995 4.48771e-20)
(-0.0958848 -0.0072548 -1.31473e-19)
(0.0023317 0.0142473 6.64611e-21)
(-0.00149998 0.013536 -1.60378e-19)
(-0.00188397 0.0126553 1.42878e-19)
(-0.00281137 0.0112726 1.02506e-19)
(-0.00363579 0.00994144 -6.94291e-20)
(-0.00440411 0.00869282 -1.36481e-19)
(-0.00509752 0.00753142 5.76237e-21)
(-0.00568101 0.00645953 9.89493e-20)
(-0.00613983 0.0054595 -8.10372e-20)
(-0.00645855 0.00451256 1.36134e-19)
(-0.00662596 0.00360482 -1.7352e-19)
(-0.00663628 0.00272355 1.65323e-19)
(-0.00648485 0.00185569 -3.75892e-20)
(-0.0061562 0.000992894 2.52288e-20)
(-0.00562506 0.000136399 4.52671e-20)
(-0.00495819 -0.000722039 -3.94339e-20)
(-0.0041554 -0.00157847 -1.61065e-19)
(-0.00318214 -0.00242015 6.66433e-20)
(-0.00205136 -0.00325477 1.25719e-19)
(-0.00076531 -0.00408602 -3.89018e-20)
(0.000646148 -0.00492241 -5.59417e-20)
(0.00225006 -0.0057468 -1.96298e-20)
(0.00404302 -0.00656282 -6.93581e-21)
(0.00595666 -0.0073898 -5.31294e-20)
(0.00802418 -0.00822163 1.44205e-19)
(0.0102445 -0.00905985 -1.78995e-21)
(0.0126176 -0.0099053 -4.61142e-20)
(0.0151442 -0.0107583 2.40625e-20)
(0.0178242 -0.0116189 -4.16139e-20)
(0.0206574 -0.0124873 -7.52372e-20)
(0.149972 0.0168947 6.15739e-20)
(0.147126 0.0150447 8.33709e-21)
(0.143792 0.0133873 -3.11619e-19)
(0.141489 0.0120977 1.3472e-19)
(0.139743 0.0108431 -1.13351e-19)
(0.13826 0.00953219 2.77517e-20)
(0.136997 0.00823757 -4.76613e-20)
(0.135936 0.00698771 1.11236e-19)
(0.135064 0.00576619 -3.03018e-21)
(0.134389 0.00456307 3.47269e-19)
(0.133919 0.00338187 -5.83944e-20)
(0.133657 0.00222197 -1.49135e-19)
(0.133598 0.00107228 -2.36961e-20)
(0.133749 -8.11327e-05 -7.10549e-21)
(0.134124 -0.00124979 -5.76789e-20)
(0.134681 -0.00244338 -5.26467e-20)
(0.135443 -0.00359563 3.59723e-21)
(0.136409 -0.00471652 6.68717e-20)
(0.137571 -0.00582098 8.96537e-20)
(0.138923 -0.00691729 -1.02452e-19)
(0.140459 -0.00801072 1.06717e-19)
(0.142176 -0.00907428 -1.42534e-19)
(0.144077 -0.0101498 4.72052e-20)
(0.146153 -0.0112256 -1.76055e-20)
(0.148403 -0.0123042 -1.2277e-19)
(0.150826 -0.0133878 1.06659e-19)
(0.153419 -0.0144776 2.82754e-20)
(0.15618 -0.0155739 -7.17227e-20)
(0.159107 -0.0166764 9.60979e-20)
(0.162196 -0.0177852 4.65753e-20)
(0.347046 0.0275154 -1.36168e-20)
(0.343286 0.0229527 -7.74177e-20)
(0.337921 0.0195046 7.42311e-20)
(0.332469 0.0169193 1.77941e-19)
(0.327526 0.0146213 4.39867e-20)
(0.323265 0.0125047 -1.76194e-19)
(0.319623 0.0106362 3.00731e-20)
(0.31645 0.00895715 2.24943e-19)
(0.313673 0.0073567 -6.13088e-19)
(0.311291 0.00578696 2.17199e-19)
(0.309298 0.00425078 -1.83571e-19)
(0.307668 0.0027505 3.35065e-19)
(0.306371 0.0012743 9.83212e-20)
(0.305384 -0.000195139 -2.79399e-19)
(0.304707 -0.00167312 3.9615e-19)
(0.30438 -0.0031579 -8.52466e-20)
(0.304373 -0.00466932 -2.58643e-19)
(0.304633 -0.00618337 -2.36629e-19)
(0.305138 -0.00765777 3.08043e-19)
(0.305891 -0.00909809 1.72008e-19)
(0.306887 -0.0105162 -2.33164e-19)
(0.308118 -0.0119187 2.34272e-19)
(0.309578 -0.0133126 -3.56757e-19)
(0.311256 -0.0147 8.67437e-20)
(0.313144 -0.0160836 -3.5792e-20)
(0.315238 -0.0174657 1.45402e-19)
(0.317533 -0.0188472 4.83851e-20)
(0.320026 -0.0202277 -2.48385e-19)
(0.32271 -0.0216063 -3.91938e-20)
(0.325579 -0.0229833 1.49688e-19)
(0.589566 0.0404128 -1.17408e-19)
(0.580305 0.0360147 1.4031e-20)
(0.571624 0.0323729 2.07141e-19)
(0.562421 0.02884 -2.31587e-19)
(0.553406 0.0250951 1.18888e-19)
(0.54531 0.0215398 1.09462e-19)
(0.538157 0.0184485 9.50668e-20)
(0.53167 0.0156988 -2.87796e-19)
(0.525736 0.0131155 -1.68779e-19)
(0.520395 0.010654 -3.18341e-20)
(0.515665 0.00832258 5.09469e-19)
(0.511504 0.00610628 8.01996e-21)
(0.507859 0.0039751 -4.76197e-19)
(0.504689 0.00190647 1.67118e-19)
(0.501954 -0.000115986 -1.30519e-20)
(0.499616 -0.00210335 1.01976e-19)
(0.497698 -0.00407131 5.69702e-20)
(0.496297 -0.00601209 -9.49083e-20)
(0.495309 -0.00796693 2.30766e-19)
(0.494665 -0.00991278 9.90404e-21)
(0.494336 -0.0117864 -4.46524e-19)
(0.494316 -0.0135966 2.17436e-19)
(0.494598 -0.0153599 1.07841e-19)
(0.495171 -0.0170907 -1.52761e-20)
(0.496018 -0.018802 -4.92805e-20)
(0.497128 -0.0205031 6.32915e-20)
(0.498492 -0.0221973 1.15434e-19)
(0.500101 -0.023883 -4.30426e-19)
(0.501943 -0.0255574 3.63712e-19)
(0.504006 -0.0272201 -2.27638e-19)
(0.506276 -0.0288724 -6.64325e-20)
(0.842158 0.0588133 1.19412e-19)
(0.828217 0.0539842 -2.96077e-19)
(0.816281 0.0505097 3.93645e-22)
(0.803688 0.0462569 2.80104e-19)
(0.791231 0.0412622 -7.92261e-20)
(0.779961 0.0365428 -1.91631e-19)
(0.769794 0.0323796 3.39535e-20)
(0.760282 0.0284992 7.13686e-20)
(0.751326 0.0247561 -8.65972e-20)
(0.743031 0.021196 1.37519e-19)
(0.735441 0.0178507 7.47214e-20)
(0.728518 0.0146879 6.36645e-20)
(0.72222 0.0116679 -1.69788e-19)
(0.716519 0.00877049 6.02939e-20)
(0.711391 0.00598505 5.2615e-21)
(0.7068 0.00330272 -2.15397e-19)
(0.702698 0.000719698 2.88681e-19)
(0.699056 -0.00180973 -2.26249e-19)
(0.695908 -0.00430027 1.33234e-19)
(0.693368 -0.00673908 -1.4953e-19)
(0.691298 -0.00920415 9.71062e-20)
(0.689602 -0.0116785 -7.70758e-20)
(0.68825 -0.0140718 -1.45921e-20)
(0.687231 -0.0163783 -1.54634e-19)
(0.686528 -0.0186152 3.24305e-20)
(0.686133 -0.020802 2.1421e-19)
(0.686041 -0.0229505 8.68019e-20)
(0.686243 -0.0250616 -2.09533e-19)
(0.686723 -0.0271344 1.33099e-19)
(0.687459 -0.0291724 -1.02046e-19)
(0.688435 -0.03118 1.2666e-19)
(0.689635 -0.033159 -1.16899e-19)
(1.05223 0.0826116 5.60866e-21)
(1.03895 0.0775069 1.67046e-19)
(1.02684 0.0734726 1.45872e-19)
(1.01345 0.0676546 -4.13953e-19)
(1.00028 0.0612224 1.43768e-19)
(0.988439 0.0554481 1.62032e-19)
(0.977548 0.0501913 3.59885e-20)
(0.967105 0.0450542 1.09484e-19)
(0.957089 0.0400329 -2.54616e-19)
(0.947635 0.0352536 -1.4263e-19)
(0.938776 0.0307395 2.88269e-19)
(0.930484 0.0264546 -1.11569e-19)
(0.922745 0.0223769 -2.72897e-19)
(0.915554 0.0184973 3.59152e-19)
(0.908901 0.014802 -2.05767e-19)
(0.902768 0.0112726 8.81654e-20)
(0.897133 0.00789571 2.10617e-19)
(0.891972 0.00466602 -2.33421e-19)
(0.887234 0.00156455 -2.84807e-19)
(0.882886 -0.00146991 1.4915e-20)
(0.878969 -0.00444849 3.12962e-19)
(0.875651 -0.00731752 2.41753e-19)
(0.872817 -0.0101795 -2.4115e-19)
(0.870338 -0.0130212 -2.43601e-19)
(0.868161 -0.0157854 1.3956e-19)
(0.866274 -0.018479 1.58483e-19)
(0.86468 -0.0211086 7.49163e-20)
(0.863383 -0.0236641 -1.45703e-19)
(0.862366 -0.026143 1.65291e-19)
(0.861606 -0.0285549 -3.26677e-19)
(0.861084 -0.0309088 8.08684e-20)
(0.860786 -0.0332087 -1.11604e-19)
(1.18264 0.102946 -2.8196e-19)
(1.17547 0.099339 4.08985e-19)
(1.16722 0.0947648 -5.19766e-20)
(1.15725 0.0880952 -2.18759e-19)
(1.14759 0.0814623 3.23566e-19)
(1.13888 0.0755181 -4.19981e-19)
(1.1306 0.0697853 -1.32779e-19)
(1.12241 0.0640372 -1.15304e-19)
(1.11437 0.0583786 3.33386e-19)
(1.10657 0.0528907 -2.06385e-19)
(1.09903 0.0475692 2.78916e-19)
(1.09176 0.0424088 1.25277e-19)
(1.08476 0.0374223 -1.72652e-19)
(1.07807 0.0326185 -3.16113e-19)
(1.07168 0.0279956 3.71265e-19)
(1.0656 0.0235479 7.99312e-20)
(1.05983 0.0192711 -8.00281e-20)
(1.05437 0.0151606 -1.56579e-19)
(1.04922 0.0112205 3.06487e-19)
(1.04438 0.00745652 -3.63627e-19)
(1.03979 0.00386714 3.84918e-19)
(1.03542 0.000354688 -9.67146e-20)
(1.03135 -0.00308843 -2.72864e-19)
(1.02773 -0.00638543 -7.2282e-20)
(1.02444 -0.00960842 4.02556e-19)
(1.02137 -0.0128174 2.83072e-20)
(1.01854 -0.0159809 -1.92288e-19)
(1.01596 -0.0190568 3.06691e-20)
(1.01361 -0.0220382 -2.35425e-19)
(1.01148 -0.0249347 -3.22136e-21)
(1.00954 -0.0277513 2.11519e-19)
(1.00778 -0.0304882 3.82686e-20)
(1.00621 -0.0331457 -1.64211e-19)
(1.26131 0.125691 0)
(1.26086 0.118437 0)
(1.25584 0.111835 0)
(1.24916 0.105331 0)
(1.24281 0.0988742 0)
(1.23719 0.0924086 0)
(1.23195 0.0860113 0)
(1.22678 0.0798075 0)
(1.22157 0.073837 0)
(1.21635 0.0680686 0)
(1.21115 0.0624696 0)
(1.206 0.0570302 0)
(1.20092 0.0517521 0)
(1.19592 0.0466358 0)
(1.19102 0.0416798 0)
(1.18622 0.0368796 0)
(1.18154 0.032231 0)
(1.17697 0.0277266 0)
(1.17254 0.0233624 0)
(1.16824 0.0191267 0)
(1.16407 0.0150218 0)
(1.16005 0.0110509 0)
(1.15613 0.00725552 0)
(1.15231 0.00357997 0)
(1.14859 -2.54134e-05 0)
(1.14503 -0.00353561 0)
(1.14168 -0.0069226 0)
(1.13854 -0.0101888 0)
(1.13556 -0.0133551 0)
(1.13272 -0.0164354 1.88646e-27)
(1.13 -0.0194328 -1.88648e-27)
(1.12741 -0.0223468 0)
(1.12494 -0.025178 0)
(1.26403 0.128786 0)
(1.27037 0.121029 0)
(1.27156 0.114115 0)
(1.26997 0.107736 0)
(1.26796 0.101549 0)
(1.26643 0.0954156 0)
(1.26525 0.0893696 0)
(1.26406 0.0834773 0)
(1.26264 0.0777573 0)
(1.26094 0.0721911 0)
(1.25902 0.0667556 0)
(1.25694 0.061439 0)
(1.25474 0.0562393 0)
(1.25243 0.0511584 0)
(1.25003 0.0461977 0)
(1.24754 0.0413569 0)
(1.24498 0.0366345 0)
(1.24235 0.0320284 0)
(1.23968 0.0275367 0)
(1.23696 0.0231584 0)
(1.23422 0.0188924 0)
(1.23144 0.0147411 0)
(1.22866 0.0107069 0)
(1.22591 0.00681356 0)
(1.22322 0.00307504 0)
(1.22062 -0.000509262 0)
(1.21809 -0.00396167 0)
(1.21554 -0.0073175 0)
(1.21298 -0.0105946 0)
(1.21042 -0.0137916 5.69403e-27)
(1.20789 -0.0169035 -5.69403e-27)
(1.20538 -0.0199284 0)
(1.20291 -0.0228671 0)
(1.25588 0.12589 0)
(1.26368 0.118949 0)
(1.26682 0.112289 0)
(1.26715 0.106073 0)
(1.26688 0.100187 0)
(1.26701 0.0944915 0)
(1.26753 0.0889229 0)
(1.26812 0.0834735 0)
(1.2685 0.0781498 0)
(1.26859 0.072951 0)
(1.26844 0.0678693 0)
(1.2681 0.0628968 0)
(1.26761 0.0580295 0)
(1.26698 0.0532663 0)
(1.26622 0.0486075 0)
(1.26532 0.0440536 0)
(1.26429 0.0396049 0)
(1.26315 0.0352619 0)
(1.26189 0.0310256 0)
(1.26054 0.0268979 0)
(1.25911 0.0228822 0)
(1.2576 0.0189816 0)
(1.25603 0.0151995 0)
(1.25441 0.0115313 0)
(1.25274 0.00796524 0)
(1.25099 0.00447232 0)
(1.24916 0.00103317 0)
(1.24726 -0.00234997 0)
(1.24532 -0.00565591 0)
(1.24336 -0.00887384 1.75234e-27)
(1.24138 -0.0120032 -1.75234e-27)
(1.23938 -0.0150464 0)
(1.23736 -0.0180053 0)
(1.24509 0.121833 0)
(1.25284 0.11558 0)
(1.2567 0.109353 0)
(1.25802 0.103444 0)
(1.25863 0.0978631 0)
(1.25949 0.0925071 0)
(1.26068 0.0872883 0)
(1.26194 0.0821702 0)
(1.26303 0.0771513 0)
(1.26386 0.0722383 0)
(1.26446 0.0674328 0)
(1.26489 0.0627314 0)
(1.26517 0.0581292 0)
(1.26531 0.0536228 0)
(1.26533 0.0492108 0)
(1.26521 0.0448925 0)
(1.26496 0.0406676 0)
(1.26459 0.0365358 0)
(1.2641 0.0324967 0)
(1.2635 0.0285497 0)
(1.2628 0.0246932 0)
(1.262 0.0209242 0)
(1.2611 0.0172378 0)
(1.2601 0.0136275 0)
(1.25901 0.010089 0)
(1.25784 0.00662282 0)
(1.2566 0.00323846 0)
(1.2553 -4.93137e-05 0)
(1.25396 -0.00323748 0)
(1.25254 -0.00633466 0)
(1.25105 -0.00934863 0)
(1.2495 -0.0122834 0)
(1.2479 -0.0151401 0)
(1.23362 0.116658 0)
(1.24109 0.111043 0)
(1.24528 0.105367 0)
(1.24719 0.0998921 0)
(1.24838 0.0946751 0)
(1.24969 0.0896569 0)
(1.25123 0.0847653 0)
(1.2528 0.079962 0)
(1.25422 0.0752412 0)
(1.25541 0.0706099 0)
(1.25637 0.0660734 0)
(1.25717 0.0616313 0)
(1.25781 0.0572801 0)
(1.25833 0.0530163 0)
(1.25872 0.0488377 0)
(1.25898 0.0447435 0)
(1.25911 0.040733 0)
(1.25912 0.0368058 0)
(1.25902 0.0329611 0)
(1.2588 0.0291979 0)
(1.25847 0.0255148 0)
(1.25804 0.0219106 0)
(1.25751 0.0183849 0)
(1.25688 0.0149389 0)
(1.25616 0.0115748 0)
(1.25536 0.0082952 0)
(1.25449 0.00510005 0)
(1.25355 0.00198597 0)
(1.25252 -0.00105628 0)
(1.25142 -0.00402802 0)
(1.25024 -0.00692767 0)
(1.24899 -0.00975409 0)
(1.24768 -0.0125069 0)
(1.22284 0.110822 0)
(1.22996 0.105838 0)
(1.23424 0.100732 0)
(1.2365 0.0957372 0)
(1.23807 0.0909269 0)
(1.23967 0.0862721 0)
(1.24143 0.0817224 0)
(1.24319 0.0772467 0)
(1.2448 0.0728385 0)
(1.24619 0.0685034 0)
(1.24737 0.0642474 0)
(1.24838 0.0600723 0)
(1.24924 0.0559767 0)
(1.24997 0.0519582 0)
(1.25057 0.0480152 0)
(1.25105 0.0441471 0)
(1.25139 0.0403537 0)
(1.25162 0.0366349 0)
(1.25173 0.0329905 0)
(1.25173 0.0294201 0)
(1.25162 0.0259236 0)
(1.25141 0.0225014 0)
(1.2511 0.0191539 0)
(1.2507 0.0158819 0)
(1.25021 0.0126855 0)
(1.24964 0.00956349 0)
(1.24898 0.00651258 0)
(1.24824 0.00352942 0)
(1.24741 0.000613383 0)
(1.24651 -0.002234 0)
(1.24554 -0.00501163 0)
(1.24449 -0.007719 0)
(1.24338 -0.0103561 0)
(1.21325 0.10487 0)
(1.21989 0.100441 0)
(1.22411 0.095856 0)
(1.22658 0.0913247 0)
(1.2284 0.0869221 0)
(1.2302 0.0826349 5.29357e-28)
(1.2321 0.0784278 -5.29357e-28)
(1.23399 0.0742779 0)
(1.23572 0.0701802 0)
(1.23724 0.06614 0)
(1.23856 0.0621633 0)
(1.23971 0.0582534 0)
(1.24072 0.0544106 0)
(1.24159 0.0506342 0)
(1.24233 0.0469236 0)
(1.24295 0.0432787 0)
(1.24345 0.0396998 0)
(1.24382 0.0361873 0)
(1.24408 0.0327417 0)
(1.24423 0.0293631 0)
(1.24428 0.0260519 0)
(1.24422 0.0228085 0)
(1.24406 0.0196329 0)
(1.24382 0.016525 0)
(1.24348 0.013484 0)
(1.24305 0.0105088 0)
(1.24254 0.00759851 0)
(1.24194 0.00475275 0)
(1.24127 0.00197246 0)
(1.24052 -0.000742063 0)
(1.23969 -0.00339057 0)
(1.2388 -0.00597294 0)
(1.23783 -0.00848929 0)
(1.20466 0.0989212 0)
(1.21081 0.0949743 0)
(1.21492 0.0908619 0)
(1.2175 0.086766 0)
(1.21949 0.0827562 0)
(1.22143 0.0788279 -8.44216e-28)
(1.22343 0.0749559 8.44216e-28)
(1.2254 0.071124 0)
(1.22721 0.0673295 0)
(1.22882 0.063578 0)
(1.23024 0.0598759 0)
(1.2315 0.0562273 0)
(1.23262 0.0526341 0)
(1.2336 0.0490966 0)
(1.23445 0.0456154 0)
(1.23518 0.0421909 0)
(1.23579 0.0388241 0)
(1.23628 0.0355159 0)
(1.23666 0.0322669 0)
(1.23692 0.0290778 0)
(1.23709 0.0259491 0)
(1.23715 0.022881 0)
(1.23711 0.0198737 0)
(1.23698 0.0169273 0)
(1.23676 0.0140415 0)
(1.23646 0.0112164 0)
(1.23606 0.00845224 0)