/*--------------------------------*- C++ -*----------------------------------*\
  =========                 |
  \\      /  F ield         | OpenFOAM: The Open Source CFD Toolbox
   \\    /   O peration     | Website:  https://openfoam.org
    \\  /    A nd           | Version:  7
     \\/     M anipulation  |
\*---------------------------------------------------------------------------*/
FoamFile
{
    version     2.0;
    format      ascii;
    class       surfaceScalarField;
    location    "60";
    object      phi;
}
// * * * * * * * * * * * * * * * * * * * * * * * * * * * * * * * * * * * * * //

dimensions      [0 3 -1 0 0 0 0];

internalField   nonuniform List<scalar> 
7248
(
-0.000159366
0.00015934
-0.000435709
0.000276303
-0.000743687
0.000307938
-0.00105653
0.000312805
-0.00137149
0.000314923
-0.0016904
0.000318883
-0.00201513
0.000324696
-0.00234727
0.000332115
-0.00268827
0.000340987
-0.00303948
0.000351187
-0.00340213
0.000362637
-0.00377742
0.000375273
-0.00416638
0.000388957
-0.00456989
0.000403499
0.00041921
-0.0049891
-0.00015867
0.00031801
-0.000434211
0.000551844
-0.000741523
0.00061525
-0.00105379
0.000625068
-0.00136819
0.000629325
-0.00168656
0.000637252
-0.00201074
0.000648879
-0.00234234
0.000663715
-0.00268281
0.000681455
-0.00303347
0.000701849
-0.00339557
0.00072474
-0.0037703
0.000750004
-0.00415871
0.000777365
-0.00456166
0.000806447
0.000837852
-0.0049803
-0.000157281
0.000475291
-0.000431215
0.000825778
-0.000737195
0.000921229
-0.0010483
0.000936172
-0.00136159
0.000942619
-0.00167887
0.000954529
-0.00200197
0.000971979
-0.00233249
0.000994235
-0.00267188
0.00102084
-0.00302145
0.00105142
-0.00338246
0.00108575
-0.00375608
0.00112362
-0.00414337
0.00116466
-0.0045452
0.00120828
0.00125535
-0.00496269
-0.000155199
0.000630489
-0.000426724
0.0010973
-0.000730704
0.00122521
-0.00104007
0.00124554
-0.0013517
0.00125425
-0.00166735
0.00127017
-0.00198882
0.00129346
-0.00231773
0.00132314
-0.00265549
0.00135861
-0.00300344
0.00139937
-0.0033628
0.0014451
-0.00373475
0.00149557
-0.00412036
0.00155027
-0.00452051
0.00160843
0.00167111
-0.00493628
-0.000152427
0.000782916
-0.00042074
0.00136562
-0.000722053
0.00152652
-0.00102911
0.00155259
-0.00133853
0.00156368
-0.00165199
0.00158364
-0.00197131
0.00161278
-0.00229806
0.00164989
-0.00263367
0.00169422
-0.00297944
0.00174514
-0.00333661
0.00180227
-0.00370634
0.0018653
-0.00408971
0.00193364
-0.00448761
0.00200633
0.00208455
-0.00490106
-0.000148971
0.000931887
-0.000413266
0.00162991
-0.000711242
0.0018245
-0.0010154
0.00185675
-0.00132207
0.00187034
-0.00163282
0.00189438
-0.00194945
0.0019294
-0.00227351
0.00197395
-0.00260642
0.00202713
-0.00294948
0.0020882
-0.0033039
0.00215669
-0.00367086
0.00223226
-0.00405142
0.00231421
-0.00444651
0.00240142
0.00249508
-0.00485704
-0.000144835
0.00107672
-0.000404307
0.00188939
-0.000698276
0.00211847
-0.000998975
0.00215745
-0.00130234
0.00217371
-0.00160984
0.00220189
-0.00192324
0.00224281
-0.00224409
0.0022948
-0.00257378
0.00235682
-0.00291358
0.00242801
-0.00326472
0.00250782
-0.00362834
0.00259588
-0.00400554
0.00269141
-0.00439723
0.00279311
0.0029021
-0.00480425
-0.000140026
0.00121675
-0.000393868
0.00214323
-0.000683158
0.00240775
-0.00097982
0.00245412
-0.00127935
0.00247323
-0.00158307
0.00250561
-0.00189272
0.00255246
-0.00220982
0.0026119
-0.00253575
0.00268275
-0.00287178
0.00276403
-0.00321908
0.00285513
-0.00357882
0.00295561
-0.00395209
0.00306468
-0.00433981
0.00318083
0.003305
-0.00474272
-0.000134553
0.0013513
-0.000381956
0.00239063
-0.000665891
0.00269169
-0.000957948
0.00274617
-0.0012531
0.00276839
-0.00155252
0.00280503
-0.0018579
0.00285784
-0.00217074
0.00292473
-0.00249239
0.0030044
-0.0028241
0.00309574
-0.00316703
0.00319806
-0.00352234
0.00331091
-0.00389112
0.00343346
-0.0042743
0.00356401
0.00370321
-0.0046725
-0.000128425
0.00147973
-0.000368579
0.00263078
-0.000646482
0.00296959
-0.000933367
0.00303306
-0.00122362
0.00305864
-0.00151822
0.00309963
-0.00181882
0.00315843
-0.00212687
0.00323279
-0.00244372
0.00332125
-0.00277058
0.0034226
-0.00310861
0.00353609
-0.00345894
0.00366124
-0.00382267
0.0037972
-0.00420075
0.00394208
0.00409614
-0.00459367
-0.000121654
0.00160138
-0.000353748
0.00286288
-0.000624936
0.00324078
-0.000906084
0.00331421
-0.00119092
0.00334348
-0.00148019
0.0033889
-0.00177549
0.00345374
-0.00207826
0.00353556
-0.00238979
0.00363278
-0.00271129
0.0037441
-0.00304388
0.00386868
-0.00338868
0.00400604
-0.00374682
0.00415534
-0.00411923
0.00431449
0.00448321
-0.0045063
-0.000114254
0.00171563
-0.000337474
0.0030861
-0.000601262
0.00350457
-0.00087611
0.00358905
-0.00115502
0.00362239
-0.00143846
0.00367234
-0.00172797
0.00374325
-0.00202494
0.00383253
-0.00233065
0.00393849
-0.00264627
0.00405972
-0.00297289
0.0041953
-0.00331162
0.00434477
-0.00366363
0.00450734
-0.00402983
0.0046807
0.00486387
-0.0044105
-0.00010624
0.00182187
-0.000319773
0.00329963
-0.000575469
0.00376027
-0.000843456
0.00385704
-0.00111593
0.00389486
-0.00139305
0.00394946
-0.00167628
0.00402647
-0.00196697
0.00412322
-0.00226635
0.00423788
-0.00257558
0.00436894
-0.00289571
0.00451543
-0.00322783
0.00467689
-0.00357315
0.00485267
-0.00393263
0.00504018
0.0052376
-0.00430636
-9.76337e-05
0.00191951
-0.000300663
0.00350266
-0.000547567
0.00400717
-0.000808135
0.00411761
-0.00107368
0.0041604
-0.001344
0.00421978
-0.00162047
0.00430294
-0.00190439
0.00440714
-0.00219696
0.00453045
-0.0024993
0.00467128
-0.00281241
0.00482854
-0.00313737
0.00500185
-0.00347547
0.00519076
-0.00382773
0.00539245
0.00560389
-0.00419402
-8.84567e-05
0.00200796
-0.000280164
0.00369437
-0.000517569
0.00424457
-0.00077016
0.0043702
-0.00102829
0.00441853
-0.00129134
0.00448284
-0.00156058
0.00457218
-0.00183726
0.00468382
-0.00212254
0.00481573
-0.0024175
0.00496624
-0.00272309
0.00513414
-0.00304032
0.00531908
-0.00337059
0.00552103
-0.00371518
0.00573703
0.00596234
-0.00407363
-7.87378e-05
0.0020867
-0.000258302
0.00387393
-0.000485491
0.00447176
-0.000729549
0.00461426
-0.000979788
0.00466877
-0.00123512
0.00473817
-0.00149667
0.00483373
-0.00176565
0.0049528
-0.00204317
0.00509325
-0.00233028
0.00525334
-0.00262788
0.00543173
-0.00293685
0.00562804
-0.00325868
0.00584286
-0.00359517
0.00607353
0.00631265
-0.00394547
-6.85126e-05
0.00215522
-0.000235105
0.00404052
-0.000451351
0.00468801
-0.000686318
0.00484922
-0.000928203
0.00491066
-0.00117537
0.00498533
-0.0014288
0.00508716
-0.00168963
0.00521364
-0.00195893
0.00536255
-0.0022377
0.00553212
-0.00252681
0.00572085
-0.0028269
0.00592814
-0.00313938
0.00615535
-0.00346719
0.00640133
0.00665507
-0.00380961
-5.78205e-05
0.00221304
-0.000210607
0.00419331
-0.00041517
0.00489257
-0.000640488
0.00507454
-0.000873565
0.00514373
-0.00111214
0.00522391
-0.00135702
0.00533204
-0.00160928
0.00546589
-0.00186991
0.00562318
-0.00213991
0.00580211
-0.00242017
0.00600111
-0.00271117
0.00621914
-0.00301375
0.00645792
-0.0033321
0.00671969
0.00699046
-0.00366749
-4.66535e-05
0.00225969
-0.000184843
0.0043315
-0.000376973
0.0050847
-0.000592082
0.00528965
-0.000815907
0.00536756
-0.00104548
0.00545348
-0.0012814
0.00556796
-0.00152467
0.00570916
-0.00177621
0.00587472
-0.00203695
0.00606285
-0.0023078
0.00627196
-0.00258907
0.00650041
-0.00288014
0.00674899
-0.00318511
0.00702465
0.00732264
-0.00351729
-3.50487e-05
0.00229474
-0.000157858
0.00445431
-0.000336788
0.00526363
-0.000541128
0.00549399
-0.000755267
0.0055817
-0.000975439
0.00567365
-0.00120201
0.00579452
-0.00143589
0.00594304
-0.00167794
0.00611678
-0.00192901
0.00631392
-0.00219007
0.00653302
-0.00246195
0.00677229
-0.00274386
0.0070309
-0.00303396
0.00731475
0.00765811
-0.00336943
-2.30426e-05
0.00231778
-0.000129702
0.00456097
-0.000294649
0.00542858
-0.000487661
0.005687
-0.000691685
0.00578572
-0.000902078
0.00588404
-0.00111892
0.00601136
-0.00134303
0.00616716
-0.00157523
0.00634897
-0.00181625
0.00655495
-0.00206699
0.00678376
-0.0023284
0.00703369
-0.00260089
0.00730339
-0.00288533
0.00759919
0.0079323
-0.00315951
-1.06255e-05
0.00232841
-0.000100415
0.00465076
-0.000250595
0.00557876
-0.000431725
0.00586813
-0.000625208
0.0059792
-0.000825454
0.00608429
-0.00103221
0.00621812
-0.0012462
0.00638115
-0.00146816
0.00657094
-0.00169878
0.00678556
-0.00193877
0.00702375
-0.00218904
0.00728396
-0.00245004
0.00756439
-0.00271984
0.007869
0.00821218
-0.00299973
2.24273e-06
0.00232616
-6.99956e-05
0.004723
-0.000204676
0.00571344
-0.000373381
0.00603684
-0.000555884
0.00616171
-0.000745629
0.00627403
-0.00094196
0.00641445
-0.00114548
0.00658467
-0.00135687
0.00678233
-0.00157675
0.00700544
-0.00180572
0.00725273
-0.00204464
0.00752288
-0.00229459
0.00781434
-0.00255585
0.00813026
0.00848044
-0.00282411
1.44805e-05
0.00231168
-3.82395e-05
0.00477572
-0.000157009
0.00583221
-0.000312715
0.00619255
-0.000483767
0.00633276
-0.000662673
0.00645294
-0.00084826
0.00660003
-0.00104098
0.00677739
-0.00124147
0.00698282
-0.00145031
0.00721427
-0.00166805
0.00747048
-0.00189556
0.00775039
-0.00213408
0.00805286
-0.00238383
0.00838
0.00873792
-0.00264131
2.69841e-05
0.0022847
-3.12588e-06
0.00480583
-0.000107883
0.00593697
-0.000249773
0.00633444
-0.000408911
0.0064919
-0.00057666
0.00662069
-0.000751197
0.00677457
-0.000932818
0.00695902
-0.0011221
0.0071721
-0.00131959
0.00741177
-0.00152585
0.00767674
-0.0017417
0.00796624
-0.00196831
0.00827947
-0.00220563
0.00861733
0.00898302
-0.00245073
3.90057e-05
0.00224569
2.62759e-05
0.00481856
-5.8042e-05
0.00602129
-0.000184623
0.00646102
-0.000331412
0.00663869
-0.000487671
0.00677695
-0.000650863
0.00693776
-0.000821093
0.00712925
-0.000998869
0.00734987
-0.00118472
0.00759761
-0.00137918
0.0078712
-0.00158302
0.00817008
-0.00179732
0.00849378
-0.00202209
0.00884209
0.00921558
-0.00225465
5.08414e-05
0.00219485
5.78902e-05
0.00481151
-5.82224e-06
0.006085
-0.000117427
0.00657262
-0.000251369
0.00677263
-0.000395786
0.00692136
-0.000547351
0.00708933
-0.000705917
0.00728781
-0.000871908
0.00751586
-0.00104581
0.00777152
-0.00122815
0.00805354
-0.00141963
0.00836156
-0.00162122
0.00869537
-0.001833
0.00905387
0.0094355
-0.00205292
6.24693e-05
0.00213238
9.02847e-05
0.00478369
4.65313e-05
0.00612875
-4.84262e-05
0.00666758
-0.000168847
0.00689305
-0.000301092
0.00705361
-0.000440764
0.007229
-0.000587407
0.00743445
-0.000741343
0.0076698
-0.000903018
0.00793319
-0.00107292
0.00822344
-0.0012517
0.00854034
-0.00144018
0.00888385
-0.00163844
0.00925213
0.00964212
-0.00184505
7.36704e-05
0.00205871
0.000122834
0.00473453
0.0001003
0.00615128
2.2426e-05
0.00674545
-8.40036e-05
0.00699948
-0.000203679
0.00717328
-0.000331205
0.00735653
-0.000465684
0.00756893
-0.000607309
0.00781142
-0.000756484
0.00808237
-0.000913655
0.00838062
-0.00107939
0.00870607
-0.00125439
0.00905885
-0.00143872
0.00943646
0.00983473
-0.00163133
8.42377e-05
0.00197447
0.000155206
0.00466356
0.000154863
0.00615163
9.49929e-05
0.00680532
2.18835e-06
0.00709228
-0.000103674
0.00727915
-0.000218808
0.00747166
-0.000340877
0.007691
-0.000469952
0.0079405
-0.000606368
0.00821878
-0.000750515
0.00852476
-0.000902877
0.00885843
-0.00106407
0.00922004
-0.00123414
0.00960653
0.0100128
-0.00141226
9.39903e-05
0.00188048
0.000187059
0.00457049
0.000209857
0.00612883
0.0001692
0.00684598
9.24694e-05
0.00716901
-2.00229e-06
0.00737362
-0.000103727
0.00757339
-0.000213143
0.00780042
-0.000329424
0.00805678
-0.00045284
0.0083422
-0.000583693
0.00865562
-0.000722363
0.0089971
-0.000869416
0.00936709
-0.00102496
0.00976207
0.0101761
-0.00118823
0.000102752
0.00177773
0.000218013
0.00445523
0.000264936
0.00608191
0.000244542
0.00686638
0.00018388
0.00722968
0.000103998
0.0074535
1.37394e-05
0.00766364
-8.26791e-05
0.00789684
-0.000185905
0.00816001
-0.000296082
0.00845238
-0.000413392
0.00877293
-0.000538078
0.00912179
-0.000670668
0.00949968
-0.000811461
0.00990287
0.0103242
-0.000959527
0.000110346
0.00166739
0.000247659
0.00431792
0.00031967
0.0060099
0.000320722
0.00686532
0.000277029
0.00727337
0.000211275
0.00751925
0.000134658
0.00774026
5.05936e-05
0.0079809
-3.97327e-05
0.00825033
-0.000136309
0.00854895
-0.000239845
0.00887646
-0.000350281
0.00923222
-0.000468064
0.00961747
-0.000593944
0.0100287
0.0104567
-0.000726493
0.000116608
0.00155078
0.000275563
0.00415896
0.000373561
0.0059119
0.000397366
0.00684152
0.000371647
0.00729909
0.000320609
0.00757029
0.000257384
0.00780349
0.000186665
0.00805162
0.000109572
0.00832743
2.61512e-05
0.00863237
-6.33311e-05
0.00896594
-0.000159316
0.00932821
-0.000261949
0.0097201
-0.000372606
0.0101394
0.0105736
-0.000489508
0.000121394
0.00142938
0.000301263
0.00397909
0.000426047
0.00578711
0.000474002
0.00679356
0.000467412
0.00730568
0.000431786
0.00760592
0.000382263
0.00785301
0.000324868
0.00810901
0.000261278
0.00839102
0.000191808
0.00870184
0.000116252
0.0090415
3.44688e-05
0.00940999
-5.31243e-05
0.00980769
-0.000147099
0.0102334
0.0106759
-0.000249347
0.000124589
0.00130479
0.000324275
0.00377941
0.000476484
0.0056349
0.00055006
0.00671999
0.00056393
0.00729181
0.000544536
0.00762531
0.000509119
0.00788843
0.00046521
0.00815292
0.000415193
0.00844103
0.000359603
0.00875743
0.000298451
0.00910265
0.000231731
0.00947671
0.000159414
0.00988001
8.12885e-05
0.0103115
0.0107662
-9.04444e-06
0.000126118
0.00117868
0.000344099
0.00356143
0.00052414
0.00545486
0.00062486
0.00661927
0.000660706
0.00725596
0.000658536
0.00762748
0.000637717
0.00790925
0.000607511
0.00818313
0.000571176
0.00847737
0.000529587
0.00879902
0.000482907
0.00914933
0.000431118
0.0095285
0.000374258
0.00993687
0.000311707
0.0103741
0.0108337
0.000244214
0.00012595
0.00105273
0.000360173
0.0033272
0.000568198
0.00524684
0.000697597
0.00648987
0.000757127
0.00719643
0.000773384
0.00761123
0.000767786
0.00791484
0.000751551
0.00819936
0.000729023
0.0084999
0.000701529
0.00882652
0.000669402
0.00918146
0.000632696
0.00956521
0.000591522
0.00997804
0.000545878
0.0104197
0.0108839
0.000495651
0.000124115
0.000928611
0.000371978
0.00307934
0.000607765
0.00501105
0.000767326
0.00633031
0.000852437
0.00711132
0.000888576
0.00757509
0.000899
0.00790442
0.000897082
0.00820128
0.000888502
0.00850848
0.000875182
0.00883984
0.000857686
0.00919895
0.000836189
0.0095867
0.000810866
0.0100034
0.000781733
0.0104488
0.0109172
0.000748452
0.000120698
0.000807913
0.000379112
0.00282093
0.000641896
0.00474827
0.000832953
0.00613925
0.000945714
0.00699856
0.00100347
0.00751733
0.00103095
0.00787694
0.00104382
0.00818842
0.00104936
0.00850293
0.00105029
0.00883891
0.00104748
0.00920176
0.00104124
0.00959295
0.00103177
0.0100128
0.00101895
0.0104616
0.0109336
0.00100259
0.000115837
0.000692076
0.000381262
0.0025555
0.0006696
0.00445993
0.000893227
0.00591562
0.00103584
0.00685595
0.00111726
0.00743591
0.00116312
0.00783108
0.00119142
0.00816012
0.00121133
0.00848301
0.00122659
0.00882365
0.00123849
0.00918986
0.00124751
0.00958394
0.00125388
0.0100065
0.00125742
0.0104581
0.0109333
0.0012577
0.000109714
0.000582362
0.000378252
0.00228696
0.00068988
0.0041483
0.000946742
0.00565876
0.00112148
0.00668121
0.00122894
0.00732844
0.00129485
0.00776517
0.00133946
0.00811551
0.0013741
0.00844837
0.0014038
0.00879395
0.00143044
0.00916322
0.0014547
0.00955968
0.00147692
0.00998424
0.00149693
0.0104381
0.0109163
0.00151396
0.000102552
0.00047981
0.00037008
0.00201944
0.000701781
0.0038166
0.000991952
0.00536859
0.00120103
0.00647213
0.00133723
0.00719225
0.00142528
0.00767712
0.0014874
0.0080534
0.0015373
0.00839846
0.00158161
0.00874964
0.00162303
0.00912181
0.00166252
0.00952018
0.00170059
0.00994617
0.0017372
0.0104015
0.0108822
0.00177124
9.4597e-05
0.000385213
0.000356954
0.00175708
0.000704474
0.00346908
0.00102721
0.00504585
0.00127266
0.00622669
0.00144056
0.00702434
0.00155331
0.00756437
0.00163455
0.00797216
0.00170049
0.00833252
0.0017597
0.00869043
0.00181595
0.00906556
0.00187069
0.00946544
0.00192459
0.00989227
0.00197785
0.0103482
0.0108311
0.002029
8.61099e-05
0.000299104
0.000339298
0.00150389
0.000697357
0.00311102
0.00105084
0.00469237
0.00133425
0.00594328
0.00153701
0.00682158
0.0016775
0.00742388
0.00177998
0.00786968
0.00186309
0.00824941
0.00193767
0.00861586
0.00200889
0.00899434
0.00207887
0.00939546
0.00214855
0.00982259
0.00221845
0.0102783
0.0107628
0.00228676
7.7345e-05
0.000221759
0.000317748
0.00126349
0.000680171
0.0027486
0.00106122
0.00431132
0.00138345
0.00562105
0.00162425
0.00658077
0.00179603
0.0072521
0.00192247
0.00774324
0.00202435
0.00814753
0.00211503
0.00852518
0.00220146
0.00890791
0.00228673
0.00931019
0.00237213
0.00973718
0.00245863
0.0101918
0.0106774
0.00254404
6.85356e-05
0.000153223
0.000293114
0.00103891
0.000653123
0.00238859
0.00105696
0.00390748
0.00141775
0.00526026
0.00169955
0.00629898
0.00190658
0.00704506
0.00206038
0.00758945
0.00218324
0.00802466
0.00229115
0.00841728
0.00239323
0.00880583
0.00249389
0.00920953
0.00259497
0.00963611
0.00269797
0.0100888
0.0105749
0.00280042
5.98829e-05
9.33402e-05
0.000266322
0.00083247
0.000616972
0.00203794
0.00103707
0.00348738
0.00143463
0.0048627
0.00175975
0.00597387
0.00200626
0.00679855
0.00219153
0.00740418
0.00233835
0.00787784
0.00246518
0.00829045
0.00258366
0.00868735
0.00269994
0.00909324
0.00281667
0.00951938
0.00293611
0.0099694
0.0104555
0.00305547
5.15523e-05
4.17879e-05
0.000238342
0.000645681
0.000573042
0.00170324
0.00100123
0.00305919
0.00143172
0.00443222
0.00180138
0.0056042
0.00209157
0.00650836
0.00231311
0.00718265
0.00248773
0.00770322
0.00263591
0.00814227
0.00277202
0.00855125
0.0029044
0.00896086
0.00303684
0.00938694
0.00317263
0.00983361
0.0103194
0.00330877
4.36753e-05
-1.88739e-06
0.000210103
0.000479253
0.000523146
0.00139019
0.000949993
0.00263234
0.00140713
0.00397508
0.00182082
0.00519051
0.00215837
0.0061708
0.00242145
0.00691956
0.00262871
0.00749596
0.00280165
0.00796933
0.00295728
0.00839562
0.00310662
0.00881151
0.00325502
0.00923854
0.00340713
0.0096815
0.0101666
0.0035599
3.63527e-05
-3.82401e-05
0.000182425
0.000333181
0.000469414
0.0011032
0.000884972
0.00221679
0.00135986
0.0035002
0.00181454
0.00473583
0.00220196
0.00578338
0.00251203
0.0066095
0.00275769
0.0072503
0.00295993
0.00776709
0.00313795
0.00821759
0.00330573
0.00864374
0.00347063
0.00907364
0.00363914
0.00951299
0.00999739
0.00380839
2.96559e-05
-6.7896e-05
0.000155979
0.000206858
0.000414069
0.000845114
0.000808859
0.001822
0.0012902
0.00301885
0.00177964
0.00424639
0.00221735
0.00534568
0.00257934
0.0062475
0.00286991
0.00695973
0.00310729
0.00752971
0.00331183
0.00801306
0.00350041
0.00845515
0.00368287
0.00889118
0.0038681
0.00932776
0.00981166
0.00405383
2.36351e-05
-9.15311e-05
0.000131275
9.92181e-05
0.000359191
0.000617198
0.00072519
0.001456
0.00120014
0.0025439
0.00171445
0.00373208
0.00219967
0.00486046
0.0026171
0.00583007
0.00295933
0.00661749
0.00323895
0.0072501
0.00347562
0.00777639
0.00368865
0.00824212
0.00389059
0.00868925
0.00409329
0.00912506
0.00960938
0.00429557
1.83199e-05
-0.000109851
0.000108676
8.86179e-06
0.000306546
0.000419328
0.000637932
0.00112461
0.00109347
0.00208837
0.00161922
0.00320632
0.00214495
0.00433473
0.00261857
0.00535645
0.00301855
0.00621752
0.00334842
0.00692022
0.00362454
0.00750026
0.00386738
0.00799928
0.00409193
0.0084647
0.00431363
0.00890336
0.00938989
0.00453312
1.37221e-05
-0.000123573
8.84184e-05
-6.58346e-05
0.000257484
0.000250262
0.000550972
0.000831123
0.000975531
0.00166381
0.00149683
0.00268503
0.00205113
0.00378043
0.00257737
0.00483021
0.00303906
0.00575583
0.00342736
0.00653192
0.00375183
0.0071758
0.00403185
0.00771926
0.00428404
0.00821251
0.00452732
0.00866008
0.00915206
0.00476514
9.83781e-06
-0.000133411
7.06278e-05
-0.000126625
0.00021293
0.00010796
0.000467659
0.000576394
0.000852504
0.00127896
0.0013529
0.00218463
0.0019192
0.00321414
0.00248872
0.00426069
0.00301204
0.00523251
0.0034656
0.00607836
0.00384826
0.00679314
0.00417504
0.00739248
0.00446205
0.0079255
0.00473188
0.00839025
0.00889374
0.00499021
6.64749e-06
-0.000140058
5.53324e-05
-0.000175309
0.000173422
-1.01297e-05
0.000390526
0.00035929
0.000730487
0.000939002
0.00119537
0.00171974
0.00175407
0.00265544
0.0023511
0.00366366
0.00292973
0.00465388
0.0034518
0.00555628
0.00390197
0.00634298
0.0042869
0.00700755
0.00461894
0.00759345
0.00492172
0.00808747
0.00860948
0.00520598
4.11483e-06
-0.000144173
4.24702e-05
-0.000213665
0.000139161
-0.00010682
0.000321207
0.000177244
0.000614644
0.000645565
0.00103321
0.00130118
0.0015646
0.00212404
0.00216791
0.00306035
0.00278766
0.00403413
0.00337497
0.00496897
0.00389904
0.00581891
0.00435366
0.00655293
0.00474349
0.00720363
0.00509133
0.00773962
0.00829707
0.00540374
2.18632e-06
-0.000146359
3.18943e-05
-0.000243373
0.000110058
-0.000184984
0.000260493
2.68081e-05
0.000508679
0.00039738
0.000874897
0.000934958
0.00136235
0.00163659
0.00194821
0.00247448
0.00258718
0.00339516
0.00322734
0.00432882
0.00382483
0.00522142
0.00435895
0.00601881
0.00481955
0.00674302
0.00522593
0.00733325
0.00793381
0.00558918
7.95672e-07
-0.000147155
2.33812e-05
-0.000265958
8.57808e-05
-0.000247384
0.000208455
-9.58658e-05
0.000414697
0.000191137
0.00072715
0.000622504
0.00115941
0.00120433
0.00170579
0.0019281
0.00233715
0.00276381
0.00300772
0.00365825
0.0036683
0.00456085
0.00428267
0.00540443
0.00483151
0.00619419
0.00530389
0.00686087
0.00751508
0.00572262
-1.63364e-07
-0.000146992
1.66342e-05
-0.000282756
6.57982e-05
-0.000296548
0.000164588
-0.000194655
0.000333353
2.23715e-05
0.000594243
0.000361615
0.000966195
0.000832379
0.00145649
0.0014378
0.00205343
0.00216687
0.00272452
0.00298716
0.00342595
0.00385941
0.00411012
0.00472027
0.00474824
0.00555607
0.00532016
0.00628894
0.00704069
0.00579455
-8.94918e-07
-0.000146097
1.13079e-05
-0.000294959
4.94382e-05
-0.000334678
0.000127967
-0.000273184
0.00026414
-0.000113802
0.000477998
0.000147757
0.000789902
0.000520475
0.00121489
0.00101282
0.00175573
0.00162603
0.00239588
0.00234701
0.00310584
0.00314945
0.00383644
0.00398967
0.00455211
0.0048404
0.00523766
0.00560339
0.00648183
0.00579652
-1.32783e-06
-0.000144769
7.05169e-06
-0.000303338
3.59492e-05
-0.000363575
9.73989e-05
-0.000334634
0.000205734
-0.000222136
0.000378206
-2.47152e-05
0.000634116
0.000264565
0.000991691
0.00065524
0.00146299
0.00115473
0.00204607
0.00176394
0.00272839
0.00246713
0.0034708
0.00324726
0.00423465
0.00407654
0.00501513
0.00482291
0.00582219
0.00567477
-1.62473e-06
-0.000143144
3.50702e-06
-0.00030847
2.4567e-05
-0.000384635
7.15767e-05
-0.000381644
0.000156335
-0.000306894
0.000293236
-0.000161616
0.000499274
5.8527e-05
0.000792672
0.000361841
0.00118972
0.000757684
0.00169925
0.00125441
0.00232204
0.00184434
0.00303722
0.00253209
0.00380924
0.00330451
0.004645
0.00398715
0.00506602
0.00540116
-1.92131e-06
-0.000141223
3.92973e-07
-0.000310784
1.45739e-05
-0.000398816
4.92148e-05
-0.000416284
0.000113978
-0.000371657
0.000220667
-0.000268305
0.000383578
-0.000104384
0.000619146
0.000126273
0.000944259
0.000432571
0.00137389
0.000824773
0.00191596
0.00130227
0.00256983
0.00187822
0.00330828
0.00256606
0.00414388
0.00315156
0.00423857
0.00497134
-2.3052e-06
-0.000138918
-2.7684e-06
-0.000310321
5.33552e-06
-0.00040692
2.91652e-05
-0.000440114
7.67844e-05
-0.000419276
0.000157828
-0.000349348
0.00028401
-0.000230567
0.000469263
-5.89807e-05
0.000729101
0.000172734
0.00108027
0.000473607
0.00153335
0.000849188
0.00210312
0.00130845
0.00277317
0.00189602
0.00355391
0.00237081
0.0033865
0.00440598
-2.82559e-06
-0.000136092
-6.00993e-06
-0.000307137
-3.62803e-06
-0.000409302
1.04926e-05
-0.000454235
4.31436e-05
-0.000451927
0.000102218
-0.000408423
0.000197198
-0.000325546
0.000339477
-0.00020126
0.000542368
-3.0158e-05
0.000821332
0.000194643
0.00118794
0.000482579
0.00166308
0.000833312
0.00224264
0.00131646
0.0029293
0.00168415
0.00256776
0.00374804
-3.51945e-06
-0.000132573
-9.51183e-06
-0.000301144
-1.26555e-05
-0.000406159
-7.4858e-06
-0.000459404
1.18126e-05
-0.000471226
5.1769e-05
-0.000448379
0.000120037
-0.000393814
0.000225762
-0.000306985
0.000379882
-0.000184278
0.000595213
-2.06875e-05
0.000883723
0.000194069
0.00126397
0.000453061
0.00174482
0.000835612
0.00231794
0.00111102
0.00183464
0.00305106
-4.4025e-06
-0.00012817
-1.33525e-05
-0.000292194
-2.19334e-05
-0.000397578
-2.51928e-05
-0.000456145
-1.80482e-05
-0.00047837
4.96443e-06
-0.000471392
5.0048e-05
-0.000438898
0.000124475
-0.000381412
0.000236967
-0.00029677
0.00039759
-0.000181311
0.000617861
-2.62018e-05
0.000910356
0.000160566
0.00129449
0.000451476
0.00175099
0.000654524
0.00121893
0.0023667
-5.46868e-06
-0.000122702
-1.75367e-05
-0.000280126
-3.15162e-05
-0.000383598
-4.28095e-05
-0.000444852
-4.68944e-05
-0.000474286
-3.91348e-05
-0.000479151
-1.44868e-05
-0.000463546
3.28137e-05
-0.000428713
0.000109587
-0.000373544
0.000223557
-0.00029528
0.00038481
-0.000187455
0.000600667
-5.52906e-05
0.000895363
0.000156779
0.00124334
0.000306544
0.000728423
0.00173385
-6.69285e-06
-0.000116009
-2.20093e-05
-0.00026481
-4.13388e-05
-0.000364269
-6.03166e-05
-0.000425874
-7.48526e-05
-0.00045975
-8.09692e-05
-0.000473035
-7.45426e-05
-0.000469972
-5.10361e-05
-0.000452219
-5.26512e-06
-0.000419315
6.89727e-05
-0.000369518
0.000179301
-0.000297784
0.000330502
-0.000206492
0.000545186
-5.79041e-05
0.000799371
5.23591e-05
0.000354248
0.00117355
-8.03444e-06
-0.000107974
-2.66687e-05
-0.000246176
-5.12435e-05
-0.000339694
-7.75347e-05
-0.000399583
-0.00010179
-0.000435495
-0.000120564
-0.000454261
-0.000130477
-0.000460059
-0.000127959
-0.000454737
-0.000108996
-0.000438278
-6.92932e-05
-0.000409222
-3.89174e-06
-0.000363185
9.56706e-05
-0.000306054
0.000239872
-0.000202105
0.000417826
-0.000125595
8.15632e-05
0.00069051
-9.44156e-06
-9.85327e-05
-3.13791e-05
-0.000224238
-6.1007e-05
-0.000310066
-9.41724e-05
-0.000366417
-0.000127389
-0.000402278
-0.00015765
-0.000424
-0.000182179
-0.000435529
-0.000198187
-0.000438729
-0.000202661
-0.000433804
-0.000192292
-0.000419591
-0.000162005
-0.000393472
-0.000110344
-0.000357715
-2.57449e-05
-0.000286705
9.56689e-05
-0.000247009
-0.000101288
0.00027852
-1.08553e-05
-8.76775e-05
-3.59843e-05
-0.000199109
-7.03667e-05
-0.000275684
-0.00010987
-0.000326914
-0.000151221
-0.000360927
-0.000191774
-0.000383448
-0.000229245
-0.000398058
-0.000261465
-0.000406509
-0.000286169
-0.0004091
-0.000300798
-0.000404961
-0.000301831
-0.00039244
-0.000287944
-0.000371601
-0.000245065
-0.000329584
-0.000184219
-0.000307854
-0.000214707
-7.08007e-05
-1.22137e-05
-7.54637e-05
-4.03197e-05
-0.000171003
-7.90438e-05
-0.00023696
-0.000124241
-0.000281716
-0.000172806
-0.000312362
-0.000222389
-0.000333865
-0.000271106
-0.000349341
-0.000317273
-0.000360342
-0.000359186
-0.000367187
-0.000394893
-0.000369254
-0.000421862
-0.000365471
-0.00043817
-0.000355293
-0.000434105
-0.00033365
-0.000418753
-0.000323205
-0.00027574
-0.00035772
-1.34561e-05
-6.20076e-05
-4.42236e-05
-0.000140235
-8.67648e-05
-0.000194418
-0.000136902
-0.000231579
-0.000191661
-0.000257604
-0.000248931
-0.000276595
-0.000307144
-0.000291127
-0.000364991
-0.000302495
-0.000421185
-0.000310994
-0.000474233
-0.000316206
-0.000522246
-0.000317457
-0.000563224
-0.000314316
-0.000591288
-0.000305585
-0.000611435
-0.000303058
-0.000285959
-0.000601216
-1.4526e-05
-4.74816e-05
-4.75468e-05
-0.000107215
-9.32774e-05
-0.000148688
-0.000147499
-0.000177357
-0.000207338
-0.000197765
-0.00027087
-0.000213062
-0.00033677
-0.000225227
-0.000404008
-0.000235257
-0.000471601
-0.000243401
-0.000538408
-0.000249399
-0.000603001
-0.000252864
-0.000663682
-0.000253635
-0.000717203
-0.000252064
-0.000766
-0.000254261
-0.000253626
-0.000798333
-1.53746e-05
-3.2107e-05
-5.01605e-05
-7.24288e-05
-9.83651e-05
-0.000100483
-0.00015573
-0.000119992
-0.000219455
-0.000134041
-0.000287752
-0.000144765
-0.000359472
-0.000153507
-0.000433784
-0.000160945
-0.000509924
-0.000167261
-0.000587007
-0.000172315
-0.000663956
-0.000175916
-0.000739512
-0.000178079
-0.00081208
-0.000179496
-0.000883032
-0.000183309
-0.000188696
-0.000947962
-1.59631e-05
-1.61439e-05
-5.19625e-05
-3.64293e-05
-0.000101857
-5.05887e-05
-0.000161357
-6.04915e-05
-0.00022771
-6.76889e-05
-0.000299218
-7.32574e-05
-0.000374847
-7.78769e-05
-0.000453895
-8.18972e-05
-0.000535738
-8.54182e-05
-0.000619667
-8.83864e-05
-0.000704851
-9.07319e-05
-0.000790418
-9.25122e-05
-0.00087573
-9.4184e-05
-0.000961925
-9.71142e-05
-0.000101801
-0.00104882
-1.62644e-05
-5.28824e-05
-0.000103635
-0.000164216
-0.000231896
-0.000305022
-0.000382619
-0.000464046
-0.00054875
-0.000636112
-0.000725431
-0.000816055
-0.000907786
-0.00100179
-0.00109974
-0.00515153
0.000162426
-0.00525623
0.000104703
-0.00534442
8.81984e-05
-0.00539899
5.45867e-05
-0.00544512
4.61359e-05
-0.00547048
2.53689e-05
-0.00549126
2.07893e-05
-0.00549865
7.40657e-06
-0.00550341
4.75893e-06
-0.00549921
-4.18901e-06
-0.00549317
-6.03739e-06
-0.00548085
-1.2322e-05
-0.00546718
-1.36634e-05
-0.00544916
-1.80187e-05
-0.00543003
-1.91407e-05
-0.00540775
-2.22821e-05
-0.00538443
-2.33148e-05
-0.00535874
-2.57027e-05
-0.005332
-2.67342e-05
-2.87039e-05
-0.00514311
0.000325236
-0.00524808
0.000209671
-0.00533672
0.000176837
-0.00539166
0.00010953
-0.00543826
9.27359e-05
-0.00546404
5.11502e-05
-0.00548529
4.20422e-05
-0.00549314
1.52509e-05
-0.00549834
9.96241e-06
-0.00549461
-7.91961e-06
-0.00548904
-1.16107e-05
-0.00547718
-2.41813e-05
-0.00546397
-2.68684e-05
-0.00544642
-3.55714e-05
-0.00542774
-3.78226e-05
-0.00540592
-4.40991e-05
-0.00538307
-4.6171e-05
-0.00535783
-5.09429e-05
-0.00533155
-5.30122e-05
-5.69509e-05
-0.00512626
0.000488805
-0.0052318
0.000315207
-0.00532131
0.000266352
-0.005377
0.000165219
-0.00542454
0.000140279
-0.00545118
7.77839e-05
-0.00547337
6.42387e-05
-0.00548212
2.39919e-05
-0.00548822
1.60686e-05
-0.00548542
-1.07211e-05
-0.00548078
-1.62508e-05
-0.00546985
-3.511e-05
-0.00545756
-3.9157e-05
-0.00544094
-5.21946e-05
-0.00542317
-5.5592e-05
-0.00540228
-6.49923e-05
-0.00538033
-6.81173e-05
-0.00535601
-7.52658e-05
-0.00533064
-7.83833e-05
-8.42869e-05
-0.00510097
0.000653496
-0.0052074
0.000421638
-0.00529821
0.000357163
-0.00535504
0.000222052
-0.00540398
0.000189221