/*--------------------------------*- C++ -*----------------------------------*\
  =========                 |
  \\      /  F ield         | OpenFOAM: The Open Source CFD Toolbox
   \\    /   O peration     | Website:  https://openfoam.org
    \\  /    A nd           | Version:  7
     \\/     M anipulation  |
\*---------------------------------------------------------------------------*/
FoamFile
{
    version     2.0;
    format      ascii;
    class       surfaceScalarField;
    location    "10";
    object      phi;
}
// * * * * * * * * * * * * * * * * * * * * * * * * * * * * * * * * * * * * * //

dimensions      [0 3 -1 0 0 0 0];

internalField   nonuniform List<scalar> 
2641
(
-0.000570201
0.0139095
0.000564757
-0.000562899
0.0145174
-0.000545326
0.0150387
-0.000520015
0.0154679
-0.000489322
0.0158068
-0.000455268
0.0160631
-0.000419457
0.0162479
-0.000383061
0.0163738
-0.000346866
0.0164537
-0.000311346
0.0164991
-0.000276741
0.0165201
-0.000243129
0.0165246
-0.000210488
0.0165189
-0.000178735
0.0165075
-0.000147758
0.0164937
-0.000117431
0.0164798
-8.7622e-05
0.0164673
-5.82005e-05
0.0164572
-2.90362e-05
0.0164502
0.0164466
-0.000567686
0.0139152
0.00056203
-0.000560645
0.0145103
-0.000543354
0.0150214
-0.00051832
0.0154429
-0.000487879
0.0157764
-0.000454038
0.0160293
-0.000418395
0.0162122
-0.000382125
0.0163375
-0.000346023
0.0164176
-0.000310573
0.0164637
-0.000276026
0.0164856
-0.000242467
0.0164911
-0.000209882
0.0164863
-0.000178192
0.0164758
-0.000147287
0.0164628
-0.000117041
0.0164495
-8.73216e-05
0.0164376
-5.79962e-05
0.0164279
-2.89326e-05
0.0164212
0.0164177
-0.000565045
0.013921
0.000559182
-0.000558262
0.0145035
-0.000541253
0.0150044
-0.000516498
0.0154181
-0.000486311
0.0157462
-0.000452686
0.0159957
-0.000417217
0.0161768
-0.000381081
0.0163014
-0.00034508
0.0163816
-0.00030971
0.0164283
-0.000275229
0.0164511
-0.000241733
0.0164576
-0.000209214
0.0164538
-0.000177596
0.0164442
-0.000146772
0.0164319
-0.000116616
0.0164194
-8.69946e-05
0.0164079
-5.77743e-05
0.0163987
-2.88207e-05
0.0163922
0.0163889
-0.000562281
0.0139271
0.000556212
-0.000555755
0.014497
-0.000539028
0.0149877
-0.000514553
0.0153936
-0.000484624
0.0157163
-0.000451221
0.0159623
-0.000415933
0.0161415
-0.000379938
0.0162654
-0.000344048
0.0163457
-0.000308766
0.016393
-0.00027436
0.0164167
-0.000240937
0.0164242
-0.000208492
0.0164213
-0.000176955
0.0164126
-0.000146219
0.0164012
-0.000116161
0.0163893
-8.66456e-05
0.0163784
-5.75379e-05
0.0163696
-2.87011e-05
0.0163634
0.0163602
-0.000559395
0.0139334
0.000553124
-0.000553126
0.0144908
-0.000536683
0.0149712
-0.000512493
0.0153694
-0.000482826
0.0156866
-0.000449652
0.0159291
-0.000414552
0.0161064
-0.000378707
0.0162296
-0.000342936
0.0163099
-0.000307751
0.0163579
-0.000273431
0.0163824
-0.000240088
0.0163908
-0.000207724
0.016389
-0.000176276
0.0163812
-0.000145637
0.0163706
-0.000115682
0.0163593
-8.62794e-05
0.016349
-5.72899e-05
0.0163406
-2.85761e-05
0.0163347
0.0163316
-0.00055639
0.0139399
0.000549917
-0.00055038
0.0144847
-0.000534224
0.0149551
-0.000510322
0.0153455
-0.000480925
0.0156572
-0.000447986
0.0158961
-0.000413083
0.0160715
-0.000377398
0.0161939
-0.000341755
0.0162743
-0.000306676
0.0163228
-0.000272449
0.0163481
-0.000239195
0.0163576
-0.000206921
0.0163567
-0.000175567
0.0163498
-0.00014503
0.01634
-0.000115186
0.0163295
-8.58997e-05
0.0163197
-5.70334e-05
0.0163117
-2.84469e-05
0.0163061
0.0163032
-0.000553267
0.0139465
0.000546592
-0.000547518
0.014479
-0.000531654
0.0149392
-0.000508047
0.0153219
-0.000478927
0.0156281
-0.000446233
0.0158635
-0.000411535
0.0160368
-0.000376019
0.0161584
-0.000340515
0.0162388
-0.000305551
0.0162878
-0.000271426
0.016314
-0.000238267
0.0163244
-0.00020609
0.0163245
-0.000174837
0.0163186
-0.000144407
0.0163096
-0.000114676
0.0162998
-8.55112e-05
0.0162906
-5.67711e-05
0.016283
-2.83147e-05
0.0162776
0.0162749
-0.00055003
0.0139534
0.000543152
-0.000544545
0.0144735
-0.000528978
0.0149236
-0.000505674
0.0152986
-0.000476839
0.0155993
-0.000444398
0.015831
-0.000409917
0.0160023
-0.00037458
0.016123
-0.000339224
0.0162034
-0.000304385
0.016253
-0.00027037
0.01628
-0.000237315
0.0162913
-0.00020524
0.0162925
-0.000174092
0.0162874
-0.000143773
0.0162793
-0.00011416
0.0162702
-8.51181e-05
0.0162615
-5.65061e-05
0.0162544
-2.81812e-05
0.0162493
0.0162467
-0.000546678
0.0139605
0.000539597
-0.000541462
0.0144683
-0.000526199
0.0149084
-0.000503205
0.0152756
-0.000474666
0.0155707
-0.00044249
0.0157988
-0.000408236
0.015968
-0.00037309
0.0160879
-0.000337892
0.0161682
-0.000303187
0.0162183
-0.000269291
0.0162461
-0.000236346
0.0162584
-0.000204379
0.0162605
-0.000173341
0.0162564
-0.000143135
0.0162491
-0.000113642
0.0162407
-8.4724e-05
0.0162326
-5.62408e-05
0.0162259
-2.80477e-05
0.0162211
0.0162186
-0.000543214
0.0139678
0.000535928
-0.000538272
0.0144634
-0.00052332
0.0148934
-0.000500647
0.015253
-0.000472413
0.0155425
-0.000440513
0.0157669
-0.000406498
0.015934
-0.000371554
0.0160529
-0.000336525
0.0161332
-0.000301965
0.0161837
-0.000268195
0.0162123
-0.000235367
0.0162256
-0.000203513
0.0162286
-0.000172588
0.0162255
-0.000142499
0.016219
-0.000113126
0.0162113
-8.43325e-05
0.0162038
-5.59776e-05
0.0161975
-2.79156e-05
0.016193
0.0161907
-0.000539638
0.0139753
0.000532146
-0.000534975
0.0144587
-0.000520343
0.0148788
-0.000498
0.0152306
-0.000470084
0.0155146
-0.000438473
0.0157353
-0.00040471
0.0159003
-0.00036998
0.0160182
-0.000335132
0.0160983
-0.000300725
0.0161493
-0.00026709
0.0161787
-0.000234385
0.0161929
-0.000202649
0.0161969
-0.00017184
0.0161947
-0.000141869
0.016189
-0.000112616
0.016182
-8.39471e-05
0.0161751
-5.57188e-05
0.0161693
-2.77854e-05
0.0161651
0.0161629
-0.000535951
0.013983
0.000528249
-0.000531573
0.0144543
-0.000517269
0.0148645
-0.000495268
0.0152086
-0.000467683
0.015487
-0.000436374
0.015704
-0.000402876
0.0158668
-0.000368373
0.0159837
-0.000333717
0.0160637
-0.000299474
0.0161151
-0.000265982
0.0161452
-0.000233406
0.0161603
-0.000201792
0.0161653
-0.000171102
0.016164
-0.000141249
0.0161592
-0.000112117
0.0161529
-8.357e-05
0.0161466
-5.54661e-05
0.0161412
-2.76589e-05
0.0161373
0.0161353
-0.000532152
0.0139909
0.00052424
-0.000528065
0.0144502
-0.0005141
0.0148505
-0.000492452
0.015187
-0.00046521
0.0154598
-0.000434217
0.015673
-0.000400999
0.0158335
-0.000366736
0.0159494
-0.000332284
0.0160292
-0.000298215
0.016081
-0.000264874
0.0161119
-0.000232434
0.0161279
-0.000200946
0.0161338
-0.000170377
0.0161334
-0.000140644
0.0161294
-0.00011163
0.0161239
-8.32034e-05
0.0161182
-5.52209e-05
0.0161132
-2.75359e-05
0.0161096
0.0161077
-0.000528241
0.013999
0.000520116
-0.000524452
0.0144464
-0.000510834
0.0148369
-0.000489552
0.0151657
-0.000462667
0.0154329
-0.000432005
0.0156424
-0.000399081
0.0158006
-0.000365072
0.0159154
-0.000330836
0.015995
-0.000296951
0.0160471
-0.00026377
0.0160787
-0.000231472
0.0160956
-0.000200114
0.0161024
-0.000169668
0.016103
-0.000140054
0.0160998
-0.000111159
0.016095
-8.28493e-05
0.0160899
-5.49844e-05
0.0160853
-2.74174e-05
0.016082
0.0160803
-0.000524217
0.0140073
0.000515877
-0.000520732
0.0144429
-0.000507471
0.0148236
-0.000486567
0.0151448
-0.000460053
0.0154064
-0.000429737
0.015612
-0.000397121
0.015768
-0.00036338
0.0158817
-0.000329373
0.015961
-0.000295684
0.0160134
-0.000262672
0.0160457
-0.000230522
0.0160634
-0.000199298
0.0160712
-0.000168977
0.0160726
-0.000139482
0.0160703
-0.000110703
0.0160662
-8.2508e-05
0.0160617
-5.47571e-05
0.0160576
-2.73039e-05
0.0160546
0.016053
-0.000520077
0.0140159
0.000511521
-0.000516902
0.0144398
-0.000504009
0.0148108
-0.000483495
0.0151243
-0.000457367
0.0153802
-0.000427411
0.0155821
-0.000395119
0.0157357
-0.000361661
0.0158482
-0.000327897
0.0159272
-0.000294414
0.0159799
-0.000261579
0.0160128
-0.000229583
0.0160314
-0.000198498
0.0160401
-0.000168304
0.0160424
-0.000138928
0.0160409
-0.000110264
0.0160376
-8.21804e-05
0.0160336
-5.45394e-05
0.01603
-2.71953e-05
0.0160272
0.0160258
-0.000515821
0.0140247
0.000507047
-0.000512961
0.0144369
-0.000500444
0.0147982
-0.000480333
0.0151041
-0.000454605
0.0153545
-0.000425025
0.0155525
-0.000393073
0.0157038
-0.000359912
0.0158151
-0.000326404
0.0158937
-0.000293139
0.0159467
-0.00026049
0.0159802
-0.000228656
0.0159996
-0.000197713
0.0160092
-0.000167648
0.0160124
-0.000138392
0.0160117
-0.00010984
0.016009
-8.1866e-05
0.0160056
-5.43312e-05
0.0160024
-2.70916e-05
0.016
0.0159987
-0.000511444
0.0140337
0.000502452
-0.000508904
0.0144344
-0.000496773
0.0147861
-0.000477077
0.0150845
-0.000451763
0.0153292
-0.000422575
0.0155233
-0.000390978
0.0156722
-0.00035813
0.0157822
-0.000324891
0.0158605
-0.000291856
0.0159136
-0.000259403
0.0159477
-0.000227737
0.0159679
-0.000196941
0.0159784
-0.000167008
0.0159824
-0.000137872
0.0159826
-0.000109432
0.0159806
-8.15641e-05
0.0159777
-5.41318e-05
0.015975
-2.69922e-05
0.0159729
0.0159717
-0.000506943
0.0140429
0.000497734
-0.000504729
0.0144322
-0.000492992
0.0147744
-0.000473722
0.0150652
-0.000448837
0.0153043
-0.000420056
0.0154945
-0.00038883
0.0156409
-0.00035631
0.0157497
-0.000323353
0.0158275
-0.00029056
0.0158808
-0.000258313
0.0159155
-0.000226824
0.0159364
-0.00019618
0.0159477
-0.000166381
0.0159526
-0.000137366
0.0159535
-0.000109037
0.0159522
-8.12733e-05
0.01595
-5.39403e-05
0.0159477
-2.68973e-05
0.0159458
0.0159448
-0.000502316
0.0140523
0.000492891
-0.000500431
0.0144303
-0.000489095
0.014763
-0.000470263
0.0150464
-0.00044582
0.0152799
-0.000417462
0.0154662
-0.000386623
0.0156101
-0.000354445
0.0157175
-0.000321786
0.0157949
-0.000289247
0.0158483
-0.000257215
0.0158834
-0.00022591
0.0159051
-0.000195424
0.0159173
-0.000165763
0.015923
-0.000136871
0.0159247
-0.000108653
0.015924
-8.09915e-05
0.0159223
-5.37554e-05
0.0159204
-2.68058e-05
0.0159189
0.015918
-0.000497559
0.0140619
0.000487918
-0.000496005
0.0144287
-0.000485079
0.0147521
-0.000466695
0.015028
-0.000442707
0.0152559
-0.000414786
0.0154383
-0.000384348
0.0155797
-0.000352528
0.0156857
-0.000320181
0.0157625
-0.000287909
0.015816
-0.000256104
0.0158516
-0.000224991
0.015874
-0.00019467
0.0158869
-0.00016515
0.0158935
-0.000136383
0.0158959
-0.000108276
0.0158959
-8.07167e-05
0.0158948
-5.35757e-05
0.0158933
-2.6717e-05
0.015892
0.0158913
-0.000492667
0.0140718
0.000482814
-0.000491447
0.0144275
-0.000480936
0.0147416
-0.000463011
0.01501
-0.00043949
0.0152323
-0.00041202
0.0154108
-0.000382
0.0155496
-0.000350553
0.0156543
-0.000318531
0.0157305
-0.000286538
0.015784
-0.000254971
0.0158201
-0.000224059
0.0158431
-0.000193909
0.0158568
-0.000164537
0.0158641
-0.000135897
0.0158672
-0.000107903
0.0158679
-8.04457e-05
0.0158673
-5.33992e-05
0.0158662
-2.66298e-05
0.0158652
0.0158647
-0.000487636
0.0140819
0.000477574
-0.000486751
0.0144266
-0.000476661
0.0147315
-0.000459203
0.0149926
-0.000436162
0.0152093
-0.000409157
0.0153838
-0.000379568
0.01552
-0.00034851
0.0156232
-0.000316828
0.0156988
-0.000285128
0.0157523
-0.000253809
0.0157888
-0.000223108
0.0158124
-0.000193137
0.0158268
-0.000163917
0.0158349
-0.000135408
0.0158387
-0.00010753
0.01584
-8.01757e-05
0.0158399
-5.32238e-05
0.0158393
-2.65434e-05
0.0158386
0.0158381
-0.000482462
0.0140921
0.000472197
-0.000481913
0.0144261
-0.000472248
0.0147218
-0.000455266
0.0149756
-0.000432715
0.0151868
-0.000406188
0.0153573
-0.000377046
0.0154909
-0.00034639
0.0155925
-0.000315063
0.0156675
-0.000283668
0.0157209
-0.00025261
0.0157577
-0.00022213
0.0157819
-0.000192346
0.015797
-0.000163284
0.0158058
-0.000134912
0.0158104
-0.000107152
0.0158123
-7.99034e-05
0.0158127
-5.30472e-05
0.0158124
-2.64568e-05
0.015812
0.0158117
-0.000477142
0.0141026
0.000466677
-0.000476928
0.0144259
-0.000467692
0.0147126
-0.000451192
0.0149591
-0.000429142
0.0151647
-0.000403106
0.0153312
-0.000374423
0.0154622
-0.000344185
0.0155623
-0.000313226
0.0156365
-0.000282151
0.0156899
-0.000251366
0.0157269
-0.000221117
0.0157517
-0.000191528
0.0157674
-0.000162633
0.0157769
-0.000134402
0.0157821
-0.000106765
0.0157846
-7.96252e-05
0.0157856
-5.28672e-05
0.0157857
-2.63683e-05
0.0157855
0.0157853
-0.000471671
0.0141132
0.000461013
-0.00047179
0.014426
-0.000462985
0.0147038
-0.000446974
0.0149431
-0.000425435
0.0151432
-0.000399901
0.0153057
-0.000371692
0.015434
-0.000341885
0.0155325
-0.000311308
0.015606
-0.000280566
0.0156591
-0.000250066
0.0156964
-0.00022006
0.0157217
-0.000190676
0.0157381
-0.000161955
0.0157482
-0.000133873
0.015754
-0.000106365
0.0157571
-7.93372e-05
0.0157585
-5.26813e-05
0.015759
-2.62772e-05
0.0157591
0.015759
-0.000466046
0.0141241
0.000455202
-0.000466495
0.0144264
-0.000458124
0.0146954
-0.000442607
0.0149276
-0.000421587
0.0151221
-0.000396566
0.0152807
-0.000368844
0.0154063
-0.000339481
0.0155031
-0.000309301
0.0155758
-0.000278905
0.0156287
-0.000248703
0.0156662
-0.000218951
0.0156919
-0.000189783
0.0157089
-0.000161244
0.0157197
-0.000133318
0.0157261
-0.000105945
0.0157298
-7.90363e-05
0.0157316
-5.24871e-05
0.0157325
-2.61818e-05
0.0157328
0.0157329
-0.000460262
0.0141351
0.000449241
-0.00046104
0.0144272
-0.000453102
0.0146875
-0.000438085
0.0149126
-0.000417591
0.0151017
-0.000393094
0.0152562
-0.00036587
0.0153791
-0.000336965
0.0154742
-0.000307196
0.015546
-0.000277159
0.0155987
-0.000247269
0.0156363
-0.000217782
0.0156624
-0.00018884
0.0156799
-0.000160494
0.0156913
-0.000132733
0.0156984
-0.000105502
0.0157025
-7.87187e-05
0.0157048
-5.2282e-05
0.015706
-2.60814e-05
0.0157066
0.0157068
-0.000454319
0.0141463
0.000443127
-0.000455419
0.0144283
-0.000447916
0.01468
-0.000433401
0.014898
-0.00041344
0.0150817
-0.000389477
0.0152322
-0.000362762
0.0153524
-0.000334329
0.0154458
-0.000304984
0.0155167
-0.000275321
0.015569
-0.000245754
0.0156068
-0.000216546
0.0156332
-0.000187842
0.0156512
-0.000159699
0.0156632
-0.000132112
0.0156708
-0.000105032
0.0156754
-7.83808e-05
0.0156782
-5.20639e-05
0.0156797
-2.59745e-05
0.0156805
0.0156808
-0.000448212
0.0141577
0.000436859
-0.000449631
0.0144297
-0.00044256
0.0146729
-0.000428551
0.014884
-0.00040913
0.0150623
-0.000385709
0.0152088
-0.000359516
0.0153262
-0.000331566
0.0154179
-0.000302657
0.0154878
-0.000273381
0.0155398
-0.000244152
0.0155775
-0.000215235
0.0156043
-0.00018678
0.0156228
-0.000158852
0.0156352
-0.000131449
0.0156434
-0.000104529
0.0156485
-7.80195e-05
0.0156517
-5.18305e-05
0.0156535
-2.58599e-05
0.0156545
0.0156549
-0.00044194
0.0141692
0.000430436
-0.000443672
0.0144315
-0.000437033
0.0146663
-0.000423531
0.0148705
-0.000404655
0.0150434
-0.000381784
0.0151859
-0.000356122
0.0153005
-0.000328669
0.0153904
-0.00030021
0.0154593
-0.000271334
0.0155109
-0.000242456
0.0155486
-0.000213843
0.0155757
-0.000185651
0.0155946
-0.000157948
0.0156075
-0.00013074
0.0156162
-0.00010399
0.0156218
-7.76321e-05
0.0156253
-5.15798e-05
0.0156275
-2.57369e-05
0.0156287
0.0156292
-0.000435502
0.0141808
0.000423857
-0.00043754
0.0144335
-0.000431331
0.0146601
-0.000418338
0.0148575
-0.000400012
0.0150251
-0.000377699
0.0151636
-0.000352578
0.0152754
-0.000325632
0.0153635
-0.000297636
0.0154313
-0.000269174
0.0154824
-0.000240659
0.0155201
-0.000212364
0.0155474
-0.000184447
0.0155667
-0.000156981
0.0155801
-0.000129981
0.0155892
-0.000103412
0.0155952
-7.72153e-05
0.0155991
-5.13099e-05
0.0156016
-2.56042e-05
0.015603
0.0156036
-0.000428897
0.0141926
0.000417122
-0.000431236
0.0144358
-0.000425453
0.0146543
-0.000412969
0.0148451
-0.000395197
0.0150073
-0.000373449
0.0151419
-0.000348879
0.0152508
-0.00032245
0.015337
-0.00029493
0.0154038
-0.000266895
0.0154544
-0.000238758
0.015492
-0.000210793
0.0155194
-0.000183164
0.015539
-0.000155949
0.0155529
-0.000129167
0.0155624
-0.000102791
0.0155688
-7.67671e-05
0.0155731
-5.10193e-05
0.0155758
-2.54615e-05
0.0155774
0.0155781
-0.000422127
0.0142045
0.000410231
-0.000424758
0.0144385
-0.000419397
0.0146489
-0.000407424
0.0148331
-0.000390208
0.0149901
-0.000369031
0.0151207
-0.000345021
0.0152268
-0.000319121
0.0153111
-0.000292088
0.0153767
-0.000264493
0.0154268
-0.000236747
0.0154643
-0.000209126
0.0154918
-0.000181798
0.0155117
-0.000154847
0.0155259
-0.000128296
0.0155358
-0.000102126
0.0155427
-7.62855e-05
0.0155473
-5.07065e-05
0.0155502
-2.53074e-05
0.015552
0.0155528
-0.00041519
0.0142165
0.000403187
-0.000418107
0.0144414
-0.000413165
0.014644
-0.000401701
0.0148216
-0.000385046
0.0149734
-0.000364446
0.0151001
-0.000341003
0.0152034
-0.000315643
0.0152858
-0.000289108
0.0153502
-0.000261965
0.0153996
-0.000234623
0.0154369
-0.00020736
0.0154645
-0.000180347
0.0154847
-0.000153672
0.0154992
-0.000127366
0.0155095
-0.000101412
0.0155167
-7.57685e-05
0.0155216
-5.03705e-05
0.0155248
-2.51421e-05
0.0155268
0.0155277
-0.000408091
0.0142286
0.00039599
-0.000411285
0.0144446
-0.000406758
0.0146395
-0.000395802
0.0148107
-0.000379709
0.0149573
-0.000359691
0.0150801
-0.000336823
0.0151805
-0.000312012
0.015261
-0.000285988
0.0153242
-0.00025931
0.015373
-0.000232385
0.01541
-0.000205493
0.0154376
-0.000178808
0.015458
-0.000152423
0.0154728
-0.000126373
0.0154835
-0.00010065
0.015491
-7.52153e-05
0.0154962
-5.00103e-05
0.0154996
-2.49644e-05
0.0155017
0.0155027
-0.000400831
0.0142408
0.000388644
-0.000404295
0.014448
-0.000400178
0.0146353
-0.000389729
0.0148002
-0.000374201
0.0149418
-0.000354769
0.0150606
-0.000332484
0.0151582
-0.000308231
0.0152367
-0.000282727
0.0152987
-0.000256526
0.0153468
-0.000230031
0.0153835
-0.000203523
0.0154111
-0.000177179
0.0154317
-0.000151098
0.0154468
-0.000125318
0.0154577
-9.98383e-05
0.0154655
-7.46249e-05
0.015471
-4.96254e-05
0.0154746
-2.47746e-05
0.0154769
0.0154779
-0.000393416
0.014253
0.000381154
-0.000397141
0.0144518
-0.000393429
0.0146316
-0.000383486
0.0147903
-0.000368522
0.0149268
-0.000349682
0.0150418
-0.000327985
0.0151365
-0.000304299
0.015213
-0.000279327
0.0152737
-0.000253614
0.0153211
-0.000227562
0.0153574
-0.000201451
0.015385
-0.000175461
0.0154057
-0.000149696
0.015421
-0.0001242
0.0154322
-9.89758e-05
0.0154403
-7.39967e-05
0.015446
-4.92154e-05
0.0154499
-2.45723e-05
0.0154522
0.0154534
-0.00038585
0.0142653
0.000373525
-0.000389828
0.0144557
-0.000386516
0.0146283
-0.000377076
0.0147808
-0.000362678
0.0149124
-0.000344433
0.0150235
-0.000323331
0.0151154
-0.00030022
0.0151899
-0.00027579
0.0152493
-0.000250576
0.0152958
-0.000224978
0.0153318
-0.000199276
0.0153593
-0.000173654
0.0153801
-0.000148218
0.0153956
-0.000123018
0.015407
-9.80629e-05
0.0154153
-7.33308e-05
0.0154213
-4.87804e-05
0.0154253
-2.43575e-05
0.0154278
0.015429
-0.00037814
0.0142777
0.000365762
-0.000382363
0.01446
-0.000379445
0.0146254
-0.000370505
0.0147719
-0.000356674
0.0148986
-0.000339027
0.0150059
-0.000318526
0.0150949
-0.000295998
0.0151674
-0.000272117
0.0152254
-0.000247414
0.0152711
-0.000222281
0.0153067
-0.000197001
0.015334
-0.000171758
0.0153548
-0.000146664
0.0153705
-0.000121774
0.0153821
-9.70999e-05
0.0153907
-7.26276e-05
0.0153968
-4.83204e-05
0.015401
-2.413e-05
0.0154036
0.0154049
-0.000370293
0.0142901
0.000357873
-0.000374753
0.0144644
-0.000372223
0.0146229
-0.000363781
0.0147634
-0.000350517
0.0148853
-0.00033347
0.0149888
-0.000313575
0.015075
-0.000291636
0.0151454
-0.000268315
0.0152021
-0.000244131
0.015247
-0.000219476
0.0152821
-0.000194628
0.0153092
-0.000169777
0.01533
-0.000145037
0.0153457
-0.000120468
0.0153575
-9.6088e-05
0.0153663
-7.18874e-05
0.0153726
-4.7836e-05
0.0153769
-2.38903e-05
0.0153797
0.015381
-0.00036232
0.0143026
0.000349866
-0.000367007
0.0144691
-0.00036486
0.0146207
-0.000356913
0.0147555
-0.000344215
0.0148727
-0.000327769
0.0149724
-0.000308484
0.0150557
-0.000287142
0.0151241
-0.000264388
0.0151793
-0.000240733
0.0152233
-0.000216565
0.0152579
-0.000192161
0.0152848
-0.000167713
0.0153055
-0.000143339
0.0153213
-0.000119102
0.0153333
-9.50285e-05
0.0153422
-7.11119e-05
0.0153487
-4.73278e-05
0.0153532
-2.36389e-05
0.015356
0.0153574
-0.000354229
0.0143151
0.000341753
-0.000359136
0.014474
-0.000357366
0.014619
-0.000349909
0.014748
-0.000337776
0.0148605
-0.000321935
0.0149566
-0.000303264
0.015037
-0.000282523
0.0151034
-0.000260343
0.0151571
-0.000237226
0.0152002
-0.000213554
0.0152342
-0.000189605
0.0152608
-0.00016557
0.0152815
-0.000141572
0.0152974
-0.00011768
0.0153094
-9.39234e-05
0.0153184
-7.03019e-05
0.015325
-4.67966e-05
0.0153297
-2.33755e-05
0.0153326
0.015334
-0.000346034
0.0143276
0.000333544
-0.000351153
0.0144791
-0.000349753
0.0146176
-0.000342783
0.0147411
-0.000331213
0.0148489
-0.000315976
0.0149413
-0.000297921
0.015019
-0.000277787
0.0150832
-0.000256188
0.0151355
-0.000233616
0.0151776
-0.000210449
0.015211
-0.000186963
0.0152374
-0.000163352
0.0152579
-0.000139742
0.0152737
-0.000116204
0.0152859
-9.2775e-05
0.015295
-6.94593e-05
0.0153017
-4.62437e-05
0.0153064
-2.31011e-05
0.0153094
0.0153109
-0.000337751
0.0143401
0.000325257
-0.000343074
0.0144845
-0.000342037
0.0146165
-0.000335549
0.0147346
-0.000324539
0.0148379
-0.000309907
0.0149267
-0.00029247
0.0150016
-0.000272946
0.0150637
-0.000251933
0.0151145
-0.000229913
0.0151556
-0.000207258
0.0151884
-0.000184244
0.0152143
-0.000161066
0.0152347
-0.000137851
0.0152505
-0.000114678
0.0152627
-9.15864e-05
0.0152719
-6.85867e-05
0.0152787
-4.56705e-05
0.0152835
-2.28158e-05
0.0152866
0.0152881
-0.000329413
0.0143526
0.000316924
-0.000334929
0.01449
-0.000334248
0.0146158
-0.000328235
0.0147286
-0.000317782
0.0148275
-0.000303751
0.0149127
-0.000286932
0.0149847
-0.00026802
0.0150448
-0.000247596
0.0150941
-0.000226132
0.0151341
-0.000203996
0.0151663
-0.00018146
0.0151918
-0.000158721
0.015212
-0.00013591
0.0152277
-0.000113109
0.0152399
-9.0363e-05
0.0152492
-6.76877e-05
0.0152561
-4.50797e-05
0.0152609
-2.25197e-05
0.015264
0.0152655
-0.000321133
0.014365
0.000308658
-0.000326831
0.0144957
-0.000326494
0.0146155
-0.000320945
0.014723
-0.000311038
0.0148176
-0.0002976
0.0148992
-0.000281393
0.0149685
-0.000263086
0.0150265
-0.000243246
0.0150743
-0.000222336
0.0151132
-0.000200715
0.0151446
-0.000178657
0.0151697
-0.000156357
0.0151897
-0.000133951
0.0152053
-0.000111525
0.0152175
-8.91267e-05
0.0152268
-6.67785e-05
0.0152337
-4.44827e-05
0.0152386
-2.22193e-05
0.0152417
0.0152433
-0.000313888
0.000301439
-0.000319721
-0.000319664
-0.000314505
-0.000305065
-0.000292139
-0.000276463
-0.000258687
-0.000239363
-0.000218941
-0.000197778
-0.000176144
-0.000154236
-0.000132192
-0.0001101
-8.80148e-05
-6.59615e-05
-4.39472e-05
-2.19817e-05
0.0108126
0.000526051
0.010854
0.00052327
0.0108957
0.000520375
0.0109375
0.000517367
0.0109795
0.000514246
0.0110216
0.000511012
0.0110638
0.000507667
0.0111062
0.00050421
0.0111487
0.000500644
0.0111914
0.000496969
0.0112341
0.000493184
0.011277
0.000489291
0.0113199
0.00048529
0.011363
0.00048118
0.0114061
0.00047696
0.0114494
0.000472631
0.0114927
0.00046819
0.0115361
0.000463637
0.0115796
0.00045897
0.0116231
0.000454187
0.0116667
0.000449286
0.0117104
0.000444265
0.0117541
0.000439121
0.0117978
0.000433853
0.0118416
0.000428457
0.0118853
0.000422931
0.011929
0.000417274
0.0119728
0.000411483
0.0120164
0.000405557
0.0120601
0.000399494
0.0121036
0.000393292
0.0121471
0.000386952
0.0121905
0.000380473
0.0122338
0.000373855
0.0122769
0.0003671
0.0123199
0.000360208
0.0123627
0.000353183
0.0124053
0.000346028
0.0124477
0.000338745
0.0124899
0.000331341
0.0125318
0.00032382
0.0125735
0.00031619
0.0126149
0.000308457
0.0126561
0.000300631
0.0126969
0.000292721
0.0127374
0.000284744
0.0127776
0.000276728
0.0128175
0.000268779
0.000261889
0.0106123
0.000479588
0.0106589
0.000476733
0.0107055
0.000473773
0.0107521
0.000470708
0.0107988
0.00046754
0.0108456
0.000464267
0.0108923
0.00046089
0.0109391
0.000457411
0.010986
0.00045383
0.0110328
0.000450147
0.0110796
0.000446362
0.0111264
0.000442477
0.0111732
0.00043849
0.01122
0.000434403
0.0112667
0.000430214
0.0113134
0.000425924
0.0113601
0.000421531
0.0114067
0.000417035
0.0114532
0.000412435
0.0114997
0.000407729
0.0115461
0.000402916
0.0115923
0.000397994
0.0116385
0.000392963
0.0116845
0.00038782
0.0117304
0.000382563
0.0117762
0.000377192
0.0118217
0.000371705
0.0118671
0.0003661
0.0119123
0.000360376
0.0119573
0.000354533
0.012002
0.000348571
0.0120464
0.000342487
0.0120906
0.000336284
0.0121345
0.000329962
0.0121781
0.000323521
0.0122213
0.000316965
0.0122642
0.000310293
0.0123068
0.000303511
0.0123489
0.000296621
0.0123906
0.000289628
0.0124319
0.000282536
0.0124727
0.000275351
0.0125131
0.00026808
0.012553
0.000260728
0.0125924
0.000253306
0.0126313
0.000245826
0.0126697
0.000238312
0.0127077
0.000230865
0.000224456
0.0102586
0.000427518
0.0103134
0.000424826
0.0103681
0.000422041
0.0104227
0.000419161
0.0104772
0.000416188
0.0105316
0.000413121
0.0105859
0.00040996
0.0106401
0.000406706
0.0106942
0.00040336
0.0107481
0.000399922
0.0108018
0.000396392
0.0108554
0.000392771
0.0109088
0.000389059
0.0109621
0.000385257
0.0110151
0.000381365
0.0110679
0.000377383
0.0111205
0.00037331
0.0111729
0.000369146
0.0112251
0.000364891
0.011277
0.000360545
0.0113286
0.000356106
0.0113799
0.000351574
0.011431
0.000346948
0.0114817
0.000342226
0.0115321
0.000337409
0.0115822
0.000332495
0.0116319
0.000327483
0.0116812
0.000322372
0.0117302
0.000317162
0.0117787
0.000311852
0.0118268
0.000306441
0.0118744
0.00030093
0.0119216
0.000295319
0.0119683
0.000289608
0.0120144
0.000283798
0.0120601
0.00027789
0.0121051
0.000271886
0.0121496
0.000265789
0.0121936
0.0002596
0.0122369
0.000253323
0.0122795
0.000246962
0.0123215
0.00024052
0.0123629
0.000234002
0.0124036
0.000227413
0.0124435
0.000220758
0.0124828
0.000214045
0.0125213
0.000207284
0.0125591
0.000200496
0.0125962
0.000193771
0.000188019
0.00988349
0.000362006
0.00994877
0.000359545
0.0100138
0.000357003
0.0100786
0.00035438
0.0101431
0.000351676
0.0102073
0.000348892
0.0102713
0.000346027
0.0103349
0.000343083
0.0103982
0.000340059
0.0104612
0.000336956
0.0105238
0.000333774
0.010586
0.000330515
0.0106479
0.000327179
0.0107094
0.000323765
0.0107705
0.000320275
0.0108312
0.000316708
0.0108914
0.000313065
0.0109512
0.000309346
0.0110106
0.000305551
0.0110694
0.000301679
0.0111278
0.00029773
0.0111857
0.000293704
0.011243
0.000289601
0.0112998
0.000285419
0.0113561
0.000281159
0.0114117
0.00027682
0.0114668
0.000272401
0.0115213
0.000267903
0.0115751
0.000263324
0.0116283
0.000258666
0.0116808
0.000253926
0.0117327
0.000249107
0.0117838
0.000244208
0.0118341
0.00023923
0.0118838
0.000234173
0.0119326
0.00022904
0.0119807
0.000223831
0.0120279
0.000218548
0.0120743
0.000213194
0.0121199
0.000207771
0.0121646
0.000202282
0.0122083
0.000196731
0.0122512
0.00019112
0.0122932
0.000185454
0.0123342
0.000179736
0.0123743
0.000173971
0.0124134
0.000168169
0.0124515
0.000162347
0.0124887
0.00015658
0.000151674
0.00948695
0.000284928
0.00956362
0.000282877
0.00963986
0.000280762
0.00971566
0.000278581
0.009791
0.000276336
0.00986587
0.000274027
0.00994024
0.000271654
0.0100141
0.000269217
0.0100874
0.000266717
0.0101602
0.000264154
0.0102325
0.000261529
0.0103042
0.000258842
0.0103753
0.000256094
0.0104457
0.000253285
0.0105156
0.000250416
0.0105848
0.000247487
0.0106534
0.000244498
0.0107213
0.00024145
0.0107885
0.000238343
0.010855
0.000235176
0.0109208
0.00023195
0.0109858
0.000228665
0.0110501
0.00022532
0.0111136
0.000221916
0.0111763
0.000218452
0.0112382
0.000214927
0.0112992
0.000211343
0.0113595
0.000207699
0.0114188
0.000203995
0.0114772
0.00020023
0.0115347
0.000196405
0.0115913
0.000192521
0.011647
0.000188577
0.0117016
0.000184575
0.0117553
0.000180515
0.0118079
0.000176398
0.0118595
0.000172226
0.0119101
0.000167999
0.0119595
0.000163721
0.0120079
0.000159392
0.0120552
0.000155015
0.0121013
0.000150592
0.0121463
0.000146127
0.0121901
0.00014162
0.0122328
0.000137076
0.0122743
0.000132497
0.0123146
0.000127891
0.0123536
0.00012327
0.0123915
0.000118693
0.000114818
0.00912262
0.000197052
0.00920992
0.000195577
0.00929663
0.000194056
0.00938272
0.000192491
0.00946818
0.00019088
0.00955298
0.000189224
0.00963711
0.000187523
0.00972055
0.000185778
0.00980328
0.000183988
0.00988528
0.000182155
0.00996653
0.000180278
0.010047
0.000178359
0.0101267
0.000176397
0.0102056
0.000174394
0.0102837
0.000172348
0.0103609
0.000170262
0.0104373
0.000168134
0.0105127
0.000165965
0.0105873
0.000163756
0.010661
0.000161507
0.0107337
0.000159217
0.0108055
0.000156887
0.0108763
0.000154517
0.0109461
0.000152107
0.0110149
0.000149656
0.0110827
0.000147166
0.0111494
0.000144635
0.011215
0.000142064
0.0112796
0.000139452
0.011343
0.000136801
0.0114053
0.00013411
0.0114664
0.00013138
0.0115264
0.00012861
0.0115852
0.000125802
0.0116427
0.000122956
0.0116991
0.000120073
0.0117541
0.000117153
0.0118079
0.000114198
0.0118604
0.00011121
0.0119116
0.000108188
0.0119615
0.000105135
0.0120101
0.000102053
0.0120572
9.89424e-05
0.0121031
9.58055e-05
0.0121475
9.26437e-05
0.0121905
8.94592e-05
0.0122322
8.62567e-05
0.0122724
8.30447e-05
0.0123112
7.98644e-05
7.71801e-05
0.00874713
0.000101559
0.00884337
0.00010081
0.00893891
0.000100038
0.00903373
9.92428e-05
0.00912779
9.84241e-05
0.00922109
9.75819e-05
0.0093136
9.67164e-05
0.00940529
9.58278e-05
0.00949616
9.49163e-05
0.00958616
9.3982e-05
0.00967529
9.30253e-05
0.00976352
9.20464e-05
0.00985084
9.10454e-05
0.00993721
9.00228e-05
0.0100226
8.89787e-05
0.0101071
8.79133e-05
0.0101905
8.68269e-05
0.0102729
8.57196e-05
0.0103543
8.45916e-05
0.0104346
8.34429e-05
0.0105138
8.22739e-05
0.010592
8.10844e-05
0.010669
7.98746e-05
0.0107448
7.86446e-05
0.0108196
7.73943e-05
0.0108931
7.61239e-05
0.0109654
7.48333e-05
0.0110365
7.35225e-05
0.0111064
7.21917e-05
0.011175
7.08409e-05
0.0112424
6.94701e-05
0.0113084
6.80796e-05
0.0113731
6.66695e-05
0.0114365
6.52399e-05
0.0114985
6.37913e-05
0.0115591
6.23238e-05
0.0116183
6.0838e-05
0.0116762
5.93343e-05
0.0117325
5.78132e-05
0.0117875
5.62754e-05
0.0118409
5.47216e-05
0.0118929
5.31524e-05
0.0119434
5.15686e-05
0.0119924
4.99711e-05
0.0120398
4.83605e-05
0.0120857
4.67377e-05
0.0121301
4.51037e-05
0.0121729
4.34608e-05
0.0122141
4.18132e-05
0.0122538
4.0182e-05
3.88081e-05
0.00859102
0.00869183
0.00879187
0.00889111
0.00898953
0.00908711
0.00918383
0.00927965
0.00937457
0.00946855
0.00956158
0.00965362