/*--------------------------------*- C++ -*----------------------------------*\
  =========                 |
  \\      /  F ield         | OpenFOAM: The Open Source CFD Toolbox
   \\    /   O peration     | Website:  https://openfoam.org
    \\  /    A nd           | Version:  7
     \\/     M anipulation  |
\*---------------------------------------------------------------------------*/
FoamFile
{
    version     2.0;
    format      ascii;
    class       volScalarField;
    location    "45";
    object      p;
}
// * * * * * * * * * * * * * * * * * * * * * * * * * * * * * * * * * * * * * //

dimensions      [0 2 -2 0 0 0 0];

internalField   nonuniform List<scalar> 
1360
(
-0.121838
-0.117496
-0.113288
-0.109214
-0.105271
-0.101459
-0.0977745
-0.0942165
-0.0907821
-0.0874684
-0.0842728
-0.0811921
-0.0782233
-0.0753631
-0.0726083
-0.0699556
-0.0674018
-0.0649434
-0.0625773
-0.0603001
-0.0581087
-0.0559999
-0.0539706
-0.0520177
-0.0501384
-0.0483296
-0.0465886
-0.0449127
-0.0432992
-0.0417455
-0.0402492
-0.0388078
-0.0374192
-0.036081
-0.0347911
-0.0335474
-0.032348
-0.031191
-0.0300746
-0.028997
-0.0279565
-0.0269516
-0.0259807
-0.0250424
-0.0241352
-0.0232579
-0.022409
-0.0215875
-0.0207922
-0.0200219
-0.122542
-0.118177
-0.113947
-0.109851
-0.105888
-0.102055
-0.098352
-0.0947752
-0.0913225
-0.0879912
-0.0847784
-0.0816811
-0.0786961
-0.0758203
-0.0730504
-0.070383
-0.0678149
-0.0653428
-0.0629633
-0.0606732
-0.0584693
-0.0563484
-0.0543074
-0.0523432
-0.0504529
-0.0486335
-0.0468823
-0.0451965
-0.0435734
-0.0420105
-0.0405052
-0.0390553
-0.0376583
-0.036312
-0.0350144
-0.0337632
-0.0325566
-0.0313926
-0.0302694
-0.0291853
-0.0281385
-0.0271275
-0.0261507
-0.0252067
-0.024294
-0.0234113
-0.0225574
-0.0217309
-0.0209308
-0.0201558
-0.123891
-0.119486
-0.115217
-0.111083
-0.107082
-0.103214
-0.0994754
-0.0958643
-0.0923782
-0.0890143
-0.0857697
-0.0826414
-0.0796262
-0.076721
-0.0739224
-0.0712272
-0.068632
-0.0661335
-0.0637284
-0.0614134
-0.0591854
-0.057041
-0.0549773
-0.052991
-0.0510794
-0.0492393
-0.0474681
-0.0457628
-0.044121
-0.0425399
-0.0410171
-0.0395501
-0.0381366
-0.0367745
-0.0354614
-0.0341953
-0.0329743
-0.0317964
-0.0306598
-0.0295626
-0.0285033
-0.0274801
-0.0264915
-0.0255361
-0.0246125
-0.0237192
-0.0228549
-0.0220185
-0.0212087
-0.0204245
-0.0196647
-0.121329
-0.117012
-0.112832
-0.108785
-0.104872
-0.101089
-0.0974334
-0.093904
-0.0904973
-0.0872107
-0.084041
-0.0809852
-0.07804
-0.0752022
-0.0724686
-0.0698358
-0.0673005
-0.0648595
-0.0625094
-0.0602471
-0.0580694
-0.0559732
-0.0539553
-0.0520129
-0.0501429
-0.0483425
-0.0466091
-0.0449398
-0.0433321
-0.0417835
-0.0402915
-0.0388538
-0.0374681
-0.0361322
-0.0348441
-0.0336017
-0.0324032
-0.0312465
-0.0301299
-0.0290518
-0.0280105
-0.0270044
-0.026032
-0.0250918
-0.0241826
-0.0233029
-0.0224516
-0.0216274
-0.0208291
-0.0200558
-0.123595
-0.119233
-0.115006
-0.110914
-0.106954
-0.103124
-0.0994223
-0.0958458
-0.0923921
-0.0890583
-0.0858416
-0.0827389
-0.0797472
-0.0768632
-0.0740838
-0.0714058
-0.0688259
-0.0663409
-0.0639476
-0.0616429
-0.0594235
-0.0572864
-0.0552286
-0.0532471
-0.051339
-0.0495014
-0.0477317
-0.046027
-0.0443849
-0.0428028
-0.0412782
-0.0398089
-0.0383924
-0.0370268
-0.0357097
-0.0344392
-0.0332133
-0.0320302
-0.030888
-0.0297851
-0.0287197
-0.0276902
-0.0266952
-0.0257332
-0.0248027
-0.0239025
-0.0230313
-0.0221878
-0.0213709
-0.0205794
-0.121703
-0.117445
-0.113318
-0.109322
-0.105454
-0.101711
-0.0980922
-0.0945946
-0.0912156
-0.0879526
-0.0848028
-0.0817634
-0.0788312
-0.0760034
-0.0732768
-0.0706485
-0.0681152
-0.065674
-0.0633218
-0.0610554
-0.058872
-0.0567686
-0.0547421
-0.0527899
-0.0509092
-0.0490971
-0.047351
-0.0456684
-0.0440468
-0.0424836
-0.0409767
-0.0395236
-0.0381223
-0.0367705
-0.0354663
-0.0342077
-0.0329927
-0.0318196
-0.0306866
-0.0295921
-0.0285344
-0.0275119
-0.0265233
-0.025567
-0.0246418
-0.0237463
-0.0228793
-0.0220397
-0.0212261
-0.120226
-0.11607
-0.112041
-0.108136
-0.104355
-0.100694
-0.0971525
-0.0937275
-0.0904167
-0.0872176
-0.0841276
-0.0811439
-0.0782638
-0.0754844
-0.0728028
-0.0702163
-0.0677217
-0.0653163
-0.0629971
-0.0607613
-0.058606
-0.0565283
-0.0545255
-0.052595
-0.050734
-0.0489399
-0.0472101
-0.0455424
-0.0439341
-0.042383
-0.0408869
-0.0394435
-0.0380507
-0.0367065
-0.035409
-0.0341561
-0.0329462
-0.0317773
-0.0306479
-0.0295563
-0.028501
-0.0274804
-0.0264931
-0.0255378
-0.0246131
-0.0237178
-0.0228506
-0.0220104
-0.0211961
-0.11907
-0.115057
-0.111159
-0.107375
-0.103703
-0.100143
-0.0966926
-0.0933503
-0.0901144
-0.0869828
-0.0839535
-0.0810243
-0.0781929
-0.0754569
-0.0728138
-0.0702612
-0.0677965
-0.0654171
-0.0631205
-0.0609041
-0.0587653
-0.0567015
-0.0547103
-0.0527891
-0.0509356
-0.0491471
-0.0474215
-0.0457564
-0.0441495
-0.0425986
-0.0411016
-0.0396565
-0.0382611
-0.0369136
-0.0356121
-0.0343548
-0.0331398
-0.0319656
-0.0308304
-0.0297327
-0.028671
-0.0276438
-0.0266498
-0.0256875
-0.0247558
-0.0238533
-0.022979
-0.0221316
-0.115389
-0.11156
-0.107838
-0.104222
-0.100712
-0.0973059
-0.0940033
-0.0908024
-0.0877016
-0.084699
-0.0817929
-0.0789812
-0.0762617
-0.0736323
-0.0710906
-0.0686344
-0.0662613
-0.0639689
-0.0617548
-0.0596166
-0.0575519
-0.0555584
-0.0536335
-0.0517751
-0.0499808
-0.0482484
-0.0465757
-0.0449604
-0.0434005
-0.0418939
-0.0404386
-0.0390327
-0.0376743
-0.0363615
-0.0350925
-0.0338658
-0.0326795
-0.0315322
-0.0304222
-0.0293482
-0.0283086
-0.0273021
-0.0263274
-0.0253832
-0.0244683
-0.0235816
-0.0227219
-0.0218882
-0.112646
-0.109123
-0.105686
-0.102335
-0.0990715
-0.0958941
-0.0928031
-0.089798
-0.0868779
-0.0840421
-0.0812894
-0.0786186
-0.0760284
-0.0735172
-0.0710835
-0.0687256
-0.0664418
-0.0642303
-0.0620893
-0.0600168
-0.0580111
-0.0560702
-0.0541921
-0.0523751
-0.0506171
-0.0489163
-0.0472709
-0.0456791
-0.0441389
-0.0426487
-0.0412067
-0.0398113
-0.0384607
-0.0371535
-0.0358879
-0.0346625
-0.0334759
-0.0323265
-0.0312131
-0.0301342
-0.0290886
-0.0280751
-0.0270923
-0.0261393
-0.0252148
-0.0243178
-0.0234472
-0.0226021
-0.110055
-0.106818
-0.103648
-0.100546
-0.0975137
-0.0945513
-0.0916598
-0.0888395
-0.0860906
-0.0834129
-0.080806
-0.0782696
-0.0758029
-0.0734051
-0.0710752
-0.0688121
-0.0666148
-0.0644819
-0.0624121
-0.060404
-0.0584562
-0.0565673
-0.0547357
-0.0529599
-0.0512385
-0.0495697
-0.0479522
-0.0463845
-0.0448649
-0.043392
-0.0419643
-0.0405804
-0.0392388
-0.0379382
-0.0366771
-0.0354543
-0.0342684
-0.0331182
-0.0320024
-0.0309198
-0.0298693
-0.0288498
-0.02786
-0.0268991
-0.0259659
-0.0250595
-0.0241789
-0.0233232
-0.107077
-0.104148
-0.101266
-0.0984326
-0.0956507
-0.0929219
-0.0902479
-0.0876299
-0.0850688
-0.0825652
-0.0801196
-0.0777323
-0.0754032
-0.0731321
-0.0709187
-0.0687627
-0.0666633
-0.0646199
-0.0626317
-0.0606978
-0.0588172
-0.056989
-0.055212
-0.0534852
-0.0518075
-0.0501775
-0.0485943
-0.0470565
-0.0455629
-0.0441124
-0.0427038
-0.0413358
-0.0400073
-0.0387171
-0.037464
-0.036247
-0.0350648
-0.0339164
-0.0328007
-0.0317166
-0.0306632
-0.0296394
-0.0286443
-0.0276769
-0.0267364
-0.0258217
-0.0249321
-0.0240667
-0.103862
-0.101244
-0.0986542
-0.0960949
-0.0935695
-0.091081
-0.0886314
-0.0862229
-0.083857
-0.0815353
-0.0792587
-0.0770282
-0.0748445
-0.0727079
-0.0706189
-0.0685773
-0.0665834
-0.0646368
-0.0627372
-0.0608844
-0.0590778
-0.0573167
-0.0556007
-0.0539289
-0.0523006
-0.050715
-0.0491713
-0.0476686
-0.046206
-0.0447825
-0.0433973
-0.0420494
-0.0407379
-0.0394618
-0.0382203
-0.0370122
-0.0358368
-0.0346931
-0.0335803
-0.0324973
-0.0314434
-0.0304176
-0.0294192
-0.0284473
-0.0275011
-0.0265798
-0.0256827
-0.0248089
-0.100529
-0.098215
-0.0959108
-0.093621
-0.0913491
-0.0890987
-0.0868725
-0.0846734
-0.0825036
-0.080365
-0.0782594
-0.0761882
-0.0741527
-0.072154
-0.0701927
-0.0682695
-0.0663849
-0.0645392
-0.0627326
-0.0609651
-0.0592367
-0.0575473
-0.0558964
-0.054284
-0.0527094
-0.0511724
-0.0496723
-0.0482086
-0.0467808
-0.0453882
-0.0440301
-0.0427058
-0.0414148
-0.0401561
-0.0389292
-0.0377332
-0.0365675
-0.0354313
-0.0343239
-0.0332446
-0.0321925
-0.0311671
-0.0301675
-0.0291931
-0.0282432
-0.0273171
-0.0264142
-0.0255337
-0.0971709
-0.0951452
-0.0931143
-0.0910828
-0.0890549
-0.0870346
-0.0850253
-0.0830301
-0.0810519
-0.0790931
-0.077156
-0.0752425
-0.0733543
-0.0714928
-0.0696595
-0.0678553
-0.0660811
-0.0643378
-0.0626258
-0.0609456
-0.0592977
-0.0576821
-0.056099
-0.0545485
-0.0530305
-0.0515448
-0.0500912
-0.0486695
-0.0472794
-0.0459204
-0.0445923
-0.0432946
-0.0420267
-0.0407882
-0.0395786
-0.0383974
-0.037244
-0.0361178
-0.0350182
-0.0339448
-0.0328969
-0.0318739
-0.0308753
-0.0299005
-0.0289488
-0.0280198
-0.0271128
-0.0262273
-0.0938694
-0.0921124
-0.0903369
-0.0885479
-0.08675
-0.0849473
-0.0831438
-0.081343
-0.0795481
-0.0777619
-0.075987
-0.0742259
-0.0724805
-0.0707529
-0.0690445
-0.067357
-0.0656916
-0.0640494
-0.0624314
-0.0608383
-0.0592708
-0.0577296
-0.056215
-0.0547273
-0.0532669
-0.0518339
-0.0504283
-0.0490502
-0.0476995
-0.0463762
-0.0450799
-0.0438106
-0.0425679
-0.0413517
-0.0401615
-0.038997
-0.0378579
-0.0367438
-0.0356541
-0.0345887
-0.0335469
-0.0325283
-0.0315325
-0.0305591
-0.0296075
-0.0286773
-0.027768
-0.0268792
-0.0906885
-0.0891777
-0.0876371
-0.086072
-0.084487
-0.0828868
-0.0812753
-0.0796564
-0.0780336
-0.07641
-0.0747885
-0.0731719
-0.0715625
-0.0699626
-0.0683741
-0.0667987
-0.0652382
-0.0636939
-0.062167
-0.0606588
-0.0591701
-0.0577019
-0.0562548
-0.0548295
-0.0534264
-0.052046
-0.0506887
-0.0493546
-0.048044
-0.0467569
-0.0454935
-0.0442537
-0.0430374
-0.0418446
-0.0406752
-0.0395289
-0.0384056
-0.037305
-0.0362268
-0.0351708
-0.0341367
-0.0331241
-0.0321328
-0.0311623
-0.0302124
-0.0292825
-0.0283725
-0.0274818
-0.0876767
-0.0863885
-0.0850611
-0.0836997
-0.0823093
-0.0808945
-0.0794595
-0.0780084
-0.0765447
-0.0750719
-0.0735932
-0.0721115
-0.0706293
-0.0691493
-0.0676735
-0.0662041
-0.0647429
-0.0632915
-0.0618516
-0.0604245
-0.0590114
-0.0576134
-0.0562315
-0.0548665
-0.0535193
-0.0521903
-0.0508802
-0.0495895
-0.0483186
-0.0470677
-0.0458371
-0.044627
-0.0434375
-0.0422687
-0.0411206
-0.0399933
-0.0388866
-0.0378004
-0.0367348
-0.0356893
-0.0346641
-0.0336587
-0.032673
-0.0317067
-0.0307596
-0.0298315
-0.0289219
-0.0280308
-0.0848705
-0.0837811
-0.0826447
-0.0814665
-0.0802515
-0.0790044
-0.0777294
-0.0764308
-0.0751123
-0.0737775
-0.0724297
-0.0710719
-0.069707
-0.0683377
-0.0669664
-0.0655954
-0.0642267
-0.0628622
-0.0615037
-0.0601528
-0.0588108
-0.0574791
-0.056159
-0.0548514
-0.0535573
-0.0522775
-0.0510128
-0.0497639
-0.0485313
-0.0473155
-0.046117
-0.044936
-0.0437729
-0.0426279
-0.0415012
-0.0403929
-0.0393031
-0.0382319
-0.0371791
-0.0361449
-0.0351291
-0.0341316
-0.0331524
-0.0321913
-0.031248
-0.0303225
-0.0294145
-0.0285238
-0.0822971
-0.0813831
-0.0804157
-0.0794002
-0.0783413
-0.0772438
-0.0761122
-0.0749504
-0.0737625
-0.072552
-0.0713224
-0.0700769
-0.0688185
-0.0675501
-0.0662741
-0.064993
-0.063709
-0.0624243
-0.0611408
-0.0598601
-0.058584
-0.0573138
-0.0560511
-0.0547969
-0.0535525
-0.0523189
-0.0510969
-0.0498873
-0.048691
-0.0475086
-0.0463406
-0.0451875
-0.0440498
-0.0429278
-0.0418218
-0.0407322
-0.039659
-0.0386025
-0.0375627
-0.0365398
-0.0355337
-0.0345446
-0.0335723
-0.0326167
-0.0316779
-0.0307557
-0.02985
-0.0289607
-0.0799768
-0.0792155
-0.0783958
-0.0775226
-0.0766008
-0.075635
-0.0746297
-0.0735889
-0.0725167
-0.0714166
-0.0702923
-0.0691469
-0.0679837
-0.0668055
-0.065615
-0.0644148
-0.0632072
-0.0619945
-0.0607787
-0.0595618
-0.0583454
-0.0571313
-0.0559209
-0.0547156
-0.0535168
-0.0523255
-0.0511427
-0.0499696
-0.0488069
-0.0476554
-0.0465158
-0.0453888
-0.0442749
-0.0431745
-0.0420882
-0.0410162
-0.0399589
-0.0389165
-0.0378893
-0.0368774
-0.035881
-0.0349001
-0.0339348
-0.0329852
-0.0320511
-0.0311326
-0.0302296
-0.0293421
-0.0779243
-0.0772941
-0.0766012
-0.0758507
-0.0750473
-0.0741956
-0.0732999
-0.0723643
-0.0713928
-0.0703891
-0.0693568
-0.0682991
-0.0672194
-0.0661205
-0.0650053
-0.0638765
-0.0627364
-0.0615874
-0.0604317
-0.0592714
-0.0581082
-0.056944
-0.0557804
-0.0546189
-0.0534609
-0.0523076
-0.0511602
-0.0500199
-0.0488876
-0.0477641
-0.0466504
-0.0455471
-0.0444549
-0.0433744
-0.0423061
-0.0412504
-0.0402079
-0.0391787
-0.0381633
-0.0371618
-0.0361745
-0.0352015
-0.034243
-0.0332991
-0.0323698
-0.0314551
-0.0305551
-0.0296697
-0.0761507
-0.0756306
-0.0750447
-0.0743979
-0.0736947
-0.0729396
-0.072137
-0.071291
-0.0704054
-0.069484
-0.0685304
-0.0675479
-0.0665398
-0.0655092
-0.0644588
-0.0633914
-0.0623096
-0.0612157
-0.0601121
-0.0590008
-0.0578839
-0.0567631
-0.0556403
-0.0545169
-0.0533945
-0.0522746
-0.0511582
-0.0500467
-0.0489411
-0.0478424
-0.0467515
-0.0456692
-0.0445963
-0.0435335
-0.0424812
-0.0414402
-0.0404109
-0.0393936
-0.0383888
-0.0373968
-0.0364179
-0.0354522
-0.0345
-0.0335615
-0.0326367
-0.0317257
-0.0308286
-0.0299454
-0.0746637
-0.0742339
-0.0737358
-0.0731741
-0.0725535
-0.0718782
-0.0711526
-0.0703806
-0.0695662
-0.0687131
-0.067825
-0.0669051
-0.0659567
-0.0649829
-0.0639867
-0.0629708
-0.0619378
-0.0608902
-0.0598303
-0.0587602
-0.0576822
-0.056598
-0.0555096
-0.0544184
-0.0533263
-0.0522345
-0.0511445
-0.0500575
-0.0489746
-0.047897
-0.0468256
-0.0457613
-0.0447049
-0.0436572
-0.0426188
-0.0415904
-0.0405725
-0.0395655
-0.03857
-0.0375863
-0.0366147
-0.0356554
-0.0347089
-0.0337751
-0.0328544
-0.0319468
-0.0310525
-0.0301714
-0.0734689
-0.0731102
-0.0726814
-0.0721872
-0.0716319
-0.0710198
-0.0703553
-0.0696422
-0.0688845
-0.0680859
-0.0672499
-0.06638
-0.0654794
-0.0645512
-0.0635984
-0.0626237
-0.0616299
-0.0606194
-0.0595947
-0.0585579
-0.0575112
-0.0564566
-0.0553959
-0.0543309
-0.0532632
-0.0521943
-0.0511256
-0.0500585
-0.0489941
-0.0479337
-0.0468781
-0.0458285
-0.0447856
-0.0437503
-0.0427233
-0.0417053
-0.0406967
-0.0396983
-0.0387104
-0.0377336
-0.036768
-0.0358142
-0.0348723
-0.0339427
-0.0330254
-0.0321207
-0.0312287
-0.0303495
-0.07257
-0.0722641
-0.0718867
-0.0714425
-0.0709358
-0.0703709
-0.0697519
-0.0690828
-0.0683674
-0.0676095
-0.0668126
-0.0659801
-0.0651152
-0.0642212
-0.063301
-0.0623573
-0.061393
-0.0604105
-0.0594122
-0.0584005
-0.0573775
-0.0563451
-0.0553054
-0.0542601
-0.0532109
-0.0521593
-0.0511068
-0.0500548
-0.0490044
-0.047957
-0.0469136
-0.0458751
-0.0448426
-0.0438167
-0.0427984
-0.0417882
-0.0407869
-0.039795
-0.0388131
-0.0378415
-0.0368807
-0.035931
-0.0349928
-0.0340663
-0.0331517
-0.0322493
-0.0313592
-0.0304815
-0.0719695
-0.0716983
-0.071355
-0.0709439
-0.0704695
-0.0699358
-0.069347
-0.0687071
-0.0680198
-0.067289
-0.0665181
-0.0657105
-0.0648695
-0.0639983
-0.0630998
-0.0621768
-0.0612322
-0.0602683
-0.0592878
-0.0582928
-0.0572856
-0.0562682
-0.0552425
-0.0542105
-0.0531736
-0.0521337
-0.051092
-0.0500501
-0.0490093
-0.0479706
-0.0469354
-0.0459044
-0.0448788
-0.0438593
-0.0428469
-0.0418421
-0.0408457
-0.0398582
-0.0388802
-0.0379122
-0.0369546
-0.0360078
-0.035072
-0.0341477
-0.0332351
-0.0323342
-0.0314454
-0.0305688
-0.0716691
-0.0714152
-0.0710888
-0.0706943
-0.0702358
-0.0697177
-0.069144
-0.0685186
-0.0678454
-0.067128
-0.0663701
-0.0655749
-0.0647459
-0.063886
-0.0629984
-0.0620858
-0.061151
-0.0601965
-0.0592248
-0.0582382
-0.0572389
-0.056229
-0.0552104
-0.0541849
-0.0531543
-0.0521202
-0.051084
-0.0500472
-0.0490111
-0.0479769
-0.0469456
-0.0459185
-0.0448964
-0.0438801
-0.0428706
-0.0418685
-0.0408746
-0.0398893
-0.0389134
-0.0379472
-0.0369912
-0.0360458
-0.0351113
-0.0341881
-0.0332764
-0.0323764
-0.0314882
-0.0306121
-0.0215875
-0.0207922
-0.0200219
)
;

boundaryField
{
    inlet
    {
        type            zeroGradient;
    }
    outlet
    {
        type            fixedValue;
        value           nonuniform 0();
    }
    cylinder
    {
        type            zeroGradient;
    }
    top
    {
        type            symmetryPlane;
    }
    bottom
    {
        type            symmetryPlane;
    }
    defaultFaces
    {
        type            empty;
    }
    procBoundary6to2
    {
        type            processor;
        value           nonuniform List<scalar> 
51
(
-0.121838
-0.117496
-0.113288
-0.109214
-0.105271
-0.101459
-0.0977745
-0.0942165
-0.0907821
-0.0874684
-0.0842728
-0.0811921
-0.0782233
-0.0753631
-0.0726083
-0.0699556
-0.0674018
-0.0649434
-0.0625773
-0.0603001
-0.0581087
-0.0559999
-0.0539706
-0.0520177
-0.0501384
-0.0483296
-0.0465886
-0.0449127
-0.0432992
-0.0417455
-0.0402492
-0.0388078
-0.0374192
-0.036081
-0.0347911
-0.0335474
-0.032348
-0.031191
-0.0300746
-0.028997
-0.0279565
-0.0269516
-0.0259807
-0.0250424
-0.0241352
-0.0232579
-0.022409
-0.0217309
-0.0209308
-0.0201558
-0.022409
)
;
    }
    procBoundary6to3
    {
        type            processor;
        value           uniform -0.0192756;
    }
    procBoundary6to5
    {
        type            processor;
        value           nonuniform List<scalar> 
33
(
-0.126315
-0.127042
-0.128433
-0.125783
-0.125783
-0.128094
-0.126094
-0.126094
-0.12451
-0.12451
-0.123199
-0.123199
-0.119326
-0.119326
-0.116255
-0.113356
-0.11005
-0.106503
-0.102849
-0.0991861
-0.0956023
-0.0921638
-0.08892
-0.0859073
-0.0831522
-0.0806741
-0.0784868
-0.0765999
-0.0750204
-0.0737527
-0.0728
-0.0721639
-0.0718458
)
;
    }
    procBoundary6to7
    {
        type            processor;
        value           nonuniform List<scalar> 
31
(
-0.0192756
-0.019405
-0.019405
-0.0189283
-0.0193063
-0.0198124
-0.0204377
-0.0204377
-0.0204067
-0.02131
-0.02131
-0.0210793
-0.0217814
-0.0224915
-0.0232246
-0.0239579
-0.0246751
-0.0253628
-0.0260103
-0.0266101
-0.0271576
-0.0276502
-0.0280875
-0.0284699
-0.0287988
-0.0290761
-0.0293036
-0.0294832
-0.0296163
-0.0297044
-0.0297482
)
;
    }
}


// ************************************************************************* //
