/*--------------------------------*- C++ -*----------------------------------*\
  =========                 |
  \\      /  F ield         | OpenFOAM: The Open Source CFD Toolbox
   \\    /   O peration     | Website:  https://openfoam.org
    \\  /    A nd           | Version:  7
     \\/     M anipulation  |
\*---------------------------------------------------------------------------*/
FoamFile
{
    version     2.0;
    format      ascii;
    class       volVectorField;
    location    "45";
    object      U;
}
// * * * * * * * * * * * * * * * * * * * * * * * * * * * * * * * * * * * * * //

dimensions      [0 1 -1 0 0 0 0];

internalField   nonuniform List<vector> 
1360
(
(0.184872 -0.00847335 2.15807e-20)
(0.192978 -0.00847613 -2.1154e-20)
(0.20109 -0.00846777 -4.61215e-21)
(0.209198 -0.00844889 1.34817e-20)
(0.217292 -0.00842019 1.21361e-20)
(0.225363 -0.00838237 -6.13746e-21)
(0.233402 -0.00833614 -2.53225e-21)
(0.241401 -0.00828223 -4.4912e-21)
(0.249354 -0.00822132 -1.864e-21)
(0.257252 -0.00815409 4.33674e-21)
(0.265092 -0.00808118 -8.43516e-21)
(0.272867 -0.0080032 3.53982e-21)
(0.280572 -0.00792072 7.82639e-21)
(0.288203 -0.0078343 -2.01749e-20)
(0.295757 -0.00774443 2.34043e-20)
(0.30323 -0.00765159 -1.07541e-20)
(0.310619 -0.00755622 -6.0339e-21)
(0.317922 -0.0074587 1.17562e-20)
(0.325137 -0.00735943 -1.75787e-20)
(0.332262 -0.00725874 1.63055e-20)
(0.339295 -0.00715693 4.1377e-21)
(0.346235 -0.00705431 -1.93051e-20)
(0.353082 -0.00695112 5.04312e-21)
(0.359835 -0.00684761 1.12327e-20)
(0.366494 -0.00674399 -2.05016e-21)
(0.373057 -0.00664046 -4.49971e-22)
(0.379525 -0.00653719 -1.07868e-20)
(0.385899 -0.00643433 4.55216e-21)
(0.392178 -0.00633204 -2.95301e-21)
(0.398363 -0.00623044 9.587e-21)
(0.404455 -0.00612963 -9.82796e-21)
(0.410454 -0.00602973 7.96828e-22)
(0.41636 -0.00593082 6.2194e-21)
(0.422175 -0.00583297 -7.38475e-21)
(0.427899 -0.00573627 7.84581e-21)
(0.433534 -0.00564076 -1.89384e-21)
(0.439081 -0.00554649 -8.45295e-23)
(0.44454 -0.00545352 -3.23047e-21)
(0.449912 -0.00536188 1.75573e-21)
(0.4552 -0.00527159 2.23e-21)
(0.460403 -0.00518269 4.37541e-21)
(0.465524 -0.00509519 -4.68634e-21)
(0.470563 -0.00500911 8.74889e-22)
(0.475521 -0.00492446 2.38998e-21)
(0.480401 -0.00484125 -3.20352e-21)
(0.485203 -0.00475948 -5.20225e-22)
(0.489928 -0.00467914 1.05201e-21)
(0.494578 -0.00460025 1.26206e-21)
(0.499154 -0.00452279 -4.08549e-22)
(0.503658 -0.00444675 -2.21133e-21)
(0.21887 -0.0249974 -9.9372e-20)
(0.226582 -0.0250013 1.80289e-20)
(0.234293 -0.0249725 5.50744e-20)
(0.241993 -0.0249128 8.1293e-21)
(0.249674 -0.0248244 -7.02786e-20)
(0.257327 -0.0247095 2.76999e-20)
(0.264944 -0.0245701 -3.09959e-20)
(0.272519 -0.0244083 -1.35646e-20)
(0.280046 -0.0242262 -5.7661e-20)
(0.287518 -0.0240258 6.70893e-20)
(0.29493 -0.023809 1.09305e-20)
(0.302278 -0.0235775 -4.23782e-20)
(0.309558 -0.0233331 2.11448e-20)
(0.316765 -0.0230773 -1.62862e-20)
(0.323898 -0.0228115 9.13056e-20)
(0.330952 -0.0225372 -9.98925e-20)
(0.337925 -0.0222556 7.12597e-20)
(0.344817 -0.0219679 3.41551e-21)
(0.351623 -0.0216751 -4.90581e-20)
(0.358344 -0.0213783 -1.35394e-20)
(0.364979 -0.0210784 2.45137e-20)
(0.371525 -0.0207761 -1.93827e-20)
(0.377982 -0.0204723 5.31174e-20)
(0.384351 -0.0201676 -1.70565e-20)
(0.39063 -0.0198627 -1.51943e-20)
(0.39682 -0.019558 -5.53998e-21)
(0.40292 -0.0192542 2.93873e-21)
(0.408931 -0.0189517 4.93279e-21)
(0.414853 -0.0186509 -4.71743e-21)
(0.420687 -0.0183521 -5.4665e-21)
(0.426433 -0.0180557 1.67098e-20)
(0.432091 -0.017762 5.16699e-21)
(0.437663 -0.0174712 -1.82475e-20)
(0.443149 -0.0171836 3.4833e-21)
(0.44855 -0.0168993 -6.9188e-21)
(0.453867 -0.0166186 1.01249e-20)
(0.459101 -0.0163415 -3.69766e-21)
(0.464254 -0.0160683 4.16093e-21)
(0.469325 -0.015799 4.54773e-21)
(0.474316 -0.0155336 3.4985e-21)
(0.479229 -0.0152723 -3.64833e-21)
(0.484064 -0.0150152 2.66612e-21)
(0.488822 -0.0147622 -1.33022e-20)
(0.493506 -0.0145135 6.138e-21)
(0.498115 -0.0142689 3.2692e-21)
(0.502651 -0.0140286 -7.60012e-21)
(0.507116 -0.0137925 2.94171e-21)
(0.51151 -0.0135606 -3.39604e-21)
(0.515835 -0.013333 9.89291e-21)
(0.520092 -0.0131095 -8.24803e-21)
(0.284436 -0.0402505 -3.84442e-20)
(0.291351 -0.0402451 -5.84987e-20)
(0.298254 -0.0401873 2.25819e-19)
(0.305137 -0.0400807 -6.11169e-20)
(0.311992 -0.0399287 2.48301e-20)
(0.318814 -0.0397348 -1.09593e-19)
(0.325596 -0.0395025 1.05575e-19)
(0.332333 -0.0392352 -7.6786e-20)
(0.33902 -0.0389362 3.50634e-20)
(0.345653 -0.0386086 4.34276e-21)
(0.352228 -0.0382555 -5.82256e-20)
(0.358742 -0.0378796 5.53328e-20)
(0.365192 -0.0374837 2.59923e-20)
(0.371575 -0.0370701 1.42552e-20)
(0.377889 -0.0366411 -5.90798e-20)
(0.384132 -0.036199 2.49343e-20)
(0.390302 -0.0357457 1.40998e-20)
(0.396397 -0.035283 -6.35568e-20)
(0.402417 -0.0348126 6.29248e-20)
(0.408361 -0.034336 -1.981e-20)
(0.414227 -0.0338547 1.99386e-20)
(0.420016 -0.03337 -2.86589e-20)
(0.425726 -0.032883 -9.27957e-21)
(0.431358 -0.0323947 5.4414e-20)
(0.436911 -0.0319063 -2.25475e-20)
(0.442386 -0.0314184 -2.60911e-20)
(0.447782 -0.030932 -3.07893e-21)
(0.453101 -0.0304478 7.73556e-21)
(0.458341 -0.0299663 1.01686e-20)
(0.463504 -0.0294883 4.50999e-21)
(0.46859 -0.0290141 3.91619e-21)
(0.473601 -0.0285442 -4.14719e-20)
(0.478535 -0.028079 -2.38576e-21)
(0.483395 -0.027619 4.73576e-20)
(0.488181 -0.0271643 -1.9092e-20)
(0.492893 -0.0267153 1.83831e-21)
(0.497534 -0.0262722 -2.54577e-20)
(0.502102 -0.0258352 1.7803e-20)
(0.506601 -0.0254044 2.31514e-21)
(0.51103 -0.0249801 1.5932e-20)
(0.51539 -0.0245622 1.48153e-22)
(0.519683 -0.024151 -4.39737e-21)
(0.523909 -0.0237464 -9.60501e-21)
(0.528069 -0.0233485 1.8984e-20)
(0.532165 -0.0229574 -1.81004e-20)
(0.536198 -0.022573 7.11806e-21)
(0.540168 -0.0221954 -1.74038e-20)
(0.544077 -0.0218246 3.61012e-21)
(0.547925 -0.0214604 -4.48439e-21)
(0.551714 -0.021103 2.22563e-20)
(0.555445 -0.0207522 -1.56546e-20)
(0.38261 -0.0533612 1.76728e-20)
(0.388294 -0.05327 2.36506e-20)
(0.393951 -0.0531153 -2.74352e-19)
(0.399577 -0.0529018 1.84628e-19)
(0.405167 -0.0526344 -1.89355e-19)
(0.410719 -0.0523177 7.96826e-20)
(0.416228 -0.0519562 6.49197e-20)
(0.421692 -0.0515542 -1.01145e-19)
(0.427108 -0.0511157 7.87985e-20)
(0.432475 -0.0506447 -8.71135e-20)
(0.437789 -0.0501447 1.1739e-21)
(0.44305 -0.0496191 -7.99882e-21)
(0.448255 -0.0490712 -3.54455e-20)
(0.453404 -0.0485038 1.89777e-19)
(0.458495 -0.0479196 -2.86283e-20)
(0.463527 -0.0473213 -1.59127e-19)
(0.4685 -0.0467111 1.07414e-19)
(0.473412 -0.0460911 -8.83284e-20)
(0.478263 -0.0454634 1.56798e-19)
(0.483053 -0.0448297 -1.26446e-19)
(0.487781 -0.0441917 6.4101e-20)
(0.492447 -0.0435509 3.06937e-20)
(0.497051 -0.0429086 -7.07548e-20)
(0.501593 -0.0422662 -2.37814e-20)
(0.506073 -0.0416246 7.2962e-20)
(0.510492 -0.040985 9.7589e-21)
(0.514849 -0.0403483 -4.53679e-20)
(0.519144 -0.0397153 7.41266e-20)
(0.523379 -0.0390867 -1.31052e-19)
(0.527553 -0.0384632 5.52138e-20)
(0.531667 -0.0378454 -5.37605e-22)
(0.535722 -0.0372337 -5.19774e-21)
(0.539718 -0.0366288 -1.43169e-20)
(0.543655 -0.0360309 1.468e-20)
(0.547534 -0.0354403 -1.78702e-20)
(0.551357 -0.0348576 1.98868e-20)
(0.555123 -0.0342827 8.02341e-21)
(0.558833 -0.0337161 1.7192e-20)
(0.562488 -0.0331578 -2.14572e-20)
(0.566089 -0.032608 8.60368e-21)
(0.569636 -0.0320669 -2.28347e-20)
(0.57313 -0.0315345 3.06918e-20)
(0.576573 -0.0310108 -1.07892e-20)
(0.579964 -0.030496 3.25147e-22)
(0.583305 -0.0299901 1.6183e-20)
(0.586596 -0.029493 -1.13964e-20)
(0.589839 -0.0290047 -6.04334e-21)
(0.593033 -0.0285253 -6.5997e-21)
(0.59618 -0.0280546 1.16203e-20)
(0.599281 -0.0275926 -3.93451e-21)
(0.493802 -0.0635492 5.08001e-20)
(0.497865 -0.063437 1.17502e-19)
(0.501907 -0.0632507 -2.81676e-19)
(0.505927 -0.062996 2.58943e-19)
(0.509922 -0.0626788 -9.47816e-20)
(0.51389 -0.0623044 7.19313e-20)
(0.517831 -0.0618781 9.15784e-21)
(0.521743 -0.0614049 3.24529e-20)
(0.525625 -0.0608894 -1.64468e-19)
(0.529475 -0.060336 -5.06124e-20)
(0.533293 -0.059749 -3.449e-20)
(0.537078 -0.0591321 1.47759e-19)
(0.540828 -0.0584891 -2.49784e-20)
(0.544543 -0.0578232 6.50813e-20)
(0.548222 -0.0571376 1.08455e-20)
(0.551865 -0.0564353 5.13449e-21)
(0.55547 -0.0557188 -4.54112e-20)
(0.559037 -0.0549907 -2.55543e-20)
(0.562566 -0.0542532 3.86873e-20)
(0.566057 -0.0535085 -1.0453e-19)
(0.569508 -0.0527584 4.85976e-20)
(0.57292 -0.0520047 1.27249e-20)
(0.576292 -0.0512491 -2.79243e-20)
(0.579625 -0.0504928 -2.54922e-20)
(0.582917 -0.0497374 1.96116e-21)
(0.586169 -0.048984 -1.59712e-20)
(0.589382 -0.0482336 8.54196e-20)
(0.592554 -0.0474873 -5.159e-21)
(0.595686 -0.046746 -3.04228e-21)
(0.598779 -0.0460104 -6.93315e-20)
(0.601832 -0.0452812 8.85929e-20)
(0.604845 -0.044559 2.53733e-20)
(0.607818 -0.0438445 -3.69059e-20)
(0.610753 -0.043138 -1.21271e-20)
(0.613649 -0.0424401 -3.6206e-20)
(0.616506 -0.0417511 -2.8752e-20)
(0.619326 -0.0410713 5.49861e-20)
(0.622107 -0.0404009 -4.0052e-21)
(0.624851 -0.0397403 1.72554e-20)
(0.627558 -0.0390896 1.87886e-20)
(0.630228 -0.0384489 -5.01122e-22)
(0.632862 -0.0378184 -3.22267e-20)
(0.63546 -0.0371981 4.29534e-21)
(0.638023 -0.0365881 -6.58738e-21)
(0.640551 -0.0359885 2.09888e-20)
(0.643045 -0.0353993 7.71563e-21)
(0.645505 -0.0348204 -1.52438e-21)
(0.647931 -0.0342519 -2.29731e-22)
(0.650324 -0.0336937 -1.12374e-20)
(0.652685 -0.0331457 -8.8987e-21)
(0.619028 -0.0699547 1.07159e-20)
(0.621128 -0.0697897 -6.92552e-20)
(0.623235 -0.069549 2.31002e-19)
(0.625349 -0.0692387 -4.77131e-20)
(0.627467 -0.0688647 5.6952e-21)
(0.62959 -0.0684326 -1.46139e-19)
(0.631716 -0.0679476 2.40337e-19)
(0.633843 -0.0674149 -5.0516e-20)
(0.635972 -0.0668391 -1.59279e-19)
(0.6381 -0.0662248 -1.44866e-20)
(0.640227 -0.065576 1.62225e-20)
(0.642351 -0.0648969 -9.16751e-21)
(0.644472 -0.064191 1.75905e-19)
(0.646588 -0.0634618 -1.92582e-20)
(0.648697 -0.0627124 -1.72444e-19)
(0.6508 -0.061946 1.12463e-19)
(0.652895 -0.0611651 3.01298e-20)
(0.65498 -0.0603724 3.38954e-20)
(0.657056 -0.0595701 -6.04913e-20)
(0.659121 -0.0587605 3.34018e-20)
(0.661174 -0.0579456 -6.86821e-20)
(0.663215 -0.0571271 2.79236e-20)
(0.665243 -0.0563067 -1.82734e-20)
(0.667257 -0.055486 -3.07565e-20)
(0.669256 -0.0546663 -3.65443e-20)
(0.671241 -0.0538489 8.26459e-20)
(0.67321 -0.053035 6.48981e-22)
(0.675163 -0.0522255 8.18319e-21)
(0.6771 -0.0514214 -9.82462e-20)
(0.67902 -0.0506235 4.83332e-20)
(0.680923 -0.0498325 -2.39218e-20)
(0.682809 -0.0490492 8.0496e-20)
(0.684677 -0.0482742 -3.1796e-20)
(0.686527 -0.0475078 -4.23386e-20)
(0.688359 -0.0467507 7.8137e-20)
(0.690173 -0.0460032 -1.95062e-20)
(0.691969 -0.0452656 -6.60152e-21)
(0.693747 -0.0445382 -3.57838e-20)
(0.695506 -0.0438212 1.07887e-20)
(0.697247 -0.043115 2.08524e-20)
(0.69897 -0.0424196 8.10833e-21)
(0.700674 -0.0417351 -3.57111e-22)
(0.70236 -0.0410618 3.79049e-20)
(0.704028 -0.0403995 -8.59223e-20)
(0.705678 -0.0397485 7.59712e-20)
(0.70731 -0.0391086 -2.70937e-20)
(0.708924 -0.03848 -6.99536e-21)
(0.71052 -0.0378625 1.899e-20)
(0.712099 -0.0372562 2.49807e-21)
(0.743022 -0.0724916 -4.28298e-19)
(0.743054 -0.0723436 -5.94304e-20)
(0.743146 -0.0721189 6.57148e-19)
(0.743293 -0.0718236 -6.08492e-19)
(0.743494 -0.0714631 3.96845e-20)
(0.743745 -0.071043 3.08662e-19)
(0.744044 -0.0705684 1.19419e-19)
(0.744388 -0.0700443 -2.65897e-19)
(0.744775 -0.0694753 1.75406e-19)
(0.745202 -0.0688659 1.68183e-19)
(0.745667 -0.0682203 -1.51787e-19)
(0.746167 -0.0675425 -1.6304e-19)
(0.7467 -0.0668361 1.0639e-19)
(0.747264 -0.0661047 -2.10422e-19)
(0.747856 -0.0653514 8.80241e-20)
(0.748474 -0.0645794 1.02204e-19)
(0.749118 -0.0637915 -8.96475e-20)
(0.749783 -0.0629902 1.12306e-19)
(0.75047 -0.0621781 -1.5871e-19)
(0.751175 -0.0613573 3.83071e-20)
(0.751897 -0.0605299 5.55679e-21)
(0.752636 -0.0596979 2.27665e-20)
(0.753388 -0.0588629 5.52727e-20)
(0.754154 -0.0580266 -2.37763e-20)
(0.75493 -0.0571905 -2.87664e-20)
(0.755718 -0.0563558 -5.83596e-20)
(0.756514 -0.0555239 -6.23741e-21)
(0.757318 -0.0546958 1.20824e-19)
(0.758129 -0.0538725 -1.2528e-19)
(0.758946 -0.0530549 9.95131e-20)
(0.759768 -0.0522439 3.34139e-20)
(0.760595 -0.0514401 -2.45243e-20)
(0.761424 -0.0506442 8.40394e-21)
(0.762257 -0.0498568 -5.26245e-20)
(0.763091 -0.0490784 5.77135e-20)
(0.763927 -0.0483094 -6.57503e-20)
(0.764764 -0.0475502 6.29549e-20)
(0.765601 -0.0468012 -8.51136e-20)
(0.766437 -0.0460626 6.08866e-20)
(0.767273 -0.0453347 -1.2131e-20)
(0.768108 -0.0446176 -1.67878e-20)
(0.768942 -0.0439116 -9.61724e-21)
(0.769774 -0.0432168 6.10131e-20)
(0.770603 -0.0425333 -8.05253e-20)
(0.77143 -0.0418611 4.81316e-20)
(0.772255 -0.0412002 2.82397e-20)
(0.773077 -0.0405508 -2.57285e-21)
(0.773895 -0.0399128 -5.91113e-20)
(0.774711 -0.0392861 1.30013e-20)
(0.857257 -0.0716672 1.4874e-19)
(0.855393 -0.0716668 -1.18815e-19)
(0.853648 -0.071579 -1.05314e-20)
(0.852013 -0.0714102 2.36608e-19)
(0.850484 -0.0711666 -3.32e-19)
(0.849056 -0.0708541 -3.37712e-19)
(0.847721 -0.0704785 9.54096e-20)
(0.846477 -0.0700452 4.14729e-19)
(0.845318 -0.0695594 -5.35826e-19)
(0.844239 -0.069026 2.67359e-19)
(0.843236 -0.0684498 3.60435e-19)
(0.842305 -0.0678351 -4.09972e-19)
(0.841443 -0.0671861 2.26356e-19)
(0.840646 -0.0665066 -1.78787e-19)
(0.839909 -0.0658003 4.59135e-20)
(0.83923 -0.0650707 5.09099e-21)
(0.838606 -0.0643208 5.32993e-20)
(0.838033 -0.0635537 -9.1709e-20)
(0.837509 -0.062772 9.41495e-20)
(0.837031 -0.0619784 -2.53408e-20)
(0.836597 -0.0611751 -1.26252e-19)
(0.836203 -0.0603644 3.70798e-20)
(0.835849 -0.0595481 1.12505e-19)
(0.83553 -0.0587282 -1.06346e-19)
(0.835247 -0.0579063 4.53296e-20)
(0.834996 -0.0570839 -5.11288e-20)
(0.834775 -0.0562625 3.06649e-20)
(0.834584 -0.0554433 1.01624e-19)
(0.83442 -0.0546275 -1.31977e-19)
(0.834281 -0.0538161 2.18144e-21)
(0.834167 -0.05301 8.32819e-20)
(0.834076 -0.0522101 -6.28152e-20)
(0.834007 -0.0514172 -5.24291e-21)
(0.833958 -0.050632 1.11001e-20)
(0.833928 -0.0498549 3.63341e-20)
(0.833917 -0.0490867 -4.20471e-20)
(0.833922 -0.0483277 1.90225e-21)
(0.833945 -0.0475783 -1.26586e-20)
(0.833982 -0.046839 1.28636e-20)
(0.834034 -0.0461099 1.34589e-20)
(0.8341 -0.0453915 1.65836e-20)
(0.834178 -0.0446837 -2.14829e-20)
(0.83427 -0.043987 -2.91633e-21)
(0.834372 -0.0433013 3.06979e-20)
(0.834486 -0.0426269 -9.55853e-21)
(0.834611 -0.0419637 2.89189e-20)
(0.834745 -0.0413118 4.64287e-21)
(0.834889 -0.0406713 -2.38832e-20)
(0.955875 -0.0649289 0)
(0.95273 -0.065225 0)
(0.949738 -0.0654195 1.22774e-27)
(0.946891 -0.0655197 -2.47232e-27)
(0.94418 -0.0655327 0)
(0.941598 -0.0654652 2.80864e-27)
(0.939139 -0.0653234 -2.80862e-27)
(0.936796 -0.0651135 0)
(0.934563 -0.0648411 0)
(0.932434 -0.0645117 0)
(0.930405 -0.0641304 5.42032e-28)
(0.92847 -0.0637019 -3.7494e-28)
(0.926624 -0.0632308 2.10935e-11)
(0.924863 -0.0627214 2.03814e-11)
(0.923183 -0.0621776 8.1744e-28)
(0.92158 -0.0616031 -1.64399e-27)
(0.920049 -0.0610015 0)
(0.918587 -0.0603761 -1.22033e-27)
(0.917191 -0.0597297 4.75197e-28)
(0.915858 -0.0590654 6.87827e-28)
(0.914584 -0.0583856 -1.38308e-27)
(0.913366 -0.0576928 0)
(0.912202 -0.0569892 0)
(0.911089 -0.056277 0)
(0.910025 -0.055558 0)
(0.909006 -0.054834 0)
(0.908032 -0.0541067 0)
(0.9071 -0.0533774 1.08477e-27)
(0.906207 -0.0526475 -5.03292e-28)
(0.905353 -0.0519184 0)
(0.904535 -0.051191 0)
(0.903751 -0.0504665 0)
(0.903 -0.0497458 0)
(0.902281 -0.0490297 0)
(0.901591 -0.0483189 8.49487e-28)
(0.900931 -0.0476142 -3.93989e-28)
(0.900297 -0.0469162 3.80347e-28)
(0.899691 -0.0462253 -7.64256e-28)
(0.899109 -0.0455422 0)
(0.898551 -0.0448671 0)
(0.898016 -0.0442005 0)
(0.897504 -0.0435427 0)
(0.897012 -0.042894 0)
(0.896541 -0.0422546 2.9622e-28)
(0.89609 -0.0416248 -5.9461e-28)
(0.895657 -0.0410046 0)
(0.895242 -0.0403942 0)
(0.894845 -0.0397938 0)
(1.04866 -0.057936 0)
(1.04454 -0.0585246 0)
(1.04059 -0.0589955 -1.22931e-27)
(1.03679 -0.0593576 2.47549e-27)
(1.03315 -0.0596189 0)
(1.02964 -0.0597872 0)
(1.02628 -0.0598697 0)
(1.02304 -0.0598733 0)
(1.01993 -0.0598044 0)
(1.01693 -0.0596689 0)
(1.01405 -0.0594725 -5.42746e-28)
(1.01127 -0.0592205 3.75437e-28)
(1.0086 -0.058918 -2.11215e-11)
(1.00602 -0.0585695 -2.04086e-11)
(1.00354 -0.0581795 -8.18534e-28)
(1.00115 -0.0577521 1.64619e-27)
(0.998843 -0.057291 0)
(0.996618 -0.0568 -2.59499e-27)
(0.994472 -0.0562821 3.34112e-27)
(0.9924 -0.0557407 -6.88761e-28)
(0.990399 -0.0551786 1.38497e-27)
(0.988466 -0.0545984 0)
(0.986599 -0.0540027 0)
(0.984794 -0.0533937 0)
(0.983048 -0.0527736 0)
(0.981359 -0.0521444 0)
(0.979725 -0.0515078 0)
(0.978142 -0.0508656 -1.08627e-27)
(0.97661 -0.0502192 5.03987e-28)
(0.975126 -0.0495702 0)
(0.973687 -0.0489197 0)
(0.972292 -0.048269 0)
(0.97094 -0.0476192 0)
(0.969627 -0.0469712 0)
(0.968354 -0.0463259 -8.50666e-28)
(0.967117 -0.0456842 3.94536e-28)
(0.965917 -0.0450468 -3.80874e-28)
(0.96475 -0.0444143 7.65316e-28)
(0.963617 -0.0437873 0)
(0.962515 -0.0431664 0)
(0.961444 -0.0425521 0)
(0.960403 -0.0419447 0)
(0.959389 -0.0413447 0)
(0.958404 -0.0407523 -2.96629e-28)
(0.957444 -0.0401678 5.95428e-28)
(0.95651 -0.0395915 0)
(0.955601 -0.0390237 0)
(0.954715 -0.0384644 0)
(1.12174 -0.0489054 -6.85634e-29)
(1.11728 -0.0498263 0)
(1.11297 -0.0506158 0)
(1.1088 -0.0512831 0)
(1.10475 -0.0518369 0)
(1.10084 -0.0522855 5.91981e-29)
(1.09705 -0.0526366 0)
(1.09338 -0.0528974 -6.51349e-28)
(1.08982 -0.0530748 0)
(1.08637 -0.0531754 0)
(1.08303 -0.053205 0)
(1.0798 -0.0531696 0)
(1.07666 -0.0530744 0)
(1.07362 -0.0529244 -2.32005e-28)
(1.07068 -0.0527246 0)
(1.06782 -0.0524792 0)
(1.06505 -0.0521924 -4.2085e-29)
(1.06236 -0.0518683 0)
(1.05975 -0.0515103 0)
(1.05722 -0.0511219 0)
(1.05476 -0.0507063 0)
(1.05237 -0.0502665 3.58575e-29)
(1.05005 -0.0498052 0)
(1.04779 -0.049325 0)
(1.0456 -0.0488283 0)
(1.04347 -0.0483173 0)
(1.0414 -0.0477941 0)
(1.03938 -0.0472605 1.4794e-28)
(1.03742 -0.0467184 0)
(1.0355 -0.0461693 2.76311e-29)
(1.03364 -0.0456147 0)
(1.03183 -0.0450561 0)
(1.03006 -0.0444947 0)
(1.02834 -0.0439316 -2.42053e-29)
(1.02666 -0.043368 0)
(1.02502 -0.0428047 2.2641e-29)
(1.02342 -0.0422428 -2.18932e-29)
(1.02186 -0.0416829 0)
(1.02034 -0.0411259 2.04628e-29)
(1.01885 -0.0405724 0)
(1.0174 -0.040023 0)
(1.01598 -0.0394783 -1.8469e-29)
(1.01459 -0.0389387 0)
(1.01324 -0.0384047 0)
(1.01191 -0.0378766 0)
(1.01062 -0.0373548 0)
(1.00935 -0.0368397 0)
(1.00811 -0.0363314 1.49642e-29)
(1.17459 -0.0399823 6.85634e-29)
(1.17033 -0.0411427 0)
(1.16617 -0.0421679 0)
(1.16211 -0.0430668 0)
(1.15814 -0.0438477 0)
(1.15427 -0.0445183 -5.91981e-29)
(1.15049 -0.0450861 0)
(1.1468 -0.0455583 6.51349e-28)
(1.1432 -0.0459416 0)
(1.1397 -0.0462423 0)
(1.13628 -0.0464664 0)
(1.13295 -0.0466196 0)
(1.1297 -0.0467074 0)
(1.12653 -0.0467349 2.32005e-28)
(1.12344 -0.0467067 0)
(1.12043 -0.0466275 0)
(1.1175 -0.0465015 4.2085e-29)
(1.11464 -0.0463327 0)
(1.11185 -0.0461249 0)
(1.10913 -0.0458816 0)
(1.10647 -0.0456061 0)
(1.10389 -0.0453015 -3.58575e-29)
(1.10136 -0.0449707 0)
(1.0989 -0.0446165 0)
(1.09649 -0.0442413 0)
(1.09414 -0.0438476 0)
(1.09185 -0.0434375 0)
(1.08961 -0.043013 -1.4794e-28)
(1.08743 -0.0425761 0)
(1.08529 -0.0421286 -2.76311e-29)
(1.08321 -0.041672 0)
(1.08117 -0.041208 0)
(1.07917 -0.0407378 0)
(1.07722 -0.0402629 2.42053e-29)
(1.07531 -0.0397843 0)
(1.07345 -0.0393032 -2.2641e-29)
(1.07162 -0.0388206 2.18932e-29)
(1.06983 -0.0383375 0)
(1.06808 -0.0378546 -2.04628e-29)
(1.06637 -0.0373728 0)
(1.06469 -0.0368927 0)
(1.06304 -0.0364151 1.8469e-29)
(1.06143 -0.0359404 0)
(1.05985 -0.0354693 0)
(1.0583 -0.0350022 0)
(1.05678 -0.0345395 0)
(1.0553 -0.0340816 0)
(1.05383 -0.0336289 -1.49642e-29)
(1.20955 -0.0319237 0)
(1.2058 -0.0332238 0)
(1.20211 -0.0343928 0)
(1.19846 -0.0354385 0)
(1.19488 -0.0363682 0)
(1.19135 -0.0371889 2.80174e-27)
(1.18788 -0.0379074 -2.80174e-27)
(1.18448 -0.0385301 0)
(1.18113 -0.0390633 0)
(1.17785 -0.0395129 0)
(1.17462 -0.0398844 0)
(1.17147 -0.0401832 0)
(1.16837 -0.0404145 0)
(1.16533 -0.040583 0)
(1.16236 -0.0406934 -8.10689e-28)
(1.15944 -0.0407501 1.64004e-27)
(1.15658 -0.0407571 0)
(1.15379 -0.0407184 0)
(1.15105 -0.0406376 0)
(1.14836 -0.0405183 0)
(1.14573 -0.0403637 0)
(1.14316 -0.0401769 0)
(1.14064 -0.0399607 1.54638e-11)
(1.13817 -0.039718 1.50083e-11)
(1.13575 -0.0394513 0)
(1.13338 -0.039163 0)
(1.13106 -0.0388552 0)
(1.12878 -0.0385302 0)
(1.12655 -0.0381899 0)
(1.12437 -0.0378361 0)
(1.12223 -0.0374705 0)
(1.12013 -0.0370946 0)
(1.11807 -0.0367101 0)
(1.11605 -0.0363182 0)
(1.11407 -0.0359202 0)
(1.11213 -0.0355172 0)
(1.11023 -0.0351105 0)
(1.10836 -0.0347009 0)
(1.10652 -0.0342894 0)
(1.10472 -0.0338768 0)
(1.10296 -0.033464 0)
(1.10122 -0.0330516 0)
(1.09952 -0.0326404 0)
(1.09784 -0.0322308 0)
(1.0962 -0.0318236 0)
(1.09458 -0.031419 0)
(1.09299 -0.0310177 0)
(1.09143 -0.03062 0)
(1.23039 -0.0251007 0)
(1.22726 -0.0264573 0)
(1.22415 -0.027691 0)
(1.22106 -0.0288083 0)
(1.21799 -0.0298155 0)
(1.21495 -0.0307188 2.5868e-27)
(1.21194 -0.0315242 -2.5868e-27)
(1.20896 -0.0322374 0)
(1.20602 -0.0328639 0)
(1.20311 -0.033409 0)
(1.20024 -0.0338778 0)
(1.19741 -0.0342751 0)
(1.19462 -0.0346057 0)
(1.19187 -0.0348739 0)
(1.18916 -0.0350841 8.10689e-28)
(1.1865 -0.0352403 -1.64004e-27)
(1.18387 -0.0353464 0)
(1.18129 -0.0354059 0)
(1.17875 -0.0354225 0)
(1.17625 -0.0353994 0)
(1.1738 -0.0353397 0)
(1.17138 -0.0352464 0)
(1.16901 -0.0351223 -1.54638e-11)
(1.16667 -0.03497 -1.50083e-11)
(1.16438 -0.034792 0)
(1.16213 -0.0345907 0)
(1.15991 -0.0343682 0)
(1.15773 -0.0341266 0)
(1.15559 -0.0338679 0)
(1.15349 -0.0335939 0)
(1.15142 -0.0333062 0)
(1.14939 -0.0330065 0)
(1.14739 -0.0326962 0)
(1.14543 -0.0323768 0)
(1.1435 -0.0320495 0)
(1.1416 -0.0317155 0)
(1.13973 -0.031376 0)
(1.1379 -0.0310319 0)
(1.13609 -0.0306843 0)
(1.13431 -0.030334 0)
(1.13257 -0.0299818 0)
(1.13085 -0.0296286 0)
(1.12916 -0.0292749 0)
(1.12749 -0.0289215 0)
(1.12585 -0.028569 0)
(1.12424 -0.0282178 0)
(1.12265 -0.0278685 0)
(1.12109 -0.0275215 0)
(1.24104 -0.0195592 -2.64959e-11)
(1.23851 -0.0209132 -2.59713e-11)
(1.23598 -0.0221539 0)
(1.23344 -0.0232867 0)
(1.2309 -0.0243173 0)
(1.22837 -0.0252508 0)
(1.22584 -0.0260926 0)
(1.22333 -0.0268476 0)
(1.22083 -0.0275206 0)
(1.21834 -0.0281165 0)
(1.21588 -0.0286396 0)
(1.21343 -0.0290944 0)
(1.21101 -0.0294851 0)
(1.20861 -0.0298157 0)
(1.20623 -0.0300901 8.86153e-28)
(1.20388 -0.030312 -1.1923e-27)
(1.20156 -0.0304848 8.4187e-28)
(1.19927 -0.030612 -1.13212e-27)
(1.197 -0.0306969 0)
(1.19477 -0.0307424 0)
(1.19256 -0.0307515 0)
(1.19038 -0.0307269 0)
(1.18823 -0.0306713 0)
(1.18611 -0.0305872 0)
(1.18402 -0.0304769 0)
(1.18196 -0.0303426 0)
(1.17993 -0.0301865 0)
(1.17793 -0.0300105 0)
(1.17596 -0.0298165 0)
(1.17401 -0.0296063 0)
(1.1721 -0.0293814 0)
(1.17021 -0.0291435 0)
(1.16835 -0.028894 0)
(1.16652 -0.0286342 0)
(1.16471 -0.0283655 0)
(1.16293 -0.0280889 4.94458e-28)
(1.16118 -0.0278057 -4.79811e-28)
(1.15945 -0.0275168 0)
(1.15775 -0.0272233 0)
(1.15608 -0.0269259 0)
(1.15442 -0.0266256 0)
(1.15279 -0.026323 0)
(1.15119 -0.026019 0)
(1.1496 -0.0257142 0)
(1.14804 -0.0254091 0)
(1.1465 -0.0251044 0)
(1.14499 -0.0248005 0)
(1.14349 -0.024498 0)
(1.24487 -0.0151615 2.64959e-11)
(1.24287 -0.0164747 2.59713e-11)
(1.24084 -0.0176844 0)
(1.23879 -0.0187954 0)
(1.23673 -0.0198123 0)
(1.23465 -0.0207398 2.30136e-27)
(1.23257 -0.0215824 -2.30136e-27)
(1.23049 -0.0223444 0)
(1.2284 -0.0230301 0)
(1.22632 -0.0236437 0)
(1.22424 -0.0241892 0)
(1.22217 -0.0246704 0)
(1.2201 -0.0250912 0)
(1.21805 -0.0254551 0)
(1.21601 -0.0257656 -8.86153e-28)
(1.21398 -0.026026 1.1923e-27)
(1.21197 -0.0262397 -8.4187e-28)
(1.20998 -0.0264095 1.13212e-27)
(1.208 -0.0265386 0)
(1.20604 -0.0266296 0)
(1.2041 -0.0266853 0)
(1.20218 -0.0267083 0)
(1.20028 -0.0267009 0)
(1.1984 -0.0266655 0)
(1.19654 -0.0266043 0)
(1.19471 -0.0265193 0)
(1.19289 -0.0264126 0)
(1.1911 -0.0262859 0)
(1.18933 -0.0261411 0)
(1.18757 -0.0259798 0)
(1.18585 -0.0258036 0)
(1.18414 -0.0256139 0)
(1.18245 -0.0254122 0)
(1.18079 -0.0251997 0)
(1.17915 -0.0249778 0)
(1.17753 -0.0247474 -4.94458e-28)
(1.17593 -0.0245097 4.79811e-28)
(1.17435 -0.0242657 0)
(1.17279 -0.0240164 0)
(1.17125 -0.0237625 0)
(1.16973 -0.023505 0)
(1.16823 -0.0232446 0)
(1.16675 -0.0229819 0)
(1.16529 -0.0227177 0)
(1.16384 -0.0224525 0)
(1.16242 -0.0221869 0)
(1.16101 -0.0219215 0)
(1.15962 -0.0216566 0)
(1.24448 -0.0117104 -2.4738e-11)
(1.24291 -0.0129588 -2.43498e-11)
(1.24129 -0.0141134 0)
(1.23965 -0.0151783 0)
(1.23798 -0.0161574 -9.60291e-28)
(1.23629 -0.0170549 1.62333e-27)
(1.23459 -0.0178745 -2.22928e-11)
(1.23287 -0.0186201 -2.1867e-11)
(1.23114 -0.0192954 2.14389e-11)
(1.2294 -0.019904 2.10095e-11)
(1.22765 -0.0204495 4.93822e-28)
(1.22591 -0.0209353 0)
(1.22416 -0.0213647 0)
(1.22242 -0.0217411 0)
(1.22067 -0.0220674 -7.83262e-28)
(1.21894 -0.0223467 0)
(1.21721 -0.0225819 0)
(1.21549 -0.0227758 0)
(1.21378 -0.022931 0)
(1.21208 -0.0230502 6.97109e-28)
(1.21039 -0.0231357 -1.63909e-11)
(1.20871 -0.0231898 -1.59934e-11)
(1.20705 -0.0232149 0)
(1.2054 -0.0232131 0)
(1.20376 -0.0231863 6.15714e-28)
(1.20214 -0.0231365 0)
(1.20054 -0.0230655 0)
(1.19895 -0.0229752 -1.37228e-11)
(1.19738 -0.022867 -2.67296e-11)
(1.19582 -0.0227426 -1.30128e-11)
(1.19428 -0.0226034 1.09455e-27)
(1.19276 -0.0224509 -5.11709e-28)
(1.19125 -0.0222862 0)
(1.18976 -0.0221108 4.84263e-28)
(1.18829 -0.0219257 0)
(1.18683 -0.0217319 -4.5783e-28)
(1.18539 -0.0215307 1.07199e-11)
(1.18397 -0.0213228 1.04166e-11)
(1.18256 -0.0211092 0)
(1.18117 -0.0208907 0)
(1.1798 -0.0206682 9.54217e-12)
(1.17844 -0.0204423 1.85246e-11)
(1.1771 -0.0202137 1.79762e-11)
(1.17578 -0.0199831 8.71948e-12)
(1.17447 -0.0197511 8.45638e-12)
(1.17317 -0.0195182 1.63974e-11)
(1.17189 -0.0192849 7.94632e-12)
(1.17063 -0.0190516 0)
(1.2417 -0.00901023 2.4738e-11)
(1.24046 -0.0101785 2.43498e-11)
(1.23917 -0.0112625 0)
(1.23785 -0.0122656 0)
(1.2365 -0.0131913 9.60291e-28)
(1.23512 -0.014043 -9.42932e-28)
(1.23372 -0.0148239 2.22928e-11)
(1.23229 -0.0155373 2.1867e-11)
(1.23085 -0.0161865 -2.14389e-11)
(1.22939 -0.0167747 -2.10095e-11)
(1.22792 -0.017305 -4.93822e-28)
(1.22645 -0.0177803 0)
(1.22496 -0.0182037 0)
(1.22347 -0.018578 0)
(1.22198 -0.018906 7.83262e-28)
(1.22049 -0.0191903 0)
(1.219 -0.0194336 0)
(1.21751 -0.0196383 0)
(1.21602 -0.0198069 0)
(1.21454 -0.0199417 -6.97109e-28)
(1.21307 -0.0200448 1.63909e-11)
(1.2116 -0.0201184 1.59934e-11)
(1.21014 -0.0201646 0)
(1.2087 -0.0201852 0)
(1.20726 -0.0201822 -6.15714e-28)
(1.20583 -0.0201573 0)
(1.20441 -0.0201122 0)
(1.203 -0.0200484 1.37228e-11)
(1.20161 -0.0199676 2.67296e-11)
(1.20023 -0.0198711 1.30128e-11)
(1.19886 -0.0197603 -1.09455e-27)
(1.1975 -0.0196365 5.11709e-28)
(1.19616 -0.0195009 0)
(1.19483 -0.0193547 -4.84263e-28)
(1.19351 -0.0191989 0)
(1.19221 -0.0190347 4.5783e-28)
(1.19092 -0.0188628 -1.07199e-11)
(1.18964 -0.0186843 -1.04166e-11)
(1.18838 -0.0185 0)
(1.18714 -0.0183107 0)
(1.1859 -0.0181171 -9.54217e-12)
(1.18468 -0.0179199 -1.85246e-11)
(1.18347 -0.0177198 -1.79762e-11)
(1.18228 -0.0175174 -8.71948e-12)
(1.1811 -0.0173133 -8.45638e-12)
(1.17993 -0.0171079 -1.63974e-11)
(1.17878 -0.0169018 -7.94632e-12)
(1.17764 -0.0166954 0)
(1.23774 -0.00689419 0)
(1.23675 -0.00797225 0)
(1.23573 -0.00897526 -9.38782e-28)
(1.23466 -0.00990606 0)
(1.23355 -0.0107675 9.13061e-28)
(1.23241 -0.0115624 -6.49606e-28)
(1.23125 -0.0122937 -2.36101e-28)
(1.23005 -0.0129641 0)
(1.22884 -0.0135764 0)
(1.22761 -0.0141334 3.48588e-28)
(1.22635 -0.0146377 0)
(1.22509 -0.0150921 -3.36247e-28)
(1.22382 -0.015499 0)
(1.22253 -0.0158611 1.62855e-27)
(1.22124 -0.0161807 -7.67101e-28)
(1.21994 -0.0164603 0)
(1.21864 -0.0167021 7.3656e-28)
(1.21734 -0.0169083 0)
(1.21604 -0.0170811 0)
(1.21474 -0.0172227 0)
(1.21344 -0.0173348 -1.40692e-27)
(1.21214 -0.0174196 0)
(1.21085 -0.0174788 1.34478e-27)
(1.20957 -0.0175141 0)
(1.20829 -0.0175273 -6.16659e-28)
(1.20702 -0.0175199 0)
(1.20575 -0.0174936 0)
(1.2045 -0.0174496 1.19427e-27)
(1.20325 -0.0173895 -5.59735e-28)
(1.20202 -0.0173146 0)
(1.20079 -0.0172261 1.10806e-27)
(1.19958 -0.0171251 -5.18865e-28)
(1.19837 -0.0170129 0)
(1.19718 -0.0168904 4.92567e-28)
(1.19599 -0.0167588 0)
(1.19482 -0.0166188 0)
(1.19366 -0.0164715 0)
(1.19251 -0.0163177 0)
(1.19138 -0.0161581 -4.30308e-28)
(1.19025 -0.0159935 0)
(1.18914 -0.0158246 4.06825e-28)
(1.18804 -0.0156521 0)
(1.18695 -0.0154765 -7.99662e-28)
(1.18587 -0.0152985 0)
(1.18481 -0.0151185 0)
(1.18375 -0.0149371 3.51644e-28)
(1.18271 -0.0147547 -7.10257e-28)
(1.18168 -0.0145718 0)
(1.23334 -0.00523165 0)
(1.23256 -0.00621222 0)
(1.23173 -0.00712667 9.38782e-28)
(1.23086 -0.00797732 0)
(1.22995 -0.00876653 -9.13061e-28)
(1.229 -0.00949668 0)
(1.22802 -0.0101702 8.85707e-28)
(1.22701 -0.0107893 0)
(1.22597 -0.0113566 0)
(1.22491 -0.0118743 -3.48588e-28)
(1.22383 -0.0123448 0)
(1.22273 -0.0127703 3.36247e-28)
(1.22162 -0.0131531 0)
(1.2205 -0.0134953 -1.62855e-27)
(1.21936 -0.0137991 7.67101e-28)
(1.21822 -0.0140666 0)
(1.21707 -0.0142998 -7.3656e-28)
(1.21591 -0.0145007 0)
(1.21475 -0.0146711 0)
(1.21359 -0.0148129 0)
(1.21243 -0.0149279 1.40692e-27)
(1.21127 -0.0150177 0)
(1.21011 -0.015084 -1.34478e-27)
(1.20896 -0.0151284 0)
(1.20781 -0.0151523 6.16659e-28)
(1.20666 -0.0151573 0)
(1.20552 -0.0151446 0)
(1.20438 -0.0151157 -1.19427e-27)
(1.20326 -0.0150717 5.59735e-28)
(1.20214 -0.0150138 0)
(1.20103 -0.0149433 -1.10806e-27)
(1.19992 -0.0148611 5.18865e-28)
(1.19883 -0.0147683 0)
(1.19774 -0.0146658 -4.92567e-28)
(1.19667 -0.0145546 0)
(1.1956 -0.0144356 0)
(1.19455 -0.0143095 0)
(1.1935 -0.0141772 0)
(1.19247 -0.0140393 4.30308e-28)
(1.19144 -0.0138965 0)
(1.19043 -0.0137495 -4.06825e-28)
(1.18943 -0.0135989 0)
(1.18844 -0.0134453 7.99662e-28)
(1.18746 -0.0132892 0)
(1.18648 -0.013131 0)
(1.18553 -0.0129713 -3.51644e-28)
(1.18458 -0.0128105 7.10257e-28)
(1.18364 -0.012649 0)
(1.22896 -0.00392444 0)
(1.22834 -0.00480182 1.87569e-27)
(1.22767 -0.0056217 0)
(1.22695 -0.00638598 -1.8381e-27)
(1.22619 -0.00709658 0)
(1.22539 -0.00775547 -2.05729e-27)
(1.22456 -0.00836462 3.83016e-27)
(1.22369 -0.00892604 -2.02427e-11)
(1.22279 -0.00944172 -1.99592e-11)
(1.22187 -0.00991363 -3.37812e-28)
(1.22092 -0.0103438 -1.93683e-11)
(1.21996 -0.010734 -1.90628e-11)
(1.21897 -0.0110864 7.784e-28)