/*--------------------------------*- C++ -*----------------------------------*\
  =========                 |
  \\      /  F ield         | OpenFOAM: The Open Source CFD Toolbox
   \\    /   O peration     | Website:  https://openfoam.org
    \\  /    A nd           | Version:  7
     \\/     M anipulation  |
\*---------------------------------------------------------------------------*/
FoamFile
{
    version     2.0;
    format      ascii;
    class       surfaceScalarField;
    location    "5.001";
    object      phi;
}
// * * * * * * * * * * * * * * * * * * * * * * * * * * * * * * * * * * * * * //

dimensions      [0 3 -1 0 0 0 0];

internalField   nonuniform List<scalar> 
22551
(
-3.33503e-05
8.85254e-12
-0.000107175
-2.72814e-11
-0.000208908
-7.98388e-11
-0.000330959
-1.36895e-10
-0.000469106
-1.94852e-10
-0.000621275
-2.51124e-10
-3.01737e-10
-9.55907e-05
-2.41531e-12
-0.0002836
-8.8662e-12
-0.000509044
-1.38362e-11
-0.000745601
-1.70109e-11
-0.000984326
-1.8675e-11
-0.00122371
-1.95367e-11
-0.0014643
-1.98472e-11
-1.97593e-11
-9.55907e-05
9.55907e-05
-0.0002836
0.000188009
-0.000509044
0.000225444
-0.000745601
0.000236557
-0.000984326
0.000238725
-0.00122371
0.000239384
-0.0014643
0.000240594
-0.00170693
0.000242623
-0.00195234
0.000245417
-0.00220125
0.000248906
-0.00245429
0.000253038
-0.00271206
0.000257768
-0.00297512
0.000263061
-0.00324401
0.000268888
-0.00351923
0.000275227
-0.0038013
0.000282068
-0.0040907
0.000289394
-0.00438784
0.000297148
-0.0046931
0.00030526
0.000313876
-0.00500698
-9.51585e-05
0.000190749
-0.00028256
0.000375411
-0.000507451
0.000450334
-0.000743533
0.00047264
-0.000981827
0.000477019
-0.0012208
0.000478355
-0.00146098
0.00048078
-0.0017032
0.000484843
-0.00194822
0.000490432
-0.00219672
0.000497411
-0.00244936
0.000505674
-0.00270672
0.000515132
-0.00296938
0.000525715
-0.00323785
0.000537363
-0.00351266
0.000550035
-0.0037943
0.000563709
-0.00408326
0.000578354
-0.00437997
0.000593855
-0.00468478
0.000610071
0.000627291
-0.0049982
-9.4295e-05
0.000285044
-0.000280482
0.000561597
-0.000504265
0.000674118
-0.000739398
0.000707774
-0.000976831
0.000714452
-0.00121497
0.000716498
-0.00145435
0.000720153
-0.00169576
0.000726257
-0.00193997
0.000734645
-0.00218768
0.000745115
-0.00243951
0.000757506
-0.00269606
0.000771687
-0.0029579
0.000787552
-0.00322555
0.000805013
-0.00349952
0.000824007
-0.00378031
0.000844499
-0.0040684
0.000866446
-0.00436423
0.00088968
-0.00466814
0.000913987
0.000939781
-0.00498064
-9.30022e-05
0.000378046
-0.000277367
0.000745962
-0.000499489
0.00089624
-0.000733198
0.000941483
-0.000969339
0.000950593
-0.00120624
0.000953401
-0.0014444
0.000958307
-0.0016846
0.000966462
-0.00192761
0.000977655
-0.00217412
0.000991618
-0.00242474
0.00100813
-0.00268009
0.00102703
-0.0029407
0.00104817
-0.00320712
0.00107143
-0.00347983
0.00109672
-0.00375935
0.00112401
-0.00404614
0.00115324
-0.00434064
0.00118418
-0.00464322
0.00121656
0.00125089
-0.00495432
-9.12831e-05
0.000469329
-0.000273219
0.000927898
-0.000493124
0.00111614
-0.000724934
0.00117329
-0.000959354
0.00118501
-0.00119461
0.00118865
-0.00143114
0.00119484
-0.00166974
0.00120506
-0.00191115
0.00121907
-0.00215605
0.00123652
-0.00240508
0.00125716
-0.00265881
0.00128076
-0.0029178
0.00130716
-0.00318257
0.0013362
-0.00345362
0.00136777
-0.00373144
0.00140183
-0.0040165
0.0014383
-0.00430924
0.00147692
-0.00461002
0.00151734
0.00156015
-0.00491928
-8.91417e-05
0.000558471
-0.000268043
0.0011068
-0.000485175
0.00133328
-0.000714609
0.00140273
-0.000946881
0.00141728
-0.00118008
0.00142185
-0.00141458
0.00142935
-0.00165118
0.00144165
-0.00189059
0.00145848
-0.00213351
0.00147943
-0.00238053
0.00150419
-0.00263226
0.00153249
-0.00288922
0.00156412
-0.00315194
0.00159892
-0.00342091
0.00163674
-0.00369661
0.00167753
-0.00397951
0.0017212
-0.00427005
0.00176747
-0.0045686
0.00181589
0.0018671
-0.00487556
-8.65832e-05
0.000645054
-0.000261844
0.00128206
-0.000475645
0.00154708
-0.000702227
0.00162931
-0.000931924
0.00164698
-0.00116265
0.00165258
-0.00139474
0.00166144
-0.00162894
0.00167585
-0.00186597
0.00169551
-0.0021065
0.00171996
-0.00235113
0.00174883
-0.00260045
0.00178181
-0.00285499
0.00181866
-0.00311525
0.00185918
-0.00338173
0.00190322
-0.0036549
0.0019507
-0.00393522
0.00200153
-0.00422314
0.00205538
-0.00451901
0.00211176
0.0021713
-0.00482321
-8.36139e-05
0.000728668
-0.00025463
0.00145308
-0.00046454
0.00175699
-0.000687793
0.00185256
-0.000914489
0.00187368
-0.00114235
0.00188044
-0.00137163
0.00189071
-0.00160303
0.00190726
-0.00183729
0.00192977
-0.00207505
0.00195772
-0.0023169
0.00199068
-0.00256343
0.00202833
-0.00281515
0.00207037
-0.00307256
0.00211659
-0.00333615
0.00216681
-0.00360637
0.00222092
-0.0038837
0.00227885
-0.00416856
0.00234024
-0.00446131
0.00240452
0.00247228
-0.0047623
-8.02411e-05
0.000808909
-0.00024641
0.00161925
-0.000451866
0.00196244
-0.000671311
0.00207201
-0.000894583
0.00209695
-0.00111918
0.00210504
-0.00134525
0.00211678
-0.00157349
0.00213549
-0.00180458
0.00216087
-0.00203919
0.00219232
-0.00227788
0.00222938
-0.00252122
0.00227167
-0.00276973
0.00231888
-0.0030239
0.00237076
-0.00328419
0.0024271
-0.00355107
0.0024878
-0.00382499
0.00255276
-0.00410637
0.00262163
-0.00439559
0.00269373
0.00276961
-0.00469292
-7.64738e-05
0.000885383
-0.000237194
0.00177997
-0.00043763
0.00216288
-0.000652786
0.00228716
-0.000872215
0.00231638
-0.00109315
0.00232598
-0.00131563
0.00233926
-0.00154032
0.00236017
-0.00176788
0.00238843
-0.00199895
0.00242339
-0.0022341
0.00246454
-0.00247388
0.00251145
-0.0027188
0.0025638
-0.00296933
0.00262129
-0.00322594
0.00268372
-0.00348908
0.00275094
-0.00375918
0.00282287
-0.00403667
0.00289913
-0.00432192
0.00297898
0.00306284
-0.00461516
-7.23221e-05
0.000957705
-0.000226994
0.00193464
-0.000421841
0.00235772
-0.000632227
0.00249755
-0.000847392
0.00253154
-0.00106428
0.00254287
-0.0012828
0.00255778
-0.00150355
0.00258093
-0.0017272
0.00261208
-0.00195437
0.00265056
-0.00218561
0.00269578
-0.00242145
0.00274729
-0.00266239
0.00280474
-0.00290891
0.00286781
-0.00316145
0.00293625
-0.00342045
0.00300994
-0.00368634
0.00308876
-0.00395955
0.00317234
-0.00424043
0.00325986
0.00335157
-0.00452915
-6.77978e-05
0.0010255
-0.000215824
0.00208266
-0.00040451
0.00254641
-0.00060964
0.00270268
-0.000820124
0.00274202
-0.00103258
0.00275532
-0.00124676
0.00277195
-0.00146321
0.00279739
-0.00168259
0.00283146
-0.00190549
0.00287345
-0.00213245
0.00292274
-0.00236399
0.00297883
-0.00260058
0.00304134
-0.0028427
0.00310993
-0.00309079
0.00318434
-0.00334526
0.00326441
-0.00360656
0.00335005
-0.0038751
0.00344088
-0.00415121
0.00353598
0.00363538
-0.00443503
-6.29143e-05
0.00108842
-0.000203702
0.00222345
-0.000385649
0.00272836
-0.000585035
0.00290207
-0.000790421
0.00294741
-0.000998063
0.00296297
-0.00120754
0.00298143
-0.00141934
0.00300919
-0.00163409
0.00304621
-0.00185236
0.00309172
-0.00207468
0.00314506
-0.00230154
0.0032057
-0.00253343
0.00327322
-0.00277078
0.00334728
-0.00301404
0.00342759
-0.00326361
0.00351398
-0.00351993
0.00360637
-0.00378343
0.00370438
-0.00405441
0.00380696
0.00391391
-0.00433294
-5.76871e-05
0.0011461
-0.000190647
0.00235641
-0.000365272
0.00290298
-0.000558421
0.00309522
-0.000758296
0.00314729
-0.000960752
0.00316542
-0.00116516
0.00318584
-0.00137196
0.00321599
-0.00158173
0.00325598
-0.00179502
0.00330501
-0.00201234
0.00336238
-0.00223419
0.00342754
-0.002461
0.00350004
-0.00269323
0.00357951
-0.00293128
0.00366564
-0.00317557
0.00375827
-0.00342654
0.00385734
-0.00368464
0.00396248
-0.00395017
0.00407249
0.00418681
-0.00422308
-5.21333e-05
0.00119824
-0.000176682
0.00248096
-0.000343396
0.0030697
-0.00052981
0.00328163
-0.00072376
0.00334124
-0.000920663
0.00336232
-0.00111966
0.00338484
-0.00132111
0.00341743
-0.00152555
0.00346042
-0.00173352
0.00351298
-0.00194551
0.00357437
-0.00216198
0.00364401
-0.00238338
0.00372143
-0.00261012
0.00380625
-0.00284261
0.00389813
-0.00308123
0.0039969
-0.00332646
0.00410256
-0.00357883
0.00421485
-0.00383863
0.00433229
0.00445383
-0.00410565
-4.62726e-05
0.00124451
-0.000161833
0.00259652
-0.000320042
0.0032279
-0.000499217
0.0034608
-0.000686828
0.00352885
-0.000877815
0.00355331
-0.00107107
0.00357809
-0.00126683
0.00361319
-0.00146561
0.00365921
-0.00166793
0.0037153
-0.00187425
0.00378069
-0.00208501
0.00385477
-0.00230064
0.00393706
-0.00252156
0.00402716
-0.00274814
0.00412471
-0.00298074
0.0042295
-0.00321983
0.00434165
-0.00346609
0.00446111
-0.00371997
0.00458617
0.0047148
-0.00398094
-4.01264e-05
0.00128464
-0.000146131
0.00270253
-0.000295234
0.00337701
-0.000466656
0.00363223
-0.000647514
0.0037097
-0.000832231
0.00373803
-0.0010194
0.00376526
-0.00120916
0.00380295
-0.00140196
0.00385201
-0.00159831
0.00391164
-0.00179863
0.00398101
-0.00200335
0.0040595
-0.00221287
0.00414659
-0.0024276
0.00424188
-0.0026479
0.00434501
-0.00287408
0.00445569
-0.00310653
0.0045741
-0.00334617
0.00470074
-0.00359406
0.00483406
0.00496997
-0.00384923
-3.3719e-05
0.00131836
-0.000129613
0.00279842
-0.000268997
0.00351639
-0.000432147
0.00379538
-0.000605834
0.00388339
-0.000783931
0.00391613
-0.000964698
0.00394603
-0.00114813
0.00398638
-0.00133465
0.00403854
-0.00152471
0.0041017
-0.00171873
0.00417503
-0.00191709
0.00425786
-0.00212019
0.00434968
-0.00232841
0.0044501
-0.00254215
0.00455876
-0.00276172
0.00467526
-0.0029873
0.00479968
-0.00321975
0.00493319
-0.00346139
0.0050757
0.00521993
-0.00371135
-2.70775e-05
0.00134543
-0.000112319
0.00288366
-0.000241364
0.00364544
-0.000395709
0.00394972
-0.000561808
0.00404949
-0.000732941
0.00408726
-0.000906994
0.00412008
-0.00108381
0.0041632
-0.00126374
0.00421847
-0.00144722
0.00428517
-0.00163462
0.00436244
-0.00182633
0.00444957
-0.00202268
0.00454604
-0.00222403
0.00465145
-0.00243075
0.00476548
-0.00264316
0.00488766
-0.00286116
0.00501768
-0.00308482
0.00515686
-0.00331825
0.00530912
0.00546882
-0.00356714
-2.02349e-05
0.00136567
-9.42947e-05
0.00295772
-0.00021237
0.00376351
-0.000357369
0.00409472
-0.000515457
0.00420758
-0.000679286
0.00425109
-0.000846324
0.00428712
-0.00101623
0.0043331
-0.0011893
0.00439153
-0.0013659
0.00446177
-0.00154641
0.00454294
-0.00173116
0.00463432
-0.00192048
0.00473536
-0.00211467
0.00484565
-0.00231412
0.00496493
-0.00251933
0.00509286
-0.00273063
0.00522899
-0.00294735
0.00537357
-0.00316958
0.00553135
0.00572121
-0.00342196
-1.32388e-05
0.00137891
-7.55865e-05
0.00302007
-0.000182054
0.00386998
-0.000317159
0.00422983
-0.000466806
0.00435722
-0.000622993
0.00440727
-0.000782726
0.00444685
-0.000945449
0.00449583
-0.00111137
0.00455746
-0.00128083
0.00463124
-0.00145417
0.00471628
-0.0016317
0.00481185
-0.00181371
0.00491737
-0.00200048
0.00503242
-0.00219231
0.00515676
-0.0023896
0.00529016
-0.0025927
0.00543209
-0.00280182
0.00558269
-0.00301674
0.00574628
0.00592697
-0.0032225
-6.19299e-06
0.0013851
-5.62182e-05
0.0030701
-0.000150461
0.00396422
-0.00027512
0.00435448
-0.000415882
0.00449799
-0.000564092
0.00455548
-0.000716239
0.004599
-0.000871517
0.00465111
-0.00103004
0.00471598
-0.0011921
0.0047933
-0.00135801
0.00488219
-0.00152806
0.00498189
-0.00170249
0.0050918
-0.00188156
0.00521148
-0.00206548
0.00534068
-0.00225452
0.0054792
-0.00244901
0.00562658
-0.00264918
0.00578286
-0.00285398
0.00595108
0.0061346
-0.00306161
5.74776e-07
0.00138453
-3.61334e-05
0.0031068
-0.00011766
0.00404575
-0.000231302
0.00446813
-0.000362719
0.0046294
-0.000502617
0.00469538
-0.000646906
0.00474329
-0.000794489
0.00479869
-0.000945369
0.00486686
-0.00109979
0.00494772
-0.00125804
0.00504043
-0.00142035
0.00514421
-0.00158697
0.00525843
-0.00175812
0.00538263
-0.00193398
0.00551654
-0.0021148
0.00566001
-0.00230098
0.00581276
-0.00249301
0.00597488
-0.00269057
0.00614864
0.00633499
-0.00289096
8.51224e-06
0.00137601
-1.50326e-05
0.00313035
-8.37549e-05
0.00411447
-0.000185753
0.00457012
-0.000307358
0.00475101
-0.000438607
0.00482663
-0.000574771
0.00487945
-0.000714424
0.00493834
-0.000857432
0.00500987
-0.00100399
0.00509428
-0.00115434
0.00519078
-0.00130871
0.00529858
-0.00146731
0.00541703
-0.00163035
0.00554567
-0.00179803
0.00568422
-0.00197061
0.00583259
-0.00214853
0.00599068
-0.00233221
0.00615857
-0.00252088
0.00633731
0.00652642
-0.00271232
1.57119e-05
0.0013603
6.28499e-06
0.00313977
-4.88848e-05
0.00416964
-0.000138525
0.00465976
-0.000249859
0.00486234
-0.000372109
0.00494888
-0.000499884
0.00500723
-0.000631381
0.00506984
-0.000766304
0.00514479
-0.000904788
0.00523277
-0.00104704
0.00533303
-0.00119325
0.00544479
-0.00134363
0.00556741
-0.00149838
0.00570042
-0.0016577
0.00584355
-0.00182186
0.00599675
-0.00199124
0.00616006
-0.00216613
0.00633345
-0.0023457
0.00651688
0.00670897
-0.00252824
2.25539e-05
0.00133775
2.59192e-05
0.00313641
-1.25431e-05
0.0042081
-8.97605e-05
0.00473698
-0.000190303
0.00496289
-0.000303171
0.00506175
-0.000422296
0.00512635
-0.000545421
0.00519297
-0.00067206
0.00527143
-0.000802271
0.00536298
-0.000936221
0.00546698
-0.00107409
0.00558266
-0.00121606
0.00570938
-0.00136232
0.00584668
-0.00151307
0.0059943
-0.00166856
0.00615224
-0.00182909
0.00632059
-0.00199482
0.00649918
-0.00216511
0.00668717
0.00688272
-0.00233886
2.92414e-05
0.00130851
4.65281e-05
0.00311912
2.34414e-05
0.00423119
-3.97465e-05
0.00480017
-0.000128767
0.00505191
-0.000231859
0.00516484
-0.000342064
0.00523656
-0.000456611
0.00530751
-0.000574778
0.0053896
-0.000696532
0.00548473
-0.000822001
0.00559245
-0.000951341
0.005712
-0.00108471
0.00584275
-0.00122228
0.00598425
-0.00136426
0.00613627
-0.00151085
0.00629883
-0.00166227
0.00647201
-0.00181857
0.00665549
-0.00197926
0.00684786
0.00704721
-0.00214375
3.57899e-05
0.00127272
6.72278e-05
0.00308769
5.99176e-05
0.0042385
1.18534e-05
0.00484823
-6.53543e-05
0.00512911
-0.000158244
0.00525773
-0.000259249
0.00533757
-0.000365019
0.00541328
-0.000474539
0.00549912
-0.000587665
0.00559786
-0.000704483
0.00570927
-0.000825119
0.00583264
-0.000949711
0.00596734
-0.00107842
0.00611296
-0.00121141
0.00626927
-0.00134887
0.00643629
-0.00149095
0.00661409
-0.00163761
0.00680216
-0.00178847
0.00699872
0.00720196
-0.00194322
4.2072e-05
0.00123064
8.78088e-05
0.00304195
9.70881e-05
0.00422922
6.39413e-05
0.00488138
-2.46515e-07
0.0051933
-8.24085e-05
0.00533989
-0.000173917
0.00542907
-0.00027072
0.00551008
-0.000371427
0.00559982
-0.000475768
0.0057022
-0.000583778
0.00581728
-0.000695552
0.00594441
-0.000811198
0.00608299
-0.000930857
0.00623262
-0.00105468
0.00639309
-0.00118281
0.00656441
-0.00131531
0.00674659
-0.00145213
0.00693898
-0.00159299
0.00713957
0.00734671
-0.00173774
4.79871e-05
0.00118266
0.00010806
0.00298188
0.000134485
0.00420279
0.00011736
0.00489851
6.6514e-05
0.00524415
-4.68362e-06
0.00541109
-8.61589e-05
0.00551055
-0.000173807
0.00559773
-0.000265528
0.00569154
-0.000360938
0.00579761
-0.000460003
0.00591635
-0.000562767
0.00604717
-0.000669312
0.00618953
-0.000779759
0.00634306
-0.000894228
0.00650756
-0.00101282
0.006683
-0.00113555
0.00686933
-0.00126235
0.00706578
-0.00139303
0.00727025
0.00748127
-0.00152759
5.34483e-05
0.00112921
0.00012774
0.00290758
0.000171817
0.00415872
0.000171511
0.00489881
0.000134868
0.00528079
7.55012e-05
0.00547046
3.58273e-06
0.00558247
-7.43876e-05
0.0056757
-0.00015695
0.00577411
-0.000243272
0.00588393
-0.000333286
0.00600636
-0.000426902
0.00614079
-0.000524202
0.00628683
-0.000625283
0.00644414
-0.000730229
0.00661251
-0.000839101
0.00679187
-0.000951887
0.00698211
-0.00106851
0.0071824
-0.00118887
0.00739061
0.00760541
-0.00131301
5.83672e-05
0.00107084
0.000146598
0.00281935
0.000208755
0.00409656
0.000226084
0.00488148
0.000204462
0.00530241
0.000157434
0.00551748
9.63778e-05
0.00564352
2.7548e-05
0.00574453
-4.58459e-05
0.0058475
-0.000122878
0.00596096
-0.000203776
0.00608726
-0.000288081
0.0062251
-0.000376025
0.00637478
-0.000467604
0.00653572
-0.000562873
0.00670778
-0.000661867
0.00689087
-0.000764551
0.00708479
-0.000870859
0.00728871
-0.000980754
0.00750051
0.00771895
-0.00109429
6.26593e-05
0.00100818
0.000164372
0.00271764
0.000244926
0.00401601
0.000280724
0.00484569
0.000275028
0.00530811
0.000241029
0.00555148
0.000190865
0.00569369
0.000132015
0.00580338
6.7858e-05
0.00591166
-4.69794e-07
0.00602929
-7.1648e-05
0.00615843
-0.000146459
0.00629991
-0.000224967
0.00645328
-0.000306895
0.00661765
-0.00039236
0.00679324
-0.000481344
0.00697985
-0.000573788
0.00717724
-0.000669667
0.00738459
-0.000768977
0.00759982
0.00782165
-0.000871684
6.62485e-05
0.000941933
0.000180792
0.0026031
0.000279915
0.00391688
0.000335006
0.00479059
0.000346222
0.00529689
0.000326049
0.00557166
0.000287332
0.00573241
0.000238588
0.00585213
0.000184069
0.00596618
0.000125533
0.00608783
6.321e-05
0.00622076
-2.54949e-06
0.00636567
-7.12291e-05
0.00652196
-0.000143359
0.00668978
-0.000218915
0.0068688
-0.000297767
0.0070587
-0.00037983
0.0072593
-0.00046517
0.00746993
-0.000553811
0.00768846
0.00791338
-0.00064554
6.90692e-05
0.000872864
0.000195577
0.00247659
0.000313262
0.0037992
0.000388435
0.00471542
0.000417627
0.0052677
0.000412204
0.00557708
0.000385558
0.00575905
0.000347255
0.00589043
0.000302437
0.00601099
0.000253277
0.00613699
0.000200545
0.00627349
0.00014455
0.00642166
8.52155e-05
0.0065813
2.27293e-05
0.00675227
-4.27887e-05
0.00693432
-0.000111406
0.00712732
-0.000182978
0.00733087
-0.000257647
0.0075446
-0.000335555
0.00776637
0.00799407
-0.000416244
7.10687e-05
0.000801796
0.000208416
0.00233924
0.000344463
0.00366315
0.000440437
0.00461945
0.000488734
0.0052194
0.000499115
0.0055667
0.000485273
0.00577289
0.000457827
0.00591788
0.000422895
0.00604593
0.000383276
0.00617661
0.000340046
0.00631672
0.000293585
0.00646812
0.000244034
0.00663085
0.000191485
0.00680482
0.000135961
0.00698984
7.75398e-05
0.00718574
1.62558e-05
0.00739216
-4.73999e-05
0.00760826
-0.000114052
0.00783302
0.00806449
-0.000184468
7.2214e-05
0.000729582
0.000219045
0.00219241
0.00037298
0.00350922
0.000490351
0.00450208
0.000558932
0.00515082
0.000586308
0.00553932
0.000586151
0.00577305
0.000570084
0.00593394
0.000545298
0.00607071
0.000515337
0.00620657
0.000481646
0.00635041
0.00044479
0.00650498
0.00040498
0.00667066
0.000362334
0.00684746
0.000316945
0.00703523
0.000268907
0.00723378
0.000218364
0.0074427
0.000165253
0.00766137
0.000109461
0.00788881
0.00812432
4.96297e-05
7.2491e-05
0.000657091
0.00022722
0.00203768
0.000398243
0.00333819
0.000537431
0.00436289
0.000627486
0.00506077
0.000673193
0.00549361
0.000687782
0.00575846
0.000683753
0.00593797
0.000669451
0.00608501
0.000649286
0.00622673
0.000625198
0.0063745
0.000597973
0.0065322
0.000567913
0.00670072
0.000535193
0.00688018
0.000499939
0.00707048
0.00046226
0.00727146
0.00042225
0.00748271
0.000379986
0.00770363
0.000335449
0.00793335
0.00817056
0.000289212
7.19058e-05
0.000585185
0.000232732
0.00187686
0.000419671
0.00315126
0.000580843
0.00420172
0.000693536
0.00494807
0.000759047
0.0054281
0.00078964
0.00572787
0.000798485
0.00592913
0.000795116
0.00608838
0.000784945
0.0062369
0.00077053
0.00638892
0.000752952
0.00654978
0.000732646
0.00672103
0.000709845
0.00690298
0.000684711
0.00709562
0.00065738
0.00729879
0.000627973
0.00751212
0.000596622
0.00773498
0.000563415
0.00796655
0.00820549
0.000528478
7.04855e-05
0.000514699
0.000235423
0.00171192
0.000436686
0.00294999
0.000619679
0.00401872
0.000756077
0.00481168
0.000842982
0.0053412
0.000891061
0.00567979
0.000913834
0.00590635
0.000921999
0.00608022
0.000922102
0.0062368
0.000917458
0.00639356
0.000909546
0.00655769
0.000898982
0.00673159
0.000886075
0.00691589
0.000871027
0.00711066
0.00085401
0.00731581
0.000835171
0.00753096
0.000814631
0.00775552
0.000792417
0.00798877
0.00822935
0.000768562
6.82794e-05
0.00044642
0.000235201
0.001545
0.000448753
0.00273644
0.000652969
0.00381451
0.000813959
0.00465069
0.000923929
0.00523123
0.000991204
0.00561251
0.00102922
0.00586834
0.00104972
0.00605971
0.0010605
0.00622602
0.00106578
0.00638828
0.00106757
0.00655591
0.00106673
0.00673243
0.00106367
0.00691895
0.00105865
0.00711568
0.00105188
0.00732258
0.0010435
0.00753933
0.00103364
0.00776538
0.00102231
0.00800011
0.00824215
0.00100951
6.53587e-05
0.000381061
0.000232063
0.00137829
0.000455412
0.00251309
0.000679723
0.0035902
0.000865896
0.00446451
0.00100061
0.00509651
0.00108902
0.0055241
0.00114388
0.00581348
0.00117779
0.0060258
0.00119982
0.00620399
0.00121528
0.00637282
0.00122683
0.00654436
0.00123568
0.00672357
0.00124242
0.00691221
0.00124736
0.00711074
0.00125073
0.00731922
0.0012527
0.00753736
0.00125342
0.00776466
0.00125292
0.00800061
0.00824391
0.00125116
6.18133e-05
0.000319248
0.000226095
0.00121401
0.000456326
0.00228286
0.000698971
0.00334755
0.000910479
0.004253
0.00107153
0.00493546
0.00118321
0.00541242
0.00125686
0.00573983
0.00130557
0.0059771
0.00133966
0.0061699
0.00136566
0.00634681
0.00138711
0.00652292
0.00140567
0.00670501
0.00142214
0.00689574
0.00143693
0.00709595
0.00145033
0.00730581
0.00146254
0.00752515
0.00147372
0.00775348
0.00148395
0.00799038
0.00823477
0.00149309
5.77496e-05
0.000261498
0.000217486
0.00105427
0.000451326
0.00204902
0.000709832
0.00308905
0.000946225
0.00401661
0.00113498
0.00474671
0.00127219
0.0052752
0.00136692
0.0056451
0.00143219
0.00591183
0.00147946
0.00612264
0.0015166
0.00630967
0.00154817
0.00649135
0.00157647
0.00667671
0.00160262
0.00686959
0.00162718
0.00707139
0.00165048
0.00728251
0.00167278
0.00750285
0.00169426
0.007732
0.00171506
0.00796958
0.00821494
0.0017349
5.32849e-05
0.000208213
0.000206514
0.000901045
0.000440451
0.00181508
0.000711593
0.0028179
0.000971638
0.00375657
0.00118903
0.00452932
0.00135407
0.00511017
0.00147247
0.00552669
0.00155652
0.00582779
0.00161849
0.00606067
0.00166763
0.00626053
0.00170972
0.00644926
0.00174789
0.00663854
0.00178369
0.00683379
0.0018179
0.00703718
0.00185098
0.00724943
0.0018832
0.00747063
0.00191479
0.00770041
0.00194596
0.00793841
0.00818464
0.00197626
4.85421e-05
0.000159671
0.000193542
0.000756045
0.000423978
0.00158465
0.000703801
0.00253808
0.000985309
0.00347506
0.00123162
0.00428301
0.0014266
0.00491518
0.00157156
0.00538173
0.00167707
0.00572228
0.00175575
0.00598199
0.00181814
0.00619813
0.00187139
0.00639601
0.00191967
0.00659027
0.00196514
0.00678832
0.00200893
0.00699339
0.00205162
0.00720674
0.00209359
0.00742866
0.00213507
0.00765892
0.0021764
0.00789708
0.00814415
0.00221689
4.36434e-05
0.000116028
0.000178987
0.000620702
0.000402421
0.00136121
0.000686353
0.00225415
0.000986045
0.00317537
0.00126063
0.00400843
0.00148728
0.00468853
0.00166178
0.00520723
0.0017919
0.00559216
0.00188987
0.00588402
0.00196726
0.00612074
0.00203267
0.0063306
0.0020915
0.00653144
0.00214678
0.00673304
0.00220008
0.00694009
0.00225225
0.00715458
0.00230376
0.00737715
0.00235491
0.00760777
0.00240615
0.00784584
0.00809376
0.00245654
3.87027e-05
7.73253e-05
0.000163298
0.000496106
0.000376514
0.001148
0.000659575
0.00197109
0.000973026
0.00286192
0.00127402
0.00370744
0.00153331
0.00442924
0.00174026
0.00500028
0.00189854
0.00543389
0.00201901
0.00576355
0.00211377
0.00602598
0.0021928
0.00625156
0.00226296
0.00646128
0.00232834
0.00666765
0.00239119
0.00687724
0.00245271
0.00709306
0.00251356
0.0073163
0.00257412
0.0075472
0.00263501
0.00778496
0.0080338
0.00269497
3.382e-05
4.35053e-05
0.000146923
0.000383003
0.000347152
0.000947769
0.000624248
0.00169399
0.000945975
0.00254019
0.00127004
0.00338337
0.00156183
0.00413745
0.00180368
0.00475842
0.0019939
0.00524367
0.0021407
0.00561675
0.00225594
0.00591074
0.00235073
0.00615678
0.00243344
0.00637857
0.00250949
0.0065916
0.00258205
0.00680469
0.00265284
0.00702227
0.00272285
0.00724629
0.00279255
0.0074775
0.00286281
0.0077147
0.00796461
0.00293199
2.9076e-05
1.44293e-05
0.000130279
0.0002818
0.000315325
0.000762723
0.00058159
0.00142773
0.000905297
0.00221648
0.00124749
0.00304118
0.00157007
0.00381487
0.00184841
0.00448009
0.00207424
0.00501784
0.00225175
0.00543924
0.00239141
0.00577108
0.00250488
0.0060433
0.002602
0.00628146
0.00268971
0.00650388
0.00277237
0.00672202
0.00285249
0.00694215
0.00293151
0.00716727
0.00301007
0.00739893
0.0030894
0.00763538
0.00788658
0.00316743
2.453e-05
-1.01007e-05
0.000113734
0.000192596
0.000282036
0.00059442
0.000533169
0.00117659
0.000852168
0.00189748
0.00120599
0.00268735
0.00155571
0.00346515
0.00187065
0.00416515
0.00213525
0.00475324
0.00234811
0.00522638
0.00251692
0.00560227
0.00265298
0.00590724
0.00276722
0.00616722
0.00286821
0.0064029
0.00296176
0.00662847
0.00305144
0.00685247
0.00313939
0.00707932
0.00322657
0.00731176
0.00331464
0.00754731
0.0078001
0.00340112
2.02214e-05
-3.03221e-05
9.75953e-05
0.000115222
0.000248239
0.000443777
0.000480767
0.000944065
0.000788513
0.00158974
0.00114624
0.00232962
0.00151728
0.00309411
0.00186686
0.00381557
0.00217215
0.00444795
0.00242486
0.00497368
0.0026282
0.00539893
0.00279179
0.00574365
0.00292696
0.00603205
0.00304371
0.00628614
0.00314954
0.00652264
0.00324937
0.00675264
0.00334635
0.00698234
0.00344193
0.00721618
0.00353843
0.00745081
0.0077056
0.00363294
1.61786e-05
-4.65007e-05
8.21257e-05
4.92749e-05
0.000214807
0.000311095
0.000426247
0.000732625
0.000716879
0.00129911
0.00107013
0.00197637
0.00145458
0.00270966
0.00183427
0.00343589
0.00218015
0.00410206
0.00247631
0.00467752
0.00271981
0.00515542
0.00291687
0.00554659
0.003078
0.00587092
0.00321417
0.00614997
0.00333455
0.00640227
0.00344569
0.00664149
0.00355212
0.00687591
0.00365602
0.00711229
0.00376065
0.00734618
0.0076035
0.00386274
1.24318e-05
-5.89324e-05
6.75658e-05
-5.85912e-06
0.000182542
0.000196118
0.000371452
0.000543715
0.000640241
0.00103032
0.000980764
0.00163585
0.00136908
0.00232134
0.00177147
0.00303351
0.002155
0.00371853
0.00249638
0.00433615
0.00278518
0.00486662
0.00302229
0.00530948
0.00321576
0.00567745
0.00337645
0.00598928
0.00351488
0.00626384
0.00363939
0.00651698
0.00375621
0.00675909
0.0038686
0.00699989
0.00398118
0.0072336
0.00749434
0.00409035
9.02822e-06
-6.79607e-05
5.4174e-05
-5.10049e-05
0.000152218
9.80745e-05
0.000318171
0.000377761
0.000561795
0.000786694
0.000882241
0.0013154
0.00126412
0.00193946
0.00167913
0.00261849
0.00209386
0.0033038
0.00247924
0.00395077
0.0028169
0.00452896
0.00310061
0.00502577
0.00333385
0.00544421
0.00352579
0.00579734
0.00368741
0.00610223
0.00382863
0.00637576
0.0039577
0.00663002
0.00407925
0.00687834
0.00419968
0.00711317
0.00737827
0.00431574
6.04435e-06
-7.4005e-05
4.22563e-05
-8.72168e-05
0.00012463
1.57008e-05
0.000268156
0.000234235
0.000484817
0.000570033
0.00077939
0.00102083
0.00114481
0.00157404
0.00156051
0.00220279
0.00199631
0.002868
0.00242043
0.00352665
0.00280749
0.00414189
0.00314306
0.00469021
0.00342392
0.00516335
0.00365533
0.00556593
0.0038472
0.00591035
0.00401032
0.00621264
0.00415482
0.00648553
0.00428712
0.00674603
0.00441594
0.00698435
0.0072563
0.00453792
3.58817e-06
-7.75932e-05
3.21746e-05
-0.000115803
0.000100619
-5.27436e-05
0.000223143
0.000111711
0.000412564
0.000380612
0.000677433
0.000755961
0.00101778
0.0012337
0.00142164
0.00179893
0.0018653
0.00242434
0.00231823
0.00307372
0.00275068
0.00370944
0.00314036
0.00430053
0.00347575
0.00482796
0.00375574
0.00528594
0.00398691
0.00567918
0.0041793
0.00602025
0.00434459
0.00632023
0.00449036
0.00660026
0.00462853
0.00684619
0.00712655
0.00475828
1.78787e-06
-7.93811e-05
2.43161e-05
-0.000138331
8.1026e-05
-0.000109454
0.000184802
7.93571e-06
0.000348168
0.000217245
0.000581667
0.000522461
0.000890582
0.000924783
0.00127102
0.00141848
0.00170764
0.00198772
0.00217509
0.00260627
0.00264328
0.00324126
0.00308428
0.00385953
0.00347811
0.00443412
0.00381522
0.00494883
0.00409609
0.00539831
0.00432772
0.00578862
0.00452139
0.00612656
0.00468662
0.00643503
0.00483628
0.00669653
0.00699379
0.00496903
7.61345e-07
-8.01424e-05
1.90144e-05
-0.000156584
6.65696e-05
-0.000157009
0.000154574
-8.00689e-05
0.000294405
7.74146e-05
0.000497061
0.000319805
0.000771032
0.000650812
0.00111889
0.00107062
0.00153392
0.00157269
0.0019987
0.00214148
0.00248725
0.00275271
0.00297008
0.00337669
0.00342068
0.00398352
0.00382041
0.0045491
0.00416122
0.0050575
0.00444375
0.00550609
0.00467747
0.00589284
0.00486821
0.00624429
0.00503882
0.00652592
0.00685199
0.00518063
5.57065e-07
-8.06995e-05
1.64512e-05
-0.000172479
5.76644e-05
-0.000198222
0.000133397
-0.000155801
0.000253317
-4.25057e-05
0.000427686
0.000145437
0.000666278
0.000412219
0.000975952
0.000760951
0.00135733
0.00119131
0.00180194
0.00169688
0.00229133
0.00226332
0.00279936
0.00286866
0.00329713
0.00348575
0.0037587
0.00408753
0.00416652
0.00464969
0.00451201
0.0051606
0.00479877
0.00560608
0.00503204
0.00601102
0.00521949
0.00633847
0.00670928
0.00536219
1.15918e-06
-8.18586e-05
1.65687e-05
-0.000187888
5.42367e-05
-0.00023589
0.000121387
-0.000222952
0.000225722
-0.000146841
0.000375981
-4.82234e-06
0.000581673
0.000206527
0.000851678
0.000490946
0.00119173
0.000851259
0.00160131
0.0012873
0.00207108
0.00179355
0.00258231
0.00235744
0.00310899
0.00295907
0.00362233
0.00357419
0.0040969
0.00417512
0.00451418
0.00474332
0.00486669
0.00525356
0.00515707
0.00572065
0.00538329
0.00611225
0.00647713
0.00561544
2.49941e-06
-8.43581e-05
1.9018e-05
-0.000204407
5.56051e-05
-0.000272477
0.000117613
-0.000284959
0.000210801
-0.000240029
0.000342051
-0.000136072
0.00051958
2.89983e-05
0.000752389
0.000258137
0.00104876
0.000554883
0.00141382
0.000922244
0.0018466
0.00136077
0.00233766
0.00186637
0.00286848
0.00242825
0.00341327
0.0030294
0.00394329
0.0036451
0.00443266
0.00425396
0.00486143
0.0048248
0.00522785
0.00535423
0.00552303
0.00581706
0.00622001
0.00578015
4.37841e-06
-8.87365e-05
2.31523e-05
-0.000223181
6.04799e-05
-0.000309805
0.000120062
-0.000344541
0.000205968
-0.000325935
0.000323292
-0.000253396
0.000478532
-0.000126242
0.000679564
5.71046e-05
0.000935006
0.000299441
0.00125277
0.000604477
0.00163778
0.000975768
0.0020892
0.00141495
0.00259805
0.0019194
0.00314656
0.0024809
0.00370892
0.00308274
0.00425743
0.00370544
0.00476238
0.00431985
0.00521159
0.00490502
0.00558643
0.00544223
0.00591367
0.00589276
6.51857e-06
-9.5255e-05
2.80921e-05
-0.000244754
6.70954e-05
-0.000348808