/*--------------------------------*- C++ -*----------------------------------*\
  =========                 |
  \\      /  F ield         | OpenFOAM: The Open Source CFD Toolbox
   \\    /   O peration     | Website:  https://openfoam.org
    \\  /    A nd           | Version:  7
     \\/     M anipulation  |
\*---------------------------------------------------------------------------*/
FoamFile
{
    version     2.0;
    format      ascii;
    class       surfaceScalarField;
    location    "10";
    object      phi;
}
// * * * * * * * * * * * * * * * * * * * * * * * * * * * * * * * * * * * * * //

dimensions      [0 3 -1 0 0 0 0];

internalField   nonuniform List<scalar> 
2622
(
-6.97577e-12
-9.65502e-05
-5.01703e-12
-1.25324e-11
-9.65502e-05
9.65502e-05
0.000243592
-9.3837e-05
0.000190387
0.00048111
-8.84952e-05
0.000278882
0.000706629
-8.06928e-05
0.000359575
-0.000288577
0.000914514
0.00135407
-7.06791e-05
0.000430254
-0.000255737
0.00109957
-0.000536505
0.00163484
0.00205377
-5.87823e-05
0.000489037
-0.000216418
0.00125721
-0.000460297
0.00187871
0.00237151
-4.54036e-05
0.00053444
-0.000171771
0.00138357
-0.000373059
0.00208
-0.000642173
0.00264063
0.00308264
-3.10095e-05
0.00056545
-0.000123177
0.00147574
-0.000277163
0.00223399
-0.000491472
0.00285494
-0.00076234
0.0033535
-0.0010842
0.00374676
0.00405339
-1.61033e-05
0.000581553
-7.22219e-05
0.00153186
-0.000175411
0.00233718
-0.000329813
0.00300934
-0.000536305
0.00356
-0.00079283
0.00400329
-0.00109513
0.00435569
-0.00143766
0.0046349
0.00485845
-1.44271e-06
0.000582996
-2.07266e-05
0.00155114
-7.10404e-05
0.00238749
-0.000161842
0.00310014
-0.000298621
0.00369678
-0.000483189
0.00418786
-0.000714102
0.0045866
-0.000987598
0.00490839
-0.0012986
0.00516945
-0.00164162
0.00538554
0.00557088
1.28603e-05
0.000570135
2.95312e-05
0.00153447
3.23949e-05
0.00238463
7.27563e-06
0.00312526
-5.5999e-05
0.00376005
-0.000163089
0.00429495
-0.000315782
0.0047393
-0.000512651
0.00510526
-0.000750006
0.0054068
-0.00102293
0.00565846
-0.00132619
0.00587414
-0.0016549
0.00606619
-0.00200498
0.00624491
0.00641834
2.56902e-05
0.000544445
7.64336e-05
0.00148373
0.000130972
0.00233009
0.00017138
0.00308485
0.000183691
0.00374774
0.000158207
0.00432043
8.96404e-05
0.00480786
-2.3393e-05
0.00521829
-0.000179198
0.00556261
-0.000373953
0.00585322
-0.000602754
0.00610294
-0.000860459
0.0063239
-0.00114232
0.00652677
-0.00144435
0.00672037
-0.00176346
0.00691154
-0.00209739
0.00710526
0.00730484
3.68374e-05
0.000507608
0.000118229
0.00140234
0.000220969
0.00222735
0.00032463
0.00298119
0.000412083
0.00366029
0.000470168
0.00426235
0.00049005
0.00478798
0.000467131
0.00524121
0.000400542
0.0056292
0.000292305
0.00596146
0.000146391
0.00624886
-3.22447e-05
0.00650253
-0.000238463
0.00673298
-0.000467519
0.00694942
-0.000715396
0.00715942
-0.000978909
0.00736878
-0.00125568
0.00758161
-0.001544
0.00780043
-0.0018427
0.00802616
0.00825887
-0.00215098
4.58098e-05
0.000461798
0.000153226
0.00129492
0.000298693
0.00208188
0.000460702
0.00281918
0.000620152
0.00350084
0.00076112
0.00412138
0.000871518
0.00467759
0.000943386
0.00516935
0.000972778
0.0055998
0.000959254
0.00597498
0.000905098
0.00630301
0.000814406
0.00659323
0.000692193
0.0068552
0.000543639
0.00709798
0.000373543
0.00732952
0.000186001
0.00755632
-1.5731e-05
0.00778334
-0.000229257
0.00801395
-0.000453083
0.00824998
0.0084922
-0.000686414
5.23014e-05
0.000409497
0.000180089
0.00116713
0.000360976
0.00190099
0.000573859
0.0026063
0.000799016
0.00327568
0.00101884
0.00390155
0.00121866
0.00447777
0.00138737
0.00500064
0.00151772
0.00546945
0.00160622
0.00588648
0.00165268
0.00625655
0.00165949
0.00658641
0.00163078
0.0068839
0.0015716
0.00715716
0.00148717
0.00741394
0.00138238
0.00766111
0.00126142
0.0079043
0.00112763
0.00814775
0.0009835
0.00839411
0.00864475
0.00083095
5.61679e-05
0.000353329
0.000197968
0.00102533
0.000405472
0.00169349
0.000659355
0.00235241
0.000940691
0.00299434
0.00123151
0.00361074
0.00151562
0.00419366
0.00177943
0.00473682
0.00201259
0.00523629
0.00220829
0.00569079
0.00236319
0.00610165
0.0024771
0.0064725
0.00255232
0.00680868
0.00259288
0.00711661
0.00260374
0.00740307
0.00259018
0.00767468
0.00255717
0.00793731
0.00250908
0.00819584
0.00244951
0.00845368
0.00871266
0.0023816
5.74407e-05
0.000295888
0.000206606
0.000876169
0.000430953
0.00146914
0.000714034
0.00206933
0.00103902
0.00266936
0.00138897
0.00326079
0.00174754
0.00383509
0.00209976
0.00438459
0.0024329
0.00490315
0.00273705
0.00538664
0.00300548
0.00583322
0.00323473
0.00624326
0.00342425
0.00661915
0.003576
0.00696486
0.00369367
0.00728541
0.00378205
0.0075863
0.00384634
0.00787302
0.00389164
0.00815054
0.00392261
0.0084227
0.00869167
0.0039436
5.63273e-05
0.000239561
0.000206383
0.000726114
0.0004375
0.00123803
0.000736815
0.00177002
0.00109058
0.0023156
0.00148416
0.0028672
0.00190248
0.00341677
0.00233065
0.00395643
0.00275476
0.00447904
0.00316268
0.00497873
0.00354465
0.00545124
0.00389374
0.00589417
0.00420594
0.00630695
0.00448006
0.00669074
0.00471732
0.00704814
0.00492085
0.00738277
0.00509503
0.00769884
0.00524493
0.00800064
0.00537581
0.00829182
0.00857424
0.00549325
5.31873e-05
0.000186373
0.000198279
0.000581022
0.000426546
0.00100976
0.000728947
0.00146762
0.00109537
0.00194917
0.00151442
0.00244815
0.00197351
0.00295768
0.0024593
0.00347063
0.00295831
0.00398004
0.00345756
0.00447947
0.00394538
0.00496342
0.00441196
0.00542759
0.00484985
0.00586906
0.00525419
0.00628641
0.00562271
0.00667961
0.00595556
0.00704992
0.00625487
0.00739953
0.00652433
0.00773118
0.00676871
0.00804743
0.00834897
0.00699398
4.84892e-05
0.000137884
0.000183762
0.000445749
0.000400707
0.000792814
0.00069392
0.0011744
0.001057
0.00158609
0.00148218
0.00202297
0.00196022
0.00247964
0.00248056
0.0029503
0.0030316
0.00342899
0.00360128
0.00390979
0.00417761
0.0043871
0.00474933
0.00485587
0.0053065
0.00531189
0.00584099
0.00575192
0.00634681
0.0061738
0.00682025
0.00657648
0.00725986
0.00695992
0.00766626
0.00732479
0.00804182
0.00767186
0.00799981
0.00839098
4.27484e-05
9.5136e-05
0.000164577
0.00032392
0.000363411
0.00059398
0.000636967
0.000900847
0.000982191
0.00124087
0.00139486
0.00161031
0.00186933
0.00200517
0.00239847
0.00242115
0.00297377
0.0028537
0.00358551
0.00329805
0.00422318
0.00374942
0.00487596
0.00420309
0.00553319
0.00465467
0.0061849
0.00510021
0.00682228
0.00553642
0.00743806
0.00596071
0.0080267
0.00637127
0.00858447
0.00676702
0.00910933
0.007147
0.00750761
0.00960154
3.64571e-05
5.86788e-05
0.000142501
0.000217877
0.000318381
0.000418101
0.000564236
0.000654991
0.000879712
0.000925391
0.00126361
0.00122641
0.00171361
0.00155517
0.00222608
0.00190868
0.00279601
0.00228377
0.00341699
0.00267707
0.00408141
0.00308501
0.00478061
0.00350389
0.00550528
0.00392999
0.00624581
0.00435968
0.00699266
0.00478957
0.00773674
0.00521663
0.0084697
0.00563831
0.00918391
0.0060528
0.00987168
0.00645924
0.006855
0.0105243
3.0018e-05
2.86608e-05
0.000119089
0.000128805
0.000269078
0.000268111
0.000481818
0.000442251
0.000758888
0.00064832
0.00110137
0.000883936
0.00150958
0.00114696
0.00198291
0.00143535
0.00251964
0.00174705
0.00311682
0.00207989
0.00377029
0.00243153
0.00447472
0.00279946
0.00522371
0.003181
0.00601005
0.00357334
0.00682596
0.00397367
0.00766335
0.00437923
0.00851424
0.00478743
0.00937106
0.00519597
0.0102259
0.00560439
0.00601799
0.0110629
2.37008e-05
4.96004e-06
9.54981e-05
5.70081e-05
0.000218271
0.000145339
0.000394904
0.000265619
0.000628195
0.000415029
0.0009207
0.00059143
0.00127457
0.00079309
0.00169137
0.00101855
0.00217194
0.00126647
0.0027163
0.00153553
0.00332348
0.00182435
0.00399158
0.00213136
0.00471776
0.00245481
0.00549839
0.00279272
0.00632927
0.00314278
0.00720612
0.00350238
0.00812519
0.00386836
0.00908522
0.00423594
0.0100927
0.00459691
0.00494544
0.0111652
1.76391e-05
-1.26791e-05
7.24345e-05
2.21275e-06
0.000167859
4.99138e-05
0.000307365
0.000126113
0.000494392
0.000228002
0.000732289
0.000353532
0.00102422
0.000501163
0.00137303
0.000669727
0.0017812
0.000858305
0.00225063
0.0010661
0.00278263
0.00129234
0.00337778
0.00153622
0.00403583
0.00179676
0.00475573
0.00207282
0.00553556
0.00236295
0.00637264
0.0026653
0.00726376
0.00297724
0.00820533
0.00329437
0.00919431
0.00360793
0.00389609
0.0102437
1.18595e-05
-2.45386e-05
5.0279e-05
-3.62068e-05
0.000119047
-1.88537e-05
0.000221903
2.32566e-05
0.000362547
8.73581e-05
0.000544627
0.000171453
0.000771704
0.000274086
0.0010472
0.000394227
0.00137435
0.000531158
0.00175609
0.00068436
0.00219501
0.000853426
0.00269325
0.00103797
0.00325244
0.00123757
0.00387363
0.00145164
0.00455726
0.00167932
0.00530331
0.00191925
0.00611157
0.00216899
0.00698222
0.00242371
0.00791732
0.00267283
0.00288994
0.00892347
6.37912e-06
-3.09178e-05
2.92596e-05
-5.90873e-05
7.2701e-05
-6.22951e-05
0.000140569
-4.46117e-05
0.00023661
-8.68264e-06
0.000364484
4.35791e-05
0.000527771
0.000110799
0.000729974
0.000192024
0.0009745
0.000286632
0.00126463
0.000394227
0.0016035
0.000514561
0.00199402
0.000647455
0.00243888
0.000792706
0.00294054
0.000949981
0.00350122
0.00111864
0.00412306
0.00129741
0.00480827
0.00148378
0.00555922
0.00167277
0.00637801
0.00185404
0.00200441
0.00726354
1.24983e-06
-3.21676e-05
9.74436e-06
-6.75818e-05
2.98283e-05
-8.2379e-05
6.54623e-05
-8.02457e-05
0.000120357
-6.35773e-05
0.000198041
-3.41047e-05
0.000301916
6.92303e-06
0.000435299
5.86415e-05
0.000601432
0.000120499
0.000803505
0.000192154
0.00104465
0.000273413
0.00132796
0.000364149
0.00165646
0.000464208
0.00203315
0.000573286
0.00246106
0.000690733
0.00294323
0.000815229
0.00348276
0.000944248
0.00408236
0.00107317
0.00474311
0.00119329
0.00128731
0.00546021
-3.37246e-06
-2.87951e-05
-7.6424e-06
-6.33119e-05
-8.12609e-06
-8.18953e-05
-7.56226e-07
-8.76156e-05
1.81279e-05
-8.24614e-05
5.1895e-05
-6.78718e-05
0.000103707
-4.48893e-05
0.000176582
-1.42334e-05
0.000273458
2.36233e-05
0.000397221
6.83911e-05
0.000550739
0.000119895
0.000736884
0.000178004
0.000958543
0.000242549
0.00121863
0.000313194
0.0015201
0.000389267
0.00186585
0.000469483
0.00225851
0.000551585
0.00269987
0.00063181
0.00318946
0.000703697
0.00075572
0.00372105
-7.23519e-06
-2.15599e-05
-2.20067e-05
-4.85404e-05
-3.92697e-05
-6.46323e-05
-5.48339e-05
-7.20513e-05
-6.50682e-05
-7.2227e-05
-6.67461e-05
-6.6194e-05
-5.69314e-05
-5.4704e-05
-3.28855e-05
-3.82793e-05
8.00373e-06
-1.7266e-05
6.82789e-05
8.11589e-06
0.000150455
3.77184e-05
0.000257036
7.14242e-05
0.000390521
0.000109063
0.000553388
0.000150327
0.000748019
0.000194636
0.000976543
0.000240959
0.00124052
0.000287611
0.00154033
0.000331999
0.00187407
0.000369959
0.000394663
0.00223512
-1.00398e-05
-1.15202e-05
-3.23392e-05
-2.62409e-05
-6.15439e-05
-3.54276e-05
-9.33512e-05
-4.0244e-05
-0.00012414
-4.14387e-05
-0.00015078
-3.95534e-05
-0.000170502
-3.49824e-05
-0.00018078
-2.80008e-05
-0.000179253
-1.8793e-05
-0.000163658
-7.47905e-06
-0.000131797
5.85718e-06
-8.15117e-05
2.11389e-05
-1.07098e-05
3.82614e-05
8.25815e-05
5.70361e-05
0.000200093
7.71249e-05
0.000343097
9.79544e-05
0.000512078
0.00011863
0.000706231
0.000137846
0.00092261
0.00015358
0.000162688
0.00115459
-1.15202e-05
-3.77611e-05
-7.31888e-05
-0.000113433
-0.000154872
-0.000194425
-0.000229407
-0.000257408
-0.000276201
-0.000283681
-0.000277823
-0.000256685
-0.000218423
-0.000161387
-8.42622e-05
1.36921e-05
0.000132323
0.000270168
0.000423749
0.000586437
-0.00227288
0.0148576
-0.00233084
0.0148159
-0.00234005
0.0147808
-0.00231138
0.0147489
-0.002253
0.0147154
-0.00217144
0.0146795
-0.00207066
0.014641
-0.00195415
0.0146015
-0.00182483
0.0145622
-0.00168503
0.014524
-0.00153664
0.0144877
-0.0013812
0.0144538
-0.00121998
0.014423
-0.00105401
0.0143957
-0.000884186
0.014372
-0.000711251
0.0143524
-0.000535843
0.014337
-0.000358504
0.0143259
-0.000179712
0.0143191
0.0143166
-0.000872815
0.015044
-0.000999119
0.0149422
-0.00107841
0.0148601
-0.0011212
0.0147917
-0.00113473
0.0147289
-0.00112783
0.0146726
-0.00110171
0.0146149
-0.00106038
0.0145602
-0.00100651
0.0145083
-0.000942239
0.0144597
-0.00086931
0.0144147
-0.000789165
0.0143737
-0.000702998
0.0143369
-0.000611815
0.0143045
-0.000516468
0.0142767
-0.00041769
0.0142536
-0.000316114
0.0142354
-0.000212291
0.0142221
-0.000106723
0.0142135
0.0142099
0.000583121
0.0152918
0.000382712
0.0151426
0.000226358
0.0150165
0.000105542
0.0149125
1.16595e-05
0.0148228
-5.44078e-05
0.0147387
-0.00010384
0.0146644
-0.000139081
0.0145954
-0.000162371
0.0145316
-0.000175553
0.0144729
-0.000180151
0.0144193
-0.000177457
0.014371
-0.000168573
0.014328
-0.00015445
0.0142904
-0.000135916
0.0142582
-0.000113692
0.0142314
-8.84213e-05
0.0142101
-6.06827e-05
0.0141943
-3.10213e-05
0.0141839
0.0141789
0.00207691
0.0155965
0.00180791
0.0154116
0.00157622
0.0152481
0.00137834
0.0151104
0.00120852
0.0149926
0.0010584
0.0148888
0.000926715
0.014796
0.000810005
0.0147121
0.000705808
0.0146358
0.000612172
0.0145665
0.000527506
0.014504
0.00045049
0.014448
0.000380001
0.0143985
0.000315071
0.0143553
0.000254849
0.0143184
0.000198582
0.0142877
0.000145593
0.0142631
9.52616e-05
0.0142446
4.69744e-05
0.0142322
0.0142258
0.00358358
0.0159565
0.00324629
0.0157489
0.00293895
0.0155555
0.00266137
0.0153879
0.0024097
0.0152443
0.00217945
0.0151191
0.00196686
0.0150086
0.00176905
0.0149099
0.00158376
0.0148211
0.00140917
0.0147411
0.00124379
0.0146694
0.00108632
0.0146055
0.000935655
0.0145491
0.000790821
0.0145001
0.000650945
0.0144583
0.000515237
0.0144234
0.000382976
0.0143954
0.00025348
0.0143741
0.00012607
0.0143596
0.0143519
0.00509199
0.0163578
0.00469337
0.0161475
0.00431204
0.0159368
0.00395403
0.015746
0.00361999
0.0155783
0.00330722
0.0154318
0.00301238
0.0153035
0.0027326
0.0151897
0.0024656
0.0150881
0.0022096
0.0149971
0.00196311
0.0149159
0.00172485
0.0148438
0.00149371
0.0147803
0.00126868
0.0147252
0.00104887
0.0146781
0.00083343
0.0146388
0.00062158
0.0146072
0.000412568
0.0145832
0.000205639
0.0145665
0.0145576
0.00657605
0.0167757
0.0061297
0.0165938
0.00568029
0.0163862
0.00524385
0.0161824
0.00482778
0.0159944
0.00443203
0.0158276
0.00405424
0.0156813
0.00369196
0.015552
0.00334306
0.015437
0.00300569
0.0153345
0.00267831
0.0152433
0.0023596
0.0151625
0.0020484
0.0150915
0.00174367
0.0150299
0.00144443
0.0149773
0.00114978
0.0149335
0.000858848
0.0148982
0.000570805
0.0148712
0.000284806
0.0148525
0.0148424
0.00800094
0.0171657
0.00753035
0.0170644
0.00702282
0.0168938
0.00651265
0.0166926
0.00601699
0.0164901
0.00553956
0.016305
0.00507982
0.016141
0.00463615
0.0159957
0.0042065
0.0158666
0.00378892
0.015752
0.00338183
0.0156503
0.00298388
0.0155604
0.00259388
0.0154815
0.00221073
0.015413
0.00183337
0.0153547
0.00146084
0.015306
0.00109218
0.0152668
0.000726439
0.0152369
0.000362687
0.0152163
0.0152051
0.00931351
0.0174538
0.00886221
0.0175157
0.00832182
0.0174342
0.00775266
0.0172617
0.00718341
0.0170593
0.00662529
0.0168631
0.00608325
0.016683
0.00555802
0.0165209
0.00504805
0.0163766
0.00455133
0.0162488
0.00406608
0.0161356
0.00359074
0.0160357
0.00312396
0.0159483
0.0026645
0.0158725
0.00221121
0.0158079
0.00176302
0.0157542
0.00131885
0.015711
0.000877651
0.0156781
0.000438366
0.0156556
0.0156434
0.0104335
0.0175446
0.0100499
0.0178992
0.00951089
0.0179732
0.00890823
0.0178644
0.00828316
0.0176844
0.00765773
0.0174886
0.00704326
0.0172975
0.00644317
0.017121
0.00585742
0.0169624
0.00528496
0.0168212
0.00472442
0.0166961
0.0041744
0.0165858
0.00363353
0.0164891
0.00310053
0.0164055
0.00257416
0.0163343
0.00205322
0.0162752
0.00153651
0.0162277
0.00102285
0.0161918
0.000511044
0.0161674
0.0161545
0.0113005
0.017307
0.0111025
0.0180972
0.0106441
0.0184317
0.0100347
0.0184738
0.00935454
0.0183645
0.00865576
0.0181874
0.00796327
0.01799
0.00728562
0.0177986
0.00662438
0.0176236
0.00597848
0.0174671
0.00534602
0.0173286
0.00472516
0.0172066
0.00411425
0.0171001
0.00351181
0.0170079
0.00291648
0.0169296
0.00232692
0.0168647
0.0017418
0.0168128
0.00115981
0.0167738
0.000579608
0.0167476
0.0167341
0.0116065
0.0168657
0.0116428
0.0180609
0.0113764
0.0186982
0.010883
0.0189672
0.0102496
0.0189978
0.00954531
0.0188917
0.00881318
0.0187221
0.00807775
0.0185341
0.00735082
0.0183505
0.00663658
0.0181814
0.00593552
0.0180296
0.00524671
0.0178954
0.00456872
0.017778
0.00390006
0.0176766
0.00323922
0.0175905
0.0025847
0.0175192
0.00193501
0.0174625
0.00128865
0.0174202
0.000644103
0.0173921
0.0173782
0.000149102
0.0166397
7.69022e-05
0.000268191
0.0179418
0.000353451
0.0186129
0.00040524
0.0189154
0.000427658
0.0189754
0.000427873
0.0188915
0.000413081
0.0187369
0.000389205
0.0185579
0.000360319
0.0183794
0.000328871
0.0182128
0.000296215
0.0180623
0.000263061
0.0179286
0.00022977
0.0178113
0.000196528
0.0177098
0.000163424
0.0176236
0.000130491
0.0175522
9.77217e-05
0.0174953
6.50875e-05
0.0174528
3.25441e-05
0.0174246
0.0174107
7.53455e-05
0.0164255
0.000138925
0.000208389
0.0178087
0.000294603
0.0185267
0.00034805
0.0188619
0.000374754
0.0189487
0.000380446
0.0188858
0.000371398
0.018746
0.000352995
0.0185763
0.000329047
0.0184034
0.000301967
0.0182399
0.00027317
0.0180911
0.000243451
0.0179583
0.000213252
0.0178415
0.000182824
0.0177403
0.000152311
0.0176541
0.000121793
0.0175827
9.13017e-05
0.0175258
6.08459e-05
0.0174832
3.04202e-05
0.0174551
0.0174411
6.74786e-06
0.0162288
0.000189922
0.000147121
0.0176684
0.000237019
0.0184368
0.0002936
0.0188053
0.000324433
0.0189179
0.000335074
0.0188751
0.000331226
0.0187498
0.000317819
0.0185897
0.000298453
0.0184227
0.000275495
0.0182629
0.000250395
0.0181162
0.000224005
0.0179847
0.000196829
0.0178687
0.00016917
0.0177679
0.00014122
0.0176821
0.000113101
0.0176108
8.48822e-05
0.017554
5.66065e-05
0.0175115
2.83063e-05
0.0174834
0.0174694
-5.34557e-05
0.0160469
0.000235381
8.76716e-05
0.0175272
0.000181223
0.0183432
0.000241536
0.018745
0.0002765
0.0188829
0.000291757
0.0188599
0.000292675
0.0187489
0.000283856
0.0185986
0.00026874
0.0184378
0.000249653
0.0182819
0.000228065
0.0181378
0.000204871
0.0180079
0.000180621
0.0178929
0.000155663
0.0177929
0.00013023
0.0177075
0.000104476
0.0176366
7.85072e-05
0.01758
5.23972e-05
0.0175376
2.62116e-05
0.0175096
0.0174957
-0.000107641
0.0158804
0.000274128
3.1728e-05
0.0173879
0.000128084
0.0182469
0.000191882
0.0186812
0.000230714
0.0188441
0.000250228
0.0188404
0.000255528
0.0187436
0.000250953
0.0186031
0.000239807
0.018449
0.000224376
0.0182974
0.000206138
0.018156
0.000186021
0.018028
0.000164611
0.0179144
0.000142293
0.0178152
0.000119331
0.0177305
9.59122e-05
0.01766
7.21719e-05
0.0176037
4.82134e-05
0.0175616
2.41303e-05
0.0175336
0.0175198
-0.000156181
0.0157282
0.000308363
-2.02606e-05
0.0172519
7.79178e-05
0.0181487
0.000144694
0.0186144
0.000187006
0.0188018
0.000210392
0.018817
0.000219706
0.0187343
0.000219061
0.0186038
0.000211633
0.0184564
0.000199659
0.0183094
0.000184621
0.0181711
0.000167468
0.0180452
0.000148814
0.017933
0.000129072
0.0178349
0.000108536
0.017751
8.7419e-05
0.0176811
6.58836e-05
0.0176252
4.40592e-05
0.0175834
2.20641e-05
0.0175556
0.0175418
-0.000199773
0.0155889
0.000339096
-6.83431e-05
0.0171205
3.07209e-05
0.0180496
9.99575e-05
0.0185452
0.000145364
0.0187564
0.00017225
0.0187901
0.000185233
0.0187213
0.000188222
0.0186008
0.000184268
0.0184604
0.000175559
0.0183181
0.00016357
0.018183
0.000149262
0.0180595
0.000133273
0.017949
0.00011604
0.0178522
9.78767e-05
0.0177692
7.9022e-05
0.0177
5.96607e-05
0.0176446
3.99464e-05
0.0176031
2.00184e-05
0.0175756
0.0175619
-0.000239009
0.0154611
0.000366777
-0.000112701
0.0169942
-1.35658e-05
0.0179505
5.7625e-05
0.018474
0.000105758
0.0187082
0.0001358
0.0187601
0.000152132
0.018705
0.000158475
0.0185944
0.000157762
0.0184611
0.000152129
0.0183237
0.000143035
0.0181921
0.000131452
0.0180711
0.000118034
0.0179624
0.000103233
0.017867
8.73852e-05
0.017785
7.07462e-05
0.0177166
5.35222e-05
0.0176618
3.58868e-05
0.0176208
1.79989e-05
0.0175935
0.0175799
-0.000274419
0.0153437
0.000391849
-0.00015353
0.0168733
-5.50285e-05
0.017852
1.76486e-05
0.0184013
6.81428e-05
0.0186577
0.000101017
0.0187272
0.000120402
0.0186856
0.000129837
0.018585
0.000132144
0.0184588
0.000129402
0.0183264
0.000123054
0.0181985
0.000114076
0.01808
0.000103129
0.0179734
9.06829e-05
0.0178794
7.70861e-05
0.0177986
6.26118e-05
0.0177311
4.74825e-05
0.017677
3.18903e-05
0.0176364
1.601e-05
0.0176093
0.0175959
-0.000306452
0.0152355
0.000414679
-0.000191055
0.0167579
-9.37412e-05
0.0177547
-2.00495e-05
0.0183276
3.24659e-05
0.0186052
6.78694e-05
0.0186918
9.00288e-05
0.0186634
0.000102312
0.0185727
0.000107428
0.0184537
0.000107402
0.0183265
0.000103654
0.0182022
9.71588e-05
0.0180865
8.85854e-05
0.0179819
7.84125e-05
0.0178896
6.70005e-05
0.01781
5.46356e-05
0.0177434
4.15549e-05
0.01769
2.79653e-05
0.0176499
1.40562e-05
0.0176232
0.0176099
-0.000335488
0.0151354
0.00043552
-0.000225517
0.0166479
-0.000129825
0.017659
-5.55327e-05
0.0182534
-1.3101e-06
0.018551
3.63192e-05
0.0186541
6.09933e-05
0.0186388
7.58945e-05
0.0185578
8.36233e-05
0.0184459
8.61436e-05
0.0183239
8.48545e-05
0.0182035
8.07237e-05
0.0180907
7.44244e-05
0.0179882
6.64421e-05
0.0178976
5.71459e-05
0.0178193
4.68322e-05
0.0177537
3.57501e-05
0.0177011
2.4119e-05
0.0176616
1.21409e-05
0.0176352
0.0176221
-0.000361853
0.0150427
0.000454559
-0.000257155
0.0165432
-0.000163411
0.0175653
-8.88796e-05
0.0181788
-3.32886e-05
0.0184954
6.32734e-06
0.0186145
3.32736e-05
0.0186118
5.05781e-05
0.0185405
6.07319e-05
0.0184358
6.56383e-05
0.018319
6.66704e-05
0.0182025
6.47878e-05
0.0180925
6.06639e-05
0.0179924
5.47887e-05
0.0179035
4.75374e-05
0.0178266
3.92143e-05
0.0177621
3.00778e-05
0.0177103
2.0358e-05
0.0176713
1.02668e-05
0.0176453
0.0176323
-0.000385822
0.0149566
0.000471948
-0.000286195
0.0164436
-0.000194635
0.0174737
-0.000120178
0.0181044
-6.34873e-05
0.0184387
-2.21548e-05
0.0185732
6.84333e-06
0.0185828
2.63497e-05
0.018521
3.87513e-05
0.0184234
4.58909e-05
0.0183119
4.9112e-05
0.0181993
4.93639e-05
0.0180923
4.7318e-05
0.0179944
4.3466e-05
0.0179073
3.81876e-05
0.0178318
3.17924e-05
0.0177685
2.45463e-05
0.0177175
1.6688e-05
0.0176792
8.43768e-06
0.0176536
0.0176408
-0.00040763
0.0148764
0.000487815
-0.000312846
0.0163488
-0.000223632
0.0173845
-0.00014952
0.0180303
-9.19871e-05
0.0183812
-4.91661e-05
0.0185304
-1.83294e-05
0.018552
3.19307e-06
0.0184995
1.76756e-05
0.0184089
2.69019e-05
0.0183027
3.2185e-05
0.018194
3.44608e-05
0.01809
3.43968e-05
0.0179945
3.24848e-05
0.0179092
2.91063e-05
0.0178352
2.45751e-05
0.017773
1.91627e-05
0.0177229
1.31135e-05
0.0176852
6.65542e-06
0.01766
0.0176474
-0.000427476
0.0148016
0.000502269
-0.000337298
0.0162587
-0.000250537
0.0172977
-0.000176996
0.0179567
-0.000118855
0.0183231
-7.47582e-05
0.0184863
-4.22763e-05
0.0185195
-1.89158e-05
0.0184761
-2.50757e-06
0.0183925
8.66764e-06
0.0182915
1.58909e-05
0.0181868
2.00837e-05
0.0180858
2.19077e-05
0.0179927
2.18528e-05
0.0179093
2.03013e-05
0.0178368
1.75695e-05
0.0177757
1.39319e-05
0.0177265
9.63851e-06
0.0176895
4.92179e-06
0.0176647
0.0176524
-0.000445534
0.0147317
0.000515404
-0.000359726
0.0161729
-0.00027548
0.0172135
-0.000202701
0.0178839
-0.000144159
0.0182645
-9.8982e-05
0.0184411
-6.50343e-05
0.0184855
-3.99981e-05
0.0184511
-2.18122e-05
0.0183743
-8.81923e-06
0.0182785
2.27731e-07
0.0181777
6.2342e-06
0.0180798
9.85448e-06
0.017989
1.15755e-05
0.0179076
1.17786e-05
0.0178366
1.07807e-05
0.0177767
8.85884e-06
0.0177285
6.26597e-06
0.0176921
3.23871e-06
0.0176678
0.0176556
-0.000461956
0.0146664
0.000527308
-0.000380288
0.0160912
-0.000298584
0.0171318
-0.000226724
0.0178121
-0.000167967
0.0182058
-0.000121889
0.018395
-8.66415e-05
0.0184503
-6.00818e-05
0.0184245
-4.02556e-05
0.0183545
-2.55691e-05
0.0182638
-1.48093e-05
0.018167
-7.08857e-06
0.0180721
-1.76115e-06
0.0179837
1.65575e-06
0.0179041
3.54164e-06
0.0178347
4.21232e-06
0.0177761
3.94634e-06
0.0177287
2.99819e-06
0.017693
1.60714e-06
0.0176692
0.0176572
-0.000476875
0.0146052
0.000538058
-0.000399128
0.0160134
-0.000319969
0.0170526
-0.000249155
0.0177413
-0.000190348
0.0181469
-0.000143532
0.0183482
-0.000107138
0.0184139
-7.91957e-05
0.0183966
-5.78584e-05
0.0183331
-4.15949e-05
0.0182476
-2.92281e-05
0.0181546
-1.98883e-05
0.0180628
-1.29398e-05
0.0179768
-7.9051e-06
0.0178991
-4.40785e-06
0.0178312
-2.13329e-06
0.0177738
-8.03599e-07
0.0177274
-1.63285e-07
0.0176924
2.83285e-08
0.017669
0.0176572
-0.000490411
0.0145479
0.00054773
-0.000416379
0.0159394
-0.000339746
0.016976
-0.000270083
0.0176716
-0.000211371
0.0180882
-0.000163965
0.0183008
-0.000126564
0.0183765
-9.73704e-05
0.0183674
-7.46422e-05
0.0183104
-5.6912e-05
0.0182298
-4.30381e-05
0.0181407
-3.21709e-05
0.0180519
-2.36846e-05
0.0179683
-1.71082e-05
0.0178925
-1.20691e-05
0.0178261
-8.25512e-06
0.01777
-5.38963e-06
0.0177245
-3.21741e-06
0.0176902
-1.49759e-06
0.0176672
0.0176557
-0.000502673
0.0144942
0.000556393
-0.000432163
0.0158689
-0.000358022
0.0169018
-0.000289592
0.0176032
-0.0002311
0.0180297
-0.000183239
0.0182529
-0.000144961
0.0183382
-0.000114638
0.0183371
-9.0631e-05
0.0182864
-7.15374e-05
0.0182107
-5.62516e-05
0.0181254
-4.3944e-05
0.0180396
-3.40002e-05
0.0179583
-2.5956e-05
0.0178845
-1.94435e-05
0.0178196
-1.41533e-05
0.0177647
-9.81143e-06
0.0177202
-6.1639e-06
0.0176866
-2.9701e-06
0.0176641
0.0176528
-0.000513759
0.0144438
0.000564116
-0.000446589
0.0158017
-0.000374898
0.0168302
-0.000307763
0.017536
-0.000249604
0.0179716
-0.000201407
0.0182047
-0.000162371
0.0182992
-0.00013103
0.0183057
-0.00010585
0.0182612
-8.54899e-05
0.0181904
-6.88819e-05
0.0181088
-5.52171e-05
0.0180259
-4.38929e-05
0.017947
-3.44523e-05
0.017875
-2.65327e-05
0.0178117
-1.9829e-05
0.017758
-1.40696e-05
0.0177144
-9.00287e-06
0.0176815
-4.38971e-06
0.0176594
0.0176484
-0.000523761
0.0143966
0.000570964
-0.000459763
0.0157377
-0.000390469
0.0167609
-0.000324678
0.0174702
-0.000266944
0.0179139
-0.000218522
0.0181563
-0.000178836
0.0182595
-0.000146581
0.0182735
-0.000120324
0.018235
-9.87893e-05
0.0181688
-8.09439e-05
0.018091
-6.6001e-05
0.018011
-5.33701e-05
0.0179344
-4.26022e-05
0.0178643
-3.33406e-05
0.0178024
-2.52843e-05
0.0177499
-1.81654e-05
0.0177073
-1.17349e-05
0.0176751
-5.75595e-06
0.0176535
0.0176426
-0.000532762
0.0143524
0.000577001
-0.000471778
0.0156767
-0.000404826
0.0166939
-0.00034041
0.0174058
-0.000283185
0.0178566
-0.000234634
0.0181078
-0.000194397
0.0182193
-0.000161324
0.0182404
-0.000134082
0.0182077
-0.000111457
0.0181462
-9.24537e-05
0.018072
-7.63076e-05
0.0179948
-6.24406e-05
0.0179205
-5.04121e-05
0.0178522
-3.98711e-05
-3.05219e-05
-2.21004e-05
-1.43611e-05
-7.06978e-06
-0.000540843
-0.000482726
-0.000418052
-0.000355035
-0.000298386
-0.000249794
-0.000209097
-0.000175292
-0.000147149
-0.000123513
-0.000103428
-8.61499e-05
-7.11144e-05
0.0101301
0.000190473
0.0100474
0.000221661
0.00996169
0.000275583
0.00987954
0.000317534
0.00980397
0.000349693
0.00973491
0.00037743
0.00967193
0.000402076
0.00961491
0.000423796
0.00956371
0.00044305
0.00951808
0.000460306
0.00947775
0.000475851
0.00944243
0.000489878
0.00941184
0.000502538
0.0093857
0.000513951
0.00936376
0.000524216
0.00934575
0.000533414
0.00933144
0.000541616
0.00932061
0.000548888
0.00931305
0.000555291
0.00930856
0.000560884
0.00930695
0.000565723
0.00930805
0.000569863
0.00881427
0.00029967
0.00873889
0.000297043
0.00868343
0.000331041
0.00863982
0.000361148
0.00860584
0.000383671
0.0085798
0.000403473
0.0085599
0.000421972
0.0085449
0.000438799
0.00853403
0.000453919
0.00852679
0.000467548
0.00852279
0.000479846
0.00852176
0.000490906
0.00852349
0.000500811
0.00852781
0.000509637
0.00853457
0.000517455
0.00854365
0.00052433
0.00855494
0.000530323
0.00856834
0.000535492
0.00858373
0.000539896
0.00860103
0.000543589
0.00862013
0.000546626
0.00720912
0.00035409
0.0071697
0.000336469
0.00714863
0.00035211
0.00714074
0.000369033
0.00714224
0.00038217
0.00715121
0.000394511
0.00716613
0.000407046
0.00718569
0.000419237
0.00720892
0.000430696
0.00723513
0.000441339
0.00726383
0.000451137
0.00729468
0.000460058
0.00732741
0.000468089
0.0073618
0.000475239
0.00739772
0.000481534
0.00743505
0.000487008
0.00747367
0.000491701
0.0075135
0.000495659
0.00755447
0.000498929
0.0075965
0.000501561
0.0054627
0.000351608
0.00546896
0.000330207
0.0054871
0.000333966
0.0055149
0.000341235
0.0055494
0.000347675
0.00558926
0.000354647
0.00563375
0.000362555
0.00568212
0.000370872
0.00573368
0.000379137
0.0057879
0.000387116
0.00584437
0.000394668
0.00590274
0.000401684
0.00596274
0.000408091
0.00602413
0.000413849
0.00608672
0.000418941
0.00615036
0.000423373
0.0062149
0.000427159
0.00628023
0.000430327
0.00634625
0.000432909
0.000434942
0.00377084
0.00030181
0.00381824
0.00028281
0.00387169
0.000280511
0.00393066
0.000282265
0.00399347
0.000284869
0.00405953
0.000288591
0.00412868
0.000293398
0.00420071
0.000298841
0.00427532
0.000304527
0.00435223
0.000310209
0.00443118
0.00031572
0.00451192
0.00032094
0.00459424
0.000325778
0.00467791
0.000330177
0.00476274
0.000334106
0.00484857
0.000337549
0.00493522
0.000340506
0.00502256
0.000342987
0.00511046
0.000345012
0.00231861
0.000218323
0.00239689
0.00020453
0.00247678
0.00020062
0.00255891
0.000200133
0.00264282
0.000200961
0.00272854
0.000202868
0.0028163
0.000205646
0.00290617
0.000208966
0.00299814
0.000212555
0.00309213
0.000216225
0.003188
0.000219846
0.00328562
0.000223321
0.00338482
0.000226579
0.00348542
0.000229572
0.00358726
0.000232267
0.00369016
0.000234647
0.00379396
0.000236707
0.0038985
0.000238447
0.000239877
0.00125886
0.00011405
0.00135658
0.000106813
0.00145302
0.000104171
0.00154968
0.000103474
0.00164698
0.000103661
0.00174537
0.000104483
0.00184524
0.000105774
0.00194684
0.000107364
0.00205029
0.000109112
0.00215559
0.000110921
0.00226272
0.000112721
0.00237158
0.000114462
0.00248205
0.000116105
0.002594
0.000117624
0.00270727
0.000118999
0.00282169
0.00012022
0.00293712
0.000121283
0.00305338
0.000122186
0.000122932
0.000700487
0.000807301
0.000911471
0.00101495
0.00111861
0.00122309
0.00132886
0.00143623
0.00154534
0.00165626
0.00176898
0.00188345
0.00199955
0.00211717
0.00223617
0.00235639
0.00247768