/*--------------------------------*- C++ -*----------------------------------*\
  =========                 |
  \\      /  F ield         | OpenFOAM: The Open Source CFD Toolbox
   \\    /   O peration     | Website:  https://openfoam.org
    \\  /    A nd           | Version:  7
     \\/     M anipulation  |
\*---------------------------------------------------------------------------*/
FoamFile
{
    version     2.0;
    format      ascii;
    class       volScalarField;
    location    "15";
    object      p;
}
// * * * * * * * * * * * * * * * * * * * * * * * * * * * * * * * * * * * * * //

dimensions      [0 2 -2 0 0 0 0];

internalField   nonuniform List<scalar> 
3700
(
0.613012
0.585983
0.565754
0.536291
0.504215
0.471286
0.43904
0.408185
0.379131
0.352039
0.326942
0.303792
0.282534
0.2631
0.245333
0.608411
0.581836
0.562155
0.533188
0.501527
0.468945
0.436992
0.406385
0.377541
0.35063
0.325687
0.302667
0.281515
0.262182
0.244551
0.599247
0.573575
0.554985
0.527004
0.496168
0.464279
0.432909
0.402795
0.374371
0.347818
0.323184
0.300424
0.279481
0.260348
0.242988
0.585598
0.561264
0.544296
0.517784
0.488177
0.457319
0.426817
0.397439
0.36964
0.343622
0.319447
0.297073
0.276445
0.257608
0.240647
0.567579
0.544999
0.530167
0.505593
0.477607
0.44811
0.418756
0.390348
0.363375
0.338064
0.314496
0.292634
0.272422
0.253975
0.237533
0.54534
0.524908
0.512703
0.490517
0.464532
0.436715
0.408776
0.381568
0.355614
0.331176
0.308359
0.287131
0.267434
0.249465
0.233653
0.519068
0.501147
0.492034
0.472664
0.449041
0.423209
0.396942
0.371152
0.346404
0.322997
0.301069
0.280592
0.261507
0.244098
0.229016
0.488986
0.473904
0.468312
0.45216
0.431241
0.40768
0.38333
0.359164
0.335798
0.313575
0.292666
0.273054
0.254673
0.237899
0.223635
0.455347
0.443392
0.441714
0.429151
0.411253
0.390232
0.368026
0.345677
0.323859
0.302962
0.283195
0.264555
0.246967
0.230896
0.217526
0.418435
0.409852
0.412437
0.4038
0.389213
0.37098
0.351126
0.330774
0.310657
0.291218
0.272709
0.255141
0.23843
0.223122
0.210708
0.378563
0.373548
0.380699
0.376287
0.365273
0.350049
0.332738
0.314546
0.296271
0.278409
0.261264
0.244861
0.229104
0.214611
0.203203
0.336068
0.334766
0.346734
0.346804
0.339594
0.327576
0.312977
0.297091
0.280782
0.264608
0.248921
0.23377
0.219037
0.205403
0.195035
0.29131
0.293814
0.310796
0.315561
0.312349
0.303707
0.291967
0.278513
0.264281
0.24989
0.235747
0.221926
0.208281
0.195538
0.186234
0.24467
0.251016
0.273151
0.282776
0.283723
0.278597
0.269837
0.258923
0.246862
0.234337
0.221812
0.209391
0.19689
0.185061
0.176827
0.196543
0.206712
0.234079
0.248679
0.253906
0.252406
0.246725
0.238438
0.228624
0.218032
0.20719
0.196233
0.184928
0.174017
0.166845
0.147336
0.161256
0.19387
0.213506
0.223096
0.2253
0.22277
0.217176
0.209671
0.201063
0.191954
0.182522
0.172462
0.162454
0.156309
0.0974655
0.11501
0.152823
0.1775
0.191495
0.19745
0.198116
0.19526
0.190106
0.183521
0.17618
0.168329
0.159579
0.150443
0.145235
0.0473487
0.0683452
0.111241
0.140908
0.159309
0.169029
0.172911
0.172816
0.170038
0.165498
0.159941
0.15372
0.146369
0.138065
0.133573
-0.00260028
0.021638
0.0694315
0.103977
0.126743
0.14021
0.1473
0.149967
0.149574
0.147087
0.143311
0.138738
0.132928
0.125537
0.121307
-0.0519664
-0.0247446
0.0277002
0.0669529
0.0940033
0.111166
0.121432
0.126838
0.128821
0.128387
0.126376
0.123431
0.119325
0.11317
0.108175
-0.10034
-0.0704453
-0.0136494
0.0300773
0.0612918
0.0820704
0.0954504
0.103554
0.107885
0.109491
0.10922
0.107814
0.105423
0.101201
0.0946478
-0.147326
-0.11512
-0.0543205
-0.00641746
0.0288065
0.0530898
0.0694995
0.080235
0.086865
0.0904856
0.0919384
0.0919998
0.0911879
0.0891112
0.0840279
-0.192533
-0.158452
-0.0940329
-0.0423111
-0.00325949
0.0243879
0.0437174
0.0569998
0.0658625
0.0714531
0.0746169
0.076117
0.0767291
0.0766624
0.0736465
-0.235511
-0.200126
-0.132553
-0.0773977
-0.0347175
-0.00387812
0.0182375
0.0339632
0.0449747
0.0524715
0.0573165
0.0602399
0.062127
0.0636185
0.0624528
-0.276057
-0.239592
-0.169767
-0.111471
-0.0653827
-0.031559
-0.00681282
0.0112346
0.0242953
0.033616
0.0400861
0.044405
0.04747
0.0501687
0.0504577
-0.313903
-0.276093
-0.205834
-0.144288
-0.0950806
-0.0585155
-0.0313129
-0.0110825
0.00391352
0.0149612
0.0229795
0.0286485
0.032841
0.036586
0.0380767
-0.348837
-0.310015
-0.239906
-0.175544
-0.123656
-0.0846163
-0.0551488
-0.0328911
-0.0160867
-0.00341887
0.0060585
0.0130175
0.0182966
0.0230111
0.0256103
-0.380662
-0.341334
-0.271468
-0.205144
-0.150967
-0.109738
-0.0782142
-0.0541014
-0.035627
-0.0214538
-0.0106136
-0.00243565
0.00387771
0.00949377
0.0131517
-0.409198
-0.369765
-0.300536
-0.23292
-0.176874
-0.133765
-0.100412
-0.0746313
-0.0546351
-0.0390787
-0.0269777
-0.0176603
-0.0103757
-0.00393107
0.000723767
-0.434314
-0.395073
-0.327085
-0.258759
-0.201284
-0.156587
-0.121652
-0.0944087
-0.0730453
-0.0562349
-0.0429808
-0.0326088
-0.0244218
-0.0172203
-0.0116353
-0.45594
-0.41712
-0.351003
-0.282566
-0.224223
-0.178039
-0.141858
-0.113368
-0.0907978
-0.0728701
-0.0585756
-0.0472372
-0.0382193
-0.03033
-0.0238745
-0.474054
-0.435837
-0.372177
-0.304229
-0.245442
-0.198286
-0.160941
-0.13145
-0.10784
-0.0889378
-0.0737208
-0.0615044
-0.0517293
-0.0432239
-0.0359503
-0.488683
-0.451202
-0.390534
-0.323679
-0.264871
-0.217158
-0.179016
-0.148575
-0.12413
-0.104397
-0.0883806
-0.075374
-0.0649152
-0.0558763
-0.0478329
-0.499899
-0.463247
-0.406044
-0.340884
-0.282503
-0.234571
-0.195929
-0.164811
-0.13966
-0.119212
-0.102525
-0.088817
-0.0777416
-0.0682644
-0.0595077
-0.507821
-0.472057
-0.418714
-0.355826
-0.298334
-0.250513
-0.211631
-0.180089
-0.154413
-0.133404
-0.116117
-0.101819
-0.0901782
-0.0803482
-0.0709941
-0.512609
-0.477771
-0.428589
-0.368507
-0.312361
-0.264996
-0.226126
-0.194372
-0.168349
-0.146919
-0.129168
-0.114399
-0.102214
-0.0920386
-0.0823697
-0.514468
-0.480585
-0.435756
-0.378951
-0.324594
-0.27803
-0.239429
-0.20766
-0.181454
-0.15974
-0.14165
-0.126503
-0.113868
-0.103317
-0.0937068
-0.513637
-0.480744
-0.440339
-0.387206
-0.335059
-0.289635
-0.251556
-0.219965
-0.193735
-0.171867
-0.153547
-0.138113
-0.12513
-0.11425
-0.104546
-0.510391
-0.478541
-0.442498
-0.393344
-0.343799
-0.299841
-0.262531
-0.231308
-0.205206
-0.18331
-0.16486
-0.14923
-0.135983
-0.12481
-0.114839
-0.505031
-0.474312
-0.442416
-0.397462
-0.350874
-0.308691
-0.272385
-0.241713
-0.215885
-0.194081
-0.175601
-0.159857
-0.146416
-0.134994
-0.12473
-0.49788
-0.468412
-0.440318
-0.399688
-0.356361
-0.316236
-0.281159
-0.251211
-0.225796
-0.204199
-0.185783
-0.170002
-0.156434
-0.14483
-0.134342
-0.489271
-0.461195
-0.436466
-0.400177
-0.360349
-0.32254
-0.288903
-0.259841
-0.234968
-0.213685
-0.195423
-0.179681
-0.166055
-0.154341
-0.143736
-0.479542
-0.453002
-0.431157
-0.39911
-0.362942
-0.327671
-0.295669
-0.267648
-0.243438
-0.222567
-0.204542
-0.188915
-0.175295
-0.163534
-0.152912
-0.469024
-0.444142
-0.424717
-0.396691
-0.364255
-0.331704
-0.301516
-0.274678
-0.251244
-0.230878
-0.213168
-0.197723
-0.184172
-0.172409
-0.161841
-0.458028
-0.434892
-0.41748
-0.393141
-0.364416
-0.334719
-0.306503
-0.280984
-0.258429
-0.238652
-0.221328
-0.206128
-0.192702
-0.180969
-0.170504
-0.446836
-0.425489
-0.409772
-0.388695
-0.36356
-0.336798
-0.31069
-0.286614
-0.265038
-0.245928
-0.229053
-0.214152
-0.200904
-0.18923
-0.178904
-0.435693
-0.416136
-0.401885
-0.383596
-0.361838
-0.338029
-0.314138
-0.291618
-0.271114
-0.252743
-0.236376
-0.221823
-0.208801
-0.197213
-0.187052
-0.4248
-0.407004
-0.39406
-0.378089
-0.359409
-0.338503
-0.316904
-0.296042
-0.276698
-0.259136
-0.243331
-0.229168
-0.216417
-0.204941
-0.194967
-0.414317
-0.398234
-0.386476
-0.372409
-0.356441
-0.338315
-0.319043
-0.299928
-0.28183
-0.265145
-0.249954
-0.236217
-0.223778
-0.212438
-0.202665
-0.404361
-0.389932
-0.379256
-0.36677
-0.353106
-0.337566
-0.320612
-0.303313
-0.286543
-0.270802
-0.256277
-0.243001
-0.23091
-0.21973
-0.210166
-0.394999
-0.382175
-0.372479
-0.361339
-0.349577
-0.336365
-0.321665
-0.306228
-0.290863
-0.276135
-0.262332
-0.249551
-0.23784
-0.226842
-0.217489
-0.386302
-0.375005
-0.366196
-0.35623
-0.346016
-0.33483
-0.322262
-0.3087
-0.294808
-0.281167
-0.268146
-0.255896
-0.244595
-0.233803
-0.224657
-0.378284
-0.368436
-0.360435
-0.351508
-0.342563
-0.333082
-0.322469
-0.310754
-0.298391
-0.285908
-0.273736
-0.262061
-0.251203
-0.240638
-0.231696
-0.370951
-0.362462
-0.355206
-0.347199
-0.339317
-0.331243
-0.322362
-0.312418
-0.301613
-0.290359
-0.279113
-0.268067
-0.257687
-0.24738
-0.238627
-0.364295
-0.357058
-0.350502
-0.343311
-0.336341
-0.329419
-0.322024
-0.313725
-0.304474
-0.29451
-0.284272
-0.273923
-0.264071
-0.254052
-0.245493
-0.358293
-0.352194
-0.346301
-0.339841
-0.333662
-0.327695
-0.321544
-0.314719
-0.306974
-0.29834
-0.289195
-0.279625
-0.270368
-0.260695
-0.252311
-0.352914
-0.34783
-0.342568
-0.336775
-0.331288
-0.326126
-0.321003
-0.315456
-0.30912
-0.301822
-0.293844
-0.285151
-0.27658
-0.267317
-0.259197
-0.348116
-0.343926
-0.339265
-0.334092
-0.329218
-0.324742
-0.320468
-0.315999
-0.310931
-0.304933
-0.298172
-0.290448
-0.282693
-0.273949
-0.266164
-0.343854
-0.340438
-0.336346
-0.33176
-0.327443
-0.323558
-0.319987
-0.316409
-0.312439
-0.307657
-0.302114
-0.29546
-0.288626
-0.280584
-0.273506
-0.340072
-0.337322
-0.333766
-0.32974
-0.325943
-0.322577
-0.319592
-0.316741
-0.313686
-0.309999
-0.305617
-0.300084
-0.294333
-0.287085
-0.281111
-0.336708
-0.334535
-0.331478
-0.327988
-0.324685
-0.321791
-0.319302
-0.31704
-0.314724
-0.311981
-0.30863
-0.304276
-0.299472
-0.293815
-0.288216
-0.333694
-0.332035
-0.329435
-0.326459
-0.323631
-0.321176
-0.319119
-0.317337
-0.315603
-0.313643
-0.311128
-0.308023
-0.303879
-0.300287
-0.294234
-0.330988
-0.329763
-0.327593
-0.325106
-0.322737
-0.320699
-0.31903
-0.317648
-0.316368
-0.315038
-0.313131
-0.311302
-0.307385
-0.305828
-0.299293
-0.32853
-0.327677
-0.325907
-0.323884
-0.321955
-0.320317
-0.319008
-0.317971
-0.317051
-0.316219
-0.314706
-0.314115
-0.30994
-0.310569
-0.30334
-0.32626
-0.32574
-0.324338
-0.322752
-0.321242
-0.319986
-0.319016
-0.318288
-0.317664
-0.317225
-0.315954
-0.316479
-0.311675
-0.3148
-0.306241
-0.32413
-0.323917
-0.322857
-0.321673
-0.320558
-0.319663
-0.319013
-0.318568
-0.318205
-0.318069
-0.316987
-0.318371
-0.312914
-0.318493
-0.308014
-0.322099
-0.322178
-0.321437
-0.320618
-0.319868
-0.319311
-0.318962
-0.318778
-0.318658
-0.318749
-0.31789
-0.319746
-0.314052
-0.321318
-0.309023
-0.320141
-0.320507
-0.320052
-0.319568
-0.319149
-0.318903
-0.31883
-0.318888
-0.318995
-0.31926
-0.318683
-0.320618
-0.315319
-0.323015
-0.309908
-0.318236
-0.318893
-0.318694
-0.318508
-0.318387
-0.318418
-0.318597
-0.318877
-0.319192
-0.3196
-0.319338
-0.321088
-0.31668
-0.32368
-0.31115
-0.316378
-0.317329
-0.317357
-0.317436
-0.317576
-0.317852
-0.318253
-0.318733
-0.319235
-0.319773
-0.319808
-0.321286
-0.317957
-0.323688
-0.312769
-0.31457
-0.315819
-0.316047
-0.316356
-0.31672
-0.317207
-0.3178
-0.318454
-0.319119
-0.319782
-0.320061
-0.321324
-0.31898
-0.323425
-0.314495
-0.312824
-0.31437
-0.314774
-0.315279
-0.315833
-0.316496
-0.317252
-0.318055
-0.318861
-0.319633
-0.320106
-0.32126
-0.319656
-0.323139
-0.316065
-0.31116
-0.312999
-0.313554
-0.314225
-0.314934
-0.315742
-0.31663
-0.317556
-0.318478
-0.319345
-0.320027
-0.321026
-0.320045
-0.322959
-0.31732
-0.309605
-0.311724
-0.312407
-0.313216
-0.31405
-0.314973
-0.315967
-0.316991
-0.318005
-0.318961
-0.319791
-0.320667
-0.320466
-0.322512
-0.31843
-0.30819
-0.310569
-0.311359
-0.312279
-0.313211
-0.314222
-0.315297
-0.316397
-0.317484
-0.318513
-0.319445
-0.320309
-0.320644
-0.32199
-0.319888
-0.306946
-0.309557
-0.310434
-0.311441
-0.312449
-0.313526
-0.31466
-0.315815
-0.316956
-0.318044
-0.319049
-0.31996
-0.320614
-0.321634
-0.320943
-0.305906
-0.308713
-0.309658
-0.310732
-0.311794
-0.312918
-0.314094
-0.315288
-0.316467
-0.317599
-0.318658
-0.319631
-0.320478
-0.321416
-0.321648
-0.305098
-0.308058
-0.309053
-0.310175
-0.311275
-0.312431
-0.313634
-0.314854
-0.316058
-0.31722
-0.318318
-0.319346
-0.320312
-0.321288
-0.3221
-0.304545
-0.307611
-0.308639
-0.309791
-0.310915
-0.31209
-0.31331
-0.314545
-0.315765
-0.316944
-0.318067
-0.319136
-0.320172
-0.321217
-0.322363
-0.304264
-0.307384
-0.308428
-0.309596
-0.310731
-0.311915
-0.313142
-0.314384
-0.315611
-0.316799
-0.317935
-0.319023
-0.320093
-0.321185
-0.322481
0.222405
0.199842
0.180583
0.165875
0.153078
0.143202
0.134486
0.127702
0.121642
0.116905
0.112671
0.109395
0.106479
0.104247
0.102294
0.100853
0.0996463
0.0988371
0.098245
0.0980221
0.221838
0.199454
0.180288
0.165662
0.152909
0.143075
0.13438
0.12762
0.121574
0.116849
0.112621
0.109351
0.10644
0.104212
0.102262
0.100823
0.0996177
0.0988097
0.0982185
0.0979958
0.220703
0.198678
0.179697
0.165237
0.152572
0.142821
0.134171
0.127456
0.121438
0.116736
0.112521
0.109264
0.106361
0.104141
0.102196
0.100762
0.0995604
0.0987549
0.0981655
0.0979432
0.218999
0.197517
0.178813
0.164602
0.152067
0.142441
0.133857
0.12721
0.121235
0.116567
0.112371
0.109133
0.106244
0.104035
0.102099
0.100671
0.0994749
0.0986731
0.0980864
0.0978645
0.216724
0.195972
0.177636
0.163759
0.151397
0.141937
0.133441
0.126883
0.120963
0.116342
0.112173
0.10896
0.106088
0.103894
0.101969
0.10055
0.0993612
0.0985644
0.0979813
0.0977601
0.213879
0.194043
0.17617
0.16271
0.150564
0.14131
0.132925
0.126474
0.120624
0.116064
0.111928
0.108744
0.105895
0.103718
0.101808
0.100399
0.09922
0.0984293
0.0978505
0.0976301
0.210463
0.191735
0.174416
0.161457
0.14957
0.140562
0.13231
0.125987
0.120216
0.115723
0.111633
0.108488
0.105665
0.103509
0.101616
0.10022
0.0990515
0.0982681
0.0976946
0.0974751
0.206479
0.18905
0.17238
0.160004
0.148419
0.139694
0.131598
0.125419
0.119736
0.115337
0.11131
0.108191
0.105399
0.103268
0.101394
0.100013
0.0988565
0.0980814
0.0975139
0.0972956
0.20193
0.185992
0.170064
0.158352
0.147115
0.138709
0.130794
0.124775
0.11919
0.114906
0.110903
0.107855
0.105099
0.102994
0.101143
0.0997778
0.0986356
0.0978698
0.0973092
0.0970921
0.196821
0.182565
0.167472
0.156506
0.145662
0.137608
0.129899
0.124056
0.118581
0.114388
0.110542
0.107497
0.104765
0.102689
0.100863
0.099516
0.0983894
0.097634
0.0970809
0.0968653
0.191161
0.178773
0.164611
0.154466
0.144064
0.136394
0.128916
0.123265
0.117918
0.113826
0.110044
0.107087
0.104398
0.102355
0.100555
0.0992283
0.0981189
0.0973748
0.0968299
0.096616
0.184958
0.17462
0.161487
0.152235
0.142326
0.135068
0.127848
0.122403
0.117199
0.11322
0.109537
0.106638
0.103999
0.101991
0.100221
0.0989157
0.0978249
0.0970929
0.0965569
0.0963448
0.178224
0.170109
0.158108
0.149815
0.140453
0.133634
0.126699
0.121472
0.116425
0.112563
0.108968
0.10614
0.103566
0.1016
0.0998623
0.0985793
0.0975084
0.0967892
0.0962628
0.0960527
0.170973
0.165243
0.154481
0.147207
0.138449
0.132093
0.12547
0.120474
0.115598
0.111859
0.108356
0.105649
0.103126
0.101188
0.0994799
0.0982202
0.0971702
0.0964647
0.0959482
0.0957405
0.163222
0.16002
0.150617
0.144414
0.13632
0.130448
0.124165
0.119411
0.114721
0.111112
0.107707
0.105063
0.102654
0.100746
0.0990751
0.097839
0.0968116
0.0961203
0.0956143
0.0954092
0.15499
0.15444
0.146526
0.141437
0.134069
0.128704
0.122787
0.118288
0.113794
0.110324
0.107029
0.104466
0.102116
0.100287
0.0986345
0.0974392
0.0964337
0.095757
0.0952618
0.0950598
0.146289
0.148492
0.142215
0.138281
0.1317
0.126863
0.121337
0.117105
0.112819
0.109494
0.106316
0.103839
0.101556
0.0997915
0.0982288
0.097022
0.0960373
0.0953759
0.0948919
0.0946934
0.13716
0.142183
0.137699
0.134947
0.129211
0.124924
0.119813
0.115861
0.111796
0.108625
0.10557
0.103183
0.100973
0.0992575
0.0977362
0.0965975
0.0956252
0.094979
0.0945054
0.094311
0.127583
0.135533
0.133003
0.131497
0.126649
0.122941
0.118256
0.114597
0.110754
0.107741
0.10481
0.102515
0.100379
0.0987202
0.0972413
0.0961369
0.0952103
0.0945696
0.094103
0.093914
0.117099
0.128061
0.127863
0.12773
0.123883
0.120818
0.116586
0.113247
0.109636
0.106795
0.103995
0.101799
0.0997437
0.098147
0.0967189
0.0956492
0.0947525
0.0941391
0.0936882
0.0935034
0.101923
0.11583
0.119522
0.120627
0.118599
0.11638
0.113174
0.110375
0.107361
0.104857
0.102415
0.100431
0.0985958
0.097135
0.0958438
0.0948571
0.0940386
0.0934701
0.0930635
0.0928983
0.0901028
0.102268
0.109001
0.111643
0.111559
0.11051
0.108476
0.106461
0.104171
0.102178
0.10019
0.0985356
0.0969873
0.0957384
0.0946276
0.0937719
0.0930576
0.0925576
0.0922036
0.0920643
0.0792855
0.0911607
0.0992891
0.103175
0.104678
0.104705
0.103749
0.102488
0.100901
0.0994147
0.0978818
0.0965626
0.0953079
0.0942778
0.0933535
0.0926339
0.0920298
0.0916036
0.0913029
0.0911859
0.0692603
0.0814251
0.0903813
0.0952877
0.0980639
0.0990589
0.0990853
0.098531
0.097618
0.0966182
0.0955344
0.0945436
0.0935845
0.0927713
0.0920367
0.0914534
0.0909628
0.0906123
0.0903669
0.0902702
0.0602405
0.0726941
0.082226
0.0879973
0.0917776
0.0936378
0.094529
0.0946376
0.0943521
0.0938215
0.09317
0.092501
0.0918326
0.0912346
0.0906889
0.0902416
0.0898651
0.0895911
0.0894012
0.089324
0.0522544
0.0648452
0.074775
0.081266
0.0858431
0.0884694
0.0901107
0.0908369
0.0911268
0.0910465
0.0908052
0.0904511
0.0900644
0.0896793
0.0893194
0.0890077
0.0887445
0.0885469
0.088412
0.0883541
0.0452077
0.0578054
0.0679909
0.0750536
0.0802703
0.0835657
0.0858558
0.0871506
0.0879638
0.0883121
0.0884562
0.0884078
0.0882918
0.0881161
0.0879372
0.0877601
0.0876083
0.0874868
0.0874057
0.0873671
0.0389671
0.0514947
0.0618308
0.0693293
0.0750607
0.0789326
0.0817836
0.0835958
0.0848827
0.0856345
0.0861385
0.0863845
0.0865264
0.0865553
0.0865512
0.0865069
0.0864636
0.0864174
0.0863885
0.0863696
0.0334255
0.0458329
0.0562441
0.0640656
0.0702096
0.0745718
0.0779076
0.0801856
0.0818997
0.0830279
0.0838661
0.0843931
0.0847794
0.0850064
0.0851701
0.0852557
0.0853176
0.0853453
0.0853668
0.0853679
0.0285006
0.0407505
0.0511795
0.0592344
0.0657074
0.0704821
0.074236
0.0769295
0.079028
0.0805041
0.0816513
0.0824442
0.0830608
0.0834783
0.0838023
0.0840142
0.0841771
0.0842768
0.0843467
0.084368
0.0241236
0.0361884
0.0465898
0.0548079
0.0615407
0.0666596
0.0707731
0.0738346
0.0762776
0.0780728
0.0795047
0.0805474
0.0813801
0.0819793
0.0824556
0.0827892
0.0830488
0.0832183
0.0833345
0.0833759
0.0202341
0.032095
0.0424332
0.050759
0.0576943
0.0630987
0.0675202
0.0709055
0.0736564
0.0757423
0.0774355
0.078711
0.0797457
0.080517
0.0811373
0.0815875
0.0819391
0.0821756
0.082336
0.0823973
0.0167784
0.0284243
0.038672
0.0470621
0.0541523
0.059792
0.0644763
0.0681452
0.0711701
0.0735194
0.0754514
0.0769426
0.0781651
0.0790983
0.0798543
0.0804152
0.0808541
0.0811547
0.0813568
0.0814377
0.013709
0.0251347
0.0352726
0.0436933
0.0508987
0.0567313
0.0616386
0.0655548
0.0688227
0.0714094
0.0735587
0.0752486
0.0766451
0.0777297
0.0786127
0.0792784
0.0797994
0.0801608
0.0804025
0.0805023
0.010984
0.0221895
0.0322045
0.0406299
0.0479182
0.0539077
0.0590033
0.0631344
0.0666169
0.0694166
0.0717628
0.0736347
0.0751915
0.076417
0.0774184
0.0781824
0.0787806
0.0791992
0.0794781
0.0795961
0.00856708
0.0195558
0.0294404
0.037851
0.045196
0.051312
0.0565657
0.0608829
0.064554
0.0675441
0.0700679
0.0721059
0.0738097
0.0751653
0.0762766
0.0771322
0.0778024
0.0782748
0.0785884
0.0787237
0.00642608
0.0172049
0.0269559
0.0353372
0.0427179
0.0489353
0.0543209
0.0587985
0.0626349
0.0657944
0.0684776
0.0706662
0.0725041
0.0739794
0.0751919
0.0761327
0.0768696
0.077392
0.077738
0.0778897
0.00453311
0.0151112
0.024729
0.0330709
0.0404708
0.0467684
0.0522636
0.0568791
0.0608595
0.064169
0.0669947
0.0693192
0.0712788
0.0728634
0.0741689
0.0751879
0.0759865
0.0765552
0.0769311
0.077098
0.00286386
0.0132524
0.0227401
0.0310361
0.0384426
0.044803
0.0503885
0.0551219
0.0592273
0.0626691
0.0656214
0.0680679
0.0701372
0.0718211
0.0732111
0.0743019
0.0751569
0.0757682
0.0761717
0.0763527
0.00139718
0.0116088
0.020972
0.0292183
0.0366219
0.0430307
0.0486903
0.053524
0.0577374
0.0612952
0.0643593
0.0669146
0.0690823
0.0708557
0.0723222
0.0734782
0.0743844
0.0750346
0.0754631
0.0756572
0.000114793
0.0101633
0.0194092
0.0276045
0.0349986
0.0414441
0.047164
0.0520827
0.0563887
0.0600476
0.0632098
0.0658614
0.0681166
0.06997
0.0715052
0.0727198
0.0736723
0.0743576
0.0748088
0.0750147
-0.000999071
0.00890102
0.0180383
0.0261832
0.0335633
0.0400363
0.0458048
0.0507949
0.05518
0.0589262
0.0621739
0.0649099
0.0672422
0.0691666
0.0707628
0.0720297
0.0730235
0.0737401
0.0742117
0.0744282
-0.00195791
0.00780908
0.0168477
0.0249444
0.0323079
0.0388008
0.0446083
0.049658
0.0541098
0.0579309
0.0612522
0.0640616
0.066461
0.0684476
0.0700972
0.0714103
0.0724405
0.0731849
0.0736744
0.0739003
-0.00277318
0.00687651
0.015827
0.0238792
0.0312251
0.0377322
0.0435704
0.0486694
0.0531768
0.0570613
0.0604451
0.0633174
0.0657745
0.0678147
0.0695107
0.0708637
0.0719255
0.0726941
0.0731992
0.0734334
-0.00345452
0.00609399
0.0149677
0.0229799
0.0303085
0.0368255
0.0426877
0.0478266
0.0523798
0.0563169
0.0597531
0.0626782
0.0651839
0.0672696
0.0690048
0.0703919
0.0714806
0.0722697
0.0727882
0.0730295
-0.00400988
0.00545379
0.0142625
0.0222403
0.0295527
0.0360764
0.0419568
0.0471276
0.0517176
0.0556975
0.0591762
0.0621446
0.0646904
0.0668135
0.0685811
0.0699963
0.0711073
0.0719136
0.0724431
0.0726902
-0.00444577
0.00494959
0.0137055
0.0216549
0.0289534
0.0354814
0.0413753
0.0465706
0.0511891
0.0552025
0.0587146
0.0617173
0.0642946
0.0664474
0.0682408
0.0696784
0.0708071
0.0716269
0.0721652
0.0724171
-0.00476725
0.00457646
0.013292
0.0212197
0.028507
0.0350377
0.040941
0.0461542
0.0507935
0.0548316
0.0583684
0.0613964
0.0639972
0.0661722
0.0679847
0.069439
0.0705809
0.071411
0.0719559
0.0722113
-0.00497819
0.00433073
0.0130183
0.0209315
0.0282108
0.0347431
0.0406523
0.0458772
0.0505301
0.0545845
0.0581376
0.0611824
0.0637987
0.0659883
0.0678136
0.069279
0.0704298
0.0712666
0.0718159
0.0720736
-0.00508207
0.00421005
0.0128815
0.0207886
0.0280625
0.0345966
0.0405078
0.0457392
0.0503982
0.0544613
0.058022
0.0610756
0.0636992
0.0658965
0.0677278
0.069199
0.070354
0.0711944
0.0717457
0.0720047
0.0871163
0.0780446
0.0684177
0.0591179
0.0505947
0.0429316
0.0360931
0.0300145
0.0246275
0.0198627
0.0156527
0.0119351
0.0086531
0.00575669
0.00320175
0.000949679
-0.00103321
-0.00277626
-0.00430493
-0.00564126
-0.00680429
-0.00781034
-0.00867337
-0.00940516
-0.0100156
-0.0105127
-0.0109029
-0.0111916
-0.0113819
-0.0114717
0.0768328
0.0672219
0.0581652
0.0496543
0.0419496
0.035033
0.0288509
0.0233504
0.0184765
0.0141682
0.0103639
0.00700567
0.00404159
0.00142575
-0.000882038
-0.00291688
-0.00470935
-0.00628602
-0.00766994
-0.00888106
-0.0099366
-0.0108513
-0.0116379
-0.0123069
-0.0128674
-0.0133267
-0.0136905
-0.0139637
-0.0141489
-0.014239
0.0649859
0.053969
0.045089
0.0372327
0.0304326
0.024473
0.0192249
0.0145976
0.0105197
0.00692568
0.00375621
0.000958555
-0.00151298
-0.00369772
-0.00562946
-0.00733728
-0.00884624
-0.0101779
-0.011351
-0.0123815
-0.0132832
-0.0140681
-0.0147463
-0.0153264
-0.0158156
-0.0162199
-0.0165436
-0.016791
-0.0169646
-0.0170546
0.0543276
0.0433424
0.034906
0.0274737
0.0212133
0.0158379
0.0111933
0.0071582
0.00363983
0.00056192
-0.00213847
-0.00451366
-0.00660722
-0.00845555
-0.0100892
-0.0115341
-0.012812
-0.0139415
-0.0149385
-0.0158166
-0.0165873
-0.0172606
-0.0178449
-0.0183473
-0.0187739
-0.0191295
-0.0194177
-0.0196418
-0.0198058
-0.0199003
0.0435282
0.0336556
0.026391
0.0196753
0.0139879
0.00907459
0.00484224
0.00118586
-0.0019825
-0.00473812
-0.00714306
-0.00924837
-0.0110962
-0.0127214
-0.0141533
-0.0154164
-0.0165311
-0.017515
-0.0183828
-0.0191469
-0.019818
-0.0204051
-0.0209158
-0.0213567
-0.021733
-0.0220493
-0.0223087
-0.0225139
-0.0226706
-0.0227717
0.0321368
0.0233432
0.0173956
0.0116472
0.00677385
0.00248492
-0.00124398
-0.00448509
-0.00730138
-0.00975225
-0.0118894
-0.013757
-0.0153924
-0.016827
-0.0180874
-0.0191962
-0.0201723
-0.0210319
-0.0217887
-0.0224543
-0.0230386
-0.02355
-0.0239957
-0.0243816
-0.0247127
-0.0249933
-0.0252262
-0.0254138
-0.0255626
-0.0256697
0.0206355
0.0127228
0.00778146
0.00288927
-0.00114305
-0.00471598
-0.00783046
-0.0105539
-0.0129325
-0.0150103
-0.0168266
-0.0184158
-0.019808
-0.0210291
-0.0221012
-0.0230433
-0.0238718
-0.0246007
-0.0252419
-0.0258056
-0.0263006
-0.0267344
-0.0271134
-0.0274429
-0.0277274
-0.0279709
-0.0281761
-0.0283445
-0.0284832
-0.0285938
0.00927207
0.00230452
-0.00180371
-0.00599886
-0.00931771
-0.0122405
-0.0147557
-0.0169465
-0.0188571
-0.0205265
-0.0219867
-0.0232654
-0.0243861
-0.0253693
-0.0262326
-0.0269912
-0.0276582
-0.028245
-0.0287613
-0.0292156
-0.0296151
-0.0299662
-0.0302741
-0.0305436
-0.0307784
-0.030982
-0.0311569
-0.031304
-0.0314299
-0.0315415
-0.0019994
-0.00790082
-0.0111424
-0.0146427
-0.0173136
-0.0196628
-0.0216452
-0.0233518
-0.0248252
-0.0261035
-0.027216
-0.0281865
-0.0290346
-0.029777
-0.0304275
-0.0309981
-0.0314993
-0.0319398
-0.0323274
-0.0326688
-0.0329697
-0.0332352
-0.0334696
-0.0336766
-0.0338595
-0.0340211
-0.0341637
-0.0342876
-0.0343986
-0.0345089
-0.0132166
-0.0180262
-0.0203585
-0.0230969
-0.0250973
-0.0268821
-0.0283622
-0.0296226
-0.0306952
-0.0316137
-0.0324035
-0.0330851
-0.0336753
-0.0341875
-0.034633
-0.0350213
-0.0353604
-0.0356572
-0.0359176
-0.0361469
-0.0363495
-0.0365293
-0.0366897
-0.0368336
-0.0369637
-0.0370823
-0.0371914
-0.0372908
-0.0373853
-0.0374919
-0.0243398
-0.0280947
-0.0295364
-0.0314876
-0.0327936
-0.0339951
-0.0349682
-0.0357896
-0.0364756
-0.0370509
-0.0375347
-0.0379429
-0.0382884
-0.0385815
-0.038831
-0.0390441
-0.0392267
-0.039384
-0.0395205
-0.03964
-0.0397458
-0.0398409
-0.0399278
-0.0400088
-0.0400858
-0.0401608
-0.0402355
-0.0403094
-0.0403859
-0.0404868
-0.0353255
-0.0380633
-0.0386464
-0.0398318
-0.0404577
-0.0410761
-0.0415397
-0.0419205
-0.0422206
-0.0424562
-0.0426392
-0.0427799
-0.0428868
-0.0429668
-0.0430255
-0.0430678
-0.0430976
-0.0431185
-0.0431333
-0.0431448
-0.0431551
-0.0431662
-0.04318
-0.0431981
-0.0432219
-0.0432528
-0.0432923
-0.0433397
-0.0433969
-0.04349
-0.0461615
-0.0479035
-0.0476379
-0.0480881
-0.0480639
-0.0481206
-0.0480888
-0.0480371
-0.0479548
-0.0478526
-0.0477368
-0.0476123
-0.047483
-0.0473521
-0.0472223
-0.0470959
-0.0469748
-0.0468607
-0.0467551
-0.0466594
-0.0465748
-0.0465024
-0.0464432
-0.0463983
-0.0463684
-0.0463546
-0.0463581
-0.046378
-0.0464146
-0.046498
-0.0568559
-0.0576106
-0.0564876
-0.0562297
-0.0555772
-0.0550965
-0.054591
-0.0541241
-0.0536689
-0.0532357
-0.0528258
-0.0524395
-0.0520768
-0.0517373
-0.0514209
-0.0511273
-0.0508565
-0.0506085
-0.0503832
-0.0501809
-0.0500017
-0.0498459
-0.0497137
-0.0496054
-0.0495215
-0.0494623
-0.0494291
-0.0494207
-0.0494353
-0.0495075
-0.0674239
-0.0671654
-0.0651895
-0.0642506
-0.0629839
-0.0619859
-0.061026
-0.0601634
-0.0593458
-0.058591
-0.0578945
-0.0572523
-0.0566605
-0.0561159
-0.0556155
-0.0551568
-0.0547379
-0.0543571
-0.0540131
-0.0537048
-0.0534314
-0.0531923
-0.052987
-0.0528153
-0.052677
-0.052572
-0.0525013
-0.0524639
-0.052455
-0.0525149
-0.0778799
-0.076506
-0.0737497
-0.0721455
-0.070287
-0.0687869
-0.0673882
-0.0661463
-0.0649734
-0.0639071
-0.0629323
-0.0620409
-0.0612256
-0.0604801
-0.0597991
-0.0591779
-0.058613
-0.058101
-0.0576394
-0.057226
-0.056859
-0.056537
-0.0562588
-0.0560235
-0.0558306
-0.0556794
-0.0555705
-0.0555038
-0.0554698
-0.0555164
-0.0881901
-0.0855376
-0.0822015
-0.0798984
-0.0775024
-0.0755084
-0.0736816
-0.0720658
-0.070545
-0.0691779
-0.0679329
-0.0667992
-0.065766
-0.0648241
-0.063966
-0.0631852
-0.0624764
-0.0618349
-0.061257
-0.0607395
-0.0602796
-0.0598751
-0.0595242
-0.0592254
-0.0589778
-0.0587802
-0.0586325
-0.0585366
-0.0584759
-0.0585076
-0.0982662
-0.0944668
-0.0906176
-0.0875889
-0.0847009
-0.082211
-0.0799317
-0.0778961
-0.076054
-0.0743977
-0.0728924
-0.0715237
-0.070278
-0.0691441
-0.0681123
-0.0671746
-0.066324
-0.0655547
-0.0648618
-0.064241
-0.0636888
-0.0632023
-0.062779
-0.0624169
-0.0621144
-0.0618702
-0.0616831
-0.0615575
-0.061471
-0.0614828
-0.107964
-0.103296
-0.0989074
-0.0952093
-0.0918209
-0.088848
-0.0861465
-0.0837248
-0.0815575
-0.0796086
-0.0778415
-0.0762371
-0.0747788
-0.0734529
-0.0722475
-0.0711529
-0.0701605
-0.0692633
-0.0684552
-0.0677311
-0.0670864
-0.0665175
-0.0660214
-0.0655955
-0.0652376
-0.0649462
-0.0647198
-0.0645602
-0.0644556
-0.0644338
-0.117334
-0.111977
-0.107029
-0.102719
-0.0988301
-0.095398
-0.0923042
-0.0895294
-0.0870413
-0.0848008
-0.0827722
-0.0809326
-0.0792624
-0.077745
-0.0763666
-0.0751156
-0.0739819
-0.0729571
-0.0720341
-0.0712067
-0.0704697
-0.0698186
-0.0692497
-0.0687599
-0.0683467
-0.068008
-0.0677421
-0.0675493
-0.0674237
-0.0673776
-0.12648
-0.120513
-0.114978
-0.110092
-0.105719
-0.101854
-0.0983845
-0.095272
-0.0924733
-0.089949
-0.0876642
-0.0855934
-0.0837143
-0.082008
-0.0804585
-0.0790527
-0.077779
-0.0766277
-0.0755907
-0.0746608
-0.073832
-0.0730992
-0.072458
-0.0719047
-0.0714365
-0.0710508
-0.0707455
-0.0705204
-0.0703713
-0.0703094
-0.135475
-0.12892
-0.122764
-0.117325
-0.112489
-0.108214
-0.104379
-0.100936
-0.0978358
-0.0950369
-0.0925032
-0.090207
-0.0881234
-0.0862315
-0.0845138
-0.0829554
-0.0815435
-0.0802673
-0.0791175
-0.0780862
-0.0771665
-0.0763526
-0.0756396
-0.0750234
-0.0745005
-0.0740682
-0.0737241
-0.0734673
-0.0732936
-0.0732171
-0.144334
-0.137176
-0.1304
-0.124432
-0.119156
-0.114484
-0.110291
-0.106524
-0.10313
-0.100063
-0.0972872
-0.0947705
-0.0924863
-0.090412
-0.0885286
-0.0868196
-0.0852712
-0.0838714
-0.08261
-0.0814782
-0.0804684
-0.0795742
-0.0787901
-0.0781114
-0.0775344
-0.0770559
-0.0766733
-0.0763852
-0.076187
-0.0760936
-0.15303
-0.145273
-0.137898
-0.131426
-0.125728
-0.120671
-0.116129
-0.112044
-0.108361
-0.105033
-0.102019
-0.0992853
-0.0968034
-0.094549
-0.0925017
-0.0906438
-0.0889602
-0.0874378
-0.0860657
-0.0848341
-0.0837349
-0.0827609
-0.0819062
-0.0811657
-0.080535
-0.0800107
-0.07959
-0.079271
-0.0790485
-0.0789368
-0.16154
-0.153218
-0.145268
-0.138317
-0.132211
-0.12678
-0.121897
-0.117501
-0.113535
-0.109949
-0.1067
-0.103752
-0.101075
-0.0986419
-0.0964321
-0.0944264
-0.0926084
-0.0909643
-0.0894821
-0.0881515
-0.0869634
-0.0859102
-0.0849854
-0.0841833
-0.0834994
-0.0829298