/*--------------------------------*- C++ -*----------------------------------*\
  =========                 |
  \\      /  F ield         | OpenFOAM: The Open Source CFD Toolbox
   \\    /   O peration     | Website:  https://openfoam.org
    \\  /    A nd           | Version:  7
     \\/     M anipulation  |
\*---------------------------------------------------------------------------*/
FoamFile
{
    version     2.0;
    format      ascii;
    class       volVectorField;
    location    "15";
    object      U;
}
// * * * * * * * * * * * * * * * * * * * * * * * * * * * * * * * * * * * * * //

dimensions      [0 1 -1 0 0 0 0];

internalField   nonuniform List<vector> 
3700
(
(0.0318672 -0.0167309 3.85419e-20)
(0.127657 -0.0261129 -4.82158e-21)
(0.248651 -0.0254562 -1.98194e-20)
(0.346224 -0.0225216 1.01219e-20)
(0.430027 -0.019643 3.07256e-20)
(0.50092 -0.0172255 -2.66155e-20)
(0.561853 -0.0151864 -9.52752e-22)
(0.614407 -0.0134535 -2.85833e-21)
(0.660083 -0.0119683 1.18401e-20)
(0.699961 -0.0106865 1.67453e-21)
(0.734968 -0.00957309 -7.44054e-21)
(0.765829 -0.00859992 -5.88091e-21)
(0.793113 -0.00773911 -2.09244e-20)
(0.817252 -0.00696516 2.18274e-20)
(0.838698 -0.00628219 -8.54366e-21)
(0.0343582 -0.0500487 -8.06042e-20)
(0.131409 -0.0781596 4.62222e-20)
(0.252246 -0.0762166 1.58841e-20)
(0.349357 -0.0674407 -3.38393e-21)
(0.432713 -0.0588254 -2.84715e-20)
(0.503236 -0.0515886 -5.18087e-20)
(0.563863 -0.0454846 4.18101e-20)
(0.616162 -0.0402964 -6.73843e-21)
(0.661624 -0.0358499 -3.10594e-20)
(0.701322 -0.0320122 -3.01314e-20)
(0.736175 -0.0286784 3.5619e-20)
(0.766908 -0.0257643 -3.61979e-20)
(0.79409 -0.0231862 4.8494e-20)
(0.818136 -0.0208687 -4.35777e-20)
(0.839448 -0.0188258 -8.40411e-21)
(0.0393108 -0.0829362 -1.24224e-19)
(0.13888 -0.12967 -2.13688e-19)
(0.259408 -0.126522 -1.15392e-20)
(0.355601 -0.111989 5.25295e-20)
(0.438067 -0.0976975 2.47249e-20)
(0.507854 -0.0856889 8.29276e-20)
(0.567871 -0.0755589 -5.45379e-20)
(0.619663 -0.066948 -6.12758e-20)
(0.664699 -0.0595672 6.62838e-20)
(0.704037 -0.0531964 2.47555e-20)
(0.738583 -0.0476615 -7.33296e-20)
(0.76906 -0.0428224 2.43455e-20)
(0.79604 -0.03854 -2.05537e-20)
(0.819899 -0.034692 -2.13518e-20)
(0.840947 -0.031307 -3.22356e-20)
(0.0466667 -0.115111 1.08862e-19)
(0.150003 -0.18029 3.45452e-19)
(0.270084 -0.176074 -1.618e-19)
(0.364914 -0.155921 1.26352e-20)
(0.446053 -0.136055 -5.54743e-20)
(0.514743 -0.119353 1.50546e-19)
(0.573852 -0.105262 -4.24798e-21)
(0.624886 -0.0932822 -5.50731e-22)
(0.669287 -0.0830119 -4.51109e-20)
(0.708088 -0.0741457 4.78619e-20)
(0.742177 -0.0664417 1.23364e-19)
(0.772272 -0.0597042 4.13818e-20)
(0.798949 -0.0537392 5.95454e-21)
(0.822531 -0.0483817 -9.28286e-21)
(0.84319 -0.0436834 3.73045e-20)
(0.0563387 -0.146297 2.2484e-19)
(0.164676 -0.229675 -1.63435e-19)
(0.284192 -0.224578 -3.87714e-21)
(0.377231 -0.198997 -1.70765e-20)
(0.456618 -0.173698 1.15244e-19)
(0.523859 -0.152412 -8.43903e-20)
(0.581766 -0.13445 2.89589e-20)
(0.6318 -0.119175 -3.78079e-20)
(0.675362 -0.106078 2.2193e-20)
(0.713454 -0.0947685 -1.21166e-19)
(0.746937 -0.0849399 -8.72299e-20)
(0.776526 -0.076341 -5.316e-20)
(0.802801 -0.0687234 7.69895e-20)
(0.826019 -0.0618853 -1.99515e-20)
(0.84617 -0.0559121 1.76777e-20)
(0.0682117 -0.176227 -2.73946e-21)
(0.182768 -0.277487 -2.6048e-19)
(0.301626 -0.271746 1.95564e-19)
(0.392468 -0.240983 -1.52525e-19)
(0.469694 -0.210431 -1.22977e-19)
(0.535144 -0.1847 6.39645e-20)
(0.591565 -0.162981 -4.2894e-20)
(0.640362 -0.144507 1.59027e-19)
(0.682887 -0.128661 -4.4967e-20)
(0.720101 -0.114975 9.2658e-20)
(0.752836 -0.103079 -4.28993e-20)
(0.781798 -0.0926657 9.39485e-20)
(0.807572 -0.0834337 1.86991e-20)
(0.830342 -0.0751506 4.01248e-20)
(0.84988 -0.0679493 -4.55758e-20)
(0.0821434 -0.204647 1.94907e-20)
(0.204114 -0.3234 2.60237e-19)
(0.322253 -0.317302 -2.48542e-20)
(0.410519 -0.281654 -4.81282e-21)
(0.485193 -0.246066 -3.03486e-20)
(0.548523 -0.216057 -2.86742e-19)
(0.603187 -0.190719 2.09093e-20)
(0.650521 -0.16916 -1.2533e-19)
(0.691816 -0.150662 -1.68477e-20)
(0.727992 -0.13468 -7.67899e-21)
(0.75984 -0.120784 3.32192e-20)
(0.788057 -0.108614 -7.18112e-20)
(0.813236 -0.0978133 -1.58865e-19)
(0.83548 -0.0881269 1.67366e-19)
(0.854307 -0.0797508 5.67838e-20)
(0.0979658 -0.231316 -1.39029e-19)
(0.228518 -0.367105 -2.39208e-19)
(0.345916 -0.360979 6.32004e-20)
(0.431261 -0.320794 1.03296e-19)
(0.503013 -0.280424 1.02603e-19)
(0.563912 -0.246332 -6.82109e-21)
(0.616559 -0.217536 -8.24828e-20)
(0.662212 -0.193024 2.39464e-19)
(0.702098 -0.171985 8.80876e-22)
(0.737081 -0.1538 6.05407e-20)
(0.767911 -0.137983 1.38341e-19)
(0.795269 -0.124122 -1.32049e-19)
(0.81976 -0.111808 1.70764e-19)
(0.841404 -0.100765 -8.37806e-20)
(0.859438 -0.0912726 -5.46896e-20)
(0.115486 -0.25601 8.1863e-20)
(0.255755 -0.408305 -7.13582e-20)
(0.372434 -0.402526 1.38297e-19)
(0.45455 -0.358197 -1.2019e-19)
(0.523037 -0.313333 -1.49727e-19)
(0.581212 -0.27538 -1.69474e-19)
(0.631598 -0.243307 6.91265e-20)
(0.675367 -0.215994 4.40671e-20)
(0.71367 -0.192538 -2.09934e-19)
(0.747315 -0.172256 -1.39763e-19)
(0.777002 -0.154608 -1.23609e-19)
(0.803393 -0.139133 1.70372e-19)
(0.827107 -0.125366 -4.9494e-20)
(0.848085 -0.113018 -4.05133e-20)
(0.865255 -0.102471 3.08218e-21)
(0.134488 -0.278523 2.79966e-19)
(0.285573 -0.446728 3.67443e-19)
(0.401602 -0.441704 -1.51842e-19)
(0.480225 -0.393672 -1.72647e-19)
(0.545134 -0.344635 3.71104e-19)
(0.600311 -0.303065 2.93116e-20)
(0.648209 -0.267918 1.26886e-19)
(0.689904 -0.237969 -2.87965e-19)
(0.726465 -0.212237 1.23384e-19)
(0.758636 -0.189975 2.00799e-20)
(0.787062 -0.170595 -7.62886e-20)
(0.812385 -0.153591 -1.84726e-19)
(0.835237 -0.13844 -8.15493e-20)
(0.855489 -0.124842 5.6349e-20)
(0.871738 -0.113304 1.22922e-20)
(0.154734 -0.298672 -1.94486e-19)
(0.317692 -0.48212 -2.46616e-19)
(0.433194 -0.478294 1.52929e-19)
(0.50811 -0.42704 5.56851e-19)
(0.56916 -0.374182 5.0636e-20)
(0.62109 -0.329264 1.2984e-20)
(0.666291 -0.291261 -1.66611e-19)
(0.705737 -0.258859 3.40373e-19)
(0.740408 -0.231001 1.14934e-20)
(0.77098 -0.206886 1.6011e-19)
(0.798038 -0.185884 1.97026e-19)
(0.822196 -0.167443 1.2297e-19)
(0.844106 -0.150986 -1.06376e-20)
(0.863579 -0.136197 3.14533e-20)
(0.878864 -0.123731 1.04456e-19)
(0.175967 -0.316295 -8.63542e-20)
(0.351807 -0.514249 -1.40724e-19)
(0.466964 -0.512092 4.85159e-20)
(0.538012 -0.458139 3.63421e-20)
(0.594958 -0.40184 -4.11846e-19)
(0.643416 -0.353863 4.16694e-19)
(0.685732 -0.31324 -1.48006e-20)
(0.722771 -0.27858 -9.51935e-20)
(0.755417 -0.24876 -6.11716e-20)
(0.784276 -0.222928 -4.13789e-20)
(0.809867 -0.200419 -6.55047e-20)
(0.832772 -0.180643 4.44274e-20)
(0.853666 -0.162964 -1.27427e-19)
(0.872315 -0.147044 -9.71036e-20)
(0.886609 -0.133714 -6.18075e-20)
(0.197915 -0.331258 -1.92463e-20)
(0.38759 -0.542912 2.71039e-19)
(0.502646 -0.542917 -4.27278e-19)
(0.569724 -0.486822 -5.37191e-19)
(0.62236 -0.42749 1.853e-19)
(0.66715 -0.37676 -7.00239e-20)
(0.706413 -0.333767 1.55061e-19)
(0.740904 -0.297056 2.02514e-20)
(0.771408 -0.265446 2.53946e-19)
(0.798452 -0.238043 -5.30837e-20)
(0.822486 -0.21415 -1.89465e-19)
(0.844056 -0.193148 2.44506e-20)
(0.863865 -0.174339 -5.24918e-20)
(0.881656 -0.157354 2.23505e-20)
(0.894943 -0.143217 -3.34962e-21)
(0.220289 -0.343451 1.37258e-19)
(0.424691 -0.56793 1.19139e-19)
(0.539958 -0.570607 3.88184e-19)
(0.603026 -0.512963 3.01284e-19)
(0.65119 -0.451026 2.26283e-19)
(0.692143 -0.397867 -2.59508e-19)
(0.72821 -0.352767 -5.44958e-20)
(0.760032 -0.314222 -1.09993e-19)
(0.788288 -0.281003 -7.11144e-20)
(0.813428 -0.25218 1.43265e-19)
(0.835827 -0.227032 7.97114e-20)
(0.855987 -0.204916 -1.73123e-20)
(0.874648 -0.185075 2.32133e-19)
(0.891556 -0.167096 -5.28341e-20)
(0.903838 -0.152209 1.24504e-19)
(0.24279 -0.352796 -5.73656e-20)
(0.462745 -0.589156 -4.44236e-19)
(0.578598 -0.595024 -2.77529e-19)
(0.637688 -0.536451 -1.31278e-19)
(0.681263 -0.472361 -3.3592e-19)
(0.718242 -0.417109 2.88922e-19)
(0.750993 -0.370173 1.13671e-19)
(0.780042 -0.33002 1.06084e-19)
(0.805964 -0.295381 -4.99223e-19)
(0.829125 -0.265296 -1.54751e-19)
(0.84982 -0.239027 1.16951e-19)
(0.868501 -0.21592 -5.94738e-20)
(0.885954 -0.195161 7.28243e-20)
(0.901968 -0.176265 -7.44548e-20)
(0.913266 -0.160671 -3.36339e-20)
(0.265108 -0.359242 1.06213e-20)
(0.501365 -0.606468 1.91086e-19)
(0.618254 -0.616054 1.85168e-19)
(0.673469 -0.557195 7.34212e-20)
(0.712386 -0.491422 1.49069e-19)
(0.745286 -0.434424 -1.5558e-19)
(0.774626 -0.385934 -7.92886e-20)
(0.800821 -0.344405 9.33031e-20)
(0.824336 -0.308538 1.83917e-20)
(0.845458 -0.277351 7.94894e-20)
(0.864395 -0.250095 -1.72223e-20)
(0.881532 -0.226109 -2.126e-20)
(0.897715 -0.204535 -1.99226e-20)
(0.912839 -0.184803 -4.19514e-20)
(0.923207 -0.168561 1.13061e-19)
(0.286932 -0.362772 5.5088e-20)
(0.540152 -0.61978 -7.40845e-20)
(0.658597 -0.633604 -8.84561e-20)
(0.710118 -0.575128 -2.09221e-20)
(0.744363 -0.508154 -7.71988e-20)
(0.773113 -0.449766 1.16279e-19)
(0.798972 -0.400007 -1.28156e-19)
(0.822251 -0.357338 -3.16459e-20)
(0.843303 -0.320442 1.48371e-19)
(0.86234 -0.28832 -3.25241e-21)
(0.879479 -0.26022 1.23927e-19)
(0.89501 -0.235493 -1.08849e-19)
(0.909845 -0.213258 -1.53358e-20)
(0.924095 -0.192841 -2.0676e-20)
(0.933649 -0.175994 -1.14073e-19)
(0.307949 -0.363401 -4.88193e-20)
(0.578697 -0.629034 -1.25223e-21)
(0.699289 -0.647611 2.21427e-20)
(0.747379 -0.590198 4.14556e-20)
(0.776992 -0.52252 1.78412e-19)
(0.801556 -0.463104 4.78702e-20)
(0.823891 -0.412365 -1.2658e-19)
(0.844213 -0.368795 6.94659e-20)
(0.862765 -0.331068 3.16124e-19)
(0.879686 -0.298175 -1.13261e-19)
(0.895008 -0.26936 -2.88868e-20)
(0.908896 -0.243978 7.20524e-20)
(0.922288 -0.221127 -3.65185e-20)
(0.935669 -0.200031 3.64264e-20)
(0.944653 -0.182649 -4.42011e-20)
(0.327845 -0.361169 4.51987e-20)
(0.616579 -0.634205 -5.14084e-20)
(0.73998 -0.658035 -5.87579e-20)
(0.784989 -0.602379 -7.465e-20)
(0.810071 -0.534499 -1.33661e-19)
(0.830448 -0.47442 -1.48695e-19)
(0.849241 -0.422991 1.57566e-19)
(0.866588 -0.378759 -2.35239e-19)
(0.882618 -0.340401 -1.91545e-19)
(0.897401 -0.306908 1.63953e-19)
(0.910899 -0.277526 -1.25033e-19)
(0.923116 -0.251645 3.2706e-20)
(0.934897 -0.228425 5.96945e-20)
(0.947253 -0.207113 7.62943e-20)
(0.95616 -0.189747 3.76769e-20)
(0.346307 -0.356151 -1.44542e-20)
(0.653379 -0.63531 3.80267e-20)
(0.780314 -0.664865 9.94113e-21)
(0.822685 -0.611664 6.45289e-21)
(0.843395 -0.544088 3.1895e-20)
(0.859622 -0.483712 3.83596e-21)
(0.874883 -0.431882 -1.13544e-19)
(0.889257 -0.387225 9.66491e-20)
(0.902762 -0.348436 -8.60859e-20)
(0.915397 -0.314506 -1.24931e-19)
(0.927083 -0.284681 7.97778e-20)
(0.937679 -0.258354 -6.02273e-20)
(0.947783 -0.234651 2.28453e-20)
(0.95888 -0.212683 -5.63608e-20)
(0.968745 -0.194581 -2.69065e-20)
(0.363025 -0.348454 -1.08453e-19)
(0.688672 -0.6324 4.95897e-20)
(0.819929 -0.668113 2.01927e-20)
(0.860197 -0.618066 3.70033e-20)
(0.876762 -0.551302 4.37257e-20)
(0.888913 -0.490993 -2.0363e-20)
(0.900676 -0.439046 7.76257e-20)
(0.912103 -0.3942 -6.07105e-20)
(0.923097 -0.355173 3.74972e-20)
(0.933588 -0.320972 1.0586e-19)
(0.943473 -0.290843 6.12908e-20)
(0.95253 -0.264187 -9.08974e-20)
(0.960969 -0.240298 4.10262e-20)
(0.969975 -0.219041 2.26781e-20)
(0.980237 -0.202582 3.94536e-20)
(0.377689 -0.338215 2.75452e-19)
(0.722038 -0.625561 -2.63168e-19)
(0.858464 -0.667821 -2.60988e-20)
(0.897259 -0.621624 1.49037e-20)
(0.909969 -0.556169 -1.61503e-20)
(0.918158 -0.496288 5.61917e-20)
(0.926485 -0.444505 -3.48e-20)
(0.935009 -0.399698 -7.68033e-21)
(0.943528 -0.360626 1.29529e-19)
(0.951891 -0.326318 -1.23798e-19)
(0.959979 -0.296022 -3.9383e-20)
(0.967547 -0.269152 9.67639e-20)
(0.974464 -0.245165 -5.23219e-20)
(0.981377 -0.224174 -3.63688e-20)
(0.990326 -0.20628 -1.00706e-20)
(0.389977 -0.325596 -2.13461e-19)
(0.753046 -0.614914 3.18114e-19)
(0.895563 -0.66406 1.20334e-20)
(0.933608 -0.622391 -2.85939e-20)
(0.942819 -0.558733 4.01083e-21)
(0.947198 -0.499637 1.16791e-20)
(0.952176 -0.448293 -4.32325e-21)
(0.957861 -0.403746 4.04688e-20)
(0.963958 -0.364814 -1.02128e-19)
(0.97023 -0.330555 4.82043e-20)
(0.976529 -0.300222 -1.82071e-20)
(0.982634 -0.273219 2.69992e-20)
(0.988218 -0.249112 4.34777e-21)
(0.993361 -0.22817 -1.02523e-21)
(1.00046 -0.209421 -9.03427e-21)
(0.399693 -0.31088 5.95309e-20)
(0.781228 -0.600615 -2.36113e-19)
(0.930897 -0.656942 -1.57482e-19)
(0.968985 -0.620435 1.35821e-20)
(0.975115 -0.559046 -2.53523e-20)
(0.975878 -0.501094 -1.44584e-20)
(0.97762 -0.450453 -5.96889e-21)
(0.980551 -0.40638 -3.59761e-20)
(0.984293 -0.367766 -2.79245e-21)
(0.988531 -0.333704 3.08193e-20)
(0.993072 -0.303459 1.17651e-20)
(0.997735 -0.276419 -3.3528e-21)
(1.00213 -0.252245 -3.7964e-20)
(1.00593 -0.231397 1.23314e-20)
(1.01127 -0.212266 8.26902e-21)
(0.406692 -0.294272 -3.35914e-20)
(0.805859 -0.582664 3.71286e-19)
(0.964206 -0.646699 1.02665e-19)
(1.00313 -0.615826 2.07084e-20)
(1.00666 -0.557174 4.20895e-20)
(1.00405 -0.500726 2.71208e-20)
(1.00269 -0.45104 4.04874e-21)
(1.00297 -0.407646 1.5715e-20)
(1.00444 -0.369519 2.83947e-20)
(1.00672 -0.335797 -5.09556e-20)
(1.00956 -0.305767 4.26215e-21)
(1.01281 -0.278808 4.13954e-21)
(1.01609 -0.254661 4.3958e-20)
(1.0188 -0.233947 6.45693e-21)
(1.02269 -0.214611 -4.76463e-20)
(0.410897 -0.275949 -7.56927e-20)
(0.826681 -0.56151 -5.33035e-19)
(0.995078 -0.633562 -2.90355e-20)
(1.0358 -0.608527 -6.30701e-20)
(1.03728 -0.553193 -1.19099e-19)
(1.03157 -0.498612 3.20139e-20)
(1.02728 -0.450121 -3.71724e-20)
(1.02503 -0.407598 4.71135e-23)
(1.02433 -0.370121 2.69176e-21)
(1.02473 -0.336875 1.26337e-20)
(1.02594 -0.307182 -7.85638e-21)
(1.02781 -0.280425 7.51987e-21)
(1.03 -0.256393 -1.32727e-20)
(1.03172 -0.235824 -2.1552e-20)
(1.03434 -0.216438 5.25128e-21)
(0.412166 -0.256256 -9.35965e-21)
(0.843667 -0.537611 7.50271e-20)
(1.02281 -0.617428 8.69722e-20)
(1.06668 -0.598647 -1.15669e-20)
(1.06675 -0.54722 -2.63138e-21)
(1.0583 -0.49484 -1.01634e-19)
(1.05127 -0.447768 9.68198e-21)
(1.04662 -0.406299 -6.45711e-21)
(1.04386 -0.369624 6.47967e-21)
(1.04247 -0.336984 -2.02441e-21)
(1.04213 -0.307743 4.67857e-21)
(1.04269 -0.281297 -2.31796e-21)
(1.04381 -0.257459 1.01232e-21)
(1.04458 -0.237049 6.91984e-21)
(1.04599 -0.217765 -2.43417e-21)
(0.41036 -0.235543 1.95418e-19)
(0.856526 -0.511158 3.25883e-19)
(1.04705 -0.59842 5.15267e-20)
(1.09545 -0.586395 -1.04039e-19)
(1.0949 -0.539362 1.56682e-19)
(1.0841 -0.489503 8.31665e-20)
(1.07456 -0.444063 -3.03693e-20)
(1.06766 -0.403819 -4.57458e-21)
(1.06296 -0.368086 -6.69961e-21)
(1.0599 -0.336171 1.34332e-21)
(1.05809 -0.307489 -2.10965e-21)
(1.05738 -0.281456 2.44456e-23)
(1.05747 -0.257885 4.79539e-21)
(1.05733 -0.237658 -5.50521e-21)
(1.05757 -0.218601 9.97562e-21)
(0.405407 -0.214139 -2.24401e-19)
(0.864864 -0.482361 -1.02904e-19)
(1.06759 -0.5768 -2.52697e-19)
(1.12182 -0.571937 2.97349e-19)
(1.12152 -0.529737 -2.21941e-19)
(1.10886 -0.482712 8.04053e-20)
(1.09705 -0.439098 2.91387e-20)
(1.08808 -0.400235 2.6102e-20)
(1.08157 -0.365573 1.96366e-20)
(1.07693 -0.334491 -4.32456e-21)
(1.07376 -0.306464 -9.74349e-21)
(1.07185 -0.280936 -1.78297e-20)
(1.07094 -0.257706 1.84925e-21)
(1.06994 -0.23769 3.15604e-21)
(1.06909 -0.218966 -4.17044e-25)
(0.397315 -0.192367 -2.13489e-19)
(0.868347 -0.45152 9.73839e-20)
(1.08416 -0.552812 7.38594e-20)
(1.14553 -0.555427 -1.58794e-19)
(1.14649 -0.518493 3.63848e-20)
(1.13241 -0.474553 -1.88952e-20)
(1.11865 -0.432967 -4.40215e-20)
(1.10779 -0.395631 -4.25573e-20)
(1.09961 -0.36215 2.21445e-20)
(1.09352 -0.332002 3.30072e-20)
(1.08907 -0.304716 3.67152e-20)
(1.08604 -0.279777 4.49461e-21)
(1.08418 -0.256956 -5.30526e-21)
(1.08238 -0.237184 -3.46251e-21)
(1.08052 -0.218882 2.55217e-21)
(0.386164 -0.170555 2.07217e-19)
(0.866718 -0.418988 -9.70497e-20)
(1.0964 -0.526691 5.02565e-20)
(1.16629 -0.537046 2.33076e-19)
(1.16964 -0.505728 1.89487e-19)
(1.15469 -0.465141 -1.40793e-19)
(1.13924 -0.425791 5.75533e-20)
(1.12674 -0.390094 5.73611e-20)
(1.11704 -0.357893 -8.38545e-20)
(1.10961 -0.328763 2.31589e-20)
(1.10399 -0.302296 -2.42527e-20)
(1.09991 -0.27802 1.49982e-21)
(1.09715 -0.255674 -1.53347e-20)
(1.09459 -0.236173 1.59594e-20)
(1.09181 -0.218365 -1.55037e-20)
(0.372097 -0.14903 -1.91511e-19)
(0.859783 -0.385144 1.22887e-19)
(1.10399 -0.49868 1.51936e-19)
(1.18381 -0.516941 -3.3886e-20)
(1.19068 -0.491565 -2.56405e-19)
(1.17566 -0.454613 -8.69524e-20)
(1.15883 -0.417667 -1.12704e-19)
(1.14484 -0.383721 4.49611e-20)
(1.1338 -0.35287 -1.05565e-20)
(1.12517 -0.324841 -4.81094e-20)
(1.11846 -0.299257 -4.14307e-20)
(1.11341 -0.275707 4.60165e-21)
(1.10981 -0.253895 5.0252e-21)
(1.10658 -0.234689 -2.24207e-20)
(1.10294 -0.217426 5.95436e-21)
(0.355316 -0.128106 8.26014e-20)
(0.847403 -0.350386 8.67834e-22)
(1.10659 -0.469039 -4.60144e-19)
(1.19778 -0.495267 -2.67298e-20)
(1.20942 -0.476142 1.99221e-19)
(1.19513 -0.443094 1.76859e-19)
(1.17739 -0.408696 1.01505e-19)
(1.16208 -0.376585 -7.7602e-21)
(1.14984 -0.34718 2.43198e-20)
(1.14013 -0.320301 -2.08637e-21)
(1.13248 -0.295651 4.10489e-20)
(1.12653 -0.272883 1.38462e-20)
(1.12214 -0.251663 2.38915e-20)
(1.11829 -0.232767 -2.4614e-20)
(1.11389 -0.216077 -1.96884e-20)
(0.336087 -0.108082 -1.39703e-20)
(0.829506 -0.315131 1.47144e-19)
(1.1039 -0.438045 2.47845e-19)
(1.20792 -0.47219 7.4045e-20)
(1.22569 -0.459587 -1.86131e-19)
(1.21297 -0.430697 -2.07418e-19)
(1.19478 -0.398979 7.99516e-20)
(1.17846 -0.368789 -3.67791e-20)
(1.16517 -0.340887 1.18345e-19)
(1.1545 -0.315213 7.75705e-22)
(1.14598 -0.291537 -2.18614e-20)
(1.13922 -0.269588 -1.01599e-20)
(1.13411 -0.249019 4.06455e-20)
(1.12973 -0.230441 3.24184e-20)
(1.12466 -0.214342 3.17938e-20)
(0.31473 -0.0892309 2.1017e-19)
(0.8061 -0.279814 -2.23632e-19)
(1.09563 -0.405986 1.29809e-19)
(1.21388 -0.44788 1.64987e-19)
(1.23927 -0.442013 1.28306e-19)
(1.22907 -0.417528 4.43091e-20)
(1.21094 -0.388629 2.87391e-20)
(1.19391 -0.360429 -3.72819e-21)
(1.17976 -0.334072 -5.44916e-20)
(1.16826 -0.309637 2.33366e-20)
(1.15896 -0.28696 5.39553e-20)
(1.15149 -0.265876 1.84709e-20)
(1.14568 -0.246013 -1.81986e-20)
(1.14085 -0.22776 -1.6786e-20)
(1.13524 -0.212247 -1.96563e-20)
(0.291619 -0.0717944 -1.13659e-19)
(0.77728 -0.244883 8.08896e-20)
(1.08154 -0.373165 -7.20247e-21)
(1.21535 -0.422508 -1.76129e-19)
(1.2499 -0.423529 -3.8918e-20)
(1.2433 -0.403684 9.08027e-20)
(1.22583 -0.377746 -7.24327e-20)
(1.20839 -0.351597 8.52148e-21)
(1.19356 -0.326813 -4.84588e-21)
(1.18137 -0.303639 -1.87572e-20)
(1.17141 -0.28199 -3.17537e-20)
(1.16333 -0.261782 -4.99966e-20)
(1.15687 -0.242665 -2.34253e-20)
(1.15157 -0.224764 3.34593e-20)
(1.14574 -0.209859 8.20839e-21)
(0.267166 -0.055976 -1.41156e-19)
(0.743245 -0.210794 -1.76025e-20)
(1.06141 -0.339893 -8.54795e-20)
(1.21195 -0.396241 7.45347e-20)
(1.2573 -0.404238 -8.24514e-20)
(1.25552 -0.389255 -3.34563e-20)
(1.23938 -0.36642 9.21573e-21)
(1.22187 -0.34238 -1.03719e-20)
(1.20656 -0.319189 2.6708e-20)
(1.19381 -0.297288 1.21003e-21)
(1.18332 -0.276683 1.89894e-20)
(1.1747 -0.25735 2.71646e-20)
(1.16769 -0.238996 2.98755e-20)
(1.16192 -0.221593 -1.17454e-20)
(1.15606 -0.207216 -1.0466e-20)
(0.241815 -0.041934 8.19633e-20)
(0.704316 -0.178008 8.65076e-20)
(1.03507 -0.306488 2.88292e-20)
(1.20332 -0.369251 -4.46437e-20)
(1.26115 -0.384231 8.98522e-21)
(1.26553 -0.374316 6.53264e-20)
(1.25152 -0.354733 -4.3799e-20)
(1.23435 -0.33286 -3.71348e-20)
(1.21876 -0.311274 -8.75043e-21)
(1.2056 -0.290651 8.02128e-21)
(1.19465 -0.271092 -3.91799e-20)
(1.1856 -0.252633 1.00168e-20)
(1.17812 -0.235053 2.43999e-20)
(1.17192 -0.218238 -7.27173e-21)
(1.16589 -0.204307 -8.71693e-21)
(0.216024 -0.029778 -5.37462e-20)
(0.660955 -0.146979 -3.66361e-20)
(1.00241 -0.27328 -6.93799e-20)
(1.18908 -0.341708 -1.1053e-20)
(1.26108 -0.363592 -7.49796e-21)
(1.27311 -0.358927 -7.23602e-20)
(1.26215 -0.342751 2.22983e-20)
(1.24578 -0.32311 1.23637e-20)
(1.23017 -0.303139 -2.18664e-20)
(1.21672 -0.283789 -1.33647e-20)
(1.20543 -0.265271 -1.40417e-21)
(1.19601 -0.247679 -1.27405e-20)
(1.18816 -0.230871 -2.10055e-20)
(1.18157 -0.21465 -1.98077e-20)
(1.17525 -0.201139 1.41415e-20)
(0.190251 -0.0195649 -2.38362e-20)
(0.613763 -0.118138 8.6651e-21)
(0.963435 -0.240604 1.17205e-20)
(1.16885 -0.31379 1.19992e-20)
(1.25667 -0.342395 2.02969e-20)
(1.27796 -0.34313 1.4302e-20)
(1.27112 -0.330527 -4.07366e-21)
(1.25613 -0.313195 1.39863e-20)
(1.24077 -0.29485 -5.30045e-22)
(1.22719 -0.27676 -6.87984e-23)
(1.21566 -0.259271 5.96792e-21)
(1.20595 -0.242533 -2.78568e-21)
(1.19778 -0.22648 1.98006e-21)
(1.19086 -0.210829 8.28477e-21)
(1.18426 -0.197728 -7.16566e-21)
(0.164936 -0.0112944 -1.43002e-20)
(0.563478 -0.0918754 -3.83352e-21)
(0.918219 -0.2088 1.69902e-20)
(1.14227 -0.285685 7.65539e-21)
(1.24745 -0.320706 2.19842e-20)
(1.27975 -0.326951 1.52949e-20)
(1.27827 -0.318095 -6.15532e-22)
(1.26533 -0.303166 1.92838e-20)
(1.25055 -0.286466 -9.72888e-21)
(1.23702 -0.269621 1.02776e-21)
(1.22534 -0.25314 6.91615e-21)
(1.21543 -0.237236 -3.36648e-21)
(1.20701 -0.221919 3.24171e-21)
(1.19982 -0.206814 1.23691e-20)
(1.19303 -0.194094 -4.87977e-21)
(0.140488 -0.00490775 -1.94308e-20)
(0.510957 -0.0685326 -5.79786e-20)
(0.867011 -0.178222 -6.7487e-20)
(1.109 -0.25759 -2.50392e-21)
(1.2329 -0.298587 -1.01485e-20)
(1.27804 -0.310394 -7.86578e-20)
(1.28334 -0.305468 4.08655e-20)
(1.27328 -0.29306 6.49422e-21)
(1.25949 -0.278035 -2.89906e-20)
(1.2462 -0.262423 -2.61508e-20)
(1.2345 -0.246925 4.6853e-21)
(1.22446 -0.231828 -1.72144e-20)
(1.21585 -0.217228 -1.88221e-20)
(1.20846 -0.202659 -2.57151e-20)
(1.20157 -0.190264 1.68718e-20)
(0.117264 -0.000290232 7.53242e-20)
(0.457157 -0.0483781 5.54623e-20)
(0.810236 -0.149231 2.41102e-20)
(1.06877 -0.229716 -3.7228e-20)
(1.21247 -0.276097 1.84102e-20)
(1.27232 -0.293448 4.13605e-20)
(1.286 -0.292634 -3.55988e-20)
(1.27984 -0.282891 -7.34302e-20)
(1.26756 -0.269595 -1.11084e-20)
(1.25475 -0.25521 4.50121e-20)
(1.24314 -0.240669 -5.99269e-20)
(1.23305 -0.22635 2.42533e-20)
(1.22432 -0.212446 1.11342e-20)
(1.21679 -0.198415 -1.18309e-21)
(1.20988 -0.186272 2.4473e-21)
(0.0955621 0.00272045 -8.80025e-20)
(0.403095 -0.0315902 -5.68604e-20)
(0.748534 -0.122201 -9.48122e-20)
(1.02142 -0.202295 8.96125e-20)
(1.18555 -0.253301 -1.0386e-19)
(1.26197 -0.276087 -2.82252e-20)
(1.28584 -0.279557 -3.29126e-21)
(1.28478 -0.272653 -1.7388e-21)
(1.27466 -0.261167 6.09633e-20)
(1.26264 -0.248017 -7.41441e-20)
(1.25128 -0.234412 5.70558e-20)
(1.24122 -0.220839 2.84183e-20)
(1.23244 -0.207605 7.48903e-20)
(1.2248 -0.194125 -8.03687e-21)
(1.21793 -0.182155 -2.44451e-20)
(0.0756108 0.00432167 1.45457e-20)
(0.349808 -0.0182362 1.60798e-20)
(0.682786 -0.0975089 -3.44563e-20)
(0.96693 -0.175581 -1.40798e-19)
(1.15154 -0.230279 -4.04846e-20)
(1.24626 -0.258274 1.11683e-19)
(1.28228 -0.266175 -9.57021e-20)
(1.28778 -0.262312 -5.35248e-20)
(1.28067 -0.252755 1.60391e-20)
(1.26985 -0.24087 -2.41867e-20)
(1.25892 -0.228187 -1.1477e-19)
(1.24898 -0.215329 -5.82364e-20)
(1.24021 -0.202729 3.29033e-21)
(1.23251 -0.189819 1.56237e-20)
(1.22571 -0.177942 1.3739e-20)
(0.0575639 0.00473078 1.65288e-19)
(0.298288 -0.00825668 -2.12363e-19)
(0.614124 -0.0755233 1.55232e-19)
(0.9055 -0.149864 8.54618e-20)
(1.10988 -0.207132 2.84887e-19)
(1.22439 -0.239973 1.58115e-20)
(1.27464 -0.252404 8.1056e-20)
(1.28842 -0.251806 2.27385e-20)
(1.28537 -0.244336 -1.9137e-19)
(1.2763 -0.233778 6.73918e-20)
(1.26605 -0.222018 4.74894e-20)
(1.25636 -0.20985 9.36423e-20)
(1.24766 -0.197842 -9.71694e-20)
(1.23992 -0.185519 -3.30827e-20)
(1.23322 -0.173662 -7.76995e-21)
(0.0415054 0.00417026 -2.20046e-20)
(0.249426 -0.00146138 2.49266e-19)
(0.543904 -0.0565826 2.13853e-19)
(0.837614 -0.125478 4.55665e-20)
(1.06013 -0.184004 -2.81637e-19)
(1.19548 -0.221158 -1.93261e-19)
(1.26208 -0.238141 7.2759e-20)
(1.28609 -0.24104 -5.47847e-20)
(1.28845 -0.235862 1.07524e-19)
(1.28186 -0.226733 2.95111e-20)
(1.27264 -0.215919 2.35191e-20)
(1.26334 -0.204426 -5.54794e-20)
(1.25479 -0.192962 3.08954e-20)
(1.24706 -0.181247 1.3621e-19)
(1.24047 -0.16934 1.60136e-19)
(0.0274559 0.0028554 1.85105e-19)
(0.203959 0.00245788 -2.06193e-19)
(0.473648 -0.0409568 -3.53245e-19)
(0.76412 -0.102807 3.69499e-20)
(1.002 -0.161092 2.49623e-19)
(1.15862 -0.201826 2.70888e-19)
(1.24357 -0.223274 1.68124e-19)
(1.28002 -0.229888 -1.98582e-21)
(1.28943 -0.227249 4.29896e-20)
(1.28631 -0.219701 1.63114e-20)
(1.27861 -0.20989 1.15186e-19)
(1.26992 -0.199076 3.24595e-20)
(1.26162 -0.188107 2.45959e-20)
(1.25394 -0.177018 -3.50317e-20)
(1.24749 -0.165 -4.70452e-20)
(0.0153813 0.000985517 -2.39234e-19)
(0.162433 0.00389625 1.90789e-19)
(0.404937 -0.0288006 1.87805e-19)
(0.686282 -0.0822788 -1.54298e-19)
(0.935537 -0.138668 -3.84442e-19)
(1.11293 -0.182023 -8.25535e-20)
(1.21797 -0.207695 -2.35377e-19)
(1.26921 -0.218199 9.24451e-20)
(1.28766 -0.218378 -1.54789e-20)
(1.2893 -0.212618 -1.2425e-19)
(1.28381 -0.203907 -5.10333e-20)
(1.27606 -0.193806 2.32535e-21)
(1.26815 -0.183288 -3.77419e-20)
(1.26058 -0.172844 -3.79936e-20)
(1.25429 -0.160665 3.76311e-21)
(0.00520231 -0.00126147 3.50433e-19)
(0.125188 0.00329421 -2.32412e-19)
(0.339279 -0.0201068 1.49987e-19)
(0.605791 -0.0643493 1.70008e-19)
(0.861214 -0.117097 3.32023e-19)
(1.05771 -0.161864 -2.66102e-19)
(1.18403 -0.191319 1.17689e-19)
(1.25243 -0.205802 1.38989e-19)
(1.28223 -0.209091 -1.45131e-19)
(1.29029 -0.205383 -6.16182e-20)
(1.288 -0.197925 -1.75825e-20)
(1.28166 -0.188608 -2.43535e-20)
(1.27436 -0.178512 -1.16497e-19)
(1.26698 -0.168733 9.39573e-20)
(1.26088 -0.15635 -1.78815e-19)
(-0.00318425 -0.00372659 -1.92692e-19)
(0.0923752 0.00109682 9.49485e-21)
(0.27797 -0.0146834 1.0595e-19)
(0.524682 -0.0494428 -2.6592e-19)
(0.780068 -0.0968495 1.385e-19)
(0.992582 -0.141568 -1.02097e-21)
(1.14048 -0.174114 -1.58874e-19)
(1.22824 -0.192525 -7.12732e-20)
(1.27195 -0.199192 1.14541e-20)
(1.28851 -0.197852 1.5681e-19)
(1.29074 -0.19186 1.97238e-19)
(1.28655 -0.183452 1.75141e-19)
(1.28018 -0.173774 3.14693e-20)
(1.27315 -0.164685 -1.95262e-19)
(1.2673 -0.152073 -2.41824e-20)
(-0.00991646 -0.00627274 4.04194e-20)
(0.0639736 -0.00227241 -2.32686e-19)
(0.221991 -0.0121715 -3.5607e-19)
(0.445168 -0.0378738 3.47214e-19)
(0.693798 -0.078491 -2.57578e-19)
(0.917664 -0.121489 1.41375e-19)
(1.08622 -0.156137 1.57998e-19)
(1.19503 -0.178218 1.15626e-19)
(1.25533 -0.188461 1.10046e-19)
(1.28286 -0.189833 3.24067e-20)
(1.2914 -0.185586 -1.31821e-19)
(1.2904 -0.178278 -1.65108e-19)
(1.28551 -0.169054 4.09311e-20)
(1.27904 -0.160692 4.80235e-20)
(1.27354 -0.147836 1.99442e-19)
(-0.0151564 -0.00879317 1.66785e-19)
(0.0398319 -0.00644135 4.62837e-19)
(0.171959 -0.0121031 -1.13223e-19)
(0.369383 -0.0297606 -2.22852e-19)
(0.604748 -0.0626332 5.14535e-19)
(0.833832 -0.102143 2.10946e-19)
(1.02048 -0.137578 4.87431e-20)
(1.15112 -0.162795 -7.53898e-20)
(1.23055 -0.176668 2.84069e-20)
(1.27188 -0.181087 -2.10798e-19)
(1.289 -0.178924 9.86468e-20)
(1.29268 -0.172983 2.82401e-20)
(1.29007 -0.164306 -1.65721e-19)
(1.28458 -0.156734 -5.47065e-20)
(1.27955 -0.143638 -1.4732e-19)
(-0.0190683 -0.0112003 -7.16343e-20)
(0.0197012 -0.0110929 2.1778e-19)
(0.128144 -0.0139725 2.09223e-19)
(0.299134 -0.024979 -9.1056e-20)
(0.515731 -0.049833 -3.62081e-20)
(0.742876 -0.0842054 -2.4564e-19)
(0.943178 -0.118816 1.17033e-19)
(1.09503 -0.146284 -1.29538e-19)
(1.19557 -0.163616 -6.59808e-20)
(1.25368 -0.171346 1.80403e-19)
(1.28215 -0.171637 -1.73603e-19)
(1.29253 -0.167409 8.79657e-20)
(1.29345 -0.159451 2.00288e-19)
(1.28952 -0.15276 -2.34518e-19)
(1.28538 -0.139465 1.64496e-19)
(-0.0218235 -0.0134311 -1.69191e-19)
(0.00326415 -0.0159685 -7.05129e-19)
(0.0905184 -0.0172964 3.13338e-20)
(0.235721 -0.0231844 -1.75949e-19)
(0.429678 -0.0404607 -5.16263e-19)
(0.647543 -0.0684533 1.70959e-19)
(0.855214 -0.100456 -3.25163e-19)
(1.02572 -0.128897 1.44252e-19)
(1.14829 -0.149187 1.40604e-19)
(1.22596 -0.160332 -2.10757e-19)
(1.26895 -0.163433 8.74268e-20)
(1.28865 -0.161331 3.26033e-20)
(1.29489 -0.154352 5.80674e-21)
(1.29361 -0.14871 6.39559e-20)
(1.29063 -0.135243 -4.91767e-20)
(-0.0235944 -0.0154468 1.05686e-20)
(-0.0098393 -0.020868 4.02013e-19)
(0.0588354 -0.0216492 2.56499e-19)
(0.179881 -0.0238927 2.12399e-19)
(0.349221 -0.0345971 2.13875e-19)
(0.551313 -0.0556284 2.60724e-19)
(0.758754 -0.0833206 1.95162e-19)
(0.943131 -0.111107 -2.63462e-19)
(1.08688 -0.133431 -3.66954e-19)
(1.18616 -0.147819 3.49781e-19)
(1.24694 -0.153983 4.44212e-20)
(1.27918 -0.154462 -3.25423e-20)
(1.2932 -0.148804 -2.32285e-19)
(1.29602 -0.144445 -6.8787e-20)
(1.29548 -0.130957 1.90236e-19)
(-0.0245484 -0.017231 1.29791e-19)
(-0.0199916 -0.0256446 -5.60825e-19)
(0.0326918 -0.0266748 -4.92735e-20)
(0.131841 -0.0265733 -1.96481e-19)
(0.276352 -0.0320181 -1.44997e-19)
(0.457911 -0.0462571 -9.86543e-21)
(0.657244 -0.068357 -8.17727e-20)
(0.848591 -0.0936851 2.81941e-19)
(1.01032 -0.116667 2.173e-19)
(1.13173 -0.133714 -2.4383e-19)
(1.21318 -0.142982 1.39718e-19)
(1.26149 -0.146429 -1.88813e-19)
(1.28655 -0.142553 1.82103e-19)
(1.29585 -0.139785 -4.32286e-20)
(1.29838 -0.126303 -1.88379e-19)
(-0.0248437 -0.0187861 -4.65848e-19)
(-0.0275806 -0.0301983 7.76307e-19)
(0.0115838 -0.0320847 8.92383e-21)
(0.0914155 -0.0307166 -2.16209e-19)
(0.212269 -0.0322694 2.86611e-19)
(0.370693 -0.040509 -8.42238e-20)
(0.555032 -0.0564308 -2.32942e-19)
(0.745135 -0.0776586 -2.62863e-19)
(0.919007 -0.099571 4.99341e-19)
(1.06077 -0.118191 -1.32375e-19)
(1.1645 -0.130206 -4.46517e-20)
(1.23241 -0.13691 2.46235e-19)
(1.27212 -0.135129 -1.81944e-19)
(1.29125 -0.134621 6.52077e-20)
(1.29967 -0.121173 -8.11329e-20)
(-0.0246258 -0.0201298 6.5807e-19)
(-0.0329866 -0.0344651 -7.22894e-19)
(-0.00504993 -0.0376471 -3.00269e-19)
(0.058131 -0.0358663 1.18536e-19)
(0.157404 -0.0347782 -4.93165e-20)
(0.292152 -0.0381715 -1.78874e-19)
(0.456623 -0.0480956 2.33216e-19)
(0.637328 -0.0641156 -1.72618e-19)
(0.815392 -0.0831833 -2.86514e-19)
(0.972777 -0.101809 3.50892e-19)
(1.09819 -0.115729 -1.20299e-19)
(1.18803 -0.125503 6.7045e-20)
(1.24679 -0.126402 1.50012e-20)
(1.27881 -0.128131 1.73726e-19)
(1.29614 -0.115526 9.1427e-20)
(-0.0240249 -0.0212906 -2.71739e-19)
(-0.0365698 -0.0384074 1.06076e-19)