/*--------------------------------*- C++ -*----------------------------------*\
  =========                 |
  \\      /  F ield         | OpenFOAM: The Open Source CFD Toolbox
   \\    /   O peration     | Website:  https://openfoam.org
    \\  /    A nd           | Version:  7
     \\/     M anipulation  |
\*---------------------------------------------------------------------------*/
FoamFile
{
    version     2.0;
    format      ascii;
    class       volScalarField;
    location    "25";
    object      p;
}
// * * * * * * * * * * * * * * * * * * * * * * * * * * * * * * * * * * * * * //

dimensions      [0 2 -2 0 0 0 0];

internalField   nonuniform List<scalar> 
49200
(
-0.231499
-0.233411
-0.234293
-0.23505
-0.235686
-0.236248
-0.236775
-0.237282
-0.237776
-0.238254
-0.238711
-0.23914
-0.239531
-0.239875
-0.240163
-0.240386
-0.240537
-0.24061
-0.2406
-0.240507
-0.240335
-0.240095
-0.2398
-0.239464
-0.239133
-0.231609
-0.233506
-0.234382
-0.235134
-0.235766
-0.236324
-0.236848
-0.237353
-0.237844
-0.238321
-0.238777
-0.239204
-0.239595
-0.239938
-0.240225
-0.240448
-0.240598
-0.240669
-0.240657
-0.24056
-0.240383
-0.240136
-0.239832
-0.239482
-0.23914
-0.231826
-0.233696
-0.234559
-0.2353
-0.235924
-0.236475
-0.236993
-0.237493
-0.23798
-0.238453
-0.238906
-0.239332
-0.23972
-0.240062
-0.240348
-0.24057
-0.240718
-0.240786
-0.240769
-0.240664
-0.240476
-0.240213
-0.239892
-0.239513
-0.239148
-0.23215
-0.233976
-0.234821
-0.235547
-0.236158
-0.236699
-0.237207
-0.2377
-0.23818
-0.238648
-0.239097
-0.239518
-0.239904
-0.240244
-0.240528
-0.240747
-0.240893
-0.240956
-0.240932
-0.240816
-0.24061
-0.240326
-0.239978
-0.239557
-0.239154
-0.232574
-0.234346
-0.235167
-0.235871
-0.236465
-0.236992
-0.237488
-0.23797
-0.238441
-0.238901
-0.239344
-0.23976
-0.240142
-0.240478
-0.24076
-0.240976
-0.241118
-0.241176
-0.241142
-0.241012
-0.240784
-0.24047
-0.240087
-0.239609
-0.23915
-0.233095
-0.2348
-0.235591
-0.23627
-0.236842
-0.23735
-0.237831
-0.238299
-0.238759
-0.239209
-0.239642
-0.240052
-0.240428
-0.24076
-0.241038
-0.24125
-0.241388
-0.241439
-0.241394
-0.241247
-0.240992
-0.240642
-0.240215
-0.239665
-0.239127
-0.233707
-0.235334
-0.23609
-0.236738
-0.237284
-0.237769
-0.23823
-0.238681
-0.239126
-0.239563
-0.239986
-0.240387
-0.240755
-0.241081
-0.241354
-0.241562
-0.241694
-0.241737
-0.24168
-0.241513
-0.241229
-0.240835
-0.240356
-0.239722
-0.239072
-0.234403
-0.235943
-0.236658
-0.23727
-0.237785
-0.238244
-0.238681
-0.239111
-0.239538
-0.239959
-0.240368
-0.240757
-0.241115
-0.241433
-0.241699
-0.241902
-0.242027
-0.242062
-0.241992
-0.241804
-0.241487
-0.241045
-0.240504
-0.239778
-0.238969
-0.235176
-0.23662
-0.23729
-0.237861
-0.238341
-0.238768
-0.239177
-0.239582
-0.239986
-0.240387
-0.240779
-0.241153
-0.2415
-0.241807
-0.242065
-0.242259
-0.242377
-0.242402
-0.242319
-0.24211
-0.241758
-0.241263
-0.240654
-0.239832
-0.238795
-0.236018
-0.23736
-0.23798
-0.238506
-0.238945
-0.239336
-0.239711
-0.240086
-0.240463
-0.24084
-0.241211
-0.241567
-0.241898
-0.242193
-0.242439
-0.242624
-0.242732
-0.242747
-0.24265
-0.242419
-0.242034
-0.241481
-0.240801
-0.239901
-0.238491
-0.236921
-0.238156
-0.238723
-0.239199
-0.239592
-0.23994
-0.240277
-0.240616
-0.24096
-0.241309
-0.241654
-0.241988
-0.2423
-0.242578
-0.242811
-0.242983
-0.24308
-0.243083
-0.242971
-0.24272
-0.242301
-0.241692
-0.240941
-0.240017
-0.23803
-0.237879
-0.239003
-0.239512
-0.239933
-0.240274
-0.240575
-0.240867
-0.241165
-0.241471
-0.241785
-0.2421
-0.242407
-0.242695
-0.242953
-0.243168
-0.243325
-0.243408
-0.243397
-0.243269
-0.242997
-0.242546
-0.241885
-0.241043
-0.23996
-0.237764
-0.238882
-0.239895
-0.240343
-0.240704
-0.240988
-0.241235
-0.241476
-0.241725
-0.241987
-0.242261
-0.24254
-0.242814
-0.243074
-0.243307
-0.2435
-0.243638
-0.243703
-0.243676
-0.24353
-0.243235
-0.242753
-0.242045
-0.241111
-0.239927
-0.237323
-0.239925
-0.240827
-0.241211
-0.241506
-0.241727
-0.241913
-0.242096
-0.24229
-0.242501
-0.242728
-0.242964
-0.2432
-0.243426
-0.243628
-0.243794
-0.243909
-0.243953
-0.243905
-0.243737
-0.243419
-0.242905
-0.242152
-0.24112
-0.239907
-0.236715
-0.241003
-0.241794
-0.24211
-0.242336
-0.242487
-0.242605
-0.242722
-0.242853
-0.243006
-0.243179
-0.243365
-0.243557
-0.243742
-0.243909
-0.244043
-0.244128
-0.244145
-0.244071
-0.243878
-0.243532
-0.242982
-0.242191
-0.241038
-0.239877
-0.235961
-0.242109
-0.242792
-0.243039
-0.243189
-0.243264
-0.243306
-0.243349
-0.243409
-0.243496
-0.243607
-0.243737
-0.243877
-0.244016
-0.244141
-0.244236
-0.244286
-0.244271
-0.244166
-0.243941
-0.24356
-0.242966
-0.242145
-0.240836
-0.239819
-0.235064
-0.243242
-0.24382
-0.243993
-0.244063
-0.244055
-0.244014
-0.243973
-0.243955
-0.243966
-0.244008
-0.244074
-0.244155
-0.244241
-0.244317
-0.244369
-0.244378
-0.244323
-0.244179
-0.243915
-0.243494
-0.242842
-0.241999
-0.240485
-0.239708
-0.234029
-0.244398
-0.244876
-0.244973
-0.244957
-0.244858
-0.244724
-0.244593
-0.244486
-0.244414
-0.244377
-0.244372
-0.244388
-0.244413
-0.244435
-0.244435
-0.244397
-0.244296
-0.244107
-0.243794
-0.243324
-0.242598
-0.241741
-0.239963
-0.23951
-0.23288
-0.245578
-0.24596
-0.245977
-0.245869
-0.245672
-0.245437
-0.245205
-0.245001
-0.244837
-0.244714
-0.244629
-0.244573
-0.244532
-0.244491
-0.244435
-0.244342
-0.244188
-0.243945
-0.243574
-0.243046
-0.242223
-0.241362
-0.239263
-0.239176
-0.231651
-0.246783
-0.247072
-0.247007
-0.2468
-0.246497
-0.246153
-0.245811
-0.245501
-0.245236
-0.245019
-0.244847
-0.24471
-0.244596
-0.244488
-0.244368
-0.244214
-0.244
-0.243694
-0.243252
-0.242657
-0.241714
-0.240847
-0.238389
-0.238651
-0.230384
-0.248016
-0.248217
-0.248064
-0.247753
-0.247336
-0.246872
-0.246412
-0.245987
-0.245612
-0.245293
-0.245026
-0.244803
-0.244609
-0.244428
-0.244238
-0.244016
-0.243732
-0.243354
-0.242828
-0.242152
-0.241067
-0.240177
-0.237357
-0.23787
-0.229111
-0.249282
-0.249398
-0.249154
-0.248731
-0.24819
-0.247599
-0.247011
-0.246461
-0.245969
-0.24554
-0.245173
-0.244857
-0.244577
-0.244316
-0.24405
-0.243751
-0.243389
-0.242925
-0.2423
-0.241524
-0.240278
-0.239326
-0.236184
-0.236779
-0.227836
-0.25059
-0.250621
-0.25028
-0.249738
-0.249066
-0.248337
-0.247613
-0.24693
-0.246313
-0.245767
-0.245293
-0.244878
-0.244507
-0.244159
-0.243809
-0.243426
-0.242972
-0.242408
-0.241665
-0.240763
-0.239343
-0.238265
-0.234877
-0.235341
-0.226529
-0.251947
-0.251893
-0.251449
-0.25078
-0.249967
-0.249093
-0.248223
-0.2474
-0.24665
-0.245982
-0.245394
-0.244875
-0.244407
-0.243966
-0.243523
-0.243043
-0.242483
-0.241799
-0.240915
-0.239854
-0.238247
-0.236966
-0.233423
-0.233547
-0.225132
-0.253365
-0.253223
-0.252668
-0.251864
-0.250902
-0.249873
-0.24885
-0.24788
-0.246991
-0.246194
-0.245488
-0.244859
-0.244287
-0.243745
-0.243199
-0.242607
-0.241922
-0.241092
-0.240039
-0.238779
-0.236973
-0.235409
-0.231793
-0.231414
-0.223572
-0.254856
-0.25462
-0.253949
-0.252999
-0.251878
-0.250687
-0.249503
-0.248379
-0.247346
-0.246415
-0.245584
-0.24484
-0.244157
-0.243504
-0.24284
-0.242117
-0.241282
-0.240275
-0.239021
-0.237517
-0.235494
-0.23358
-0.229945
-0.228971
-0.221785
-0.256434
-0.256096
-0.255298
-0.254194
-0.252906
-0.251544
-0.250192
-0.248908
-0.247725
-0.246656
-0.245696
-0.244829
-0.244026
-0.243249
-0.242449
-0.241572
-0.240555
-0.239336
-0.237841
-0.236051
-0.233783
-0.231471
-0.22784
-0.226233
-0.219706
-0.258114
-0.257663
-0.256729
-0.255459
-0.253995
-0.252454
-0.250929
-0.24948
-0.248143
-0.24693
-0.245836
-0.244838
-0.243903
-0.242984
-0.242025
-0.240963
-0.23973
-0.238256
-0.23648
-0.234364
-0.231817
-0.229078
-0.225441
-0.223171
-0.217264
-0.259913
-0.259333
-0.258251
-0.256807
-0.255157
-0.253431
-0.251725
-0.250107
-0.248611
-0.24725
-0.246013
-0.244875
-0.243792
-0.24271
-0.241563
-0.24028
-0.238789
-0.237019
-0.234919
-0.232447
-0.229588
-0.226416
-0.222733
-0.219707
-0.214439
-0.261849
-0.261119
-0.259879
-0.258248
-0.256404
-0.254485
-0.252595
-0.250802
-0.249143
-0.247627
-0.24624
-0.244946
-0.243696
-0.242423
-0.241053
-0.239509
-0.237716
-0.235609
-0.233149
-0.230298
-0.227099
-0.223521
-0.219723
-0.215842
-0.211408
-0.263935
-0.263038
-0.261624
-0.259795
-0.257747
-0.255629
-0.253549
-0.251578
-0.249751
-0.248073
-0.246523
-0.245057
-0.243613
-0.242116
-0.240484
-0.238634
-0.236497
-0.234015
-0.231165
-0.227927
-0.22437
-0.22044
-0.216446
-0.211942
-0.208264
-0.266191
-0.265101
-0.2635
-0.261461
-0.259201
-0.256877
-0.254602
-0.252448
-0.250446
-0.248597
-0.246868
-0.245207
-0.243539
-0.241779
-0.23984
-0.237641
-0.235118
-0.232231
-0.228975
-0.225348
-0.221437
-0.217198
-0.212924
-0.208206
-0.204162
-0.268633
-0.267324
-0.265519
-0.263258
-0.260777
-0.258241
-0.255766
-0.253423
-0.251239
-0.249205
-0.247278
-0.245393
-0.243464
-0.241398
-0.239106
-0.236513
-0.233572
-0.230258
-0.22659
-0.222584
-0.218338
-0.213815
-0.209297
-0.204375
-0.200012
-0.271279
-0.269719
-0.267696
-0.2652
-0.262488
-0.259734
-0.257054
-0.254515
-0.252138
-0.249902
-0.247752
-0.245608
-0.243375
-0.240956
-0.238265
-0.235242
-0.231856
-0.228106
-0.22403
-0.219662
-0.215105
-0.210332
-0.205596
-0.200519
-0.19596
-0.274143
-0.272301
-0.270043
-0.267299
-0.264348
-0.261369
-0.258477
-0.255734
-0.25315
-0.25069
-0.248284
-0.245841
-0.243257
-0.240436
-0.237305
-0.233819
-0.229972
-0.225786
-0.221316
-0.21661
-0.211771
-0.206777
-0.201856
-0.196658
-0.191961
-0.277241
-0.275082
-0.272573
-0.269568
-0.266368
-0.263157
-0.260046
-0.257088
-0.254277
-0.251565
-0.248866
-0.246077
-0.243092
-0.239824
-0.236213
-0.232242
-0.227928
-0.223314
-0.218471
-0.213453
-0.20836
-0.203172
-0.198095
-0.192797
-0.188018
-0.280586
-0.278074
-0.275297
-0.27202
-0.268562
-0.265111
-0.261771
-0.258582
-0.255521
-0.252523
-0.249486
-0.2463
-0.242863
-0.239102
-0.234983
-0.230513
-0.225734
-0.220709
-0.215515
-0.210213
-0.204891
-0.199533
-0.194321
-0.188941
-0.184097
-0.28419
-0.28129
-0.278229
-0.274666
-0.270941
-0.267242
-0.263661
-0.26022
-0.256879
-0.253552
-0.250126
-0.24649
-0.242551
-0.23826
-0.233609
-0.228636
-0.223402
-0.217986
-0.212466
-0.206905
-0.201377
-0.195867
-0.190535
-0.185084
-0.180187
-0.288065
-0.28474
-0.281379
-0.277518
-0.273517
-0.269559
-0.26572
-0.262002
-0.258343
-0.254639
-0.250769
-0.246625
-0.242138
-0.237285
-0.232091
-0.226617
-0.220946
-0.21516
-0.209339
-0.20354
-0.197825
-0.192178
-0.186737
-0.181222
-0.176273
-0.292219
-0.288434
-0.284758
-0.280587
-0.2763
-0.27207
-0.267953
-0.263925
-0.259903
-0.255765
-0.251391
-0.246686
-0.241609
-0.236171
-0.230429
-0.224465
-0.218374
-0.212242
-0.206143
-0.200125
-0.194238
-0.188465
-0.182921
-0.177347
-0.172346
-0.29666
-0.292379
-0.288374
-0.283884
-0.279299
-0.274781
-0.270359
-0.265982
-0.261542
-0.256909
-0.251968
-0.246651
-0.24095
-0.234913
-0.228624
-0.222186
-0.215697
-0.209241
-0.202883
-0.196662
-0.190616
-0.184725
-0.179083
-0.173454
-0.168398
-0.301394
-0.296583
-0.292237
-0.287416
-0.282522
-0.277696
-0.272934
-0.268159
-0.26324
-0.258044
-0.252476
-0.2465
-0.24015
-0.233507
-0.226681
-0.219786
-0.212921
-0.206161
-0.199561
-0.193151
-0.186954
-0.180952
-0.175217
-0.169534
-0.164422
-0.306422
-0.30105
-0.296353
-0.291191
-0.285972
-0.280812
-0.27567
-0.270437
-0.264971
-0.259144
-0.252889
-0.246215
-0.239197
-0.23195
-0.224602
-0.21727
-0.210049
-0.203003
-0.196176
-0.189587
-0.183248
-0.17714
-0.171314
-0.165582
-0.160412
-0.311745
-0.305783
-0.300725
-0.295213
-0.289651
-0.284124
-0.278551
-0.272795
-0.266705
-0.260177
-0.253183
-0.24578
-0.238084
-0.23024
-0.222387
-0.214639
-0.207081
-0.199767
-0.192725
-0.185966
-0.179492
-0.173281
-0.167369
-0.161589
-0.156362
-0.317358
-0.310781
-0.305356
-0.299481
-0.293554
-0.28762
-0.281556
-0.275201
-0.268411
-0.261113
-0.253332
-0.245178
-0.236804
-0.228376
-0.220036
-0.211892
-0.204016
-0.196447
-0.189202
-0.182281
-0.175678
-0.169369
-0.163374
-0.157551
-0.152265
-0.323255
-0.31604
-0.310242
-0.303993
-0.297674
-0.291284
-0.284658
-0.277622
-0.270051
-0.26192
-0.253315
-0.244396
-0.23535
-0.226354
-0.217548
-0.209027
-0.200848
-0.193037
-0.185599
-0.178524
-0.171798
-0.165396
-0.159323
-0.153458
-0.148116
-0.329424
-0.321554
-0.315378
-0.308741
-0.301994
-0.295089
-0.287823
-0.280018
-0.271588
-0.262569
-0.25311
-0.243421
-0.233715
-0.22417
-0.214918
-0.206038
-0.197572
-0.189531
-0.181908
-0.174687
-0.167843
-0.161353
-0.155206
-0.149306
-0.143909
-0.335847
-0.327308
-0.320752
-0.313708
-0.306493
-0.299005
-0.29101
-0.282347
-0.272983
-0.263028
-0.252698
-0.242242
-0.23189
-0.221817
-0.212139
-0.202919
-0.19418
-0.18592
-0.178122
-0.17076
-0.163807
-0.157234
-0.151019
-0.145087
-0.139638
-0.342502
-0.333287
-0.326348
-0.318875
-0.31114
-0.302992
-0.294175
-0.284563
-0.274197
-0.263269
-0.252058
-0.240846
-0.229868
-0.219289
-0.209205
-0.199661
-0.190662
-0.182194
-0.17423
-0.166736
-0.159679
-0.153029
-0.146753
-0.140795
-0.135299
-0.34936
-0.339467
-0.332141
-0.324213
-0.315899
-0.307003
-0.297266
-0.286619
-0.275193
-0.263266
-0.251173
-0.239221
-0.227639
-0.216576
-0.206106
-0.196254
-0.187009
-0.178344
-0.170222
-0.162605
-0.155453
-0.148732
-0.142403
-0.136424
-0.130884
-0.356387
-0.345819
-0.338103
-0.329685
-0.320725
-0.310985
-0.300228
-0.288466
-0.275932
-0.262991
-0.250026
-0.237353
-0.225192
-0.213667
-0.202832
-0.192687
-0.183209
-0.174358
-0.16609
-0.158358
-0.151119
-0.144335
-0.13796
-0.131967
-0.12639
-0.363541
-0.352308
-0.344195
-0.335248
-0.325563
-0.31488
-0.303005
-0.290056
-0.276379
-0.26242
-0.248598
-0.23523
-0.222515
-0.210553
-0.19937
-0.18895
-0.179253
-0.170228
-0.161823
-0.153986
-0.14667
-0.139831
-0.13342
-0.127418
-0.121812
-0.370773
-0.358889
-0.350373
-0.340849
-0.330354
-0.318624
-0.305538
-0.291341
-0.276499
-0.261529
-0.246873
-0.232837
-0.219595
-0.207219
-0.195709
-0.18503
-0.175127
-0.165941
-0.157412
-0.149481
-0.142097
-0.135213
-0.128775
-0.122773
-0.117144
-0.378029
-0.365515
-0.356582
-0.346429
-0.335031
-0.322148
-0.307767
-0.292276
-0.276259
-0.260294
-0.244831
-0.230159
-0.216419
-0.203652
-0.191836
-0.180915
-0.170823
-0.161489
-0.152847
-0.144834
-0.137394
-0.130474
-0.12402
-0.118024
-0.112382
-0.385246
-0.372128
-0.362764
-0.351918
-0.33952
-0.325384
-0.309633
-0.292817
-0.275628
-0.258692
-0.242457
-0.227181
-0.212972
-0.19984
-0.187737
-0.176593
-0.166327
-0.15686
-0.14812
-0.140038
-0.132553
-0.125609
-0.11915
-0.113168
-0.107522
-0.392354
-0.378663
-0.368849
-0.357242
-0.343745
-0.32826
-0.311081
-0.29292
-0.274575
-0.256701
-0.23973
-0.223886
-0.209239
-0.195767
-0.183401
-0.172052
-0.16163
-0.152046
-0.143222
-0.135084
-0.127567
-0.12061
-0.114158
-0.1082
-0.10256
-0.399279
-0.385051
-0.374762
-0.362322
-0.347625
-0.330706
-0.312052
-0.292546
-0.273072
-0.254299
-0.236634
-0.220259
-0.205205
-0.191421
-0.178814
-0.167281
-0.15672
-0.147037
-0.138144
-0.129965
-0.122429
-0.115473
-0.10904
-0.103114
-0.0974938
-0.405941
-0.391213
-0.380423
-0.36707
-0.351079
-0.332652
-0.312496
-0.291657
-0.27109
-0.251465
-0.23315
-0.216282
-0.200855
-0.186786
-0.173963
-0.162268
-0.151589
-0.141824
-0.13288
-0.124674
-0.117135
-0.110192
-0.103791
-0.0979071
-0.0923196
-0.412252
-0.397069
-0.385743
-0.3714
-0.354023
-0.33403
-0.312361
-0.290216
-0.268604
-0.248177
-0.229259
-0.21194
-0.196174
-0.181849
-0.168836
-0.157002
-0.146226
-0.136399
-0.127421
-0.119206
-0.111678
-0.104762
-0.0984078
-0.0925757
-0.087035
-0.418123
-0.40253
-0.390633
-0.375218
-0.356377
-0.334777
-0.311601
-0.288191
-0.265588
-0.244415
-0.224945
-0.207217
-0.191147
-0.176599
-0.163423
-0.151474
-0.140624
-0.130754
-0.121761
-0.113554
-0.106052
-0.0991798
-0.0928853
-0.0871161
-0.0816378
-0.423462
-0.407504
-0.394998
-0.378435
-0.358061
-0.334831
-0.310172
-0.285549
-0.262019
-0.24016
-0.22019
-0.202097
-0.185761
-0.171022
-0.157711
-0.145675
-0.134773
-0.124883
-0.115894
-0.107714
-0.100255
-0.0934405
-0.0872203
-0.0815253
-0.076126
-0.428172
-0.411899
-0.398741
-0.380959
-0.358999
-0.334135
-0.308034
-0.282264
-0.257874
-0.235394
-0.214977
-0.196565
-0.180004
-0.165107
-0.151693
-0.139596
-0.128668
-0.118779
-0.109816
-0.101679
-0.0942811
-0.087541
-0.0814098
-0.0758015
-0.0704996
-0.432157
-0.415619
-0.401767
-0.382702
-0.359121
-0.332638
-0.305151
-0.278307
-0.253134
-0.230098
-0.209292
-0.190609
-0.173862
-0.158844
-0.145359
-0.133229
-0.122301
-0.112437
-0.103521
-0.0954479
-0.0881275
-0.0814779
-0.0754505
-0.0699435
-0.0647606
-0.435322
-0.418568
-0.403982
-0.383578
-0.358359
-0.330291
-0.30149
-0.273656
-0.247779
-0.224257
-0.20312
-0.184216
-0.167327
-0.152225
-0.138701
-0.126569
-0.115667
-0.105853
-0.0970051
-0.0890161
-0.0817909
-0.0752474
-0.0693382
-0.063949
-0.0589084
-0.437572
-0.420651
-0.405291
-0.383508
-0.356653
-0.327054
-0.297022
-0.268289
-0.241792
-0.217856
-0.196449
-0.177375
-0.160387
-0.145241
-0.131714
-0.119611
-0.108763
-0.0990242
-0.0902671
-0.0823817
-0.0752692
-0.0688462
-0.063068
-0.0578107
-0.0529264
-0.438815
-0.421776
-0.405607
-0.382418
-0.353948
-0.322889
-0.291722
-0.262188
-0.235159
-0.210883
-0.189268
-0.170077
-0.153037
-0.137886
-0.124391
-0.11235
-0.101586
-0.0919476
-0.0833049
-0.0755439
-0.0685619
-0.0622746
-0.0566395
-0.0515164
-0.0467692
-0.438963
-0.421854
-0.404847
-0.38024
-0.350198
-0.317765
-0.285569
-0.255337
-0.227867
-0.203328
-0.181568
-0.162314
-0.145269
-0.130156
-0.116731
-0.104783
-0.0941327
-0.0846225
-0.0761181
-0.0685027
-0.0616699
-0.0555364
-0.0500611
-0.0450652
-0.0403814
-0.437934
-0.420801
-0.402933
-0.376914
-0.34536
-0.311657
-0.278547
-0.247726
-0.219906
-0.195181
-0.173342
-0.154081
-0.137079
-0.122046
-0.108729
-0.0969106
-0.0864039
-0.0770488
-0.0687073
-0.0612593
-0.0545955
-0.0486363
-0.0433408
-0.038479
-0.0338038
-0.435649
-0.41854
-0.399797
-0.372389
-0.339403
-0.304543
-0.270642
-0.239343
-0.211269
-0.186436
-0.164585
-0.145374
-0.128465
-0.113557
-0.100387
-0.0887315
-0.0783999
-0.0692278
-0.0610742
-0.0538159
-0.0473416
-0.0415762
-0.0364677
-0.031725
-0.0272988
-0.432041
-0.415
-0.395378
-0.36662
-0.332299
-0.29641
-0.261846
-0.230183
-0.201952
-0.177091
-0.155295
-0.136191
-0.119427
-0.104687
-0.0917036
-0.0802474
-0.0701226
-0.0611618
-0.0532214
-0.0461758
-0.0399121
-0.0343587
-0.0294471
-0.0248614
-0.0207149
-0.427047
-0.410118
-0.389624
-0.359574
-0.324029
-0.287248
-0.252154
-0.220244
-0.191951
-0.167144
-0.14547
-0.126533
-0.109964
-0.0954387
-0.0826825
-0.0714612
-0.0615755
-0.0528547
-0.045153
-0.0383426
-0.0323105
-0.0269868
-0.0222896
-0.0178891
-0.0140173
-0.420614
-0.403841
-0.382491
-0.351225
-0.314583
-0.277054
-0.241567
-0.209526
-0.18127
-0.156597
-0.135114
-0.116403
-0.100081
-0.0858159
-0.0733277
-0.0623776
-0.0527628
-0.0443108
-0.0368736
-0.0303214
-0.0245415
-0.0194657
-0.0150011
-0.0108027
-0.00720375
-0.412699
-0.396125
-0.373949
-0.341556
-0.303956
-0.265829
-0.230088
-0.198034
-0.169912
-0.145454
-0.12423
-0.105804
-0.0897819
-0.0758246
-0.0636447
-0.0530019
-0.0436906
-0.0355361
-0.0283892
-0.0221182
-0.0166108
-0.0118016
-0.00758599
-0.00360164
-0.000281904
-0.403268
-0.386934
-0.363974
-0.33056
-0.292149
-0.253581
-0.217726
-0.185777
-0.157884
-0.13372
-0.112828
-0.0947468
-0.0790762
-0.065471
-0.0536407
-0.0433414
-0.0343659
-0.0265378
-0.0197068
-0.0137397
-0.00852535
-0.00400091
-4.91997e-05
0.0037102
0.00674083
-0.392296
-0.376247
-0.352556
-0.318239
-0.279174
-0.240323
-0.204493
-0.172765
-0.145196
-0.121404
-0.10092
-0.0832397
-0.0679719
-0.0547647
-0.0433245
-0.0334049
-0.0247972
-0.0173241
-0.0108344
-0.00519401
-0.000292921
0.00392878
0.00760262
0.0111261
0.0138567
-0.379772
-0.364049
-0.339691
-0.304601
-0.265046
-0.226072
-0.190407
-0.159013
-0.131864
-0.108533
-0.0885075
-0.0712932
-0.0564803
-0.0437167
-0.0327067
-0.0232025
-0.0149943
-0.00790454
-0.00178129
0.00350999
0.0080776
0.011979
0.0153613
0.0186375
0.0210573
-0.365693
-0.350338
-0.325389
-0.289665
-0.249789
-0.210852
-0.175488
-0.144542
-0.117907
-0.0951095
-0.0756135
-0.0589217
-0.0446149
-0.0323397
-0.0217995
-0.0127456
-0.00496818
0.00171041
0.0074423
0.0123623
0.0165764
0.0201402
0.0232174
0.0262342
0.0283324
-0.350066
-0.335123
-0.309668
-0.273458
-0.233431
-0.194691
-0.159762
-0.129376
-0.103344
-0.0811553
-0.0622554
-0.0461421
-0.0323912
-0.0206481
-0.0106163
-0.00204718
0.00526891
0.011509
0.0168252
0.0213518
0.0251926
0.0284016
0.0311598
0.0339043
0.03567
-0.332911
-0.318423
-0.292555
-0.256014
-0.216008
-0.177621
-0.143259
-0.113537
-0.088197
-0.0666922
-0.048453
-0.0329731
-0.0198265
-0.00865826
0.00082747
0.00887857
0.0157036
0.0214787
0.0263551
0.0304668
0.0339145
0.0367516
0.0391765
0.0416344
0.0430578
-0.314256
-0.300266
-0.274086
-0.237376
-0.197563
-0.159679
-0.126012
-0.0970577
-0.0724943
-0.0517449
-0.0342283
-0.0194355
-0.00694005
0.00361206
0.0125154
0.0200162
0.0263214
0.0316057
0.0360192
0.0396947
0.0427296
0.0451775
0.0472542
0.04941
0.0504827
-0.29414
-0.280691
-0.254307
-0.217598
-0.178137
-0.140905
-0.108056
-0.0799699
-0.0562654
-0.0363408
-0.0196064
-0.00555232
0.00624691
0.0161433
0.0244293
0.031349
0.0371069
0.0418756
0.0458037
0.0490221
0.0516246
0.053666
0.0553786
0.0572145
0.0579258
-0.27261
-0.259748
-0.233277
-0.196732
-0.157771
-0.121349
-0.0894336
-0.0623104
-0.0395432
-0.0205095
-0.00461443
0.00865162
0.0197115
0.0289145
0.03655
0.0428591
0.0480435
0.0522731
0.0556944
0.0584354
0.0605862
0.0622035
0.0635344
0.0650263
0.0653556
-0.249721
-0.237498
-0.21108
-0.174791
-0.136543
-0.101059
-0.070189
-0.0441186
-0.0223632
-0.0042834
0.0107183
0.0231494
0.0334292
0.0419031
0.0488568
0.0545276
0.0591139
0.0627823
0.0656765
0.0679208
0.0696011
0.0707767
0.0717053
0.0728203
0.0727374
-0.225539
-0.214016
-0.187794
-0.151835
-0.114496
-0.0800896
-0.0503702
-0.0254372
-0.00476357
0.0123029
0.0263604
0.0379124
0.0473737
0.0550851
0.0613277
0.0663346
0.0702999
0.0733867
0.0757351
0.0774647
0.0786566
0.0793729
0.0798769
0.0805778
0.0800646
-0.20014
-0.189385
-0.163306
-0.128088
-0.0917085
-0.0584976
-0.0300282
-0.00631162
0.0132148
0.0292126
0.0422782
0.05291
0.0615173
0.0684352
0.0739396
0.078259
0.0815825
0.0840692
0.0858549
0.0870531
0.0877393
0.0879803
0.0880413
0.0882993
0.0873565
-0.173602
-0.16371
-0.137807
-0.103505
-0.0682478
-0.0363451
-0.00921656
0.0132103
0.031529
0.0464068
0.0584365
0.0681103
0.0758307
0.0819267
0.0866685
0.0902788
0.092942
0.0948122
0.0960202
0.0966716
0.0968358
0.0965896
0.0961993
0.0959849
0.0945487
-0.145987
-0.136935
-0.111562
-0.0781817
-0.0441846
-0.0136963
0.0120083
0.0330785
0.0501338
0.0638447
0.0747983
0.0834796
0.0902834
0.0955319
0.099489
0.102371
0.104358
0.105598
0.106215
0.106306
0.105935
0.105198
0.104347
0.103568
0.101398
-0.117398
-0.109318
-0.0845372
-0.0522045
-0.0195927
0.00938322
0.0335879
0.0532403
0.0689821
0.0814837
0.0913251
0.0989828
0.104843
0.109222
0.112375
0.114513
0.115809
0.116407
0.116424
0.115945
0.115035
0.113815
0.112468
0.110901
0.107717
-0.0880604
-0.0808338
-0.056812
-0.0256627
0.00545063
0.0328251
0.0554613
0.0736417
0.0880251
0.0992796
0.107977
0.114584
0.119478
0.122966
0.125298
0.126678
0.127272
0.12722
0.12663
0.125578
0.124142
0.12246
0.120561
0.117969
0.113806
-0.0579853
-0.0516349
-0.0284856
0.00135421
0.0308655
0.0565588
0.077566
0.0942265
0.107212
0.117187
0.124712
0.130245
0.134153
0.136735
0.138232
0.138841
0.138725
0.138016
0.136814
0.135194
0.133254
0.131134
0.128659
0.125097
0.120501
-0.0272663
-0.0218491
0.000338193
0.028754
0.0565701
0.0805122
0.0998378
0.114937
0.126492
0.135159
0.141489
0.145928
0.148833
0.150495
0.151146
0.150977
0.150143
0.148771
0.146956
0.144772
0.142341
0.139779
0.136717
0.132437
0.129535
0.00397367
0.00841253
0.029553
0.0564419
0.0824807
0.104611
0.122211
0.135715
0.145812
0.153148
0.158265
0.161594
0.163484
0.164214
0.164011
0.163056
0.1615
0.159463
0.157033
0.15429
0.151362
0.148311
0.144699
0.140212
0.138144
0.0356131
0.0390377
0.0590507
0.0843218
0.108512
0.128781
0.144619
0.1565
0.165117
0.171106
0.174994
0.177202
0.178067
0.17786
0.176796
0.175052
0.172771
0.170066
0.167023
0.163724
0.16029
0.156741
0.152662
0.148043
0.146011
0.0675307
0.0699111
0.088722
0.112296
0.134579
0.152946
0.166993
0.177233
0.184354
0.188983
0.191633
0.192713
0.192548
0.191398
0.189472
0.186937
0.183929
0.180557
0.176902
0.173047
0.169102
0.16506
0.160569
0.155773
0.153484
0.099604
0.100916
0.118457
0.140267
0.160595
0.177029
0.189267
0.197851
0.203467
0.20673
0.208137
0.208085
0.206888
0.204795
0.202006
0.198681
0.194949
0.190912
0.186648
0.182237
0.177778
0.173253
0.168361
0.163311
0.160656
0.131709
0.131934
0.148146
0.168137
0.186473
0.200954
0.211372
0.218293
0.222402
0.224296
0.224461
0.223279
0.221051
0.218018
0.214369
0.210257
0.205804
0.201105
0.196236
0.191271
0.1863
0.1813
0.176005
0.170653
0.16759
0.163722
0.162846
0.177678
0.195807
0.212126
0.224644
0.233238
0.238499
0.241102
0.241633
0.24056
0.238252
0.234999
0.231031
0.226528
0.221635
0.216467
0.211113
0.205643
0.200129
0.194649
0.18918
0.183477
0.177796
0.174307
0.195519
0.193533
0.206946
0.223181
0.23747
0.248022
0.254799
0.258408
0.259515
0.258691
0.256389
0.252965
0.248696
0.243802
0.238454
0.232789
0.226913
0.220912
0.214848
0.20879
0.202808
0.196873
0.190762
0.184739
0.180817
0.226976
0.223878
0.23584
0.250162
0.262419
0.271015
0.275988
0.277958
0.277584
0.275419
0.271903
0.267376
0.262105
0.256298
0.250116
0.243689
0.237117
0.230477
0.22383
0.217234
0.210757
0.204363
0.197846
0.191478
0.187119
0.257972
0.253763
0.264253
0.276655
0.286889
0.293546
0.296736
0.29709
0.295256
0.291771
0.287059
0.281447
0.27519
0.268484
0.261484
0.254309
0.247053
0.239787
0.232565
0.225443
0.218479
0.211635
0.204718
0.198005
0.193209
0.288386
0.283075
0.292082
0.302568
0.310798
0.315544
0.316979
0.315746
0.312478
0.307698
0.301813
0.295137
0.287914
0.280329
0.272528
0.264622
0.256697
0.248819
0.241036
0.233399
0.225957
0.218672
0.211364
0.20431
0.19908
0.318099
0.311699
0.319223
0.32781
0.334065
0.336935
0.336654
0.333867
0.329198
0.323152
0.316123
0.30841
0.300244
0.291802
0.28322
0.274601
0.266024
0.25755
0.24922
0.241081
0.233175
0.22546
0.217773
0.210385
0.204724
0.346998
0.339527
0.345576
0.352291
0.356611
0.357651
0.355696
0.351398
0.345366
0.33809
0.329947
0.321226
0.312145
0.302871
0.29353
0.28422
0.275012
0.265959
0.2571
0.248474
0.240117
0.231986
0.223932
0.216217
0.210132
0.374968
0.366451
0.371046
0.375926
0.378362
0.377623
0.374046
0.368284
0.360932
0.352465
0.343246
0.333549
0.323584
0.313505
0.303433
0.293455
0.283637
0.274025
0.264655
0.255559
0.246768
0.238235
0.229829
0.221797
0.215296
0.401903
0.392368
0.395538
0.398633
0.399243
0.396787
0.391646
0.384472
0.375849
0.366235
0.35598
0.345346
0.334529
0.323677
0.312901
0.302281
0.291877
0.28173
0.271868
0.262321
0.253112
0.244195
0.235451
0.227113
0.220207
0.427697
0.417179
0.418962
0.420331
0.419184
0.415079
0.408437
0.399912
0.390071
0.37936
0.368113
0.35658
0.34495
0.333359
0.32191
0.310676
0.299712
0.289052
0.278721
0.268743
0.259135
0.249851
0.240786
0.232155
0.224855
0.452252
0.44079
0.441234
0.440945
0.438117
0.432439
0.424368
0.414555
0.403555
0.391799
0.379608
0.367222
0.354817
0.342523
0.330434
0.318618
0.307121
0.295975
0.285198
0.27481
0.264823
0.255192
0.245824
0.236912
0.229234
0.475471
0.46311
0.462271
0.460403
0.45598
0.448811
0.439386
0.428355
0.416259
0.403515
0.390432
0.377239
0.364102
0.351144
0.338451
0.326085
0.314086
0.30248
0.291283
0.280508
0.270163
0.260205
0.250552
0.241374
0.233334
0.497265
0.484055
0.481998
0.478636
0.47271
0.464139
0.453444
0.441269
0.428144
0.414472
0.400552
0.386602
0.37278
0.359199
0.34594
0.333057
0.320587
0.308551
0.29696
0.285824
0.275144
0.264879
0.25496
0.245532
0.237148
0.517551
0.503545
0.500342
0.495582
0.488252
0.478375
0.466496
0.453255
0.439172
0.424638
0.409939
0.395285
0.380825
0.366665
0.352879
0.339517
0.326609
0.314173
0.302216
0.290743
0.279752
0.269204
0.259038
0.249376
0.24067
0.536249
0.521506
0.517237
0.511181
0.502554
0.491471
0.478499
0.464277
0.449311
0.433981
0.418565
0.403262
0.388214
0.37352
0.35925
0.345446
0.332136
0.319331
0.307038
0.295255
0.283977
0.273169
0.262777
0.252899
0.243892
0.553289
0.53787
0.532621
0.525379
0.515567
0.503383
0.489416
0.474299
0.458528
0.442474
0.426403
0.410509
0.394926
0.379747
0.365035
0.350829
0.337152
0.324013
0.311412
0.299348
0.28781
0.276765
0.266167
0.256092
0.24681
0.568604
0.552574
0.54644
0.538127
0.527246
0.514073
0.499211
0.483289
0.466795
0.450089
0.433431
0.417006
0.400942
0.385327
0.370218
0.355652
0.341645
0.328205
0.315329
0.303012
0.29124
0.279983
0.269201
0.258948
0.249417
0.582136
0.565565
0.558642
0.549379
0.537554
0.523505
0.507851
0.491218
0.474085
0.456804
0.439628
0.422733
0.406245
0.390244
0.374786
0.3599
0.345603
0.331898
0.318779
0.306238
0.29426
0.282816
0.271873
0.261462
0.251708
0.593832
0.576792
0.569184
0.559098
0.546455
0.531648
0.51531
0.498063
0.480377
0.462599
0.444974
0.427674
0.410819
0.394485
0.378724
0.363564
0.349015
0.335081
0.321752
0.309018
0.296862
0.285257
0.274174
0.263627
0.253681
0.603649
0.586213
0.578028
0.567249
0.553918
0.538476
0.521564
0.5038
0.485651
0.467456
0.449454
0.431814
0.414651
0.398038
0.382024
0.366632
0.351873
0.337746
0.324242
0.311346
0.299041
0.2873
0.2761
0.265438
0.25533
0.611547
0.593793
0.585142
0.573804
0.559919
0.543965
0.526591
0.508412
0.48989
0.471359
0.453054
0.435141
0.41773
0.400893
0.384674
0.369097
0.354168
0.339887
0.326241
0.313215
0.30079
0.288941
0.277647
0.266892
0.256653
0.617498
0.599503
0.5905
0.57874
0.564438
0.548098
0.530375
0.511884
0.493081
0.474297
0.455764
0.437645
0.420047
0.403041
0.386668
0.370951
0.355895
0.341497
0.327745
0.314621
0.302105
0.290175
0.278811
0.267986
0.257647
0.621478
0.603321
0.594082
0.582041
0.567459
0.550861
0.532905
0.514204
0.495213
0.47626
0.457575
0.439318
0.421595
0.404476
0.388001
0.37219
0.357049
0.342573
0.32875
0.315561
0.302984
0.290999
0.279588
0.268716
0.258311
0.623472
0.605234
0.595877
0.583694
0.568972
0.552245
0.534172
0.515367
0.496282
0.477244
0.458482
0.440156
0.422371
0.405195
0.388668
0.372811
0.357627
0.343112
0.329253
0.316031
0.303424
0.291412
0.279977
0.269082
0.258643
0.623472
0.605234
0.595877
0.583694
0.568973
0.552245
0.534172
0.515367
0.496282
0.477244
0.458482
0.440156
0.422371
0.405195
0.388668
0.372811
0.357627
0.343112