/*--------------------------------*- C++ -*----------------------------------*\
  =========                 |
  \\      /  F ield         | OpenFOAM: The Open Source CFD Toolbox
   \\    /   O peration     | Website:  https://openfoam.org
    \\  /    A nd           | Version:  7
     \\/     M anipulation  |
\*---------------------------------------------------------------------------*/
FoamFile
{
    version     2.0;
    format      ascii;
    class       volVectorField;
    location    "25";
    object      U;
}
// * * * * * * * * * * * * * * * * * * * * * * * * * * * * * * * * * * * * * //

dimensions      [0 1 -1 0 0 0 0];

internalField   nonuniform List<vector> 
49200
(
(-0.00083293 0.000659894 2.51909e-21)
(-0.00502193 0.00156817 -1.22574e-20)
(-0.0128032 0.00217735 -1.40904e-21)
(-0.0221346 0.00257227 9.08736e-21)
(-0.0324113 0.00280757 -6.63862e-21)
(-0.0431058 0.0029268 2.2497e-20)
(-0.0538494 0.00296326 7.24789e-21)
(-0.0644041 0.00294195 -7.77853e-21)
(-0.0746174 0.00288126 3.09809e-21)
(-0.0843967 0.00279425 -2.58805e-20)
(-0.0936899 0.00268979 5.66086e-21)
(-0.10247 0.00257352 -5.1448e-22)
(-0.110724 0.00244879 -7.25862e-21)
(-0.118448 0.00231738 1.71459e-20)
(-0.125641 0.00218028 3.96915e-22)
(-0.132301 0.00203829 -1.56553e-20)
(-0.138433 0.00189277 -6.32051e-21)
(-0.144043 0.00174622 -9.63967e-22)
(-0.149146 0.00160291 -1.1896e-20)
(-0.153775 0.00146931 -5.64263e-21)
(-0.15798 0.00135425 -2.56103e-20)
(-0.161845 0.0012684 1.80731e-20)
(-0.165477 0.00122151 -3.34197e-20)
(-0.168995 0.00122067 1.67491e-20)
(-0.172587 0.00128017 1.67296e-20)
(-0.000894572 0.00196408 -1.09003e-21)
(-0.00514734 0.00466979 -2.5128e-20)
(-0.0129383 0.0064864 -1.88811e-20)
(-0.0222481 0.00766563 -3.61078e-20)
(-0.03248 0.00836956 3.14779e-20)
(-0.043113 0.00872756 -2.09051e-20)
(-0.0537825 0.00883862 4.11444e-21)
(-0.064253 0.00877716 -6.5255e-21)
(-0.0743737 0.00859802 -3.59983e-20)
(-0.084053 0.00834025 -5.16505e-21)
(-0.0932393 0.00803041 -6.79254e-21)
(-0.101906 0.00768551 -8.2669e-21)
(-0.11004 0.00731562 4.549e-20)
(-0.117637 0.00692617 2.23074e-20)
(-0.124695 0.00652009 -2.13649e-20)
(-0.131214 0.00609982 4.80592e-20)
(-0.137195 0.00566923 3.41168e-21)
(-0.142643 0.00523563 2.63312e-20)
(-0.147572 0.00481156 3.93225e-20)
(-0.15201 0.00441619 -2.91772e-21)
(-0.156004 0.004076 8.05109e-20)
(-0.159632 0.00382326 2.83126e-20)
(-0.163003 0.00368819 -2.83184e-20)
(-0.166225 0.00369356 -1.78191e-20)
(-0.16949 0.00388355 -1.78545e-20)
(-0.0010167 0.00324847 2.84348e-20)
(-0.00539606 0.00772875 7.46419e-22)
(-0.0132065 0.0107409 -7.99108e-20)
(-0.0224734 0.0126986 7.03504e-20)
(-0.0326165 0.0138691 8.50786e-21)
(-0.043127 0.014466 -5.33282e-20)
(-0.0536486 0.0146529 -3.06407e-20)
(-0.0639512 0.0145532 -3.06107e-20)
(-0.0738869 0.0142577 -7.43887e-22)
(-0.0833663 0.0138315 -1.45781e-20)
(-0.0923387 0.0133187 -1.7309e-20)
(-0.100778 0.0127477 2.22705e-20)
(-0.108671 0.0121353 -9.2286e-20)
(-0.116013 0.0114906 -8.89128e-20)
(-0.122802 0.0108182 7.33434e-20)
(-0.129036 0.0101219 -1.22012e-19)
(-0.134715 0.00940747 -2.56879e-20)
(-0.13984 0.00868632 1.2249e-19)
(-0.144421 0.00797831 1.43829e-20)
(-0.148477 0.00731452 -2.79909e-20)
(-0.152048 0.00673873 -4.31139e-20)
(-0.155207 0.00630566 2.02558e-20)
(-0.158057 0.00606878 1.43459e-19)
(-0.160688 0.00607105 -2.45418e-20)
(-0.1633 0.00639051 3.08692e-21)
(-0.00119723 0.00450035 -2.24236e-20)
(-0.00576441 0.0107175 9.06143e-20)
(-0.0136043 0.0149052 1.30519e-19)
(-0.0228079 0.0176317 -5.78048e-20)
(-0.0328191 0.0192651 -8.82231e-21)
(-0.0431472 0.0201009 1.43737e-19)
(-0.0534482 0.0203656 9.02963e-21)
(-0.0634996 0.0202306 1.19742e-20)
(-0.0731584 0.0198223 6.77512e-20)
(-0.0823381 0.0192313 -1.32714e-19)
(-0.0909893 0.0185195 -3.89445e-20)
(-0.0990865 0.0177265 2.29685e-20)
(-0.106617 0.016876 -2.41369e-20)
(-0.113576 0.0159805 7.726e-20)
(-0.11996 0.0150463 -3.49019e-20)
(-0.125766 0.0140778 1.72101e-19)
(-0.130989 0.0130821 4.58421e-20)
(-0.135628 0.0120732 -5.48448e-21)
(-0.139685 0.0110769 7.08392e-20)
(-0.14317 0.0101345 -6.78005e-20)
(-0.146111 0.0093065 -2.45765e-20)
(-0.148568 0.00867102 -3.23903e-20)
(-0.150642 0.00830909 -5.08376e-20)
(-0.152392 0.00829164 6.51853e-20)
(-0.154022 0.00873826 9.66084e-20)
(-0.00143314 0.0057077 4.75266e-20)
(-0.00624698 0.0136098 -7.95929e-20)
(-0.0141265 0.0189454 3.65037e-20)
(-0.0232477 0.0224266 5.30568e-20)
(-0.0330855 0.0245176 -1.90769e-19)
(-0.0431728 0.0255917 -4.55002e-20)
(-0.0531816 0.0259366 6.06582e-20)
(-0.0628995 0.0257701 -6.41901e-21)
(-0.07219 0.0252535 1.23075e-19)
(-0.0809702 0.0245028 9.37433e-21)
(-0.0891929 0.0235971 8.42118e-20)
(-0.0968333 0.0225877 8.4256e-20)
(-0.103879 0.021505 1.6835e-19)
(-0.110324 0.020365 -8.35349e-20)
(-0.116164 0.0191754 2.54437e-20)
(-0.121394 0.0179407 -3.37734e-20)
(-0.126007 0.016668 -9.66025e-20)
(-0.129995 0.0153724 -3.87903e-20)
(-0.133352 0.0140833 1.87555e-20)
(-0.136076 0.0128502 -9.3333e-20)
(-0.13818 0.0117486 6.63666e-20)
(-0.139709 0.0108806 1.2393e-19)
(-0.140756 0.0103603 -4.14881e-20)
(-0.14134 0.0102977 -1.4631e-19)
(-0.141654 0.0108666 -4.01164e-20)
(-0.00172057 0.00685944 -8.53586e-20)
(-0.00683683 0.016381 -1.38742e-20)
(-0.0147666 0.0228291 -9.29717e-20)
(-0.0237878 0.0270468 -4.12063e-20)
(-0.0334125 0.0295877 1.59809e-19)
(-0.0432025 0.030899 -1.14095e-20)
(-0.0528492 0.0313264 -1.42003e-19)
(-0.0621524 0.0311326 1.23958e-19)
(-0.0709838 0.0305132 -5.92578e-20)
(-0.079265 0.0296086 2.16277e-19)
(-0.0869513 0.0285155 -1.14062e-19)
(-0.0940187 0.0272965 -2.00542e-19)
(-0.100455 0.025989 3.94532e-20)
(-0.106254 0.0246124 -1.45934e-20)
(-0.111409 0.0231757 -9.04158e-20)
(-0.115913 0.0216828 -1.03476e-19)
(-0.119755 0.0201397 -7.92854e-20)
(-0.122923 0.0185607 7.78109e-20)
(-0.1254 0.0169762 7.06339e-22)
(-0.127173 0.0154407 4.47209e-20)
(-0.128234 0.0140415 -1.14815e-19)
(-0.128611 0.0129045 5.64989e-20)
(-0.128384 0.0121821 1.10717e-19)
(-0.127523 0.0120379 1.85373e-19)
(-0.126178 0.0127189 -9.15625e-20)
(-0.00205489 0.00794566 2.56263e-19)
(-0.00752564 0.0190087 -7.01319e-20)
(-0.0155167 0.0265262 -8.71264e-20)
(-0.0244219 0.0314575 -4.19034e-20)
(-0.0337962 0.0344382 -1.24707e-19)
(-0.0432346 0.0359841 6.46525e-20)
(-0.0524508 0.036496 1.04149e-19)
(-0.0612597 0.0362795 -1.13768e-19)
(-0.0695419 0.035563 8.34956e-20)
(-0.0772246 0.0345111 -1.6839e-19)
(-0.0842659 0.0332377 -1.92117e-20)
(-0.0906428 0.031817 -7.42738e-20)
(-0.0963431 0.0302932 -1.57314e-19)
(-0.101359 0.0286896 -1.80165e-19)
(-0.105683 0.0270158 -5.72566e-20)
(-0.109305 0.0252752 1.11459e-19)
(-0.112212 0.0234714 -6.72973e-20)
(-0.114383 0.0216159 -1.66167e-19)
(-0.115795 0.0197371 -1.76657e-19)
(-0.11642 0.0178903 1.75164e-19)
(-0.116231 0.0161705 -1.51571e-19)
(-0.11523 0.0147242 -3.70779e-20)
(-0.113487 0.0137465 -2.34741e-19)
(-0.110911 0.013471 -3.6773e-19)
(-0.107542 0.0142433 1.43406e-19)
(-0.00243093 0.00895781 -2.70575e-20)
(-0.00830396 0.0214731 1.9882e-19)
(-0.0163674 0.0300094 1.08236e-19)
(-0.0251428 0.0356265 7.4888e-20)
(-0.0342319 0.0390338 1.71249e-19)
(-0.0432665 0.0408101 -1.03768e-19)
(-0.0519862 0.0414075 -9.32985e-21)
(-0.0602222 0.0411725 -1.5856e-19)
(-0.0678658 0.0403647 -1.68414e-19)
(-0.0748505 0.0391725 1.0736e-19)
(-0.0811374 0.0377265 1.63186e-19)
(-0.0867045 0.0361124 -1.42406e-19)
(-0.0915391 0.0343818 -9.11743e-20)
(-0.095632 0.0325617 4.97428e-19)
(-0.0989737 0.0306629 2.22559e-20)
(-0.101552 0.0286875 5.64627e-20)
(-0.103348 0.0266359 4.66617e-20)
(-0.104337 0.0245155 6.0293e-20)
(-0.104488 0.0223491 -7.95314e-20)
(-0.103758 0.0201885 2.60212e-20)
(-0.102102 0.0181302 -4.21611e-20)
(-0.0994931 0.0163355 6.11506e-20)
(-0.0959879 0.0150429 1.11919e-19)
(-0.0914378 0.0145724 6.14455e-19)
(-0.0856448 0.0153915 -1.19868e-19)
(-0.00284308 0.00988886 -2.21272e-19)
(-0.00916151 0.0237571 -1.44975e-19)
(-0.0173088 0.0332546 -2.34907e-19)
(-0.0259422 0.0395246 7.75231e-20)
(-0.0347136 0.0433416 -2.87793e-19)
(-0.0432951 0.0453416 2.21711e-20)
(-0.051454 0.0460241 2.3432e-19)
(-0.05904 0.0457739 -5.55979e-20)
(-0.0659562 0.0448804 2.30686e-20)
(-0.072143 0.0435546 -1.96968e-19)
(-0.0775646 0.0419439 -1.19782e-19)
(-0.0822001 0.0401453 2.63151e-19)
(-0.0860357 0.038218 1.48874e-19)
(-0.0890603 0.0361929 -2.41321e-19)
(-0.0912614 0.0340823 6.39533e-20)
(-0.0926232 0.031887 -1.59116e-19)
(-0.0931234 0.0296043 -3.58435e-20)
(-0.0927318 0.0272355 -1.30424e-19)
(-0.0914083 0.0247959 2.98003e-19)
(-0.0891016 0.0223286 4.61971e-20)
(-0.0857453 0.0199244 -1.16593e-19)
(-0.0812833 0.0177505 2.38642e-19)
(-0.0757587 0.0160847 -1.75221e-19)
(-0.0689914 0.0153445 -4.12553e-19)
(-0.0603165 0.0161287 2.26157e-20)
(-0.00328552 0.0107334 9.09109e-20)
(-0.0100874 0.0258467 1.60553e-20)
(-0.0183299 0.0362408 1.79581e-19)
(-0.026811 0.0431253 8.41796e-20)
(-0.0352348 0.0473312 3.02046e-19)
(-0.0433159 0.0495453 -2.56344e-19)
(-0.0508516 0.0503106 -7.90944e-20)
(-0.0577116 0.050047 1.88066e-19)
(-0.0638119 0.0490725 -2.01727e-19)
(-0.0690999 0.0476196 -2.27437e-20)
(-0.0735437 0.0458517 -5.40446e-20)
(-0.0771225 0.0438775 -9.8994e-20)
(-0.0798211 0.0417635 1.262e-19)
(-0.0816253 0.0395455 -1.01469e-19)
(-0.0825189 0.0372373 -5.30317e-20)
(-0.0824815 0.0348392 2.70574e-20)
(-0.081486 0.0323451 7.37155e-20)
(-0.0794965 0.02975 2.66305e-19)
(-0.076466 0.0270598 -2.46987e-19)
(-0.0723338 0.024305 -5.41186e-20)
(-0.0670182 0.021563 3.11238e-19)
(-0.0604301 0.0189957 2.21282e-19)
(-0.0525977 0.0169037 -1.6703e-19)
(-0.0433943 0.0158047 -2.22727e-19)
(-0.031333 0.0165085 1.71824e-19)
(-0.00375237 0.0114878 -8.04169e-20)
(-0.0110704 0.0277313 4.12688e-20)
(-0.0194191 0.0389508 -5.25772e-21)
(-0.027739 0.0464058 1.33926e-19)
(-0.0357874 0.0509752 -3.26338e-19)
(-0.0433229 0.0533904 5.35426e-19)
(-0.0501746 0.0542333 1.42054e-19)
(-0.0562333 0.0539565 4.10157e-21)
(-0.0614286 0.0529043 3.68079e-19)
(-0.0657159 0.0513298 5.96069e-20)
(-0.0690663 0.0494119 1.18908e-19)
(-0.0714592 0.0472705 -3.66825e-19)
(-0.0728766 0.0449801 -1.28427e-19)
(-0.0733003 0.0425812 4.29387e-19)
(-0.0727088 0.0400903 -6.0935e-20)
(-0.0710757 0.0375076 7.08131e-20)
(-0.0683674 0.0348243 -2.09425e-20)
(-0.0645414 0.0320299 -5.92661e-19)
(-0.0595437 0.0291202 1.81781e-19)
(-0.0533059 0.0261105 1.38352e-19)
(-0.0457343 0.0230583 9.24542e-20)
(-0.0367095 0.0201057 -3.05961e-19)
(-0.0262274 0.0175338 -5.50083e-20)
(-0.0143082 0.0159118 2.21486e-19)
(0.00154797 0.0167656 -1.85808e-19)
(-0.00423788 0.01215 1.03528e-19)
(-0.0120993 0.0294033 7.7572e-20)
(-0.0205647 0.0413709 -2.67317e-19)
(-0.0287155 0.0493469 -1.71948e-19)
(-0.0363621 0.0542494 -1.70191e-20)
(-0.0433083 0.0568485 -2.13262e-19)
(-0.0494158 0.0577608 -2.62566e-19)
(-0.0545979 0.0574687 -1.21509e-20)
(-0.0587982 0.0563406 -4.07587e-19)
(-0.0619802 0.0546488 3.28425e-20)
(-0.0641179 0.0525871 1.54072e-19)
(-0.0651897 0.0502865 3.17339e-19)
(-0.0651741 0.0478294 -9.49408e-20)
(-0.064047 0.0452618 -2.99134e-19)
(-0.0617797 0.0426031 -1.58244e-19)
(-0.0583376 0.0398548 -2.16068e-19)
(-0.0536788 0.0370067 -3.12516e-19)
(-0.0477522 0.0340438 5.96686e-19)
(-0.0404955 0.030953 -7.17887e-20)
(-0.0318329 0.0277344 -3.79301e-19)
(-0.0216633 0.0244218 7.34211e-20)
(-0.00985405 0.0211234 7.51172e-20)
(0.00362949 0.0180647 1.42571e-20)
(0.0187589 0.0158827 9.47998e-21)
(0.0388718 0.0167872 1.61261e-19)
(-0.00473663 0.0127198 3.47318e-20)
(-0.0131632 0.0308586 5.8505e-20)
(-0.0217544 0.0434916 2.09462e-19)
(-0.0297283 0.051933 3.91938e-19)
(-0.0369477 0.0571329 2.56798e-19)
(-0.0432615 0.0598943 5.5861e-20)
(-0.0485648 0.0608643 1.24744e-19)
(-0.0527938 0.0605519 4.03979e-20)
(-0.0559069 0.0593476 3.27702e-19)
(-0.0578751 0.0575416 -1.64789e-20)
(-0.058675 0.0553415 9.83114e-20)
(-0.0582829 0.0528891 2.35256e-19)
(-0.0566723 0.0502748 -1.14919e-19)
(-0.0538111 0.0475504 4.08356e-19)
(-0.0496613 0.0447393 2.45057e-19)
(-0.0441772 0.0418451 2.55728e-19)
(-0.0373057 0.0388579 6.20533e-19)
(-0.0289843 0.0357601 -2.64825e-19)
(-0.0191405 0.0325326 -3.44616e-19)
(-0.00768998 0.0291627 1.97204e-20)
(0.00547447 0.0256608 3.65772e-19)
(0.020486 0.0220979 -2.68889e-19)
(0.0374296 0.0186313 -1.15721e-19)
(0.0560804 0.0159375 -9.0583e-21)
(0.0813238 0.0165089 -1.6128e-19)
(-0.00524365 0.0131985 -1.50878e-19)
(-0.0142514 0.0320964 -2.99397e-19)
(-0.0229758 0.0453068 4.64161e-20)
(-0.0307647 0.0541525 -3.60062e-19)
(-0.037531 0.0596087 4.60091e-20)
(-0.0431687 0.062506 1.03591e-20)
(-0.0476065 0.063518 -5.02934e-19)
(-0.0508037 0.0631774 1.02027e-19)
(-0.0527331 0.0618945 2.36087e-19)
(-0.0533735 0.0599757 -2.086e-20)
(-0.0527025 0.0576418 -2.45525e-19)
(-0.0506935 0.0550446 -1.25646e-19)
(-0.0473124 0.0522826 1.4455e-19)
(-0.0425175 0.0494138 2.59549e-20)
(-0.036258 0.0464663 2.59522e-19)
(-0.0284747 0.043447 -3.74471e-19)
(-0.0190995 0.0403478 -3.08865e-19)
(-0.00805554 0.0371514 -6.51778e-20)
(0.00474342 0.0338359 6.57342e-20)
(0.0193918 0.0303802 -6.17568e-20)
(0.0360048 0.0267763 -2.61905e-19)
(0.0546983 0.0230615 1.59587e-19)
(0.0756692 0.0193059 -2.10968e-19)
(0.0981446 0.0161379 2.39109e-19)
(0.129496 0.0163053 2.44528e-19)
(-0.00575456 0.013589 3.19676e-20)
(-0.015354 0.0331187 5.33484e-19)
(-0.0242164 0.0468144 -3.48843e-19)
(-0.0318101 0.0559976 -1.86019e-19)
(-0.038096 0.0616634 -2.28599e-19)
(-0.0430119 0.0646652 -2.01479e-19)
(-0.0465199 0.0656996 3.26991e-19)
(-0.0486021 0.0653197 -2.28994e-20)
(-0.0492457 0.0639536 -1.4325e-19)
(-0.0484357 0.0619223 1.92274e-19)
(-0.04615 0.0594584 2.3795e-20)
(-0.0423568 0.0567237 2.31785e-20)
(-0.0370127 0.0538243 -6.22646e-20)
(-0.0300631 0.0508248 -3.86242e-19)
(-0.0214418 0.0477587 -3.25403e-19)
(-0.0110723 0.0446373 2.573e-19)
(0.00113139 0.0414564 -2.49297e-19)
(0.0152644 0.0382011 3.04262e-20)
(0.0314292 0.0348503 2.20619e-19)
(0.0497318 0.0313806 -9.40884e-20)
(0.0703014 0.0277725 1.58108e-19)
(0.0932004 0.0240404 -7.17761e-20)
(0.118864 0.0201675 -1.19426e-19)
(0.145465 0.0166194 -2.37362e-19)
(0.184029 0.0164681 -5.16041e-19)
(-0.00626572 0.0138955 -2.7615e-19)
(-0.0164618 0.0339304 -1.39237e-19)
(-0.0254633 0.0480154 4.41995e-19)
(-0.0328487 0.0574644 1.63686e-19)
(-0.0386236 0.0632876 7.65442e-20)
(-0.042768 0.0663578 1.21558e-19)
(-0.0452769 0.0673908 1.39384e-19)
(-0.0461544 0.0669576 -3.76345e-19)
(-0.0454008 0.0655017 1.41497e-19)
(-0.0430064 0.0633572 -4.56751e-19)
(-0.0389475 0.0607674 2.67499e-20)
(-0.0331847 0.0579033 -3.02271e-19)
(-0.0256625 0.0548787 4.3394e-19)
(-0.0163102 0.0517651 1.04144e-19)
(-0.00504342 0.0486021 -5.45714e-20)
(0.00823495 0.0454065 -6.78276e-20)
(0.0236321 0.0421795 2.75891e-19)
(0.0412635 0.0389111 -7.22109e-20)
(0.0612499 0.0355846 3.92974e-19)
(0.0837064 0.0321788 1.40191e-19)
(0.108787 0.0286722 -2.13444e-19)
(0.136435 0.025067 -1.90157e-19)
(0.167533 0.0213032 4.86431e-19)
(0.198503 0.0175274 -1.1595e-19)
(0.245499 0.0172707 6.23358e-19)
(-0.0067742 0.0141232 3.30012e-19)
(-0.0175663 0.0345387 6.49337e-20)
(-0.0267033 0.0489144 2.0469e-19)
(-0.0338623 0.0585526 2.79627e-19)
(-0.0390903 0.0644763 -8.30024e-22)
(-0.0424076 0.067574 -2.78518e-19)
(-0.0438403 0.0685781 -9.98335e-20)
(-0.0434136 0.068075 1.69229e-19)
(-0.0411394 0.0665213 2.21272e-20)
(-0.0370112 0.0642626 3.6179e-19)
(-0.0310011 0.061552 2.56907e-19)
(-0.0230593 0.058569 2.99609e-19)
(-0.0131152 0.0554353 -2.11158e-19)
(-0.00107911 0.0522294 4.03957e-19)
(0.0131554 0.0489977 -1.43795e-19)
(0.0297083 0.045764 1.37864e-19)
(0.0487098 0.0425362 3.44249e-19)
(0.0702957 0.0393112 -3.16161e-19)
(0.0946044 0.0360795 -1.21049e-19)
(0.12175 0.0328261 -8.41489e-20)
(0.151931 0.0295375 -5.76294e-20)
(0.184854 0.0261988 2.91267e-19)
(0.222166 0.0228166 -3.26155e-19)
(0.25763 0.0189867 4.08773e-19)
(0.314269 0.0189897 8.58203e-20)
(-0.00727788 0.0142782 -2.54251e-20)
(-0.0186595 0.0349527 -2.82939e-20)
(-0.0279226 0.0495186 -5.28295e-19)
(-0.0348304 0.0592657 7.78218e-20)
(-0.0394679 0.0652282 9.8221e-20)
(-0.0418934 0.0683086 1.64929e-19)
(-0.0421622 0.0692534 4.33682e-20)
(-0.0403186 0.0686617 -2.05651e-19)
(-0.0363839 0.0670016 4.7017e-19)
(-0.030352 0.0646285 -4.53603e-19)
(-0.0221878 0.0618047 -6.58775e-19)
(-0.0118278 0.0587176 -9.23344e-21)
(0.000817239 0.0554969 9.08597e-21)
(0.0158595 0.0522287 6.58736e-20)
(0.0334294 0.0489671 2.95045e-19)
(0.0536716 0.0457439 -1.08771e-19)
(0.0767382 0.0425752 -4.69902e-19)
(0.102782 0.0394667 4.09168e-19)
(0.131953 0.0364183 1.72469e-19)
(0.164345 0.0334215 -1.86539e-19)
(0.200221 0.0304863 -3.198e-19)
(0.238887 0.0275397 -2.91148e-19)
(0.283148 0.0248489 -7.61559e-21)
(0.323064 0.0211167 6.85648e-19)
(0.390343 0.021878 -7.5807e-19)
(-0.00777534 0.0143673 -1.23229e-19)
(-0.019734 0.0351833 -1.79155e-19)
(-0.0291061 0.0498376 2.85454e-19)
(-0.0357291 0.0596102 -5.89032e-19)
(-0.0397223 0.0655467 -9.9317e-20)
(-0.0411792 0.0685618 -1.65343e-19)
(-0.0401821 0.0694144 3.26713e-20)
(-0.0367916 0.0687145 -1.0232e-19)
(-0.0310351 0.06694 -1.05595e-18)
(-0.0229038 0.064455 2.90359e-19)
(-0.0123514 0.0615299 6.11495e-19)
(0.000702954 0.0583602 8.98998e-20)
(0.0163707 0.0550837 2.33188e-19)
(0.0347889 0.0517949 -1.0982e-19)
(0.0561136 0.0485568 -5.35921e-19)
(0.0805121 0.0454103 -3.97987e-19)
(0.108154 0.0423812 4.83719e-19)
(0.1392 0.0394849 8.72049e-21)
(0.1738 0.0367327 -4.61334e-19)
(0.211988 0.0341178 3.37125e-19)
(0.254116 0.0317005 -3.79744e-19)
(0.298885 0.0292549 -8.55728e-20)
(0.350661 0.0275894 -1.24916e-19)
(0.394804 0.0240602 -3.82148e-19)
(0.473192 0.0261387 -3.3966e-19)
(-0.00826584 0.0143975 1.12702e-19)
(-0.0207828 0.035242 3.55954e-19)
(-0.0302375 0.0498831 -4.01313e-19)
(-0.0365305 0.0595959 4.86657e-19)
(-0.0398122 0.0654388 4.79856e-19)
(-0.0402084 0.0683387 2.17954e-19)
(-0.0378248 0.0690654 -2.30421e-19)
(-0.032735 0.0682384 3.00486e-19)
(-0.024969 0.0663437 7.03657e-19)
(-0.0145104 0.0637535 -3.6983e-19)
(-0.00129791 0.0607459 8.85402e-20)
(0.0147706 0.0575247 -4.39202e-19)
(0.0338319 0.0542364 -7.49834e-20)
(0.0560491 0.0509849 -5.60451e-19)
(0.0816018 0.0478431 6.05434e-19)
(0.110675 0.0448623 -6.74206e-20)
(0.143445 0.0420789 -1.02032e-19)
(0.18006 0.0395181 -9.59512e-20)
(0.220645 0.0372041 1.8518e-19)
(0.26513 0.0351198 -3.14088e-19)
(0.313958 0.0334174 2.61108e-19)
(0.365023 0.0315714 6.0006e-20)
(0.424536 0.0312583 -6.61672e-20)
(0.472514 0.0279991 -2.56033e-19)
(0.561612 0.031902 2.99648e-19)
(-0.00874909 0.0143757 2.695e-20)
(-0.0217985 0.0351408 -5.11082e-19)
(-0.0312981 0.0496682 5.3622e-20)
(-0.0372021 0.0592351 -4.22117e-19)
(-0.0396886 0.064916 -2.20311e-19)
(-0.0389122 0.0676504 1.79669e-19)
(-0.0349986 0.0682182 -7.00967e-20)
(-0.0280299 0.0672472 -6.86169e-20)
(-0.0180337 0.0652312 -2.61301e-19)
(-0.00498183 0.0625494 2.69109e-19)
(0.0112069 0.0594881 -7.05051e-19)
(0.0306593 0.0562595 3.64719e-19)
(0.0535387 0.05302 6.04926e-19)
(0.0800325 0.0498839 1.81248e-20)
(0.110338 0.0469352 1.44453e-19)
(0.144644 0.0442363 2.33794e-19)
(0.183114 0.0418343 9.08308e-20)
(0.225853 0.0397624 2.29552e-19)
(0.272925 0.0380587 -1.7408e-19)
(0.324089 0.0366739 8.54284e-19)
(0.379853 0.0359048 9.5889e-19)
(0.437179 0.0347604 6.46141e-19)
(0.504104 0.0360625 3.79021e-19)
(0.555393 0.0331369 6.16112e-19)
(0.653635 0.0391973 -2.37937e-19)
(-0.0092251 0.0143084 3.6441e-20)
(-0.0227731 0.0348918 2.73923e-19)
(-0.0322667 0.0492067 5.34954e-19)
(-0.0377055 0.0585425 1.06368e-19)
(-0.0392929 0.0639937 3.57725e-19)
(-0.0372084 0.0665137 -5.48938e-19)
(-0.0315934 0.0668921 3.36812e-19)
(-0.0225333 0.0657651 -1.15997e-19)
(-0.0100481 0.0636334 9.03354e-19)
(0.0059076 0.0608838 -5.97779e-19)
(0.0254386 0.0578106 1.59462e-19)
(0.0486985 0.0546358 -2.88615e-19)
(0.0758755 0.0515265 -7.99203e-19)
(0.107175 0.0486086 -5.12431e-19)
(0.142797 0.0459777 -2.14647e-19)
(0.182913 0.0437071 7.49707e-20)
(0.227639 0.0418526 8.6103e-20)
(0.276991 0.0404513 -1.23875e-19)
(0.330918 0.0395529 -2.377e-19)
(0.388942 0.0390497 -7.72308e-19)
(0.451541 0.0394218 -6.13936e-19)
(0.514791 0.0390999 -4.21548e-19)
(0.588091 0.042142 -2.31503e-19)
(0.642045 0.0396425 5.38549e-19)
(0.746579 0.0479213 -6.64379e-19)
(-0.00969391 0.0142017 2.36779e-19)
(-0.0236975 0.0345061 1.02835e-19)
(-0.0331184 0.048513 -1.69228e-19)
(-0.037996 0.0575349 -1.45205e-19)
(-0.0385565 0.0626912 -2.26743e-19)
(-0.0350005 0.064951 2.15489e-19)
(-0.0274797 0.065115 -6.44426e-21)
(-0.0160774 0.0638272 2.88467e-19)
(-0.000800138 0.0615956 -5.81395e-19)
(0.0184194 0.0588149 6.31608e-19)
(0.0417123 0.0557887 8.18068e-20)
(0.0692578 0.0527498 9.26922e-21)
(0.101262 0.0498769 4.89549e-19)
(0.137934 0.047308 3.3344e-19)
(0.179453 0.0451498 1.08744e-19)
(0.225937 0.0434839 1.99004e-19)
(0.277404 0.0423706 -4.4512e-19)
(0.33372 0.0418421 1.00391e-19)
(0.394643 0.0419526 -5.961e-19)
(0.459404 0.0425126 9.01509e-19)
(0.528285 0.044178 1.14174e-20)
(0.596736 0.0448178 -1.72082e-20)
(0.674604 0.0495266 -1.90131e-19)
(0.730415 0.0475744 -6.46877e-19)
(0.837272 0.0578118 -3.54749e-19)
(-0.0101553 0.0140605 -5.54798e-19)
(-0.0245609 0.033994 -1.06042e-19)
(-0.0338242 0.0476015 5.15452e-20)
(-0.0380215 0.0562307 1.62773e-19)
(-0.0373996 0.0610314 1.12973e-19)
(-0.0321763 0.0629914 -9.4485e-20)
(-0.0225077 0.0629235 -5.51106e-20)
(-0.008469 0.0614803 4.65587e-19)
(0.00995207 0.0591779 -1.14378e-19)
(0.0328482 0.05642 -1.03915e-19)
(0.0603767 0.0535205 1.92864e-19)
(0.092736 0.050724 1.52103e-19)
(0.130136 0.0482215 -1.9276e-19)
(0.172764 0.0461622 -6.95461e-19)
(0.220739 0.0446611 1.2254e-19)
(0.274073 0.0438025 -1.50767e-20)
(0.332621 0.0436424 -7.84995e-20)
(0.396025 0.0441953 1.15544e-19)
(0.463758 0.0455027 9.40533e-19)
(0.534728 0.0472868 -1.89774e-19)
(0.608817 0.0502973 -3.90941e-19)
(0.681276 0.0520281 -5.25015e-20)
(0.761241 0.0581129 4.5861e-19)
(0.817866 0.0568196 3.87661e-19)
(0.922439 0.0684501 1.05057e-19)
(-0.0106084 0.0138887 2.1686e-19)
(-0.0253496 0.0333637 -2.72892e-19)
(-0.0343503 0.0464864 1.96501e-20)
(-0.0377218 0.0546493 1.72516e-19)
(-0.0357309 0.0590405 3.08654e-19)
(-0.0286075 0.0606697 1.48922e-19)
(-0.0165071 0.0603631 -1.7083e-19)
(0.000509571 0.0587835 5.22671e-20)
(0.0224779 0.0564563 3.36277e-19)
(0.0495167 0.0537954 -4.09891e-19)
(0.0818041 0.0511266 1.13046e-19)
(0.119544 0.0487067 -3.83321e-19)
(0.162925 0.046738 5.46936e-19)
(0.212071 0.0453779 3.27583e-19)
(0.266989 0.0447433 -2.24065e-19)
(0.327513 0.0449116 -2.27279e-20)
(0.393253 0.0459196 -2.75233e-19)
(0.463543 0.0477473 2.36849e-19)
(0.537484 0.0503947 1.26637e-19)
(0.613649 0.0535113 2.10153e-19)
(0.691351 0.0577926 -7.85344e-19)
(0.766122 0.0606791 6.09024e-19)
(0.845313 0.0676601 -8.92404e-19)
(0.90144 0.067076 4.40126e-19)
(0.999162 0.0793019 2.52068e-19)
(-0.0110516 0.0136888 -2.51091e-19)
(-0.0260476 0.0326224 5.86983e-19)
(-0.0346567 0.0451803 -1.2899e-19)
(-0.0370281 0.0528111 -6.37664e-19)
(-0.0334465 0.0567483 2.82424e-19)
(-0.0241504 0.0580269 -2.83612e-19)
(-0.00928826 0.0574887 -2.37601e-19)
(0.0110981 0.0558085 -2.64508e-19)
(0.0370692 0.0535228 3.05839e-19)
(0.0687663 0.0510573 3.92202e-19)
(0.106375 0.0487502 -3.32894e-19)
(0.150081 0.0468699 2.79603e-19)
(0.200011 0.045627 3.11967e-20)
(0.25617 0.0451802 -1.32037e-19)
(0.318378 0.0456376 3.96714e-19)
(0.386207 0.0470536 -5.95619e-19)
(0.458931 0.0494255 3.51578e-19)
(0.535498 0.0526785 -2.5107e-19)
(0.614571 0.0567341 -8.82993e-20)
(0.694406 0.0612007 9.53661e-19)
(0.773687 0.0665522 9.91255e-19)
(0.848633 0.0705386 1.92507e-19)
(0.924141 0.0778064 -4.66031e-19)
(0.978271 0.0778925 -2.70538e-19)
(1.06527 0.0897952 1.23457e-19)
(-0.0114819 0.0134621 3.05708e-19)
(-0.026635 0.031775 -6.19476e-19)
(-0.0346976 0.043695 2.29433e-19)
(-0.0358625 0.0507374 4.86626e-19)
(-0.0304309 0.0541877 -4.08448e-19)
(-0.0186458 0.0551097 3.17146e-19)
(-0.000644203 0.0543639 -3.88804e-19)
(0.0235542 0.0526392 3.50379e-20)
(0.0540328 0.050485 -2.02425e-19)
(0.0909442 0.04834 -2.42903e-19)
(0.13446 0.0465544 5.88275e-20)
(0.184706 0.0454052 -5.03754e-19)
(0.241691 0.0451045 3.5359e-19)
(0.305228 0.0458008 -9.55592e-21)
(0.37486 0.0475764 -7.47683e-20)
(0.449801 0.0504409 -2.8361e-20)
(0.528907 0.0543266 4.82659e-20)
(0.61068 0.0590815 6.96606e-19)
(0.693335 0.0645148 -1.05561e-18)
(0.774855 0.0702239 4.74233e-19)
(0.853414 0.0763404 -1.07251e-18)
(0.92613 0.0812214 -3.78193e-20)
(0.995388 0.0881086 4.6585e-20)
(1.04603 0.0887667 3.39023e-19)
(1.11957 0.0994132 2.50738e-19)
(-0.0118946 0.0132081 1.45331e-19)
(-0.0270877 0.0308237 1.20033e-19)
(-0.0344206 0.0420413 -6.6914e-19)
(-0.0341379 0.0484502 -6.45931e-20)
(-0.0265567 0.0513944 -1.92411e-19)
(-0.0119213 0.0519709 -7.52842e-20)
(0.00964622 0.0510614 1.14454e-18)
(0.0381472 0.0493715 -4.17074e-19)
(0.0736797 0.0474652 -8.24046e-20)
(0.116387 0.0457943 2.65796e-19)
(0.16639 0.0447184 -7.16456e-20)
(0.223699 0.0445167 1.85626e-19)
(0.288131 0.045391 -1.30486e-19)
(0.359212 0.0474621 -9.74308e-21)
(0.436111 0.0507628 -2.31911e-19)
(0.517595 0.0552308 7.7111e-20)
(0.602038 0.0607055 1.86495e-19)
(0.687487 0.0669371 -2.05687e-19)
(0.771763 0.0736042 3.35843e-19)
(0.852677 0.0803092 -3.59195e-19)
(0.928161 0.0868198 2.10503e-19)
(0.99625 0.0922465 3.06255e-19)
(1.05735 0.0981144 2.55576e-20)
(1.10321 0.0992795 -5.70952e-20)
(1.16179 0.107757 -4.38414e-19)
(-0.0122833 0.012925 -5.58107e-20)
(-0.0273768 0.0297691 1.87178e-19)
(-0.0337663 0.0402289 4.76355e-19)
(-0.0317584 0.0459718 9.97418e-20)
(-0.021686 0.0484072 6.48434e-20)
(-0.00379288 0.0486685 -1.24181e-20)
(0.0218137 0.0476622 -5.39098e-19)
(0.0551504 0.0461124 -1.2118e-19)
(0.0963125 0.0445986 1.34659e-19)
(0.145402 0.043584 -7.9198e-20)
(0.202432 0.0434319 6.98085e-19)
(0.267229 0.0444122 -7.04392e-20)
(0.339319 0.0466983 3.3725e-19)
(0.417842 0.0503587 5.81067e-19)
(0.501496 0.0553475 -3.21952e-19)
(0.588534 0.061501 1.26646e-19)
(0.67683 0.0685403 3.1128e-19)
(0.764028 0.0761042 -1.05514e-19)
(0.847698 0.0837469 -8.00403e-19)
(0.925636 0.0910783 1.65024e-20)
(0.99588 0.0975924 3.03877e-19)
(1.05726 0.103104 -2.78361e-19)
(1.10918 0.107468 3.08464e-19)
(1.14924 0.109198 -2.56402e-19)
(1.19241 0.114479 -2.95276e-19)
(-0.0126385 0.012609 -2.48607e-19)
(-0.027469 0.0286106 9.73315e-20)
(-0.0326684 0.0382667 -4.96716e-20)
(-0.0286193 0.0433256 -3.9792e-19)
(-0.0156717 0.0452675 3.06996e-19)
(0.00593112 0.0452663 1.16665e-19)
(0.0360926 0.0442553 -3.0259e-19)
(0.074831 0.0429788 4.00527e-19)
(0.12221 0.0420311 -1.99401e-19)
(0.17824 0.0418818 -3.68042e-19)
(0.24276 0.0428877 -1.04745e-18)
(0.315312 0.0452916 4.01322e-19)
(0.39503 0.0492134 -7.26841e-19)
(0.480563 0.0546381 -2.77854e-20)
(0.570062 0.0614087 -8.15709e-20)
(0.661241 0.0692319 1.03461e-19)
(0.751531 0.0776957 -2.45895e-19)
(0.838297 0.0863274 -1.00238e-19)
(0.919066 0.0945895 3.42105e-19)
(0.991837 0.102102 -3.87574e-19)
(1.05508 0.10825 -4.53793e-19)
(1.10829 0.113328 6.52955e-19)
(1.1509 0.116026 -4.30275e-19)
(1.18428 0.118363 -4.74388e-20)
(1.21254 0.119062 -1.05947e-19)
(-0.0129491 0.0122569 -1.44836e-19)
(-0.0273249 0.0273458 -1.74112e-19)
(-0.0310538 0.0361627 2.90005e-19)
(-0.0246087 0.0405358 2.06314e-20)
(-0.00835975 0.0420202 -5.48477e-19)
(0.0174466 0.0418332 -7.89684e-19)
(0.0527141 0.0409368 2.51696e-19)
(0.0974388 0.0400958 -3.17593e-19)
(0.15161 0.0399158 3.03527e-19)
(0.215079 0.0408638 -2.89982e-19)
(0.287419 0.0432732 6.87398e-19)
(0.367781 0.0473347 -9.88932e-20)
(0.454797 0.0530825 3.30714e-19)
(0.546536 0.0603827 4.76147e-19)
(0.640568 0.0689357 -5.13501e-19)
(0.734111 0.0782999 -5.3961e-19)
(0.824277 0.0879308 3.61325e-20)
(0.908363 0.0972649 1.1651e-19)
(0.984099 0.105725 -1.17029e-19)
(1.04992 0.112962 5.49681e-19)
(1.10496 0.118416 6.6856e-19)
(1.1493 0.122583 -7.53299e-19)
(1.18319 0.123858 1.05657e-19)
(1.20914 0.126213 1.92745e-19)
(1.22389 0.120937 -2.86093e-19)
(-0.0132027 0.0118641 4.14722e-19)
(-0.0269 0.0259706 2.83857e-19)
(-0.0288428 0.0339253 -4.34539e-19)
(-0.0196079 0.0376282 2.87858e-19)
(0.000408662 0.0387135 1.86273e-19)
(0.030949 0.0384434 9.0939e-19)
(0.0718981 0.0378096 6.0554e-19)
(0.123194 0.0375953 -3.02824e-21)
(0.18469 0.0384097 -2.27107e-19)
(0.255995 0.0407027 6.33495e-19)
(0.336304 0.0447599 -6.74453e-19)
(0.424264 0.0506874 2.73995e-19)
(0.517903 0.0583953 2.11519e-19)
(0.614663 0.0675959 -6.57502e-19)
(0.711557 0.077823 5.01313e-20)
(0.805428 0.0884835 7.62217e-19)
(0.893275 0.0989229 9.13075e-20)
(0.972577 0.10853 1.03883e-19)
(1.04152 0.116749 4.84614e-19)
(1.09919 0.123306 -3.22614e-19)
(1.14545 0.127789 -6.03185e-19)
(1.181 0.13075 4.93203e-19)
(1.20703 0.130958 -1.20507e-18)
(1.22497 0.13181 5.45756e-19)
(1.23625 0.126201 -1.61985e-19)
(-0.0133832 0.0114249 -4.62278e-19)
(-0.0261456 0.0244817 -5.08194e-19)
(-0.0259497 0.0315639 1.07427e-19)
(-0.0134933 0.0346312 1.5725e-19)
(0.0107939 0.0353995 -2.04089e-19)
(0.0466276 0.0351767 -8.9069e-19)
(0.0938449 0.0349827 -2.49399e-19)
(0.152273 0.0356133 6.16615e-19)
(0.221552 0.0376692 8.98221e-21)
(0.30094 0.0415606 -2.91804e-19)
(0.389138 0.0474933 5.53913e-19)
(0.484173 0.0554485 -8.41974e-20)
(0.583402 0.0651731 9.47673e-19)
(0.683644 0.0761953 1.89219e-19)
(0.781463 0.0878745 -2.2653e-19)
(0.873523 0.0994845 -2.86899e-19)
(0.956967 0.110306 4.32504e-20)
(1.02972 0.119737 1.97199e-19)
(1.09064 0.127311 3.81865e-19)
(1.13956 0.132874 4.91219e-20)
(1.17708 0.136188 -5.14981e-20)
(1.20452 0.137891 -1.89271e-19)
(1.22342 0.137011 5.78549e-19)
(1.23548 0.136671 8.62874e-20)
(1.24263 0.130658 4.95506e-19)
(-0.0134723 0.0109337 -1.77735e-20)
(-0.025008 0.0228766 1.75406e-19)
(-0.022284 0.0290894 2.52967e-19)
(-0.0061379 0.0315763 -3.89834e-19)
(0.0229547 0.0321352 5.4938e-20)
(0.0646602 0.0321185 1.8101e-19)
(0.118725 0.0325699 -1.26892e-19)
(0.184797 0.034288 -6.14466e-20)
(0.262202 0.0378451 1.20167e-19)
(0.349729 0.0435811 -2.97257e-19)
(0.44546 0.0515815 -5.25114e-19)
(0.546714 0.0616592 -2.70654e-19)
(0.650155 0.0733611 -1.97313e-19)
(0.752063 0.0860158 -6.03867e-19)
(0.848736 0.0988213 2.09457e-19)
(0.936919 0.110961 -7.84087e-22)
(1.01417 0.121712 -3.90302e-19)
(1.07909 0.130551 6.07451e-20)
(1.13133 0.13715 1.74232e-19)
(1.1715 0.14151 4.60748e-23)
(1.20084 0.143576 5.19641e-20)
(1.22112 0.14405 4.86475e-19)
(1.23412 0.14219 -5.42578e-19)
(1.24152 0.140867 -5.99002e-19)
(1.24532 0.134526 -1.23548e-19)
(-0.0134496 0.0103855 5.44491e-19)