/*--------------------------------*- C++ -*----------------------------------*\
  =========                 |
  \\      /  F ield         | OpenFOAM: The Open Source CFD Toolbox
   \\    /   O peration     | Website:  https://openfoam.org
    \\  /    A nd           | Version:  7
     \\/     M anipulation  |
\*---------------------------------------------------------------------------*/
FoamFile
{
    version     2.0;
    format      ascii;
    class       volScalarField;
    location    "5.001";
    object      p;
}
// * * * * * * * * * * * * * * * * * * * * * * * * * * * * * * * * * * * * * //

dimensions      [0 2 -2 0 0 0 0];

internalField   nonuniform List<scalar> 
3700
(
-0.33617
-0.345824
-0.351056
-0.359484
-0.370679
-0.384623
-0.400834
-0.418555
-0.436707
-0.453864
-0.468295
-0.478041
-0.480954
-0.474857
-0.458597
-0.337513
-0.34687
-0.352066
-0.360477
-0.371691
-0.385689
-0.402
-0.419876
-0.438248
-0.455704
-0.470516
-0.480723
-0.484211
-0.478747
-0.46276
-0.340103
-0.348879
-0.353999
-0.362366
-0.373601
-0.387685
-0.404162
-0.422304
-0.441061
-0.459039
-0.474525
-0.485545
-0.490017
-0.485814
-0.470154
-0.343766
-0.351701
-0.356692
-0.364967
-0.376195
-0.390355
-0.407008
-0.42545
-0.444656
-0.463254
-0.479553
-0.491573
-0.497141
-0.4948
-0.479209
-0.348259
-0.35513
-0.359925
-0.368035
-0.379189
-0.393359
-0.410126
-0.428808
-0.448407
-0.467574
-0.48464
-0.497698
-0.504131
-0.504218
-0.488359
-0.353304
-0.358936
-0.363451
-0.371293
-0.382261
-0.396318
-0.413061
-0.431831
-0.451652
-0.471201
-0.488802
-0.502847
-0.509588
-0.512587
-0.495675
-0.358611
-0.362887
-0.367022
-0.374461
-0.38509
-0.39886
-0.415378
-0.434006
-0.453788
-0.473449
-0.491214
-0.506143
-0.512549
-0.51808
-0.501127
-0.363909
-0.366771
-0.370415
-0.377295
-0.387394
-0.40066
-0.416711
-0.434924
-0.454358
-0.473833
-0.491385
-0.506697
-0.513015
-0.519827
-0.503143
-0.368962
-0.370421
-0.373458
-0.379605
-0.388962
-0.401484
-0.416807
-0.434328
-0.453121
-0.472089
-0.489146
-0.504513
-0.510368
-0.518148
-0.501573
-0.373584
-0.373711
-0.376048
-0.381279
-0.389675
-0.401216
-0.415555
-0.432124
-0.450018
-0.468251
-0.484573
-0.499743
-0.505014
-0.513197
-0.496748
-0.377657
-0.376593
-0.378124
-0.382283
-0.389512
-0.399848
-0.412988
-0.428409
-0.445223
-0.462568
-0.47802
-0.492807
-0.497553
-0.505308
-0.489075
-0.381125
-0.379052
-0.379707
-0.382662
-0.388551
-0.397502
-0.409287
-0.423438
-0.439088
-0.455461
-0.470074
-0.484185
-0.488515
-0.494894
-0.478836
-0.383992
-0.381119
-0.380861
-0.382525
-0.386954
-0.394405
-0.404748
-0.417585
-0.432075
-0.447462
-0.461255
-0.474404
-0.478243
-0.482381
-0.466165
-0.386316
-0.382861
-0.381687
-0.382027
-0.384942
-0.39085
-0.399744
-0.411297
-0.424672
-0.439092
-0.452013
-0.463864
-0.466843
-0.468183
-0.451255
-0.388206
-0.384369
-0.382308
-0.381347
-0.382767
-0.387166
-0.394671
-0.405
-0.417358
-0.430749
-0.442629
-0.452751
-0.454296
-0.452679
-0.43457
-0.389808
-0.385752
-0.382859
-0.380671
-0.380682
-0.383674
-0.3899
-0.399115
-0.410456
-0.422666
-0.433191
-0.441049
-0.440627
-0.436202
-0.416816
-0.391295
-0.38713
-0.383481
-0.380181
-0.378924
-0.380655
-0.385732
-0.39389
-0.404143
-0.41489
-0.42363
-0.428668
-0.425989
-0.419019
-0.398671
-0.392861
-0.388635
-0.384313
-0.380045
-0.37769
-0.378322
-0.382364
-0.389456
-0.398439
-0.40734
-0.413818
-0.415612
-0.410626
-0.401184
-0.380511
-0.394701
-0.390397
-0.38549
-0.380405
-0.377131
-0.376818
-0.379878
-0.385807
-0.393231
-0.399881
-0.40367
-0.402091
-0.394854
-0.382575
-0.36237
-0.397
-0.39254
-0.387128
-0.381371
-0.377336
-0.376182
-0.378241
-0.382823
-0.388339
-0.392395
-0.393213
-0.388488
-0.3791
-0.363591
-0.344214
-0.399911
-0.395172
-0.389318
-0.383005
-0.378324
-0.376368
-0.377331
-0.380317
-0.38358
-0.384807
-0.382582
-0.375154
-0.363826
-0.346114
-0.326397
-0.403544
-0.398382
-0.392118
-0.385325
-0.380053
-0.377263
-0.376972
-0.378088
-0.378805
-0.377099
-0.371965
-0.362272
-0.349236
-0.331009
-0.311585
-0.407976
-0.402223
-0.395549
-0.388306
-0.382434
-0.378719
-0.376971
-0.375939
-0.373909
-0.369302
-0.361529
-0.349951
-0.335737
-0.317377
-0.298349
-0.413256
-0.406715
-0.399613
-0.391895
-0.385357
-0.380581
-0.377139
-0.373706
-0.368837
-0.361475
-0.351381
-0.338291
-0.32321
-0.304959
-0.286773
-0.419397
-0.411867
-0.404295
-0.396031
-0.388716
-0.382699
-0.377295
-0.371262
-0.363573
-0.353671
-0.341586
-0.327273
-0.31158
-0.293546
-0.276016
-0.426389
-0.417683
-0.40958
-0.400655
-0.392422
-0.384926
-0.377279
-0.368525
-0.358121
-0.345932
-0.33215
-0.316854
-0.300699
-0.282886
-0.265951
-0.434209
-0.424167
-0.415452
-0.405725
-0.396391
-0.387109
-0.376964
-0.365447
-0.352494
-0.338274
-0.323053
-0.306949
-0.290429
-0.272836
-0.256337
-0.442832
-0.431321
-0.421895
-0.41121
-0.400521
-0.389099
-0.376253
-0.362008
-0.346703
-0.330693
-0.314243
-0.297463
-0.280641
-0.26324
-0.247085
-0.452227
-0.439145
-0.428892
-0.417074
-0.404685
-0.390761
-0.375078
-0.358197
-0.340747
-0.323161
-0.305656
-0.288298
-0.271217
-0.253989
-0.238091
-0.462355
-0.447621
-0.436413
-0.423249
-0.408727
-0.391974
-0.373393
-0.354006
-0.334613
-0.315639
-0.297219
-0.279359
-0.262054
-0.244979
-0.229281
-0.473161
-0.456706
-0.444414
-0.429615
-0.412482
-0.392635
-0.371161
-0.349422
-0.328277
-0.308075
-0.288858
-0.270558
-0.253059
-0.236128
-0.220585
-0.484564
-0.466326
-0.452824
-0.435994
-0.415782
-0.392657
-0.368349
-0.344425
-0.321701
-0.300412
-0.280496
-0.261811
-0.244153
-0.227359
-0.211941
-0.496451
-0.476372
-0.461522
-0.442167
-0.418462
-0.391961
-0.364923
-0.338983
-0.31484
-0.292589
-0.272061
-0.253043
-0.235263
-0.218606
-0.203297
-0.508664
-0.486704
-0.470323
-0.447892
-0.420369
-0.390471
-0.360841
-0.333057
-0.307643
-0.284541
-0.263485
-0.244185
-0.226323
-0.20981
-0.194605
-0.521
-0.49715
-0.478976
-0.452924
-0.421356
-0.388116
-0.356057
-0.326598
-0.300053
-0.276208
-0.254701
-0.235175
-0.217276
-0.200917
-0.185821
-0.53321
-0.507502
-0.487173
-0.457019
-0.421287
-0.384822
-0.350518
-0.319554
-0.292013
-0.26753
-0.245652
-0.225958
-0.208068
-0.191878
-0.176905
-0.545002
-0.517518
-0.494572
-0.459944
-0.420035
-0.380515
-0.344168
-0.311868
-0.283465
-0.258448
-0.236281
-0.216484
-0.198656
-0.18265
-0.167826
-0.556053
-0.526913
-0.50082
-0.461476
-0.41748
-0.375123
-0.336945
-0.303484
-0.274354
-0.24891
-0.22654
-0.20671
-0.188998
-0.173204
-0.15857
-0.566021
-0.535366
-0.505581
-0.461411
-0.413513
-0.368573
-0.32879
-0.294345
-0.264627
-0.238868
-0.216385
-0.196596
-0.179061
-0.163521
-0.149146
-0.574553
-0.542521
-0.508544
-0.459566
-0.408033
-0.360797
-0.319644
-0.284398
-0.254235
-0.228277
-0.205776
-0.186106
-0.16881
-0.153584
-0.139565
-0.581297
-0.548003
-0.509438
-0.455783
-0.40095
-0.35173
-0.309452
-0.273594
-0.243136
-0.217101
-0.19468
-0.175207
-0.158216
-0.143365
-0.129787
-0.585914
-0.551435
-0.508032
-0.449934
-0.392185
-0.341314
-0.298167
-0.261892
-0.231295
-0.205309
-0.18307
-0.163876
-0.147254
-0.13282
-0.119689
-0.588085
-0.552458
-0.504133
-0.441917
-0.381674
-0.329502
-0.285748
-0.249258
-0.218683
-0.192875
-0.170922
-0.152094
-0.135915
-0.121929
-0.109112
-0.587518
-0.550759
-0.497574
-0.431657
-0.369368
-0.316255
-0.272163
-0.235666
-0.205277
-0.179778
-0.15822
-0.139848
-0.124195
-0.110717
-0.0980376
-0.583954
-0.546073
-0.488218
-0.419099
-0.355235
-0.301547
-0.257387
-0.221091
-0.191058
-0.16601
-0.144962
-0.127145
-0.112092
-0.0991591
-0.0868044
-0.577173
-0.538186
-0.475969
-0.404212
-0.339256
-0.285359
-0.241402
-0.205518
-0.176013
-0.151588
-0.131164
-0.114017
-0.0996483
-0.0871566
-0.0754656
-0.566994
-0.52694
-0.460772
-0.386987
-0.321428
-0.267682
-0.224201
-0.188959
-0.160158
-0.136544
-0.116844
-0.100448
-0.0868075
-0.0748279
-0.0639365
-0.553281
-0.512236
-0.44261
-0.367434
-0.301755
-0.248518
-0.205816
-0.171463
-0.143582
-0.120815
-0.101994
-0.0864484
-0.0735853
-0.0622172
-0.0521839
-0.535943
-0.494026
-0.421502
-0.345586
-0.280254
-0.227915
-0.186321
-0.153044
-0.126228
-0.104463
-0.0866347
-0.0720358
-0.0600126
-0.0493416
-0.0402113
-0.514934
-0.472317
-0.397511
-0.321502
-0.256982
-0.205985
-0.165702
-0.133711
-0.108132
-0.0875236
-0.0707982
-0.0572362
-0.0461218
-0.0362169
-0.0280384
-0.490258
-0.447165
-0.370739
-0.29527
-0.232069
-0.182713
-0.144002
-0.113514
-0.0893408
-0.0700338
-0.0545219
-0.0420838
-0.0319464
-0.0228695
-0.0156948
-0.461965
-0.418684
-0.341308
-0.266984
-0.205588
-0.158155
-0.121289
-0.0925103
-0.0699082
-0.0520384
-0.0378482
-0.0266181
-0.0175235
-0.00933722
-0.00322197
-0.430165
-0.387078
-0.309271
-0.236751
-0.177617
-0.132413
-0.0976429
-0.0707697
-0.0498944
-0.0335896
-0.0208249
-0.0108827
-0.00289458
0.00433447
0.00933154
-0.395022
-0.352632
-0.274574
-0.204744
-0.14828
-0.1056
-0.0731528
-0.0483687
-0.0293667
-0.0147467
-0.00350547
0.00507432
0.0118975
0.0181014
0.0219291
-0.35673
-0.315502
-0.237567
-0.171033
-0.117712
-0.077836
-0.0479194
-0.0253926
-0.00839934
0.00442433
0.0140502
0.0212016
0.0268119
0.0319282
0.0345481
-0.315486
-0.275362
-0.199054
-0.135871
-0.0860586
-0.0492494
-0.0220523
-0.00193441
0.0129272
0.0238516
0.0317779
0.0374461
0.0418071
0.0457653
0.0470957
-0.271548
-0.232589
-0.159202
-0.0995349
-0.0534854
-0.0199758
0.00433101
0.0219061
0.0345268
0.0434597
0.0496146
0.05376
0.0568266
0.0594717
0.0592703
-0.225172
-0.187755
-0.118034
-0.0622474
-0.0201751
0.00983973
0.0311065
0.0460227
0.0563082
0.0631724
0.0675055
0.0701062
0.0717866
0.0727727
0.0706473
-0.176641
-0.141358
-0.0757307
-0.024214
0.0136841
0.0400431
0.0581436
0.0703033
0.0781755
0.082913
0.0854004
0.0864463
0.0865943
0.0854688
0.0811953
-0.126414
-0.0937058
-0.0325541
0.0143514
0.0479002
0.0704728
0.0853057
0.0946311
0.10003
0.102603
0.103237
0.102702
0.10116
0.097772
0.0919643
-0.0748938
-0.045131
0.0112045
0.0532209
0.0822762
0.100962
0.112451
0.118885
0.121769
0.122157
0.120928
0.118744
0.115369
0.10992
0.105663
-0.0224899
0.00401034
0.0552409
0.0921553
0.11661
0.13134
0.139435
0.142943
0.143291
0.141489
0.138377
0.134455
0.129269
0.122485
0.118943
0.0303738
0.053352
0.0992465
0.130908
0.150697
0.161431
0.16611
0.166678
0.164489
0.160504
0.155497
0.149823
0.143
0.135223
0.131363
0.0832692
0.102521
0.142911
0.16923
0.184327
0.191061
0.192326
0.189965
0.185256
0.179103
0.172203
0.164802
0.156494
0.147817
0.143183
0.135772
0.151139
0.185925
0.20687
0.217293
0.220054
0.217935
0.212677
0.205483
0.197191
0.188421
0.179348
0.169653
0.160043
0.15442
0.187461
0.198826
0.227982
0.24358
0.249387
0.248235
0.242789
0.23469
0.225061
0.214675
0.204076
0.193394
0.182385
0.171816
0.165113
0.237915
0.245214
0.268781
0.279113
0.280405
0.275432
0.266744
0.255879
0.243883
0.231463
0.219093
0.206869
0.194601
0.183061
0.175246
0.286722
0.289949
0.30803
0.313233
0.310148
0.301477
0.289657
0.276123
0.261847
0.247467
0.233397
0.219703
0.206231
0.193731
0.184795
0.333483
0.332688
0.345449
0.345708
0.338424
0.326211
0.311391
0.295307
0.278853
0.262603
0.246913
0.231825
0.217212
0.203776
0.193729
0.377817
0.373106
0.38077
0.37632
0.365049
0.349476
0.331817
0.313319
0.294806
0.276789
0.259572
0.243174
0.227488
0.213151
0.20202
0.419362
0.410895
0.41374
0.404859
0.389849
0.371129
0.35081
0.330054
0.309616
0.289949
0.271307
0.25369
0.237006
0.221815
0.209638
0.457778
0.445768
0.444124
0.431133
0.412661
0.39103
0.368254
0.345412
0.323198
0.30201
0.282055
0.263318
0.245719
0.229729
0.216558
0.492754
0.477463
0.471703
0.45496
0.433336
0.409054
0.384042
0.359305
0.335477
0.312905
0.291758
0.272009
0.253581
0.236857
0.222759
0.524004
0.505738
0.496282
0.476179
0.451736
0.425087
0.398078
0.371648
0.34638
0.322575
0.300366
0.279716
0.260553
0.243167
0.22822
0.551276
0.530381
0.517685
0.494645
0.467741
0.439025
0.410275
0.382369
0.355846
0.330966
0.307833
0.286399
0.266599
0.24863
0.232926
0.574347
0.551207
0.535759
0.51023
0.481244
0.45078
0.420556
0.391403
0.363819
0.338031
0.314117
0.292024
0.271687
0.25322
0.236865
0.593032
0.568058
0.550376
0.522829
0.492155
0.460275
0.428859
0.398697
0.370254
0.343732
0.319185
0.296561
0.27579
0.256918
0.240026
0.60718
0.580808
0.56143
0.532354
0.500403
0.467451
0.435132
0.404205
0.375113
0.348035
0.323011
0.299984
0.278887
0.259706
0.242402
0.616676
0.589362
0.568844
0.538741
0.505932
0.472261
0.439336
0.407896
0.378368
0.350917
0.325573
0.302277
0.280961
0.261571
0.243988
0.621443
0.593655
0.572564
0.541945
0.508706
0.474673
0.441445
0.409748
0.380001
0.352363
0.326857
0.303426
0.282001
0.262506
0.244782
-0.430748
-0.384848
-0.329384
-0.436416
-0.390592
-0.33517
-0.446526
-0.400975
-0.345755
-0.459019
-0.414128
-0.359512
-0.471894
-0.427973
-0.374702
-0.48365
-0.440535
-0.388948
-0.326473
-0.490405
-0.451269
-0.401392
-0.340767
-0.493197
-0.458338
-0.41094
-0.352859
-0.491578
-0.460919
-0.416917
-0.361999
-0.485713
-0.459163
-0.419104
-0.367641
-0.47621
-0.453281
-0.417573
-0.369873
-0.463718
-0.44373
-0.412474
-0.368874
-0.317901
-0.448751
-0.431147
-0.404258
-0.364957
-0.318266
-0.431872
-0.41636
-0.393556
-0.358617
-0.316434
-0.41385
-0.400327
-0.381152
-0.35047
-0.312858
-0.395671
-0.384043
-0.367871
-0.341176
-0.308026
-0.2708
-0.378332
-0.36839
-0.354457
-0.331311
-0.302346
-0.269212
-0.36258
-0.354052
-0.341539
-0.321377
-0.296169
-0.266835
-0.348902
-0.341627
-0.329968
-0.312332
-0.290505
-0.264734
-0.33734
-0.330134
-0.318133
-0.30215
-0.283205
-0.260867
-0.235412
-0.3194
-0.317781
-0.303673
-0.286771
-0.268554
-0.248138
-0.225094
-0.282778
-0.285813
-0.273913
-0.258021
-0.241672
-0.224391
-0.205262
-0.255769
-0.259692
-0.250058
-0.23606
-0.221596
-0.206677
-0.190432
-0.232486
-0.236268
-0.228511
-0.216428
-0.203726
-0.190738
-0.176768
-0.211824
-0.215508
-0.20925
-0.198961
-0.187935
-0.176654
-0.164605
-0.193812
-0.19727
-0.192186
-0.183478
-0.173985
-0.164215
-0.153792
-0.178021
-0.181196
-0.17707
-0.169724
-0.161585
-0.153137
-0.1441
-0.164053
-0.166994
-0.16366
-0.157471
-0.150508
-0.143213
-0.135367
-0.151699
-0.154424
-0.151742
-0.146537
-0.140587
-0.134291
-0.127474
-0.140749
-0.143268
-0.14113
-0.136761
-0.131684
-0.126253
-0.120325
-0.131011
-0.133346
-0.131664
-0.128008
-0.123683
-0.119
-0.113842
-0.12234
-0.124509
-0.123211
-0.120164
-0.116486
-0.112447
-0.107956
-0.114613
-0.11663
-0.115654
-0.113129
-0.110007
-0.106526
-0.102612
-0.10772
-0.109599
-0.108894
-0.106816
-0.104173
-0.101175
-0.0977617
-0.10157
-0.103324
-0.102848
-0.101153
-0.0989238
-0.0963427
-0.0933627
-0.0960843
-0.0977246
-0.0974418
-0.0960757
-0.0942031
-0.0919827
-0.0893789
-0.0911957
-0.0927335
-0.0926136
-0.0915295
-0.0899645
-0.088056
-0.0857784
-0.0868461
-0.0882915
-0.0883091
-0.0874669
-0.0861671
-0.0845282
-0.0825332
-0.0829858
-0.0843483
-0.0844817
-0.0838468
-0.0827753
-0.0813692
-0.0796188
-0.079572
-0.0808605
-0.0810914
-0.0806338
-0.0797585
-0.0785529
-0.0770137
-0.0765681
-0.0777909
-0.0781037
-0.0777973
-0.07709
-0.0760565
-0.0746991
-0.0739426
-0.0751077
-0.0754889
-0.0753109
-0.0747468
-0.0738604
-0.0726585
-0.0716688
-0.0727836
-0.0732218
-0.073152
-0.0727093
-0.0719476
-0.0708778
-0.0697242
-0.0707957
-0.0712809
-0.0713015
-0.0709605
-0.0703035
-0.0693448
-0.0680895
-0.069125
-0.0696484
-0.0697434
-0.0694862
-0.0689158
-0.0680491
-0.0667494
-0.0677555
-0.0683093
-0.0684643
-0.0682749
-0.0677744
-0.0669821
-0.0656975
-0.0666752
-0.0672517
-0.0674533
-0.0673167
-0.0668709
-0.0661367
-0.0649083
-0.0658711
-0.0664658
-0.0667021
-0.0666045
-0.0661988
-0.0655074
-0.0643868
-0.0653385
-0.0659453
-0.0662048
-0.0661328
-0.0657535
-0.0650901
-0.0641193
-0.0650707
-0.0656851
-0.0659562
-0.0658973
-0.0655313
-0.064882
-0.300639
-0.266036
-0.24042
-0.220017
-0.200991
-0.184291
-0.169817
-0.15692
-0.145444
-0.135269
-0.126201
-0.118101
-0.110868
-0.104405
-0.0986286
-0.0934669
-0.0888601
-0.0847554
-0.0811074
-0.0778773
-0.0750318
-0.0725421
-0.0703838
-0.0685362
-0.066982
-0.0657071
-0.0647013
-0.0639509
-0.0634527
-0.0631926
-0.287702
-0.256221
-0.231332
-0.212517
-0.19473
-0.178723
-0.164975
-0.152741
-0.141771
-0.132034
-0.123356
-0.115588
-0.108638
-0.102423
-0.0968591
-0.0918814
-0.0874335
-0.083466
-0.0799364
-0.076808
-0.0740496
-0.071634
-0.0695382
-0.0677427
-0.066231
-0.0649898
-0.0640083
-0.0632761
-0.0627874
-0.06253
-0.277161
-0.248441
-0.223998
-0.205995
-0.189404
-0.174006
-0.160756
-0.149078
-0.138548
-0.12916
-0.1208
-0.11331
-0.106595
-0.100582
-0.0951963
-0.0903721
-0.086057
-0.0822047
-0.0787747
-0.0757322
-0.0730474
-0.0706946
-0.0686519
-0.0669005
-0.0654249
-0.0642121
-0.0632514
-0.0625342
-0.062053
-0.0617977
-0.267277
-0.240924
-0.217391
-0.199895
-0.184327
-0.16962
-0.156779
-0.145563
-0.135453
-0.126385
-0.118305
-0.111068
-0.104571
-0.0987444
-0.0935216
-0.0888399
-0.0846484
-0.0809034
-0.0775665
-0.0746046
-0.071989
-0.0696955
-0.0677028
-0.0659933
-0.0645518
-0.0633659
-0.0624253
-0.061722
-0.0612482
-0.0609951
-0.257797
-0.233553
-0.211123
-0.194015
-0.179219
-0.165253
-0.152839
-0.142022
-0.132318
-0.123574
-0.115763
-0.10877
-0.102487
-0.0968434
-0.0917803
-0.0872387
-0.0831693
-0.0795305
-0.076286
-0.0734041
-0.0708576
-0.0686232
-0.0666807
-0.0650131
-0.063606
-0.0624473
-0.061527
-0.0608379
-0.060372
-0.0601215
-0.248602
-0.226118
-0.204913
-0.18828
-0.174094
-0.16085
-0.148908
-0.138456
-0.129129
-0.120712
-0.113166
-0.106408
-0.100334
-0.0948723
-0.089967
-0.0855639
-0.0816158
-0.0780827
-0.0749303
-0.0721285
-0.0696512
-0.0674762
-0.0655842
-0.063959
-0.0625866
-0.0614555
-0.0605562
-0.0598818
-0.0594242
-0.0591769
-0.239636
-0.218697
-0.198725
-0.182637
-0.168954
-0.156362
-0.144926
-0.134838
-0.125863
-0.117771
-0.110493
-0.103967
-0.0981001
-0.0928202
-0.0880727
-0.0838081
-0.0799816
-0.0765549
-0.0734953
-0.0707743
-0.0683671
-0.0662523
-0.0644116
-0.0628294
-0.0614925
-0.0603899
-0.0595124
-0.0588533
-0.0584047
-0.0581614
-0.230892
-0.211269
-0.192479
-0.177011
-0.163808
-0.151802
-0.140881
-0.13117
-0.122529
-0.114753
-0.107745
-0.101448
-0.0957862
-0.0906871
-0.0860977
-0.0819717
-0.078267
-0.0749472
-0.0719811
-0.0693416
-0.0670051
-0.0649513
-0.0631628
-0.0616245
-0.060324
-0.0592505
-0.0583955
-0.0577525
-0.0573137
-0.0570752
-0.222307
-0.203853
-0.186182
-0.171374
-0.158649
-0.147174
-0.136754
-0.127433
-0.119121
-0.11165
-0.104913
-0.0988477
-0.0933886
-0.0884701
-0.0840393
-0.0800525
-0.0764703
-0.0732582
-0.0703865
-0.0678295
-0.0655648
-0.063573
-0.0618375
-0.0603441
-0.0590807
-0.0580374
-0.0572057
-0.0565796
-0.0561515
-0.0559187
-0.213854
-0.196444
-0.179815
-0.165686
-0.153458
-0.142483
-0.132544
-0.123621
-0.115639
-0.108466
-0.101997
-0.0961637
-0.0909077
-0.0861692
-0.0818975
-0.0780506
-0.0745917
-0.0714882
-0.0687118
-0.0662383
-0.0640463
-0.0621174
-0.060436
-0.0589884
-0.0577632
-0.0567509
-0.0559435
-0.0553353
-0.0549186
-0.0546925
-0.205483
-0.189032
-0.17338
-0.159936
-0.14822
-0.137728
-0.128251
-0.119725
-0.112076
-0.105198
-0.0989939
-0.0933939
-0.0883418
-0.0837835
-0.0796715
-0.0759655
-0.0726309
-0.0696369
-0.066957
-0.064568
-0.0624498
-0.060585
-0.0589587
-0.057558
-0.056372
-0.0553916
-0.0546094
-0.0540199
-0.0536158
-0.0533971
-0.197158
-0.181605
-0.166871
-0.154107
-0.142917
-0.132903
-0.123874
-0.115742
-0.108429
-0.101846
-0.0959048
-0.0905378
-0.0856904
-0.0813132
-0.0773615
-0.0737975
-0.0705882
-0.067705
-0.0651226
-0.0628193
-0.0607761
-0.0589765
-0.0574064
-0.0560536
-0.0549078
-0.0539604
-0.0532044
-0.0526346
-0.0522438
-0.0520336
-0.18884
-0.174146
-0.160284
-0.148194
-0.13754
-0.128004
-0.119413
-0.11167
-0.104695
-0.0984069
-0.0927282
-0.0875945
-0.0829531
-0.0787579
-0.0749677
-0.0715468
-0.0684642
-0.0656929
-0.0632094
-0.060993
-0.059026
-0.0572927
-0.0557799
-0.0544761
-0.0533716
-0.0524582
-0.0517294
-0.0511802
-0.0508037
-0.0506031
-0.180497
-0.16664
-0.153613
-0.142187
-0.132077
-0.123022
-0.114864
-0.107507
-0.100871
-0.0948796
-0.089464
-0.0845641
-0.0801298
-0.0761181
-0.0724907
-0.0692142
-0.0662596
-0.0636017
-0.0612184
-0.0590903
-0.0572007
-0.055535
-0.0540807
-0.052827
-0.0517648
-0.0508865
-0.0501859
-0.0496582
-0.049297
-0.0491067
-0.172097
-0.159069
-0.146849
-0.136083
-0.126522
-0.117952
-0.110225
-0.103253
-0.0969556
-0.0912631
-0.0861118
-0.0814469
-0.0772212
-0.0733945
-0.0699314
-0.0668009
-0.0639759
-0.0614328
-0.059151
-0.0571125
-0.0553017
-0.0537048
-0.0523102
-0.0511078
-0.050089
-0.0492467
-0.0485752
-0.0480701
-0.047725
-0.047546
-0.163612
-0.151417
-0.139989
-0.129877
-0.120868
-0.112787
-0.105495
-0.0989065
-0.0929493
-0.0875574
-0.0826721
-0.0782437
-0.0742283
-0.0705884
-0.0672913
-0.0643084
-0.0616145
-0.0591878
-0.0570091
-0.0550616
-0.0533308
-0.051804
-0.0504703
-0.0493202
-0.0483459
-0.0475407
-0.0468993
-0.0464175
-0.0460896
-0.0459227
-0.155017
-0.143666
-0.133024
-0.123569
-0.115114
-0.107526
-0.100669
-0.0944666
-0.0888516
-0.0837627
-0.0791454
-0.0749554
-0.0711522
-0.0677011
-0.064572
-0.0617385
-0.0591775
-0.0568687
-0.0547945
-0.0529395
-0.0512902
-0.0498347
-0.0485631
-0.0474665
-0.0465377
-0.0457705
-0.0451601
-0.0447024
-0.0443925
-0.0442384
-0.1463
-0.135796
-0.125946
-0.117154
-0.109257
-0.102165
-0.095746
-0.0899307
-0.0846604
-0.0798775
-0.0755312
-0.0715823
-0.0679938
-0.0647339
-0.0617749
-0.0590928
-0.0566665
-0.0544775
-0.0525096
-0.0507485
-0.049182
-0.0477992
-0.0465908
-0.0455488
-0.0446666
-0.0439383
-0.0433596
-0.042927
-0.0426358
-0.0424946
-0.13747
-0.127791
-0.118733
-0.110618
-0.103287
-0.0966973
-0.0907212
-0.0852935
-0.0803701
-0.075898
-0.0718276
-0.0681235
-0.0647532
-0.0616873
-0.0589012
-0.0563729
-0.0540835
-0.0520162
-0.0501563
-0.0484908
-0.0470086
-0.0456997
-0.0445558
-0.0435696
-0.0427349
-0.0420465
-0.0415004
-0.0410936
-0.0408217
-0.0406932
-0.128538
-0.119634
-0.111359
-0.103935
-0.097187
-0.0911115
-0.085586
-0.0805503
-0.0759769
-0.0718215
-0.0680334
-0.0645794
-0.0614312
-0.058563
-0.0559527
-0.053581
-0.0514309
-0.0494874
-0.0477374
-0.0461692
-0.0447728
-0.0435394
-0.0424612
-0.0415318
-0.0407456
-0.040098
-0.0395853
-0.0392051
-0.0389531
-0.0388371
-0.119457
-0.111332
-0.103794
-0.0970866
-0.0909378
-0.0853956
-0.0803314
-0.075704
-0.0714883
-0.0676552
-0.064155
-0.0609556
-0.0580332
-0.0553658
-0.0529342
-0.0507215
-0.048713
-0.0468954
-0.0452571
-0.0437879
-0.0424788
-0.041322
-0.0403108
-0.0394392
-0.0387025
-0.0380964
-0.0376179
-0.037265
-0.0370322
-0.0369319
-0.110113
-0.102887
-0.0960444
-0.0900947
-0.084546
-0.0795562
-0.0749601
-0.0707716
-0.0669293
-0.0634203
-0.0602085
-0.057265
-0.0545699
-0.052105
-0.0498539
-0.047802
-0.0459367
-0.0442464
-0.0427212
-0.0413522
-0.0401316
-0.0390525
-0.0381091
-0.0372962
-0.0366096
-0.0360457
-0.035602
-0.035277
-0.0350621
-0.0349823
-0.100391
-0.0943573
-0.0881596
-0.0830081
-0.0780466
-0.0736188
-0.0694914
-0.0657665
-0.0623159
-0.0591284
-0.0562029
-0.0535151
-0.0510482
-0.0487868
-0.0467173
-0.0448274
-0.0431065
-0.0415448
-0.0401338
-0.038866
-0.0377348
-0.0367342
-0.0358593
-0.0351057
-0.0344697
-0.0339483
-0.0335397
-0.0332417
-0.0330479
-0.0329842
-0.0903251
-0.0857693
-0.0802088
-0.0758409
-0.0714839
-0.0676098
-0.0639728
-0.0606693
-0.0575956
-0.0547459
-0.0521159
-0.0496909
-0.0474577
-0.0454044
-0.0435202
-0.0417955
-0.0402216
-0.0387907
-0.0374959
-0.036331
-0.0352905
-0.0343696
-0.0335641
-0.0328705
-0.0322858
-0.0318075
-0.0314341
-0.0311634
-0.0309915
-0.0309419
-0.0802119
-0.0768081
-0.072124
-0.0685006
-0.0647998
-0.0614876
-0.0583561
-0.0554765
-0.0527864
-0.0502803
-0.0479534
-0.0457972
-0.0438028
-0.0419619
-0.0402668
-0.0387104
-0.0372862
-0.0359884
-0.0348116
-0.0337512
-0.0328028
-0.0319627
-0.0312276
-0.0305948
-0.0300619
-0.029627
-0.029289
-0.0290458
-0.0288955
-0.0288593
-0.0699517
-0.0676147
-0.0638705
-0.0610103
-0.0579866
-0.0552523
-0.052634
-0.0501918
-0.0478936
-0.0457372
-0.0437202
-0.0418387
-0.0400883
-0.0384643
-0.0369619
-0.0355769
-0.0343051
-0.0331425
-0.0320856
-0.0311312
-0.0302761
-0.0295179
-0.0288541
-0.0282827
-0.027802
-0.0274108
-0.0271083
-0.0268927
-0.0267636
-0.0267401
-0.059525
-0.0582553
-0.0554507
-0.0533809
-0.0510446
-0.0489034
-0.0468071
-0.0448175
-0.0429216
-0.0411227
-0.0394225
-0.0378219
-0.0363205
-0.0349174
-0.0336113
-0.0324005
-0.0312834
-0.0302581
-0.0293228
-0.0284758
-0.0277153
-0.0270398
-0.0264479
-0.0259384
-0.0255104
-0.025163
-0.0248961
-0.0247079
-0.0245994
-0.0245881
-0.0489269
-0.0487538
-0.0468746
-0.0456146
-0.0439767
-0.0424437
-0.0408832
-0.0393621
-0.0378799
-0.0364469
-0.0350701
-0.0337554
-0.0325071
-0.0313284
-0.0302213
-0.0291872
-0.0282269
-0.0273406
-0.0265283
-0.0257899
-0.0251249
-0.024533
-0.0240136
-0.0235665
-0.0231913
-0.0228878
-0.0226562
-0.0224953
-0.0224068
-0.0224066
-0.0381593
-0.0391087
-0.0381501
-0.0377154
-0.0367967
-0.0358915
-0.0348839
-0.0338448
-0.0327852
-0.0317236
-0.030674
-0.0296482
-0.0286556
-0.0277036
-0.0267977
-0.0259422
-0.0251404
-0.0243947
-0.0237069
-0.0230782
-0.0225097
-0.0220021
-0.0215558
-0.0211714
-0.0208491
-0.0205895
-0.020393
-0.0202588
-0.0201897
-0.0201995
-0.0272249
-0.0293184
-0.0292974
-0.0297115
-0.0295404
-0.0292796
-0.0288343
-0.0282817
-0.0276466
-0.0269576
-0.0262367
-0.025502
-0.0247676
-0.0240449
-0.0233428
-0.0226685
-0.0220276
-0.0214244
-0.0208627
-0.0203451
-0.0198742
-0.0194516
-0.0190789
-0.0187574
-0.0184882
-0.0182723
-0.0181105
-0.0180025
-0.017952
-0.0179704
-0.0161378
-0.0194034
-0.0203612
-0.0216423
-0.0222313
-0.0226115
-0.0227232
-0.0226535
-0.0224432
-0.0221301
-0.0217433
-0.0213056
-0.0208357
-0.0203482
-0.0198551
-0.0193664
-0.0188899
-0.0184322
-0.0179989
-0.0175943
-0.0172221
-0.0168855
-0.016587
-0.0163288
-0.0161126
-0.0159402
-0.0158127
-0.0157303
-0.0156975
-0.0157229
-0.0049342
-0.00940075
-0.0113607
-0.0134813
-0.0148069
-0.0158098
-0.0164753
-0.0168975
-0.0171275
-0.0172078
-0.0171717
-0.0170461
-0.016853
-0.0166108
-0.0163348
-0.0160378
-0.0157306
-0.015422
-0.0151197
-0.0148298
-0.0145578
-0.0143081
-0.0140843
-0.0138895
-0.0137264
-0.0135972
-0.0135036
-0.0134461
-0.01343
-0.0134607
0.00635395
0.00071497
-0.00219878
-0.00509042
-0.00713456
-0.00877626
-0.010032
-0.0109875
-0.011695
-0.0121992
-0.0125373
-0.012741
-0.0128373
-0.0128493
-0.0127966
-0.0126957
-0.0125605
-0.012403
-0.012233
-0.0120589
-0.0118876
-0.011725
-0.011576
-0.0114446
-0.0113343
-0.0112478
-0.0111874
-0.011154
-0.0111535
-0.0111878
0.0177602
0.0110713
0.0072436
0.00357336
0.00074113
-0.00161955
-0.00353089
-0.00506416
-0.00627515
-0.00721601
-0.00793274
-0.00846537
-0.0088482
-0.0091104
-0.0092767
-0.0093679
-0.00940154
-0.00939229
-0.00935246
-0.00929232
-0.00922045
-0.00914399
-0.00906891
-0.00900015
-0.00894182
-0.00889734
-0.0088691
-0.0088589
-0.00887263
-0.00890892
0.0293224
0.0216453
0.0167252
0.0121162
0.0083764
0.00524458
0.00267722
0.00059291
-0.00108354
-0.00242127
-0.00347975
-0.00430927
-0.0049519
-0.00544278
-0.00581121
-0.00608162
-0.0062743
-0.00640616
-0.00649125
-0.00654127
-0.00656598
-0.00657351
-0.00657066
-0.00656307
-0.00655545
-0.00655165
-0.00655442
-0.00656615
-0.00659246
-0.00662886
0.0407917
0.03193
0.0256136
0.0199691
0.0153674
0.0115718
0.00846662
0.00593503
0.00387655
0.00220599
0.000853477
-0.000238241
-0.0011161
-0.00181874
-0.00237802
-0.00282029
-0.00316741
-0.0034375
-0.00364572
-0.00380471
-0.0039251
-0.00401582
-0.00408436
-0.00413703
-0.00417911
-0.00421486
-0.00424745
-0.00427983
-0.00431682
-0.00435146
0.0516895
0.0416264
0.0340657
0.0276432
0.0224199
0.0181119
0.0145457
0.0115887
0.00913701
0.00710501
0.00542202
0.00402954
0.00287919
0.00193081
0.00115096
0.000511688
-1.04476e-05
-0.000435204
-0.000779278
-0.00105683
-0.00127989
-0.00145868
-0.00160186
-0.00171675
-0.00180947
-0.00188501
-0.00194719
-0.0019995
-0.00204564
-0.00207718
0.0624324
0.0522378
0.0441345
0.037203
0.0313687
0.0264053
0.0221669
0.0185547
0.0154887
0.0128952
0.010707
0.0088651
0.00731823
0.00602249
0.00494014
0.00403881
0.00329068
0.00267188
0.00216191
0.00174321
0.00140072
0.00112164
0.000895087
0.00071191
0.000564484
0.000446629
0.000353443
0.000280724
0.000225776
0.000196869
0.074296
0.0653637
0.0569727
0.0492782
0.0424499
0.0364469
0.031202
0.0266562
0.0227468
0.019404
0.0165581
0.0141436
0.0121018
0.0103806
0.00893421
0.00772257
0.00671085
0.0058688
0.00517034
0.00459304
0.00411774
0.00372815
0.00341048
0.00315324
0.00294692
0.00278383
0.0026578
0.00256384
0.00249933
0.00247023
0.0847434
0.076278
0.0672804
0.0587206
0.051004
0.0441926
0.0382382
0.0330677
0.0286044
0.02477
0.0214887
0.01869
0.0163098
0.0142912
0.0125839
0.0111439
0.00993258
0.00891657
0.00806696
0.00735892
0.00677122
0.00628581
0.00588745
0.00556342
0.00530324
0.00509842
0.00494216
0.00482908
0.00475605
0.00472505
0.100323
0.0892503
0.079088
0.0697116
0.0613941
0.0541607
0.0479014
0.0424689
0.0377472
0.0336464
0.0300901
0.0270107
0.0243478
0.0220482
0.0200654
0.0183582
0.0168911
0.0156328
0.0145563
0.0136382
0.0128585
0.0121997
0.0116474
0.0111891
0.0108145
0.0105152
0.0102844
0.0101167
0.0100085
0.0099563
0.115516
0.102361
0.0917834
0.0826067
0.0744678
0.0672478
0.0608671
0.0552349
0.0502622
0.0458721
0.0419993
0.0385864
0.0355822
0.0329406
0.0306206
0.0285859
0.0268045
0.0252481
0.023892
0.0227146
0.0216971
0.0208232
0.0200788
0.019452
0.0189327
0.0185126
0.0181849
0.0179443
0.017787
0.0177102
0.119931
0.109786
0.100523
0.0921043
0.0844627
0.0775466
0.071316
0.0657228
0.0607112
0.0562248
0.0522119
0.0486259
0.0454253
0.0425724
0.0400332
0.0377773
0.0357772
0.0340087
0.03245
0.0310817
0.0298869
0.0288507
0.0279602
0.0272041
0.0265731
0.026059
0.0256556
0.0253576
0.025161
0.0250629
0.121687
0.113006
0.104893
0.0974012
0.0905367
0.0842533
0.0785065
0.0732617
0.0684866
0.0641481
0.0602141
0.0566536
0.0534373
0.0505379
0.0479295
0.0455886
0.0434933
0.0416236
0.0399615
0.0384909
0.0371971
0.0360673
0.0350902
0.034256
0.0335563
0.0329839
0.032533
0.0321989
0.0319782
0.0318689
0.120124
0.113372
0.10681
0.100542
0.0946233
0.0890727
0.0838963
0.0790927
0.074654
0.0705672
0.0668159
0.063382
0.0602466
0.0573911
0.0547975
0.0524485
0.0503278
0.0484203
0.0467119
0.0451898
0.0438422
0.0426585
0.0416295
0.0407467
0.0400031
0.0393927
0.0389102
0.0385519
0.0383145
0.0381958
0.118347
0.112718
0.107182
0.101825
0.0967107
0.0918652
0.087297
0.0830091
0.0790002
0.0752661
0.0718
0.0685935
0.0656366
0.0629187
0.0604285
0.058155
0.0560871
0.0542139
0.0525253
0.0510118
0.0496644