/*--------------------------------*- C++ -*----------------------------------*\
  =========                 |
  \\      /  F ield         | OpenFOAM: The Open Source CFD Toolbox
   \\    /   O peration     | Website:  https://openfoam.org
    \\  /    A nd           | Version:  7
     \\/     M anipulation  |
\*---------------------------------------------------------------------------*/
FoamFile
{
    version     2.0;
    format      ascii;
    class       volScalarField;
    location    "30";
    object      p;
}
// * * * * * * * * * * * * * * * * * * * * * * * * * * * * * * * * * * * * * //

dimensions      [0 2 -2 0 0 0 0];

internalField   nonuniform List<scalar> 
3700
(
-0.254895
-0.246192
-0.237707
-0.229538
-0.221684
-0.214181
-0.207061
-0.200329
-0.193983
-0.188015
-0.182417
-0.177181
-0.172297
-0.167755
-0.163546
-0.159659
-0.156084
-0.15281
-0.14983
-0.147132
-0.144709
-0.142552
-0.140653
-0.139007
-0.137607
-0.136447
-0.135525
-0.134836
-0.134379
-0.13415
-0.254372
-0.246023
-0.237915
-0.230091
-0.222549
-0.215329
-0.208462
-0.201956
-0.195809
-0.190018
-0.184576
-0.179476
-0.174711
-0.170273
-0.166152
-0.162341
-0.15883
-0.155611
-0.152676
-0.150016
-0.147624
-0.145492
-0.143614
-0.141985
-0.140598
-0.139449
-0.138534
-0.137851
-0.137397
-0.13717
-0.253514
-0.245468
-0.237702
-0.230202
-0.222961
-0.21602
-0.209408
-0.203133
-0.197195
-0.19159
-0.186314
-0.181361
-0.176725
-0.1724
-0.168379
-0.164654
-0.161217
-0.158063
-0.155182
-0.152569
-0.150216
-0.148118
-0.146268
-0.14466
-0.143292
-0.142157
-0.141254
-0.140579
-0.14013
-0.139906
-0.252365
-0.244586
-0.237156
-0.22997
-0.223014
-0.216338
-0.209973
-0.203925
-0.198194
-0.192778
-0.187671
-0.18287
-0.17837
-0.174165
-0.170249
-0.166618
-0.163263
-0.16018
-0.157362
-0.154802
-0.152495
-0.150435
-0.148618
-0.147038
-0.145692
-0.144576
-0.143687
-0.143022
-0.14258
-0.142359
-0.250945
-0.243393
-0.236319
-0.229447
-0.222761
-0.216336
-0.210207
-0.20438
-0.198853
-0.193622
-0.188684
-0.184036
-0.179673
-0.175592
-0.171787
-0.168253
-0.164985
-0.161978
-0.159226
-0.156725
-0.154468
-0.152452
-0.150672
-0.149123
-0.147803
-0.146708
-0.145835
-0.145182
-0.144748
-0.144531
-0.249258
-0.241883
-0.235215
-0.228646
-0.222214
-0.216033
-0.210136
-0.204524
-0.199195
-0.194146
-0.189375
-0.184879
-0.180655
-0.176699
-0.173006
-0.169573
-0.166395
-0.163468
-0.160787
-0.158347
-0.156145
-0.154176
-0.152436
-0.150922
-0.14963
-0.148558
-0.147703
-0.147063
-0.146638
-0.146425
-0.247267
-0.240076
-0.23387
-0.227563
-0.221373
-0.215436
-0.209769
-0.204369
-0.199234
-0.194364
-0.189759
-0.185414
-0.181328
-0.177498
-0.17392
-0.17059
-0.167504
-0.16466
-0.162053
-0.159678
-0.157533
-0.155614
-0.153917
-0.152439
-0.151178
-0.150131
-0.149295
-0.148671
-0.148255
-0.148047
-0.244944
-0.238068
-0.2323
-0.226189
-0.220249
-0.214559
-0.209118
-0.203924
-0.19898
-0.194287
-0.189845
-0.185652
-0.181705
-0.178001
-0.174538
-0.171313
-0.168322
-0.165563
-0.163032
-0.160725
-0.15864
-0.156773
-0.155121
-0.153682
-0.152453
-0.151433
-0.150619
-0.150009
-0.149604
-0.149401
-0.242351
-0.236003
-0.230469
-0.224549
-0.218869
-0.213419
-0.208194
-0.203201
-0.198444
-0.193927
-0.189648
-0.185605
-0.181796
-0.17822
-0.174873
-0.171754
-0.168859
-0.166187
-0.163734
-0.161496
-0.159473
-0.15766
-0.156056
-0.154657
-0.153463
-0.15247
-0.151678
-0.151086
-0.150691
-0.150494
-0.239642
-0.233787
-0.228332
-0.222689
-0.21726
-0.212032
-0.207013
-0.202214
-0.197642
-0.193298
-0.189179
-0.185286
-0.181615
-0.178166
-0.174936
-0.171923
-0.169126
-0.166542
-0.164168
-0.162002
-0.160041
-0.158285
-0.156729
-0.155373
-0.154213
-0.15325
-0.152481
-0.151905
-0.151522
-0.151331
-0.23681
-0.231297
-0.225984
-0.220619
-0.215423
-0.210406
-0.205587
-0.200979
-0.196588
-0.192413
-0.188454
-0.184707
-0.181174
-0.177851
-0.174738
-0.171832
-0.169133
-0.166637
-0.164344
-0.16225
-0.160354
-0.158655
-0.157149
-0.155835
-0.154713
-0.153779
-0.153034
-0.152476
-0.152105
-0.151919
-0.2338
-0.228556
-0.223452
-0.218336
-0.21336
-0.208549
-0.203928
-0.199509
-0.195295
-0.191287
-0.187483
-0.183883
-0.180485
-0.177288
-0.174291
-0.171492
-0.168891
-0.166485
-0.164272
-0.162251
-0.160421
-0.158779
-0.157324
-0.156054
-0.154968
-0.154066
-0.153345
-0.152805
-0.152445
-0.152266
-0.230602
-0.225608
-0.220728
-0.215845
-0.211081
-0.206474
-0.202048
-0.197814
-0.193775
-0.189931
-0.186281
-0.182824
-0.17956
-0.176488
-0.173606
-0.170914
-0.16841
-0.166094
-0.163962
-0.162015
-0.16025
-0.158666
-0.157262
-0.156037
-0.154989
-0.154117
-0.153421
-0.1529
-0.152552
-0.152379
-0.227228
-0.222477
-0.217817
-0.213155
-0.2086
-0.204193
-0.199959
-0.195907
-0.192039
-0.188356
-0.184857
-0.181542
-0.178411
-0.175462
-0.172695
-0.170108
-0.167702
-0.165474
-0.163424
-0.16155
-0.159851
-0.158326
-0.156973
-0.155793
-0.154783
-0.153942
-0.153271
-0.152768
-0.152433
-0.152266
-0.223692
-0.219173
-0.214726
-0.210279
-0.205928
-0.201719
-0.197672
-0.193798
-0.190098
-0.186573
-0.183223
-0.180048
-0.177048
-0.174221
-0.171567
-0.169085
-0.166776
-0.164636
-0.162667
-0.160866
-0.159233
-0.157767
-0.156466
-0.15533
-0.154358
-0.153549
-0.152903
-0.152419
-0.152096
-0.151935
-0.220003
-0.215707
-0.211467
-0.207229
-0.203079
-0.199062
-0.195199
-0.191499
-0.187963
-0.184594
-0.18139
-0.178353
-0.175481
-0.172775
-0.170233
-0.167856
-0.165641
-0.16359
-0.161701
-0.159973
-0.158406
-0.156998
-0.155749
-0.154657
-0.153724
-0.152946
-0.152325
-0.15186
-0.15155
-0.151395
-0.216169
-0.212087
-0.20805
-0.204016
-0.200062
-0.196233
-0.19255
-0.18902
-0.185646
-0.182429
-0.17937
-0.176468
-0.173723
-0.171135
-0.168704
-0.166429
-0.16431
-0.162346
-0.160536
-0.158881
-0.157378
-0.156029
-0.154831
-0.153784
-0.152888
-0.152143
-0.151547
-0.1511
-0.150803
-0.150654
-0.212199
-0.208324
-0.204484
-0.20065
-0.196888
-0.193243
-0.189736
-0.186372
-0.183156
-0.180089
-0.177171
-0.174402
-0.171782
-0.169311
-0.166989
-0.164815
-0.16279
-0.160912
-0.159181
-0.157598
-0.15616
-0.154868
-0.153721
-0.152719
-0.151861
-0.151147
-0.150576
-0.150148
-0.149863
-0.14972
-0.208102
-0.204427
-0.200781
-0.19714
-0.193566
-0.190102
-0.186766
-0.183566
-0.180505
-0.177585
-0.174805
-0.172167
-0.16967
-0.167314
-0.165099
-0.163025
-0.161092
-0.159299
-0.157647
-0.156134
-0.15476
-0.153525
-0.152429
-0.151471
-0.150651
-0.149967
-0.149421
-0.149012
-0.148739
-0.148603
-0.203887
-0.200407
-0.196949
-0.193498
-0.190107
-0.186819
-0.183651
-0.180611
-0.177702
-0.174925
-0.172282
-0.169772
-0.167396
-0.165153
-0.163043
-0.161068
-0.159225
-0.157517
-0.155941
-0.154498
-0.153188
-0.15201
-0.150964
-0.150049
-0.149266
-0.148613
-0.148092
-0.147701
-0.147441
-0.14731
-0.199563
-0.196271
-0.192998
-0.189731
-0.18652
-0.183404
-0.1804
-0.177517
-0.174757
-0.172121
-0.169611
-0.167227
-0.164969
-0.162837
-0.160832
-0.158952
-0.1572
-0.155574
-0.154074
-0.1527
-0.151452
-0.15033
-0.149333
-0.148462
-0.147715
-0.147094
-0.146596
-0.146224
-0.145975
-0.145851
-0.195139
-0.192031
-0.188938
-0.185851
-0.182814
-0.179866
-0.177024
-0.174294
-0.171679
-0.169182
-0.166802
-0.164542
-0.1624
-0.160377
-0.158473
-0.156689
-0.155024
-0.153479
-0.152054
-0.150748
-0.149562
-0.148495
-0.147547
-0.146718
-0.146008
-0.145416
-0.144943
-0.144589
-0.144352
-0.144234
-0.190625
-0.187695
-0.184778
-0.181866
-0.179
-0.176217
-0.173531
-0.170951
-0.168478
-0.166116
-0.163865
-0.161725
-0.159697
-0.157781
-0.155977
-0.154286
-0.152708
-0.151243
-0.149891
-0.148652
-0.147527
-0.146514
-0.145614
-0.144827
-0.144152
-0.143591
-0.143141
-0.142804
-0.14258
-0.142467
-0.186029
-0.183273
-0.180526
-0.177786
-0.175086
-0.172463
-0.169931
-0.167497
-0.165164
-0.162934
-0.160808
-0.158786
-0.15687
-0.155058
-0.153353
-0.151753
-0.15026
-0.148874
-0.147594
-0.146421
-0.145354
-0.144395
-0.143542
-0.142796
-0.142157
-0.141625
-0.141199
-0.140879
-0.140666
-0.14056
-0.18136
-0.178772
-0.176193
-0.173619
-0.171082
-0.168615
-0.166233
-0.163942
-0.161745
-0.159644
-0.157641
-0.155735
-0.153927
-0.152218
-0.150609
-0.149099
-0.147689
-0.14638
-0.145171
-0.144062
-0.143054
-0.142147
-0.141341
-0.140635
-0.140031
-0.139527
-0.139124
-0.138822
-0.13862
-0.13852
-0.176626
-0.174203
-0.171786
-0.169373
-0.166995
-0.164681
-0.162445
-0.160293
-0.158229
-0.156255
-0.154371
-0.152579
-0.150878
-0.14927
-0.147754
-0.146332
-0.145004
-0.14377
-0.14263
-0.141585
-0.140634
-0.139779
-0.139018
-0.138352
-0.137782
-0.137306
-0.136926
-0.13664
-0.13645
-0.136355
-0.171835
-0.169572
-0.167313
-0.165059
-0.162834
-0.160669
-0.158576
-0.15656
-0.154627
-0.152776
-0.151009
-0.149327
-0.147731
-0.146221
-0.144797
-0.143461
-0.142213
-0.141053
-0.139981
-0.138997
-0.138103
-0.137298
-0.136582
-0.135955
-0.135418
-0.13497
-0.134612
-0.134343
-0.134164
-0.134074
-0.166996
-0.164888
-0.162783
-0.160682
-0.158608
-0.156588
-0.154634
-0.152751
-0.150944
-0.149214
-0.147562
-0.145988
-0.144494
-0.14308
-0.141746
-0.140494
-0.139324
-0.138236
-0.137231
-0.136308
-0.135469
-0.134713
-0.134041
-0.133452
-0.132948
-0.132527
-0.13219
-0.131938
-0.131769
-0.131685
-0.162115
-0.160158
-0.158203
-0.156252
-0.154324
-0.152445
-0.150627
-0.148874
-0.147191
-0.145578
-0.144037
-0.142569
-0.141175
-0.139855
-0.138609
-0.13744
-0.136346
-0.135328
-0.134388
-0.133525
-0.13274
-0.132032
-0.131402
-0.130851
-0.130379
-0.129985
-0.129669
-0.129433
-0.129275
-0.129196
-0.1572
-0.15539
-0.153581
-0.151775
-0.14999
-0.148249
-0.146562
-0.144936
-0.143374
-0.141876
-0.140444
-0.139079
-0.137782
-0.136554
-0.135394
-0.134305
-0.133286
-0.132337
-0.131461
-0.130656
-0.129923
-0.129262
-0.128675
-0.12816
-0.127719
-0.127351
-0.127056
-0.126835
-0.126688
-0.126614
-0.152256
-0.15059
-0.148923
-0.147259
-0.145613
-0.144006
-0.142448
-0.140946
-0.139501
-0.138115
-0.13679
-0.135526
-0.134324
-0.133185
-0.132109
-0.131098
-0.130152
-0.129271
-0.128456
-0.127708
-0.127026
-0.126412
-0.125865
-0.125386
-0.124976
-0.124633
-0.124359
-0.124153
-0.124015
-0.123947
-0.147291
-0.145764
-0.144237
-0.142711
-0.1412
-0.139723
-0.138292
-0.13691
-0.13558
-0.134304
-0.133082
-0.131916
-0.130807
-0.129755
-0.128761
-0.127827
-0.126951
-0.126136
-0.125382
-0.124689
-0.124058
-0.123489
-0.122982
-0.122538
-0.122156
-0.121838
-0.121584
-0.121393
-0.121265
-0.121202
-0.14231
-0.14092
-0.139528
-0.138137
-0.136757
-0.135409
-0.1341
-0.132836
-0.131618
-0.130448
-0.129328
-0.128258
-0.127239
-0.126272
-0.125358
-0.124498
-0.123692
-0.122941
-0.122246
-0.121607
-0.121024
-0.120499
-0.120031
-0.119621
-0.119269
-0.118975
-0.118739
-0.118563
-0.118445
-0.118386
-0.13732
-0.136063
-0.134803
-0.133544
-0.132293
-0.131069
-0.12988
-0.12873
-0.127622
-0.126556
-0.125534
-0.124557
-0.123627
-0.122743
-0.121907
-0.121119
-0.120381
-0.119692
-0.119054
-0.118468
-0.117933
-0.11745
-0.11702
-0.116643
-0.116319
-0.116049
-0.115832
-0.11567
-0.115561
-0.115507
-0.132326
-0.131199
-0.130069
-0.128938
-0.127813
-0.126711
-0.125639
-0.1246
-0.123598
-0.122634
-0.121708
-0.120823
-0.119978
-0.119174
-0.118414
-0.117697
-0.117024
-0.116397
-0.115815
-0.115279
-0.11479
-0.114349
-0.113956
-0.113611
-0.113314
-0.113067
-0.112869
-0.11272
-0.11262
-0.112571
-0.127333
-0.126335
-0.125332
-0.124326
-0.123324
-0.122341
-0.121382
-0.120453
-0.119555
-0.118689
-0.117857
-0.11706
-0.116298
-0.115574
-0.114887
-0.114239
-0.11363
-0.113061
-0.112533
-0.112047
-0.111604
-0.111203
-0.110845
-0.110531
-0.110261
-0.110036
-0.109856
-0.10972
-0.10963
-0.109584
-0.122348
-0.121476
-0.120597
-0.119715
-0.118833
-0.117965
-0.117118
-0.116295
-0.115498
-0.114728
-0.113987
-0.113276
-0.112596
-0.111948
-0.111332
-0.110751
-0.110204
-0.109692
-0.109217
-0.108779
-0.108379
-0.108017
-0.107694
-0.107411
-0.107167
-0.106963
-0.1068
-0.106677
-0.106595
-0.106554
-0.117377
-0.116628
-0.115872
-0.11511
-0.114345
-0.113591
-0.112852
-0.112132
-0.111434
-0.110758
-0.110105
-0.109478
-0.108877
-0.108302
-0.107756
-0.107239
-0.106752
-0.106296
-0.105873
-0.105481
-0.105123
-0.104799
-0.10451
-0.104255
-0.104036
-0.103853
-0.103706
-0.103596
-0.103522
-0.103486
-0.112425
-0.111798
-0.111162
-0.110517
-0.109868
-0.109224
-0.108591
-0.107972
-0.107369
-0.106784
-0.106218
-0.105672
-0.105147
-0.104644
-0.104165
-0.103711
-0.103282
-0.10288
-0.102505
-0.102159
-0.101842
-0.101554
-0.101297
-0.101071
-0.100876
-0.100713
-0.100582
-0.100484
-0.100418
-0.100385
-0.1075
-0.106993
-0.106474
-0.105945
-0.105407
-0.104871
-0.104341
-0.10382
-0.103311
-0.102814
-0.102331
-0.101863
-0.101412
-0.100979
-0.100565
-0.100171
-0.0997987
-0.0994484
-0.0991214
-0.0988185
-0.0985405
-0.0982882
-0.0980623
-0.0978633
-0.0976918
-0.0975482
-0.0974328
-0.0973461
-0.0972881
-0.0972591
-0.102607
-0.102218
-0.101814
-0.101398
-0.10097
-0.100539
-0.100109
-0.0996836
-0.0992643
-0.0988528
-0.0984506
-0.0980592
-0.0976798
-0.0973137
-0.0969623
-0.0966268
-0.0963083
-0.0960079
-0.0957267
-0.0954655
-0.0952254
-0.095007
-0.094811
-0.0946382
-0.0944891
-0.094364
-0.0942635
-0.0941879
-0.0941373
-0.094112
-0.0977541
-0.0974808
-0.0971905
-0.0968849
-0.0965633
-0.096234
-0.0959015
-0.0955682
-0.0952364
-0.0949076
-0.0945834
-0.0942653
-0.0939548
-0.0936533
-0.0933622
-0.0930827
-0.0928162
-0.0925638
-0.0923266
-0.0921056
-0.0919017
-0.0917158
-0.0915486
-0.0914009
-0.0912731
-0.0911659
-0.0910796
-0.0910146
-0.0909712
-0.0909494
-0.0929488
-0.0927889
-0.0926093
-0.0924112
-0.0921932
-0.0919629
-0.0917245
-0.0914806
-0.0912331
-0.090984
-0.0907349
-0.0904874
-0.0902431
-0.0900036
-0.0897703
-0.0895447
-0.089328
-0.0891215
-0.0889264
-0.0887438
-0.0885746
-0.0884198
-0.0882801
-0.0881564
-0.0880491
-0.0879589
-0.0878862
-0.0878313
-0.0877946
-0.0877762
-0.0881985
-0.0881497
-0.0880778
-0.0879842
-0.0878666
-0.0877321
-0.0875846
-0.0874267
-0.0872605
-0.0870879
-0.0869108
-0.0867311
-0.0865503
-0.0863701
-0.0861921
-0.0860178
-0.0858487
-0.0856861
-0.0855312
-0.0853852
-0.0852491
-0.0851239
-0.0850104
-0.0849094
-0.0848217
-0.0847476
-0.0846879
-0.0846427
-0.0846124
-0.0845972
-0.0835113
-0.0835706
-0.0836035
-0.0836109
-0.0835903
-0.0835481
-0.083488
-0.0834127
-0.0833243
-0.0832251
-0.0831169
-0.0830018
-0.0828815
-0.0827579
-0.0826326
-0.0825073
-0.0823834
-0.0822625
-0.0821457
-0.0820345
-0.0819298
-0.0818326
-0.081744
-0.0816647
-0.0815954
-0.0815368
-0.0814892
-0.0814532
-0.0814291
-0.0814169
-0.0788954
-0.0790596
-0.0791936
-0.0792984
-0.079371
-0.0794173
-0.0794409
-0.0794445
-0.0794304
-0.079401
-0.0793585
-0.0793048
-0.079242
-0.079172
-0.0790967
-0.0790177
-0.0789367
-0.0788551
-0.0787745
-0.0786961
-0.0786211
-0.0785505
-0.0784853
-0.0784265
-0.0783746
-0.0783305
-0.0782945
-0.0782671
-0.0782487
-0.0782395
-0.0743591
-0.0746243
-0.0748556
-0.0750537
-0.0752154
-0.0753461
-0.0754493
-0.0755279
-0.0755844
-0.0756212
-0.0756407
-0.0756451
-0.0756366
-0.0756173
-0.075589
-0.0755537
-0.075513
-0.0754686
-0.0754219
-0.0753744
-0.0753272
-0.0752816
-0.0752385
-0.0751988
-0.0751634
-0.0751328
-0.0751077
-0.0750884
-0.0750754
-0.0750689
-0.0699108
-0.0702727
-0.0705967
-0.0708836
-0.0711298
-0.0713404
-0.071519
-0.0716684
-0.0717913
-0.0718905
-0.0719684
-0.0720274
-0.0720698
-0.0720979
-0.0721138
-0.0721194
-0.0721164
-0.0721067
-0.0720918
-0.0720732
-0.0720521
-0.0720297
-0.0720072
-0.0719854
-0.0719652
-0.0719474
-0.0719324
-0.0719207
-0.0719127
-0.0719087
-0.0655586
-0.0660123
-0.0664241
-0.0667947
-0.0671206
-0.0674064
-0.0676557
-0.0678715
-0.0680566
-0.068214
-0.0683463
-0.0684562
-0.0685461
-0.0686184
-0.0686753
-0.0687189
-0.068751
-0.0687736
-0.0687881
-0.0687962
-0.0687993
-0.0687985
-0.0687951
-0.0687899
-0.0687839
-0.0687778
-0.0687722
-0.0687676
-0.0687643
-0.0687626
-0.0613106
-0.0618505
-0.0623446
-0.0627936
-0.0631937
-0.0635495
-0.0638645
-0.0641419
-0.0643847
-0.064596
-0.0647787
-0.0649356
-0.0650694
-0.0651824
-0.0652772
-0.0653557
-0.0654201
-0.0654723
-0.065514
-0.0655468
-0.065572
-0.0655911
-0.0656052
-0.0656153
-0.0656224
-0.0656271
-0.0656301
-0.0656319
-0.0656329
-0.0656333
-0.0571745
-0.0577945
-0.0583649
-0.0588863
-0.059355
-0.0597753
-0.0601507
-0.0604846
-0.0607803
-0.061041
-0.0612698
-0.0614697
-0.0616435
-0.0617938
-0.061923
-0.0620335
-0.0621274
-0.0622066
-0.0622729
-0.0623281
-0.0623736
-0.0624108
-0.0624409
-0.0624649
-0.0624838
-0.0624983
-0.0625092
-0.0625168
-0.0625218
-0.0625241
-0.0531573
-0.0538507
-0.0544908
-0.0550782
-0.0556094
-0.0560882
-0.0565185
-0.0569036
-0.0572471
-0.0575525
-0.0578229
-0.0580616
-0.0582715
-0.0584553
-0.0586156
-0.0587548
-0.0588752
-0.0589787
-0.0590673
-0.0591427
-0.0592064
-0.0592599
-0.0593043
-0.0593408
-0.0593704
-0.0593938
-0.0594117
-0.0594246
-0.0594331
-0.0594372
-0.049266
-0.0500256
-0.0507284
-0.0513751
-0.051962
-0.0524932
-0.0529724
-0.0534032
-0.0537893
-0.0541344
-0.0544418
-0.054715
-0.0549568
-0.0551704
-0.0553583
-0.055523
-0.0556668
-0.0557919
-0.0559002
-0.0559935
-0.0560733
-0.0561412
-0.0561984
-0.056246
-0.056285
-0.0563162
-0.0563404
-0.0563581
-0.0563696
-0.0563753
-0.0455062
-0.0463243
-0.0470823
-0.0477808
-0.0484167
-0.0489937
-0.0495156
-0.0499862
-0.0504094
-0.0507891
-0.0511287
-0.0514317
-0.0517015
-0.0519408
-0.0521526
-0.0523395
-0.0525037
-0.0526476
-0.052773
-0.0528818
-0.0529757
-0.0530561
-0.0531244
-0.0531817
-0.0532289
-0.053267
-0.0532967
-0.0533184
-0.0533327
-0.0533397
-0.0418836
-0.042752
-0.0435573
-0.0443003
-0.0449779
-0.0455938
-0.046152
-0.0466564
-0.0471111
-0.0475199
-0.0478868
-0.0482151
-0.0485084
-0.0487696
-0.0490017
-0.0492073
-0.0493888
-0.0495485
-0.0496885
-0.0498105
-0.0499163
-0.0500074
-0.0500851
-0.0501506
-0.0502049
-0.0502488
-0.0502831
-0.0503084
-0.0503249
-0.0503332
-0.0384023
-0.0393121
-0.0401564
-0.0409358
-0.0416475
-0.0422953
-0.0428831
-0.043415
-0.0438952
-0.0443279
-0.0447168
-0.0450658
-0.0453782
-0.0456572
-0.0459058
-0.0461267
-0.0463223
-0.046495
-0.0466469
-0.0467798
-0.0468954
-0.0469952
-0.0470807
-0.047153
-0.047213
-0.0472618
-0.0472999
-0.0473281
-0.0473466
-0.0473558
-0.0350663
-0.0360088
-0.0368835
-0.0376912
-0.0384294
-0.0391017
-0.0397122
-0.0402653
-0.0407651
-0.041216
-0.0416219
-0.0419867
-0.0423138
-0.0426065
-0.0428678
-0.0431005
-0.0433071
-0.0434899
-0.043651
-0.0437923
-0.0439156
-0.0440224
-0.0441139
-0.0441915
-0.0442562
-0.0443087
-0.0443499
-0.0443803
-0.0444004
-0.0444103
-0.0318777
-0.0328434
-0.0337395
-0.0345669
-0.0353234
-0.0360127
-0.0366389
-0.0372065
-0.0377198
-0.0381832
-0.0386009
-0.0389766
-0.0393139
-0.0396161
-0.0398863
-0.0401273
-0.0403417
-0.0405316
-0.0406994
-0.0408468
-0.0409756
-0.0410874
-0.0411834
-0.0412649
-0.0413329
-0.0413883
-0.0414317
-0.0414638
-0.041485
-0.0414955
-0.0288393
-0.0298189
-0.0307275
-0.0315661
-0.0323329
-0.0330315
-0.0336664
-0.0342419
-0.0347625
-0.0352328
-0.0356569
-0.0360386
-0.0363817
-0.0366893
-0.0369647
-0.0372105
-0.0374294
-0.0376237
-0.0377954
-0.0379466
-0.0380789
-0.0381938
-0.0382926
-0.0383766
-0.0384468
-0.038504
-0.0385489
-0.0385821
-0.038604
-0.0386149
-0.0259506
-0.0269339
-0.0278455
-0.0286862
-0.0294549
-0.0301551
-0.0307912
-0.0313678
-0.0318896
-0.0323609
-0.0327861
-0.0331689
-0.0335132
-0.0338221
-0.0340987
-0.034346
-0.0345663
-0.034762
-0.0349352
-0.0350878
-0.0352214
-0.0353377
-0.0354377
-0.0355229
-0.0355941
-0.0356521
-0.0356977
-0.0357315
-0.0357537
-0.0357649
-0.0232134
-0.024191
-0.0250964
-0.0259307
-0.026693
-0.027387
-0.0280173
-0.0285884
-0.0291051
-0.0295718
-0.0299928
-0.030372
-0.030713
-0.0310191
-0.0312934
-0.0315386
-0.0317573
-0.0319517
-0.0321238
-0.0322756
-0.0324086
-0.0325244
-0.0326242
-0.0327091
-0.0327801
-0.0328381
-0.0328837
-0.0329174
-0.0329397
-0.0329507
-0.0206242
-0.0215855
-0.0224747
-0.0232931
-0.0240403
-0.0247201
-0.0253371
-0.0258959
-0.0264012
-0.0268575
-0.0272691
-0.0276397
-0.0279731
-0.0282724
-0.0285406
-0.0287805
-0.0289945
-0.0291848
-0.0293534
-0.0295022
-0.0296326
-0.0297462
-0.0298442
-0.0299276
-0.0299974
-0.0300544
-0.0300992
-0.0301324
-0.0301543
-0.0301653
-0.0181844
-0.01912
-0.0199841
-0.0207781
-0.0215021
-0.0221602
-0.0227568
-0.0232967
-0.0237847
-0.0242251
-0.0246222
-0.0249797
-0.0253012
-0.0255898
-0.0258485
-0.0260799
-0.0262864
-0.02647
-0.0266328
-0.0267765
-0.0269025
-0.0270123
-0.027107
-0.0271876
-0.0272552
-0.0273104
-0.0273538
-0.0273859
-0.0274071
-0.0274175
-0.015887
-0.0167853
-0.0176136
-0.0183735
-0.0190654
-0.0196935
-0.0202623
-0.0207766
-0.0212411
-0.02166
-0.0220375
-0.0223772
-0.0226827
-0.0229568
-0.0232026
-0.0234224
-0.0236185
-0.0237929
-0.0239476
-0.0240842
-0.024204
-0.0243083
-0.0243984
-0.0244752
-0.0245395
-0.024592
-0.0246334
-0.024664
-0.0246842
-0.0246944
-0.0137334
-0.0145861
-0.0153702
-0.0160877
-0.0167398
-0.0173307
-0.0178651
-0.0183477
-0.018783
-0.0191754
-0.0195286
-0.0198464
-0.0201319
-0.0203882
-0.0206178
-0.0208231
-0.0210063
-0.0211693
-0.0213139
-0.0214414
-0.0215534
-0.021651
-0.0217352
-0.021807
-0.0218671
-0.0219163
-0.0219549
-0.0219836
-0.0220024
-0.0220117
-0.0117118
-0.0125057
-0.0132341
-0.0138991
-0.0145022
-0.0150478
-0.0155405
-0.0159848
-0.0163851
-0.0167455
-0.0170698
-0.0173613
-0.0176231
-0.017858
-0.0180684
-0.0182565
-0.0184243
-0.0185736
-0.018706
-0.0188228
-0.0189254
-0.0190148
-0.019092
-0.0191578
-0.0192129
-0.0192579
-0.0192934
-0.0193197
-0.0193371
-0.019346
-0.00982585
-0.0105539
-0.0112193
-0.0118245
-0.0123718
-0.0128656
-0.0133106
-0.0137112
-0.0140716
-0.0143957
-0.014687
-0.0149486
-0.0151835
-0.015394
-0.0155826
-0.0157511
-0.0159014
-0.0160351
-0.0161537
-0.0162583
-0.0163502
-0.0164303
-0.0164994
-0.0165583
-0.0166077
-0.016648
-0.0166798
-0.0167033
-0.0167188
-0.0167262
-0.00805517
-0.00870211
-0.00929148
-0.00982599
-0.0103081
-0.0107421
-0.0111324
-0.0114831
-0.0117982
-0.0120811
-0.0123352
-0.0125632
-0.0127678
-0.012951
-0.0131151
-0.0132616
-0.0133924
-0.0135086
-0.0136117
-0.0137027
-0.0137825
-0.0138521
-0.0139122
-0.0139634
-0.0140064
-0.0140415
-0.0140691
-0.0140896
-0.0141032
-0.0141104
-0.0064091
-0.00697069
-0.00747897
-0.00793732
-0.00834883
-0.0087179
-0.00904876
-0.00934536
-0.00961128
-0.00984973
-0.0100636
-0.0102553
-0.0104271
-0.0105809
-0.0107186
-0.0108415
-0.0109511
-0.0110486
-0.011135
-0.0112112
-0.0112782
-0.0113365
-0.0113868
-0.0114297
-0.0114657
-0.0114951
-0.0115182
-0.0115353
-0.0115466
-0.0115516
-0.00485258
-0.00530972
-0.00572184
-0.00609205
-0.00642326
-0.0067194
-0.00698418
-0.00722101
-0.00743297
-0.00762274
-0.00779271
-0.00794496
-0.00808129
-0.00820331
-0.00831242
-0.00840985
-0.00849668
-0.00857388
-0.00864229
-0.00870266
-0.00875564
-0.00880182
-0.00884168
-0.00887567
-0.00890414
-0.00892741
-0.00894573
-0.00895933
-0.00896849
-0.00897394
-0.00340737
-0.00376066
-0.00407541
-0.00435524
-0.0046034
-0.00482376
-0.00501976
-0.00519438
-0.00535019
-0.0054894
-0.00561389
-0.00572526
-0.0058249
-0.00591401
-0.00599364
-0.00606471
-0.00612802
-0.00618429
-0.00623414
-0.00627811
-0.0063167
-0.00635032
-0.00637934
-0.00640407
-0.00642479
-0.0064417
-0.00645498
-0.00646478
-0.00647105
-0.00647307
-0.00200959
-0.00223353
-0.00243195
-0.00260713
-0.00276143
-0.00289771
-0.00301843
-0.00312563
-0.00322105
-0.00330613
-0.0033821
-0.00345
-0.00351069
-0.00356493
-0.00361338
-0.0036566
-0.00369509
-0.00372929
-0.00375957
-0.00378629
-0.00380972
-0.00383014
-0.00384776
-0.00386277
-0.00387534
-0.00388561
-0.00389366
-0.00389959
-0.00390378
-0.00390736
-0.000704628
-0.000805869
-0.000891751
-0.000963935
-0.00102488
-0.00107707
-0.00112225
-0.00116174
-0.00119653
-0.00122736
-0.00125478
-0.00127921
-0.00130101
-0.00132046
-0.0013378
-0.00135325
-0.00136698
-0.00137916
-0.00138993
-0.00139941
-0.00140772
-0.00141494
-0.00142117
-0.00142646
-0.00143089
-0.00143451
-0.00143734
-0.00143929
-0.00143984
-0.00143789
-0.259639
-0.258809
-0.257668
-0.256237
-0.254515
-0.252483
-0.250185
-0.247679
-0.245105
-0.242361
-0.239431
-0.236303
-0.232985
-0.229492
-0.22584
-0.222038
-0.218095
-0.214017
-0.209816
-0.205499
-0.201076
-0.196557
-0.191949
-0.187262
-0.182504
-0.177683
-0.172809
-0.167887
-0.162926
-0.157932
-0.152911
-0.147871
-0.142816
-0.137753
-0.132687
-0.127624
-0.122569
-0.117528
-0.112507
-0.107513
-0.102552
-0.0976321
-0.0927604
-0.0879448
-0.0831936
-0.0785153
-0.0739187
-0.0694124
-0.0650051
-0.0607053
-0.0565213
-0.0524603
-0.04853
-0.0447362
-0.0410852
-0.0375811
-0.0342287
-0.03103
-0.027988
-0.0251028
-0.0223758
-0.0198047
-0.0173893
-0.0151253
-0.013011
-0.0110394
-0.00920757
-0.00750503
-0.00592816
-0.0044599
-0.00309896
-0.00181293
-0.000610993
-0.263933
-0.26312
-0.261987
-0.260567
-0.258874
-0.256918
-0.254661
-0.252028
-0.249523
-0.246809
-0.243883
-0.240778
-0.237494
-0.234037
-0.230418
-0.22665
-0.22274
-0.218695
-0.214524
-0.210234
-0.205835
-0.201335
-0.196743
-0.192068
-0.187317
-0.1825
-0.177625
-0.172698
-0.167728
-0.162722
-0.157685
-0.152625
-0.147547
-0.142456
-0.137359
-0.132261
-0.127167
-0.122082
-0.117012
-0.111963
-0.106942
-0.101956
-0.0970107
-0.0921148
-0.0872762
-0.0825033
-0.0778047
-0.0731894
-0.0686662
-0.0642442
-0.0599318
-0.0557376
-0.0516692
-0.0477342
-0.0439389
-0.0402893
-0.0367902
-0.0334459
-0.0302591
-0.0272324
-0.0243665
-0.0216621
-0.0191183
-0.0167332
-0.0145051
-0.0124288
-0.0105031
-0.0087171
-0.00707227
-0.00554906
-0.00415318
-0.00285319
-0.00165868
-0.000527545
-0.266743
-0.265637
-0.26425
-0.262599
-0.260679
-0.258453
-0.25594
-0.253483
-0.250881
-0.248032
-0.244978
-0.241754
-0.23836
-0.234799
-0.231084
-0.227224
-0.223226
-0.219098
-0.214847
-0.210483
-0.206012
-0.201445
-0.196789
-0.192053
-0.187246
-0.182375
-0.177448
-0.172474
-0.167459
-0.162409
-0.157333
-0.152234
-0.14712
-0.141995
-0.136865
-0.131735
-0.126611
-0.121496
-0.116399
-0.111323
-0.106276
-0.101264
-0.0962945
-0.0913756
-0.0865152
-0.0817219
-0.0770046
-0.0723724
-0.0678344
-0.0633999
-0.0590774
-0.0548758
-0.0508029
-0.0468664
-0.0430727
-0.0394282
-0.0359374
-0.032605
-0.0294337
-0.0264259
-0.023583
-0.0209048
-0.0183917
-0.0160402
-0.0138515
-0.011816
-0.0099395
-0.00820171
-0.00661823
-0.00514998
-0.00383139
-0.00259185
-0.00149728
-0.000433817
-0.269237
-0.267897
-0.266304
-0.264464
-0.262364
-0.260024
-0.257434
-0.254856
-0.252092
-0.249101
-0.245925
-0.24259
-0.239096
-0.235444
-0.231643
-0.227703
-0.22363
-0.21943
-0.215113
-0.210684
-0.206154
-0.201529
-0.196819
-0.192032
-0.187175
-0.182258
-0.177288
-0.172272
-0.167217
-0.16213
-0.157018
-0.151885
-0.146738
-0.141581
-0.136421
-0.131261
-0.126107
-0.120965
-0.115839
-0.110737
-0.105663
-0.100625
-0.095631
-0.090688
-0.0858045
-0.0809893
-0.0762516
-0.0716006
-0.0670457
-0.0625963
-0.0582614
-0.0540499
-0.0499699
-0.0460293
-0.0422347
-0.0385924
-0.0351075
-0.0317842
-0.0286259
-0.0256346
-0.0228122
-0.0201578
-0.0176732
-0.015353
-0.0132015
-0.0112049
-0.00937593
-0.00768437
-0.00616131
-0.00474595
-0.00350535
-0.00232344
-0.001333
-0.000332245
-0.271275
-0.269725
-0.267946
-0.265939
-0.263676
-0.261053
-0.258551
-0.255875
-0.252983
-0.249889
-0.246622
-0.2432
-0.239624
-0.235896
-0.232024
-0.228017
-0.22388
-0.219621
-0.215247
-0.210765
-0.206183
-0.20151
-0.196754
-0.191924
-0.187026
-0.18207
-0.177063
-0.172011
-0.166923
-0.161804
-0.156661
-0.151498
-0.146322
-0.141138
-0.135951
-0.130765
-0.125586
-0.120418
-0.115267
-0.11014
-0.105042
-0.099981
-0.0949636
-0.0899981
-0.0850931
-0.0802575
-0.0755005
-0.0708318
-0.066261
-0.0617976
-0.0574509
-0.05323
-0.0491434
-0.0451988
-0.0414034
-0.0377634
-0.034284
-0.0309697
-0.0278238
-0.0248484
-0.0220458
-0.0194144
-0.0169574
-0.0146674
-0.0125521
-0.0105932
-0.0088105
-0.00716374
-0.00570039
-0.00433602
-0.00317407
-0.00204683
-0.00116435
-0.000221296
-0.274327
-0.272839
-0.271121
-0.269185
-0.266999
-0.264525
-0.262069
-0.259442
-0.256624
-0.25362
-0.250437
-0.247093
-0.243599
-0.239954
-0.236163
-0.232233
-0.22817
-0.223981
-0.219672
-0.21525
-0.210724
-0.2061
-0.201387
-0.196594
-0.191727
-0.186795
-0.181806
-0.176768
-0.171687
-0.16657
-0.161424
-0.156254
-0.151066
-0.145866
-0.140658
-0.135447
-0.130237
-0.125035
-0.119845
-0.114672
-0.109522
-0.104402
-0.0993193
-0.0942807
-0.0892947
-0.0843698
-0.0795154
-0.0747408
-0.0700559
-0.0654705
-0.0609944
-0.0566371
-0.0524081
-0.0483157
-0.0443682
-0.0405726
-0.0369355
-0.0334623
-0.0301572
-0.027024
-0.0240645
-0.0212815
-0.0186729
-0.0162429
-0.0139827
-0.0119027
-0.00998056
-0.00824322
-0.00664004
-0.00523558
-0.00392039
-0.00283749
-0.00176171
-0.000990978
-0.000100191
-0.275612
-0.273968
-0.272121
-0.270072
-0.26779
-0.265297
-0.262724
-0.259992
-0.257084
-0.254002
-0.250754
-0.247349
-0.243796
-0.240097
-0.236256
-0.232278
-0.228171
-0.223939
-0.21959
-0.215131
-0.210569
-0.205912
-0.201167
-0.196342
-0.191447
-0.186487
-0.181472
-0.176409
-0.171304
-0.166164
-0.160995
-0.155803
-0.150594
-0.145373
-0.140144
-0.134913
-0.129683
-0.12446
-0.11925
-0.114057
-0.108887
-0.103748
-0.0986454
-0.0935877
-0.088583
-0.0836402
-0.0787687
-0.0739782
-0.0692787
-0.0646802
-0.0601928
-0.0558263
-0.0515902
-0.0474932
-0.0435436
-0.0397487
-0.0361152
-0.0326484
-0.0293529
-0.0262324
-0.0232888
-0.0205251
-0.0179388
-0.0155351
-0.013304
-0.0112581
-0.00937166
-0.00767812
-0.00611705
-0.00476994
-0.00350181
-0.00249756
-0.00146953
-0.000813854
3.13063e-05
-0.276478
-0.274716
-0.272767
-0.270609
-0.268207
-0.265733
-0.263098
-0.260289
-0.25731
-0.254168
-0.250867
-0.247414
-0.243815
-0.240072
-0.236191
-0.232175
-0.228033
-0.223768
-0.219388
-0.214899
-0.210309
-0.205625
-0.200856
-0.196007
-0.191089
-0.186108
-0.181073
-0.175989
-0.170865
-0.165707
-0.16052
-0.155311
-0.150084
-0.144846
-0.139599
-0.134351
-0.129104
-0.123864
-0.118636
-0.113425
-0.108238
-0.103081
-0.0979615
-0.0928869
-0.0878657
-0.0829072
-0.0780207
-0.0732162
-0.068504
-0.0638944
-0.0593975
-0.0550233
-0.0507816
-0.0466813
-0.0427309
-0.0389376
-0.0353084
-0.0318487
-0.0285631
-0.0254556
-0.0225277
-0.0197829
-0.0172185
-0.0148402
-0.0126371
-0.0106238
-0.00877176
-0.00712
-0.00559929
-0.00430727
-0.00308378
-0.00215675
-0.00117233
-0.000634251
0.000173424
-0.276998
-0.27515
-0.273128
-0.270915
-0.268503
-0.26595
-0.263241
-0.26037
-0.257338
-0.254149
-0.250807
-0.247315
-0.24368
-0.239903
-0.23599
-0.231946
-0.227775
-0.223485
-0.219081
-0.214569
-0.209958
-0.205254
-0.200465
-0.195599
-0.190664
-0.185667
-0.180616
-0.175518
-0.170379