/*--------------------------------*- C++ -*----------------------------------*\
  =========                 |
  \\      /  F ield         | OpenFOAM: The Open Source CFD Toolbox
   \\    /   O peration     | Website:  https://openfoam.org
    \\  /    A nd           | Version:  7
     \\/     M anipulation  |
\*---------------------------------------------------------------------------*/
FoamFile
{
    version     2.0;
    format      ascii;
    class       surfaceScalarField;
    location    "30";
    object      phi;
}
// * * * * * * * * * * * * * * * * * * * * * * * * * * * * * * * * * * * * * //

dimensions      [0 3 -1 0 0 0 0];

internalField   nonuniform List<scalar> 
7273
(
0.00053147
0.0122124
-0.00046755
0.000562947
0.0125974
0.000572406
0.012724
0.000570227
0.0127326
0.000562116
0.0126949
0.00055049
0.0126403
0.000536367
0.0125803
0.000520303
0.0125199
0.00050268
0.0124617
0.000483772
0.0124066
0.000463771
0.0123547
0.00044282
0.0123058
0.000421043
0.0122596
0.000398552
0.012216
0.000375453
0.0121748
0.000351843
0.0121361
0.000327812
0.0120999
0.000303435
0.0120662
0.00027878
0.012035
0.000253902
0.0120064
0.00022885
0.0119804
0.000203661
0.011957
0.000178369
0.0119361
0.000152998
0.0119179
0.000127569
0.0119022
0.000102098
0.0118892
7.65971e-05
0.0118787
5.10732e-05
0.0118709
2.55353e-05
0.0118657
0.0118632
0.000445787
0.0121489
-0.000382335
0.000479897
0.0125633
0.000492976
0.012711
0.000494363
0.0127312
0.000489686
0.0126996
0.000481482
0.0126485
0.000470813
0.012591
0.000458212
0.0125326
0.000444032
0.0124759
0.000428527
0.0124221
0.000411877
0.0123714
0.00039422
0.0123235
0.000375673
0.0122782
0.000356345
0.0122353
0.000336338
0.0121948
0.000315747
0.0121567
0.000294659
0.012121
0.000273153
0.0120877
0.000251296
0.0120569
0.00022915
0.0120286
0.000206764
0.0120028
0.000184184
0.0119795
0.000161446
0.0119589
0.000138582
0.0119407
0.000115619
0.0119252
9.25797e-05
0.0119122
6.9482e-05
0.0119018
4.63409e-05
0.011894
2.31726e-05
0.0118889
0.0118863
0.000363992
0.0120865
-0.000301605
0.000400261
0.0125271
0.000416641
0.0126946
0.000421374
0.0127265
0.00041992
0.012701
0.000414909
0.0126535
0.000407449
0.0125984
0.000398071
0.0125419
0.00038711
0.0124869
0.000374801
0.0124344
0.000361317
0.0123848
0.000346786
0.012338
0.000331318
0.0122936
0.000315015
0.0122516
0.000297975
0.0122119
0.000280291
0.0121744
0.000262049
0.0121392
0.000243327
0.0121064
0.000224194
0.012076
0.000204713
0.0120481
0.000184939
0.0120226
0.000164918
0.0119996
0.000144694
0.0119791
0.000124302
0.0119611
0.000103775
0.0119457
8.31407e-05
0.0119329
6.2424e-05
0.0119226
4.16458e-05
0.0119148
2.08285e-05
0.0119097
0.0119072
0.000285808
0.0120258
-0.000225055
0.000323895
0.012489
0.000343267
0.0126752
0.000351093
0.0127187
0.00035269
0.0126994
0.000350709
0.0126555
0.000346275
0.0126029
0.000339922
0.0125483
0.00033198
0.0124948
0.000322679
0.0124437
0.000312184
0.0123953
0.000300614
0.0123496
0.000288074
0.0123062
0.000274659
0.012265
0.000260463
0.0122261
0.000245574
0.0121893
0.000230077
0.0121547
0.000214048
0.0121225
0.000197559
0.0120925
0.000180673
0.0120649
0.000163447
0.0120398
0.000145931
0.0120171
0.000128171
0.0119968
0.000110208
0.0119791
9.20789e-05
0.0119638
7.38161e-05
0.0119511
5.54493e-05
0.0119409
3.70052e-05
0.0119333
1.85115e-05
0.0119282
0.0119257
0.000211268
0.0119671
-0.000152567
0.000250864
0.0124494
0.000272734
0.0126533
0.000283355
0.012708
0.00028788
0.0126949
0.000288798
0.0126546
0.000287228
0.0126044
0.000283728
0.0125518
0.000278636
0.0124999
0.000272178
0.0124502
0.000264512
0.012403
0.000255753
0.0123583
0.000245998
0.0123159
0.00023534
0.0122757
0.000223866
0.0122375
0.000211661
0.0122015
0.000198808
0.0121676
0.000185383
0.0121359
0.000171455
0.0121064
0.000157089
0.0120793
0.000142344
0.0120545
0.000127273
0.0120321
0.000111924
0.0120122
9.63414e-05
0.0119947
8.05655e-05
0.0119796
6.46332e-05
0.011967
4.85785e-05
0.011957
3.24327e-05
0.0119494
1.62282e-05
0.0119444
0.0119419
0.000140299
0.01191
-8.32415e-05
0.000181108
0.0124086
0.000204861
0.0126296
0.000218162
0.0126947
0.000225483
0.0126876
0.000229125
0.0126509
0.000230247
0.0126033
0.000229443
0.0125526
0.000227051
0.0125023
0.000223289
0.0124539
0.000218308
0.012408
0.00021222
0.0123644
0.00020512
0.012323
0.000197094
0.0122837
0.000188226
0.0122464
0.000178599
0.0122111
0.000168291
0.0121779
0.000157378
0.0121468
0.000145929
0.0121179
0.000134008
0.0120912
0.000121675
0.0120669
0.000108985
0.0120448
9.59892e-05
0.0120252
8.27335e-05
0.0120079
6.92618e-05
0.0119931
5.56142e-05
0.0119807
4.18283e-05
0.0119708
2.79395e-05
0.0119633
1.3984e-05
0.0119583
0.0119559
7.36755e-05
0.0118542
-1.78669e-05
0.000114421
0.0123678
0.000139575
0.0126044
0.000155577
0.0126787
0.000165496
0.0126777
0.000171652
0.0126448
0.000175296
0.0125997
0.000177039
0.0125508
0.000177207
0.0125021
0.000176003
0.0124551
0.000173573
0.0124104
0.000170028
0.012368
0.000165459
0.0123276
0.000159948
0.0122892
0.000153576
0.0122528
0.000146423
0.0122183
0.000138564
0.0121857
0.000130073
0.0121553
0.000121019
0.0121269
0.000111466
0.0121008
0.000101475
0.0120769
9.11012e-05
0.0120552
8.03971e-05
0.0120359
6.94118e-05
0.0120189
5.8191e-05
0.0120043
4.67779e-05
0.0119921
3.5213e-05
0.0119823
2.35352e-05
0.011975
1.1784e-05
0.0119701
0.0119677
1.23536e-05
0.0118006
4.13132e-05
5.04757e-05
0.0123297
7.75475e-05
0.0125774
9.57492e-05
0.0126605
0.000107873
0.0126655
0.000116329
0.0126363
0.000122351
0.0125936
0.000126507
0.0125467
0.000129096
0.0124995
0.000130316
0.0124539
0.00013031
0.0124104
0.000129185
0.0123691
0.00012703
0.0123298
0.000123923
0.0122923
0.000119941
0.0122568
0.000115162
0.012223
0.000109658
0.0121913
0.000103501
0.0121614
9.67596e-05
0.0121337
8.94976e-05
0.012108
8.17753e-05
0.0120846
7.36496e-05
0.0120633
6.51741e-05
0.0120444
5.63993e-05
0.0120277
4.73731e-05
0.0120133
3.81407e-05
0.0120013
2.87452e-05
0.0119917
1.92283e-05
0.0119845
9.6322e-06
0.0119797
0.0119773
-4.95647e-05
0.0117517
9.8467e-05
-1.08397e-05
0.012291
1.87619e-05
0.0125478
3.84359e-05
0.0126409
5.24949e-05
0.0126515
6.31279e-05
0.0126257
7.14033e-05
0.0125854
7.78324e-05
0.0125403
8.27081e-05
0.0124947
8.62248e-05
0.0124504
8.8521e-05
0.0124081
8.97001e-05
0.0123679
8.98463e-05
0.0123296
8.90357e-05
0.0122931
8.73421e-05
0.0122585
8.48387e-05
0.0122255
8.15973e-05
0.0121945
7.76877e-05
0.0121653
7.31767e-05
0.0121382
6.81277e-05
0.0121131
6.26013e-05
0.0120901
5.66548e-05
0.0120693
5.03424e-05
0.0120507
4.3716e-05
0.0120343
3.68249e-05
0.0120202
2.97163e-05
0.0120085
2.24353e-05
0.011999
1.50258e-05
0.0119919
7.53243e-06
0.0119872
0.0119848
-0.000107587
0.0117054
0.000153792
-6.79224e-05
0.0122513
-3.84652e-05
0.0125183
-1.69095e-05
0.0126193
-7.25171e-07
0.0126353
1.20279e-05
0.0126129
2.24185e-05
0.012575
3.09871e-05
0.0125317
3.80254e-05
0.0124876
4.37206e-05
0.0124447
4.82039e-05
0.0124036
5.15756e-05
0.0123645
5.39162e-05
0.0123273
5.52985e-05
0.0122918
5.57936e-05
0.012258
5.5472e-05
0.0122259
5.44028e-05
0.0121956
5.2654e-05
0.0121671
5.02915e-05
0.0121406
4.7378e-05
0.012116
4.39738e-05
0.0120935
4.01361e-05
0.0120731
3.59199e-05
0.0120549
3.13779e-05
0.0120389
2.65606e-05
0.012025
2.15164e-05
0.0120135
1.62922e-05
0.0120042
1.09339e-05
0.0119973
5.48766e-06
0.0119926
0.0119903
-0.000162567
0.0116616
0.0002064
-0.000123657
0.0122124
-9.32081e-05
0.0124879
-6.9985e-05
0.0125961
-5.18714e-05
0.0126172
-3.71068e-05
0.0125982
-2.46832e-05
0.0125626
-1.40721e-05
0.0125211
-4.97833e-06
0.0124785
2.78504e-06
0.0124369
9.34941e-06
0.0123971
1.48086e-05
0.0123591
1.92409e-05
0.0123228
2.27167e-05
0.0122883
2.53046e-05
0.0122554
2.70729e-05
0.0122241
2.80872e-05
0.0121945
2.84147e-05
0.0121668
2.81199e-05
0.0121409
2.72646e-05
0.0121169
2.59085e-05
0.0120949
2.41088e-05
0.0120749
2.19209e-05
0.0120571
1.93978e-05
0.0120414
1.6591e-05
0.0120279
1.35501e-05
0.0120165
1.0323e-05
0.0120075
6.95718e-06
0.0120006
3.50028e-06
0.0119961
0.0119938
-0.000215096
0.0116203
0.000256424
-0.000176813
0.0121741
-0.00014545
0.0124565
-0.000120766
0.0125714
-0.000100893
0.0125973
-8.42621e-05
0.0125815
-6.99263e-05
0.0125482
-5.7377e-05
0.0125085
-4.63272e-05
0.0124675
-3.65945e-05
0.0124272
-2.80531e-05
0.0123885
-2.06077e-05
0.0123516
-1.41823e-05
0.0123164
-8.70902e-06
0.0122828
-4.12234e-06
0.0122508
-3.57174e-07
0.0122203
2.65558e-06
0.0121915
4.978e-06
0.0121644
6.67179e-06
0.0121392
7.79822e-06
0.0121157
8.41652e-06
0.0120942
8.58388e-06
0.0120748
8.35562e-06
0.0120573
7.78525e-06
0.0120419
6.92466e-06
0.0120287
5.82423e-06
0.0120176
4.53299e-06
0.0120087
3.09938e-06
0.0120021
1.57217e-06
0.0119976
0.0119954
-0.000265143
0.0115814
0.000304077
-0.000227377
0.0121363
-0.000195394
0.0124245
-0.000169365
0.0125454
-0.000147852
0.0125758
-0.000129469
0.0125632
-0.000113332
0.0125321
-9.89505e-05
0.0124941
-8.60472e-05
0.0124546
-7.44456e-05
0.0124156
-6.40225e-05
0.0123781
-5.46857e-05
0.0123423
-4.63605e-05
0.0123081
-3.89804e-05
0.0122754
-3.24816e-05
0.0122443
-2.68005e-05
0.0122147
-2.18754e-05
0.0121866
-1.7643e-05
0.0121602
-1.40412e-05
0.0121356
-1.10102e-05
0.0121127
-8.49166e-06
0.0120917
-6.42895e-06
0.0120727
-4.76692e-06
0.0120556
-3.45195e-06
0.0120406
-2.43184e-06
0.0120277
-1.6557e-06
0.0120169
-1.07379e-06
0.0120082
-6.36805e-07
0.0120016
-2.95226e-07
0.0119973
0.0119951
-0.000312733
0.0115446
0.00034947
-0.000275571
0.0120992
-0.000243077
0.012392
-0.000215835
0.0125181
-0.000192797
0.0125528
-0.000172768
0.0125431
-0.000154931
0.0125142
-0.000138818
0.012478
-0.000124159
0.0124399
-0.000110785
0.0124022
-9.85746e-05
0.0123659
-8.74387e-05
0.0123312
-7.73043e-05
0.012298
-6.81066e-05
0.0122662
-5.97838e-05
0.012236
-5.22748e-05
0.0122071
-4.55182e-05
0.0121799
-3.94532e-05
0.0121542
-3.40197e-05
0.0121301
-2.91585e-05
0.0121078
-2.48122e-05
0.0120874
-2.09246e-05
0.0120688
-1.74409e-05
0.0120522
-1.43076e-05
0.0120375
-1.14724e-05
0.0120249
-8.88417e-06
0.0120143
-6.49271e-06
0.0120058
-4.24821e-06
0.0119994
-2.10056e-06
0.0119951
0.011993
-0.000357981
0.0115099
0.000392688
-0.000321487
0.0120627
-0.000288556
0.0123591
-0.000260219
0.0124898
-0.00023577
0.0125283
-0.000214197
0.0125216
-0.000194758
0.0124948
-0.000177008
0.0124603
-0.000160688
0.0124236
-0.000145633
0.0123872
-0.000131727
0.012352
-0.000118882
0.0123183
-0.000107026
0.0122861
-9.60961e-05
0.0122553
-8.60334e-05
0.0122259
-7.6778e-05
0.0121979
-6.82706e-05
0.0121713
-6.04515e-05
0.0121463
-5.32623e-05
0.0121229
-4.66452e-05
0.0121012
-4.05435e-05
0.0120813
-3.49015e-05
0.0120632
-2.96651e-05
0.0120469
-2.47808e-05
0.0120326
-2.01965e-05
0.0120203
-1.5861e-05
0.0120099
-1.17238e-05
0.0120016
-7.73478e-06
0.0119954
-3.84349e-06
0.0119912
0.0119892
-0.000400999
0.0114771
0.000433817
-0.000365184
0.0120269
-0.000331894
0.0123258
-0.000302568
0.0124605
-0.000276815
0.0125026
-0.000253797
0.0124985
-0.000232848
0.0124739
-0.000213552
0.012441
-0.000195661
0.0124057
-0.000179014
0.0123705
-0.0001635
0.0123365
-0.000149031
0.0123038
-0.000135538
0.0122726
-0.00012296
0.0122427
-0.000111239
0.0122142
-0.000100317
0.012187
-9.0137e-05
0.0121612
-8.06405e-05
0.0121368
-7.17705e-05
0.0121141
-6.34705e-05
0.0120929
-5.56847e-05
0.0120735
-4.83583e-05
0.0120558
-4.14375e-05
0.01204
-3.48693e-05
0.012026
-2.86019e-05
0.012014
-2.25841e-05
0.0120039
-1.67653e-05
0.0119958
-1.10953e-05
0.0119897
-5.52353e-06
0.0119857
0.0119836
-0.000441873
0.011446
0.000472941
-0.000406727
0.0119917
-0.000373148
0.0122922
-0.000342931
0.0124303
-0.000315973
0.0124756
-0.000291605
0.0124742
-0.000269237
0.0124515
-0.000248482
0.0124202
-0.000229106
0.0123863
-0.000210954
0.0123524
-0.000193915
0.0123194
-0.000177905
0.0122878
-0.000162858
0.0122576
-0.000148712
0.0122286
-0.000135412
0.0122009
-0.000122901
0.0121745
-0.000111124
0.0121494
-0.000100025
0.0121257
-8.95479e-05
0.0121036
-7.96368e-05
0.012083
-7.02374e-05
0.0120641
-6.12956e-05
0.0120469
-5.27583e-05
0.0120315
-4.4573e-05
0.0120179
-3.66882e-05
0.0120061
-2.90529e-05
0.0119963
-2.16167e-05
0.0119884
-1.43294e-05
0.0119824
-7.14048e-06
0.0119785
0.0119765
-0.000480679
0.0114166
0.000510139
-0.000446182
0.0119572
-0.000412375
0.0122584
-0.000381358
0.0123992
-0.000353289
0.0124475
-0.000327661
0.0124485
-0.00030396
0.0124278
-0.000281832
0.0123981
-0.000261054
0.0123655
-0.000241478
0.0123328
-0.000222996
0.012301
-0.000205526
0.0122704
-0.000189002
0.012241
-0.000173366
0.0122129
-0.000158564
0.0121861
-0.00014454
0.0121604
-0.000131242
0.0121361
-0.000118613
0.0121131
-0.0001066
0.0120916
-9.51486e-05
0.0120716
-8.42049e-05
0.0120532
-7.37159e-05
0.0120364
-6.36292e-05
0.0120214
-5.3893e-05
0.0120081
-4.44561e-05
0.0119967
-3.52679e-05
0.0119871
-2.62783e-05
0.0119794
-1.74372e-05
0.0119736
-8.69437e-06
0.0119697
0.0119678
-0.000517487
0.0113886
0.00054548
-0.000483615
0.0119234
-0.000449631
0.0122244
-0.000417896
0.0123675
-0.000388804
0.0124184
-0.000362003
0.0124217
-0.000337053
0.0124028
-0.000313634
0.0123747
-0.000291535
0.0123434
-0.000270613
0.0123119
-0.000250766
0.0122811
-0.000231913
0.0122515
-0.00021399
0.0122231
-0.00019694
0.0121959
-0.00018071
0.0121698
-0.000165247
0.012145
-0.000150499
0.0121213
-0.000136412
0.012099
-0.000122934
0.0120781
-0.000110012
0.0120586
-9.7592e-05
0.0120407
-8.56231e-05
0.0120244
-7.40534e-05
0.0120098
-6.28317e-05
0.0119969
-5.19074e-05
0.0119858
-4.12304e-05
0.0119764
-3.0751e-05
0.0119689
-2.04193e-05
0.0119633
-1.01855e-05
0.0119595
0.0119576
-0.000552369
0.0113619
0.00057903
-0.00051909
0.0118901
-0.000484972
0.0121903
-0.000452593
0.0123351
-0.000422563
0.0123884
-0.000394671
0.0123939
-0.000368553
0.0123767
-0.000343921
0.0123501
-0.000320578
0.0123201
-0.000298389
0.0122897
-0.000277252
0.01226
-0.000257091
0.0122313
-0.000237843
0.0122039
-0.000219452
0.0121775
-0.000201867
0.0121523
-0.000185036
0.0121281
-0.000168909
0.0121052
-0.000153434
0.0120835
-0.000138559
0.0120632
-0.000124233
0.0120443
-0.000110405
0.0120269
-9.70221e-05
0.0120111
-8.40347e-05
0.0119968
-7.13922e-05
0.0119843
-5.90446e-05
0.0119734
-4.69424e-05
0.0119643
-3.50362e-05
0.011957
-2.32766e-05
0.0119515
-1.16142e-05
0.0119478
0.011946
-0.000585391
0.0113365
0.000610849
-0.000552672
0.0118574
-0.000518455
0.0121561
-0.000485501
0.0123022
-0.00045461
0.0123575
-0.000425705
0.0123649
-0.000398497
0.0123495
-0.000372728
0.0123243
-0.000348216
0.0122956
-0.000324832
0.0122663
-0.00030248
0.0122376
-0.000281083
0.01221
-0.000260581
0.0121834
-0.00024092
0.0121578
-0.00022205
0.0121334
-0.000203921
0.01211
-0.000186484
0.0120878
-0.000169688
0.0120668
-0.000153485
0.012047
-0.000137822
0.0120287
-0.00012265
0.0120117
-0.000107919
0.0119963
-9.35782e-05
0.0119825
-7.95786e-05
0.0119703
-6.58709e-05
0.0119597
-5.24062e-05
0.0119509
-3.91355e-05
0.0119437
-2.60102e-05
0.0119384
-1.29812e-05
0.0119348
0.011933
-0.000616618
0.0113121
0.000640995
-0.000584422
0.0118252
-0.000550136
0.0121218
-0.000516668
0.0122687
-0.00048499
0.0123258
-0.000455149
0.0123351
-0.000426923
0.0123213
-0.00040009
0.0122975
-0.000374482
0.01227
-0.000349974
0.0122418
-0.000326476
0.0122141
-0.000303913
0.0121874
-0.000282227
0.0121617
-0.000261364
0.012137
-0.000241277
0.0121133
-0.000221918
0.0120907
-0.000203238
0.0120691
-0.000185188
0.0120487
-0.000167721
0.0120296
-0.000150787
0.0120117
-0.000134336
0.0119953
-0.00011832
0.0119803
-0.000102689
0.0119669
-8.73956e-05
0.011955
-7.23901e-05
0.0119447
-5.76247e-05
0.0119361
-4.30513e-05
0.0119292
-2.86215e-05
0.0119239
-1.42871e-05
0.0119205
0.0119187
-0.000646114
0.0112887
0.000669526
-0.000614405
0.0117935
-0.000580072
0.0120875
-0.000546146
0.0122348
-0.000513749
0.0122934
-0.000483042
0.0123044
-0.000453871
0.0122921
-0.000426044
0.0122696
-0.000399407
0.0122433
-0.000373845
0.0122162
-0.000349268
0.0121896
-0.000325607
0.0121637
-0.000302803
0.0121389
-0.000280806
0.012115
-0.000259568
0.0120921
-0.000239043
0.0120701
-0.000219186
0.0120492
-0.000199947
0.0120295
-0.000181281
0.0120109
-0.000163138
0.0119936
-0.000145472
0.0119776
-0.000128233
0.0119631
-0.000111375
0.01195
-9.48483e-05
0.0119384
-7.86064e-05
0.0119285
-6.26014e-05
0.0119201
-4.67859e-05
0.0119133
-3.11122e-05
0.0119083
-1.55327e-05
0.0119049
0.0119032
-0.000673942
0.0112661
0.000696499
-0.000642681
0.0117622
-0.000608321
0.0120531
-0.000573987
0.0122004
-0.000540934
0.0122604
-0.000509429
0.0122729
-0.000479379
0.0122621
-0.000450624
0.0122409
-0.000423026
0.0122158
-0.000396474
0.0121897
-0.000370885
0.012164
-0.00034619
0.012139
-0.000322333
0.012115
-0.000299266
0.0120919
-0.000276941
0.0120697
-0.000255315
0.0120485
-0.000234343
0.0120283
-0.000213978
0.0120091
-0.000194175
0.0119911
-0.000174886
0.0119743
-0.000156066
0.0119588
-0.000137666
0.0119447
-0.000119641
0.011932
-0.000101943
0.0119207
-8.45244e-05
0.011911
-6.73398e-05
0.0119029
-5.03419e-05
0.0118963
-3.3484e-05
0.0118914
-1.67189e-05
0.0118881
0.0118865
-0.000700165
0.0112443
0.00072197
-0.000669313
0.0117313
-0.000634939
0.0120187
-0.000600243
0.0121657
-0.000566593
0.0122267
-0.000534353
0.0122407
-0.000503488
0.0122312
-0.000473869
0.0122113
-0.000445371
0.0121873
-0.000417893
0.0121622
-0.000391354
0.0121374
-0.000365688
0.0121134
-0.000340841
0.0120902
-0.000316765
0.0120678
-0.000293416
0.0120464
-0.000270751
0.0120258
-0.000248725
0.0120062
-0.000227295
0.0119877
-0.000206416
0.0119702
-0.000186043
0.0119539
-0.000166128
0.0119389
-0.000146628
0.0119252
-0.000127495
0.0119128
-0.000108684
0.0119019
-9.01492e-05
0.0118925
-7.18438e-05
0.0118846
-5.37224e-05
0.0118782
-3.57388e-05
0.0118734
-1.78466e-05
0.0118702
0.0118686
-0.000724846
0.0112232
0.000745995
-0.000694363
0.0117009
-0.000659985
0.0119844
-0.000624965
0.0121307
-0.000590773
0.0121925
-0.000557856
0.0122077
-0.000526237
0.0121996
-0.000495814
0.0121808
-0.000466478
0.0121579
-0.000438134
0.0121339
-0.000410705
0.01211
-0.000384128
0.0120868
-0.00035835
0.0120644
-0.000333326
0.0120428
-0.000309013
0.0120221
-0.000285368
0.0120022
-0.000262349
0.0119832
-0.000239914
0.0119652
-0.000218019
0.0119483
-0.000196619
0.0119325
-0.00017567
0.0119179
-0.000155127
0.0119046
-0.000134945
0.0118927
-0.00011508
0.0118821
-9.54859e-05
0.0118729
-7.61177e-05
0.0118652
-5.69304e-05
0.011859
-3.78786e-05
0.0118544
-1.89169e-05
0.0118513
0.0118497
-0.000748044
0.0112026
0.00076863
-0.00071789
0.0116707
-0.000683514
0.01195
-0.000648206
0.0120954
-0.000613521
0.0121579
-0.000579983
0.0121742
-0.000547665
0.0121673
-0.000516496
0.0121497
-0.000486378
0.0121278
-0.000457226
0.0121047
-0.000428965
0.0120817
-0.000401535
0.0120594
-0.000374885
0.0120377
-0.000348971
0.0120169
-0.000323751
0.0119969
-0.000299185
0.0119776
-0.000275231
0.0119593
-0.000251849
0.0119419
-0.000228994
0.0119255
-0.000206626
0.0119101
-0.0001847
0.011896
-0.000163172
0.0118831
-0.000141999
0.0118715
-0.000121136
0.0118612
-0.00010054
0.0118523
-8.01657e-05
0.0118448
-5.99691e-05
0.0118388
-3.99056e-05
0.0118343
-1.99307e-05
0.0118313
0.0118298
-0.000769818
0.0111825
0.000789928
-0.000739954
0.0116408
-0.000705582
0.0119156
-0.000670017
0.0120599
-0.000634882
0.0121227
-0.000600774
0.0121401
-0.000567811
0.0121343
-0.00053595
0.0121178
-0.000505106
0.012097
-0.0004752
0.0120748
-0.000446163
0.0120527
-0.000417936
0.0120311
-0.00039047
0.0120103
-0.000363722
0.0119902
-0.000337652
0.0119708
-0.00031222
0.0119522
-0.000287388
0.0119344
-0.000263114
0.0119176
-0.000239358
0.0119017
-0.000216077
0.0118869
-0.00019323
0.0118732
-0.000170773
0.0118606
-0.000148664
0.0118494
-0.00012686
0.0118394
-0.000105317
0.0118308
-8.39922e-05
0.0118235
-6.28417e-05
0.0118177
-4.1822e-05
0.0118133
-2.08893e-05
0.0118104
0.0118089
-0.000790227
0.0111627
0.000809944
-0.000760611
0.0116112
-0.000726243
0.0118812
-0.000690446
0.0120241
-0.000654903
0.0120872
-0.000620271
0.0121055
-0.000586714
0.0121007
-0.000554211
0.0120853
-0.000522694
0.0120654
-0.000492087
0.0120442
-0.000462326
0.0120229
-0.000433355
0.0120022
-0.000405127
0.011982
-0.0003776
0.0119626
-0.000350734
0.0119439
-0.000324492
0.011926
-0.000298836
0.0119088
-0.000273726
0.0118925
-0.000249122
0.0118771
-0.000224984
0.0118627
-0.00020127
0.0118494
-0.000177939
0.0118373
-0.000154949
0.0118264
-0.000132258
0.0118167
-0.000109823
0.0118083
-8.76018e-05
0.0118013
-6.55518e-05
0.0117956
-4.36301e-05
0.0117914
-2.17937e-05
0.0117885
0.0117871
-0.000809323
0.0111433
0.000828726
-0.000779916
0.0115818
-0.000745547
0.0118469
-0.00070954
0.011988
-0.000673625
0.0120513
-0.000638514
0.0120703
-0.000604409
0.0120666
-0.000571315
0.0120522
-0.000539173
0.0120333
-0.000507916
0.0120129
-0.000477482
0.0119925
-0.000447819
0.0119725
-0.000418881
0.0119531
-0.000390626
0.0119344
-0.000363018
0.0119163
-0.000336019
0.011899
-0.000309591
0.0118824
-0.000283698
0.0118666
-0.000258301
0.0118517
-0.000233359
0.0118378
-0.000208832
0.0118249
-0.00018468
0.0118132
-0.000160863
0.0118026
-0.000137337
0.0117932
-0.000114063
0.0117851
-9.09991e-05
0.0117782
-6.81026e-05
0.0117727
-4.5332e-05
0.0117686
-2.26451e-05
0.0117658
0.0117645
-0.000827157
0.0111242
0.00084632
-0.000797918
0.0115526
-0.000763544
0.0118125
-0.000727345
0.0119519
-0.000691092
0.012015
-0.000655541
0.0120348
-0.000620933
0.012032
-0.000587292
0.0120186
-0.000554573
0.0120006
-0.000522714
0.0119811
-0.000491657
0.0119614
-0.000461352
0.0119422
-0.000431754
0.0119235
-0.000402823
0.0119054
-0.000374522
0.011888
-0.000346817
0.0118712
-0.000319671
0.0118552
-0.000293047
0.01184
-0.000266907
0.0118256
-0.000241213
0.0118121
-0.000215926
0.0117996
-0.000191005
0.0117882
-0.000166412
0.011778
-0.000142105
0.0117689
-0.000118044
0.011761
-9.41888e-05
0.0117544
-7.04978e-05
0.0117491
-4.69302e-05
0.011745
-2.34446e-05
0.0117424
0.011741
-0.000843775
0.0111052
0.00086277
-0.000814665
0.0115235
-0.000780277
0.0117781
-0.000743903
0.0119155
-0.00070734
0.0119785
-0.000671389
0.0119988
-0.000636318
0.011997
-0.000602175
0.0119844
-0.000568923
0.0119673
-0.000536509
0.0119487
-0.000504877
0.0119298
-0.000473977
0.0119113
-0.000443767
0.0118933
-0.000414209
0.0118759
-0.000385267
0.0118591
-0.000356906
0.0118429
-0.000329091
0.0118274
-0.000301787
0.0118126
-0.000274955
0.0117987
-0.00024856
0.0117857
-0.000222563
0.0117736
-0.000196924
0.0117626
-0.000171606
0.0117527
-0.000146568
0.0117438
-0.000121771
0.0117362
-9.71755e-05
0.0117298
-7.27408e-05
0.0117246
-4.84269e-05
0.0117207
-2.41933e-05
0.0117181
0.0117168
-0.000859215
0.0110863
0.000878109
-0.000830196
0.0114945
-0.000795786
0.0117437
-0.00075925
0.0118789
-0.000722407
0.0119416
-0.000686089
0.0119625
-0.000650596
0.0119615
-0.000615992
0.0119498
-0.000582252
0.0119336
-0.000549327
0.0119157
-0.000517164
0.0118977
-0.000485717
0.0118798
-0.000454943
0.0118625
-0.000424805
0.0118457
-0.00039527
0.0118295
-0.000366302
0.0118139
-0.000337867
0.011799
-0.000309931
0.0117847
-0.000282458
0.0117712
-0.000255411
0.0117586
-0.000228753
0.011747
-0.000202447
0.0117363
-0.000176453
0.0117267
-0.000150734
0.0117181
-0.00012525
0.0117107
-9.9964e-05
0.0117045
-7.48351e-05
0.0116995
-4.98245e-05
0.0116957
-2.48925e-05
0.0116932
0.0116919
-0.000873512
0.0110674
0.000892369
-0.000844549
0.0114655
-0.000810107
0.0117093
-0.000773421
0.0118423
-0.000736323
0.0119045
-0.000699672
0.0119259
-0.000663795
0.0119256
-0.00062877
0.0119148
-0.000594584
0.0118994
-0.000561191
0.0118824
-0.000528543
0.011865
-0.000496593
0.0118479
-0.000465301
0.0118312
-0.000434631
0.0118151
-0.000404549
0.0117995
-0.000375021
0.0117844
-0.000346015
0.01177
-0.000317495
0.0117562
-0.000289428
0.0117432
-0.000261778
0.011731
-0.000234508
0.0117197
-0.000207581
0.0117094
-0.000180961
0.0117
-0.000154609
0.0116918
-0.000128488
0.0116846
-0.000102559
0.0116786
-7.67843e-05
0.0116737
-5.11253e-05
0.0116701
-2.55434e-05
0.0116676
0.0116664
-0.000886694
0.0110485
0.000905572
-0.000857752
0.0114365
-0.000823271
0.0116748
-0.000786447
0.0118054
-0.000749117
0.0118672
-0.000712166
0.0118889
-0.000675941
0.0118894
-0.000640535
0.0118794
-0.000605944
0.0118648
-0.000572126
0.0118485
-0.000539035
0.0118319
-0.000506627
0.0118155
-0.000474862
0.0117995
-0.000443705
0.0117839
-0.000413122
0.0117689
-0.000383081
0.0117544
-0.000353549
0.0117404
-0.000324493
0.0117271
-0.000295879
0.0117146
-0.000267673
0.0117028
-0.000239838
0.0116919
-0.000212338
0.0116819
-0.000185138
0.0116728
-0.000158201
0.0116648
-0.000131489
0.0116579
-0.000104965
0.011652
-7.85918e-05
0.0116473
-5.23317e-05
0.0116438
-2.6147e-05
0.0116414
0.0116402
-0.000898782
0.0110296
0.000917734
-0.00086983
0.0114076
-0.000835302
0.0116403
-0.000798351
0.0117685
-0.000760815
0.0118296
-0.000723596
0.0118517
-0.000687058
0.0118528
-0.00065131
0.0118436
-0.000616353
0.0118299
-0.000582152
0.0118143
-0.000548661
0.0117984
-0.000515838
0.0117827
-0.000483644
0.0117673
-0.000452044
0.0117523
-0.000421006
0.0117378
-0.000390497
0.0117238
-0.000360485
0.0117104
-0.000330938
0.0116976
-0.000301824
0.0116855
-0.000273107
0.0116741
-0.000244753
0.0116635
-0.000216727
0.0116538
-0.000188993
0.0116451
-0.000161516
0.0116374
-0.00013426
0.0116306
-0.000107187
0.011625
-8.02612e-05
0.0116204
-5.34461e-05
0.011617
-2.67046e-05
0.0116147
0.0116135
-0.000909788
0.0110105
0.000928862
-0.0008808
0.0113786
-0.000846221
0.0116057
-0.000809156
0.0117314
-0.000771438
0.0117919
-0.000733982
0.0118143
-0.000697167
0.011816
-0.000661115
0.0118076
-0.000625833
0.0117946
-0.000591289
0.0117798
-0.000557441
0.0117646
-0.000524246
0.0117495
-0.000491666
0.0117347
-0.000459667
0.0117203
-0.000428217
0.0117064
-0.000397284
0.0116929
-0.000366837
0.01168
-0.000336845
0.0116676
-0.000307274
0.0116559
-0.000278092
0.0116449
-0.000249264
0.0116347
-0.000220756
0.0116253
-0.000192534
0.0116169
-0.000164563
0.0116094
-0.000136806
0.0116029
-0.000109229
0.0115974
-8.17961e-05
0.011593
-5.44708e-05
0.0115897
-2.72174e-05
0.0115874
0.0115863
-0.000919722
0.0109913
0.000938958
-0.000890676
0.0113496
-0.000856044
0.011571
-0.000818879
0.0116942
-0.000781005
0.0117541
-0.000743343
0.0117766
-0.000706289
0.011779
-0.000669971
0.0117713
-0.000634403
0.011759
-0.000599558
0.0117449
-0.000565393
0.0117304
-0.000531867
0.0117159
-0.000498944
0.0117018
-0.00046659
0.011688
-0.000434771
0.0116746
-0.000403458
0.0116616
-0.00037262
0.0116491
-0.000342225
0.0116372
-0.000312243
0.0116259
-0.000282639
0.0116153
-0.000253381
0.0116054
-0.000224436
0.0115964
-0.000195769
0.0115882
-0.000167347
0.011581
-0.000139134
0.0115747
-0.000111097
0.0115694
-8.31999e-05
0.0115651
-5.54082e-05
0.0115619
-2.76865e-05
0.0115597
0.0115586
-0.000928583
0.0109719
0.000948015
-0.000899464
0.0113204
-0.000864781
0.0115364
-0.000827534
0.011657
-0.000789529
0.0117161
-0.000751696
0.0117388
-0.000714438
0.0117417
-0.000677893
0.0117347
-0.00064208
0.0117232
-0.000606974
0.0117098
-0.000572534
0.011696
-0.000538721
0.0116821
-0.000505497
0.0116685
-0.000472829
0.0116553
-0.000440685
0.0116424
-0.000409035
0.0116299
-0.000377848
0.0116179
-0.000347094
0.0116064
-0.000316742
0.0115955
-0.000286759
0.0115853
-0.000257115
0.0115758
-0.000227774
0.011567
-0.000198706
0.0115591
-0.000169875
0.0115521
-0.00014125
0.011546
-0.000112795
0.0115409
-8.44763e-05
0.0115368
-5.62606e-05
0.0115336
-2.81131e-05
0.0115316
0.0115305
-0.00093637
0.0109522
0.000956022
-0.000907167
0.0112912
-0.00087244
0.0115016
-0.00083513
0.0116197
-0.000797025
0.0116779
-0.000759055
0.0117008
-0.000721632
0.0117043
-0.000684899
0.011698
-0.000648882
0.0116872
-0.000613555
0.0116745
-0.000578882
0.0116613
-0.000544823
0.0116481
-0.00051134
0.0116351
-0.000478401
0.0116224
-0.000445973
0.01161
-0.000414028
0.011598
-0.000382535
0.0115864
-0.000351464
0.0115754
-0.000320784
0.0115649
-0.000290465
0.011555
-0.000260475
0.0115458
-0.000230782
0.0115374
-0.000201353
0.0115297
-0.000172156
0.0115229
-0.000143159
0.011517
-0.000114327
0.0115121
-8.56289e-05
0.0115081
-5.70304e-05
0.011505
-2.84985e-05
0.011503
0.011502
-0.000943073
0.0109323
0.000962963
-0.000913784
0.011262
-0.000879024
0.0114669
-0.000841675
0.0115823
-0.000803502
0.0116398
-0.000765433
0.0116627
-0.000727883
0.0116667
-0.000691004
0.0116611
-0.000654823
0.011651
-0.000619318
0.011639
-0.000584454
0.0116264
-0.00055019
0.0116138
-0.00051649
0.0116014
-0.000483321
0.0115892
-0.000450652
0.0115773
-0.000418453
0.0115658
-0.000386695
0.0115547
-0.000355348
0.011544
-0.000324383
0.0115339
-0.000293768
0.0115244
-0.000263473
0.0115155
-0.000233467
0.0115073
-0.000203719
0.0115
-0.000174196
0.0114934
-0.000144867
0.0114877
-0.000115699
0.0114829
-8.66612e-05
0.011479
-5.77202e-05
0.0114761
-2.88439e-05
0.0114742
0.0114732
-0.000948684
0.0109122
0.000968818
-0.000919313
0.0112326
-0.000884538
0.0114321
-0.000847178
0.011545
-0.000808972
0.0116016
-0.000770841
0.0116246
-0.000733207
0.0116291
-0.000696223
0.0116241
-0.00065992
0.0116147
-0.00062428
0.0116034
-0.000589266
0.0115914
-0.000554839
0.0115794
-0.000520964
0.0115675
-0.000487607
0.0115558
-0.000454737
0.0115445
-0.000422326
0.0115334
-0.000390343
0.0115227
-0.000358761
0.0115124
-0.000327549
0.0115027
-0.000296679
0.0114935
-0.00026612
0.0114849
-0.000235841
0.0114771
-0.000205812
0.0114699
-0.000176002
0.0114636
-0.000146381
0.0114581
-0.000116916
0.0114534
-8.75772e-05
0.0114497
-5.83324e-05
0.0114469
-2.91504e-05
0.011445
0.011444
-0.000953189
0.0108918
0.000973566
-0.000923749
0.0112031
-0.000888981
0.0113973
-0.000851643
0.0115076
-0.000813441
0.0115634
-0.000775291
0.0115864
-0.000737614
0.0115914
-0.000700569
0.0115871
-0.000664188
0.0115783
-0.000628455
0.0115676
-0.000593334
0.0115563
-0.000558787
0.0115448
-0.000524778
0.0115335
-0.000491274
0.0115223
-0.000458244
0.0115114
-0.00042566
0.0115008
-0.000393493
0.0114905
-0.000361715
0.0114807
-0.000330297
0.0114713
-0.00029921
0.0114624
-0.000268425
0.0114542
-0.000237912
0.0114466
-0.000207641
0.0114397
-0.000177583
0.0114335
-0.000147706
0.0114282
-0.000117983
0.0114237
-8.83804e-05
0.0114201
-5.88696e-05
0.0114174
-2.94195e-05
0.0114155
0.0114146
-0.000956579
0.0108712
0.000977188
-0.000927088
0.0111736
-0.000892358
0.0113626
-0.000855077
0.0114704
-0.000816922
0.0115252
-0.000778796
0.0115483
-0.000741122
0.0115537
-0.00070406
0.01155
-0.000667646
0.0115419
-0.000631863
0.0115319
-0.000596678