/*--------------------------------*- C++ -*----------------------------------*\
  =========                 |
  \\      /  F ield         | OpenFOAM: The Open Source CFD Toolbox
   \\    /   O peration     | Website:  https://openfoam.org
    \\  /    A nd           | Version:  7
     \\/     M anipulation  |
\*---------------------------------------------------------------------------*/
FoamFile
{
    version     2.0;
    format      ascii;
    class       volVectorField;
    location    "65";
    object      U;
}
// * * * * * * * * * * * * * * * * * * * * * * * * * * * * * * * * * * * * * //

dimensions      [0 1 -1 0 0 0 0];

internalField   nonuniform List<vector> 
6000
(
(-0.162176 0.00270026 -2.1367e-21)
(-0.165904 0.00238508 2.25549e-21)
(-0.169388 0.00206737 -4.12383e-21)
(-0.17275 0.00174806 2.04474e-21)
(-0.176231 0.00143182 2.02585e-21)
(-0.159977 0.00534607 1.00623e-20)
(-0.163452 0.00485091 3.53754e-21)
(-0.166657 0.00444465 -3.50001e-21)
(-0.169706 0.00414316 -2.17642e-21)
(-0.172846 0.0039791 -2.16197e-21)
(-0.155659 0.00793428 -9.40686e-21)
(-0.158628 0.00724517 2.5357e-21)
(-0.161273 0.006738 1.77241e-20)
(-0.163691 0.00644933 -3.00169e-21)
(-0.166134 0.0064432 3.74703e-22)
(-0.151425 0.00951837 3.10736e-21)
(-0.153232 0.0088869 -6.28264e-21)
(-0.154704 0.00859892 7.97748e-21)
(-0.156076 0.00875422 1.17278e-20)
(-0.141827 0.0116272 -8.6504e-22)
(-0.142521 0.0108351 -5.13376e-21)
(-0.14274 0.0105253 -1.79171e-20)
(-0.14264 0.0108367 -4.87027e-21)
(-0.129802 0.013538 4.22849e-21)
(-0.129112 0.0125343 1.3713e-20)
(-0.127788 0.0121659 2.27167e-20)
(-0.125774 0.0126089 -1.1131e-20)
(-0.115296 0.0152315 -1.87729e-20)
(-0.11295 0.0139497 -2.90794e-20)
(-0.10982 0.0134675 -4.51027e-20)
(-0.105402 0.0139831 1.7419e-20)
(-0.0982151 0.0167057 -6.11837e-21)
(-0.093931 0.0150662 1.38711e-20)
(-0.0887795 0.0143963 7.54102e-20)
(-0.081414 0.0148794 -1.45821e-20)
(-0.078418 0.0179794 3.2677e-20)
(-0.0718838 0.0158975 -2.17194e-20)
(-0.0645448 0.0149441 -5.06573e-20)
(-0.0536671 0.0152965 2.77291e-21)
(-0.0557078 0.0190913 2.659e-21)
(-0.0465588 0.0164997 -2.07297e-20)
(-0.0368483 0.0150955 -2.7386e-20)
(-0.0220005 0.015443 2.0886e-20)
(-0.0298209 0.0200912 -3.83522e-20)
(-0.0176691 0.0169886 -6.83016e-21)
(-0.00515295 0.01479 2.72553e-20)
(0.0139038 0.0154755 -2.25728e-20)
(0.0150803 0.0174282 3.46651e-21)
(0.031008 0.0143517 1.17265e-21)
(0.0548874 0.0151347 1.96037e-20)
(0.0522705 0.0178886 1.32729e-20)
(0.0719118 0.014124 -1.09232e-21)
(0.101617 0.0144005 -1.95836e-20)
(0.0944535 0.0184702 -1.48485e-20)
(0.118098 0.014149 2.94878e-20)
(0.1547 0.0137438 2.9638e-20)
(0.142167 0.019266 -2.39509e-20)
(0.170105 0.0145311 -2.93394e-20)
(0.214798 0.0135456 -6.26558e-20)
(0.228393 0.0153851 -3.86642e-20)
(0.282458 0.0141554 7.55403e-20)
(0.293306 0.0168017 5.33386e-20)
(0.357937 0.0158893 1.0465e-20)
(0.365005 0.0188775 4.45428e-20)
(0.441035 0.019 -9.19297e-20)
(0.530917 0.023654 1.64696e-20)
(0.625964 0.029914 4.02063e-20)
(0.723723 0.0377179 -1.2181e-20)
(-0.181239 0.00101513 -5.62782e-22)
(-0.18709 -0.000135692 5.83568e-22)
(-0.191734 -0.00118398 -3.98575e-22)
(-0.196319 -0.00243458 3.65044e-22)
(-0.200246 -0.00375676 -6.95181e-22)
(-0.20385 -0.00517013 7.939e-22)
(-0.207029 -0.00663621 -1.58117e-22)
(-0.209856 -0.00812422 2.11101e-22)
(-0.212336 -0.00959665 1.98663e-23)
(-0.21449 -0.0110143 -8.45303e-23)
(-0.216331 -0.0123335 1.10247e-22)
(-0.217869 -0.0135093 -1.09707e-22)
(-0.219114 -0.014496 1.64983e-22)
(-0.220074 -0.015249 -1.02051e-22)
(-0.220754 -0.0157254 1.10918e-22)
(-0.22116 -0.0158861 -2.26441e-22)
(-0.221295 -0.0156964 4.09395e-22)
(-0.221163 -0.0151277 -4.95011e-22)
(-0.220765 -0.0141581 4.8563e-22)
(-0.220103 -0.0127741 -7.10984e-23)
(-0.219177 -0.0109709 -4.45938e-22)
(-0.217986 -0.0087541 2.07859e-22)
(-0.216531 -0.00613873 -1.52599e-22)
(-0.214808 -0.00315213 4.15443e-22)
(-0.212814 0.000162763 -2.66249e-22)
(-0.210555 0.00376559 3.10329e-22)
(-0.208037 0.00762515 -1.16164e-22)
(-0.205256 0.0116666 -1.79041e-22)
(-0.20221 0.0158169 -6.08197e-23)
(-0.198897 0.0199992 6.98172e-23)
(-0.195318 0.0241313 2.15523e-22)
(-0.191473 0.0281279 -6.19443e-23)
(-0.18736 0.0319027 -8.22591e-23)
(-0.18298 0.035369 2.70404e-22)
(-0.178334 0.0384433 -9.90319e-23)
(-0.173419 0.0410464 -4.72636e-23)
(-0.168235 0.0431048 4.809e-23)
(-0.162782 0.0445528 -1.37869e-22)
(-0.157056 0.045333 1.75062e-22)
(-0.151059 0.0453988 1.10372e-22)
(-0.14479 0.0447178 -5.67096e-23)
(-0.138252 0.0432684 4.97966e-23)
(-0.131448 0.0410442 -1.74409e-22)
(-0.124382 0.038052 1.6678e-22)
(-0.117065 0.034321 1.19492e-22)
(-0.10951 0.0298852 -5.58738e-23)
(-0.101729 0.0247932 2.37176e-24)
(-0.0937414 0.0191157 3.40333e-23)
(-0.085574 0.0129282 -4.55324e-23)
(-0.0772479 0.00631706 -1.16241e-22)
(-0.0687987 -0.000614807 3.29375e-23)
(-0.0602619 -0.00778049 1.12619e-22)
(-0.0516622 -0.0150764 -1.85184e-22)
(-0.0430335 -0.0223861 7.14116e-23)
(-0.0344168 -0.0295915 3.79266e-23)
(-0.0258322 -0.0366045 4.836e-23)
(-0.0173088 -0.043295 6.94489e-23)
(-0.00887135 -0.0495807 -1.47809e-23)
(-0.000527546 -0.0553599 -8.64627e-23)
(0.00770851 -0.0605544 3.75329e-23)
(0.0158392 -0.0650847 4.53854e-24)
(0.0238726 -0.0688882 3.41064e-23)
(0.0318215 -0.0719092 -2.00614e-23)
(0.0397055 -0.0741031 -3.08662e-24)
(0.0475492 -0.0754365 4.85045e-23)
(0.0553807 -0.0758874 -6.54031e-24)
(0.0632297 -0.0754461 1.24257e-23)
(0.0711255 -0.0741152 -8.15558e-24)
(0.0790955 -0.0719093 1.23578e-23)
(0.0871626 -0.0688554 -1.59471e-23)
(0.0953445 -0.0649927 -6.56099e-24)
(0.103652 -0.0603717 1.48241e-23)
(0.112086 -0.0550541 1.83488e-23)
(0.120644 -0.0491116 -1.44181e-23)
(0.129309 -0.0426246 1.3638e-23)
(0.138061 -0.0356807 6.09301e-24)
(0.146871 -0.0283733 -2.38226e-23)
(0.155705 -0.0207995 3.04824e-23)
(0.164524 -0.0130593 -8.18839e-25)
(0.173286 -0.00525306 -9.5852e-24)
(0.18195 0.00252496 -4.96378e-24)
(0.190476 0.0101772 9.79564e-24)
(0.198828 0.0176121 -2.55054e-25)
(0.206972 0.0247424 -1.64093e-24)
(0.214883 0.0314861 3.973e-24)
(0.222542 0.0377671 -1.05502e-24)
(0.229941 0.0435146 -1.58951e-24)
(0.23708 0.0486624 4.17209e-24)
(0.243966 0.0531491 -3.54416e-24)
(0.25062 0.056915 1.78077e-24)
(0.257065 0.0599046 1.17882e-24)
(0.263348 0.0620568 3.9147e-25)
(0.269481 0.0633192 -1.9548e-25)
(0.275579 0.0636084 9.0725e-25)
(0.281533 0.0628847 8.60658e-26)
(0.287756 0.0609688 -1.15726e-25)
(0.293458 0.0579277 2.43241e-26)
(0.300617 0.0531094 3.19298e-26)
(0.30486 0.0476231 4.1412e-27)
(0.316119 0.036525 -1.41383e-25)
(-0.17759 0.00388712 9.37196e-22)
(-0.183471 0.00217071 -1.14035e-22)
(-0.187994 0.000999301 -1.55156e-21)
(-0.19254 -0.000492196 1.50179e-21)
(-0.196412 -0.00201357 -9.91159e-22)
(-0.199978 -0.00361901 -4.3777e-22)
(-0.203126 -0.0052605 1.5486e-21)
(-0.205929 -0.00691387 -1.60201e-21)
(-0.208392 -0.00854289 1.22723e-21)
(-0.210537 -0.0101103 -1.08572e-21)
(-0.212374 -0.0115735 1.35256e-21)
(-0.213917 -0.0128886 -1.06259e-21)
(-0.215173 -0.0140108 6.55939e-22)
(-0.21615 -0.0148961 -1.04312e-22)
(-0.216854 -0.0155022 -9.11052e-23)
(-0.21729 -0.0157904 -6.98755e-22)
(-0.21746 -0.0157264 9.62165e-22)
(-0.217368 -0.0152821 6.54432e-23)
(-0.217014 -0.014436 -2.66191e-22)
(-0.216398 -0.0131748 9.77651e-23)
(-0.215518 -0.0114939 -1.14831e-21)
(-0.214373 -0.00939877 1.18958e-21)
(-0.212959 -0.00690437 -1.35673e-21)
(-0.211272 -0.0040364 4.65357e-22)
(-0.209311 -0.000834545 5.90864e-22)
(-0.207066 0.00263444 -8.21584e-22)
(-0.204539 0.00636485 -1.98489e-22)
(-0.201734 0.01028 2.33357e-24)
(-0.198643 0.0143047 -2.72729e-22)
(-0.195259 0.0183625 2.5449e-22)
(-0.19158 0.0223704 -3.67528e-22)
(-0.187602 0.0262434 3.35999e-22)
(-0.183323 0.0298951 2.6362e-22)
(-0.178739 0.0332389 -1.29847e-21)
(-0.173849 0.0361911 3.02266e-22)
(-0.168651 0.0386725 8.00431e-22)
(-0.163145 0.0406095 -2.3421e-22)
(-0.15733 0.0419364 -6.04748e-22)
(-0.151207 0.0425961 -1.99419e-22)
(-0.144776 0.0425419 -4.26499e-22)
(-0.138043 0.0417434 4.05174e-22)
(-0.131014 0.0401785 6.85348e-22)
(-0.123699 0.0378426 -7.28922e-22)
(-0.116107 0.0347419 2.24134e-22)
(-0.108253 0.0309102 2.79756e-22)
(-0.100163 0.0263811 -7.83951e-23)
(-0.0918527 0.021204 3.96147e-23)
(-0.0833507 0.0154543 -2.57969e-22)
(-0.074693 0.00921269 -7.33175e-23)
(-0.0659097 0.00257765 3.48917e-23)
(-0.0570472 -0.00441493 -1.67143e-22)
(-0.0481488 -0.0116041 1.7879e-22)
(-0.039244 -0.0189055 1.76974e-22)
(-0.0303727 -0.0262031 -3.38535e-22)
(-0.0215895 -0.0333786 2.66098e-22)
(-0.0129147 -0.0403558 -7.97384e-23)
(-0.00438308 -0.046993 -1.33683e-22)
(0.00397181 -0.0532146 6.65064e-23)
(0.0121426 -0.0589297 -7.96876e-23)
(0.020111 -0.0640569 3.26546e-22)
(0.0278797 -0.0685226 -1.60305e-22)
(0.0354572 -0.0722658 1.11896e-22)
(0.0428589 -0.0752342 -5.47988e-23)
(0.0501085 -0.077386 -4.14843e-23)
(0.057236 -0.0786898 -1.12252e-22)
(0.0642765 -0.0791253 8.37604e-23)
(0.0712683 -0.0786831 -4.62631e-23)
(0.0782506 -0.0773654 -6.11709e-23)
(0.0852615 -0.0751858 1.09177e-22)
(0.092336 -0.0721691 -8.62856e-23)
(0.099504 -0.0683519 -9.03245e-24)
(0.106789 -0.0637816 -5.42068e-23)
(0.114206 -0.0585164 3.51587e-23)
(0.121763 -0.0526242 -3.54048e-24)
(0.129458 -0.0461821 1.70358e-24)
(0.137281 -0.0392743 2.19784e-23)
(0.145214 -0.0319914 -5.06327e-23)
(0.153233 -0.0244281 -7.19952e-24)
(0.161308 -0.0166826 -2.72218e-23)
(0.169406 -0.00885374 -8.89683e-24)
(0.177491 -0.00103961 1.43587e-23)
(0.18553 0.00666452 6.40411e-24)
(0.193491 0.014166 -3.574e-23)
(0.201344 0.0213743 2.94388e-23)
(0.209065 0.0282047 -2.31099e-23)
(0.216639 0.0345779 -9.18017e-24)
(0.224055 0.0404194 8.62896e-25)
(0.231313 0.0456593 -7.70445e-24)
(0.238419 0.0502325 4.0639e-24)
(0.245389 0.0540757 -7.5379e-25)
(0.252241 0.0571306 -2.98035e-25)
(0.259016 0.0593328 8.63922e-25)
(0.265715 0.0606291 -4.77048e-24)
(0.272447 0.0609333 -1.43071e-24)
(0.279078 0.0602084 -2.4525e-24)
(0.286034 0.058273 1.43091e-24)
(0.292433 0.0551977 -5.45839e-25)
(0.300365 0.0503474 4.29088e-25)
(0.305125 0.0447907 -3.09251e-25)
(0.317093 0.0337316 9.65299e-25)
(-0.170359 0.00671783 -1.64154e-21)
(-0.176266 0.004416 -7.70929e-22)
(-0.180516 0.00313901 -7.42982e-22)
(-0.184953 0.00141534 7.29707e-22)
(-0.18869 -0.000275743 1.40586e-21)
(-0.192138 -0.00207691 9.07526e-22)
(-0.195177 -0.00389249 -3.23158e-21)
(-0.197884 -0.00570864 2.89095e-21)
(-0.200261 -0.00749183 1.27868e-21)
(-0.20233 -0.00920709 -2.97299e-21)
(-0.204101 -0.0108129 1.55517e-21)
(-0.205586 -0.0122663 -2.1446e-21)
(-0.206792 -0.0135234 2.90769e-21)
(-0.207727 -0.0145407 -1.78519e-21)
(-0.208397 -0.0152767 2.30301e-21)
(-0.208805 -0.015693 -3.98484e-21)
(-0.208955 -0.0157558 2.43963e-21)
(-0.208847 -0.0154374 8.14829e-22)
(-0.208482 -0.0147167 -4.04196e-22)
(-0.207858 -0.0135806 -7.37343e-23)
(-0.206971 -0.0120251 -4.82229e-22)
(-0.205819 -0.0100555 4.2261e-22)
(-0.204396 -0.00768721 -2.33333e-22)
(-0.202696 -0.00494574 3.61748e-22)
(-0.20072 -0.00187234 1.42315e-21)
(-0.198444 0.0014753 7.56665e-23)
(-0.195863 0.00506565 -1.30374e-21)
(-0.19299 0.00884405 3.71253e-23)
(-0.189811 0.0127319 5.54568e-22)
(-0.186316 0.0166534 -1.40187e-22)
(-0.182499 0.0205251 -1.72344e-21)
(-0.178353 0.0242621 1.85069e-21)
(-0.173872 0.0277779 -3.95942e-23)
(-0.169053 0.0309864 -3.72012e-22)
(-0.163892 0.0338038 6.00273e-22)
(-0.158387 0.0361509 1.43789e-21)
(-0.152537 0.0379544 -1.46531e-21)
(-0.146343 0.0391489 2.05666e-22)
(-0.139807 0.0396781 -2.26859e-22)
(-0.132932 0.0394949 5.62657e-22)
(-0.125727 0.038572 2.70067e-22)
(-0.118205 0.0368868 5.11031e-22)
(-0.110379 0.0344366 -2.99884e-22)
(-0.102261 0.0312262 -1.50857e-22)
(-0.0938769 0.0272969 -4.58346e-22)
(-0.0852601 0.0226802 6.67753e-22)
(-0.0764318 0.0174264 -5.95101e-22)
(-0.0674257 0.0116178 2.87055e-22)
(-0.0582832 0.00534351 -3.52011e-22)
(-0.0490714 -0.00133663 -2.29733e-22)
(-0.0398206 -0.00835151 1.09203e-22)
(-0.0305656 -0.0155364 9.85473e-22)
(-0.0213693 -0.0228187 -1.57822e-22)
(-0.012267 -0.0300774 -3.53987e-22)
(-0.00332866 -0.0371995 -2.75208e-22)
(0.00542578 -0.0440893 6.82843e-22)
(0.0139613 -0.0506469 -1.27098e-22)
(0.0222278 -0.0567709 -5.30642e-22)
(0.0302196 -0.0623866 3.88351e-22)
(0.0379185 -0.0674109 7.36446e-24)
(0.0453242 -0.0717752 7.22163e-23)
(0.0524453 -0.0754219 -2.22901e-22)
(0.059299 -0.0783028 1.08203e-23)
(0.0659122 -0.0803793 -9.31938e-23)
(0.0723198 -0.081623 4.12192e-22)
(0.0785632 -0.0820153 -1.96031e-22)
(0.0846882 -0.0815481 -5.15818e-23)
(0.0907435 -0.0802237 2.08063e-22)
(0.0967775 -0.0780549 -7.88571e-23)
(0.102837 -0.0750649 8.24504e-23)
(0.108964 -0.0712878 6.29857e-23)
(0.115194 -0.066768 -1.77008e-23)
(0.121557 -0.0615602 2.20014e-24)
(0.128073 -0.0557286 4.16202e-23)
(0.134753 -0.0493463 -2.35171e-25)
(0.141599 -0.0424943 -5.25509e-23)
(0.148605 -0.0352597 5.40949e-23)
(0.155758 -0.0277349 -2.50674e-23)
(0.163036 -0.0200157 8.72385e-23)
(0.170417 -0.0121995 2.74197e-23)
(0.177871 -0.0043845 -2.53985e-23)
(0.185372 0.0033324 -3.94349e-24)
(0.192892 0.01086 1.74363e-23)
(0.200405 0.0181046 -1.24432e-23)
(0.207891 0.0249794 2.54331e-24)
(0.215334 0.0314021 9.70312e-24)
(0.222724 0.0372954 -6.30613e-24)
(0.230059 0.0425859 2.06999e-23)
(0.237343 0.0472055 -1.51122e-23)
(0.244589 0.0510877 5.86428e-24)
(0.251805 0.0541722 9.07204e-24)
(0.25903 0.0563919 -8.36232e-25)
(0.26625 0.0576941 2.45597e-24)
(0.273572 0.0579897 6.25711e-24)
(0.280828 0.0572476 1.26153e-24)
(0.288466 0.0552832 -1.11963e-24)
(0.2955 0.0521789 3.23763e-24)
(0.304149 0.0473095 4.2367e-25)
(0.309369 0.0417389 2.8907e-26)
(0.321965 0.0307839 -5.15856e-26)
(-0.159533 0.00946777 1.50101e-21)
(-0.165472 0.00655107 -6.62099e-21)
(-0.169304 0.00519716 5.81247e-21)
(-0.173553 0.00323841 -2.78896e-21)
(-0.177074 0.0013877 -3.84974e-22)
(-0.18034 -0.000568671 -4.58241e-21)
(-0.183197 -0.00256689 4.82743e-21)
(-0.185739 -0.00454338 -2.86152e-21)
(-0.187967 -0.00647695 1.07439e-21)
(-0.189898 -0.00833709 -5.75136e-22)
(-0.191542 -0.0100831 5.36409e-21)
(-0.19291 -0.0116731 -5.72994e-21)
(-0.19401 -0.0130637 4.25781e-21)
(-0.194849 -0.0142124 -3.99328e-22)
(-0.19543 -0.015078 2.67509e-22)
(-0.195758 -0.0156227 -9.17754e-22)
(-0.195835 -0.0158131 -2.57231e-21)
(-0.195661 -0.0156219 -8.78277e-23)
(-0.195235 -0.0150284 1.87372e-21)
(-0.194553 -0.0140201 7.85947e-22)
(-0.193612 -0.0125931 1.97865e-23)
(-0.192406 -0.0107531 -1.53819e-21)
(-0.190926 -0.00851587 1.03995e-21)
(-0.189168 -0.00590724 -1.42806e-21)
(-0.187129 -0.00296423 2.60637e-21)
(-0.184781 0.000275368 -1.6237e-21)
(-0.182111 0.00370343 -7.43401e-22)
(-0.179129 0.00733444 -9.48284e-22)
(-0.175824 0.0110757 7.4523e-22)
(-0.172182 0.0148511 1.48854e-21)
(-0.168193 0.0185759 2.91985e-22)
(-0.163848 0.0221658 -6.71601e-22)
(-0.15914 0.0255345 -3.70288e-22)
(-0.154061 0.0285962 -3.49527e-22)
(-0.148608 0.0312674 -1.21402e-21)
(-0.142778 0.0334694 9.53866e-22)
(-0.13657 0.0351289 4.54949e-22)
(-0.129987 0.0361814 -2.40212e-22)
(-0.123032 0.036572 3.92262e-22)
(-0.115711 0.036252 -1.05669e-21)
(-0.108035 0.0351998 1.24929e-21)
(-0.100023 0.0333907 6.76567e-22)
(-0.0916957 0.0308255 -1.83866e-21)
(-0.0830655 0.027505 2.14411e-21)
(-0.0741641 0.023483 -1.2781e-21)
(-0.0650386 0.0187857 1.05563e-21)
(-0.0557112 0.0134628 -2.96393e-22)
(-0.0462175 0.00761061 -9.19478e-22)
(-0.036628 0.00131461 -2.74482e-22)
(-0.0270062 -0.00542672 4.79512e-22)
(-0.0173732 -0.0124235 1.0729e-21)
(-0.0077892 -0.0195818 -8.74369e-22)
(0.00167891 -0.0268105 -5.28822e-22)
(0.0109946 -0.0339977 -9.6763e-23)
(0.0200831 -0.0410406 6.03019e-22)
(0.0289074 -0.0478139 -2.52505e-22)
(0.0374323 -0.0542584 9.95682e-23)
(0.0456098 -0.0602569 2.12044e-22)
(0.0534243 -0.0657368 -1.97488e-22)
(0.0608579 -0.070622 3.65409e-22)
(0.0679077 -0.0748486 3.02269e-23)
(0.0745817 -0.078363 -3.99264e-22)
(0.0808983 -0.0811215 1.95591e-22)
(0.0868867 -0.0830893 -2.44869e-22)
(0.0925857 -0.0842413 1.37818e-23)
(0.0980419 -0.0845616 2.51638e-22)
(0.103308 -0.0840439 -2.09749e-22)
(0.108441 -0.0826911 -1.79509e-23)
(0.113499 -0.0805158 -2.69528e-23)
(0.11854 -0.0775399 8.11756e-23)
(0.123617 -0.0737954 -1.29193e-22)
(0.12878 -0.0693237 7.60961e-24)
(0.13407 -0.0641762 2.40483e-23)
(0.139522 -0.0584134 3.05599e-23)
(0.145158 -0.0521044 7.48164e-23)
(0.150995 -0.0453263 -1.0944e-22)
(0.157038 -0.0381629 4.68998e-23)
(0.163284 -0.0307035 3.51611e-23)
(0.169725 -0.0230413 6.22541e-23)
(0.176344 -0.0152721 -8.59073e-23)
(0.183122 -0.00749261 3.76966e-23)
(0.190039 0.000200218 -1.42137e-23)
(0.197072 0.0077109 -5.81277e-25)
(0.204199 0.0149498 3.56318e-23)
(0.211401 0.0218263 -1.23144e-24)
(0.218666 0.0282557 2.07235e-23)
(0.225983 0.0341582 -2.40525e-23)
(0.233349 0.0394577 2.10238e-23)
(0.240762 0.0440837 -1.15793e-23)
(0.248232 0.0479671 4.85063e-24)
(0.255762 0.0510463 -5.8756e-24)
(0.263383 0.0532519 -4.33805e-24)
(0.271066 0.0545331 4.00628e-24)
(0.278918 0.0547981 -6.67772e-24)
(0.286733 0.0540241 -1.37929e-24)
(0.294987 0.052023 -7.5212e-25)
(0.302583 0.0488955 5.68211e-25)
(0.311878 0.0440209 -1.56862e-24)
(0.317492 0.0384903 1.41237e-24)
(0.330636 0.0276986 -5.17037e-25)
(-0.145093 0.0120981 -3.11128e-22)
(-0.151077 0.00852767 1.88907e-21)
(-0.154351 0.00713747 -6.15072e-21)
(-0.15835 0.00495952 4.85785e-21)
(-0.161565 0.00293876 -2.69211e-21)
(-0.164587 0.000836114 1.77298e-21)
(-0.167212 -0.00132353 -3.87627e-23)
(-0.169521 -0.00344958 1.16746e-21)
(-0.171539 -0.00552786 -6.30584e-21)
(-0.173277 -0.0075288 4.57733e-21)
(-0.174741 -0.00941186 -1.814e-21)
(-0.175942 -0.0111357 3.36302e-21)
(-0.176886 -0.0126581 -2.40707e-21)
(-0.17758 -0.0139368 3.4895e-21)
(-0.178026 -0.0149313 9.36752e-22)
(-0.178228 -0.0156041 -4.63456e-21)
(-0.178187 -0.0159225 2.25152e-21)
(-0.177902 -0.0158594 2.62875e-21)
(-0.177371 -0.0153948 -1.72726e-21)
(-0.17659 -0.0145164 -1.69671e-21)
(-0.175552 -0.0132208 2.67473e-21)
(-0.17425 -0.011514 -3.80093e-21)
(-0.172674 -0.00941189 -1.02319e-21)
(-0.170816 -0.00694053 7.26764e-21)
(-0.168666 -0.00413382 -1.52626e-21)
(-0.166221 -0.00103113 -5.72903e-21)
(-0.163438 0.00225115 5.06124e-21)
(-0.160307 0.00573252 -1.49315e-21)
(-0.156843 0.00931899 -1.24038e-21)
(-0.153024 0.0129394 -1.01735e-21)
(-0.148838 0.016508 2.21609e-21)
(-0.144271 0.0199409 9.20128e-22)
(-0.139314 0.0231527 -1.36082e-21)
(-0.133959 0.0260578 1.13583e-21)
(-0.1282 0.0285733 1.32172e-21)
(-0.122036 0.0306209 -1.97132e-21)
(-0.115465 0.0321278 1.60479e-21)
(-0.10849 0.0330305 -3.70387e-22)
(-0.10112 0.0332761 -7.07686e-22)
(-0.0933587 0.032813 -6.05419e-23)
(-0.0852223 0.0316284 -4.69776e-22)
(-0.0767355 0.0296939 1.34918e-21)
(-0.0679254 0.0270153 -6.67193e-22)
(-0.0588032 0.0235817 -1.12492e-21)
(-0.0494067 0.0194734 -1.71062e-22)
(-0.0397998 0.0147032 2.20902e-22)
(-0.0300002 0.00932205 5.15411e-22)
(-0.0200462 0.00345735 -1.36119e-21)
(-0.0100465 -0.00290651 1.48843e-21)
(-4.66242e-05 -0.00963803 -8.04919e-22)
(0.00994527 -0.0166027 -4.36158e-22)
(0.0198382 -0.0237196 5.82942e-22)
(0.0295582 -0.030873 6.77877e-22)
(0.0390629 -0.0379639 -5.86751e-22)
(0.0482817 -0.0448944 5.95251e-22)
(0.057166 -0.0515419 -5.06198e-22)
(0.0656746 -0.0578365 3.88076e-23)
(0.0737613 -0.0636756 6.33572e-22)
(0.0814026 -0.0689862 -7.01034e-22)
(0.0885795 -0.0736982 8.46606e-22)
(0.0952868 -0.0777524 -3.03484e-22)
(0.101531 -0.0811002 4.79462e-23)
(0.107332 -0.0837021 -7.06902e-23)
(0.112719 -0.085528 1.46863e-22)
(0.117734 -0.0865568 -2.55071e-22)
(0.122429 -0.0867758 -3.78868e-23)
(0.12686 -0.086181 -1.10397e-23)
(0.131093 -0.0847767 -9.51053e-23)
(0.135195 -0.0825757 1.64818e-22)
(0.139233 -0.0795993 -1.81581e-22)
(0.143271 -0.0758775 -1.31487e-22)
(0.147372 -0.0714494 -2.98489e-23)
(0.15159 -0.0663629 2.96238e-22)
(0.155971 -0.0606748 -2.29096e-22)
(0.160552 -0.0544503 6.77451e-23)
(0.165363 -0.0477625 -3.74265e-23)
(0.170421 -0.0406913 -4.65516e-23)
(0.175736 -0.0333226 3.80631e-23)
(0.181309 -0.0257469 2.3047e-24)
(0.187133 -0.0180577 7.03202e-23)
(0.193198 -0.01035 -9.19615e-23)
(0.199491 -0.00271953 2.83578e-23)
(0.205994 0.00473429 2.8497e-23)
(0.21269 0.0119262 1.24588e-24)
(0.219564 0.0187621 2.77076e-24)
(0.226602 0.0251558 -1.1674e-23)
(0.233796 0.0310256 1.17809e-23)
(0.241138 0.0362933 -1.62882e-23)
(0.248626 0.0408867 -4.33247e-24)
(0.256264 0.0447344 -1.05029e-23)
(0.264046 0.0477746 2.98971e-24)
(0.271998 0.0499359 5.83866e-24)
(0.280076 0.0511707 -2.16758e-24)
(0.288386 0.0513847 -1.58702e-24)
(0.296682 0.0505655 6.88831e-24)
(0.305476 0.0485215 9.26487e-25)
(0.313546 0.0453772 1.08746e-24)
(0.323411 0.0405107 6.80595e-25)
(0.329345 0.0350692 -2.88438e-24)
(0.342956 0.0244924 1.86518e-24)
(-0.126996 0.014571 -4.14833e-23)
(-0.133054 0.010305 3.13898e-21)
(-0.135638 0.0089221 -2.34941e-21)
(-0.139333 0.00654347 -6.10604e-22)
(-0.14218 0.00436947 2.84883e-21)
(-0.144892 0.00210883 -3.89024e-21)
(-0.147222 -0.000145546 -1.22073e-21)
(-0.149252 -0.00244797 -2.19845e-21)
(-0.151012 -0.00466954 3.27318e-21)
(-0.15251 -0.00680621 -4.27538e-21)
(-0.15375 -0.00882202 3.12753e-21)
(-0.154741 -0.0106764 2.47671e-21)
(-0.155488 -0.0123277 -3.65859e-21)
(-0.155997 -0.0137344 2.07994e-21)
(-0.15627 -0.0148564 -1.87521e-21)
(-0.156309 -0.0156568 -2.38666e-21)
(-0.156114 -0.016103 -5.61471e-22)
(-0.155683 -0.0161687 2.55258e-21)
(-0.155013 -0.015834 2.07564e-21)
(-0.154098 -0.0150873 -3.44113e-21)
(-0.15293 -0.0139255 3.63187e-21)
(-0.151499 -0.0123549 -4.48707e-21)
(-0.149796 -0.0103917 1.00834e-21)
(-0.147807 -0.00806215 1.23765e-21)
(-0.145524 -0.00540195 -2.79063e-21)
(-0.142944 -0.00245469 1.01471e-21)
(-0.140012 0.000739291 -1.18958e-21)
(-0.136717 0.00403217 2.95951e-21)
(-0.133074 0.00745064 -4.0473e-21)
(-0.129058 0.010908 -1.10931e-21)
(-0.124655 0.0143121 2.39556e-21)
(-0.119851 0.0175798 -8.29827e-22)
(-0.114633 0.0206264 -2.12042e-21)
(-0.108993 0.0233667 3.49452e-21)
(-0.102924 0.0257185 -5.31754e-22)
(-0.0964235 0.0276042 8.28088e-22)
(-0.0894923 0.0289517 -5.73388e-22)
(-0.0821337 0.0296986 -6.52367e-22)
(-0.0743612 0.0297955 -3.8063e-21)
(-0.0661748 0.0291818 4.31263e-22)
(-0.0575964 0.0278637 2.82932e-21)
(-0.0486572 0.0258036 -7.15415e-22)
(-0.0393949 0.0230141 -6.19818e-22)
(-0.029811 0.0194643 -7.61317e-22)
(-0.0199482 0.0152737 1.90574e-21)
(-0.00989448 0.0104347 -6.05895e-22)
(0.000348999 0.00504189 2.11713e-22)
(0.0107029 -0.00087403 -1.33813e-21)
(0.021077 -0.00727549 5.65577e-22)
(0.0314463 -0.01397 -6.95828e-22)
(0.0417511 -0.0208845 1.53904e-21)
(0.051914 -0.027938 -1.17714e-21)
(0.0618586 -0.0350037 3.98774e-22)
(0.0715295 -0.041981 -1.44798e-21)
(0.0808577 -0.0487716 1.05392e-21)
(0.0897877 -0.0552646 2.61013e-22)
(0.0982727 -0.0613815 6.05065e-22)
(0.106266 -0.0670311 -8.90641e-22)
(0.113739 -0.0721419 -5.70309e-23)
(0.12067 -0.0766492 -3.92379e-22)
(0.127052 -0.080499 -1.21334e-22)
(0.13289 -0.0836474 -5.3005e-22)
(0.138204 -0.0860603 3.73503e-22)
(0.143023 -0.0877125 -3.31043e-23)
(0.147391 -0.0885872 -5.77868e-22)
(0.151362 -0.0886756 8.89092e-22)
(0.154999 -0.0879768 -3.89032e-22)
(0.158371 -0.086497 1.7553e-22)
(0.161553 -0.0842498 -3.60903e-23)
(0.164621 -0.0812563 -3.59601e-22)
(0.167651 -0.0775453 2.4431e-22)
(0.170714 -0.0731536 -8.07195e-24)
(0.173878 -0.0681262 -7.83648e-23)
(0.177202 -0.0625162 7.34351e-23)
(0.180735 -0.0563848 -1.66676e-22)
(0.18452 -0.049801 4.19019e-23)
(0.188587 -0.0428407 6.78526e-23)
(0.192958 -0.0355861 -3.3975e-23)
(0.197644 -0.0281243 7.8443e-24)
(0.202651 -0.0205463 -5.31122e-23)
(0.207975 -0.0129452 2.15512e-23)
(0.21361 -0.00541544 -3.25252e-24)
(0.219546 0.00194492 -5.5628e-23)
(0.225772 0.00904951 4.30248e-23)
(0.232272 0.0158038 -3.05673e-23)
(0.239036 0.0221208 -8.10392e-24)
(0.246054 0.0279173 -1.85547e-23)
(0.253318 0.0331138 2.6455e-23)
(0.26082 0.0376368 -3.81826e-24)
(0.268562 0.0414136 -5.76639e-24)
(0.276527 0.0443827 -5.68164e-24)
(0.284739 0.0464714 -4.12306e-24)
(0.293133 0.0476361 -1.87207e-24)
(0.301821 0.0477806 4.13298e-25)
(0.31051 0.0469044 -9.52357e-24)
(0.319759 0.0448127 9.01815e-25)
(0.328207 0.0416579 -5.33615e-24)
(0.338555 0.0368119 4.5741e-25)
(0.344731 0.0315014 -1.00174e-24)
(0.358729 0.0211827 -1.51777e-24)
(-0.105167 0.0168416 8.99787e-21)
(-0.11136 0.0118554 -4.35989e-21)
(-0.11313 0.0105185 3.99004e-21)
(-0.116479 0.00795971 -6.43539e-21)
(-0.1189 0.00564707 3.1358e-21)
(-0.121233 0.00324998 2.00315e-21)
(-0.123244 0.000866335 5.82425e-21)
(-0.124973 -0.00157114 -2.8827e-21)
(-0.126421 -0.00392357 -1.7318e-21)
(-0.12764 -0.00618858 -6.41338e-22)
(-0.128621 -0.0083317 1.47995e-21)
(-0.129369 -0.0103122 -3.4139e-21)
(-0.129889 -0.0120888 6.85279e-21)
(-0.130185 -0.0136208 -5.52842e-21)
(-0.130257 -0.0148685 4.40459e-21)
(-0.130106 -0.015795 -6.96572e-21)
(-0.129731 -0.0163685 5.46637e-21)
(-0.12913 -0.0165629 -3.35654e-21)
(-0.128297 -0.016359 -3.82212e-22)
(-0.127224 -0.0157453 3.84527e-21)
(-0.125903 -0.0147192 -4.59125e-21)
(-0.124323 -0.0132875 3.24788e-21)
(-0.12247 -0.0114664 -3.88567e-21)
(-0.120331 -0.00928242 4.97909e-21)
(-0.117891 -0.00677133 -2.67807e-21)
(-0.115138 -0.00397124 -1.941e-21)
(-0.112061 -0.000923597 3.29604e-21)
(-0.108609 0.0022184 -1.71178e-21)
(-0.104758 0.00546242 1.12488e-21)
(-0.100529 0.00875213 1.61904e-21)
(-0.0959017 0.0119846 -2.25049e-21)
(-0.0908535 0.0150799 -1.18684e-21)
(-0.0853719 0.0179544 2.1352e-21)
(-0.0794471 0.0205232 8.48614e-22)
(-0.0730717 0.0227052 1.49338e-21)
(-0.066244 0.024423 -3.01795e-21)
(-0.0589646 0.0256056 1.05188e-21)
(-0.0512378 0.0261924 2.84104e-21)
(-0.0430856 0.0261376 -2.53349e-21)
(-0.0344996 0.0253672 -1.64753e-21)
(-0.0255049 0.0239139 4.57318e-21)
(-0.0161445 0.0217264 -1.53833e-21)
(-0.00646932 0.0188139 1.08875e-21)
(0.00353478 0.0152013 -3.27919e-21)
(0.0138269 0.010922 1.59408e-21)
(0.0243012 0.00603201 1.04003e-21)
(0.0349261 0.000610708 -9.39766e-22)
(0.0456284 -0.00537472 -5.27014e-22)
(0.0563502 -0.0117451 -3.40743e-22)
(0.0670354 -0.0184098 -1.14769e-21)
(0.0776137 -0.0252711 1.6489e-21)
(0.0880087 -0.0322383 -6.27618e-22)
(0.098142 -0.0391942 -1.47061e-22)
(0.10795 -0.046036 4.10576e-22)
(0.117362 -0.0526649 -9.34262e-22)
(0.126319 -0.0589775 8.80288e-22)
(0.134768 -0.0648927 2.90879e-22)
(0.142663 -0.0703265 2.01536e-23)
(0.14997 -0.0752105 -1.03516e-21)
(0.156666 -0.0794851 2.69476e-22)
(0.162742 -0.0831014 1.91643e-22)
(0.168201 -0.0860209 -6.72751e-23)
(0.17306 -0.0882149 2.72155e-22)
(0.177352 -0.0896635 -8.3939e-22)
(0.181118 -0.0903548 4.54605e-22)
(0.184415 -0.0902845 2.41683e-22)
(0.187309 -0.089455 -2.0019e-22)
(0.189874 -0.0878752 1.93774e-22)
(0.192189 -0.0855603 -2.40627e-22)
(0.194339 -0.0825316 9.01084e-23)
(0.196407 -0.0788174 -1.43366e-22)
(0.198476 -0.0744527 8.76507e-24)
(0.200623 -0.0694798 3.15283e-22)
(0.20292 -0.0639483 -1.4122e-23)
(0.205429 -0.0579157 -4.30327e-23)
(0.208205 -0.0514467 5.77125e-23)
(0.211291 -0.0446131 -2.11761e-23)
(0.214719 -0.0374929 -3.00975e-23)
(0.218514 -0.0301698 4.73014e-23)
(0.222691 -0.0227316 -6.93883e-24)
(0.227256 -0.015269 -1.76713e-24)
(0.232209 -0.00787416 -1.6261e-23)
(0.237549 -0.000640903 1.75706e-23)
(0.243268 0.00633508 -5.69186e-23)
(0.249353 0.0129687 2.91026e-23)
(0.255796 0.0191697 -1.4062e-23)
(0.262586 0.0248543 2.33536e-23)
(0.269714 0.0299421 5.73815e-24)
(0.277168 0.0343591 -4.8415e-24)
(0.284946 0.0380319 1.19209e-23)
(0.293021 0.0408999 5.88031e-24)
(0.301414 0.0428897 8.33735e-25)
(0.31004 0.0439625 -4.80378e-24)
(0.31902 0.044021 -1.0975e-24)
(0.328006 0.0430774 -3.30598e-25)
(0.337617 0.0409344 9.00155e-25)
(0.346344 0.0377751 -1.80405e-24)
(0.357081 0.0329605 4.11415e-24)
(0.363421 0.0278142 -1.82583e-24)
(0.37772 0.0177882 7.39812e-25)
(-0.0794841 0.0188463 -8.71548e-21)
(-0.0859097 0.0131696 1.75372e-22)
(-0.0867663 0.011898 1.20018e-20)
(-0.0897346 0.00918721 2.24598e-23)
(-0.0916963 0.00675037 -5.60319e-22)
(-0.0936262 0.00422537 5.70979e-21)
(-0.0952686 0.00169209 -1.45762e-20)
(-0.0966518 -0.000831873 -3.8025e-21)
(-0.0977787 -0.00330423 1.07585e-20)
(-0.0986967 -0.00568926 -1.3004e-21)
(-0.0993973 -0.0079532 -3.74152e-21)
(-0.0998834 -0.0100544 5.17358e-21)
(-0.100158 -0.011952 -7.71713e-21)
(-0.100224 -0.0136057 1.52378e-21)
(-0.10008 -0.0149763 9.46739e-21)
(-0.0997252 -0.0160271 -2.69305e-21)
(-0.099158 -0.0167268 -7.42398e-21)
(-0.0983737 -0.0170495 5.24477e-21)
(-0.0973657 -0.0169765 -2.01468e-21)
(-0.0961253 -0.0164968 -1.12139e-21)
(-0.0946415 -0.0156081 4.95145e-21)
(-0.0929013 -0.0143173 4.89362e-23)
(-0.0908899 -0.0126411 -5.91055e-21)
(-0.0885911 -0.010606 1.0111e-21)
(-0.0859883 -0.00824782 -1.06859e-21)
(-0.0830685 -0.00560924 1.59034e-21)
(-0.0798178 -0.0027454 -1.45322e-21)
(-0.0761929 0.000309662 4.25917e-21)
(-0.0721523 0.00335297 -2.05745e-21)
(-0.0677097 0.00647237 8.37246e-22)
(-0.0628591 0.0095274 -1.24033e-21)
(-0.0575708 0.0124439 6.35952e-22)
(-0.0518322 0.0151411 -4.34413e-22)
(-0.0456332 0.0175332 6.94358e-22)
(-0.0389654 0.0195404 -2.09578e-22)
(-0.0318276 0.0210849 -2.35804e-21)
(-0.0242214 0.0220975 2.03047e-21)
(-0.0161506 0.0225183 -2.58709e-21)
(-0.00765018 0.022298 2.41887e-21)
(0.00129969 0.0214042 -9.18099e-22)
(0.0106759 0.0198085 -3.19835e-21)
(0.0204131 0.0174958 4.36522e-21)
(0.0304782 0.0144656 -1.83523e-21)
(0.040857 0.0107967 -2.66297e-21)
(0.0515152 0.00644431 2.43952e-21)
(0.0623533 0.00153032 -1.28118e-21)
(0.0733009 -0.00399052 9.10977e-22)
(0.0843126 -0.00997996 1.60015e-21)
(0.0953331 -0.0163256 1.88717e-22)
(0.106282 -0.0229446 -2.78885e-21)
(0.117086 -0.0297351 3.0258e-22)
(0.127668 -0.0366002 1.89768e-21)
(0.137948 -0.0434282 -2.13822e-21)
(0.147856 -0.0501155 8.25428e-22)
(0.157321 -0.056564 4.33008e-22)
(0.166279 -0.0626751 1.03559e-22)
(0.174676 -0.0683678 -2.42855e-22)
(0.182463 -0.0735635 -3.62419e-23)
(0.189603 -0.0781974 -6.39493e-22)
(0.196073 -0.082215 -1.09568e-24)
(0.201859 -0.0855726 4.03086e-22)
(0.206966 -0.0882373 3.54468e-22)
(0.211407 -0.0901859 3.60552e-22)
(0.215213 -0.0914039 -3.57034e-22)
(0.218429 -0.0918849 2.58285e-22)
(0.221109 -0.0916293 -2.39051e-22)
(0.223322 -0.0906437 5.78171e-23)
(0.225143 -0.0889399 -2.50182e-22)
(0.226657 -0.0865354 -6.6732e-23)
(0.227954 -0.0834526 1.48318e-22)
(0.229124 -0.0797196 -8.91658e-23)
(0.230258 -0.0753701 1.1847e-22)
(0.231443 -0.0704443 -1.94066e-22)
(0.232762 -0.0649888 8.20405e-23)
(0.234289 -0.0590574 -3.23428e-23)