/*--------------------------------*- C++ -*----------------------------------*\
  =========                 |
  \\      /  F ield         | OpenFOAM: The Open Source CFD Toolbox
   \\    /   O peration     | Website:  https://openfoam.org
    \\  /    A nd           | Version:  7
     \\/     M anipulation  |
\*---------------------------------------------------------------------------*/
FoamFile
{
    version     2.0;
    format      ascii;
    class       volScalarField;
    location    "40";
    object      p;
}
// * * * * * * * * * * * * * * * * * * * * * * * * * * * * * * * * * * * * * //

dimensions      [0 2 -2 0 0 0 0];

internalField   nonuniform List<scalar> 
3500
(
-0.198944
-0.19643
-0.193861
-0.191237
-0.188557
-0.185822
-0.183033
-0.18019
-0.177295
-0.174349
-0.171352
-0.168307
-0.165216
-0.16208
-0.158901
-0.155682
-0.152426
-0.149136
-0.145814
-0.142464
-0.139089
-0.135692
-0.132278
-0.128849
-0.125411
-0.121968
-0.118523
-0.115081
-0.111645
-0.108221
-0.104811
-0.10142
-0.0980528
-0.0947122
-0.0914025
-0.0881274
-0.0848905
-0.0816951
-0.0785446
-0.0754419
-0.07239
-0.0693917
-0.0664495
-0.0635644
-0.0607407
-0.0579789
-0.0552808
-0.0526479
-0.0500813
-0.047582
-0.0451508
-0.0427884
-0.0404951
-0.0382712
-0.0361167
-0.0340317
-0.0320158
-0.0300687
-0.02819
-0.0263789
-0.0246349
-0.0229572
-0.0213448
-0.019797
-0.0183126
-0.0168907
-0.0155301
-0.01423
-0.012989
-0.0118063
-0.0106807
-0.00961105
-0.0085964
-0.00763575
-0.00672815
-0.00587271
-0.00506863
-0.00431517
-0.00361171
-0.00295774
-0.00235288
-0.00179692
-0.00128984
-0.000831918
-0.000423497
-6.61257e-05
0.000241041
0.000487418
0.000700514
0.000749976
0.00102328
-0.199338
-0.196829
-0.194265
-0.191645
-0.18897
-0.18624
-0.183455
-0.180616
-0.177724
-0.174781
-0.171787
-0.168744
-0.165654
-0.16252
-0.159342
-0.156124
-0.152868
-0.149577
-0.146254
-0.142902
-0.139525
-0.136126
-0.13271
-0.129278
-0.125838
-0.12239
-0.11894
-0.115493
-0.112052
-0.108622
-0.105207
-0.10181
-0.0984363
-0.0950893
-0.0917731
-0.0884916
-0.0852471
-0.0820434
-0.0788863
-0.0757769
-0.072718
-0.0697125
-0.0667631
-0.0638718
-0.061041
-0.0582724
-0.0555676
-0.0529281
-0.050355
-0.0478494
-0.0454121
-0.0430437
-0.0407446
-0.038515
-0.0363551
-0.0342648
-0.0322437
-0.0302916
-0.0284081
-0.0265923
-0.0248438
-0.0231617
-0.0215451
-0.0199932
-0.0185048
-0.0170791
-0.0157149
-0.0144111
-0.0131667
-0.0119806
-0.0108516
-0.00977871
-0.00876088
-0.0077971
-0.00688641
-0.0060279
-0.00522075
-0.00446421
-0.00375763
-0.00310046
-0.00249227
-0.00193283
-0.00142197
-0.000959966
-0.000546756
-0.000184222
0.000130401
0.000383147
0.000611217
0.00066589
0.000934577
-0.20006
-0.19756
-0.195004
-0.192392
-0.189725
-0.187001
-0.184223
-0.181391
-0.178505
-0.175567
-0.172578
-0.16954
-0.166453
-0.163321
-0.160146
-0.156929
-0.153674
-0.150383
-0.147059
-0.143706
-0.140326
-0.136927
-0.133517
-0.130044
-0.126609
-0.123159
-0.119703
-0.116248
-0.1128
-0.109361
-0.105936
-0.10253
-0.0991461
-0.0957885
-0.0924613
-0.0891683
-0.0859132
-0.0826993
-0.0795302
-0.0764089
-0.0733382
-0.0703211
-0.0673599
-0.0644571
-0.0616148
-0.0588348
-0.0561188
-0.0534682
-0.0508843
-0.048368
-0.0459202
-0.0435415
-0.0412324
-0.038993
-0.0368234
-0.0347237
-0.0326935
-0.0307325
-0.0288402
-0.027016
-0.0252592
-0.023569
-0.0219445
-0.0203848
-0.0188889
-0.0174558
-0.0160843
-0.0147735
-0.0135221
-0.0123291
-0.0111933
-0.0101137
-0.00908923
-0.00811883
-0.00720151
-0.00633636
-0.0055225
-0.00475915
-0.00404559
-0.00338121
-0.0027655
-0.00219811
-0.00167865
-0.00120738
-0.000783351
-0.000409418
-7.88294e-05
0.000187728
0.000443198
0.000515321
0.000783181
-0.198479
-0.195936
-0.193336
-0.19068
-0.187968
-0.185201
-0.182378
-0.179501
-0.176571
-0.173589
-0.170557
-0.167476
-0.164349
-0.161177
-0.157963
-0.154709
-0.151419
-0.148095
-0.14474
-0.141358
-0.137953
-0.134528
-0.131086
-0.127635
-0.124175
-0.120711
-0.117249
-0.113792
-0.110344
-0.106909
-0.103493
-0.100099
-0.0967304
-0.093392
-0.0900875
-0.0868205
-0.0835945
-0.0804131
-0.0772794
-0.0741962
-0.0711665
-0.0681927
-0.0652773
-0.0624223
-0.0596296
-0.056901
-0.0542378
-0.0516414
-0.0491127
-0.0466526
-0.0442618
-0.0419405
-0.0396892
-0.0375079
-0.0353964
-0.0333547
-0.0313822
-0.0294786
-0.0276432
-0.0258754
-0.0241742
-0.0225388
-0.0209684
-0.0194618
-0.018018
-0.016636
-0.0153146
-0.0140528
-0.0128493
-0.011703
-0.0106129
-0.0095778
-0.0085967
-0.00766857
-0.00679243
-0.00596734
-0.00519247
-0.004467
-0.00379024
-0.00316147
-0.00258031
-0.00204586
-0.00155862
-0.0011161
-0.000722975
-0.000366975
-7.70304e-05
0.000214906
0.000324241
0.000603324
-0.199452
-0.196923
-0.194336
-0.191692
-0.188993
-0.186237
-0.183425
-0.180559
-0.177639
-0.174667
-0.171644
-0.168572
-0.165452
-0.162287
-0.159079
-0.15583
-0.152545
-0.149225
-0.145873
-0.142494
-0.13909
-0.135665
-0.132223
-0.128769
-0.125308
-0.121842
-0.118377
-0.114916
-0.111464
-0.108025
-0.104603
-0.101203
-0.0978282
-0.0944829
-0.0911709
-0.0878961
-0.084662
-0.081472
-0.0783292
-0.0752368
-0.0721975
-0.0692138
-0.0662882
-0.0634228
-0.0606196
-0.0578801
-0.0552059
-0.0525982
-0.0500581
-0.0475864
-0.0451838
-0.0428507
-0.0405873
-0.0383937
-0.03627
-0.0342157
-0.0322307
-0.0303143
-0.0284661
-0.0266852
-0.0249709
-0.0233223
-0.0217384
-0.0202183
-0.0187608
-0.017365
-0.0160296
-0.0147535
-0.0135357
-0.0123748
-0.0112698
-0.0102196
-0.00922311
-0.00827918
-0.00738682
-0.00654502
-0.00575286
-0.00500938
-0.00431382
-0.00366518
-0.00306306
-0.00250587
-0.00199457
-0.0015247
-0.00110315
-0.00071231
-0.00038729
-5.22058e-05
0.000115691
0.000421181
-0.200254
-0.197747
-0.195182
-0.192559
-0.18988
-0.187143
-0.18435
-0.181502
-0.178599
-0.175643
-0.172635
-0.169578
-0.166473
-0.163321
-0.160126
-0.15689
-0.153616
-0.150307
-0.146966
-0.143597
-0.140203
-0.136787
-0.133354
-0.129908
-0.126453
-0.122994
-0.119534
-0.116079
-0.112631
-0.109196
-0.105777
-0.102379
-0.0990062
-0.0956621
-0.0923508
-0.089076
-0.0858412
-0.0826499
-0.0795052
-0.0764101
-0.0733676
-0.07038
-0.0674498
-0.0645792
-0.0617701
-0.0590242
-0.0563429
-0.0537275
-0.0511791
-0.0486985
-0.0462863
-0.0439431
-0.041669
-0.0394642
-0.0373286
-0.0352621
-0.0332642
-0.0313344
-0.0294723
-0.0276771
-0.0259479
-0.024284
-0.0226844
-0.021148
-0.0196739
-0.0182609
-0.0169079
-0.0156137
-0.0143773
-0.0131974
-0.0120728
-0.0110025
-0.00998521
-0.00901988
-0.00810541
-0.00724069
-0.00642471
-0.00565636
-0.00493478
-0.00425864
-0.00362758
-0.00303924
-0.00249505
-0.00198882
-0.00152891
-0.00109471
-0.000722457
-0.000338651
-9.54735e-05
0.000250573
-0.198264
-0.195724
-0.193126
-0.190471
-0.187759
-0.184991
-0.182167
-0.179289
-0.176357
-0.173374
-0.170341
-0.167259
-0.164132
-0.160961
-0.157748
-0.154498
-0.151212
-0.147894
-0.144547
-0.141175
-0.137781
-0.13437
-0.130945
-0.12751
-0.124071
-0.12063
-0.117193
-0.113763
-0.110344
-0.106941
-0.103559
-0.1002
-0.096869
-0.0935699
-0.0903062
-0.0870815
-0.0838992
-0.0807623
-0.077674
-0.0746369
-0.0716537
-0.0687267
-0.065858
-0.0630496
-0.0603032
-0.0576202
-0.055002
-0.0524495
-0.0499637
-0.0475452
-0.0451945
-0.0429119
-0.0406975
-0.0385512
-0.036473
-0.0344624
-0.032519
-0.0306423
-0.0288315
-0.027086
-0.0254049
-0.0237871
-0.0222319
-0.020738
-0.0193045
-0.0179302
-0.016614
-0.0153547
-0.0141511
-0.0130021
-0.0119064
-0.0108629
-0.00987041
-0.00892776
-0.00803375
-0.0071873
-0.0063871
-0.00563223
-0.00492103
-0.00425311
-0.00362556
-0.0030399
-0.00248913
-0.0019815
-0.00149671
-0.00106666
-0.00062901
-0.000300806
9.68683e-05
-0.195709
-0.193163
-0.190559
-0.187896
-0.185175
-0.182397
-0.179565
-0.176678
-0.173738
-0.170748
-0.167709
-0.164623
-0.161493
-0.158321
-0.155111
-0.151864
-0.148586
-0.145277
-0.141943
-0.138587
-0.135213
-0.131824
-0.128426
-0.125021
-0.121614
-0.118209
-0.114811
-0.111423
-0.10805
-0.104696
-0.101364
-0.0980585
-0.0947835
-0.0915424
-0.0883388
-0.0851758
-0.0820568
-0.0789845
-0.0759618
-0.0729913
-0.0700752
-0.0672157
-0.0644147
-0.0616739
-0.0589949
-0.0563788
-0.0538268
-0.0513398
-0.0489185
-0.0465633
-0.0442746
-0.0420525
-0.0398971
-0.0378082
-0.0357856
-0.0338288
-0.0319372
-0.0301104
-0.0283475
-0.0266477
-0.0250102
-0.0234339
-0.021918
-0.0204613
-0.0190626
-0.017721
-0.0164352
-0.015204
-0.0140263
-0.0129008
-0.0118263
-0.0108016
-0.00982545
-0.00889658
-0.00801382
-0.00717571
-0.00638121
-0.00562847
-0.00491691
-0.00424344
-0.00360913
-0.00300732
-0.00244443
-0.00190343
-0.00140794
-0.000911589
-0.000494165
-3.68659e-05
-0.195053
-0.192564
-0.190017
-0.187411
-0.184748
-0.182028
-0.179254
-0.176425
-0.173545
-0.170614
-0.167634
-0.164608
-0.161538
-0.158426
-0.155275
-0.152089
-0.14887
-0.145621
-0.142346
-0.139049
-0.135732
-0.132401
-0.129059
-0.12571
-0.122357
-0.119006
-0.115659
-0.112322
-0.108997
-0.10569
-0.102403
-0.0991408
-0.0959068
-0.0927046
-0.0895375
-0.0864089
-0.0833218
-0.080279
-0.0772833
-0.0743371
-0.071443
-0.0686029
-0.0658188
-0.0630925
-0.0604254
-0.0578188
-0.0552739
-0.0527916
-0.0503726
-0.0480174
-0.0457265
-0.0435001
-0.0413383
-0.0392409
-0.0372078
-0.0352385
-0.0333327
-0.0314899
-0.0297092
-0.02799
-0.0263314
-0.0247326
-0.0231925
-0.0217102
-0.0202846
-0.0189145
-0.0175989
-0.0163366
-0.0151263
-0.0139668
-0.012857
-0.0117955
-0.0107811
-0.00981236
-0.00888808
-0.00800674
-0.00716712
-0.00636732
-0.00560641
-0.00488154
-0.00419282
-0.00353489
-0.00291119
-0.00230968
-0.00174399
-0.00118463
-0.000676559
-0.000151373
-0.191432
-0.18901
-0.186524
-0.183976
-0.181368
-0.178701
-0.175978
-0.173199
-0.170367
-0.167484
-0.164553
-0.161575
-0.158553
-0.155491
-0.15239
-0.149255
-0.146088
-0.142893
-0.139673
-0.136432
-0.133173
-0.129901
-0.12662
-0.123332
-0.120043
-0.116756
-0.113475
-0.110205
-0.106948
-0.103709
-0.100492
-0.0972999
-0.0941365
-0.0910052
-0.0879093
-0.0848516
-0.0818352
-0.0788627
-0.0759367
-0.0730596
-0.0702336
-0.0674607
-0.0647426
-0.0620809
-0.0594771
-0.0569323
-0.0544476
-0.0520237
-0.0496613
-0.0473609
-0.0451228
-0.0429471
-0.0408339
-0.038783
-0.0367942
-0.0348671
-0.0330012
-0.0311959
-0.0294506
-0.0277644
-0.0261365
-0.024566
-0.023052
-0.0215933
-0.0201889
-0.0188377
-0.0175385
-0.0162902
-0.0150913
-0.0139408
-0.0128373
-0.0117795
-0.0107659
-0.00979522
-0.00886588
-0.00797644
-0.00712512
-0.00631047
-0.00553019
-0.0047831
-0.00406569
-0.00337793
-0.00271336
-0.00207575
-0.00145148
-0.000855751
-0.000258532
-0.188164
-0.185847
-0.183466
-0.181021
-0.178516
-0.175952
-0.17333
-0.170653
-0.167923
-0.165142
-0.162312
-0.159436
-0.156516
-0.153556
-0.150559
-0.147526
-0.144463
-0.141371
-0.138254
-0.135117
-0.131962
-0.128794
-0.125615
-0.12243
-0.119243
-0.116057
-0.112877
-0.109705
-0.106546
-0.103403
-0.10028
-0.0971795
-0.0941059
-0.0910621
-0.088051
-0.0850755
-0.0821384
-0.0792423
-0.0763897
-0.0735827
-0.0708234
-0.0681138
-0.0654556
-0.0628502
-0.060299
-0.0578032
-0.0553637
-0.0529814
-0.0506569
-0.0483907
-0.0461831
-0.0440344
-0.0419445
-0.0399134
-0.0379408
-0.0360266
-0.0341701
-0.032371
-0.0306286
-0.0289421
-0.0273109
-0.025734
-0.0242105
-0.0227395
-0.0213199
-0.0199507
-0.0186307
-0.0173587
-0.0161336
-0.0149541
-0.013819
-0.0127267
-0.0116761
-0.0106655
-0.0096936
-0.00875867
-0.0078592
-0.00699319
-0.0061591
-0.00535443
-0.00457772
-0.00382556
-0.00309697
-0.0023867
-0.00169514
-0.00101295
-0.000343814
-0.181715
-0.179578
-0.177373
-0.175103
-0.172771
-0.170378
-0.167928
-0.165421
-0.162861
-0.16025
-0.15759
-0.154884
-0.152135
-0.149345
-0.146518
-0.143657
-0.140764
-0.137843
-0.134898
-0.131932
-0.128947
-0.125949
-0.122939
-0.119922
-0.116902
-0.113881
-0.110864
-0.107853
-0.104853
-0.101866
-0.0988954
-0.0959452
-0.093018
-0.0901167
-0.0872443
-0.0844034
-0.0815965
-0.078826
-0.0760943
-0.0734034
-0.0707553
-0.0681517
-0.0655942
-0.0630843
-0.0606233
-0.0582124
-0.0558524
-0.0535443
-0.0512886
-0.0490859
-0.0469366
-0.0448409
-0.0427989
-0.0408107
-0.0388761
-0.036995
-0.0351669
-0.0333914
-0.0316681
-0.0299963
-0.0283755
-0.0268047
-0.0252832
-0.0238102
-0.0223847
-0.0210058
-0.0196723
-0.0183832
-0.0171373
-0.0159336
-0.0147706
-0.0136472
-0.012562
-0.0115134
-0.0105003
-0.00952075
-0.00857353
-0.00765627
-0.00676814
-0.00590561
-0.00506903
-0.00425235
-0.00345902
-0.00267716
-0.00191782
-0.0011546
-0.000415148
-0.175565
-0.173597
-0.171562
-0.169463
-0.167301
-0.165078
-0.162798
-0.160461
-0.158071
-0.15563
-0.15314
-0.150604
-0.148025
-0.145406
-0.142749
-0.140057
-0.137334
-0.134583
-0.131806
-0.129008
-0.12619
-0.123357
-0.120512
-0.117657
-0.114798
-0.111935
-0.109074
-0.106217
-0.103367
-0.100528
-0.0977025
-0.0948933
-0.0921033
-0.0893355
-0.0865923
-0.0838764
-0.0811902
-0.0785359
-0.0759156
-0.0733314
-0.070785
-0.0682783
-0.0658127
-0.0633896
-0.0610104
-0.0586761
-0.0563878
-0.0541462
-0.0519521
-0.049806
-0.0477083
-0.0456594
-0.0436595
-0.0417086
-0.0398067
-0.0379537
-0.0361493
-0.0343932
-0.0326851
-0.0310243
-0.0294104
-0.0278426
-0.0263203
-0.0248427
-0.023409
-0.0220182
-0.0206694
-0.0193615
-0.0180936
-0.0168645
-0.0156729
-0.0145177
-0.0133977
-0.0123112
-0.0112572
-0.0102337
-0.00923983
-0.00827285
-0.00733256
-0.00641473
-0.00552105
-0.00464375
-0.00378934
-0.00294173
-0.00211892
-0.00128334
-0.000476149
-0.16932
-0.167528
-0.165668
-0.163742
-0.161752
-0.159701
-0.157592
-0.155426
-0.153206
-0.150935
-0.148615
-0.146248
-0.143838
-0.141388
-0.138899
-0.136376
-0.13382
-0.131235
-0.128624
-0.12599
-0.123336
-0.120665
-0.117981
-0.115285
-0.112583
-0.109876
-0.107167
-0.10446
-0.101758
-0.0990631
-0.0963786
-0.0937073
-0.0910517
-0.0884145
-0.0857981
-0.0832049
-0.0806372
-0.0780971
-0.0755866
-0.0731076
-0.0706619
-0.0682511
-0.0658768
-0.0635402
-0.0612426
-0.0589851
-0.0567687
-0.0545942
-0.0524624
-0.0503739
-0.048329
-0.0463283
-0.0443719
-0.04246
-0.0405926
-0.0387698
-0.0369912
-0.0352567
-0.033566
-0.0319187
-0.0303142
-0.0287521
-0.0272317
-0.0257523
-0.0243131
-0.0229134
-0.0215523
-0.0202288
-0.0189419
-0.0176907
-0.016474
-0.0152905
-0.0141392
-0.0130187
-0.0119277
-0.0108645
-0.00982832
-0.00881635
-0.00782878
-0.00686103
-0.00591567
-0.00498396
-0.00407431
-0.00316806
-0.00228727
-0.00138779
-0.000519498
-0.163328
-0.161699
-0.160002
-0.158239
-0.156411
-0.154522
-0.152575
-0.15057
-0.148512
-0.146402
-0.144243
-0.142038
-0.139789
-0.137499
-0.135171
-0.132807
-0.130411
-0.127984
-0.125531
-0.123054
-0.120555
-0.118039
-0.115507
-0.112963
-0.110409
-0.107849
-0.105286
-0.102721
-0.100159
-0.0976008
-0.0950503
-0.0925096
-0.0899814
-0.0874681
-0.0849719
-0.0824951
-0.0800398
-0.0776081
-0.0752019
-0.0728229
-0.0704729
-0.0681535
-0.065866
-0.0636118
-0.0613921
-0.059208
-0.0570604
-0.0549503
-0.0528784
-0.0508452
-0.0488514
-0.0468972
-0.0449831
-0.0431092
-0.0412756
-0.0394823
-0.0377294
-0.0360165
-0.0343435
-0.03271
-0.0311157
-0.0295601
-0.0280426
-0.0265626
-0.0251195
-0.0237126
-0.022341
-0.0210038
-0.0197003
-0.0184294
-0.0171901
-0.0159812
-0.0148017
-0.0136503
-0.012526
-0.0114268
-0.0103523
-0.00929969
-0.0082694
-0.00725671
-0.00626477
-0.00528429
-0.0043249
-0.00336644
-0.00243363
-0.00147842
-0.000556003
-0.157583
-0.15611
-0.154569
-0.15296
-0.151288
-0.149554
-0.14776
-0.14591
-0.144005
-0.142049
-0.140043
-0.137991
-0.135895
-0.133757
-0.13158
-0.129368
-0.127122
-0.124845
-0.122541
-0.120211
-0.117859
-0.115488
-0.1131
-0.110698
-0.108284
-0.105862
-0.103435
-0.101004
-0.0985727
-0.0961434
-0.0937186
-0.0913007
-0.0888922
-0.0864952
-0.084112
-0.0817447
-0.0793953
-0.0770658
-0.0747579
-0.0724733
-0.0702138
-0.0679807
-0.0657756
-0.0635996
-0.061454
-0.0593398
-0.057258
-0.0552095
-0.053195
-0.0512151
-0.0492704
-0.0473614
-0.0454883
-0.0436515
-0.0418511
-0.0400872
-0.0383598
-0.0366688
-0.0350139
-0.033395
-0.0318118
-0.0302638
-0.0287506
-0.0272717
-0.0258264
-0.0244142
-0.0230343
-0.0216859
-0.0203682
-0.0190803
-0.0178213
-0.0165902
-0.0153859
-0.0142072
-0.0130532
-0.0119221
-0.0108136
-0.00972478
-0.00865648
-0.00760385
-0.00657048
-0.00554677
-0.00454322
-0.00353873
-0.00255983
-0.00155589
-0.000585666
-0.15212
-0.150794
-0.149399
-0.147937
-0.14641
-0.144821
-0.143173
-0.141468
-0.139708
-0.137896
-0.136035
-0.134126
-0.132173
-0.130178
-0.128144
-0.126073
-0.123969
-0.121832
-0.119667
-0.117476
-0.115261
-0.113026
-0.110772
-0.108503
-0.10622
-0.103928
-0.101627
-0.0993216
-0.097013
-0.094704
-0.0923968
-0.0900938
-0.0877973
-0.0855093
-0.0832321
-0.0809675
-0.0787174
-0.0764838
-0.0742684
-0.0720727
-0.0698984
-0.0677468
-0.0656194
-0.0635174
-0.061442
-0.0593941
-0.0573748
-0.055385
-0.0534252
-0.0514964
-0.0495989
-0.0477333
-0.0459
-0.0440992
-0.0423312
-0.0405961
-0.0388939
-0.0372246
-0.0355882
-0.0339843
-0.0324128
-0.0308734
-0.0293656
-0.027889
-0.0264431
-0.0250274
-0.0236411
-0.0222835
-0.0209541
-0.0196518
-0.0183759
-0.0171254
-0.0158994
-0.0146968
-0.0135167
-0.0123575
-0.0112188
-0.0100981
-0.00899617
-0.00790826
-0.00683826
-0.00577644
-0.00473391
-0.00368899
-0.00266951
-0.00162304
-0.000611015
-0.146939
-0.14575
-0.144492
-0.143167
-0.141777
-0.140325
-0.138813
-0.137244
-0.135619
-0.133943
-0.132217
-0.130443
-0.128625
-0.126764
-0.124863
-0.122925
-0.120952
-0.118947
-0.116913
-0.114851
-0.112764
-0.110656
-0.108528
-0.106383
-0.104223
-0.102051
-0.0998695
-0.0976805
-0.0954865
-0.0932897
-0.0910925
-0.0888969
-0.0867051
-0.0845191
-0.082341
-0.0801725
-0.0780155
-0.0758719
-0.0737431
-0.0716309
-0.0695367
-0.0674618
-0.0654077
-0.0633754
-0.0613663
-0.0593812
-0.0574211
-0.0554869
-0.0535794
-0.0516992
-0.0498468
-0.0480229
-0.0462278
-0.0444618
-0.0427252
-0.0410182
-0.0393409
-0.0376932
-0.0360751
-0.0344866
-0.0329274
-0.0313972
-0.0298958
-0.0284228
-0.0269776
-0.0255599
-0.024169
-0.0228043
-0.0214652
-0.0201508
-0.0188606
-0.0175935
-0.0163488
-0.0151253
-0.0139225
-0.0127386
-0.0115736
-0.0104248
-0.00929336
-0.00817444
-0.00707227
-0.00597698
-0.00490025
-0.00381992
-0.0027649
-0.00168132
-0.000632806
-0.142034
-0.140974
-0.139844
-0.138647
-0.137384
-0.13606
-0.134676
-0.133234
-0.131737
-0.130187
-0.128588
-0.12694
-0.125248
-0.123512
-0.121737
-0.119923
-0.118074
-0.116191
-0.114279
-0.112338
-0.110371
-0.108381
-0.10637
-0.104341
-0.102296
-0.100236
-0.0981656
-0.0960855
-0.0939985
-0.0919066
-0.0898119
-0.0877166
-0.0856226
-0.0835319
-0.0814463
-0.0793677
-0.0772979
-0.0752384
-0.0731909
-0.0711569
-0.0691379
-0.0671351
-0.0651498
-0.0631833
-0.0612367
-0.0593108
-0.0574068
-0.0555254
-0.0536673
-0.0518334
-0.0500241
-0.04824
-0.0464816
-0.0447491
-0.0430429
-0.0413632
-0.0397102
-0.0380838
-0.0364841
-0.034911
-0.0333644
-0.0318442
-0.0303499
-0.0288813
-0.0274381
-0.0260198
-0.0246259
-0.0232558
-0.021909
-0.0205848
-0.0192825
-0.0180013
-0.0167406
-0.0154992
-0.0142766
-0.0130713
-0.0118833
-0.0107101
-0.00955277
-0.00840673
-0.00727641
-0.00615187
-0.00504522
-0.00393396
-0.00284792
-0.001732
-0.000651716
-0.137402
-0.136461
-0.13545
-0.134372
-0.133229
-0.132024
-0.130758
-0.129436
-0.128057
-0.126627
-0.125145
-0.123616
-0.122041
-0.120423
-0.118763
-0.117066
-0.115332
-0.113564
-0.111765
-0.109937
-0.108082
-0.106203
-0.104301
-0.10238
-0.100441
-0.0984868
-0.0965193
-0.0945409
-0.0925536
-0.0905594
-0.0885604
-0.0865586
-0.0845558
-0.082554
-0.0805549
-0.0785603
-0.0765719
-0.0745912
-0.0726197
-0.070659
-0.0687104
-0.0667752
-0.0648547
-0.06295
-0.0610622
-0.0591922
-0.0573411
-0.0555096
-0.0536985
-0.0519084
-0.0501401
-0.048394
-0.0466707
-0.0449704
-0.0432935
-0.0416402
-0.0400108
-0.0384053
-0.0368237
-0.0352661
-0.0337324
-0.0322224
-0.030736
-0.0292727
-0.0278325
-0.0264148
-0.0250192
-0.0236454
-0.0222926
-0.0209604
-0.0196482
-0.0183552
-0.0170809
-0.0158241
-0.0145846
-0.0133608
-0.0121529
-0.0109584
-0.00977862
-0.00860899
-0.00745413
-0.00630409
-0.00517138
-0.00403318
-0.00292011
-0.00177605
-0.000668144
-0.133037
-0.132206
-0.131306
-0.130339
-0.129307
-0.128212
-0.127058
-0.125846
-0.124578
-0.123258
-0.121887
-0.120467
-0.119002
-0.117493
-0.115942
-0.114353
-0.112726
-0.111065
-0.109372
-0.107649
-0.105898
-0.104122
-0.102322
-0.100502
-0.0986618
-0.0968053
-0.0949341
-0.0930503
-0.0911558
-0.0892526
-0.0873427
-0.085428
-0.0835103
-0.0815914
-0.079673
-0.0777568
-0.0758443
-0.0739372
-0.0720368
-0.0701447
-0.0682621
-0.0663902
-0.0645304
-0.0626837
-0.0608512
-0.0590338
-0.0572325
-0.0554481
-0.0536813
-0.0519329
-0.0502035
-0.0484936
-0.0468036
-0.0451341
-0.0434853
-0.0418575
-0.040251
-0.0386659
-0.0371022
-0.03556
-0.0340392
-0.0325398
-0.0310616
-0.0296044
-0.028168
-0.0267519
-0.025356
-0.0239796
-0.0226225
-0.0212841
-0.0199638
-0.018661
-0.0173752
-0.0161055
-0.0148515
-0.0136119
-0.0123868
-0.0111739
-0.00997472
-0.00878462
-0.00760848
-0.00643631
-0.00528094
-0.00411933
-0.0029828
-0.00181429
-0.0006824
-0.128935
-0.128206
-0.127408
-0.126543
-0.125614
-0.124622
-0.12357
-0.122461
-0.121296
-0.120079
-0.11881
-0.117493
-0.116129
-0.114722
-0.113272
-0.111783
-0.110257
-0.108695
-0.1071
-0.105475
-0.103821
-0.10214
-0.100435
-0.0987078
-0.0969604
-0.0951948
-0.093413
-0.0916171
-0.089809
-0.0879905
-0.0861635
-0.0843299
-0.0824913
-0.0806496
-0.0788063
-0.0769631
-0.0751215
-0.073283
-0.071449
-0.0696208
-0.0677999
-0.0659873
-0.0641843
-0.0623919
-0.0606113
-0.0588433
-0.0570889
-0.0553488
-0.0536239
-0.0519148
-0.0502221
-0.0485465
-0.0468884
-0.0452482
-0.0436263
-0.042023
-0.0404386
-0.0388732
-0.037327
-0.0357999
-0.0342921
-0.0328035
-0.0313339
-0.0298832
-0.0284513
-0.0270378
-0.0256424
-0.0242649
-0.0229047
-0.0215616
-0.0202349
-0.0189241
-0.0176288
-0.0163482
-0.015082
-0.0138288
-0.0125891
-0.0113604
-0.0101445
-0.0089367
-0.00774216
-0.00655083
-0.00537586
-0.00419397
-0.00303709
-0.00184741
-0.00069474
-0.12509
-0.124455
-0.123751
-0.122981
-0.122146
-0.121249
-0.120293
-0.119279
-0.118209
-0.117086
-0.115913
-0.11469
-0.113421
-0.112108
-0.110752
-0.109356
-0.107922
-0.106453
-0.104949
-0.103415
-0.10185
-0.100258
-0.0986413
-0.0970008
-0.0953389
-0.0936577
-0.0919589
-0.0902446
-0.0885166
-0.0867768
-0.0850268
-0.0832685
-0.0815035
-0.0797335
-0.07796
-0.0761847
-0.0744091
-0.0726344
-0.0708622
-0.0690938
-0.0673303
-0.065573
-0.0638231
-0.0620816
-0.0603495
-0.0586278
-0.0569173
-0.0552189
-0.0535333
-0.0518612
-0.0502033
-0.0485602
-0.0469322
-0.0453199
-0.0437237
-0.0421438
-0.0405806
-0.0390343
-0.037505
-0.0359928
-0.0344978
-0.03302
-0.0315592
-0.0301155
-0.0286886
-0.0272783
-0.0258845
-0.0245067
-0.0231447
-0.0217981
-0.0204665
-0.0191494
-0.0178463
-0.0165566
-0.0152801
-0.0140155
-0.0127633
-0.0115212
-0.0102909
-0.00906796
-0.00785758
-0.00664975
-0.00545784
-0.00425846
-0.003084
-0.00187603
-0.000705388
-0.121498
-0.120949
-0.120331
-0.119648
-0.1189
-0.118091
-0.117222
-0.116295
-0.115314
-0.114279
-0.113193
-0.112058
-0.110876
-0.109649
-0.10838
-0.107071
-0.105723
-0.104338
-0.10292
-0.101469
-0.0999876
-0.0984781
-0.0969422
-0.0953821
-0.0937994
-0.0921963
-0.0905744
-0.0889357
-0.087282
-0.0856149
-0.0839363
-0.0822478
-0.080551
-0.0788475
-0.0771389
-0.0754267
-0.0737122
-0.0719969
-0.0702822
-0.0685692
-0.0668593
-0.0651535
-0.0634531
-0.061759
-0.0600722
-0.0583937
-0.0567244
-0.055065
-0.0534163
-0.051779
-0.0501538
-0.0485412
-0.0469417
-0.0453559
-0.043784
-0.0422265
-0.0406836
-0.0391556
-0.0376427
-0.036145
-0.0346626
-0.0331954
-0.0317436
-0.0303071
-0.0288856
-0.0274792
-0.0260875
-0.0247104
-0.0233476
-0.0219987
-0.0206634
-0.0193412
-0.0180319
-0.0167348
-0.0154497
-0.0141756
-0.0129128
-0.0116592
-0.0104167
-0.00918085
-0.0079569
-0.00673489
-0.00552844
-0.004314
-0.0031244
-0.00190066
-0.000714542
-0.118153
-0.117682
-0.117144
-0.11654
-0.115872
-0.115143
-0.114354
-0.113508
-0.112607
-0.111653
-0.110648
-0.109593
-0.108492
-0.107346
-0.106157
-0.104927
-0.103658
-0.102352
-0.101012
-0.099638
-0.0982335
-0.0967999
-0.0953392
-0.0938531
-0.0923437
-0.0908127
-0.0892619
-0.087693
-0.0861079
-0.0845081
-0.0828955
-0.0812715
-0.0796378
-0.0779959
-0.0763473
-0.0746934
-0.0730356
-0.0713753
-0.0697138
-0.0680524
-0.0663921
-0.0647342
-0.0630797
-0.0614297
-0.0597852
-0.058147
-0.056516
-0.0548931
-0.0532789
-0.0516742
-0.0500796
-0.0484958
-0.0469231
-0.0453622
-0.0438133
-0.042277
-0.0407535
-0.039243
-0.0377458
-0.0362621
-0.0347919
-0.0333354
-0.0318925
-0.0304632
-0.0290476
-0.0276454
-0.0262565
-0.0248807
-0.0235178
-0.0221675
-0.0208297
-0.0195037
-0.0181895
-0.0168863
-0.0155943
-0.0143122
-0.0130405
-0.0117773
-0.0105245
-0.00927756
-0.00804203
-0.00680792
-0.00558901
-0.00436166
-0.00315906
-0.0019218
-0.000722382
-0.11505
-0.11465
-0.114184
-0.113652
-0.113057
-0.112401
-0.111686
-0.110914
-0.110087
-0.109207
-0.108276
-0.107295
-0.106268
-0.105195
-0.10408
-0.102923
-0.101727
-0.100494
-0.0992247
-0.0979224
-0.0965884
-0.0952247
-0.0938331
-0.0924154
-0.0909733
-0.0895087
-0.0880233
-0.0865188
-0.0849969
-0.0834592
-0.0819074
-0.0803429
-0.0787673
-0.0771822
-0.075589
-0.0739889
-0.0723836
-0.0707741
-0.0691618
-0.067548
-0.0659337
-0.0643201
-0.0627082
-0.0610991
-0.0594937
-0.0578929
-0.0562976
-0.0547086
-0.0531266
-0.0515523
-0.0499863
-0.0484293
-0.0468818
-0.0453443
-0.0438172
-0.0423008
-0.0407956
-0.0393018
-0.0378196
-0.0363493
-0.034891
-0.0334448
-0.0320107
-0.0305888
-0.0291791
-0.0277814
-0.0263957
-0.0250218
-0.0236596
-0.0223088
-0.0209692
-0.0196405
-0.0183225
-0.0170146
-0.0157168
-0.0144281
-0.0131491
-0.0118779
-0.0106163
-0.00936006
-0.00811471
-0.0068703
-0.00564076
-0.0044024
-0.00318869
-0.00193987
-0.000729069
-0.112183
-0.111848
-0.111447
-0.11098
-0.110452
-0.109863
-0.109215
-0.10851
-0.10775
-0.106938
-0.106074
-0.105162
-0.104202
-0.103197
-0.102148
-0.101059
-0.0999292
-0.0987621
-0.0975591
-0.0963221
-0.0950528
-0.0937532
-0.092425
-0.0910699
-0.0896896
-0.088286
-0.0868607
-0.0854152
-0.0839514
-0.0824707
-0.0809747
-0.0794649
-0.0779428
-0.0764099
-0.0748675
-0.0733171
-0.0717599
-0.0701972
-0.0686303
-0.0670603
-0.0654884
-0.0639156
-0.0623431
-0.0607717
-0.0592026
-0.0576364
-0.0560741
-0.0545165
-0.0529643
-0.0514183
-0.049879
-0.048347
-0.046823
-0.0453073
-0.0438005
-0.0423029
-0.040815
-0.0393369
-0.037869
-0.0364115
-0.0349646
-0.0335283
-0.0321029
-0.0306883
-0.0292845
-0.0278915
-0.0265094
-0.0251378
-0.0237768
-0.0224261
-0.0210856
-0.0197549
-0.0184341
-0.0171224
-0.0158201
-0.014526
-0.013241
-0.011963
-0.0106942
-0.00943012
-0.00817648
-0.00692336
-0.0056848
-0.00443708
-0.00321392
-0.00195525
-0.000734747
-0.109547
-0.10927
-0.108927
-0.108521
-0.108052
-0.107523
-0.106936
-0.106292
-0.105594
-0.104843
-0.104041
-0.10319
-0.102292
-0.101348
-0.100361
-0.0993327
-0.0982641
-0.0971574
-0.0960145
-0.0948371
-0.0936269
-0.0923858
-0.0911155
-0.0898176
-0.0884939
-0.087146
-0.0857755
-0.0843841
-0.0829733
-0.0815447
-0.0800998
-0.0786401
-0.0771669
-0.0756818
-0.0741861
-0.072681
-0.071168
-0.0696482
-0.0681229
-0.0665931
-0.0650601
-0.0635249
-0.0619885
-0.0604519
-0.058916
-0.0573818
-0.0558499
-0.0543213
-0.0527967
-0.0512767
-0.0497621
-0.0482533
-0.0467511
-0.0452557
-0.0437679
-0.0422878
-0.040816
-0.0393528
-0.0378983
-0.0364529
-0.0350168
-0.0335902
-0.032173
-0.0307655
-0.0293677
-0.0279795
-0.026601
-0.0252321
-0.0238727
-0.0225226
-0.0211818
-0.01985
-0.0185271
-0.0172125
-0.0159066
-0.0146083
-0.0133184
-0.0120348
-0.0107599
-0.00948931
-0.00822872
-0.00696826
-0.0057221
-0.00446646
-0.00323529
-0.00196828
-0.000739546
-0.107137
-0.106912
-0.106622
-0.106269
-0.105854
-0.10538
-0.104847
-0.104259
-0.103616
-0.10292
-0.102174
-0.101379
-0.100537
-0.0996489
-0.0987175
-0.0977442
-0.0967308
-0.095679
-0.0945906
-0.0934674
-0.0923109
-0.091123
-0.0899053
-0.0886595
-0.0873871
-0.0860899
-0.0847694
-0.0834271
-0.0820646
-0.0806834
-0.079285
-0.0778708
-0.0764423
-0.0750007
-0.0735474
-0.0720838
-0.070611
-0.0691303
-0.067643
-0.06615
-0.0646525
-0.0631516
-0.0616482
-0.0601434
-0.058638
-0.0571329
-0.055629
-0.054127
-0.0526277
-0.0511317
-0.0496397
-0.0481524
-0.0466702
-0.0451937
-0.0437234
-0.0422596
-0.0408028
-0.0393533
-0.0379115
-0.0364775
-0.0350516
-0.033634
-0.0322248
-0.0308242
-0.0294321
-0.0280488
-0.0266741
-0.025308
-0.0239505
-0.0226014
-0.0212608
-0.0199283
-0.018604
-0.0172874
-0.0159787
-0.014677
-0.013383
-0.012095
-0.0108151
-0.00953905
-0.00827266
-0.00700607
-0.00575352
-0.00449124
-0.00325331
-0.00197926
-0.000743581
-0.104948
-0.104769
-0.104526
-0.10422
-0.103854
-0.103428
-0.102945
-0.102406
-0.101813
-0.101168
-0.100472
-0.0997266
-0.0989345
-0.0980969
-0.0972156
-0.0962923
-0.0953286
-0.0943264
-0.0932873
-0.0922129
-0.091105
-0.0899651
-0.0887949
-0.0875961
-0.0863702
-0.0851188
-0.0838434
-0.0825455
-0.0812268
-0.0798885
-0.0785322
-0.0771592
-0.075771
-0.0743688
-0.0729541
-0.0715279
-0.0700917
-0.0686465
-0.0671935
-0.0657339
-0.0642687
-0.0627989
-0.0613256
-0.0598496
-0.058372
-0.0568935
-0.055415
-0.0539372
-0.052461
-0.0509869
-0.0495157
-0.0480479
-0.0465841
-0.0451249
-0.0436706
-0.0422218
-0.0407789
-0.0393422
-0.037912
-0.0364886
-0.0350723
-0.0336632
-0.0322615
-0.0308674
-0.029481
-0.0281023
-0.0267314
-0.0253682
-0.0240128
-0.0226651
-0.021325
-0.0199923
-0.0186672
-0.017349
-0.0160382
-0.0147339
-0.0134368
-0.0121451
-0.0108611
-0.00958061
-0.00830942
-0.00703773
-0.00577985
-0.004512
-0.00326841
-0.00198847
-0.000746953
-0.102836
-0.102635
-0.102371
-0.102048
-0.101666
-0.101226
-0.100731
-0.100183
-0.099582
-0.0989308
-0.0982307
-0.0974835
-0.0966909
-0.0958545
-0.0949759
-0.0940569
-0.093099
-0.092104
-0.0910735
-0.090009
-0.0889122
-0.0877847
-0.0866281
-0.0854438
-0.0842335
-0.0829987
-0.0817407
-0.0804612
-0.0791615
-0.077843
-0.0765071
-0.0751551
-0.0737884
-0.0724082
-0.0710158
-0.0696124
-0.0681991
-0.0667772
-0.0653476
-0.0639114
-0.0624697
-0.0610235
-0.0595736
-0.058121
-0.0566665
-0.0552109
-0.0537551
-0.0522998
-0.0508455
-0.0493931
-0.0479431
-0.046496
-0.0450525
-0.0436129
-0.0421778
-0.0407476
-0.0393225
-0.0379031
-0.0364894
-0.0350819
-0.0336808
-0.0322861
-0.0308982
-0.0295171
-0.0281429
-0.0267756
-0.0254154
-0.0240622
-0.0227159
-0.0213767
-0.0200442
-0.0187186
-0.0173995
-0.0160871
-0.0147807
-0.0134811
-0.0121865
-0.0108992
-0.00961509
-0.00833995
-0.00706406
-0.00580176
-0.0045293
-0.00328099
-0.00199614
-0.000749753
-0.101109
-0.100944
-0.100718
-0.100433
-0.100089
-0.099688
-0.0992322
-0.0987229