/*--------------------------------*- C++ -*----------------------------------*\
  =========                 |
  \\      /  F ield         | OpenFOAM: The Open Source CFD Toolbox
   \\    /   O peration     | Website:  https://openfoam.org
    \\  /    A nd           | Version:  7
     \\/     M anipulation  |
\*---------------------------------------------------------------------------*/
FoamFile
{
    version     2.0;
    format      ascii;
    class       surfaceScalarField;
    location    "40";
    object      phi;
}
// * * * * * * * * * * * * * * * * * * * * * * * * * * * * * * * * * * * * * //

dimensions      [0 3 -1 0 0 0 0];

internalField   nonuniform List<scalar> 
6868
(
-0.00249418
-2.03086e-05
-0.00247206
-2.2099e-05
-0.00244812
-2.39173e-05
-0.00242232
-2.57628e-05
-0.00239465
-2.76348e-05
-0.00236507
-2.95318e-05
-0.00233356
-3.14523e-05
-0.00230011
-3.33943e-05
-0.00226469
-3.53555e-05
-0.00222729
-3.73332e-05
-0.00218789
-3.93245e-05
-0.00214648
-4.13263e-05
-0.00210306
-4.33349e-05
-0.00205762
-4.53469e-05
-0.00201017
-4.73582e-05
-0.00196072
-4.9365e-05
-0.00190926
-5.13632e-05
-0.00185582
-5.33487e-05
-0.00180041
-5.53173e-05
-0.00174305
-5.72652e-05
-0.00168378
-5.91879e-05
-0.00162261
-6.108e-05
-0.00155958
-6.29513e-05
-0.00149469
-6.48191e-05
-0.00142806
-6.65631e-05
-0.00135974
-6.82643e-05
-0.00128976
-6.99237e-05
-0.00121819
-7.15306e-05
-0.00114508
-7.30803e-05
-0.00107049
-7.4569e-05
-0.000994484
-7.59937e-05
-0.000917132
-7.73513e-05
-0.000838502
-7.86394e-05
-0.000758668
-7.9856e-05
-0.000677701
-8.09991e-05
-0.000595676
-8.2068e-05
-0.000512662
-8.30678e-05
-0.000428734
-8.39918e-05
-0.000343981
-8.48268e-05
-0.000258478
-8.55861e-05
-0.0001723
-8.62705e-05
-8.55201e-05
-8.688e-05
1.78722e-06
-8.74148e-05
8.9543e-05
-8.78697e-05
0.000177681
-8.82575e-05
0.000266131
-8.8574e-05
0.000354824
-8.88207e-05
0.000443694
-8.89998e-05
0.000532675
-8.91136e-05
0.000621707
-8.91644e-05
0.00071073
-8.91549e-05
0.000799687
-8.90875e-05
0.000888523
-8.8965e-05
0.000977189
-8.87903e-05
0.00106563
-8.85661e-05
0.00115381
-8.82955e-05
0.00124169
-8.79814e-05
0.00132921
-8.76267e-05
0.00141635
-8.72346e-05
0.00150307
-8.6808e-05
0.00158934
-8.63499e-05
0.00167513
-8.58633e-05
0.00176042
-8.53512e-05
0.00184519
-8.48164e-05
0.00192941
-8.42618e-05
0.00201307
-8.36903e-05
0.00209615
-8.31048e-05
0.00217865
-8.25078e-05
0.00226055
-8.19023e-05
0.00234185
-8.12908e-05
0.00242255
-8.0676e-05
0.00250264
-8.00606e-05
0.00258212
-7.94472e-05
0.002661
-7.88385e-05
0.00273929
-7.8237e-05
0.002817
-7.76457e-05
0.00289414
-7.70674e-05
0.00297072
-7.6505e-05
0.00304676
-7.59618e-05
0.00312228
-7.54414e-05
0.00319732
-7.49479e-05
0.0032719
-7.44854e-05
0.00334605
-7.40604e-05
0.00341982
-7.36774e-05
0.00349327
-7.33499e-05
0.00356644
-7.30769e-05
0.00363944
-7.29006e-05
-9.42779e-08
0.00371231
-7.27824e-05
-9.176e-08
0.00378525
-7.28562e-05
-8.7883e-08
0.00385833
-7.29967e-05
-8.31587e-08
-7.3166e-05
-7.42595e-08
-0.00199395
-4.3521e-05
-0.00196896
-4.70861e-05
-0.00194218
-5.07013e-05
-0.00191357
-5.43653e-05
-0.00188313
-5.8076e-05
-0.00185083
-6.18308e-05
-0.00181666
-6.56262e-05
-0.0017806
-6.94583e-05
-0.00174263
-7.33222e-05
-0.00170275
-7.72128e-05
-0.00166095
-8.11241e-05
-0.00161723
-8.50497e-05
-0.00157158
-8.89826e-05
-0.00152401
-9.29157e-05
-0.00147453
-9.68412e-05
-0.00142314
-0.000100751
-0.00136987
-0.000104638
-0.00131472
-0.000108492
-0.00125773
-0.000112307
-0.00119892
-0.000116074
-0.00113833
-0.000119785
-0.00107598
-0.000123428
-0.00101193
-0.000126999
-0.000946083
-0.000130668
-0.000878668
-0.000133977
-0.000809705
-0.000137228
-0.000739234
-0.000140395
-0.00066731
-0.000143454
-0.000593993
-0.000146397
-0.000519345
-0.000149217
-0.000443431
-0.000151908
-0.000366317
-0.000154465
-0.000288074
-0.000156883
-0.000208771
-0.000159159
-0.000128479
-0.000161291
-4.72703e-05
-0.000163277
3.47653e-05
-0.000165104
0.000117546
-0.000166773
0.000201022
-0.000168302
0.000285117
-0.000169681
0.000369757
-0.00017091
0.000454868
-0.000171991
0.000540377
-0.000172924
0.00062622
-0.000173713
0.000712323
-0.000174361
0.000798621
-0.000174871
0.000885048
-0.000175248
0.000971543
-0.000175495
0.00105805
-0.000175617
0.0011445
-0.000175618
0.00123085
-0.000175504
0.00131704
-0.000175279
0.00140303
-0.000174951
0.00148876
-0.000174523
0.00157419
-0.000174002
0.00165929
-0.000173393
0.00174401
-0.000172703
0.00182832
-0.000171937
0.00191219
-0.000171101
0.00199558
-0.000170201
0.00207848
-0.000169244
0.00216085
-0.000168234
0.00224267
-0.000167177
0.00232394
-0.00016608
0.00240462
-0.000164947
0.00248472
-0.000163785
0.00256421
-0.000162598
0.00264309
-0.000161392
0.00272137
-0.000160173
0.00279902
-0.000158945
0.00287606
-0.000157713
0.00295248
-0.000156483
0.00302829
-0.00015526
0.0031035
-0.000154048
0.00317812
-0.000152853
0.00325215
-0.000151681
0.00332562
-0.000150537
0.00339854
-0.000149426
0.00347093
-0.000148355
0.00354282
-0.00014733
0.00361424
-0.00014636
0.0036852
-0.000145451
0.00375576
-0.000144618
0.00382595
-0.000143866
0.00389582
-0.000143223
0.00396542
-0.000142681
0.00403484
-0.00014232
0.00410413
-0.00014207
0.0041734
-0.00014213
0.00424278
-0.000142372
-0.000142774
-0.00105308
-0.00102365
-7.65214e-05
-0.000992454
-8.1893e-05
-0.000959495
-8.73239e-05
-0.000924761
-9.28107e-05
-0.000888242
-9.83493e-05
-0.000849934
-0.000103935
-0.000809832
-0.00010956
-0.000767935
-0.00011522
-0.000724243
-0.000120905
-0.00067876
-0.000126607
-0.000631493
-0.000132317
-0.000582452
-0.000138024
-0.000531648
-0.000143719
-0.0004791
-0.00014939
-0.000424825
-0.000155026
-0.000368848
-0.000160615
-0.000311193
-0.000166147
-0.000251891
-0.000171609
-0.000190974
-0.000176991
-0.000128476
-0.000182283
-6.4414e-05
-0.00018749
1.21135e-06
-0.000192624
6.78948e-05
-0.000197352
0.000136041
-0.000202124
0.000205554
-0.00020674
0.000276347
-0.000211189
0.000348357
-0.000215464
0.000421518
-0.000219558
0.000495762
-0.000223461
0.000571021
-0.000227167
0.000647226
-0.00023067
0.000724307
-0.000233964
0.000802193
-0.000237045
0.000880813
-0.00023991
0.000960093
-0.000242557
0.00103997
-0.00024498
0.00112038
-0.000247179
0.00120123
-0.000249159
0.00128247
-0.00025092
0.00136402
-0.000252463
0.00144582
-0.000253791
0.00152781
-0.000254908
0.00160991
-0.000255816
0.00169207
-0.000256522
0.00177423
-0.000257031
0.00185633
-0.000257349
0.00193832
-0.000257482
0.00202014
-0.000257438
0.00210175
-0.000257223
0.00218309
-0.000256846
0.00226412
-0.000256315
0.00234481
-0.000255638
0.00242511
-0.000254822
0.00250499
-0.000253878
0.00258441
-0.000252813
0.00266334
-0.000251636
0.00274176
-0.000250356
0.00281964
-0.000248982
0.00289696
-0.000247522
0.0029737
-0.000245984
0.00304985
-0.000244378
0.00312538
-0.000242712
0.00320029
-0.000240993
0.00327458
-0.00023923
0.00334822
-0.000237431
0.00342123
-0.000235604
0.00349359
-0.000233756
0.00356532
-0.000231896
0.0036364
-0.000230029
0.00370685
-0.000228165
0.00377668
-0.000226309
0.00384589
-0.00022447
0.00391449
-0.000222654
0.00398251
-0.00022087
0.00404995
-0.000219124
0.00411684
-0.000217424
0.00418319
-0.000215779
0.00424904
-0.000214198
0.0043144
-0.000212689
0.0043793
-0.000211265
0.00444379
-0.000209934
0.00450788
-0.000208716
0.00457163
-0.000207616
0.00463508
-0.000206674
0.00469828
-0.000205875
0.00476127
-0.000205316
0.00482413
-0.000204929
0.00488688
-0.000204879
0.00494965
-0.000205145
-0.000205788
0.000267291
-0.000109775
0.00030229
-0.000116891
0.000339027
-0.000124061
0.000377496
-0.000131279
0.000417686
-0.00013854
0.000459588
-0.000145836
0.000503188
-0.000153161
0.000548473
-0.000160504
0.000595424
-0.000167856
0.000644024
-0.000175206
0.00069425
-0.000182543
0.000746077
-0.000189852
0.00079948
-0.000197121
0.000854427
-0.000204337
0.000910885
-0.000211484
0.000968818
-0.000218548
0.00102819
-0.000225515
0.00108895
-0.00023237
0.00115105
-0.000239098
0.00121445
-0.000245685
0.00127909
-0.000252124
0.00134486
-0.000258399
0.00141192
-0.000264405
0.00148004
-0.000270242
0.00154918
-0.00027588
0.00161928
-0.000281292
0.00169028
-0.000286468
0.00176212
-0.000291398
0.00183474
-0.000296074
0.00190805
-0.000300486
0.00198201
-0.000304628
0.00205654
-0.000308495
0.00213158
-0.000312081
0.00220705
-0.000315384
0.0022829
-0.000318402
0.00235905
-0.000321133
0.00243545
-0.000323576
0.00251203
-0.000325735
0.00258872
-0.000327612
0.00266547
-0.000329211
0.00274221
-0.000330535
0.00281889
-0.000331591
0.00289546
-0.000332384
0.00297186
-0.000332921
0.00304804
-0.000333212
0.00312395
-0.000333263
0.00319956
-0.000333085
0.00327481
-0.000332687
0.00334966
-0.000332078
0.00342408
-0.00033127
0.00349804
-0.000330272
0.0035715
-0.000329097
0.00364443
-0.000327755
0.00371681
-0.000326258
0.00378862
-0.000324616
0.00385982
-0.000322842
0.00393041
-0.000320946
0.00400037
-0.000318941
0.00406969
-0.000316836
0.00413835
-0.000314644
0.00420634
-0.000312375
0.00427367
-0.000310039
0.00434033
-0.000307648
0.00440631
-0.000305212
0.00447162
-0.000302741
0.00453626
-0.000300244
0.00460023
-0.000297732
0.00466355
-0.000295214
0.00472622
-0.000292699
0.00478825
-0.000290197
0.00484966
-0.000287717
0.00491046
-0.000285269
0.00497067
-0.00028286
0.0050303
-0.000280501
0.00508938
-0.000278201
0.00514792
-0.00027597
0.00520596
-0.000273818
0.00526352
-0.000271756
0.00532062
-0.000269794
0.00537731
-0.000267947
0.0054336
-0.000266226
0.00548954
-0.000264653
0.00554515
-0.000263234
0.00560049
-0.000262013
0.0056556
-0.000260978
0.00571049
-0.000260208
0.00576524
-0.000259685
0.00581984
-0.000259479
0.00587437
-0.00025967
-0.000260451
0.0017983
-0.000144063
0.00183438
-0.000152973
0.00187223
-0.000161908
0.00191181
-0.000170862
0.0019531
-0.000179828
0.00199606
-0.000188799
0.00204066
-0.000197764
0.00208687
-0.000206715
0.00213466
-0.000215638
0.00218397
-0.00022452
0.00223478
-0.000233349
0.00228703
-0.000242109
0.0023407
-0.000250786
0.00239572
-0.000259362
0.00245206
-0.000267822
0.00250966
-0.000276149
0.00256847
-0.000284327
0.00262844
-0.000292338
0.00268951
-0.000300165
0.00275162
-0.000307791
0.00281469
-0.000315202
0.00287868
-0.000322381
0.00294356
-0.000329293
0.00300926
-0.000335943
0.0030757
-0.000342318
0.00314282
-0.000348405
0.00321054
-0.000354191
0.00327881
-0.000359666
0.00334755
-0.000364821
0.00341672
-0.000369649
0.00348623
-0.000374143
0.00355603
-0.000378297
0.00362606
-0.000382109
0.00369625
-0.000385576
0.00376655
-0.000388697
0.00383689
-0.000391473
0.00390722
-0.000393904
0.00397748
-0.000395995
0.00404761
-0.00039775
0.00411758
-0.000399175
0.00418732
-0.000400277
0.00425679
-0.000401062
0.00432595
-0.000401541
0.00439475
-0.000401721
0.00446315
-0.000401615
0.00453112
-0.000401232
0.00459862
-0.000400585
0.00466562
-0.000399686
0.00473209
-0.000398547
0.004798
-0.000397182
0.00486333
-0.000395604
0.00492806
-0.000393826
0.00499217
-0.000391862
0.00505564
-0.000389727
0.00511845
-0.000387434
0.00518061
-0.000384996
0.00524209
-0.000382427
0.00530289
-0.000379742
0.00536301
-0.000376953
0.00542244
-0.000374074
0.00548118
-0.000371117
0.00553924
-0.000368096
0.00559661
-0.000365023
0.00565331
-0.00036191
0.00570934
-0.000358768
0.0057647
-0.000355611
0.00581942
-0.000352448
0.0058735
-0.000349292
0.00592695
-0.000346153
0.0059798
-0.000343043
0.00603205
-0.000339971
0.00608373
-0.000336949
0.00613486
-0.000333987
0.00618545
-0.000331096
0.00623554
-0.000328287
0.00628514
-0.00032557
0.00633428
-0.000322958
0.00638298
-0.000320463
0.00643129
-0.000318097
0.00647922
-0.000315876
0.0065268
-0.000313811
0.00657407
-0.000311925
0.00662107
-0.000310229
0.00666781
-0.000308754
0.00671435
-0.000307515
0.00676068
-0.000306541
0.00680688
-0.000305883
0.00685292
-0.000305521
0.00689882
-0.000305569
-0.000306349
0.00347052
0.00350294
-0.000185399
0.00353729
-0.000196253
0.00357349
-0.000207063
0.00361148
-0.000217825
0.00365122
-0.00022853
0.00369262
-0.00023917
0.00373564
-0.000249733
0.00378021
-0.000260208
0.00382627
-0.00027058
0.00387376
-0.000280836
0.00392261
-0.000290959
0.00397276
-0.000300935
0.00402414
-0.000310747
0.0040767
-0.000320377
0.00413036
-0.000329809
0.00418505
-0.000339024
0.00424072
-0.000348006
0.0042973
-0.000356737
0.0043547
-0.0003652
0.00441288
-0.000373379
0.00447176
-0.000381256
0.00453128
-0.000388813
0.00459137
-0.000396039
0.00465198
-0.000402921
0.00471302
-0.000409449
0.00477444
-0.000415611
0.00483617
-0.000421399
0.00489816
-0.000426804
0.00496033
-0.00043182
0.00502263
-0.000436443
0.005085
-0.000440669
0.00514739
-0.000444496
0.00520973
-0.000447923
0.00527199
-0.000450952
0.0053341
-0.000453585
0.00539602
-0.000455827
0.00545771
-0.000457682
0.00551912
-0.000459158
0.0055802
-0.000460262
0.00564093
-0.000461004
0.00570126
-0.000461393
0.00576116
-0.000461442
0.00582061
-0.000461162
0.00587956
-0.000460566
0.00593799
-0.000459667
0.00599589
-0.00045848
0.00605322
-0.000457019
0.00610997
-0.0004553
0.00616613
-0.000453337
0.00622167
-0.000451148
0.00627659
-0.000448746
0.00633088
-0.000446149
0.00638452
-0.000443372
0.00643752
-0.000440431
0.00648987
-0.000437342
0.00654156
-0.000434121
0.0065926
-0.000430783
0.00664299
-0.000427343
0.00669273
-0.000423816
0.00674183
-0.000420217
0.0067903
-0.00041656
0.00683813
-0.000412859
0.00688535
-0.000409127
0.00693196
-0.000405379
0.00697798
-0.000401627
0.00702341
-0.000397884
0.00706828
-0.000394162
0.0071126
-0.000390474
0.00715639
-0.000386831
0.00719966
-0.000383245
0.00724244
-0.000379728
0.00728475
-0.000376292
0.0073266
-0.000372948
0.00736802
-0.000369709
0.00740904
-0.000366586
0.00744967
-0.000363592
0.00748995
-0.000360739
0.0075299
-0.000358042
0.00756954
-0.000355515
0.0076089
-0.000353174
0.00764801
-0.000351035
0.0076869
-0.000349119
0.00772558
-0.000347437
0.0077641
-0.000346033
0.00780245
-0.000344889
0.00784067
-0.000344105
0.00787876
-0.000343615
0.0079167
-0.000343504
-0.000344187
0.00519918
0.00522497
-0.00022204
0.00525283
-0.000234925
0.00528267
-0.000247664
0.00531439
-0.000260251
0.0053479
-0.00027268
0.00538311
-0.000284941
0.00541992
-0.000297022
0.00545825
-0.000308913
0.00549802
-0.0003206
0.00553913
-0.000332069
0.0055815
-0.000343306
0.00562505
-0.000354295
0.00566969
-0.000365021
0.00571535
-0.000375468
0.00576195
-0.00038562
0.0058094
-0.000395461
0.00585764
-0.000404974
0.00590658
-0.000414145
0.00595616
-0.000422958
0.0060063
-0.000431399
0.00605694
-0.000439454
0.00610801
-0.000447109
0.00615945
-0.000454356
0.00621118
-0.000461184
0.00626315
-0.000467584
0.0063153
-0.000473549
0.00636757
-0.000479074
0.00641991
-0.000484156
0.00647226
-0.000488791
0.00652457
-0.000492979
0.00657679
-0.00049672
0.00662889
-0.000500017
0.00668081
-0.000502872
0.00673251
-0.000505292
0.00678397
-0.000507282
0.00683514
-0.00050885
0.00688598
-0.000510006
0.00693648
-0.000510759
0.0069866
-0.000511122
0.00703631
-0.000511108
0.0070856
-0.000510729
0.00713444
-0.00051
0.00718281
-0.000508936
0.00723069
-0.000507553
0.00727808
-0.000505866
0.00732496
-0.000503894
0.00737131
-0.000501652
0.00741713
-0.000499159
0.00746241
-0.000496431
0.00750715
-0.000493486
0.00755135
-0.000490343
0.00759499
-0.000487017
0.00763809
-0.000483527
0.00768064
-0.000479891
0.00772264
-0.000476124
0.0077641
-0.000472245
0.00780503
-0.000468268
0.00784542
-0.000464212
0.0078853
-0.00046009
0.00792466
-0.00045592
0.00796351
-0.000451715
0.00800188
-0.000447491
0.00803976
-0.000443262
0.00807717
-0.000439041
0.00811413
-0.000434843
0.00815065
-0.000430681
0.00818674
-0.000426568
0.00822243
-0.000422516
0.00825772
-0.000418538
0.00829264
-0.000414647
0.0083272
-0.000410855
0.00836143
-0.000407173
0.00839534
-0.000403616
0.00842895
-0.000400195
0.00846228
-0.000396924
0.00849535
-0.000393815
0.00852819
-0.000390883
0.00856082
-0.00038814
0.00859325
-0.000385607
0.00862551
-0.000383291
0.00865761
-0.000381225
0.00868958
-0.0003794
0.00872143
-0.000377882
0.00875316
-0.000376623
0.00878479
-0.000375737
0.00881634
-0.000375161
0.00884776
-0.00037492
-0.000375468
0.00680824
-0.000235328
0.00682385
-0.000250532
0.00684164
-0.000265457
0.00686149
-0.000280103
0.00688328
-0.000294467
0.00690688
-0.000308544
0.00693219
-0.000322327
0.00695908
-0.000335808
0.00698746
-0.000348977
0.00701722
-0.000361825
0.00704825
-0.00037434
0.00708047
-0.00038651
0.00711377
-0.000398323
0.00714807
-0.000409767
0.00718328
-0.000420829
0.00721931
-0.000431495
0.00725609
-0.000441755
0.00729354
-0.000451594
0.00733158
-0.000461002
0.00737015
-0.000469967
0.00740918
-0.000478479
0.0074486
-0.000486529
0.00748835
-0.000494108
0.00752838
-0.000501211
0.00756862
-0.000507831
0.00760904
-0.000513964
0.00764957
-0.000519607
0.00769018
-0.000524761
0.00773081
-0.000529424
0.00777143
-0.000533599
0.007812
-0.000537289
0.00785248
-0.000540499
0.00789284
-0.000543234
0.00793305
-0.000545503
0.00797309
-0.000547314
0.00801291
-0.000548677
0.00805251
-0.000549603
0.00809186
-0.000550106
0.00813093
-0.0005502
0.00816972
-0.000549897
0.00820821
-0.000549215
0.00824638
-0.00054817
0.00828422
-0.000546777
0.00832172
-0.000545054
0.00835888
-0.00054302
0.00839568
-0.000540692
0.00843211
-0.000538089
0.00846818
-0.00053523
0.00850388
-0.000532132
0.00853921
-0.000528816
0.00857417
-0.0005253
0.00860876
-0.000521602
0.00864297
-0.000517741
0.00867681
-0.000513735
0.00871029
-0.000509602
0.00874341
-0.00050536
0.00877616
-0.000501027
0.00880857
-0.000496618
0.00884063
-0.000492152
0.00887236
-0.000487643
0.00890375
-0.000483108
0.00893482
-0.000478562
0.00896558
-0.00047402
0.00899604
-0.000469498
0.0090262
-0.000465007
0.00905608
-0.000460564
0.0090857
-0.000456181
0.00911505
-0.000451872
0.00914416
-0.00044765
0.00917304
-0.000443527
0.00920171
-0.000439517
0.00923017
-0.000435632
0.00925843
-0.000431885
0.00928653
-0.000428289
0.00931446
-0.000424858
0.00934225
-0.000421602
0.00936991
-0.00041854
0.00939745
-0.000415679
0.00942488
-0.000413045
0.00945223
-0.000410635
0.00947949
-0.000408493
0.00950669
-0.000406595
0.00953382
-0.000405016
0.0095609
-0.0004037
0.00958791
-0.00040275
0.00961488
-0.00040213
0.00964177
-0.000401809
-0.000402245
0.00813862
0.00814129
-0.000253196
0.0081462
-0.000270367
0.00815321
-0.000287118
0.0081622
-0.000303452
0.00817302
-0.000319372
0.00818557
-0.000334876
0.00819973
-0.000349962
0.00821538
-0.000364626
0.00823241
-0.000378863
0.00825074
-0.000392667
0.00827026
-0.000406031
0.00829089
-0.000418948
0.00831253
-0.000431408
0.0083351
-0.000443403
0.00835853
-0.000454926
0.00838275
-0.000465967
0.00840767
-0.000476517
0.00843324
-0.00048657
0.00845939
-0.000496118
0.00848606
-0.000505154
0.00851321
-0.000513673
0.00854077
-0.000521669
0.0085687
-0.00052914
0.00859695
-0.000536082
0.00862548
-0.000542496
0.00865426
-0.000548382
0.00868323
-0.00055374
0.00871238
-0.000558573
0.00874167
-0.000562886
0.00877107
-0.000566684
0.00880054
-0.000569973
0.00883007
-0.000572763
0.00885963
-0.000575063
0.0088892
-0.000576882
0.00891875
-0.000578233
0.00894828
-0.00057913
0.00897776
-0.000579587
0.00900718
-0.000579618
0.00903652
-0.000579241
0.00906578
-0.000578472
0.00909494
-0.000577327
0.00912399
-0.000575826
0.00915292
-0.000573986
0.00918173
-0.000571826
0.0092104
-0.000569366
0.00923893
-0.000566625
0.00926733
-0.000563622
0.00929557
-0.000560377
0.00932366
-0.000556909
0.0093516
-0.000553239
0.00937939
-0.000549385
0.00940701
-0.000545366
0.00943448
-0.000541202
0.00946179
-0.000536911
0.00948894
-0.000532512
0.00951594
-0.000528022
0.00954278
-0.000523458
0.00956946
-0.000518839
0.009596
-0.000514181
0.00962239
-0.000509499
0.00964864
-0.000504811
0.00967475
-0.000500131
0.00970073
-0.000495475
0.00972658
-0.000490857
0.00975231
-0.000486291
0.00977792
-0.000481792
0.00980342
-0.000477374
0.00982882
-0.000473049
0.00985412
-0.000468832
0.00987934
-0.000464735
0.00990448
-0.00046077
0.00992955
-0.000456953
0.00995455
-0.000453293
0.0099795
-0.000449807
0.0100044
-0.000446505
0.0100293
-0.000443404
0.0100541
-0.000440511
0.0100789
-0.000437853
0.0101037
-0.000435423
0.0101285
-0.000433266
0.0101532
-0.000431356
0.010178
-0.000429762
0.0102027
-0.000428435
0.0102274
-0.000427454
0.0102521
-0.000426807
0.0102767
-0.000426433
-0.000426829
0.00908046
-0.00024471
0.00907413
-0.000264035
0.00906983
-0.000282823
0.00906746
-0.000301081
0.0090669
-0.000318815
0.00906805
-0.000336028
0.00907081
-0.000352722
0.00907509
-0.000368899
0.00908078
-0.000384557
0.00908781
-0.000399694
0.00909608
-0.000414308
0.00910553
-0.000428396
0.00911608
-0.000441952
0.00912765
-0.000454974
0.00914018
-0.000467455
0.0091536
-0.000479391
0.00916786
-0.000490778
0.0091829
-0.000501611
0.00919867
-0.000511886
0.00921512
-0.000521601
0.00923219
-0.000530751
0.00924986
-0.000539336
0.00926808
-0.000547355
0.0092868
-0.000554808
0.009306
-0.000561697
0.00932564
-0.000568023
0.0093457
-0.000573791
0.00936613
-0.000579005
0.00938691
-0.000583672
0.00940803
-0.000587799
0.00942945
-0.000591394
0.00945115
-0.000594467
0.00947312
-0.000597029
0.00949533
-0.000599093
0.00951777
-0.000600672
0.00954042
-0.000601779
0.00956326
-0.000602429
0.00958628
-0.000602639
0.00960946
-0.000602426
0.0096328
-0.000601806
0.00965627
-0.000600798
0.00967986
-0.000599421
0.00970357
-0.000597693
0.00972738
-0.000595635
0.00975128
-0.000593266
0.00977526
-0.000590606
0.00979931
-0.000587675
0.00982343
-0.000584494
0.0098476
-0.000581082
0.00987183
-0.00057746
0.00989609
-0.000573648
0.00992039
-0.000569665
0.00994472
-0.000565531
0.00996907
-0.000561265
0.00999344
-0.000556886
0.0100178
-0.000552412
0.0100422
-0.000547862
0.0100667
-0.000543252
0.0100911
-0.000538601
0.0101155
-0.000533926
0.0101399
-0.000529241
0.0101644
-0.000524565
0.0101888
-0.000519911
0.0102132
-0.000515296
0.0102377
-0.000510734
0.0102621
-0.000506239
0.0102866
-0.000501826
0.010311
-0.000497508
0.0103355
-0.0004933
0.01036
-0.000489214
0.0103845
-0.000485263
0.010409
-0.000481461
0.0104335
-0.00047782
0.0104581
-0.000474356
0.0104826
-0.000471077
0.0105072
-0.000468002
0.0105319
-0.000465135
0.0105565
-0.000462504
0.0105812
-0.000460102
0.0106059
-0.000457968
0.0106306
-0.000456085
0.0106554
-0.000454501
0.0106801
-0.000453193
0.0107049
-0.000452199
0.0107296
-0.000451556
0.0107543
-0.000451139
-0.000451333
0.0147539
-0.000215188
0.0147258
-0.000235867
0.0146989
-0.000255934
0.0146732
-0.000275394
0.0146486
-0.000294254
0.0146251
-0.000312518
0.0146026
-0.00033019
0.014581
-0.000347273
0.0145602
-0.000363767
0.0145401
-0.000379674
0.0145208
-0.000394993
0.0145022
-0.000409725
0.0144841
-0.000423868
0.0144665
-0.000437421
0.0144494
-0.000450383
0.0144328
-0.000462754
0.0144166
-0.000474531
0.0144007
-0.000485716
0.0143851
-0.000496307
0.0143698
-0.000506305
0.0143548
-0.000515711
0.0143399
-0.000524526
0.0143253
-0.000532754
0.0143109
-0.000540398
0.0142967
-0.000547462
0.0142826
-0.000553952
0.0142687
-0.000559874
0.0142549
-0.000565236
0.0142413
-0.000570045
0.0142278
-0.000574312
0.0142145
-0.000578047
0.0142013
-0.000581261
0.0141882
-0.000583967
0.0141753
-0.000586178
0.0141625
-0.000587908
0.0141499
-0.000589173
0.0141375
-0.000589989
0.0141252
-0.000590371
0.0141131
-0.000590338
0.0141012
-0.000589906
0.0140895
-0.000589094
0.014078
-0.00058792
0.0140667
-0.000586404
0.0140557
-0.000584566
0.0140448
-0.000582423
0.0140342
-0.000579997
0.0140239
-0.000577307
0.0140137
-0.000574372
0.0140039
-0.000571213
0.0139942
-0.000567848
0.0139849
-0.000564297
0.0139758
-0.00056058
0.013967
-0.000556715
0.0139584
-0.00055272
0.0139502
-0.000548614
0.0139422
-0.000544416
0.0139345
-0.000540142
0.013927
-0.000535809
0.0139199
-0.000531435
0.013913
-0.000527036
0.0139063
-0.000522627
0.0139
-0.000518225
0.0138939
-0.000513843
0.0138881
-0.000509499
0.0138826
-0.000505204
0.0138773
-0.000500975
0.0138723
-0.000496823
0.0138676
-0.000492764
0.0138631
-0.000488809
0.0138589
-0.000484972
0.0138549
-0.000481265
0.0138511
-0.000477702
0.0138476
-0.000474294
0.0138443
-0.000471054
0.0138412
-0.000467993
0.0138383
-0.000465125
0.0138356
-0.000462458
0.0138332
-0.000460011
0.0138308
-0.000457785
0.0138287
-0.000455805
0.0138267
-0.000454068
0.0138248
-0.000452596
0.013823
-0.000451398
0.0138212
-0.00045046
0.0138195
-0.000449869
0.0138178
-0.00044944
-0.000449571
0.0157616
-0.000183617
0.0157304
-0.000204684
0.0156996
-0.000225131
0.0156692
-0.000244961
0.0156391
-0.000264179
0.0156094
-0.000282788
0.01558
-0.000300789
0.0155509
-0.000318184
0.0155221
-0.000334974
0.0154936
-0.000351161
0.0154653
-0.000366744
0.0154373
-0.000381724
0.0154096
-0.0003961
0.015382
-0.000409873
0.0153547
-0.000423044
0.0153275
-0.000435612
0.0153006
-0.000447579
0.0152738
-0.000458945
0.0152472
-0.000469713
0.0152208
-0.000479883
0.0151945
-0.00048946
0.0151685
-0.000498447
0.0151426
-0.000506847
0.0151168
-0.000514666
0.0150913
-0.00052191
0.0150659
-0.000528585
0.0150407
-0.0005347
0.0150158
-0.000540262
0.014991
-0.000545282
0.0149664
-0.000549769
0.0149421
-0.000553734
0.0149181
-0.000557191
0.0148942
-0.00056015
0.0148707
-0.000562627
0.0148474
-0.000564635
0.0148244
-0.000566191
0.0148018
-0.000567308
0.0147794
-0.000568004
0.0147574
-0.000568296
0.0147356
-0.0005682
0.0147143
-0.000567735
0.0146933
-0.000566919
0.0146727
-0.00056577
0.0146524
-0.000564306
0.0146325
-0.000562546
0.014613
-0.00056051
0.0145939
-0.000558215
0.0145752
-0.000555682
0.014557
-0.000552928
0.0145391
-0.000549972
0.0145216
-0.000546833
0.0145046
-0.00054353
0.0144879
-0.00054008
0.0144717
-0.0005365
0.0144559
-0.000532809
0.0144405
-0.000529024
0.0144255
-0.000525161
0.014411
-0.000521238
0.0143968
-0.000517269
0.014383
-0.000513271
0.0143697
-0.00050926
0.0143567
-0.000505249
0.0143441
-0.000501254
0.0143319
-0.000497289
0.0143201
-0.000493368
0.0143086
-0.000489504
0.0142975
-0.000485711
0.0142867
-0.000482002
0.0142763
-0.000478388
0.0142662
-0.000474883
0.0142564
-0.000471499
0.014247
-0.000468247
0.0142378
-0.000465139
0.014229
-0.000462187
0.0142204
-0.000459401
0.014212
-0.000456794
0.014204
-0.000454375
0.0141961
-0.000452156
0.0141885
-0.000450144
0.014181
-0.000448353
0.0141737
-0.000446792
0.0141666
-0.000445463
0.0141596
-0.000444395
0.0141527
-0.000443544
0.0141458
-0.000443024
0.014139
-0.000442635
-0.0004428
0.0162118
-0.000156473
0.0161844
-0.000177225
0.0161566
-0.000197379
0.0161286
-0.000216938
0.0161003
-0.000235904
0.0160718
-0.000254279
0.0160431
-0.000272063
0.0160141
-0.000289257
0.015985
-0.000305862
0.0159557
-0.000321877
0.0159263
-0.000337303
0.0158967
-0.000352141
0.015867
-0.000366389
0.0158372
-0.000380049
0.0158073
-0.000393121
0.0157773
-0.000405606
0.0157472
-0.000417506
0.0157171
-0.000428822
0.0156869
-0.000439555
0.0156567
-0.00044971
0.0156266
-0.00045929
0.0155964
-0.000468298
0.0155663
-0.000476739
0.0155363
-0.000484619
0.0155063
-0.000491944
0.0154764
-0.000498721
0.0154467
-0.000504958
0.0154171
-0.000510663
0.0153876
-0.000515847
0.0153584
-0.000520519
0.0153294
-0.00052469
0.0153005
-0.000528372
0.015272
-0.000531578
0.0152437
-0.000534321
0.0152156
-0.000536614
0.0151879
-0.000538472
0.0151605
-0.00053991
0.0151335
-0.000540944
0.0151068
-0.000541589
0.0150804
-0.000541862
0.0150545
-0.00054178
0.0150289
-0.000541359
0.0150037
-0.000540617
0.014979
-0.000539571
0.0149547
-0.00053824
0.0149308
-0.00053664
0.0149074
-0.000534789
0.0148844
-0.000532706
0.0148619
-0.000530407
0.0148399
-0.000527911
0.0148183
-0.000525235
0.0147971
-0.000522396
0.0147765
-0.000519411
0.0147563
-0.000516297
0.0147365
-0.000513071
0.0147172
-0.000509749
0.0146984
-0.000506346
0.0146801
-0.000502878
0.0146622
-0.000499362
0.0146447
-0.000495811
0.0146277
-0.00049224
0.0146111
-0.000488664
0.0145949
-0.000485096
0.0145792
-0.000481551
0.0145639
-0.000478041
0.0145489
-0.000474579
0.0145344
-0.000471178
0.0145203
-0.00046785
0.0145065
-0.000464608
0.0144931
-0.000461463
0.01448
-0.000458426
0.0144672
-0.000455508
0.0144548
-0.000452721
0.0144427
-0.000450076
0.0144309
-0.000447582
0.0144193
-0.000445249
0.0144081
-0.000443088
0.014397
-0.000441108
0.0143862
-0.000439318
0.0143756
-0.000437724
0.0143651
-0.000436343
0.0143548
-0.000435163
0.0143446
-0.000434229
0.0143346
-0.000433476
0.0143246
-0.000433041
0.0143147
-0.000432702
-0.000432837
0.0163526
-0.000134124
0.0163296
-0.000154206
0.0163059
-0.000173724
0.0162817
-0.000192678
0.0162568
-0.00021107
0.0162314
-0.000228899
0.0162055
-0.000246166
0.0161792
-0.000262871
0.0161523
-0.000279014
0.016125
-0.000294595
0.0160973
-0.000309613
0.0160693
-0.00032407
0.0160408
-0.000337964
0.0160121
-0.000351298
0.015983
-0.000364071
0.0159537
-0.000376284
0.0159242
-0.000387939
0.0158944
-0.000399038
0.0158644
-0.000409583
0.0158343
-0.000419577
0.015804
-0.000429024
0.0157736
-0.000437928
0.0157432
-0.000446294
0.0157127
-0.000454127
0.0156822
-0.000461433
0.0156517
-0.000468219
0.0156212
-0.000474493
0.0155908
-0.000480263
0.0155605
-0.000485539
0.0155303
-0.000490329
0.0155003
-0.000494645
0.0154704
-0.000498497
0.0154407
-0.000501897
0.0154113
-0.000504858
0.015382
-0.000507393
0.0153531
-0.000509514
0.0153244
-0.000511236
0.015296
-0.000512573
0.015268
-0.000513541
0.0152403
-0.000514154
0.0152129
-0.000514428
0.0151859
-0.000514378
0.0151593
-0.000514022
0.0151332
-0.000513374
0.0151074
-0.000512452
0.015082
-0.000511271
0.0150571
-0.000509849
0.0150325
-0.000508201
0.0150085
-0.000506345
0.0149849
-0.000504296
0.0149617
-0.000502071
0.014939
-0.000499686
0.0149167
-0.000497157
0.0148949
-0.0004945
0.0148736
-0.00049173
0.0148527
-0.000488862
0.0148323
-0.000485912
0.0148123
-0.000482894
0.0147928
-0.000479823
0.0147737
-0.000476712
0.014755
-0.000473576
0.0147368
-0.000470429
0.0147189
-0.000467282
0.0147015
-0.00046415
0.0146846
-0.000461044
0.014668
-0.000457978
0.0146517
-0.000454962
0.0146359
-0.000452009
0.0146204
-0.000449131
0.0146053
-0.000446337
0.0145905
-0.000443639
0.014576
-0.000441047
0.0145619
-0.000438572
0.014548
-0.000436223
0.0145345
-0.000434009
0.0145212
-0.000431941
0.0145081
-0.000430027
0.0144953
-0.000428273
0.0144826
-0.000426694
0.0144702
-0.000425286
0.0144579
-0.000424073
0.0144458
-0.000423034
0.0144338
-0.000422222
0.0144219
-0.000421563
0.01441
-0.000421195
0.0143982
-0.000420896
-0.000421048
0.0163524
-0.000115322
0.0163328
-0.000134607
0.0163125
-0.00015336
0.0162914
-0.00017158