/*--------------------------------*- C++ -*----------------------------------*\
  =========                 |
  \\      /  F ield         | OpenFOAM: The Open Source CFD Toolbox
   \\    /   O peration     | Website:  https://openfoam.org
    \\  /    A nd           | Version:  7
     \\/     M anipulation  |
\*---------------------------------------------------------------------------*/
FoamFile
{
    version     2.0;
    format      ascii;
    class       volScalarField;
    location    "45";
    object      p;
}
// * * * * * * * * * * * * * * * * * * * * * * * * * * * * * * * * * * * * * //

dimensions      [0 2 -2 0 0 0 0];

internalField   nonuniform List<scalar> 
6000
(
-0.243571
-0.245647
-0.246509
-0.247307
-0.24797
-0.248557
-0.24911
-0.249644
-0.250164
-0.250668
-0.251147
-0.251594
-0.251998
-0.252348
-0.252634
-0.252846
-0.252975
-0.253014
-0.252957
-0.252806
-0.243687
-0.245748
-0.246603
-0.247396
-0.248054
-0.248638
-0.249188
-0.249719
-0.250237
-0.250739
-0.251218
-0.251664
-0.252067
-0.252417
-0.252702
-0.252914
-0.253042
-0.253079
-0.25302
-0.252865
-0.243919
-0.245948
-0.246791
-0.247573
-0.248222
-0.248798
-0.249342
-0.249869
-0.250382
-0.25088
-0.251356
-0.2518
-0.252202
-0.25255
-0.252835
-0.253046
-0.253172
-0.253206
-0.253143
-0.252979
-0.244263
-0.246245
-0.24707
-0.247835
-0.24847
-0.249036
-0.24957
-0.250089
-0.250596
-0.251089
-0.25156
-0.252
-0.252399
-0.252746
-0.253029
-0.253238
-0.253362
-0.253392
-0.253321
-0.253145
-0.252865
-0.244714
-0.246635
-0.247436
-0.248179
-0.248797
-0.249347
-0.249869
-0.250376
-0.250874
-0.251359
-0.251824
-0.25226
-0.252655
-0.252999
-0.25328
-0.253487
-0.253608
-0.253632
-0.253551
-0.253358
-0.253053
-0.245268
-0.247115
-0.247886
-0.248602
-0.249197
-0.249728
-0.250233
-0.250726
-0.251212
-0.251687
-0.252143
-0.252572
-0.252962
-0.253302
-0.25358
-0.253784
-0.253901
-0.253918
-0.253826
-0.253614
-0.253279
-0.245918
-0.247679
-0.248415
-0.249098
-0.249665
-0.250173
-0.250658
-0.251133
-0.251603
-0.252065
-0.25251
-0.25293
-0.253313
-0.253648
-0.253921
-0.254121
-0.254233
-0.254243
-0.254138
-0.253905
-0.253535
-0.246657
-0.248322
-0.249018
-0.249662
-0.250197
-0.250676
-0.251136
-0.25159
-0.25204
-0.252486
-0.252917
-0.253325
-0.253699
-0.254026
-0.254293
-0.254487
-0.254593
-0.254595
-0.254477
-0.254222
-0.253815
-0.247477
-0.249037
-0.249687
-0.250288
-0.250786
-0.251232
-0.251662
-0.252088
-0.252516
-0.25294
-0.253354
-0.253747
-0.254109
-0.254425
-0.254685
-0.254872
-0.254971
-0.254964
-0.254832
-0.254554
-0.254111
-0.248369
-0.249817
-0.250418
-0.25097
-0.251425
-0.251832
-0.252227
-0.252622
-0.253021
-0.25342
-0.253812
-0.254187
-0.254532
-0.254836
-0.255084
-0.255263
-0.255353
-0.255336
-0.25519
-0.254889
-0.25441
-0.249326
-0.250657
-0.251204
-0.251702
-0.252108
-0.252471
-0.252825
-0.253182
-0.253547
-0.253916
-0.254281
-0.254632
-0.254958
-0.255245
-0.255479
-0.255645
-0.255725
-0.255697
-0.255536
-0.255213
-0.254701
-0.250339
-0.25155
-0.252039
-0.252478
-0.252829
-0.253142
-0.253447
-0.253761
-0.254085
-0.254418
-0.254751
-0.255073
-0.255374
-0.25564
-0.255856
-0.256007
-0.256072
-0.256031
-0.255854
-0.255509
-0.254963
-0.254161
-0.2514
-0.25249
-0.252917
-0.253292
-0.253582
-0.253837
-0.254088
-0.25435
-0.254627
-0.254917
-0.255211
-0.2555
-0.25577
-0.256009
-0.256203
-0.256333
-0.256381
-0.256322
-0.256126
-0.255759
-0.255179
-0.254329
-0.252502
-0.25347
-0.253833
-0.254138
-0.254361
-0.25455
-0.254739
-0.254942
-0.255165
-0.255404
-0.255653
-0.255901
-0.256135
-0.256342
-0.256507
-0.256612
-0.256636
-0.256555
-0.256337
-0.255945
-0.255329
-0.254442
-0.25364
-0.254488
-0.254782
-0.255012
-0.255161
-0.255277
-0.255395
-0.255531
-0.255691
-0.255872
-0.256068
-0.256268
-0.256459
-0.256627
-0.256757
-0.256831
-0.256826
-0.256717
-0.256471
-0.256049
-0.255391
-0.254479
-0.254807
-0.255539
-0.255761
-0.255911
-0.255978
-0.256013
-0.256051
-0.25611
-0.256199
-0.256314
-0.256449
-0.256593
-0.256734
-0.256857
-0.256946
-0.256981
-0.256941
-0.256797
-0.256515
-0.256056
-0.255343
-0.254421
-0.252653
-0.256002
-0.256621
-0.256767
-0.256831
-0.256808
-0.256753
-0.256702
-0.256677
-0.256684
-0.256724
-0.25679
-0.256871
-0.256955
-0.257025
-0.257065
-0.257056
-0.256972
-0.256786
-0.256459
-0.255956
-0.25517
-0.254252
-0.252196
-0.25722
-0.257732
-0.2578
-0.25777
-0.257651
-0.257496
-0.257347
-0.257226
-0.257143
-0.257099
-0.257088
-0.257098
-0.257117
-0.257128
-0.257112
-0.25705
-0.256916
-0.256679
-0.256297
-0.255742
-0.25486
-0.253958
-0.251553
-0.258464
-0.258872
-0.258858
-0.25873
-0.258504
-0.258241
-0.257984
-0.257758
-0.257575
-0.257438
-0.257341
-0.257273
-0.257219
-0.257163
-0.257086
-0.256964
-0.256771
-0.256473
-0.256025
-0.25541
-0.254407
-0.253527
-0.250727
-0.251542
-0.259734
-0.260044
-0.259943
-0.259709
-0.25937
-0.258988
-0.258612
-0.258271
-0.25798
-0.257741
-0.25755
-0.257395
-0.257262
-0.257133
-0.256986
-0.256798
-0.256537
-0.256171
-0.255643
-0.254956
-0.25381
-0.252942
-0.249741
-0.2509
-0.261035
-0.261251
-0.261058
-0.260712
-0.260249
-0.259739
-0.259235
-0.25877
-0.25836
-0.258011
-0.257718
-0.25747
-0.257251
-0.257041
-0.256819
-0.256555
-0.256218
-0.255771
-0.255149
-0.254375
-0.253069
-0.252179
-0.24862
-0.249946
-0.262372
-0.262497
-0.262207
-0.261741
-0.261145
-0.260497
-0.259855
-0.259256
-0.25872
-0.258253
-0.257851
-0.257503
-0.257191
-0.256895
-0.256588
-0.256241
-0.255817
-0.255276
-0.254543
-0.25366
-0.252182
-0.251211
-0.247384
-0.248635
-0.237251
-0.263753
-0.263789
-0.263397
-0.262801
-0.262064
-0.261269
-0.260479
-0.259737
-0.259066
-0.258473
-0.257956
-0.257501
-0.257091
-0.256701
-0.256303
-0.255862
-0.255336
-0.254683
-0.25382
-0.252798
-0.251142
-0.25001
-0.246033
-0.246951
-0.236115
-0.26519
-0.265136
-0.264632
-0.263901
-0.263012
-0.262059
-0.261113
-0.26022
-0.259407
-0.258682
-0.258043
-0.257475
-0.25696
-0.256469
-0.255969
-0.255421
-0.254777
-0.25399
-0.252972
-0.251772
-0.249933
-0.248554
-0.244539
-0.244911
-0.234942
-0.266694
-0.266546
-0.265923
-0.265047
-0.263997
-0.262878
-0.261767
-0.260715
-0.259753
-0.25889
-0.258123
-0.257437
-0.256809
-0.256207
-0.255593
-0.254921
-0.254136
-0.253187
-0.251984
-0.250564
-0.248532
-0.246828
-0.242856
-0.242557
-0.233623
-0.268278
-0.268027
-0.267283
-0.266249
-0.265028
-0.263733
-0.26245
-0.261233
-0.260115
-0.259109
-0.258209
-0.257398
-0.256649
-0.255925
-0.25518
-0.254361
-0.253408
-0.252261
-0.250838
-0.249152
-0.246908
-0.244825
-0.240935
-0.23993
-0.232062
-0.269959
-0.269595
-0.268719
-0.267517
-0.266116
-0.264638
-0.263174
-0.261786
-0.260508
-0.259352
-0.258313
-0.25737
-0.256489
-0.255627
-0.254729
-0.253736
-0.25258
-0.251195
-0.249511
-0.247517
-0.245032
-0.242535
-0.238728
-0.237048
-0.230177
-0.271753
-0.271264
-0.270243
-0.268862
-0.267272
-0.265602
-0.263952
-0.262387
-0.260944
-0.259634
-0.25845
-0.257364
-0.256337
-0.255316
-0.254239
-0.253037
-0.251637
-0.249971
-0.247982
-0.245643
-0.242881
-0.239954
-0.2362
-0.233865
-0.227881
-0.273678
-0.273045
-0.271869
-0.270298
-0.268508
-0.266639
-0.264797
-0.26305
-0.261437
-0.259968
-0.258629
-0.257388
-0.256197
-0.254992
-0.253702
-0.252249
-0.250561
-0.24857
-0.246233
-0.243521
-0.240447
-0.237092
-0.233326
-0.230264
-0.225119
-0.275756
-0.274952
-0.273609
-0.271837
-0.269838
-0.267763
-0.265723
-0.26379
-0.262002
-0.260366
-0.258862
-0.25745
-0.256069
-0.254648
-0.253104
-0.251357
-0.249335
-0.246976
-0.244257
-0.241155
-0.237739
-0.233988
-0.230116
-0.226214
-0.221957
-0.277996
-0.277006
-0.275479
-0.273493
-0.271275
-0.268987
-0.266743
-0.26462
-0.262651
-0.260839
-0.259156
-0.25755
-0.255951
-0.254274
-0.252433
-0.250344
-0.247941
-0.245178
-0.242052
-0.238555
-0.234785
-0.230692
-0.226622
-0.222088
-0.218423
-0.280423
-0.279218
-0.277492
-0.275278
-0.272833
-0.270325
-0.267873
-0.265553
-0.263396
-0.261396
-0.259515
-0.257688
-0.255833
-0.253858
-0.25167
-0.249191
-0.246369
-0.243175
-0.239627
-0.235739
-0.231621
-0.227232
-0.222885
-0.218139
-0.214126
-0.283054
-0.281602
-0.279662
-0.277208
-0.274526
-0.271791
-0.269125
-0.266602
-0.264247
-0.262043
-0.259939
-0.257858
-0.255705
-0.253381
-0.250797
-0.247885
-0.244611
-0.24097
-0.237
-0.232733
-0.228288
-0.22363
-0.219047
-0.214119
-0.209806
-0.285908
-0.284175
-0.282004
-0.279297
-0.276367
-0.273398
-0.270513
-0.267779
-0.265212
-0.262783
-0.260427
-0.25805
-0.25555
-0.252827
-0.249799
-0.246416
-0.242668
-0.238573
-0.23419
-0.229566
-0.22482
-0.219924
-0.215136
-0.210073
-0.2056
-0.289
-0.28695
-0.284532
-0.281557
-0.27837
-0.275161
-0.272048
-0.269093
-0.266297
-0.263617
-0.260969
-0.25825
-0.255351
-0.252176
-0.248661
-0.244779
-0.240544
-0.236
-0.23122
-0.226264
-0.221245
-0.21614
-0.211179
-0.206012
-0.201424
-0.292347
-0.289941
-0.287259
-0.284003
-0.28055
-0.277092
-0.273743
-0.270552
-0.267504
-0.264539
-0.261555
-0.258441
-0.255087
-0.251412
-0.247373
-0.242971
-0.238248
-0.233267
-0.228113
-0.222851
-0.217586
-0.212295
-0.207188
-0.20193
-0.197275
-0.295963
-0.293162
-0.290199
-0.286648
-0.282919
-0.279204
-0.275607
-0.27216
-0.268832
-0.26554
-0.262169
-0.258602
-0.254739
-0.250518
-0.245927
-0.240997
-0.235791
-0.230392
-0.224888
-0.219346
-0.213857
-0.208401
-0.203163
-0.197827
-0.193114
-0.299861
-0.296625
-0.293365
-0.289505
-0.28549
-0.281508
-0.277647
-0.273922
-0.270276
-0.266607
-0.262791
-0.258711
-0.254286
-0.249483
-0.244322
-0.238861
-0.233187
-0.227391
-0.221562
-0.215761
-0.210069
-0.204461
-0.199105
-0.193695
-0.188928
-0.304053
-0.300341
-0.296769
-0.292587
-0.288276
-0.284014
-0.27987
-0.275834
-0.271826
-0.267723
-0.263398
-0.258746
-0.253712
-0.248298
-0.242556
-0.236573
-0.230448
-0.224277
-0.218145
-0.212106
-0.206225
-0.200477
-0.195008
-0.189528
-0.184705
-0.308548
-0.304321
-0.300422
-0.295906
-0.291287
-0.28673
-0.282278
-0.277891
-0.273466
-0.268866
-0.263966
-0.258684
-0.253
-0.246954
-0.240631
-0.234138
-0.227584
-0.221061
-0.214646
-0.208384
-0.202326
-0.196446
-0.190868
-0.185318
-0.180436
-0.313354
-0.308573
-0.304334
-0.299472
-0.294533
-0.289661
-0.284868
-0.280083
-0.275178
-0.27001
-0.264469
-0.258504
-0.252137
-0.245449
-0.238551
-0.231566
-0.224602
-0.217748
-0.211067
-0.204596
-0.19837
-0.192362
-0.186678
-0.181058
-0.176113
-0.318477
-0.313105
-0.308514
-0.303295
-0.298021
-0.29281
-0.287634
-0.282393
-0.276937
-0.271127
-0.264878
-0.258184
-0.251112
-0.243778
-0.236318
-0.228859
-0.221508
-0.21434
-0.207408
-0.200738
-0.194351
-0.188221
-0.182431
-0.176743
-0.171731
-0.323918
-0.317921
-0.312969
-0.307381
-0.301755
-0.296172
-0.290565
-0.284798
-0.278713
-0.272184
-0.265167
-0.257706
-0.249915
-0.241941
-0.233934
-0.226022
-0.218302
-0.210838
-0.203668
-0.196806
-0.190264
-0.184014
-0.17812
-0.172365
-0.167284
-0.329676
-0.323023
-0.317703
-0.311734
-0.305733
-0.29974
-0.29364
-0.287271
-0.280472
-0.27315
-0.265311
-0.257055
-0.248539
-0.239935
-0.2314
-0.223056
-0.214985
-0.207239
-0.19984
-0.192795
-0.186102
-0.179735
-0.173739
-0.167918
-0.162766
-0.335748
-0.328411
-0.322715
-0.316354
-0.309951
-0.303499
-0.296835
-0.289777
-0.282178
-0.273991
-0.265285
-0.256215
-0.246977
-0.237759
-0.228715
-0.219957
-0.211553
-0.203536
-0.195918
-0.188695
-0.181857
-0.175376
-0.16928
-0.163396
-0.158173
-0.342123
-0.33408
-0.328004
-0.321235
-0.314397
-0.307427
-0.300117
-0.292277
-0.283791
-0.274675
-0.265066
-0.255173
-0.245222
-0.235407
-0.225876
-0.216723
-0.207999
-0.199723
-0.191895
-0.1845
-0.177522
-0.170929
-0.164737
-0.158794
-0.153498
-0.348788
-0.340021
-0.333561
-0.326365
-0.319051
-0.311493
-0.303446
-0.294727
-0.285271
-0.27517
-0.264633
-0.253917
-0.243266
-0.232875
-0.222876
-0.213345
-0.204316
-0.195792
-0.187761
-0.180201
-0.173087
-0.166388
-0.160104
-0.154104
-0.148737
-0.355723
-0.34622
-0.339373
-0.331729
-0.323886
-0.315661
-0.306777
-0.297079
-0.286577
-0.275446
-0.263966
-0.252433
-0.241102
-0.230156
-0.21971
-0.209818
-0.200495
-0.191733
-0.183507
-0.175789
-0.168545
-0.161745
-0.155373
-0.149321
-0.143886
-0.362902
-0.352656
-0.345418
-0.337299
-0.328869
-0.319885
-0.310058
-0.299285
-0.287667
-0.275473
-0.263046
-0.25071
-0.23872
-0.227242
-0.216367
-0.206129
-0.196527
-0.187537
-0.179125
-0.171255
-0.163889
-0.156992
-0.150538
-0.144441
-0.138939
-0.370293
-0.359303
-0.351671
-0.343042
-0.333954
-0.324111
-0.313233
-0.301294
-0.288503
-0.275225
-0.261855
-0.248735
-0.236109
-0.224121
-0.212838
-0.202271
-0.192401
-0.183193
-0.174604
-0.16659
-0.159109
-0.152122
-0.145594
-0.139456
-0.133892
-0.377856
-0.366129
-0.358096
-0.348918
-0.339091
-0.328281
-0.316241
-0.303053
-0.289047
-0.274673
-0.260374
-0.246495
-0.233259
-0.220784
-0.209111
-0.198229
-0.188105
-0.17869
-0.169934
-0.161786
-0.154198
-0.147129
-0.140534
-0.134363
-0.12874
-0.385543
-0.373093
-0.36465
-0.354874
-0.344218
-0.332327
-0.319022
-0.304514
-0.28926
-0.273794
-0.258586
-0.243974
-0.230155
-0.217217
-0.205173
-0.193994
-0.183629
-0.17402
-0.165107
-0.156835
-0.14915
-0.142006
-0.135354
-0.129155
-0.123481
-0.393301
-0.380146
-0.371281
-0.36085
-0.349266
-0.33618
-0.321512
-0.305627
-0.28911
-0.272563
-0.256473
-0.241158
-0.226784
-0.213407
-0.201012
-0.189552
-0.178961
-0.16917
-0.160113
-0.151728
-0.143956
-0.136748
-0.130048
-0.123829
-0.118109
-0.401068
-0.387233
-0.37793
-0.36678
-0.354163
-0.339766
-0.32365
-0.306345
-0.28856
-0.270955
-0.254015
-0.238031
-0.223131
-0.209339
-0.196615
-0.184891
-0.17409
-0.164132
-0.154944
-0.146457
-0.13861
-0.131348
-0.124611
-0.118381
-0.112623
-0.408773
-0.394291
-0.384527
-0.372586
-0.358826
-0.343011
-0.325373
-0.306622
-0.287581
-0.268947
-0.251195
-0.234576
-0.219181
-0.205
-0.191968
-0.179999
-0.169004
-0.158895
-0.14959
-0.141016
-0.133106
-0.125801
-0.119039
-0.112805
-0.107019
-0.416341
-0.401248
-0.390997
-0.378186
-0.363171
-0.345839
-0.326622
-0.306415
-0.28614
-0.266517
-0.247992
-0.230776
-0.214918
-0.200374
-0.187057
-0.174864
-0.163694
-0.15345
-0.144043
-0.135396
-0.127437
-0.120102
-0.113328
-0.107099
-0.101294
-0.423688
-0.408025
-0.397256
-0.38349
-0.367112
-0.348175
-0.32734
-0.305682
-0.284209
-0.263641
-0.244388
-0.226614
-0.210326
-0.195447
-0.18187
-0.169475
-0.158149
-0.147788
-0.138297
-0.129593
-0.121599
-0.114246
-0.107473
-0.101259
-0.0954469
-0.430725
-0.414539
-0.403214
-0.388405
-0.370561
-0.349946
-0.327472
-0.304386
-0.281759
-0.260297
-0.240364
-0.222073
-0.205389
-0.190206
-0.176394
-0.163819
-0.152359
-0.141901
-0.132344
-0.123598
-0.115585
-0.108231
-0.101473
-0.0952837
-0.0894789
-0.437358
-0.420698
-0.408774
-0.392835
-0.373429
-0.351083
-0.326968
-0.302491
-0.278763
-0.256464
-0.235901
-0.217136
-0.200093
-0.184636
-0.170617
-0.157888
-0.146316
-0.135781
-0.126177
-0.117409
-0.109393
-0.102052
-0.0953241
-0.0891722
-0.083393
-0.44349
-0.426407
-0.413838
-0.396681
-0.375632
-0.351518
-0.32578
-0.299961
-0.275196
-0.25212
-0.230981
-0.211787
-0.194422
-0.178725
-0.164528
-0.151671
-0.140011
-0.129422
-0.11979
-0.111018
-0.103017
-0.0957066
-0.0890239
-0.082924
-0.0771928
-0.449018
-0.431567
-0.418303
-0.399844
-0.377085
-0.35119
-0.323863
-0.296767
-0.271034
-0.247245
-0.225586
-0.206009
-0.188363
-0.172461
-0.158117
-0.145159
-0.133437
-0.122816
-0.113179
-0.104422
-0.0964536
-0.0891909
-0.0825699
-0.0765378
-0.070877
-0.453841
-0.436075
-0.422066
-0.40223
-0.377712
-0.35004
-0.321178
-0.292878
-0.266254
-0.241821
-0.219699
-0.199789
-0.181904
-0.165833
-0.151374
-0.138346
-0.126588
-0.11596
-0.106339
-0.0976169
-0.0897001
-0.0825021
-0.0759593
-0.0700129
-0.0644435
-0.457854
-0.43983
-0.425023
-0.403744
-0.377437
-0.348018
-0.317688
-0.288269
-0.260835
-0.23583
-0.213305
-0.193113
-0.175032
-0.15883
-0.144291
-0.131223
-0.119457
-0.108848
-0.0992655
-0.0905999
-0.0827532
-0.0756368
-0.0691885
-0.0633477
-0.0578913
-0.460955
-0.442727
-0.427074
-0.404299
-0.376194
-0.345075
-0.313362
-0.282917
-0.254759
-0.229256
-0.20639
-0.185968
-0.167737
-0.151445
-0.136862
-0.123786
-0.112042
-0.101476
-0.0919569
-0.0833687
-0.0756107
-0.0685915
-0.0622522
-0.0565358
-0.0512097
-0.463044
-0.444667
-0.42812
-0.403811
-0.373921
-0.341169
-0.30817
-0.276799
-0.248009
-0.222084
-0.198943
-0.178345
-0.160012
-0.143671
-0.129081
-0.116031
-0.104338
-0.0938436
-0.0844113
-0.0759222
-0.0682716
-0.0613646
-0.0551473
-0.0495645
-0.0443557
-0.464024
-0.445552
-0.42807
-0.402204
-0.370565
-0.336266
-0.302088
-0.269899
-0.24057
-0.214303
-0.190951
-0.170235
-0.151848
-0.135502
-0.120944
-0.107954
-0.0963433
-0.0859485
-0.0766283
-0.0682606
-0.0607364
-0.0539585
-0.047879
-0.0424278
-0.0372524
-0.463803
-0.445287
-0.426838
-0.399411
-0.366078
-0.330334
-0.295097
-0.262201
-0.23243
-0.205901
-0.182408
-0.161631
-0.14324
-0.126934
-0.112448
-0.0995538
-0.0880577
-0.0777908
-0.0686085
-0.0603851
-0.053007
-0.0463769
-0.0404566
-0.035145
-0.0298901
-0.462294
-0.443787
-0.424344
-0.395372
-0.360422
-0.32335
-0.28718
-0.253695
-0.223581
-0.196872
-0.173306
-0.152528
-0.134186
-0.117965
-0.103592
-0.0908303
-0.0794812
-0.0693715
-0.0603532
-0.0522976
-0.0450875
-0.038625
-0.0328821
-0.0277119
-0.022511
-0.45942
-0.440969
-0.420518
-0.390035
-0.353564
-0.315295
-0.278327
-0.244371
-0.214015
-0.187211
-0.163643
-0.142925
-0.124684
-0.108596
-0.094376
-0.0817842
-0.0706153
-0.0606933
-0.0518658
-0.0440013
-0.0369837
-0.0307133
-0.0251654
-0.0201038
-0.015119
-0.455108
-0.436761
-0.415301
-0.38336
-0.34548
-0.306157
-0.26853
-0.234226
-0.20373
-0.176915
-0.153417
-0.132819
-0.114734
-0.0988251
-0.0848022
-0.0724187
-0.0614639
-0.0517606
-0.0431524
-0.035504
-0.0286967
-0.0226419
-0.0172978
-0.0123749
-0.00764704
-0.449297
-0.431101
-0.408642
-0.375313
-0.336156
-0.295929
-0.257786
-0.223259
-0.192725
-0.165984
-0.142629
-0.122214
-0.104338
-0.0886572
-0.074875
-0.0627397
-0.0520345
-0.0425781
-0.0342149
-0.0268074
-0.0202342
-0.0144138
-0.00928789
-0.00453628
-7.02827e-05
-0.441935
-0.423935
-0.4005
-0.365874
-0.325581
-0.284609
-0.246099
-0.211471
-0.181002
-0.154422
-0.13128
-0.111109
-0.093504
-0.0781
-0.0646042
-0.0527516
-0.0423288
-0.0331509
-0.0250603
-0.0179181
-0.0116018
-0.00603456
-0.00114486
0.00341175
0.00761285
-0.43298
-0.415219
-0.390847
-0.355027
-0.313756
-0.272204
-0.233474
-0.198871
-0.168569
-0.142233
-0.119376
-0.0995111
-0.0822461
-0.0671629
-0.0539905
-0.042461
-0.0323551
-0.0234866
-0.015696
-0.00884321
-0.00280611
0.00248858
0.00712401
0.0114687
0.0153969
-0.4224
-0.404922
-0.379664
-0.342772
-0.300687
-0.258722
-0.219921
-0.185466
-0.155432
-0.129427
-0.106932
-0.0874507
-0.0705518
-0.0558488
-0.043045
-0.0318769
-0.0221224
-0.0135935
-0.00613019
0.00040901
0.00614523
0.0111478
0.0155119
0.0196307
0.0232745
-0.410176
-0.393022
-0.366944
-0.329112
-0.286387
-0.244181
-0.205457
-0.171271
-0.141607
-0.116021
-0.0939624
-0.0749171
-0.0584461
-0.0441694
-0.0317783
-0.0210098
-0.0116405
-0.0034816
0.00362771
0.0098295
0.0152434
0.0199348
0.0240117
0.0278918
0.0312383
-0.396298
-0.379512
-0.352691
-0.314064
-0.270877
-0.228602
-0.190101
-0.156303
-0.127114
-0.10203
-0.0804745
-0.0619279
-0.045942
-0.0321382
-0.0202027
-0.00987152
-0.00092086
0.00683834
0.0135672
0.0194081
0.0244788
0.0288403
0.0326149
0.0362441
0.0392805
-0.380769
-0.364391
-0.33692
-0.297651
-0.254184
-0.212011
-0.173876
-0.140589
-0.111971
-0.0874668
-0.066487
-0.0485003
-0.0330544
-0.0197703
-0.00833218
0.00152468
0.0100239
0.0173542
0.0236767
0.0291338
0.0338405
0.037854
0.0413121
0.0446782
0.0473923
-0.363603
-0.347677
-0.319654
-0.279905
-0.236344
-0.194441
-0.156812
-0.124154
-0.0961978
-0.0723553
-0.0520201
-0.0346535
-0.0198007
-0.00708225
0.0038178
0.0131642
0.0211798
0.0280527
0.0339435
0.0389943
0.0433169
0.0469649
0.0500927
0.0531838
0.0555634
-0.344824
-0.329394
-0.300923
-0.260865
-0.217402
-0.175924
-0.138942
-0.107023
-0.079822
-0.0567199
-0.0370965
-0.0204085
-0.00620005
0.0059077
0.0162301
0.0250309
0.0325318
0.0389196
0.0443541
0.0489765
0.0528953
0.0561609
0.058945
0.0617489
0.0637824
-0.324468
-0.309578
-0.280771
-0.240589
-0.197397
-0.156495
-0.1203
-0.0892288
-0.0628736
-0.0405878
-0.0217413
-0.00578849
0.007726
0.0191797
0.0288862
0.0371075
0.0440636
0.0499396
0.0548939
0.0590666
0.0625621
0.0654287
0.0678562
0.0703602
0.0720369
-0.30258
-0.288274
-0.259258
-0.219157
-0.176322
-0.136216
-0.100929
-0.0708088
-0.0453857
-0.023989
-0.00598203
0.00918117
0.0219542
0.0327121
0.041766
0.0493755
0.055758
0.0610964
0.0655475
0.0692496
0.0723028
0.0747544
0.0768122
0.0790025
0.0803115
-0.27921
-0.265541
-0.23646
-0.196612
-0.154241
-0.115119
-0.0808736
-0.0518036
-0.0273943
-0.00695621
0.0101515
0.0244732
0.0364594
0.0464818
0.0548482
0.061815
0.0675965
0.0723729
0.0762988
0.07951
0.0821024
0.084123
0.0857977
0.0876576
0.0885848
-0.254414
-0.241459
-0.212447
-0.172821
-0.131379
-0.093274
-0.0601815
-0.0322563
-0.00893822
0.0104755
0.0266273
0.0400583
0.0512149
0.0604643
0.0681103
0.0744052
0.0795599
0.0837512
0.0871311
0.0898321
0.0919454
0.0935192
0.094796
0.0963037
0.0968296
-0.22826
-0.21612
-0.187221
-0.148044
-0.107674
-0.0707397
-0.0389058
-0.0122128
0.00994115
0.0282688
0.0434114
0.0559055
0.0661922
0.0746335
0.0815282
0.0871243
0.0916281
0.0952128
0.0980273
0.1002
0.101816
0.102928
0.10379
0.104919
0.105023
-0.200829
-0.18962
-0.160729
-0.122466
-0.0832032
-0.0475762
-0.0171015
0.00827803
0.0292
0.0463838
0.0604676
0.071982
0.0813614
0.0889621
0.0950772
0.0999494
0.10378
0.106739
0.10897
0.110596
0.111699
0.112333
0.112767
0.113488
0.113152
-0.172205
-0.162004
-0.133237
-0.0960607
-0.0580464
-0.0238477
0.00517407
0.029165
0.0487924
0.0647791
0.0777584
0.0882534
0.0966914
0.103422
0.108731
0.112857
0.115995
0.118309
0.119941
0.121005
0.121576
0.121722
0.12172
0.122001
0.121167
-0.142475
-0.133294
-0.104969
-0.0689028
-0.032282
0.000377783
0.0278611
0.0503946
0.0686701
0.0834112
0.0952442
0.104684
0.112149
0.117982
0.122463
0.125822
0.128249
0.129905
0.130923
0.131409
0.131435
0.131085
0.130639
0.130409
0.128916
-0.111785
-0.103662
-0.0759463
-0.0410851
-0.00598897
0.0250304
0.0508976
0.0719113
0.0887831
0.102235
0.112884
0.121236
0.127702
0.132614
0.136245
0.138819
0.140521
0.141504
0.141897
0.141794
0.141265
0.140423
0.139509
0.138597
0.136217
-0.0803352
-0.0731287
-0.0462401
-0.0127033
0.0207509
0.0500379
0.0742192
0.0936576
0.10908
0.121203
0.130636
0.137873
0.143314
0.147284
0.150048
0.151823
0.152786
0.153087
0.152845
0.152145
0.151066
0.149748
0.14832
0.146493
0.143107
-0.0481398
-0.0418686
-0.0159438
0.0161466
0.0478531
0.0753262
0.09776
0.115574
0.129507
0.140269
0.148456
0.154553
0.15895
0.161961
0.163843
0.164806
0.165021
0.164631
0.163747
0.162449
0.160835
0.159061
0.157081
0.154271
0.150144
-0.0153054
-0.0100172
0.0148388
0.0453669
0.0752313
0.100819
0.121452
0.137601
0.15001
0.159382
0.166301
0.171238
0.174573
0.176611
0.177599
0.177741
0.1772
0.176113
0.174582
0.172689
0.17055
0.168313
0.165734
0.16203
0.158979
0.0180415
0.022304
0.045998
0.0748581
0.102797
0.126439
0.145227
0.159677
0.170535
0.178494
0.184125
0.187886
0.190146
0.1912
0.191286
0.190599
0.189297
0.187508
0.185329
0.182842
0.180173
0.177426
0.174251
0.17013
0.16772
0.0517745
0.0549737
0.0774208
0.104519
0.130463
0.152108
0.169015
0.181738
0.191023
0.197552
0.201881
0.204456
0.205632
0.205694
0.204873
0.203353
0.201286
0.198793
0.195966
0.192889
0.189683
0.186408
0.182697
0.178294
0.175925
0.0857662
0.0878697
0.108993
0.134249
0.158137
0.177746
0.192745
0.203722
0.21142
0.216507
0.219525
0.220905
0.220992
0.220059
0.218327
0.215973
0.21314
0.209944
0.206471
0.202804
0.199056
0.195255
0.191064
0.1864
0.18382
0.119888
0.120869
0.140598
0.163944
0.18573
0.203274
0.216347
0.225564
0.231667
0.235306
0.237009
0.237192
0.236188
0.23426
0.231618
0.22843
0.224834
0.220937
0.21682
0.212565
0.208273
0.203955
0.199308
0.194347
0.191448
0.154009
0.153846
0.172123
0.193503
0.213151
0.228611
0.239749
0.247203
0.251707
0.253898
0.254286
0.253275
0.251183
0.248262
0.244713
0.240696
0.23634
0.231746
0.226991
0.222151
0.217318
0.212492
0.2074
0.202115
0.198849
0.187999
0.186678
0.203451
0.222824
0.240311
0.253678
0.26288
0.268573
0.271484
0.272231
0.271311
0.26911
0.265936
0.26203
0.257581
0.252741
0.247632
0.242348
0.236961
0.231541
0.226173
0.220846
0.215314
0.209689
0.206033
0.22173
0.219242
0.23447
0.251805
0.267121
0.278397
0.285669
0.289612
0.290939
0.290254
0.288036
0.284657
0.280412
0.275529
0.27019
0.264538
0.258684
0.252719
0.246707
0.240715
0.234818
0.229
0.223033
0.217061
0.213002
0.255073
0.251412
0.265066
0.280347
0.293493
0.302688
0.308048
0.310257
0.310018
0.307917
0.304416
0.299874
0.294571
0.288726
0.28251
0.276056
0.26947
0.262834
0.256208
0.249653
0.243236
0.236935
0.23054
0.224219
0.219751
0.287899
0.28307
0.295129
0.308352
0.319339
0.326475
0.329946
0.330446
0.328664
0.325169
0.320406
0.31472
0.308378
0.301587
0.294509
0.287269
0.279965
0.27267
0.265442
0.258336
0.251409
0.244635
0.237821
0.231153
0.226273
0.320085
0.314095
0.324551
0.335723
0.344574
0.349683
0.351297
0.350119
0.346823
0.34196
0.335961
0.329154
0.321794
0.314078
0.306158
0.298149
0.290142
0.282206
0.274389
0.266744
0.259319
0.252084
0.244861
0.237852
0.232559
0.351507
0.34437
0.353224
0.362366
0.369116
0.372236
0.372035
0.369216
0.364441
0.358244
0.351037
0.343137
0.334786
0.326168
0.317426
0.308669
0.299979
0.291417
0.283029
0.274858
0.26695
0.259267
0.251648
0.244303
0.238599
0.382046
0.373781
0.381047
0.388191
0.392884
0.394065
0.392095
0.38768
0.381467
0.373973
0.365593
0.356632
0.347317
0.337824
0.328286
0.318803
0.309451
0.300283
0.29134
0.282662
0.274284
0.266168
0.258168
0.250495
0.244384
0.411587
0.40222
0.407919
0.413107
0.415799
0.415097
0.411414
0.405454
0.39785
0.389101
0.379588
0.3696
0.359355
0.349017
0.33871
0.328526
0.318534
0.308782
0.299305
0.290137
0.281306
0.272773
0.264407
0.256417
0.249904
0.440016
0.429578
0.433744
0.437031
0.437785
0.435268
0.429933
0.422485
0.413541
0.403584
0.392981
0.382006
0.370866
0.359716
0.348671
0.337814
0.327208
0.316895
0.306905
0.297266
0.288001
0.279068
0.270352
0.262055
0.255149
0.467227
0.455753
0.45843
0.459881
0.458771
0.454511
0.447593
0.43872
0.428494
0.417381
0.405734
0.393815
0.38182
0.369894
0.358142
0.346642
0.33545
0.324601
0.314121
0.304033
0.294353
0.28504
0.275992
0.2674
0.26011
0.493116
0.48065
0.481889
0.481578
0.478688
0.472765
0.46434
0.454111
0.442664
0.430451
0.417812
0.404995
0.392187
0.379522
0.3671
0.354989
0.34324
0.331882
0.320937
0.310423
0.30035
0.290676
0.281314
0.272439
0.264779
0.517586
0.504173
0.504037
0.502049
0.497468
0.489972
0.480121
0.468609
0.456008
0.442756
0.429179
0.415514
0.401938
0.388576
0.375521
0.362834
0.350558
0.338721
0.327338
0.316421
0.305977
0.295964
0.286307
0.277164
0.269147
0.540544
0.526238
0.524796
0.521224
0.515052
0.506077
0.494886
0.48217
0.468487
0.45426
0.439802
0.425343
0.411046
0.397032
0.383382
0.370155
0.357388
0.345101
0.333307
0.322014
0.311222
0.300892
0.29096
0.281565
0.273207
0.561904
0.54676
0.544092
0.539038
0.531381
0.521028
0.50859
0.494753
0.480062
0.464928
0.449653
0.434453
0.419487
0.404865
0.390664
0.376935
0.36371
0.351006
0.33883
0.327187
0.316073
0.305449
0.295263
0.285632
0.276953
0.581586
0.565666
0.561858
0.55543
0.546402
0.534777
0.52119
0.506319
0.4907
0.47473
0.458701
0.44282
0.427237
0.412056
0.397348
0.383156
0.36951
0.356422
0.343895
0.33193
0.320519
0.309626
0.299206
0.289356
0.280377
0.599516
0.582885
0.57803
0.570345
0.560064
0.547279
0.532644
0.516833
0.500368
0.483637
0.46692
0.450419
0.434275
0.418585
0.403414
0.388802
0.374773
0.361335
0.348489
0.336232
0.32455
0.313412
0.302781
0.292731
0.283474
0.615627
0.598354
0.592552
0.583733
0.572324
0.558496
0.542919
0.526262
0.509036
0.491621
0.474288
0.45723
0.440581
0.424434
0.408848
0.393859
0.379485
0.365734
0.352601
0.340081
0.328157
0.3168
0.305979
0.295749
0.28624
0.629858
0.612015
0.605372
0.595547
0.583141
0.568391
0.551981
0.534576
0.516679
0.49866
0.480782
0.463232
0.446138
0.429588
0.413635
0.398312
0.383635
0.369607
0.356221
0.343469
0.331332
0.319781
0.308794
0.298404
0.288669
0.642156
0.623819
0.616445
0.605749
0.592479
0.576932
0.559803
0.541752
0.523274
0.504733
0.486384
0.468409
0.45093
0.434031
0.417762
0.402151
0.387212
0.372945
0.359341
0.346388
0.334066
0.322349
0.311219
0.30069
0.290759
0.652475
0.633723
0.625733
0.614304
0.600308
0.584091
0.566358
0.547765
0.528801
0.509821
0.491078
0.472746
0.454945
0.437753
0.421218
0.405366
0.390207
0.375739
0.361952
0.348832
0.336355
0.324498
0.313248
0.302602
0.292504
0.660777
0.641689
0.633203
0.621183
0.606603
0.589847
0.571628
0.552598
0.533242
0.51391
0.494849
0.47623
0.458169
0.440742
0.423994
0.407948
0.392612
0.377983
0.364049
0.350793
0.338192
0.326223
0.314877
0.304137
0.293904
0.667031
0.64769
0.638828
0.626362
0.611342
0.59418
0.575595
0.556236
0.536585
0.516988
0.497687
0.478852
0.460596
0.442992
0.426082
0.40989
0.394421
0.379671
0.365626
0.352269
0.339574
0.327521
0.316102
0.305291
0.294956
0.671213
0.651703
0.642589
0.629825
0.61451
0.597076
0.578246
0.558668
0.53882
0.519044
0.499584
0.480604
0.462217
0.444495
0.427478
0.411188
0.39563
0.380798
0.36668
0.353254
0.340497
0.328387
0.31692
0.306062
0.295659
0.673308
0.653713
0.644473
0.631559
0.616096
0.598527
0.579574
0.559886
0.539938
0.520074
0.500533
0.481482
0.463029
0.445247
0.428177
0.411838
0.396235
0.381363
0.367207
0.353748
0.340959
0.328821
0.31733
0.306447
0.29601
-0.243085
-0.239488
-0.23572
-0.231891
-0.228108
-0.230025
-0.224511
-0.226372
-0.218342
-0.221061
-0.205711
-0.209921
-0.194021
-0.198945
-0.18307
-0.188338
-0.172737
-0.17824
-0.163126
-0.168757
-0.154241
-0.159918
-0.146054
-0.151724
-0.138537
-0.144158
-0.13165
-0.137195
-0.125351
-0.1308
-0.119597
-0.124938
-0.114349
-0.119576
-0.109571
-0.11468
-0.105229
-0.11022
-0.101291
-0.106166
-0.0977287
-0.102491
-0.0945167
-0.0991725
-0.0916317
-0.0961869
-0.089053
-0.0935145
-0.0867621
-0.0911377
-0.0847428
-0.0890404
-0.082981
-0.0872089
-0.0814643
-0.0856311
-0.0801823
-0.0842966
-0.079126
-0.0831966
-0.0782885
-0.0823242
-0.0776627
-0.0816732
-0.0772492
-0.0812418
-0.0770313
-0.0810213
-0.212609
-0.19909
-0.187048
-0.176346
-0.166199
-0.156846
-0.148255
-0.140362
-0.133131
-0.126515
-0.120467
-0.114947
-0.109916
-0.105338
-0.101179
-0.0974097
-0.0940009
-0.090928
-0.0881683
-0.0857018
-0.0835107
-0.0815793
-0.0798937