/*--------------------------------*- C++ -*----------------------------------*\
  =========                 |
  \\      /  F ield         | OpenFOAM: The Open Source CFD Toolbox
   \\    /   O peration     | Website:  https://openfoam.org
    \\  /    A nd           | Version:  7
     \\/     M anipulation  |
\*---------------------------------------------------------------------------*/
FoamFile
{
    version     2.0;
    format      ascii;
    class       surfaceScalarField;
    location    "39.999";
    object      phi;
}
// * * * * * * * * * * * * * * * * * * * * * * * * * * * * * * * * * * * * * //

dimensions      [0 3 -1 0 0 0 0];

internalField   nonuniform List<scalar> 
22553
(
-0.000289831
5.27587e-05
-0.0003448
5.50134e-05
-0.000401701
5.69475e-05
-0.000460248
5.85983e-05
-0.000520156
5.99621e-05
-0.000581116
6.10171e-05
-0.000642805
6.17509e-05
-0.000704939
6.21969e-05
-0.000767354
6.24812e-05
-0.00083016
6.28723e-05
-0.000893862
6.37685e-05
-0.000959506
6.57062e-05
6.97485e-05
-0.0010292
-8.59163e-06
1.73512e-05
-2.93153e-05
4.18212e-05
-5.91829e-05
6.02611e-05
-9.5931e-05
7.41488e-05
-0.000137878
8.46668e-05
-0.000183809
9.2759e-05
-0.000232863
9.91414e-05
-0.000284435
0.000104331
-0.000338089
0.000108667
-0.000393485
0.000112343
-0.000450317
0.00011543
-0.000508273
0.000117919
-0.000567013
0.000119757
-0.000626166
0.000120904
-0.000685368
0.000121399
-0.000744342
0.000121455
-0.000803042
0.000121572
-0.000861818
0.000122545
-0.000921542
0.00012543
0.000132415
-0.000984208
-8.27503e-06
2.56263e-05
-2.82945e-05
6.18407e-05
-5.71701e-05
8.91367e-05
-9.26836e-05
0.000109662
-0.000133165
0.000125148
-0.000177386
0.00013698
-0.000224461
0.000146216
-0.00027375
0.00015362
-0.00032478
0.000159697
-0.000377168
0.000164731
-0.000430567
0.000168829
-0.000484613
0.000171966
-0.000538904
0.000174047
-0.000592975
0.000174975
-0.000646322
0.000174746
-0.000698449
0.000173582
-0.000749004
0.000172127
-0.000798021
0.000171561
-0.000846021
0.00017343
0.000180997
-0.000894603
-7.81831e-06
3.34446e-05
-2.68155e-05
8.08378e-05
-5.42426e-05
0.000116564
-8.79445e-05
0.000143364
-0.000126264
0.000163467
-0.000167955
0.000178672
-0.000212092
0.000190353
-0.000257983
0.000199511
-0.000305094
0.000206807
-0.000352976
0.000212614
-0.000401215
0.000217067
-0.000449372
0.000220123
-0.000496952
0.000221627
-0.000543367
0.000221391
-0.000587925
0.000219304
-0.000629835
0.000215492
-0.000668305
0.000210597
-0.000702878
0.000206135
-0.00073358
0.000204132
0.000208352
-0.000760935
-7.24228e-06
4.06868e-05
-2.49379e-05
9.85334e-05
-5.05061e-05
0.000142132
-8.18659e-05
0.000174724
-0.000117374
0.000198975
-0.000155756
0.000217054
-0.000196032
0.000230629
-0.000237438
0.000240916
-0.000279353
0.000248722
-0.000321238
0.000254499
-0.000362578
0.000258407
-0.00040283
0.000260375
-0.000441378
0.000260175
-0.000477484
0.000257496
-0.000510241
0.000252061
-0.000538533
0.000243785
-0.000561024
0.000233087
-0.000576581
0.000221691
-0.000584734
0.000212285
0.000207188
-0.00058357
-6.57309e-06
4.72599e-05
-2.27371e-05
0.000114697
-4.60941e-05
0.000165489
-7.46411e-05
0.000203271
-0.000106744
0.000231078
-0.000141091
0.000251402
-0.000176631
0.000266169
-0.000212502
0.000276787
-0.000247972
0.000284192
-0.000282374
0.000288902
-0.000315058
0.00029109
-0.000345334
0.000290652
-0.000372428
0.000287269
-0.00039542
0.000280488
-0.000413176
0.000269817
-0.000424261
0.00025487
-0.000426762
0.000235588
-0.000418534
0.000213464
-0.000399218
0.000192969
0.000170405
-0.000362435
-5.84093e-06
5.31009e-05
-2.03004e-05
0.000129157
-4.11619e-05
0.000186351
-6.64957e-05
0.000228605
-9.46683e-05
0.000259251
-0.000124317
0.00028105
-0.000154298
0.00029615
-0.000183631
0.00030612
-0.000211435
0.000311996
-0.000236876
0.000314344
-0.000259118
0.000313332
-0.00027727
0.000308803
-0.000290341
0.00030034
-0.000297182
0.000287329
-0.000296399
0.000269034
-0.000286264
0.000244735
-0.000264454
0.000213778
-0.000227001
0.000176011
-0.000174185
0.000140152
9.5239e-05
-9.90181e-05
-5.0784e-06
5.81793e-05
-1.77223e-05
0.000141801
-3.58782e-05
0.000204506
-5.76749e-05
0.000250401
-8.14657e-05
0.000283042
-0.000105819
0.000305404
-0.00012948
0.000319811
-0.000151314
0.000327955
-0.000170257
0.000330939
-0.000185258
0.000329344
-0.000195229
0.000323303
-0.000199005
0.00031258
-0.000195296
0.000296632
-0.000182635
0.000274667
-0.000159292
0.000245691
-0.0001232
0.000208644
-7.19647e-05
0.000162542
-2.40379e-06
0.00010645
9.42453e-05
4.35028e-05
-2.77436e-05
0.000217228
-4.31871e-06
6.2498e-05
-1.50991e-05
0.000152581
-3.0415e-05
0.000219822
-4.8429e-05
0.000268415
-6.74607e-05
0.000302073
-8.5989e-05
0.000323932
-0.000102619
0.000336441
-0.000116031
0.000341367
-0.000124928
0.000339836
-0.00012798
0.000332396
-0.000123778
0.000319101
-0.000110785
0.000299586
-8.72959e-05
0.000273143
-5.13979e-05
0.000238769
-9.19905e-07
0.000195213
6.6729e-05
0.000140995
0.000154276
7.49951e-05
0.00026754
-6.81407e-06
0.000405934
-9.48908e-05
-0.000212549
0.000590739
-3.59356e-06
6.60915e-05
-1.25223e-05
0.00016151
-2.49355e-05
0.000232236
-3.89942e-05
0.000282474
-5.29564e-05
0.000316036
-6.51836e-05
0.000336159
-7.41082e-05
0.000345365
-7.81821e-05
0.000345441
-7.58202e-05
0.000337474
-6.53432e-05
0.000321919
-4.49265e-05
0.000298685
-1.25512e-05
0.000267211
3.40372e-05
0.000226554
9.736e-05
0.000175447
0.000180236
0.000112337
0.000285889
3.53419e-05
0.000417162
-5.62781e-05
0.000581125
-0.000170777
0.000774219
-0.000287985
-0.000465811
0.00102748
-2.93097e-06
6.90225e-05
-1.00721e-05
0.000168651
-1.95809e-05
0.000241744
-2.95712e-05
0.000292464
-3.82028e-05
0.000324667
-4.36833e-05
0.00034164
-4.42295e-05
0.000345911
-3.80103e-05
0.000339221
-2.30835e-05
0.000322547
2.66661e-06
0.000296169
4.15877e-05
0.000259763
9.6304e-05
0.000212495
0.000169759
0.000153099
0.000265233
7.9972e-05
0.00038631
-8.73895e-06
0.000537138
-0.000115486
0.000720556
-0.000239697
0.000945406
-0.000395626
0.00120353
-0.000546114
-0.000796747
0.00153447
-2.353e-06
7.13755e-05
-7.80997e-06
0.000174108
-1.4456e-05
0.00024839
-2.03014e-05
0.00029831
-2.33606e-05
0.000327726
-2.16388e-05
0.000339918
-1.30802e-05
0.000337353
4.5004e-06
0.000321641
3.34912e-05
0.000293556
7.65503e-05
0.00025311
0.000136666
0.000199648
0.000217199
0.000131961
0.000321909
4.83894e-05
0.000454942
-5.30612e-05
0.000620687
-0.000174483
0.000824169
-0.000318968
0.00106838
-0.000483904
0.00136318
-0.000690426
0.00169604
-0.000878977
-0.0012124
0.00211169
-1.87354e-06
7.3249e-05
-5.77104e-06
0.000178005
-9.61407e-06
0.000252233
-1.12419e-05
0.000299938
-8.46306e-06
0.000324947
9.83594e-07
0.000330471
1.95029e-05
0.000318833
4.97279e-05
0.000291416
9.46016e-05
0.000248682
0.000157449
0.000190262
0.000242029
0.000115069
0.000352552
2.14381e-05
0.000493655
-9.27135e-05
0.000670331
-0.000229738
0.00088766
-0.000391812
0.00115094
-0.00058225
0.00146352
-0.000796484
0.00183403
-0.00106094
0.00224752
-0.00129246
-0.00171241
0.00274752
-1.4963e-06
7.47453e-05
-3.95785e-06
0.000180467
-5.04363e-06
0.000253319
-2.33976e-06
0.000297234
6.6198e-06
0.000315988
2.44534e-05
0.000312638
5.40146e-05
0.000289272
9.85e-05
0.000246931
0.000161539
0.000185643
0.000247256
0.000104545
0.000360284
2.04083e-06
0.000505733
-0.000124011
0.000689043
-0.000276023
0.000915779
-0.000456474
0.0011913
-0.000667338
0.00152
-0.000910949
0.00190532
-0.0011818
0.00235129
-0.00150691
0.00284385
-0.00178503
-0.00228358
0.00341503
-1.21333e-06
7.59587e-05
-2.33462e-06
0.000181588
-6.48218e-07
0.000251633
6.57627e-06
0.000290009
2.22094e-05
0.000300355
4.93194e-05
0.000285528
9.13327e-05
0.000247259
0.00015215
0.000186114
0.000236223
0.000101569
0.000348581
-7.81237e-06
0.000494768
-0.000144147
0.000680665
-0.000309907
0.000912188
-0.000507546
0.00119481
-0.000739092
0.00153323
-0.00100576
0.00192949
-0.00130721
0.00238569
-0.00163799
0.00289812
-0.00201934
0.00345756
-0.00234447
-0.00289789
0.00407187
-1.00448e-06
7.69631e-05
-8.20234e-07
0.000181404
3.71436e-06
0.000247098
1.58219e-05
0.000277902
3.88385e-05
0.000277338
7.64253e-05
0.000247941
0.000132729
0.000190955
0.000212497
0.000106346
0.000321113
-7.04709e-06
0.000464534
-0.000151233
0.000649059
-0.000328671
0.000880944
-0.000541792
0.00116583
-0.000792432
0.00150796
-0.00108122
0.00190973
-0.00140753
0.00236963
-0.00176711
0.00288586
-0.00215422
0.00344561
-0.00257909
0.00404738
-0.00294625
-0.00351687
0.00466636
-8.38448e-07
7.78016e-05
6.8514e-07
0.000179881
8.31664e-06
0.000239467
2.58495e-05
0.000260369
5.7242e-05
0.000245946
0.000106894
0.000198289
0.000179821
0.000118028
0.00028173
4.43683e-06
0.000418965
-0.000144282
0.000598235
-0.000330504
0.000826156
-0.000556592
0.00110853
-0.000824164
0.00144946
-0.00113336
0.00185042
-0.00148219
0.00230945
-0.00186656
0.00282063
-0.00227829
0.00337587
-0.00270945
0.00395531
-0.00315853
0.00456443
-0.00355537
-0.00410142
0.00514897
-6.74294e-07
7.84759e-05
2.3244e-06
0.000176882
1.34744e-05
0.000228317
3.72293e-05
0.000236614
7.83278e-05
0.000204847
0.000142063
0.000134554
0.000234443
2.56482e-05
0.000362172
-0.000123292
0.00053238
-0.00031449
0.000752085
-0.000550209
0.00102734
-0.000831847
0.00136218
-0.001159
0.00175748
-0.00152866
0.00221024
-0.00193495
0.00271259
-0.00236891
0.00325378
-0.00281948
0.0038189
-0.00327457
0.0043867
-0.00372633
0.00496479
-0.00413346
-0.00462142
0.0054848
-4.62618e-07
7.89385e-05
4.3051e-06
0.000172114
1.957e-05
0.000213052
5.06196e-05
0.000205564
0.000103116
0.000152351
0.000183375
5.42942e-05
0.00029845
-8.94262e-05
0.000455902
-0.000280744
0.00066322
-0.000521808
0.000926851
-0.000813841
0.00125095
-0.00115595
0.00163609
-0.00154413
0.00207819
-0.00197077
0.00256841
-0.00242517
0.00309294
-0.00289344
0.00363655
-0.0033631
0.00418019
-0.00381821
0.00470753
-0.00425367
0.00522277
-0.0046487
-0.00506182
0.00566317
-9.73192e-08
7.90358e-05
6.81796e-06
0.000165199
2.70131e-05
0.000192857
6.67183e-05
0.000165859
0.000132648
8.64218e-05
0.000232215
-4.52731e-05
0.000373424
-0.000230636
0.000564313
-0.000471633
0.000811902
-0.000769397
0.00112075
-0.00112269
0.00149143
-0.00152662
0.00191931
-0.00197202
0.00239424
-0.0024457
0.00290135
-0.00293228
0.00342266
-0.00341474
0.0039405
-0.00388094
0.00443696
-0.00431467
0.00490304
-0.00471974
0.00533518
-0.00508084
-0.00542896
0.00570232
4.13012e-07
7.86228e-05
1.00546e-05
0.000155557
3.62127e-05
0.000166699
8.62022e-05
0.00011587
0.00016788
4.74353e-06
0.00028972
-0.000167112
0.000460371
-0.000401287
0.000687617
-0.000698878
0.000976763
-0.00105854
0.00132882
-0.00147475
0.00173904
-0.00193685
0.00219651
-0.00242948
0.00268506
-0.00293425
0.00318553
-0.00343274
0.00367885
-0.00390807
0.00414856
-0.00435065
0.00458337
-0.00474948
0.00498039
-0.00511677
0.00533146
-0.00543191
-0.00574411
0.00564661
1.14781e-06
7.7475e-05
1.42035e-05
0.000142501
4.75458e-05
0.000133356
0.000109664
5.37518e-05
0.000209568
-9.51612e-05
0.000356578
-0.000314122
0.000559393
-0.000604102
0.000824415
-0.0009639
0.00115363
-0.00138776
0.00154278
-0.0018639
0.00198065
-0.00237472
0.00245015
-0.00289898
0.00293091
-0.00341502
0.00340272
-0.00390455
0.00384908
-0.00435443
0.00425864
-0.0047602
0.00462829
-0.00511913
0.00495728
-0.00544575
0.00525363
-0.00572826
-0.00601871
0.00552823
2.16646e-06
7.53085e-05
1.94291e-05
0.000125239
6.13262e-05
9.14593e-05
0.000137551
-2.24732e-05
0.000258149
-0.000215759
0.000432841
-0.000488813
0.000669424
-0.000840686
0.000971429
-0.0012659
0.0013358
-0.00175213
0.00175173
-0.00227982
0.00220158
-0.00282458
0.00266383
-0.00336123
0.00311709
-0.00386828
0.0035439
-0.00433136
0.00393331
-0.00474384
0.00428118
-0.00510807
0.00459031
-0.00542825
0.00486586
-0.00572131
0.00511872
-0.00598112
-0.00625423
0.00535424
3.50537e-06
7.18032e-05
2.5859e-05
0.000102885
7.77799e-05
3.95385e-05
0.000170115
-0.000114808
0.00031365
-0.000359294
0.000517772
-0.000692935
0.000788065
-0.00111098
0.00112349
-0.00160133
0.00151453
-0.00214316
0.00194361
-0.00270891
0.00238822
-0.00326919
0.0028255
-0.00379851
0.00323671
-0.00427949
0.00361003
-0.00470468
0.00394147
-0.00507528
0.00423324
-0.00539984
0.00449267
-0.00568769
0.00472746
-0.0059561
0.00494784
-0.00620149
-0.00646589
0.00515949
5.1935e-06
6.66097e-05
3.35796e-05
7.4499e-05
9.70265e-05
-2.39084e-05
0.000207366
-0.000225147
0.000375611
-0.00052754
0.00060975
-0.000927074
0.000911568
-0.0014128
0.00127389
-0.00196365
0.00168013
-0.00254941
0.00210718
-0.00313595
0.00253052
-0.00369252
0.00292951
-0.0041975
0.00329093
-0.00464091
0.00360982
-0.00502358
0.00388847
-0.00535392
0.00413358
-0.00564495
0.00435447
-0.00590858
0.00455895
-0.00616058
0.00475628
-0.00639881
-0.0066593
0.00494968
7.25041e-06
5.93593e-05
4.26344e-05
3.91151e-05
0.000119068
-0.000100342
0.000249047
-0.000355126
0.000443034
-0.000721528
0.000706248
-0.00119029
0.00103503
-0.00174158
0.00141506
-0.00234368
0.0018234
-0.00295774
0.0022339
-0.00354646
0.0026235
-0.00408213
0.00297669
-0.0045507
0.00328701
-0.00495122
0.00355586
-0.00529243
0.00378997
-0.00558804
0.00399824
-0.00585322
0.00418998
-0.00610031
0.00437199
-0.00634259
0.00455165
-0.00657847
-0.00683763
0.00472998
9.68682e-06
4.96724e-05
5.30231e-05
-4.22126e-06
0.00014378
-0.000191098
0.000294609
-0.000505955
0.000514362
-0.000941281
0.000803918
-0.00147984
0.00115281
-0.00209047
0.00153961
-0.00273048
0.00193701
-0.00335515
0.00231914
-0.00392858
0.00266735
-0.00443034
0.00297275
-0.0048561
0.00323534
-0.00521381
0.00346123
-0.00551832
0.00365949
-0.0057863
0.00383932
-0.00603305
0.00400888
-0.00626987
0.00417345
-0.00650717
0.00433853
-0.00674355
-0.00700294
0.00450384
1.25052e-05
3.71672e-05
6.47003e-05
-5.64164e-05
0.000170902
-0.0002973
0.000343196
-0.000678249
0.000587505
-0.00118559
0.000898812
-0.00179115
0.00125917
-0.00245082
0.00164132
-0.00311263
0.00201655
-0.00373038
0.00236232
-0.00427435
0.00266625
-0.00473428
0.00292606
-0.0051159
0.00314681
-0.00543456
0.00333738
-0.00570889
0.0035074
-0.00595631
0.00366518
-0.00619083
0.00381725
-0.00642193
0.00396739
-0.00665731
0.00411957
-0.00689573
-0.00715594
0.00427257
1.56999e-05
2.14673e-05
7.75722e-05
-0.000118289
0.000200032
-0.00041976
0.000393646
-0.000871863
0.000659925
-0.00145187
0.000986729
-0.00211796
0.00134899
-0.00281309
0.00171598
-0.00347962
0.00206071
-0.00407511
0.00236619
-0.00457983
0.00262673
-0.00499482
0.00284561
-0.00533478
0.00303119
-0.00562014
0.00319335
-0.00587105
0.00334108
-0.00610404
0.00348126
-0.00633101
0.00361875
-0.00655942
0.00375612
-0.00679469
0.00389613
-0.00703574
-0.00729692
0.00403712
1.92557e-05
2.21163e-06
9.14924e-05
-0.000190525
0.000230617
-0.000558885
0.00044451
-0.00108576
0.000728804
-0.00173616
0.00106367
-0.00245282
0.00141839
-0.00316781
0.00176169
-0.00382293
0.00207091
-0.00438433
0.00233559
-0.0048445
0.0025561
-0.00521534
0.00273971
-0.00551839
0.00289639
-0.00577681
0.00303575
-0.00601042
0.00316549
-0.00623378
0.00329094
-0.00645646
0.00341555
-0.00668403
0.00354097
-0.00692011
0.00366909
-0.00716387
-0.00742593
0.0037981
2.31455e-05
-2.09338e-05
0.000106257
-0.000273637
0.000261953
-0.000714582
0.000494113
-0.00131791
0.000791278
-0.00203333
0.00112627
-0.00278781
0.00146507
-0.00350661
0.00177873
-0.00413658
0.00205047
-0.00465607
0.0022763
-0.00507033
0.00246137
-0.00540041
0.00261533
-0.00567234
0.0027484
-0.00590988
0.00286918
-0.0061312
0.00298384
-0.00634845
0.00309631
-0.00656893
0.00320893
-0.00679665
0.00332275
-0.00703393
0.00343903
-0.00728015
-0.0075429
0.003556
2.73302e-05
-4.8264e-05
0.0001216
-0.000367906
0.0002932
-0.000886182
0.000540653
-0.00156537
0.000844717
-0.00233739
0.00117217
-0.00311526
0.00148843
-0.00382287
0.00176905
-0.0044172
0.00200375
-0.00489077
0.00219413
-0.00526071
0.00234865
-0.00555494
0.00247793
-0.00580162
0.00259155
-0.00602351
0.00269672
-0.00623637
0.00279816
-0.00644988
0.00289864
-0.00666941
0.00299972
-0.00689773
0.00310203
-0.00713624
0.00320641
-0.00738453
-0.00764774
0.00331125
3.17536e-05
-8.00176e-05
0.000137194
-0.000473347
0.00032341
-0.0010724
0.00058234
-0.0018243
0.000886986
-0.00264204
0.00120014
-0.00342841
0.00148924
-0.00411197
0.00173569
-0.00466365
0.00193541
-0.0050905
0.00209437
-0.00541966
0.00222292
-0.00568349
0.00233161
-0.00591031
0.00242886
-0.00612076
0.00252042
-0.00632793
0.00260975
-0.00653921
0.00269877
-0.00675843
0.00278847
-0.00698743
0.00287925
-0.00722702
0.00297164
-0.00747692
-0.00774033
0.00306423
3.63432e-05
-0.000116361
0.000152658
-0.000589661
0.000351579
-0.00127132
0.000617545
-0.00209026
0.000916621
-0.00294111
0.00121005
-0.00372184
0.00146934
-0.00437126
0.00168219
-0.0048765
0.00184992
-0.00525823
0.00198151
-0.00555125
0.00208806
-0.00579004
0.00217934
-0.00600159
0.00226239
-0.00620381
0.00234161
-0.00640715
0.00241947
-0.00661707
0.00249726
-0.00683622
0.00257562
-0.00706579
0.00265479
-0.00730619
0.0027351
-0.00755723
-0.00782058
0.00281536
4.10103e-05
-0.000157371
0.000167568
-0.000716219
0.000376712
-0.00148046
0.000644944
-0.0023585
0.000932906
-0.00322907
0.00120268
-0.00399161
0.00143117
-0.00459975
0.00161216
-0.00505749
0.00175125
-0.00539732
0.00185921
-0.00565921
0.001947
-0.00587784
0.00202322
-0.0060778
0.00209352
-0.00627411
0.00216117
-0.0064748
0.0022279
-0.0066838
0.00229455
-0.00690287
0.00236155
-0.00713279
0.00242903
-0.00737368
0.00249718
-0.00762538
-0.0078884
0.002565
4.56524e-05
-0.000203024
0.000181477
-0.000852044
0.000397899
-0.00169689
0.000663618
-0.00262421
0.000935825
-0.00350128
0.00117949
-0.00423528
0.00137748
-0.00479774
0.001529
-0.00520901
0.00164276
-0.00551107
0.00173032
-0.00574677
0.00180188
-0.00594941
0.00186472
-0.00614064
0.00192322
-0.00633261
0.00197975
-0.00653134
0.00203549
-0.00673954
0.00209102
-0.0069584
0.0021466
-0.00718837
0.00220232
-0.0074294
0.00225824
-0.0076813
-0.00794373
0.00231357
5.01561e-05
-0.00025318
0.000193943
-0.000995831
0.000414377
-0.00191732
0.000673088
-0.00288293
0.000925953
-0.00375415
0.0011423
-0.00445162
0.00131099
-0.00496644
0.00143573
-0.00533375
0.00152722
-0.00560257
0.00159703
-0.00581657
0.00165427
-0.00600664
0.00170487
-0.00619124
0.00175216
-0.0063799
0.00179781
-0.00657699
0.00184263
-0.00678436
0.00188701
-0.00700277
0.00193112
-0.00723248
0.00197501
-0.0074733
0.00201866
-0.00772494
-0.0079865
0.00206144
5.44019e-05
-0.000307582
0.00020455
-0.00114598
0.000425584
-0.00213835
0.000673306
-0.00313065
0.000904295
-0.00398514
0.00109314
-0.00464047
0.00123428
-0.00510758
0.00133491
-0.00543437
0.00140682
-0.00567448
0.00146099
-0.00587074
0.00150528
-0.00605094
0.00154441
-0.00623037
0.00158084
-0.00641633
0.00161574
-0.00661189
0.00164965
-0.00681827
0.00168284
-0.00703596
0.00171543
-0.00726507
0.00174745
-0.00750533
0.00177881
-0.0077563
-0.00801671
0.00180901
5.82699e-05
-0.000365851
0.000212937
-0.00130065
0.000431188
-0.0023566
0.000664589
-0.00336405
0.000872128
-0.00419267
0.00103404
-0.00480238
0.00114965
-0.0052232
0.00122868
-0.0055134
0.00128326
-0.00572906
0.00132341
-0.0059109
0.00135574
-0.00608326
0.0013839
-0.00625853
0.00140966
-0.0064421
0.00143385
-0.00663608
0.00145684
-0.00684125
0.00147881
-0.00705794
0.00149986
-0.00728612
0.00151999
-0.00752545
0.00153905
-0.00777535
-0.00803434
0.00155668
6.1645e-05
-0.000427496
0.000218815
-0.00145782
0.000431085
-0.00256887
0.00064754
-0.0035805
0.00083087
-0.004376
0.000966911
-0.00493842
0.0010591
-0.00531539
0.00111879
-0.00557309
0.00115786
-0.00576813
0.00118521
-0.00593825
0.00120624
-0.00610429
0.00122373
-0.00627602
0.00123895
-0.00645732
0.00125246
-0.00664958
0.00126451
-0.0068533
0.00127525
-0.00706868
0.00128474
-0.00729561
0.00129297
-0.00753368
0.00129976
-0.00778214
-0.00803946
0.00130488
6.44226e-05
-0.000491919
0.000221988
-0.00161538
0.000425384
-0.00277227
0.000622956
-0.00377807
0.000781962
-0.00453501
0.000893512
-0.00504997
0.000964305
-0.00538618
0.0010066
-0.00561538
0.00103162
-0.00579315
0.00104706
-0.0059537
0.00105726
-0.00611449
0.00106427
-0.00628303
0.001069
-0.00646205
0.00107183
-0.00665241
0.00107293
-0.0068544
0.00107242
-0.00706817
0.00107036
-0.00729355
0.00106671
-0.00753003
0.00106131
-0.00777674
-0.00803215
0.00105401
6.65128e-05
-0.000558432
0.00022235
-0.00177122
0.000414365
-0.00296428
0.000591747
-0.00395546
0.0007268
-0.00467006
0.000815384
-0.00513855
0.000866667
-0.00543746
0.000893199
-0.00564191
0.000905296
-0.00580525
0.000909478
-0.00595788
0.000909139
-0.00611415
0.000905802
-0.0062797
0.000900082
-0.00645633
0.000892236
-0.00664456
0.000882393
-0.00684456
0.000870634
-0.00705641
0.000857004
-0.00727992
0.000841496
-0.00751453
0.000823979
-0.00775923
-0.00801246
0.000804285
6.78445e-05
-0.000626276
0.000219889
-0.00192326
0.000398439
-0.00314283
0.000554871
-0.00411189
0.00066668
-0.00478187
0.000733859
-0.00520573
0.000767323
-0.00547093
0.000779444
-0.00565403
0.000779485
-0.00580529
0.000772862
-0.00595126
0.000762196
-0.00610348
0.000748586
-0.00626609
0.000732446
-0.00644019
0.000713948
-0.00662606
0.000693175
-0.00682379
0.000670179
-0.00703341
0.000644979
-0.00725472
0.000617586
-0.00748713
0.000587938
-0.00772958
-0.00798048
0.000555955
6.83675e-05
-0.000694644
0.000214677
-0.00206957
0.000378108
-0.00330627
0.000513274
-0.00424705
0.00060277
-0.00487137
0.000650065
-0.00525303
0.000667188
-0.00548805
0.000665993
-0.00565284
0.000654633
-0.00579393
0.000637534
-0.00593416
0.000616684
-0.00608263
0.000592862
-0.00624226
0.000566339
-0.00641366
0.000537222
-0.00659695
0.000505559
-0.00679213
0.00047137
-0.00699922
0.000434655
-0.007218
0.000395373
-0.00744785
0.000353364
-0.00768757
-0.00793608
0.000308967
6.80531e-05
-0.000762697
0.000206855
-0.00220838
0.000353921
-0.00345333
0.00046786
-0.00436099
0.000536101
-0.00493961
0.000564941
-0.00528187
0.000566995
-0.0054901
0.000553362
-0.00563921
0.000531096
-0.00577166
0.000503759
-0.00590682
0.000472833
-0.00605171
0.000438857
-0.00620829
0.000402
-0.00637681
0.000362314
-0.00655726
0.00031981
-0.00674962
0.000274497
-0.00695391
0.000226414
-0.00716992
0.000175428
-0.00739687
0.000121218
-0.00763336
-0.00787713
6.22726e-05
6.6894e-05
-0.000829591
0.000196617
-0.0023381
0.000326445
-0.00358316
0.000419467
-0.00445401
0.000467566
-0.00498771
0.000479263
-0.00529356
0.000467326
-0.00547817
0.000441953
-0.00561383
0.000409158
-0.00573887
0.000371762
-0.00586943
0.000330854
-0.0060108
0.000286785
-0.00616422
0.000239651
-0.00632967
0.000189471
-0.00650708
0.000136188
-0.00669634
7.97989e-05
-0.00689752
2.02721e-05
-0.00711039
-4.20799e-05
-0.00733451
-0.000107876
-0.00756756
-0.00780673
-0.000178278
6.4903e-05
-0.000894494
0.000184197
-0.00245739
0.000296237
-0.0036952
0.000368849
-0.00452663
0.000397928
-0.00501679
0.000393663
-0.0052893
0.000368641
-0.00545314
0.000332085
-0.00557728
0.000289055
-0.00569584
0.000241745
-0.00582212
0.000190934
-0.00595999
0.000136856
-0.00611014
7.94727e-05
-0.00627229
1.88132e-05
-0.00644642
-4.5067e-05
-0.00663246
-0.000112314
-0.00683027
-0.00018287
-0.00703984
-0.0002569
-0.00726048
-0.000334709
-0.00748975
-0.00772549
-0.000415947
6.21108e-05
-0.000956605
0.000169846
-0.00256513
0.000263832
-0.00378919
0.000316678
-0.00457947
0.000327827
-0.00502794
0.000308654
-0.00527013
0.000271307
-0.0054158
0.000224018
-0.00552999
0.00017098
-0.0056428
0.000113889
-0.00576502
5.31959e-05
-0.0058993
-1.09114e-05
-0.00604603
-7.82497e-05
-0.00620495
-0.000149102
-0.00637557
-0.000223573
-0.00655799
-0.000301645
-0.0067522
-0.000383316
-0.00695817
-0.000468701
-0.0071751
-0.000557897
-0.00740056
-0.00763263
-0.000650757
5.85673e-05
-0.00101517
0.000153857
-0.00266042
0.000229733
-0.00386506
0.000263544
-0.00461328
0.000257803
-0.0050222
0.000224647
-0.00523697
0.000175614
-0.00536676
0.000117969
-0.00547234
5.50445e-05
-0.00557987
-1.18224e-05
-0.00569816
-8.20385e-05
-0.00582908
-0.000155816
-0.00597225
-0.000233264
-0.0061275
-0.000314351
-0.00629448
-0.000399234
-0.0064731
-0.000487981
-0.00666346
-0.000580621
-0.00686553
-0.000677179
-0.00707854
-0.000777667
-0.00730007
-0.00752818
-0.000882121
5.43361e-05
-0.00106951
0.000136514
-0.0027426
0.000194401
-0.00392295
0.00020996
-0.00462884
0.000188298
-0.00500053
0.000141973
-0.00519064
8.17898e-05
-0.00530658
1.39177e-05
-0.00540447
-5.84665e-05
-0.00550749
-0.000134685
-0.00562194
-0.000214632
-0.00574913
-0.000298184
-0.0058887
-0.000385487
-0.0060402
-0.000476641
-0.00620333
-0.000571787
-0.00637796
-0.000671047
-0.0065642
-0.000774474
-0.0067621
-0.000882052
-0.00697096
-0.000993721
-0.0071884
-0.00741233
-0.00110957
4.94921e-05
-0.001119
0.000118083
-0.00281119
0.000158256
-0.00396312
0.000156367
-0.00462695
0.000119676
-0.00496384
6.08871e-05
-0.00513186
-1.01311e-05
-0.00523556
-8.74717e-05
-0.00532713
-0.000169398
-0.00542556
-0.000255103
-0.00553623
-0.000344519
-0.00565972
-0.000437682
-0.00579554
-0.000534709
-0.00594317
-0.000635757
-0.00610228
-0.000740998
-0.00627272
-0.000850593
-0.0064546
-0.000964628
-0.00664806
-0.00108307
-0.00685252
-0.00120578
-0.0070657
-0.00728534
-0.00133277
4.41198e-05
-0.00116312
9.88275e-05
-0.00286589
0.000121678
-0.00398597
0.000103114
-0.00460839
5.22399e-05
-0.00491297
-1.83736e-05
-0.00506124
-9.94223e-05
-0.00515451
-0.000186502
-0.00524005
-0.000277759
-0.00533431
-0.00037277
-0.00544122
-0.000471528
-0.00556096
-0.000574138
-0.00569293
-0.000680738
-0.00583657
-0.00079151
-0.00599151
-0.000906656
-0.00615757
-0.00102638
-0.00633488
-0.00115081
-0.00652363
-0.00127995
-0.00672338
-0.00141352
-0.00693213
-0.00714745
-0.00155141
3.83051e-05
-0.00120142
7.90079e-05
-0.0029066
8.50249e-05
-0.00399199
5.0492e-05
-0.00457386
-1.36805e-05
-0.0048488
-9.54925e-05
-0.00497943
-0.000186567
-0.00506344
-0.000282988
-0.00514363
-0.000383402
-0.00523389
-0.000487554
-0.00533707
-0.000595507
-0.00545301
-0.000707403
-0.00558104
-0.000823405
-0.00572057
-0.000943714
-0.0058712
-0.00106856
-0.00603273
-0.00119818
-0.00620526
-0.00133279
-0.00638902
-0.00147241
-0.00658376
-0.00161665
-0.00678789
-0.00699891
-0.00176519
3.2125e-05
-0.00123355
5.885e-05
-0.00293332
4.86173e-05
-0.00398176
-6.82932e-08
-0.00452517
-7.78381e-05
-0.00477103
-0.00017058
-0.00488669
-0.000271285
-0.00496273
-0.00037682
-0.00503809
-0.00048621
-0.0051245
-0.000599336
-0.00522395
-0.000716318
-0.00533602
-0.000837326
-0.00546003
-0.000962547
-0.00559535
-0.0010922
-0.00574155
-0.00122652
-0.0058984
-0.0013658
-0.00606597
-0.00151033
-0.00624449
-0.0016602
-0.00643389
-0.0018149
-0.00663318
-0.00684003
-0.00197378
2.56841e-05
-0.00125923
3.85359e-05
-0.00294617
1.29876e-05
-0.00395621
-5.1618e-05
-0.00446056
-0.000140553
-0.00468209
-0.000243459
-0.00478378
-0.000353466
-0.00485273
-0.000467899
-0.00492366
-0.000586079
-0.00500632
-0.000708001
-0.00510202
-0.00083383
-0.00521019
-0.000963764
-0.00533009
-0.00109801
-0.0054611
-0.00123679
-0.00560277
-0.00138037
-0.00575482
-0.00152905
-0.00591729
-0.00168322
-0.00609033
-0.00184308
-0.00627403
-0.00200798
-0.00646828
-0.00667129
-0.00217672
1.91551e-05
-0.00127839
1.83222e-05
-0.00294534
-2.30586e-05
-0.00391483
-0.000100817
-0.00438281
-0.000201315
-0.00458159
-0.000314015
-0.00467108
-0.000433021
-0.00473372
-0.000556137
-0.00480055
-0.000682911
-0.00487955
-0.000813436
-0.0049715
-0.000947919
-0.00507571
-0.00108658
-0.00519143
-0.00122964
-0.00531804
-0.00137734
-0.00545507
-0.00152994
-0.00560223
-0.00168775
-0.00575948
-0.00185125
-0.00592683
-0.00202078
-0.0061045
-0.00219554
-0.00629352
-0.00649317
-0.00237366
1.24488e-05
-0.00129084
-9.66477e-08
-0.0029328
-5.81688e-05
-0.00385676
-0.000148736
-0.00429224
-0.000260067
-0.00447026
-0.000382173
-0.00454898
-0.000509886
-0.00460601
-0.000641453
-0.00466898
-0.000776613
-0.00474439
-0.000915535
-0.00483258
-0.00105846
-0.00493278
-0.00120564
-0.00504425
-0.00135732
-0.00516637
-0.00151372
-0.00529867
-0.00167509
-0.00544086
-0.00184175
-0.00559282
-0.00201422
-0.00575436
-0.00219302
-0.0059257
-0.00237742
-0.00610912
-0.0063056
-0.00256499
5.17399e-06
-0.00129601
-2.23745e-05
-0.00290525
-9.24436e-05
-0.00378669
-0.000195119
-0.00418956
-0.000316731
-0.00434865
-0.000447853
-0.00441786
-0.000583991
-0.00446987
-0.000723772
-0.0045292
-0.000867096
-0.00460106
-0.00101419
-0.00468548
-0.00116535
-0.00478163
-0.00132083
-0.00488877
-0.00148089
-0.0050063
-0.00164578
-0.00513377
-0.00181573
-0.00527091
-0.00199102
-0.00541753
-0.00217214
-0.00557324
-0.0023597
-0.00573815
-0.00255345
-0.00591537
-0.00610864
-0.00275042
-2.23014e-06
-0.00129378
-4.25893e-05
-0.00286489
-0.000125698
-0.00370358
-0.000239827
-0.00407543
-0.000371214
-0.00421726
-0.000510991
-0.00427808
-0.000655272
-0.00432559
-0.000803021
-0.00438145
-0.000954271
-0.00444981
-0.00110931
-0.00453044
-0.00126845
-0.00462249
-0.00143199
-0.00472523
-0.00160023
-0.00483807
-0.00177341
-0.00496059
-0.00195178
-0.00509253
-0.00213566
-0.00523366
-0.00232542
-0.00538347
-0.00252141
-0.00554216
-0.00272271
-0.00571407
-0.00590376
-0.00292759
-9.00456e-06
-0.00128478
-6.20553e-05
-0.00281184
-0.000157788
-0.00360785
-0.000282799
-0.00395042
-0.000423464
-0.0040766
-0.000571535
-0.00413001
-0.000723674
-0.00417345
-0.000879132
-0.00422599
-0.00103806
-0.00429089
-0.00120078
-0.00436771
-0.00136766
-0.00445562
-0.00153901
-0.00455388
-0.00171515
-0.00466193
-0.00189638
-0.00477936
-0.00208302
-0.0049059
-0.00227548
-0.0050412
-0.00247414
-0.00518481
-0.00267928
-0.00533701
-0.00289094
-0.00550241
-0.00569931
-0.00309539
-1.59021e-05
-0.00126888
-8.08902e-05
-0.00274685
-0.000188638
-0.0035001
-0.000323963
-0.0038151
-0.000473432
-0.00392713
-0.000629439
-0.003974
-0.000789143
-0.00401374
-0.000952038
-0.00406309
-0.00111837
-0.00412456
-0.00128851
-0.00419757
-0.00146285
-0.00428128
-0.00164174
-0.00437499
-0.00182551
-0.00447815
-0.0020145
-0.00459037
-0.00220909
-0.0047113
-0.0024098
-0.00484049
-0.00261699
-0.00497761
-0.00283011
-0.0051239
-0.00304939
-0.00528313
-0.00545024
-0.00329847
-2.27e-05
-0.00124618
-9.90821e-05
-0.00267047
-0.000218191
-0.00338099
-0.00036326
-0.00367003
-0.000521077
-0.00376931
-0.000684665
-0.00381041
-0.00085163
-0.00384678
-0.00102168
-0.00389305
-0.00119513
-0.00395111
-0.00137242
-0.00402029
-0.00155393
-0.00409976
-0.00174006
-0.00418886
-0.00193117
-0.00428705
-0.00212762
-0.00439392
-0.00232981
-0.00450911