/*--------------------------------*- C++ -*----------------------------------*\
  =========                 |
  \\      /  F ield         | OpenFOAM: The Open Source CFD Toolbox
   \\    /   O peration     | Website:  https://openfoam.org
    \\  /    A nd           | Version:  7
     \\/     M anipulation  |
\*---------------------------------------------------------------------------*/
FoamFile
{
    version     2.0;
    format      ascii;
    class       volScalarField;
    location    "35";
    object      p;
}
// * * * * * * * * * * * * * * * * * * * * * * * * * * * * * * * * * * * * * //

dimensions      [0 2 -2 0 0 0 0];

internalField   nonuniform List<scalar> 
1360
(
0.763774
0.737489
0.713411
0.689539
0.665446
0.641042
0.616463
0.591971
0.567843
0.544311
0.521555
0.499697
0.478816
0.458951
0.440111
0.422277
0.405448
0.389694
0.738064
0.713275
0.690844
0.66869
0.646294
0.623505
0.600428
0.57731
0.554426
0.532016
0.51027
0.489322
0.469263
0.450143
0.431969
0.414714
0.398436
0.383429
0.687801
0.665904
0.646656
0.627826
0.608723
0.589078
0.568927
0.54849
0.528038
0.507825
0.488056
0.468891
0.450443
0.432784
0.415918
0.399801
0.384602
0.371049
0.597439
0.582694
0.568581
0.554169
0.539021
0.523072
0.506496
0.489555
0.472516
0.45561
0.439027
0.422915
0.407375
0.39241
0.377951
0.364313
0.352847
0.501619
0.493311
0.484707
0.475158
0.46447
0.452748
0.440235
0.427208
0.413928
0.400619
0.38747
0.374619
0.362071
0.34972
0.338051
0.3292
0.406788
0.404998
0.402965
0.399804
0.39516
0.389048
0.381677
0.373328
0.364284
0.354805
0.345126
0.335428
0.325719
0.315837
0.306436
0.300611
0.307106
0.312007
0.315655
0.317516
0.31749
0.315731
0.312508
0.308121
0.302858
0.296996
0.290769
0.284193
0.276979
0.269848
0.267142
0.225703
0.234186
0.240427
0.2445
0.246643
0.247157
0.246344
0.244505
0.241917
0.238633
0.234206
0.229023
0.228831
0.160274
0.170098
0.177573
0.182978
0.186615
0.188769
0.189699
0.189645
0.188824
0.187077
0.18251
0.107572
0.117818
0.12597
0.132328
0.137173
0.140878
0.144008
0.14636
0.144432
0.0756988
0.0841716
0.091225
0.0974814
0.102883
0.103942
0.050888
0.0587713
0.0627961
0.376094
0.364176
0.353188
0.343054
0.333704
0.32507
0.317093
0.309717
0.302892
0.296572
0.290717
0.28529
0.280258
0.275589
0.271258
0.26724
0.263513
0.260056
0.256851
0.253882
0.251132
0.248586
0.246238
0.24408
0.242097
0.24028
0.238622
0.237115
0.235752
0.234528
0.233438
0.232477
0.231641
0.230928
0.230334
0.229856
0.229493
0.229247
0.229126
0.229112
0.370743
0.359523
0.34912
0.339481
0.33055
0.322274
0.314602
0.307486
0.300885
0.294758
0.28907
0.283787
0.27888
0.274321
0.270085
0.26615
0.262496
0.259103
0.255955
0.253037
0.250335
0.247831
0.245505
0.243379
0.241426
0.239634
0.237997
0.236509
0.235163
0.233954
0.232876
0.231927
0.231101
0.230396
0.229809
0.229337
0.228979
0.228737
0.228617
0.228603
0.360152
0.350314
0.341065
0.332406
0.324307
0.316737
0.309668
0.30307
0.296913
0.291168
0.28581
0.280814
0.276155
0.271813
0.267766
0.263996
0.260487
0.257221
0.254185
0.251366
0.248752
0.246336
0.244102
0.24201
0.240106
0.238362
0.236767
0.235315
0.234001
0.23282
0.231768
0.23084
0.230034
0.229345
0.228771
0.228311
0.227961
0.227726
0.227609
0.227597
0.344542
0.336737
0.329185
0.321967
0.315092
0.308566
0.302388
0.296553
0.291052
0.285873
0.281004
0.276431
0.27214
0.268117
0.26435
0.260825
0.257529
0.254452
0.251582
0.248908
0.246421
0.244114
0.241986
0.240022
0.238178
0.236472
0.234948
0.233556
0.232292
0.231155
0.23014
0.229244
0.228465
0.227799
0.227245
0.226801
0.226464
0.226237
0.226124
0.226112
0.324202
0.319036
0.313687
0.308345
0.303069
0.297908
0.292898
0.288065
0.283425
0.278988
0.27476
0.270741
0.266932
0.263328
0.259926
0.256719
0.253703
0.250871
0.248216
0.245732
0.243412
0.241251
0.239244
0.237387
0.23568
0.234114
0.232635
0.231282
0.230079
0.228999
0.228032
0.227177
0.226432
0.225796
0.225266
0.22484
0.224518
0.2243
0.224191
0.224178
0.299567
0.297612
0.294932
0.291866
0.288531
0.285024
0.281426
0.277802
0.2742
0.270656
0.267198
0.263847
0.260617
0.257517
0.254555
0.251734
0.249056
0.246521
0.244128
0.241875
0.239759
0.237778
0.235929
0.234208
0.232615
0.231147
0.2298
0.228573
0.227435
0.226405
0.225483
0.224677
0.223975
0.223374
0.222872
0.222468
0.222162
0.221954
0.221847
0.221832
0.27068
0.272374
0.272702
0.272232
0.271144
0.269578
0.26766
0.265491
0.263152
0.260704
0.258198
0.255673
0.253162
0.250688
0.248271
0.245925
0.243662
0.24149
0.239415
0.23744
0.235569
0.233803
0.232143
0.230588
0.229138
0.227792
0.226551
0.225412
0.224372
0.22343
0.222587
0.221831
0.221169
0.220601
0.220125
0.219743
0.219452
0.21925
0.219141
0.21912
0.239034
0.245497
0.24972
0.25252
0.254135
0.254794
0.254711
0.254059
0.252979
0.25158
0.249952
0.248166
0.24628
0.244338
0.242376
0.240421
0.238495
0.236616
0.234796
0.233045
0.231371
0.229778
0.22827
0.226851
0.225521
0.224281
0.223131
0.222071
0.221101
0.220219
0.219426
0.218719
0.218097
0.217561
0.217109
0.216738
0.216448
0.216241
0.216119
0.216086
0.185361
0.197715
0.206941
0.213973
0.219341
0.223369
0.226312
0.228374
0.229725
0.230503
0.230823
0.230779
0.230448
0.229896
0.229176
0.228332
0.2274
0.226409
0.225384
0.224344
0.223307
0.222285
0.221289
0.220327
0.219407
0.218534
0.217713
0.216945
0.216236
0.215585
0.214996
0.214468
0.214004
0.213603
0.213267
0.212994
0.212786
0.212643
0.21257
0.212556
0.168227
0.178706
0.187228
0.194272
0.200053
0.204733
0.208468
0.211401
0.213657
0.215344
0.216559
0.21738
0.217879
0.218114
0.218135
0.217985
0.217701
0.217313
0.216847
0.216324
0.215762
0.215177
0.214582
0.213987
0.213401
0.212831
0.212284
0.211764
0.211276
0.210823
0.210407
0.210031
0.209698
0.209407
0.20916
0.208959
0.208803
0.208694
0.208637
0.208625
0.151251
0.160834
0.168954
0.175977
0.182011
0.187144
0.191471
0.195088
0.198082
0.200535
0.202521
0.204105
0.205347
0.206298
0.207002
0.207501
0.207829
0.208015
0.208084
0.208061
0.207963
0.207807
0.207607
0.207376
0.207123
0.206858
0.206588
0.206319
0.206057
0.205806
0.20557
0.205352
0.205155
0.204981
0.204832
0.204709
0.204613
0.204547
0.204511
0.204503
0.136942
0.145805
0.153566
0.160479
0.166596
0.171966
0.176651
0.180713
0.184214
0.187215
0.189772
0.191938
0.193759
0.195281
0.196541
0.197576
0.198417
0.19909
0.199622
0.200033
0.200343
0.200568
0.200723
0.20082
0.200871
0.200885
0.200869
0.200833
0.200781
0.200719
0.200651
0.200582
0.200515
0.200451
0.200395
0.200346
0.200308
0.200281
0.200266
0.200263
0.125457
0.133696
0.141057
0.147741
0.153776
0.159193
0.164029
0.168328
0.172132
0.175486
0.178432
0.181009
0.183256
0.185208
0.186898
0.188356
0.18961
0.190683
0.191598
0.192376
0.193033
0.193586
0.194049
0.194435
0.194754
0.195016
0.19523
0.195403
0.195541
0.195652
0.195738
0.195806
0.195857
0.195896
0.195925
0.195946
0.195961
0.19597
0.195975
0.195976
0.116056
0.123727
0.130689
0.137102
0.14298
0.14834
0.15321
0.157616
0.16159
0.165163
0.168366
0.17123
0.173784
0.176057
0.178075
0.179863
0.181444
0.182839
0.184069
0.18515
0.186099
0.18693
0.187657
0.188292
0.188844
0.189324
0.18974
0.190099
0.190408
0.190673
0.190898
0.191089
0.191248
0.19138
0.191487
0.191571
0.191634
0.191677
0.1917
0.191705
0.108361
0.115509
0.122082
0.128205
0.133883
0.139126
0.143952
0.14838
0.15243
0.156126
0.159489
0.162544
0.165312
0.167816
0.170077
0.172116
0.173951
0.175601
0.177082
0.17841
0.179599
0.180661
0.18161
0.182455
0.183207
0.183874
0.184465
0.184986
0.185444
0.185845
0.186193
0.186493
0.186749
0.186964
0.187141
0.187281
0.187388
0.187461
0.187499
0.187508
0.102061
0.108731
0.114933
0.120763
0.126221
0.131311
0.136046
0.140437
0.144499
0.148247
0.151699
0.154872
0.157782
0.160447
0.162884
0.165108
0.167137
0.168983
0.170662
0.172187
0.173569
0.174821
0.175952
0.176973
0.177892
0.178718
0.179458
0.180118
0.180704
0.181222
0.181677
0.182073
0.182413
0.182701
0.182938
0.183129
0.183274
0.183374
0.183426
0.183438
0.0968948
0.103134
0.108989
0.114535
0.119767
0.124687
0.129302
0.13362
0.137651
0.141405
0.144894
0.148131
0.151128
0.1539
0.156459
0.158817
0.160988
0.162984
0.164815
0.166494
0.16803
0.169433
0.170713
0.171878
0.172936
0.173893
0.174758
0.175535
0.17623
0.176849
0.177395
0.177872
0.178285
0.178635
0.178926
0.17916
0.179339
0.179462
0.179526
0.17954
0.092655
0.0985083
0.104046
0.109323
0.114335
0.11908
0.123562
0.127786
0.131758
0.135484
0.138975
0.142238
0.145283
0.14812
0.15076
0.153211
0.155485
0.15759
0.159537
0.161334
0.16299
0.164513
0.165912
0.167193
0.168363
0.169429
0.170396
0.171271
0.172057
0.17276
0.173383
0.17393
0.174404
0.174808
0.175144
0.175415
0.175622
0.175765
0.17584
0.175856
0.0891748
0.0946871
0.0999376
0.104968
0.109771
0.114345
0.11869
0.122809
0.126707
0.130386
0.133854
0.137117
0.140181
0.143053
0.145742
0.148255
0.150599
0.152784
0.154815
0.156701
0.158449
0.160066
0.161557
0.16293
0.164191
0.165344
0.166396
0.16735
0.168211
0.168983
0.16967
0.170275
0.170801
0.17125
0.171624
0.171927
0.172158
0.172317
0.172401
0.172419
0.086321
0.0915352
0.0965308
0.101338
0.105948
0.11036
0.114572
0.118585
0.1224
0.126022
0.129452
0.132697
0.135759
0.138645
0.141361
0.143911
0.146303
0.148542
0.150634
0.152586
0.154403
0.15609
0.157654
0.159099
0.160431
0.161654
0.162773
0.163792
0.164714
0.165543
0.166282
0.166935
0.167503
0.167989
0.168395
0.168724
0.168975
0.169148
0.16924
0.169259
0.0839881
0.0889449
0.0937173
0.0983261
0.102764
0.107026
0.111113
0.115023
0.118756
0.122314
0.1257
0.128915
0.131963
0.134848
0.137574
0.140145
0.142566
0.144842
0.146976
0.148975
0.150842
0.152583
0.154202
0.155702
0.15709
0.158368
0.15954
0.160609
0.16158
0.162455
0.163237
0.163928
0.164531
0.165048
0.16548
0.165829
0.166097
0.166282
0.166379
0.1664
0.082093
0.0868305
0.0914109
0.0958473
0.100132
0.104262
0.108235
0.112049
0.115704
0.119199
0.122537
0.125718
0.128745
0.131619
0.134345
0.136924
0.139361
0.14166
0.143822
0.145854
0.147757
0.149537
0.151197
0.15274
0.154169
0.155489
0.156703
0.157813
0.158822
0.159733
0.160549
0.161271
0.161901
0.162442
0.162895
0.163262
0.163543
0.163737
0.16384
0.163861
0.0805703
0.0851245
0.089543
0.0938327
0.097987
0.102002
0.105874
0.109603
0.113186
0.116623
0.119914
0.123059
0.126061
0.12892
0.131639
0.134219
0.136663
0.138974
0.141155
0.143209
0.145138
0.146945
0.148635
0.150209
0.15167
0.153023
0.154268
0.155409
0.156448
0.157387
0.158229
0.158975
0.159628
0.160188
0.160658
0.161038
0.16133
0.161531
0.161637
0.16166
0.0793696
0.0837743
0.0880598
0.0922283
0.0962735
0.100192
0.103979
0.107634
0.111154
0.114539
0.117788
0.1209
0.123877
0.126719
0.129427
0.132004
0.13445
0.136767
0.138959
0.141026
0.142973
0.1448
0.146511
0.148107
0.149592
0.150968
0.152237
0.153401
0.154463
0.155424
0.156286
0.157051
0.15772
0.158295
0.158777
0.159168
0.159468
0.159675
0.159784
0.159808
0.0784522
0.0827395
0.0869198
0.0909919
0.0949501
0.0987902
0.102509
0.106104
0.109572
0.112914
0.116126
0.119209
0.122164
0.124989
0.127687
0.130257
0.132701
0.135022
0.137219
0.139295
0.141253
0.143093
0.144819
0.146431
0.147933
0.149326
0.150612
0.151793
0.152871
0.153848
0.154725
0.155504
0.156186
0.156772
0.157264
0.157663
0.157969
0.15818
0.158292
0.158315
0.0777891
0.0819895
0.0860917
0.0900918
0.0939847
0.0977661
0.101433
0.104982
0.108411
0.111718
0.114902
0.117962
0.120898
0.12371
0.126398
0.128962
0.131404
0.133724
0.135924
0.138006
0.13997
0.141819
0.143554
0.145178
0.146691
0.148095
0.149393
0.150586
0.151676
0.152664
0.153551
0.15434
0.155031
0.155625
0.156124
0.156528
0.156839
0.157053
0.157166
0.15719
0.0773614
0.0815039
0.0855537
0.0895055
0.0933544
0.0970963
0.100728
0.104246
0.107648
0.110932
0.114096
0.117141
0.120064
0.122866
0.125546
0.128106
0.130545
0.132865
0.135066
0.13715
0.139118
0.140972
0.142713
0.144343
0.145863
0.147275
0.148581
0.149781
0.150878
0.151873
0.152767
0.153562
0.154259
0.154858
0.155361
0.155769
0.156082
0.156298
0.156412
0.156437
0.0771642
0.0812719
0.0852923
0.0892183
0.0930444
0.096766
0.10038
0.103882
0.10727
0.110542
0.113697
0.116733
0.11965
0.122446
0.125123
0.12768
0.130118
0.132437
0.134639
0.136724
0.138694
0.14055
0.142294
0.143927
0.14545
0.146866
0.148175
0.149379
0.150479
0.151478
0.152375
0.153173
0.153872
0.154474
0.154979
0.155389
0.155704
0.155921
0.156035
0.15606
0.170163
0.155122
0.138539
0.125005
0.114149
0.105362
0.0982769
0.0925693
0.0879689
0.0842581
0.0812628
0.0788452
0.0768971
0.0753339
0.0740902
0.0731157
0.0723723
0.0718307
0.0714727
0.0713083
0.134127
0.122727
0.11048
0.10076
0.0929618
0.0866891
0.0816869
0.0777074
0.0745413
0.0720201
0.0700097
0.0684042
0.0671211
0.0660966
0.0652813
0.0646378
0.0641378
0.0637579
0.0634824
0.0633437
0.0963931
0.0881857
0.0800359
0.0742582
0.0699074
0.0665523
0.0639715
0.0619807
0.0604394
0.0592413
0.0583056
0.057571
0.0569907
0.0565287
0.0561578
0.0558574
0.055612
0.0554066
0.0552271
0.0551172
0.0601214
0.0565525
0.052532
0.0501757
0.048705
0.0477691
0.0472082
0.0468979
0.0467497
0.0467024
0.0467151
0.0467598
0.046817
0.0468728
0.0469172
0.0469429
0.046945
0.0469155
0.0468415
0.0467683
)
;

boundaryField
{
    inlet
    {
        type            zeroGradient;
    }
    outlet
    {
        type            fixedValue;
        value           nonuniform 0();
    }
    cylinder
    {
        type            zeroGradient;
    }
    top
    {
        type            symmetryPlane;
    }
    bottom
    {
        type            symmetryPlane;
    }
    defaultFaces
    {
        type            empty;
    }
    procBoundary0to1
    {
        type            processor;
        value           nonuniform List<scalar> 
50
(
0.79933
0.772203
0.719188
0.615244
0.615244
0.510849
0.510849
0.409858
0.302087
0.302087
0.203439
0.215211
0.215211
0.133066
0.14792
0.14792
0.0796367
0.0949278
0.0949278
0.0383907
0.0530934
0.0654321
0.0654321
0.0201604
0.0318946
0.0419498
0.0419498
0.00567141
0.015751
0.0225239
0.0247513
0.0262459
0.026602
0.0276358
0.0288432
0.0300506
0.0312389
0.0323824
0.033444
0.0344048
0.0352588
0.0360051
0.0366454
0.0371824
0.0376193
0.0379589
0.0382044
0.0383542
0.0383972
0.0383738
)
;
    }
    procBoundary0to4
    {
        type            processor;
        value           nonuniform List<scalar> 
58
(
0.763774
0.737489
0.713411
0.689539
0.665446
0.641042
0.616463
0.591971
0.567843
0.544311
0.521555
0.499697
0.478816
0.458951
0.440111
0.422277
0.405448
0.389694
0.376094
0.364176
0.353188
0.343054
0.333704
0.32507
0.317093
0.309717
0.302892
0.296572
0.290717
0.28529
0.280258
0.275589
0.271258
0.26724
0.263513
0.260056
0.256851
0.253882
0.251132
0.248586
0.246238
0.24408
0.242097
0.24028
0.238622
0.237115
0.235752
0.234528
0.233438
0.232477
0.231641
0.230928
0.230334
0.229856
0.229493
0.229247
0.229126
0.229112
)
;
    }
}


// ************************************************************************* //
