/*--------------------------------*- C++ -*----------------------------------*\
  =========                 |
  \\      /  F ield         | OpenFOAM: The Open Source CFD Toolbox
   \\    /   O peration     | Website:  https://openfoam.org
    \\  /    A nd           | Version:  7
     \\/     M anipulation  |
\*---------------------------------------------------------------------------*/
FoamFile
{
    version     2.0;
    format      ascii;
    class       volScalarField;
    location    "80";
    object      p;
}
// * * * * * * * * * * * * * * * * * * * * * * * * * * * * * * * * * * * * * //

dimensions      [0 2 -2 0 0 0 0];

internalField   nonuniform List<scalar> 
14000
(
-0.228096
-0.231697
-0.23315
-0.234808
-0.236519
-0.238113
-0.239324
-0.23988
-0.240226
-0.23825
-0.229116
-0.232509
-0.233879
-0.235478
-0.237141
-0.238718
-0.239976
-0.240224
-0.241179
-0.238165
-0.231086
-0.234077
-0.235274
-0.236744
-0.2383
-0.239805
-0.241335
-0.240571
-0.243381
-0.237794
-0.233812
-0.236236
-0.237142
-0.23838
-0.239746
-0.240954
-0.243309
-0.240186
-0.246846
-0.236298
-0.23707
-0.23879
-0.239253
-0.240104
-0.241208
-0.241719
-0.245572
-0.238729
-0.249817
-0.234823
-0.240661
-0.241567
-0.241402
-0.241653
-0.242383
-0.242101
-0.246423
-0.237316
-0.251666
-0.233476
-0.244475
-0.244467
-0.24347
-0.242908
-0.2429
-0.242167
-0.246137
-0.235743
-0.249717
-0.234039
-0.248531
-0.247484
-0.245461
-0.243882
-0.242935
-0.241762
-0.244033
-0.235469
-0.243125
-0.233473
-0.253027
-0.250703
-0.247539
-0.244759
-0.242699
-0.240934
-0.24036
-0.234821
-0.234148
-0.227729
-0.258284
-0.2544
-0.249956
-0.245825
-0.242501
-0.239533
-0.236078
-0.230883
-0.223818
-0.216926
-0.264663
-0.258948
-0.253053
-0.24738
-0.242451
-0.237483
-0.231205
-0.223762
-0.212522
-0.202643
-0.272606
-0.264727
-0.257107
-0.249566
-0.242459
-0.234682
-0.22523
-0.21449
-0.201466
-0.189484
-0.282581
-0.272063
-0.26226
-0.252466
-0.24234
-0.230929
-0.218044
-0.2045
-0.189842
-0.176764
-0.294995
-0.281097
-0.268693
-0.256012
-0.241742
-0.226069
-0.209867
-0.193754
-0.177989
-0.164557
-0.310113
-0.291571
-0.276653
-0.259768
-0.24017
-0.219986
-0.200593
-0.182451
-0.16591
-0.151853
-0.327909
-0.303144
-0.28566
-0.262817
-0.237104
-0.212458
-0.190245
-0.170437
-0.153216
-0.138644
-0.347209
-0.315865
-0.294002
-0.263905
-0.232019
-0.203298
-0.178627
-0.157501
-0.139769
-0.124583
-0.365984
-0.329553
-0.299793
-0.261893
-0.224428
-0.192207
-0.165527
-0.143413
-0.125269
-0.109687
-0.382062
-0.342546
-0.301924
-0.256085
-0.213869
-0.178871
-0.150661
-0.127891
-0.109594
-0.0939627
-0.393772
-0.351953
-0.29951
-0.246082
-0.199962
-0.162946
-0.133741
-0.110698
-0.0925493
-0.0773751
-0.399991
-0.355124
-0.291375
-0.231489
-0.18239
-0.144132
-0.114523
-0.0916416
-0.0739724
-0.0595306
-0.39974
-0.350138
-0.276643
-0.211879
-0.160888
-0.122196
-0.0928472
-0.0706765
-0.0537707
-0.03987
-0.39185
-0.335932
-0.254797
-0.186892
-0.135244
-0.097035
-0.0686831
-0.0478502
-0.0319724
-0.0184059
-0.37493
-0.311991
-0.225515
-0.156317
-0.105426
-0.0687699
-0.0421664
-0.0231958
-0.00837661
0.00378286
-0.347627
-0.278187
-0.188565
-0.120281
-0.0717025
-0.0377119
-0.0135414
0.00344814
0.0167764
0.0266973
-0.309005
-0.234646
-0.144034
-0.0793234
-0.0344554
-0.00386388
0.0171474
0.0317552
0.0429818
0.0501346
-0.258836
-0.181408
-0.0929309
-0.0336959
0.00615558
0.0323752
0.0495991
0.0612032
0.0695612
0.0733615
-0.197555
-0.11836
-0.0366433
0.0159249
0.0495861
0.0705626
0.0834012
0.0912057
0.0956475
0.0953808
-0.125707
-0.0476595
0.024099
0.0685459
0.0951243
0.110184
0.118099
0.121301
0.120743
0.115935
-0.0437611
0.0270327
0.0881697
0.123159
0.141936
0.150584
0.153125
0.151212
0.145428
0.136787
0.0447847
0.104455
0.154007
0.178658
0.189096
0.190956
0.187743
0.180536
0.170234
0.16258
0.136804
0.182985
0.219942
0.233798
0.235608
0.230452
0.221258
0.208915
0.195275
0.187212
0.228941
0.260516
0.284276
0.287258
0.28042
0.26826
0.253247
0.236292
0.219744
0.209258
0.317849
0.334817
0.34532
0.3377
0.322456
0.303509
0.283004
0.261926
0.242602
0.229049
0.400297
0.403675
0.401432
0.383828
0.360721
0.335478
0.30998
0.285172
0.263031
0.246272
0.473454
0.464938
0.451028
0.4244
0.394235
0.363399
0.333549
0.305492
0.280695
0.260852
0.535178
0.51643
0.49262
0.458308
0.422157
0.386607
0.353124
0.322339
0.295204
0.272614
0.583444
0.556479
0.524942
0.484603
0.443766
0.404545
0.368253
0.335341
0.306311
0.281453
0.616588
0.583862
0.54703
0.50255
0.458492
0.416757
0.37855
0.344183
0.313822
0.287333
0.63345
0.597757
0.558232
0.511646
0.465949
0.422938
0.38376
0.348653
0.317606
0.290259
0.633438
0.597746
0.558223
0.511637
0.465942
0.422931
0.383754
0.348648
0.317601
0.290254
0.616552
0.58383
0.547002
0.502525
0.458469
0.416736
0.378531
0.344165
0.313806
0.287319
0.583383
0.556425
0.524896
0.484562
0.443729
0.404511
0.368222
0.335312
0.306284
0.28143
0.535092
0.516355
0.492555
0.45825
0.422105
0.386559
0.35308
0.322299
0.295167
0.272581
0.473342
0.46484
0.450944
0.424326
0.394168
0.363338
0.333493
0.30544
0.280647
0.260809
0.400159
0.403556
0.401329
0.383737
0.360638
0.335403
0.309911
0.285108
0.262973
0.24622
0.317684
0.334674
0.345197
0.337591
0.322358
0.30342
0.282923
0.261851
0.242533
0.228987
0.228747
0.260351
0.284134
0.287132
0.280307
0.268157
0.253153
0.236205
0.219663
0.209186
0.136583
0.182795
0.219779
0.233654
0.235479
0.230335
0.221151
0.208817
0.195184
0.18713
0.0445349
0.104241
0.153823
0.178496
0.188951
0.190824
0.187623
0.180426
0.170132
0.162487
-0.0440388
0.0267949
0.0879649
0.122979
0.141774
0.150438
0.152992
0.15109
0.145316
0.136682
-0.126012
-0.0479218
0.0238733
0.0683474
0.0949467
0.110024
0.117953
0.121167
0.120621
0.115822
-0.197886
-0.118646
-0.0368896
0.0157081
0.0493922
0.0703874
0.0832419
0.0910607
0.0955155
0.0952597
-0.259191
-0.18172
-0.0931972
-0.0339311
0.00594536
0.0321854
0.0494266
0.0610463
0.069419
0.0732319
-0.309381
-0.234981
-0.144321
-0.0795769
-0.0346819
-0.00406823
0.0169615
0.0315863
0.0428288
0.0499958
-0.348021
-0.278543
-0.188872
-0.120552
-0.0719452
-0.0379308
-0.0137409
0.00326704
0.0166125
0.0265492
-0.37534
-0.312366
-0.225842
-0.156605
-0.105684
-0.0690036
-0.0423798
-0.0233892
-0.00855188
0.00362545
-0.392271
-0.336324
-0.255142
-0.187197
-0.135518
-0.0972838
-0.0689099
-0.0480564
-0.0321595
-0.0185725
-0.40017
-0.350546
-0.277004
-0.2122
-0.161178
-0.122461
-0.0930884
-0.0708962
-0.0539692
-0.040046
-0.400427
-0.355544
-0.291749
-0.231825
-0.182696
-0.144413
-0.11478
-0.0918757
-0.0741834
-0.0597176
-0.394212
-0.35238
-0.299897
-0.246433
-0.200284
-0.163243
-0.134015
-0.110949
-0.0927749
-0.0775743
-0.382503
-0.342975
-0.302319
-0.25645
-0.214207
-0.179186
-0.150953
-0.12816
-0.109837
-0.0941757
-0.366424
-0.329979
-0.300194
-0.262269
-0.224781
-0.192541
-0.165841
-0.143703
-0.125532
-0.109916
-0.347643
-0.316282
-0.294405
-0.264291
-0.232389
-0.203653
-0.178967
-0.157818
-0.140057
-0.124833
-0.328335
-0.303552
-0.286061
-0.263209
-0.237489
-0.212838
-0.190614
-0.170787
-0.153534
-0.13892
-0.310528
-0.291971
-0.277047
-0.260162
-0.240569
-0.220393
-0.200999
-0.182841
-0.166268
-0.152163
-0.2954
-0.281488
-0.269077
-0.256404
-0.242156
-0.226506
-0.210318
-0.194197
-0.178398
-0.16491
-0.282982
-0.272446
-0.262636
-0.252856
-0.242766
-0.231401
-0.218549
-0.205011
-0.190319
-0.17717
-0.273005
-0.265105
-0.25748
-0.249956
-0.242899
-0.23519
-0.225798
-0.215085
-0.202032
-0.189969
-0.265065
-0.259326
-0.253427
-0.247776
-0.242907
-0.238029
-0.23184
-0.224459
-0.213208
-0.203231
-0.258693
-0.254779
-0.250337
-0.246233
-0.242977
-0.240117
-0.236781
-0.231691
-0.22466
-0.21769
-0.253437
-0.251085
-0.247928
-0.245181
-0.243198
-0.241554
-0.241118
-0.235738
-0.235143
-0.228689
-0.248934
-0.247863
-0.245854
-0.244317
-0.243452
-0.242411
-0.244829
-0.236474
-0.244231
-0.234616
-0.244863
-0.244836
-0.243855
-0.243342
-0.24342
-0.242828
-0.246948
-0.236784
-0.250892
-0.235313
-0.241021
-0.241912
-0.241766
-0.242068
-0.242883
-0.242745
-0.247215
-0.238335
-0.252858
-0.234777
-0.237388
-0.239096
-0.23958
-0.24048
-0.241667
-0.242301
-0.246294
-0.239675
-0.250923
-0.23604
-0.234076
-0.236491
-0.237416
-0.238697
-0.240134
-0.241447
-0.243933
-0.240971
-0.247811
-0.23734
-0.231283
-0.234269
-0.235481
-0.236984
-0.238595
-0.240178
-0.241809
-0.241166
-0.244105
-0.238596
-0.229238
-0.232628
-0.234008
-0.235628
-0.237324
-0.23895
-0.240271
-0.240594
-0.241629
-0.238662
-0.228137
-0.231738
-0.233194
-0.234859
-0.236582
-0.238192
-0.239425
-0.240005
-0.240378
-0.238416
-0.237428
-0.236647
-0.235766
-0.234799
-0.233752
-0.232632
-0.231444
-0.230195
-0.228889
-0.227529
-0.226117
-0.224653
-0.223138
-0.221573
-0.219955
-0.218286
-0.216564
-0.214787
-0.212955
-0.211065
-0.209114
-0.207131
-0.205099
-0.203011
-0.200865
-0.198661
-0.196402
-0.194091
-0.191724
-0.189303
-0.186826
-0.184294
-0.181707
-0.179065
-0.176371
-0.173626
-0.17083
-0.167987
-0.165098
-0.162165
-0.159191
-0.156179
-0.153131
-0.150049
-0.146937
-0.143795
-0.140627
-0.137435
-0.13423
-0.131016
-0.127793
-0.124563
-0.12133
-0.118097
-0.114863
-0.111649
-0.108444
-0.105252
-0.102076
-0.0989202
-0.095784
-0.0926641
-0.0895474
-0.0865464
-0.0835675
-0.0806196
-0.0777094
-0.0748412
-0.0720183
-0.0692428
-0.066517
-0.0638428
-0.0612219
-0.0586553
-0.0561434
-0.0536887
-0.051291
-0.0489507
-0.0466681
-0.0444429
-0.0422743
-0.0401597
-0.0380885
-0.036098
-0.034166
-0.0322894
-0.0304675
-0.0287001
-0.0269867
-0.0253273
-0.0237217
-0.0221702
-0.0206674
-0.0192166
-0.0178176
-0.0164699
-0.0151733
-0.0139273
-0.0127317
-0.0115862
-0.0104906
-0.00944466
-0.00844828
-0.00750126
-0.00660346
-0.00575479
-0.00495518
-0.00420463
-0.00350317
-0.00285093
-0.00224815
-0.00169521
-0.00119276
-0.000741685
-0.000343499
3.66301e-07
0.000284364
0.000516479
0.000626475
0.000881437
-0.237744
-0.236941
-0.236037
-0.235065
-0.234023
-0.232917
-0.231754
-0.230539
-0.229275
-0.227963
-0.226604
-0.225198
-0.223743
-0.22224
-0.220684
-0.219075
-0.21741
-0.215687
-0.213902
-0.212055
-0.210182
-0.208232
-0.206221
-0.204148
-0.202012
-0.19981
-0.197544
-0.195211
-0.192811
-0.190345
-0.187813
-0.185214
-0.18255
-0.179822
-0.177032
-0.174182
-0.171275
-0.168314
-0.165303
-0.162243
-0.159141
-0.155999
-0.152822
-0.149614
-0.14638
-0.143124
-0.139851
-0.136566
-0.133274
-0.129982
-0.126692
-0.12341
-0.120139
-0.116883
-0.113645
-0.110432
-0.107245
-0.104089
-0.100966
-0.0978806
-0.0948371
-0.0918451
-0.0889222
-0.0859596
-0.0830579
-0.080212
-0.0774188
-0.0746778
-0.0719874
-0.0693491
-0.0667622
-0.0642268
-0.0617429
-0.0593104
-0.0569288
-0.0545978
-0.0523166
-0.0500849
-0.0479021
-0.0457677
-0.0436815
-0.0416444
-0.0396658
-0.0377094
-0.0357967
-0.0339297
-0.032108
-0.030331
-0.0285985
-0.0269104
-0.0252669
-0.0236685
-0.0221139
-0.0206032
-0.019137
-0.0177155
-0.0163394
-0.0150092
-0.0137255
-0.0124889
-0.0112999
-0.0101592
-0.0090675
-0.00802545
-0.00703377
-0.0060932
-0.00520451
-0.00436858
-0.00358637
-0.00285899
-0.00218777
-0.00157432
-0.00102074
-0.000529586
-0.000104736
0.000250139
0.000523967
0.00072436
0.000760009
0.000873093
-0.238468
-0.23752
-0.236556
-0.235574
-0.234534
-0.233438
-0.232295
-0.231107
-0.229879
-0.228611
-0.227301
-0.22595
-0.224555
-0.223113
-0.221621
-0.220074
-0.218466
-0.216794
-0.21506
-0.213293
-0.211451
-0.20954
-0.207559
-0.205507
-0.203384
-0.201186
-0.198914
-0.196566
-0.194141
-0.191639
-0.189061
-0.186406
-0.183677
-0.180875
-0.178002
-0.175062
-0.172059
-0.168995
-0.165876
-0.162706
-0.159491
-0.156235
-0.152945
-0.149626
-0.146284
-0.142926
-0.139558
-0.136185
-0.132814
-0.129452
-0.126103
-0.122772
-0.119465
-0.116184
-0.112938
-0.109743
-0.106568
-0.103439
-0.100356
-0.0973214
-0.0943379
-0.0914078
-0.0885311
-0.0856982
-0.0829179
-0.0801917
-0.0775194
-0.0749003
-0.0723335
-0.0698179
-0.0673521
-0.0649351
-0.0625655
-0.060242
-0.0579631
-0.0557275
-0.0535339
-0.051381
-0.0492678
-0.0471932
-0.0451569
-0.0431591
-0.0412003
-0.0392748
-0.0373829
-0.0355248
-0.0337007
-0.0319108
-0.0301556
-0.0284356
-0.0267514
-0.0251038
-0.0234933
-0.0219209
-0.0203875
-0.0188942
-0.0174423
-0.0160329
-0.0146675
-0.0133472
-0.0120734
-0.0108475
-0.00967086
-0.00854487
-0.00747092
-0.00645047
-0.00548502
-0.00457617
-0.00372566
-0.00293541
-0.00220769
-0.00154508
-0.000950904
-0.000428896
1.49771e-05
0.000376524
0.000638665
0.000814482
0.000791017
0.000790698
-0.240471
-0.238074
-0.237207
-0.236136
-0.235075
-0.233993
-0.232874
-0.231721
-0.230533
-0.22931
-0.22805
-0.22675
-0.225408
-0.224018
-0.222577
-0.221072
-0.219471
-0.217881
-0.216216
-0.214508
-0.212675
-0.210826
-0.208875
-0.206853
-0.204751
-0.202568
-0.200301
-0.197949
-0.195512
-0.192988
-0.190379
-0.187685
-0.184908
-0.18205
-0.179115
-0.176105
-0.173026
-0.169881
-0.166677
-0.16342
-0.160115
-0.156769
-0.15339
-0.149983
-0.146557
-0.14312
-0.139677
-0.136236
-0.132805
-0.12939
-0.125997
-0.122632
-0.119301
-0.116008
-0.112758
-0.109555
-0.106401
-0.103301
-0.100256
-0.0972682
-0.094339
-0.0914688
-0.0886569
-0.0859017
-0.0832038
-0.0805635
-0.0779797
-0.0754511
-0.0729757
-0.0705517
-0.0681768
-0.0658487
-0.0635651
-0.0613238
-0.0591222
-0.0569584
-0.0548302
-0.0527357
-0.0506732
-0.0486411
-0.0466384
-0.0446642
-0.0427177
-0.0407976
-0.0389036
-0.0370357
-0.0351943
-0.0333798
-0.0315931
-0.0298349
-0.0281063
-0.0264088
-0.0247435
-0.023112
-0.0215159
-0.0199569
-0.0184369
-0.0169576
-0.015521
-0.0141289
-0.0127833
-0.011486
-0.0102391
-0.0090444
-0.00790391
-0.00681961
-0.00579354
-0.00482786
-0.0039249
-0.00308717
-0.00231761
-0.00161943
-0.000996858
-0.000454012
1.40588e-06
0.000366576
0.000619107
0.000779853
0.000726973
0.000660428
-0.239163
-0.238861
-0.237651
-0.23651
-0.235458
-0.234393
-0.2333
-0.232183
-0.231039
-0.229865
-0.22866
-0.227419
-0.226141
-0.22482
-0.22345
-0.222024
-0.220537
-0.218967
-0.217333
-0.215639
-0.213877
-0.21204
-0.210122
-0.208122
-0.206038
-0.203866
-0.201605
-0.199253
-0.196809
-0.194273
-0.191645
-0.188925
-0.186116
-0.18322
-0.180241
-0.177183
-0.174051
-0.170851
-0.167587
-0.164268
-0.160901
-0.157493
-0.154051
-0.150585
-0.147101
-0.143609
-0.140116
-0.13663
-0.13316
-0.129711
-0.126291
-0.122906
-0.119562
-0.116265
-0.113018
-0.109825
-0.10669
-0.103615
-0.100601
-0.0976516
-0.094766
-0.0919447
-0.0891868
-0.0864911
-0.0838565
-0.0812815
-0.0787642
-0.0763022
-0.073893
-0.0715337
-0.0692215
-0.0669532
-0.064726
-0.0625369
-0.0603831
-0.0582618
-0.0561705
-0.0541071
-0.0520696
-0.0500562
-0.0480656
-0.0460967
-0.0441487
-0.042221
-0.0403135
-0.0384263
-0.03656
-0.0347155
-0.0328937
-0.0310961
-0.0293241
-0.0275795
-0.0258641
-0.0241801
-0.0225294
-0.0209142
-0.0193369
-0.0177998
-0.0163051
-0.0148552
-0.0134525
-0.0120992
-0.0107978
-0.00955037
-0.00835942
-0.00722723
-0.00615622
-0.0051489
-0.00420796
-0.00333624
-0.00253705
-0.0018138
-0.00117123
-0.000613018
-0.000147995
0.000223574
0.000476549
0.000637573
0.00059285
0.00051181
-0.236269
-0.237199
-0.23693
-0.236205
-0.235306
-0.234334
-0.233332
-0.232293
-0.231206
-0.230074
-0.228908
-0.227709
-0.226469
-0.225181
-0.223838
-0.222428
-0.220942
-0.219444
-0.217889
-0.216257
-0.214545
-0.212756
-0.210887
-0.208932
-0.206887
-0.20475
-0.202518
-0.200189
-0.197762
-0.195237
-0.192615
-0.189896
-0.187083
-0.184178
-0.181186
-0.178111
-0.174959
-0.171735
-0.168446
-0.1651
-0.161704
-0.158267
-0.154796
-0.151302
-0.147792
-0.144276
-0.140761
-0.137257
-0.133771
-0.130311
-0.126884
-0.123497
-0.120154
-0.116863
-0.113627
-0.11045
-0.107334
-0.104283
-0.101298
-0.0983792
-0.0955281
-0.0927439
-0.0900254
-0.0873713
-0.0847797
-0.0822484
-0.0797747
-0.0773557
-0.0749883
-0.0726691
-0.0703948
-0.0681618
-0.0659667
-0.0638062
-0.0616771
-0.0595765
-0.0575016
-0.05545
-0.0534196
-0.0514087
-0.0494158
-0.04744
-0.0454806
-0.0435373
-0.0416101
-0.0396995
-0.0378063
-0.0359316
-0.0340767
-0.0322433
-0.0304333
-0.0286488
-0.0268919
-0.0251651
-0.0234707
-0.0218114
-0.0201897
-0.0186081
-0.0170694
-0.0155762
-0.0141309
-0.0127363
-0.0113948
-0.010109
-0.00888147
-0.00771463
-0.00661114
-0.00557362
-0.00460491
-0.00370788
-0.00288595
-0.00214227
-0.00148167
-0.000906848
-0.000426757
-3.9191e-05
0.000231651
0.000413795
0.000413744
0.000364633
-0.232799
-0.233605
-0.234379
-0.234395
-0.233806
-0.233057
-0.232321
-0.231521
-0.230596
-0.229581
-0.22852
-0.227424
-0.226283
-0.225092
-0.223847
-0.222538
-0.221145
-0.219613
-0.218064
-0.216494
-0.214845
-0.2131
-0.211262
-0.209334
-0.207314
-0.205201
-0.202992
-0.200687
-0.198284
-0.195782
-0.19318
-0.190479
-0.187682
-0.184791
-0.181812
-0.178748
-0.175604
-0.172388
-0.169106
-0.165766
-0.162376
-0.158944
-0.15548
-0.151991
-0.148488
-0.144978
-0.141472
-0.137977
-0.134502
-0.131054
-0.127641
-0.124269
-0.120945
-0.117672
-0.114457
-0.111301
-0.108209
-0.105183
-0.102224
-0.099332
-0.0965082
-0.0937517
-0.0910612
-0.0884349
-0.0858707
-0.083366
-0.0809178
-0.078523
-0.076178
-0.0738793
-0.0716232
-0.0694061
-0.0672242
-0.0650743
-0.062953
-0.0608572
-0.0587841
-0.0567314
-0.054697
-0.0526791
-0.0506764
-0.048688
-0.0467135
-0.0447526
-0.0428056
-0.0408731
-0.0389562
-0.0370561
-0.0351744
-0.033313
-0.031474
-0.0296595
-0.0278721
-0.0261143
-0.0243887
-0.0226981
-0.0210452
-0.0194327
-0.0178634
-0.0163401
-0.0148654
-0.013442
-0.0120726
-0.0107598
-0.00950605
-0.00831403
-0.00718632
-0.00612548
-0.0051343
-0.00421544
-0.00337213
-0.00260698
-0.00192444
-0.0013261
-0.000819868
-0.000402092
-9.27754e-05
0.0001332
0.000207443
0.000226752
-0.229757
-0.229501
-0.230818
-0.231152
-0.230574
-0.230019
-0.229661
-0.229189
-0.228481
-0.227627
-0.226709
-0.225734
-0.224691
-0.223581
-0.222406
-0.221162
-0.21984
-0.218421
-0.216893
-0.215314
-0.213768
-0.212176
-0.210481
-0.208672
-0.206749
-0.204718
-0.202583
-0.200349
-0.198017
-0.195584
-0.193049
-0.190413
-0.187679
-0.184851
-0.181932
-0.178926
-0.175839
-0.172678
-0.169449
-0.16616
-0.16282
-0.159436
-0.156017
-0.152573
-0.149112
-0.145644
-0.142178
-0.138721
-0.135283
-0.131871
-0.128492
-0.125152
-0.121859
-0.118616
-0.115429
-0.1123
-0.109234
-0.106232
-0.103295
-0.100425
-0.0976207
-0.0948824
-0.0922085
-0.0895973
-0.0870466
-0.0845538
-0.0821158
-0.0797294
-0.0773911
-0.0750973
-0.0728443
-0.0706285
-0.0684464
-0.0662943
-0.0641693
-0.0620681
-0.0599882
-0.0579272
-0.055883
-0.0538542
-0.0518393
-0.0498377
-0.0478489
-0.0458729
-0.04391
-0.041961
-0.040027
-0.0381094
-0.0362098
-0.0343301
-0.0324726
-0.0306395
-0.0288333
-0.0270567
-0.0253123
-0.0236028
-0.0219311
-0.0202998
-0.0187118
-0.0171698
-0.0156764
-0.0142344
-0.0128464
-0.0115148
-0.0102422
-0.009031
-0.00788374
-0.00680276
-0.00579059
-0.00484954
-0.00398241
-0.00319119
-0.00247945
-0.00184794
-0.00130258
-0.000839445
-0.00047247
-0.000182106
-1.24647e-05
0.000100642
-0.224298
-0.2244
-0.226255
-0.226267
-0.22544
-0.225176
-0.225291
-0.225214
-0.224851
-0.224338
-0.223739
-0.223041
-0.222236
-0.221337
-0.220352
-0.219282
-0.218124
-0.216867
-0.215496
-0.213956
-0.212224
-0.210488
-0.208883
-0.207213
-0.205418
-0.203492
-0.201446
-0.199297
-0.19705
-0.194699
-0.192241
-0.189681
-0.187023
-0.184272
-0.181431
-0.178504
-0.175497
-0.172415
-0.169267
-0.166057
-0.162796
-0.15949
-0.156149
-0.152781
-0.149394
-0.145998
-0.142601
-0.139212
-0.135838
-0.132487
-0.129165
-0.125881
-0.122638
-0.119443
-0.1163
-0.113212
-0.110183
-0.107214
-0.104307
-0.101463
-0.0986824
-0.0959641
-0.0933072
-0.0907101
-0.0881708
-0.0856868
-0.0832552
-0.0808729
-0.0785367
-0.0762432
-0.0739888
-0.0717702
-0.0695839
-0.0674266
-0.0652954
-0.0631873
-0.0610998
-0.0590308
-0.0569782
-0.0549407
-0.0529171
-0.0509067
-0.048909
-0.0469242
-0.0449527
-0.0429952
-0.0410528
-0.0391269
-0.0372191
-0.0353313
-0.0334658
-0.0316246
-0.0298103
-0.0280254
-0.0262726
-0.0245544
-0.0228735
-0.0212328
-0.0196348
-0.0180821
-0.0165775
-0.0151234
-0.0137222
-0.0123765
-0.0110885
-0.00986048
-0.0086947
-0.00759326
-0.00655831
-0.00559175
-0.00469573
-0.00387172
-0.0031221
-0.00244714
-0.00185024
-0.00132818
-0.00088828
-0.000517385
-0.000238261
-1.362e-05
-0.21649
-0.218595
-0.220147
-0.219181
-0.218141
-0.218077
-0.218345
-0.218423
-0.218313
-0.218106
-0.217809
-0.217403
-0.216892
-0.216282
-0.215573
-0.214763
-0.213852
-0.212839
-0.21173
-0.210526
-0.209212
-0.207709
-0.205958
-0.204263
-0.202628
-0.20089
-0.199028
-0.197075
-0.195031
-0.192879
-0.190614
-0.188239
-0.185763
-0.183189
-0.18052
-0.177761
-0.174917
-0.171994
-0.168998
-0.165938
-0.162819
-0.15965
-0.15644
-0.153195
-0.149926
-0.14664
-0.143345
-0.140051
-0.136763
-0.133492
-0.130242
-0.127021
-0.123834
-0.120688
-0.117586
-0.114533
-0.111532
-0.108585
-0.105695
-0.102862
-0.100088
-0.097371
-0.0947121
-0.0921094
-0.0895614
-0.0870661
-0.0846209
-0.0822233
-0.0798703
-0.077559
-0.0752861
-0.0730486
-0.0708432
-0.0686671
-0.0665174
-0.0643914
-0.0622868
-0.0602015
-0.0581336
-0.0560819
-0.0540452
-0.0520227
-0.0500141
-0.0480195
-0.0460392
-0.0440738
-0.0421244
-0.0401922
-0.0382789
-0.036386
-0.0345157
-0.0326701
-0.0308515
-0.0290622
-0.0273047
-0.0255815
-0.0238952
-0.0222483
-0.0206433
-0.0190827
-0.017569
-0.0161044
-0.0146913
-0.0133319
-0.0120283
-0.0107825
-0.00959645
-0.00847188
-0.0074105
-0.0064138
-0.00548321
-0.00461975
-0.00382448
-0.00309755
-0.00243968
-0.00184899
-0.00132653
-0.000865707
-0.0004713
-0.000126064
-0.204117
-0.21105
-0.212042
-0.210684
-0.209654
-0.209506
-0.209815
-0.210163
-0.210389
-0.210473
-0.210432
-0.210285
-0.21004
-0.209695
-0.209245
-0.208688
-0.208026
-0.207259
-0.206386
-0.205404
-0.20431
-0.203101
-0.201764
-0.200255
-0.198572
-0.19678
-0.194936
-0.193056
-0.191108
-0.189062
-0.18691
-0.184656
-0.182305
-0.179859
-0.177321
-0.174696
-0.171989
-0.169205
-0.16635
-0.163431
-0.160456
-0.157431
-0.154365
-0.151264
-0.148138
-0.144994
-0.141839
-0.138682
-0.135529
-0.132388
-0.129264
-0.126165
-0.123096
-0.120061
-0.117065
-0.114112
-0.111205
-0.108346
-0.105537
-0.102779
-0.100073
-0.097419
-0.0948165
-0.0922645
-0.0897618
-0.0873065
-0.0848967
-0.0825301
-0.0802042
-0.0779164
-0.0756639
-0.0734442
-0.0712545
-0.0690922
-0.0669551
-0.0648407
-0.0627472
-0.0606727
-0.0586158
-0.0565754
-0.0545505
-0.0525406
-0.0505456
-0.0485654
-0.0466006
-0.0446517
-0.0427198
-0.0408061
-0.038912
-0.0370391
-0.0351893
-0.0333646
-0.0315669
-0.0297985
-0.0280615
-0.0263583
-0.0246911
-0.0230621
-0.0214737
-0.0199279
-0.018427
-0.0169729
-0.0155677
-0.0142131
-0.012911
-0.0116629
-0.0104704
-0.0093348
-0.00825716
-0.00723857
-0.00627954
-0.00538076
-0.00454181
-0.00376298
-0.00304222
-0.00237948
-0.00176963
-0.00121291
-0.000698178
-0.000228112
-0.185618
-0.194822
-0.197849
-0.19734
-0.196404
-0.196264
-0.196819
-0.197585
-0.198225
-0.198644
-0.198873
-0.198968
-0.198955
-0.198837
-0.198604
-0.198252
-0.197776
-0.197174
-0.196446
-0.195589
-0.194599
-0.193477
-0.192229
-0.190884
-0.189498
-0.188114
-0.186691
-0.18515
-0.183452
-0.181617
-0.179671
-0.177629
-0.175492
-0.173263
-0.170945
-0.168542
-0.16606
-0.163504
-0.160881
-0.158196
-0.155457
-0.152669
-0.149841
-0.146978
-0.144087
-0.141176
-0.138252
-0.135321
-0.13239
-0.129464
-0.12655
-0.123652
-0.120776
-0.117927
-0.115107
-0.112321
-0.10957
-0.106859
-0.104187
-0.101558
-0.0989701
-0.0964254
-0.0939232
-0.091463
-0.089044
-0.0866649
-0.0843244
-0.0820208
-0.0797521
-0.0775165
-0.075312
-0.0731365
-0.070988
-0.0688645
-0.0667643
-0.0646856
-0.062627
-0.0605871
-0.0585649
-0.0565595
-0.0545703
-0.052597
-0.0506395
-0.048698
-0.0467728
-0.0448648
-0.0429746
-0.0411035
-0.0392526
-0.0374234
-0.0356174
-0.0338363
-0.0320819
-0.0303559
-0.0286604
-0.0269971
-0.025368
-0.0237751
-0.0222201
-0.0207048
-0.0192312
-0.0178007
-0.016415
-0.0150756
-0.0137837
-0.0125407
-0.0113475
-0.0102051
-0.00911386
-0.00807455
-0.00708686
-0.00615122
-0.00526596
-0.00443166
-0.003644
-0.00290484
-0.00220423
-0.0015486
-0.000914964
-0.000322006
-0.168978
-0.178893
-0.183045
-0.1835
-0.183138
-0.183358
-0.184241
-0.185357
-0.186346
-0.187081
-0.187591
-0.187943
-0.188178
-0.188302
-0.18831
-0.188193
-0.18795
-0.187583
-0.187094
-0.186491
-0.185779
-0.184967
-0.184065
-0.183078
-0.181996
-0.180796
-0.179446
-0.177944
-0.176336
-0.174651
-0.17289
-0.171043
-0.169107
-0.167082
-0.164973
-0.162784
-0.16052
-0.158185
-0.155786
-0.153328
-0.150815
-0.148255
-0.145652
-0.143015
-0.140347
-0.137656
-0.134948
-0.132228
-0.129502
-0.126776
-0.124055
-0.121343
-0.118645
-0.115964
-0.113306
-0.110671
-0.108065
-0.105488
-0.102942
-0.100429
-0.0979503
-0.0955058
-0.0930961
-0.0907209
-0.0883798
-0.0860723
-0.0837973
-0.0815537
-0.0793403
-0.0771558
-0.0749986
-0.0728674
-0.0707606
-0.0686769
-0.0666149
-0.0645733
-0.0625512
-0.0605474
-0.0585614
-0.0565923
-0.05464
-0.0527041
-0.0507847
-0.048882
-0.0469963
-0.0451284
-0.0432789
-0.0414487
-0.039639
-0.0378509
-0.0360858
-0.0343451
-0.0326303
-0.0309428
-0.0292843
-0.0276563
-0.0260606
-0.0244985
-0.0229717
-0.0214816
-0.0200297
-0.0186173
-0.0172455
-0.0159156
-0.0146285
-0.0133851
-0.0121859
-0.0110316
-0.00992215
-0.0088579
-0.00783795
-0.00686262
-0.00592934
-0.00503906
-0.00418589
-0.00337337
-0.00258835
-0.00184198
-0.00110317
-0.00040081
-0.154807
-0.164233
-0.168873
-0.17017
-0.170511
-0.171192
-0.172386
-0.173767
-0.175022
-0.176023
-0.176789
-0.177381
-0.177842
-0.178185
-0.178408
-0.178503
-0.17847
-0.178311
-0.178031
-0.177634
-0.177125
-0.176502
-0.175764
-0.174907
-0.173928
-0.172835
-0.171642
-0.170369
-0.169023
-0.167581
-0.166036
-0.164395
-0.162663
-0.160846
-0.158947
-0.156972
-0.154923
-0.152805
-0.150624
-0.148384
-0.14609
-0.143748
-0.141364
-0.138942
-0.136488
-0.134008
-0.131506
-0.128989
-0.126461
-0.123927
-0.121391
-0.118859
-0.116333
-0.113818
-0.111317
-0.108832
-0.106367
-0.103924
-0.101504
-0.0991095
-0.096741
-0.0943995
-0.0920855
-0.0897993
-0.0875409
-0.0853099
-0.0831059
-0.0809284
-0.0787764
-0.0766492
-0.0745458
-0.0724652
-0.0704064
-0.0683686
-0.0663507
-0.064352
-0.0623716
-0.0604089
-0.0584635
-0.056535
-0.0546231
-0.0527278
-0.0508491
-0.0489874
-0.0471429
-0.0453163
-0.0435082
-0.0417195
-0.039951
-0.0382038
-0.0364789
-0.0347776
-0.0331012
-0.0314507
-0.0298277
-0.0282334
-0.026669
-0.0251359
-0.0236353
-0.0221683
-0.0207361
-0.0193398
-0.0179802
-0.0166581
-0.0153742
-0.014129
-0.0129229
-0.0117561
-0.0106283
-0.00953965
-0.00848875
-0.00747592
-0.00649799
-0.00555631
-0.00464401
-0.00376597
-0.00290699
-0.00208156
-0.00125358
-0.000459535
-0.141923
-0.150812
-0.155698
-0.157634
-0.158592
-0.15971
-0.161191
-0.162797
-0.164272
-0.165504
-0.166503
-0.167319
-0.167992
-0.168537
-0.168956
-0.169244
-0.1694
-0.169428
-0.16933
-0.169112
-0.168775
-0.168319
-0.167747
-0.167062
-0.16627
-0.16538
-0.164402
-0.163333
-0.162165
-0.160895
-0.159528
-0.15807
-0.156526
-0.154899
-0.153193
-0.151413
-0.149562
-0.147643
-0.145662
-0.143624
-0.141532
-0.139391
-0.137207
-0.134984
-0.132727
-0.130441
-0.128131
-0.125802
-0.123457
-0.121101
-0.118739
-0.116374
-0.114009
-0.111649
-0.109296
-0.106954
-0.104623
-0.102308
-0.100009
-0.0977285
-0.0954673
-0.0932266
-0.0910072
-0.0888095
-0.0866338
-0.0844803
-0.0823488
-0.080239
-0.0781507
-0.0760834
-0.0740365
-0.0720094
-0.0700017
-0.0680126
-0.0660417
-0.0640884
-0.0621522
-0.0602328
-0.0583299
-0.0564433
-0.054573
-0.0527189
-0.0508813
-0.0490604
-0.0472566
-0.0454704
-0.0437024
-0.0419534
-0.0402241
-0.0385153
-0.0368281
-0.0351633
-0.0335222
-0.0319055
-0.0303146
-0.0287503
-0.0272139
-0.0257062
-0.0242283
-0.0227811
-0.0213654
-0.0199821
-0.0186317
-0.0173149
-0.016032
-0.0147834
-0.0135691
-0.0123892
-0.011243
-0.0101306
-0.00905043
-0.00800275
-0.00698404
-0.00599605
-0.0050313
-0.00409579
-0.00317302
-0.00228016
-0.00137782
-0.000507752
-0.130378
-0.138766
-0.143724
-0.146089
-0.147521
-0.149003
-0.150735
-0.152537
-0.154201
-0.155632
-0.156834
-0.15785
-0.158714
-0.159443
-0.160039
-0.160502
-0.16083
-0.161027
-0.161098
-0.161046
-0.160874
-0.160585
-0.160184
-0.159675
-0.159063
-0.158351
-0.157541
-0.156631
-0.155621
-0.154516
-0.15332
-0.152037
-0.15067
-0.149222
-0.147698
-0.1461
-0.144433
-0.1427
-0.140905
-0.139052
-0.137147
-0.135192
-0.133193
-0.131154
-0.129079
-0.126972
-0.124839
-0.122682
-0.120506
-0.118316
-0.116114
-0.113905
-0.111691
-0.109475
-0.107262
-0.105053
-0.10285
-0.100656
-0.0984728
-0.0963018
-0.0941444
-0.0920018
-0.089875
-0.0877646
-0.0856712
-0.0835951
-0.0815366
-0.0794958
-0.0774725
-0.0754667
-0.0734781
-0.0715066
-0.0695518
-0.0676135
-0.0656913
-0.0637851
-0.0618947
-0.0600198
-0.0581603
-0.0563163
-0.0544878
-0.052675
-0.050878
-0.0490971
-0.0473329
-0.0455856
-0.043856
-0.0421445
-0.040452
-0.0387791
-0.0371266
-0.0354955
-0.0338864
-0.0323004
-0.0307382
-0.0292008
-0.027689
-0.0262036
-0.0247453
-0.023315
-0.0219131
-0.0205404
-0.0191972
-0.0178839
-0.0166007
-0.0153477
-0.0141248
-0.012932
-0.0117684
-0.0106341
-0.00952716
-0.00844811
-0.00739317
-0.00636449
-0.00535421
-0.00436931
-0.00339241
-0.00244281
-0.0014787
-0.000545931
-0.120269
-0.128055
-0.132944
-0.135585
-0.137367
-0.139133
-0.141069
-0.143031
-0.144849
-0.146442
-0.147814
-0.149
-0.150031
-0.150921
-0.151674
-0.152292
-0.152775
-0.153127
-0.153351
-0.153453
-0.153436
-0.153304
-0.153061
-0.15271
-0.152254
-0.151694
-0.151034
-0.150275
-0.149421
-0.148475
-0.147442
-0.146323
-0.145121
-0.143841
-0.142484
-0.141056
-0.139559
-0.137996
-0.136373
-0.134692
-0.132957
-0.131173
-0.129344
-0.127473
-0.125565
-0.123623
-0.121651
-0.119654
-0.117634
-0.115596
-0.113543
-0.111477
-0.109403
-0.107323
-0.10524
-0.103155
-0.101073
-0.0989939
-0.0969205
-0.0948542
-0.0927965
-0.0907486
-0.0887117
-0.0866865
-0.0846738
-0.0826743
-0.0806883
-0.0787161
-0.0767581
-0.0748142
-0.0728846
-0.0709693
-0.0690684
-0.0671816
-0.0653091
-0.0634507
-0.0616065
-0.0597764
-0.0579606
-0.0561591
-0.0543722
-0.0525999
-0.0508427
-0.0491008
-0.0473746
-0.0456646
-0.0439714
-0.0422954
-0.0406373
-0.0389978
-0.0373775
-0.0357771
-0.0341974
-0.032639
-0.0311027
-0.0295893
-0.0280993
-0.0266334
-0.0251922
-0.0237763
-0.0223861
-0.021022
-0.0196844
-0.0183733
-0.0170889
-0.0158313
-0.0146
-0.013395
-0.0122153
-0.0110611
-0.00993025
-0.00882344
-0.00773678
-0.0066728
-0.0056234
-0.00459645
-0.00357388
-0.0025768
-0.00156151
-0.000577222
-0.111329
-0.118509
-0.123262
-0.126076
-0.12811
-0.130088
-0.132178