/*--------------------------------*- C++ -*----------------------------------*\
  =========                 |
  \\      /  F ield         | OpenFOAM: The Open Source CFD Toolbox
   \\    /   O peration     | Website:  https://openfoam.org
    \\  /    A nd           | Version:  7
     \\/     M anipulation  |
\*---------------------------------------------------------------------------*/
FoamFile
{
    version     2.0;
    format      ascii;
    class       surfaceScalarField;
    location    "80";
    object      phi;
}
// * * * * * * * * * * * * * * * * * * * * * * * * * * * * * * * * * * * * * //

dimensions      [0 3 -1 0 0 0 0];

internalField   nonuniform List<scalar> 
27710
(
-7.48532e-05
7.28455e-05
2.00765e-06
-0.00022593
0.000147678
3.39816e-06
-0.000423555
0.000193938
3.68673e-06
-0.000651919
0.000224862
3.50242e-06
-0.000903523
0.000248575
3.02854e-06
-0.00117498
0.000269343
2.11701e-06
-0.00146121
0.000285786
4.42471e-07
-0.00174629
0.000287426
-2.34892e-06
-0.00205718
0.000317624
-6.73035e-06
0.000260838
-1.33197e-05
-0.0023047
-6.95859e-05
0.000142431
-0.000210649
0.000288742
-0.000394018
0.000377306
-0.000603041
0.000433886
-0.000828452
0.000473985
-0.00106476
0.000505648
-0.00130914
0.000530171
-0.00152617
0.000504458
-0.00177775
0.000569196
0.00039019
-0.0019071
-5.9929e-05
0.00020236
-0.000182174
0.000410987
-0.000338288
0.000533421
-0.000509891
0.000605489
-0.00068435
0.000648445
-0.000849544
0.000670842
-0.00100928
0.000689908
-0.00109109
0.000586262
-0.00121311
0.000691216
0.000299885
-0.0011228
-4.75805e-05
0.000249941
-0.000144563
0.000507969
-0.000262911
0.000651768
-0.000381351
0.000723929
-0.000483068
0.000750161
-0.00054332
0.000731095
-0.0005657
0.000712288
-0.000455847
0.00047641
-0.000321962
0.00055733
-6.59834e-05
4.39071e-05
-3.46692e-05
0.00028461
-0.000102947
0.000576247
-0.0001762
0.000725021
-0.000228442
0.000776171
-0.000236142
0.000757861
-0.00016878
0.000663733
2.89704e-05
0.000514537
0.000373271
0.000132109
0.000867323
6.32779e-05
-0.000936446
0.00173779
-2.32693e-05
0.00030788
-6.22782e-05
0.000615256
-8.59152e-05
0.000748658
-6.15122e-05
0.000751768
5.05998e-05
0.000645749
0.000281715
0.000432618
0.00072626
6.99916e-05
0.00142894
-0.000570573
0.00238754
-0.000895319
-0.00246387
0.00391497
-1.48328e-05
0.000322712
-2.56088e-05
0.000626032
4.46588e-06
0.000718583
0.000119672
0.000636562
0.000375853
0.000389569
0.0008352
-2.67293e-05
0.00161558
-0.000710392
0.00272647
-0.00168146
0.00425516
-0.00242401
-0.00460234
0.00639363
-9.88378e-06
0.000332596
7.46052e-06
0.000608687
9.88835e-05
0.00062716
0.000328895
0.000406551
0.000781382
-6.2918e-05
0.00155048
-0.000795824
0.00272834
-0.00188826
0.00430969
-0.0032628
0.0063843
-0.00449862
-0.0069745
0.00875646
-6.73194e-06
0.000339328
4.10871e-05
0.000560868
0.000211955
0.000456293
0.000599124
1.93818e-05
0.00131739
-0.000781186
0.0024754
-0.00195383
0.00405411
-0.00346697
0.00601655
-0.00522524
0.00837566
-0.00685772
-0.00909619
0.0104973
-2.28081e-06
0.000341609
8.62651e-05
0.000472322
0.000367998
0.00017456
0.000974816
-0.000587436
0.00202598
-0.00183235
0.0035583
-0.00348616
0.00542839
-0.00533705
0.00747555
-0.0072724
0.00958725
-0.00896943
-0.010741
0.011232
5.99378e-06
0.000335615
0.000155144
0.000323172
0.000594772
-0.000265068
0.00148278
-0.00147544
0.00287184
-0.00322141
0.00463003
-0.00524434
0.00652341
-0.00723043
0.00831743
-0.00906642
0.0098546
-0.0105066
-0.0118845
0.0109981
2.15384e-05
0.000314077
0.000260153
8.45577e-05
0.000911183
-0.000916098
0.00209772
-0.00266198
0.00370478
-0.00482848
0.00544515
-0.00698471
0.00707483
-0.00886011
0.00841463
-0.0104062
0.00954083
-0.0116328
-0.0128571
0.0105135
4.76387e-05
0.000266438
0.000410987
-0.000278791
0.00130909
-0.00181421
0.00271935
-0.00407223
0.00433244
-0.00644156
0.00583547
-0.00848775
0.00707997
-0.0101046
0.00806851
-0.0113948
0.00892437
-0.0124887
-0.0135937
0.00966098
8.65721e-05
0.000179866
0.000610502
-0.000802721
0.00173654
-0.00294025
0.00321078
-0.00554647
0.00464106
-0.00787184
0.00582033
-0.00966702
0.0067426
-0.0110269
0.00748607
-0.0121382
0.00815359
-0.0131562
-0.0142406
0.00880047
0.000141106
3.87601e-05
0.000845391
-0.00150701
0.00210902
-0.00420388
0.00348259
-0.00692003
0.00464457
-0.00903382
0.00553085
-0.0105533
0.00621202
-0.0117081
0.00678344
-0.0127096
0.00733419
-0.0137069
-0.014777
0.00787052
0.000213625
-0.000174865
0.00108215
-0.00237553
0.00235415
-0.00547588
0.00352922
-0.0080951
0.00442422
-0.00992883
0.00507396
-0.011203
0.00557909
-0.0122132
0.00602719
-0.0131577
0.0064683
-0.014148
-0.0152178
0.00690909
0.000301505
-0.00047637
0.00127992
-0.00335394
0.00244864
-0.00664461
0.0033944
-0.00904086
0.0040561
-0.0105905
0.00452259
-0.0116695
0.00489502
-0.0125856
0.00523824
-0.013501
0.00558353
-0.0144933
-0.0155653
0.00593109
0.000392941
-0.000869311
0.00140548
-0.00436648
0.00240731
-0.00764644
0.00312953
-0.00976308
0.00359779
-0.0110588
0.00392085
-0.0119926
0.00418483
-0.0128496
0.00443457
-0.0137507
0.00468384
-0.0147426
-0.015813
0.00493152
0.000472626
-0.00134194
0.0014418
-0.00533565
0.00225718
-0.00846183
0.00277859
-0.0102845
0.00308831
-0.0113685
0.00329461
-0.0121989
0.00346354
-0.0130185
0.00362231
-0.0139095
0.00377678
-0.014897
-0.0159634
0.00392719
0.000528268
-0.0018702
0.0013936
-0.00620099
0.0020264
-0.00909463
0.00237499
-0.0106331
0.0025535
-0.011547
0.00265938
-0.0123048
0.00273897
-0.0130981
0.00280793
-0.0139784
0.00286868
-0.0149578
-0.0160169
0.00292216
0.000552441
-0.00242264
0.00128376
-0.00693231
0.00174146
-0.00955232
0.00194225
-0.0108339
0.00200948
-0.0116142
0.00202454
-0.0123198
0.00201751
-0.0130911
0.00199603
-0.013957
0.00196078
-0.0149225
-0.0159755
0.00191942
0.000542539
-0.00296518
0.00112717
-0.00751695
0.00142335
-0.0098485
0.00149633
-0.0109068
0.0014664
-0.0115843
0.00139632
-0.0122497
0.00130417
-0.0129989
0.00119242
-0.0138452
0.00105814
-0.0147883
-0.0158312
0.000913787
0.00050133
-0.00346651
0.000937791
-0.00795341
0.0010879
-0.0099986
0.00104921
-0.0108682
0.00093113
-0.0114662
0.00077879
-0.0120974
0.000602412
-0.0128226
0.000401204
-0.013644
0.000178913
-0.014566
-0.0155595
-9.27391e-05
0.00043567
-0.00390218
0.000728006
-0.00824574
0.000747331
-0.0100179
0.000608863
-0.0107297
0.000407659
-0.011265
0.000173634
-0.0118634
-8.66524e-05
-0.0125623
-0.000369105
-0.0133616
-0.000687318
-0.0142478
-0.0152084
-0.00103844
0.000353587
-0.00425577
0.000508079
-0.00840024
0.000409858
-0.00991971
0.00017858
-0.0104984
-0.000101116
-0.0109853
-0.000406694
-0.0115578
-0.00074298
-0.012226
-0.00111427
-0.0129903
-0.00152355
-0.0138385
-0.0147701
-0.00196181
0.000262159
-0.00451793
0.00028715
-0.00842523
7.82924e-05
-0.00971085
-0.000231098
-0.010189
-0.000580743
-0.0106357
-0.000963679
-0.0111749
-0.00137896
-0.0118107
-0.00183328
-0.0125359
-0.0023252
-0.0133466
-0.0142447
-0.00285062
0.000166904
-0.00468483
7.57128e-05
-0.00833404
-0.000232841
-0.0094023
-0.000619253
-0.00980261
-0.0010417
-0.0102132
-0.00149716
-0.0107194
-0.00198805
-0.0113198
-0.00252005
-0.012004
-0.00309201
-0.0127746
-0.0136361
-0.00370061
7.3326e-05
-0.00475816
-0.000139158
-0.00812155
-0.000528657
-0.0090128
-0.000988066
-0.0093432
-0.00147969
-0.00972161
-0.00200478
-0.0101943
-0.00256737
-0.0107572
-0.0031718
-0.0113995
-0.0038197
-0.0121267
-0.0129516
-0.00450425
-1.27681e-05
-0.00474539
-0.000341213
-0.00779311
-0.000809226
-0.00854478
-0.00133476
-0.00881767
-0.00189221
-0.00916416
-0.00248466
-0.00960187
-0.00311641
-0.0101255
-0.00378898
-0.010727
-0.00449757
-0.0114181
-0.0121988
-0.00525033
-0.000118893
-0.0046265
-0.000528254
-0.00738375
-0.00107009
-0.00800295
-0.00165769
-0.00823006
-0.00227728
-0.00854458
-0.00293396
-0.0089452
-0.00363251
-0.00942691
-0.00437575
-0.00998373
-0.00516755
-0.0106263
-0.0114256
-0.00594073
-0.000209089
-0.00441741
-0.00070111
-0.00689173
-0.0013091
-0.00739496
-0.00195513
-0.00758403
-0.00263287
-0.00786684
-0.00334908
-0.00822899
-0.00410898
-0.00866701
-0.00491535
-0.00917736
-0.00576913
-0.00977252
-0.0104264
-0.00676833
-0.000289956
-0.00412745
-0.000858508
-0.00632317
-0.001526
-0.00672746
-0.0022259
-0.00688413
-0.00295755
-0.00713519
-0.00372793
-0.0074586
-0.0045407
-0.00785425
-0.00539977
-0.00831829
-0.00632478
-0.00884751
-0.00939889
-0.00735233
-0.000361981
-0.00376547
-0.000999268
-0.00568589
-0.00171997
-0.00600676
-0.00246881
-0.00613529
-0.00324964
-0.00635436
-0.00407038
-0.00663787
-0.00493753
-0.00698709
-0.00586012
-0.0073957
-0.00685287
-0.00785476
-0.00834238
-0.00790938
-0.000424857
-0.00334061
-0.00112268
-0.00498807
-0.00189041
-0.00523903
-0.00268284
-0.00534286
-0.00350689
-0.0055303
-0.00437045
-0.00577431
-0.00528144
-0.00607611
-0.00625086
-0.00642628
-0.00729036
-0.00681525
-0.00723774
-0.008395
-0.000477601
-0.00286301
-0.00122805
-0.00423762
-0.00203691
-0.00443016
-0.00286771
-0.00451206
-0.00373028
-0.00466773
-0.00463322
-0.00487138
-0.00558539
-0.00512394
-0.00659639
-0.00541528
-0.0076735
-0.00573814
-0.00609415
-0.00881709
-0.000518706
-0.00234431
-0.00131502
-0.0034413
-0.0021591
-0.00358609
-0.00302214
-0.00364902
-0.00391654
-0.00377333
-0.0048515
-0.00393642
-0.00583665
-0.00413879
-0.00688094
-0.00437099
-0.00799088
-0.0046282
-0.00491524
-0.00916979
-0.000554029
-0.00179028
-0.00138492
-0.00261042
-0.00225722
-0.00271379
-0.00314653
-0.00275971
-0.00406705
-0.0028528
-0.00502829
-0.00297518
-0.00604002
-0.00312706
-0.00711037
-0.00330064
-0.00824577
-0.0034928
-0.00370895
-0.00945206
-0.000581452
-0.00120883
-0.00143769
-0.00175418
-0.0023309
-0.00182057
-0.00323995
-0.00185067
-0.00418006
-0.00191269
-0.00516097
-0.00199428
-0.00619252
-0.0020955
-0.00728231
-0.00221085
-0.00843658
-0.00233853
-0.00248276
-0.00966277
-0.000599955
-0.00060887
-0.00147308
-0.000881064
-0.00238015
-0.000913496
-0.00330241
-0.000928412
-0.00425567
-0.000959427
-0.00524971
-0.00100023
-0.00629438
-0.00105083
-0.00739682
-0.0011084
-0.00856328
-0.00117208
-0.00124411
-0.00980193
-0.000609253
3.82911e-07
-0.00149083
5.13315e-07
-0.00240482
4.88785e-07
-0.00333368
4.49135e-07
-0.00429352
4.11577e-07
-0.00529412
3.74667e-07
-0.00634529
3.38768e-07
-0.007454
3.03196e-07
-0.00862634
2.6755e-07
2.33865e-07
-0.00987069
-0.000609255
0.000609638
-0.00149084
0.000882094
-0.00240482
0.000914476
-0.00333369
0.000929313
-0.00429353
0.000960252
-0.00529414
0.00100098
-0.00634531
0.00105151
-0.00745402
0.00110901
-0.00862636
0.00117261
0.00124458
-0.00987071
-0.000599963
0.0012096
-0.00147309
0.00175522
-0.00238018
0.00182156
-0.00330244
0.00185157
-0.00425571
0.00191352
-0.00524976
0.00199503
-0.00629443
0.00209619
-0.00739688
0.00221146
-0.00856334
0.00233907
0.00248324
-0.00980199
-0.000581465
0.00179107
-0.00143771
0.00261147
-0.00233095
0.00271479
-0.00324
0.00276063
-0.00418013
0.00285365
-0.00516104
0.00297595
-0.00619261
0.00312775
-0.00728241
0.00330126
-0.00843669
0.00349335
0.00370943
-0.00966288
-0.000554048
0.00234511
-0.00138496
0.00344238
-0.00225727
0.00358711
-0.0031466
0.00364996
-0.00406714
0.00377419
-0.00502839
0.0039372
-0.00604014
0.0041395
-0.00711051
0.00437163
-0.00824591
0.00462876
0.00491573
-0.00945221
-0.000518733
0.00286385
-0.00131508
0.00423872
-0.00215917
0.00443121
-0.00302223
0.00451302
-0.00391666
0.00466861
-0.00485164
0.00487218
-0.0058368
0.00512466
-0.00688111
0.00541593
-0.00799106
0.00573871
0.00609466
-0.00916999
-0.000477633
0.00334148
-0.00122811
0.0049892
-0.002037
0.0052401
-0.00286783
0.00534385
-0.00373043
0.00553121
-0.00463339
0.00577513
-0.00558558
0.00607685
-0.0065966
0.00642695
-0.00767373
0.00681585
0.00723825
-0.00881732
-0.000424892
0.00376637
-0.00112275
0.00568706
-0.00189052
0.00600787
-0.00268298
0.00613631
-0.00350707
0.00635529
-0.00437065
0.00663872
-0.00528166
0.00698786
-0.00625111
0.00739639
-0.00729063
0.00785537
0.0083429
-0.00839528
-0.00036202
0.00412839
-0.000999354
0.0063244
-0.00172009
0.00672861
-0.00246898
0.00688519
-0.00324984
0.00713616
-0.00407062
0.00745949
-0.0049378
0.00785505
-0.00586041
0.00831901
-0.00685319
0.00884815
0.00939943
-0.00790971
-0.000289998
0.00441839
-0.000858605
0.006893
-0.00152615
0.00739616
-0.00222609
0.00758513
-0.00295778
0.00786785
-0.0037282
0.00822991
-0.004541
0.00866785
-0.0054001
0.00917811
-0.00632513
0.00977318
0.010427
-0.00735271
-0.000209135
0.00462752
-0.000701218
0.00738509
-0.00130927
0.00800421
-0.00195534
0.00823121
-0.00263313
0.00854564
-0.00334939
0.00894617
-0.00410933
0.00942779
-0.00491573
0.00998451
-0.00576956
0.010627
0.0114263
-0.00676882
-0.000118941
0.00474647
-0.000528374
0.00779452
-0.00107027
0.0085461
-0.00165793
0.00881887
-0.00227757
0.00916528
-0.0029343
0.0096029
-0.00363291
0.0101264
-0.00437619
0.0107278
-0.00516803
0.0114188
0.0121994
-0.00594121
-1.28271e-05
0.00475929
-0.000341343
0.00812303
-0.000809426
0.00901418
-0.00133502
0.00934447
-0.00189253
0.00972279
-0.00248504
0.0101954
-0.00311684
0.0107582
-0.00378946
0.0114004
-0.00449809
0.0121275
0.0129522
-0.00525089
7.3287e-05
0.00468601
-0.000139299
0.00833562
-0.000528871
0.00940376
-0.000988351
0.00980395
-0.00148005
0.0102145
-0.0020052
0.0107206
-0.00256785
0.0113209
-0.00317234
0.0120049
-0.00382028
0.0127754
0.0136368
-0.00450487
0.000166863
0.00451914
7.55841e-05
0.0084269
-0.000233065
0.00971241
-0.00061956
0.0101904
-0.00104208
0.010637
-0.00149761
0.0111761
-0.00198858
0.0118118
-0.00252063
0.012537
-0.00309265
0.0133474
0.0142455
-0.0037013
0.000262125
0.00425702
0.000287014
0.00840201
7.8044e-05
0.00992138
-0.000231423
0.0104999
-0.000581154
0.0109867
-0.000964169
0.0115591
-0.00137953
0.0122272
-0.00183393
0.0129913
-0.00232592
0.0138394
0.014771
-0.00285139
0.000353567
0.00390345
0.00050795
0.00824763
0.000409613
0.0100197
0.000178228
0.0107313
-0.000101548
0.0112665
-0.000407219
0.0118648
-0.000743603
0.0125636
-0.00111498
0.0133627
-0.00152434
0.0142488
0.0152093
-0.00196267
0.000435672
0.00346778
0.000727896
0.0079554
0.000747088
0.0100005
0.000608504
0.0108699
0.00040719
0.0114678
0.000173059
0.0120989
-8.73123e-05
0.0128239
-0.000369872
0.0136453
-0.000688189
0.0145671
0.0155605
-0.00103938
0.000501364
0.00296641
0.000937713
0.00751905
0.00108767
0.00985056
0.00104885
0.0109087
0.000930646
0.011586
0.000778188
0.0122514
0.000601683
0.0130004
0.00040036
0.0138466
0.000177984
0.0147895
0.0158322
-9.37505e-05
0.000542613
0.0024238
0.00112714
0.00693452
0.00142315
0.00955456
0.00149598
0.0108359
0.00146591
0.0116161
0.00139569
0.0123216
0.0013034
0.0130927
0.00119151
0.0139585
0.00105709
0.0149239
0.0159767
0.0009126
0.000552559
0.00187124
0.0012838
0.00620329
0.00174131
0.00909704
0.00194192
0.0106353
0.00200899
0.011549
0.00202389
0.0123067
0.00201669
0.0130999
0.00199505
0.0139801
0.00195962
0.0149593
0.0160182
0.00191811
0.000528425
0.00134282
0.00139372
0.00533799
0.00202634
0.00846442
0.00237471
0.0102869
0.00255302
0.0113707
0.00265872
0.012201
0.00273811
0.0130205
0.00280687
0.0139114
0.0028674
0.0148988
0.0159649
0.0029207
0.00047281
0.000870007
0.00144203
0.00436876
0.00225724
0.00764921
0.00277841
0.00976574
0.00308788
0.0110612
0.00329396
0.0119949
0.00346266
0.0128518
0.00362118
0.0137529
0.00377539
0.0147446
0.0158147
0.00392555
0.000393135
0.000476872
0.00140585
0.00335605
0.00240754
0.00664753
0.00312949
0.00904379
0.00359747
0.0105933
0.00392025
0.0116721
0.00418395
0.0125881
0.00443338
0.0135034
0.00468231
0.0144956
0.0155674
0.00492967
0.000301682
0.00017519
0.0012804
0.00237733
0.00244909
0.00547883
0.00339459
0.00809829
0.00405595
0.0099319
0.0045221
0.011206
0.00489418
0.0122161
0.00523701
0.0131606
0.00558189
0.0141508
0.0152203
0.00592901
0.000213762
-3.85723e-05
0.00108269
0.0015084
0.00235486
0.00420666
0.00352973
0.00692341
0.00442437
0.00903726
0.00507368
0.0105567
0.00557835
0.0117114
0.00602595
0.012713
0.00646652
0.0137102
0.01478
0.00690678
0.000141196
-0.000179768
0.000845918
0.00080368
0.00210997
0.00294261
0.00348354
0.00554985
0.00464518
0.00787563
0.00553094
0.00967091
0.00621151
0.0110308
0.00678228
0.0121422
0.00733235
0.0131601
0.0142445
0.0078679
8.6628e-05
-0.000266396
0.000610965
0.000279343
0.00173764
0.00181594
0.00321222
0.00407527
0.00464233
0.00644552
0.00582104
0.00849219
0.00674256
0.0101093
0.00748513
0.0113996
0.00815171
0.0124936
0.0135985
0.00879769
4.76904e-05
-0.000314087
0.00041141
-8.43774e-05
0.00131024
0.000917108
0.00272121
0.0026643
0.00433454
0.00483218
0.00583718
0.00698955
0.00708076
0.00886574
0.00806813
0.0104123
0.00892264
0.011639
0.0128633
0.00965777
2.16283e-05
-0.000335715
0.000260635
-0.000323384
0.000912387
0.000265356
0.00209986
0.00147682
0.00370769
0.00322435
0.00544819
0.00524906
0.00707712
0.0072368
0.00841531
0.00907409
0.00953971
0.0105146
0.0118929
0.0105102
6.15974e-06
-0.000341875
0.000155818
-0.000473043
0.000596197
-0.000175022
0.00148522
0.000587802
0.00287542
0.00183415
0.00463441
0.00349006
0.00652782
0.0053434
0.00832048
0.00728143
0.00985472
0.0089804
0.0107532
0.0109944
-1.92695e-06
-0.000339948
8.72326e-05
-0.000562202
0.000369821
-0.000457611
0.000977712
-2.00885e-05
0.00203017
0.000781689
0.00356381
0.00195642
0.00543488
0.00347233
0.00748206
0.00523424
0.00959065
0.00687181
0.00911095
0.0112329
-6.2894e-06
-0.000333658
4.23365e-05
-0.000610828
0.000214219
-0.000629494
0.000602559
-0.000408428
0.00132222
6.20272e-05
0.00248184
0.0007968
0.00406217
0.00189201
0.00602618
0.00327023
0.00838451
0.00451348
0.00699191
0.0105036
-9.38103e-06
-0.000324277
8.86012e-06
-0.00062907
0.000101438
-0.000722071
0.000332714
-0.000639704
0.000786657
-0.000391916
0.0015575
2.59529e-05
0.00273729
0.000712225
0.00432107
0.00168645
0.00639733
0.00243722
0.00462079
0.00876845
-1.42782e-05
-0.000309999
-2.40915e-05
-0.000619256
7.05598e-06
-0.000753219
0.000123495
-0.000756143
0.000381067
-0.000649487
0.000842071
-0.000435051
0.00162447
-7.01753e-05
0.00273764
0.000573277
0.00426889
0.00090597
0.0024813
0.00640838
-2.27299e-05
-0.000287269
-6.08737e-05
-0.000581112
-8.35555e-05
-0.000730537
-5.81485e-05
-0.00078155
5.50133e-05
-0.000762649
0.000287634
-0.000667671
0.000733724
-0.000516265
0.00143783
-0.000130828
0.00239867
-5.48731e-05
0.000951832
0.00392814
-3.41927e-05
-0.000253076
-0.000101751
-0.000513555
-0.000174251
-0.000658037
-0.000225737
-0.000730063
-0.000232648
-0.000755739
-0.000164703
-0.000735616
3.35276e-05
-0.000714496
0.000378544
-0.000475844
0.000873359
-0.000549688
8.12059e-05
0.00174399
-4.71969e-05
-0.00020588
-0.000143631
-0.000417121
-0.000261445
-0.000540223
-0.000379406
-0.000612102
-0.00048073
-0.000654414
-0.000540788
-0.000675559
-0.000563075
-0.000692209
-0.000454192
-0.000584727
-0.000320926
-0.000682954
-0.000281088
4.13671e-05
-5.96527e-05
-0.000146227
-0.000181521
-0.000295252
-0.000337299
-0.000384445
-0.000508647
-0.000440754
-0.000682988
-0.000480073
-0.000848329
-0.000510218
-0.00100862
-0.00053192
-0.00109186
-0.000501484
-0.00121622
-0.000558595
-0.000367582
-0.00112973
-6.94207e-05
-7.68061e-05
-0.000210268
-0.000154405
-0.000393457
-0.000201256
-0.000602372
-0.000231839
-0.000827794
-0.000254651
-0.00106433
-0.00027368
-0.00130932
-0.000286935
-0.00152759
-0.000283209
-0.00178119
-0.000304994
-0.000235346
-0.00191343
-7.47984e-05
-0.000225805
-0.000423374
-0.000651711
-0.000903334
-0.0011749
-0.00146139
-0.00174695
-0.00205867
-0.00230734
-0.00234604
5.04581e-05
-9.11653e-06
-0.00238413
4.88973e-05
-1.08092e-05
-0.00241769
4.60869e-05
-1.25282e-05
-0.00244712
4.36823e-05
-1.42458e-05
-0.00247292
4.17036e-05
-1.59083e-05
-0.0024955
4.00727e-05
-1.74883e-05
-0.00251523
3.86669e-05
-1.89431e-05
-0.00253241
3.73645e-05
-2.01859e-05
-0.00254728
3.60644e-05
-2.11947e-05
-0.00256002
3.46763e-05
-2.19339e-05
-0.00257077
3.31177e-05
-2.23634e-05
-0.00257964
3.13188e-05
-2.24521e-05
-0.0025867
2.92232e-05
-2.21668e-05
-0.002592
2.67882e-05
-2.14872e-05
-0.00259558
2.39847e-05
-2.04007e-05
-0.00259748
2.07978e-05
-1.89013e-05
-0.00259771
1.72268e-05
-1.69903e-05
-0.00259632
1.32815e-05
-1.46733e-05
-0.00259332
8.96356e-06
-1.19616e-05
-0.00258867
4.20058e-06
-8.85355e-06
-0.00258236
-9.1868e-07
-5.39469e-06
-0.00257478
-5.92118e-06
-1.65827e-06
-0.00256572
-1.14141e-05
2.35849e-06
-0.00255514
-1.72545e-05
6.67233e-06
-0.00254299
-2.33839e-05
1.12374e-05
-0.00252929
-2.97574e-05
1.60547e-05
-0.00251405
-3.6314e-05
2.10729e-05
-0.00249725
-4.29899e-05
2.61916e-05
-0.00247887
-4.97204e-05
3.13388e-05
-0.00245888
-5.64395e-05
3.64491e-05
-0.00243726
-6.30795e-05
4.14581e-05
-0.00241399
-6.95713e-05
4.6299e-05
-0.00238904
-7.5845e-05
5.09028e-05
-0.00236241
-8.18302e-05
5.52005e-05
-0.00233408
-8.74576e-05
5.91239e-05
-0.00230403
-9.26595e-05
6.26068e-05
-0.00227224
-9.73706e-05
6.55854e-05
-0.00223871
-0.000101529
6.79995e-05
-0.00220343
-0.000105078
6.97934e-05
-0.00216638
-0.000107966
7.09166e-05
-0.00212756
-0.000110148
7.13254e-05
-0.00208695
-0.000111585
7.09833e-05
-0.00204457
-0.000112248
6.98616e-05
-0.00200039
-0.000112116
6.794e-05
-0.00195442
-0.000111178
6.52062e-05
-0.00190664
-0.000109434
6.16562e-05
-0.00185705
-0.000106902
5.73056e-05
-0.00180566
-0.000103612
5.22258e-05
-0.00175257
-9.9598e-05
4.65067e-05
-0.00169778
-9.48811e-05
4.00948e-05
-0.0016413
-8.94984e-05
3.30197e-05
-0.00158314
-8.34993e-05
2.53302e-05
-0.00152328
-7.69468e-05
1.70911e-05
-0.00146178
-6.99185e-05
8.4143e-06
-0.0013987
-6.24875e-05
-5.85537e-07
-0.00133417
-5.47528e-05
-9.77843e-06
-0.00126814
-4.68164e-05
-1.92116e-05
-0.00120066
-3.87442e-05
-2.87372e-05
-0.00113178
-3.06288e-05
-3.82547e-05
-0.00106154
-2.25712e-05
-4.76638e-05
-0.000990002
-1.46781e-05
-5.68629e-05
-0.000917172
-7.07713e-06
-6.57532e-05
-0.000842894
-2.16901e-08
-7.42558e-05
-0.000767917
7.42207e-06
-8.23995e-05
-0.000691932
1.39845e-05
-8.99698e-05
-0.000614965
1.99204e-05
-9.68866e-05
-0.000537077
2.5196e-05
-0.000103085
-0.000458334
2.9762e-05
-0.000108505
-0.000378807
3.35665e-05
-0.000113093
-0.000298574
3.65745e-05
-0.000116808
-0.000217704
3.87385e-05
-0.000119609
-0.000136265
4.00274e-05
-0.000121467
-5.43247e-05
4.04225e-05
-0.000122363
2.8036e-05
3.99158e-05
-0.000122277
0.00011073
3.85091e-05
-0.000121203
0.000193711
3.6202e-05
-0.000119183
0.000276907
3.30155e-05
-0.000116212
0.000360247
2.89743e-05
-0.000112314
0.000443662
2.41094e-05
-0.000107524
0.00052709
1.84553e-05
-0.000101883
0.000610488
1.20415e-05
-9.54395e-05
0.000693897
4.84993e-06
-8.82595e-05
0.000777008
-2.65195e-06
-8.04594e-05
0.000859716
-1.0632e-05
-7.20751e-05
0.000942059
-1.92016e-05
-6.31422e-05
0.001024
-2.81976e-05
-5.37386e-05
0.00110546
-3.75216e-05
-4.39461e-05
0.0011864
-4.70886e-05
-3.38448e-05
0.00126673
-5.68183e-05
-2.35143e-05
0.00134639
-6.66315e-05
-1.30258e-05
0.00142525
-7.64437e-05
-2.41518e-06
0.00150351
-8.61362e-05
7.87495e-06
0.00158097
-9.56844e-05
1.82194e-05
0.00165759
-0.000105011
2.83889e-05
0.00173334
-0.000114042
3.82955e-05
0.00180819
-0.00012271
4.78644e-05
0.00188211
-0.00013095
5.70266e-05
0.00195509
-0.000138702
6.57172e-05
0.00202713
-0.00014591
7.38746e-05
0.00209821
-0.000152525
8.14404e-05
0.00216835
-0.000158497
8.83624e-05
0.00223754
-0.000163787
9.45929e-05
0.00230581
-0.000168356
0.000100088
0.00237317
-0.00017217
0.000104809
0.00243965
-0.0001752
0.00010872
0.00250528
-0.000177419
0.000111789
0.0025701
-0.000178804
0.000113988
0.00263414
-0.000179334
0.000115291
0.00269746
-0.000178988
0.000115672
0.0027601
-0.000177747
0.000115107
0.00282212
-0.000175591
0.00011357
0.00288358
-0.000172494
0.00011103
0.00294456
-0.000168427
0.00010745
0.00300513
-0.000163353
0.000102783
0.00306538
-0.000157215
9.69641e-05
0.00312543
-0.000149952
8.99021e-05
0.00318539
-0.000141446
8.14805e-05
0.00324548
-0.000131558
7.14709e-05
0.0033059
-0.000120366
5.99442e-05
-0.000104466
4.39957e-05
-0.00194083
8.41858e-05
-0.00197277
8.08364e-05
-0.00200116
7.44824e-05
-0.00202604
6.85592e-05
-0.00204769
6.33552e-05
-0.00206649
5.88751e-05
-0.00208275
5.49198e-05
-0.0020967
5.13227e-05
-0.00210856
4.7919e-05
-0.00211845
4.45656e-05
-0.00212648
4.11456e-05
-0.00213272
3.75612e-05
-0.00213723
3.37312e-05
-0.00214003
2.95921e-05
-0.00214115
2.51008e-05
-0.00214058
2.0235e-05
-0.00213836
1.5006e-05
-0.00213456
9.48066e-06
-0.00212899
3.39079e-06
-0.00212207
-2.72115e-06
-0.00211399
-8.99292e-06
-0.00210434
-1.55745e-05
-0.0020932
-2.25493e-05
-0.0020806
-2.98539e-05
-0.00206654
-3.74449e-05
-0.00205102
-4.52792e-05
-0.00203403
-5.33029e-05
-0.00201557
-6.14564e-05
-0.00199561
-6.9677e-05
-0.00197415
-7.78993e-05
-0.00195117
-8.60557e-05
-0.00192667
-9.40769e-05
-0.00190062
-0.000101892
-0.00187302
-0.000109431
-0.00184385
-0.000116624
-0.00181311
-0.000123403
-0.00178078
-0.000129701
-0.00174685
-0.000135458
-0.00171131
-0.000140615
-0.00167416
-0.000145121
-0.00163537
-0.000148932
-0.00159495
-0.000152009
-0.00155288
-0.000154322
-0.00150914
-0.000155849
-0.00146374
-0.000156581
-0.00141666
-0.000156517
-0.00136789
-0.000155668
-0.00131744
-0.000154058
-0.00126533
-0.000151712
-0.00121155
-0.000148661
-0.0011561
-0.000144946
-0.00109899
-0.000140617
-0.0010402
-0.000135732
-0.000979759
-0.00013036
-0.000917691
-0.000124555
-0.000854071
-0.000118373
-0.00078885
-0.000112037
-0.00072207
-0.000105525
-0.000653771
-9.89273e-05
-0.000584001
-9.23417e-05
-0.000512817
-8.58622e-05
-0.00044031
-7.95841e-05
-0.000366733
-7.35983e-05
-0.00029144
-6.78707e-05
-0.000214865
-6.25912e-05
-0.000137107
-5.78372e-05
-5.82417e-05
-5.36694e-05
2.16553e-05
-5.0135e-05
0.000102496
-4.72746e-05
0.000184216
-4.51448e-05
0.000266733
-4.3779e-05
0.000349963
-4.32024e-05
0.000433817
-4.34312e-05
0.000518204
-4.44711e-05
0.000603033
-4.63199e-05
0.000688205
-4.897e-05
0.000773621
-5.24012e-05
0.000859182
-5.65859e-05
0.000944781
-6.14898e-05
0.00103031
-6.70724e-05
0.00111564
-7.32875e-05
0.00120056
-8.00767e-05
0.00128524
-8.73285e-05
0.0013696
-9.49879e-05
0.00145342
-0.000103025
0.00153659
-0.000111368
0.00161901
-0.000119942
0.00170059
-0.000128671
0.00178125
-0.000137477
0.00186091
-0.000146285
0.00193948
-0.000155017
0.00201694
-0.000163597
0.00209322
-0.000171962
0.00216826
-0.00018005
0.00224201
-0.000187798
0.00231445
-0.000195146
0.00238554
-0.00020204
0.00245526
-0.000208429
0.00252362
-0.000214266
0.00259061
-0.00021951
0.00265623
-0.000224123
0.00272052
-0.000228071
0.00278349
-0.000231327
0.00284518
-0.000233864
0.00290564
-0.000235662
0.00296493
-0.000236703
0.00302309
-0.000236972
0.00308022
-0.000236455
0.00313637
-0.00023514
0.00319164
-0.000233018
0.00324612
-0.000230075
0.00329993
-0.000226301
0.00335318
-0.000221677
0.00340601
-0.000216185
0.00345859
-0.00020979
0.0035111
-0.000202468
0.00356381
-0.000194153
0.00361695
-0.000184702
0.00367127
-0.000174686
-0.000159745
-0.00114793
0.000109311
-0.00116763
0.000100538
-0.00118763
9.44896e-05
-0.00120557
8.64958e-05
-0.00122129
7.90698e-05
-0.00123487
7.2455e-05
-0.00124638
6.64338e-05
-0.00125595
6.08953e-05
-0.00126369
5.56517e-05
-0.00126965
5.05304e-05
-0.0012739
4.53994e-05
-0.00127649
4.01462e-05
-0.00127743
3.46675e-05
-0.00127671
2.88755e-05
-0.00127432
2.27087e-05
-0.00127022
1.61427e-05
-0.00126441
9.1939e-06
-0.00125667
1.73931e-06
-0.00124805
-5.22854e-06
-0.00123818
-1.25933e-05
-0.00122661
-2.05587e-05
-0.00121361
-2.85733e-05
-0.00119915
-3.70131e-05
-0.00118326
-4.57465e-05
-0.00116595
-5.47504e-05
-0.00114724
-6.39877e-05
-0.00112714
-7.34094e-05
-0.00110563
-8.29594e-05
-0.00108274
-9.25769e-05
-0.00105844
-0.000102198
-0.00103274
-0.000111755
-0.00100563
-0.00012118
-0.000977123
-0.000130403
-0.000947201
-0.000139353
-0.000915865
-0.000147961
-0.00088311
-0.000156157
-0.000848933
-0.000163878
-0.000813329
-0.000171062
-0.000776293
-0.000177651
-0.000737819
-0.000183595
-0.000697902
-0.000188849
-0.000656536
-0.000193375
-0.000613712
-0.000197146
-0.00056942
-0.000200141
-0.000523652
-0.00020235
-0.000476396
-0.000203772
-0.000427646
-0.000204418
-0.000377397
-0.000204307
-0.000325644
-0.000203464
-0.000272382
-0.000201923
-0.000217602
-0.000199727
-0.000161295
-0.000196923
-0.000103458
-0.000193569
-4.40908e-05
-0.000189727
1.68475e-05
-0.000185493
7.94737e-05
-0.000180999
0.000143599
-0.000176162
0.000209212
-0.000171138
0.000276304
-0.000166019
0.000344856
-0.000160894
0.000414839
-0.000155845
0.000486209
-0.000150953
0.000558899
-0.000146289
0.000632945
-0.000141917
0.000708284
-0.000137929
0.000784846
-0.0001344
0.000862564
-0.000131387
0.000941366
-0.000128937
0.00102118
-0.000127091
0.00110193
-0.00012589
0.00118351
-0.000125365
0.00126585
-0.000125535
0.00134883
-0.000126412
0.00143235
-0.000127998
0.00151632
-0.000130287
0.00160062
-0.000133265
0.00168512
-0.000136909
0.00176972
-0.000141187
0.0018543
-0.000146063
0.00193872
-0.000151492
0.00202285
-0.000157421
0.00210657
-0.000163791
0.00218977
-0.00017053
0.00227236
-0.00017758
0.00235422
-0.000184881
0.00243522
-0.000192369
0.00251525
-0.000199975
0.00259421
-0.000207628
0.00267199
-0.000215259
0.0027485
-0.000222798
0.00282366
-0.000230178
0.0028974
-0.000237335
0.00296965
-0.00024421
0.00304034
-0.000250747
0.00310944
-0.000256894
0.0031769
-0.000262603
0.00324269
-0.000267829
0.00330679
-0.000272531
0.0033692
-0.000276676
0.00342992
-0.000280232
0.00348897
-0.000283172
0.00354637
-0.000285475
0.00360217
-0.000287122
0.0036564
-0.000288099
0.00370914
-0.000288397
0.00376044
-0.000288006
0.00381039
-0.000286923
0.00385908
-0.000285145
0.00390661
-0.000282672
0.0039531
-0.000279503
0.00399866
-0.000275641
0.00404345
-0.000271087
0.00408762
-0.000265841
0.00413134
-0.000259908
0.00417483
-0.000253282
0.00421832
-0.000245957
0.00426217
-0.000238
0.00430653
-0.000229071
0.00435245
-0.0002206
-0.000207251
3.84557e-05
0.000114762
2.2413e-05
0.000116581
9.36922e-06
0.000107533
-3.10607e-06
9.89711e-05
-1.50492e-05
9.10129e-05
-2.58051e-05
8.32109e-05
-3.50756e-05
7.57043e-05
-4.27434e-05
6.85631e-05
-4.87263e-05
6.16347e-05
-5.29588e-05
5.47629e-05
-5.54251e-05
4.78656e-05
-5.61452e-05
4.08664e-05
-5.51363e-05
3.36586e-05
-5.2384e-05
2.61232e-05
-4.78263e-05
1.8151e-05
-4.13486e-05
9.66503e-06
-3.22752e-05
1.20462e-07
-2.28828e-05
-7.65312e-06
-1.18773e-05
-1.6234e-05
8.48669e-07
-2.53192e-05
1.47256e-05
-3.44356e-05
3.01769e-05
-4.40245e-05
4.70763e-05
-5.39125e-05
6.54149e-05
-6.40851e-05