/*--------------------------------*- C++ -*----------------------------------*\
  =========                 |
  \\      /  F ield         | OpenFOAM: The Open Source CFD Toolbox
   \\    /   O peration     | Website:  https://openfoam.org
    \\  /    A nd           | Version:  7
     \\/     M anipulation  |
\*---------------------------------------------------------------------------*/
FoamFile
{
    version     2.0;
    format      ascii;
    class       volVectorField;
    location    "80";
    object      U;
}
// * * * * * * * * * * * * * * * * * * * * * * * * * * * * * * * * * * * * * //

dimensions      [0 1 -1 0 0 0 0];

internalField   nonuniform List<vector> 
14000
(
(-0.00749732 0.00491728 -4.82703e-22)
(-0.0296143 0.00865816 9.66671e-22)
(-0.0612269 0.00958518 6.20836e-20)
(-0.0905074 0.0093764 1.08247e-20)
(-0.116803 0.00872326 2.10686e-20)
(-0.139936 0.00795005 -1.21897e-20)
(-0.159636 0.00707922 -2.25971e-20)
(-0.175012 0.00578477 2.19312e-20)
(-0.188783 0.00570601 2.14786e-20)
(-0.194023 0.00306133 1.67712e-20)
(-0.00856557 0.0149118 -7.86768e-20)
(-0.0305416 0.0262643 5.20832e-20)
(-0.0605338 0.0290526 -7.08965e-20)
(-0.0875888 0.028355 3.79594e-21)
(-0.11112 0.026275 -5.05726e-20)
(-0.130981 0.0237714 6.21264e-21)
(-0.147229 0.0210312 3.24593e-20)
(-0.157107 0.0163427 -1.42704e-19)
(-0.167957 0.0162586 3.52012e-20)
(-0.164893 0.00624002 1.46238e-22)
(-0.0105982 0.0236967 1.46455e-19)
(-0.0323626 0.0420509 -1.29731e-20)
(-0.0592515 0.0466811 9.84988e-20)
(-0.0819502 0.0455901 -9.22624e-21)
(-0.100001 0.0421966 -1.07803e-19)
(-0.113089 0.0380426 7.95948e-20)
(-0.12277 0.034041 -3.4226e-20)
(-0.120165 0.0253159 3.4344e-20)
(-0.126028 0.027345 -1.04157e-19)
(-0.104535 0.00759277 1.47765e-19)
(-0.0133896 0.0306775 1.72778e-20)
(-0.0349801 0.0549929 -2.33043e-19)
(-0.0575329 0.0613219 -1.38679e-19)
(-0.0739094 0.0599049 7.29583e-20)
(-0.0839116 0.0553399 8.66624e-20)
(-0.0862363 0.0496253 -1.4423e-19)
(-0.0866795 0.0447297 6.17769e-20)
(-0.0624821 0.0323654 4.10753e-20)
(-0.0614054 0.0373183 1.64865e-19)
(-0.00625034 0.0113251 -2.12874e-19)
(-0.0167082 0.0355408 -7.37018e-20)
(-0.0382456 0.0643388 1.14776e-19)
(-0.0554843 0.0719758 3.35876e-19)
(-0.0636687 0.0701655 -1.67511e-19)
(-0.0631283 0.0644711 1.55461e-19)
(-0.0503094 0.0576233 2.62059e-19)
(-0.0377597 0.0498821 -7.30209e-21)
(0.017049 0.038627 7.46502e-21)
(0.0275934 0.0426801 -2.43291e-19)
(0.13897 0.021735 1.14674e-19)
(-0.020358 0.0382793 -1.74724e-19)
(-0.0419247 0.0696794 1.03478e-19)
(-0.052969 0.0778986 -4.68747e-19)
(-0.0509462 0.0754332 2.28212e-19)
(-0.0366632 0.0684082 3.20003e-20)
(-0.00453213 0.0614025 -2.95608e-19)
(0.0288703 0.0484097 -8.67678e-20)
(0.126935 0.0449959 8.6652e-20)
(0.142785 0.0378138 1.64521e-19)
(0.347509 0.0345828 -9.14334e-20)
(-0.0242148 0.0391479 -1.91459e-20)
(-0.0455992 0.0709577 -3.25513e-19)
(-0.0492506 0.0787196 3.21565e-19)
(-0.0343467 0.0751476 -2.3115e-19)
(-0.00121471 0.0668288 5.73512e-20)
(0.056969 0.0608196 1.92062e-19)
(0.122139 0.0424144 -3.52097e-19)
(0.272758 0.051813 -1.47352e-19)
(0.303227 0.0311783 1.25146e-19)
(0.606841 0.0470654 7.29187e-20)
(-0.0282204 0.0385578 1.91679e-19)
(-0.0485071 0.0684223 5.6173e-19)
(-0.0425192 0.0745517 -5.42121e-19)
(-0.010145 0.0694835 1.32576e-19)
(0.0498634 0.0605197 3.31793e-19)
(0.14444 0.0564057 -1.68912e-19)
(0.259954 0.0400003 -5.36716e-20)
(0.452335 0.0568628 -1.99354e-19)
(0.534562 0.0402453 2.37548e-19)
(0.868157 0.068475 -1.66626e-19)
(-0.0322814 0.0368923 -3.51483e-19)
(-0.0493743 0.0625871 9.71689e-20)
(-0.0293755 0.0660369 2.02749e-19)
(0.0284299 0.0596828 -1.00852e-19)
(0.127761 0.0522256 -3.40698e-19)
(0.271578 0.0515068 4.03442e-19)
(0.44978 0.0509772 2.55991e-19)
(0.65933 0.0648653 2.30642e-19)
(0.813059 0.0701356 -1.87888e-19)
(1.07681 0.0962249 1.42151e-19)
(-0.0360524 0.0343806 -8.73043e-20)
(-0.0461817 0.05407 -2.84043e-19)
(-0.00457794 0.054387 -1.68546e-19)
(0.0912215 0.0485522 1.97902e-19)
(0.245043 0.0474524 3.80004e-20)
(0.447281 0.0554743 -2.37673e-19)
(0.671552 0.0742357 2.7694e-19)
(0.879137 0.0874138 -3.88722e-19)
(1.052 0.11171 -2.1848e-19)
(1.19601 0.116807 7.61029e-20)
(-0.0388686 0.0311144 2.13271e-19)
(-0.0359078 0.0434467 2.9934e-19)
(0.0389121 0.0415345 1.24349e-19)
(0.189177 0.0408345 1.73276e-19)
(0.407587 0.0529722 -1.00458e-19)
(0.657307 0.0765278 -2.56814e-19)
(0.887419 0.105548 1.02339e-19)
(1.0676 0.122465 1.25499e-19)
(1.18779 0.14487 4.17637e-19)
(1.23232 0.120575 -2.45395e-19)
(-0.039765 0.0270446 3.18035e-19)
(-0.0145725 0.0312776 -3.87874e-20)
(0.109232 0.0305805 2.86684e-19)
(0.328873 0.0430888 -1.27397e-19)
(0.603469 0.0738387 3.89105e-19)
(0.863139 0.110681 1.54097e-19)
(1.05898 0.140202 1.90585e-19)
(1.1823 0.154713 -3.1179e-19)
(1.23502 0.157949 -1.27286e-19)
(1.25989 0.143585 1.22043e-19)
(-0.0374124 0.0220032 2.28559e-20)
(0.022655 0.0184663 -2.80202e-19)
(0.213556 0.0265875 -2.65939e-19)
(0.503748 0.0607725 -6.71013e-20)
(0.800583 0.108107 -1.05982e-19)
(1.02768 0.147875 1.15406e-19)
(1.16603 0.170351 -4.77527e-19)
(1.23103 0.173921 3.1903e-19)
(1.2546 0.172017 -3.15822e-21)
(1.25863 0.153599 -3.75581e-19)
(-0.0300929 0.0158753 -4.53678e-19)
(0.0811975 0.00714844 -9.25562e-20)
(0.353165 0.0357633 -9.81507e-21)
(0.690098 0.0933607 2.85786e-20)
(0.965896 0.147303 1.49669e-19)
(1.13703 0.180638 -4.66752e-19)
(1.21996 0.191831 4.56373e-19)
(1.25062 0.189674 -1.00451e-19)
(1.25368 0.180267 5.88498e-20)
(1.24776 0.162944 9.6612e-20)
(-0.0156991 0.00883528 1.21107e-20)
(0.165713 0.0019502 3.71943e-19)
(0.51688 0.0613364 9.43857e-20)
(0.859177 0.134276 -5.06578e-20)
(1.0857 0.18439 -4.24181e-20)
(1.2004 0.206865 2.71768e-19)
(1.24405 0.209322 -1.2046e-21)
(1.25175 0.201335 1.98157e-19)
(1.24584 0.18856 -6.17643e-20)
(1.23935 0.172902 -2.88795e-21)
(0.00854221 0.00167289 7.41267e-20)
(0.276927 0.00955642 -1.35008e-19)
(0.682604 0.1004 1.0613e-19)
(0.994479 0.176991 1.40079e-19)
(1.16415 0.217222 -9.18917e-20)
(1.23304 0.228885 -1.52244e-20)
(1.24944 0.223765 -2.65186e-19)
(1.24535 0.2122 -1.73542e-19)
(1.23594 0.196636 2.11985e-19)
(1.22581 0.181496 -1.33156e-19)
(0.0454935 -0.00343393 9.59403e-20)
(0.408143 0.034731 1.71075e-19)
(0.830498 0.147142 1.20066e-19)
(1.09358 0.218486 -1.81108e-19)
(1.21084 0.246475 2.13669e-19)
(1.2453 0.24799 -1.13169e-19)
(1.24528 0.237223 -2.82934e-20)
(1.23486 0.222401 -1.01528e-20)
(1.22322 0.204825 -6.00344e-20)
(1.21368 0.190669 1.91558e-20)
(0.0965178 -0.00295955 2.43593e-19)
(0.545936 0.0765393 -1.35212e-19)
(0.951418 0.197258 8.46199e-20)
(1.16064 0.257851 9.87163e-20)
(1.23428 0.272913 -7.03681e-20)
(1.24506 0.265661 1.06541e-19)
(1.23525 0.250113 3.87493e-20)
(1.22182 0.232561 5.14655e-20)
(1.21014 0.213472 3.27377e-20)
(1.19939 0.199025 5.22623e-20)
(0.160402 0.00665732 -8.97646e-20)
(0.675977 0.130267 -1.3147e-19)
(1.0439 0.248415 -1.0288e-19)
(1.20143 0.294808 -9.74592e-20)
(1.2413 0.297367 -4.28006e-20)
(1.23658 0.282509 4.69615e-20)
(1.22164 0.262904 -2.31191e-20)
(1.20715 0.24269 -2.29597e-22)
(1.19518 0.222042 -2.12431e-20)
(1.18482 0.206947 3.84058e-21)
(0.233266 0.0274547 2.40292e-20)
(0.788142 0.191071 -5.22804e-21)
(1.10961 0.29923 2.32163e-20)
(1.22145 0.329499 1.81489e-20)
(1.23653 0.320355 1.35782e-20)
(1.22253 0.298924 -3.63452e-20)
(1.20522 0.275513 1.67735e-20)
(1.19056 0.252615 -1.63427e-20)
(1.1793 0.230424 -5.21107e-21)
(1.16919 0.213964 -8.49804e-21)
(0.309522 0.0593914 1.2477e-21)
(0.877823 0.25526 -7.29369e-22)
(1.15117 0.34868 -5.02944e-21)
(1.22513 0.362108 6.04121e-20)
(1.22309 0.342182 -1.6352e-20)
(1.20412 0.314843 -1.52902e-20)
(1.18628 0.287759 1.98225e-21)
(1.17228 0.262099 -1.6232e-21)
(1.16172 0.238077 -6.01891e-21)
(1.15253 0.220018 -1.24918e-20)
(0.383102 0.100847 -1.03406e-19)
(0.944079 0.320257 1.95558e-20)
(1.17163 0.395934 -1.6655e-19)
(1.21579 0.392588 -5.82624e-20)
(1.20288 0.362808 -1.7766e-20)
(1.18203 0.330023 -2.23514e-21)
(1.16489 0.299286 -1.16495e-20)
(1.1521 0.2708 -6.23349e-21)
(1.14278 0.244881 5.90696e-21)
(1.13428 0.224995 8.58174e-21)
(0.448457 0.149506 1.78426e-19)
(0.987335 0.383988 -9.09424e-20)
(1.17381 0.440086 1.26482e-19)
(1.19581 0.420682 5.02251e-20)
(1.17705 0.381959 -1.74659e-20)
(1.15653 0.344022 5.79274e-20)
(1.14109 0.309651 -1.46816e-20)
(1.13019 0.278422 1.65409e-20)
(1.12221 0.250786 3.30127e-21)
(1.11436 0.228814 5.32537e-21)
(0.501307 0.202778 -1.09301e-19)
(1.0089 0.44467 4.13673e-19)
(1.16025 0.480296 -7.60556e-20)
(1.16692 0.445948 -4.223e-20)
(1.14635 0.399111 8.85022e-20)
(1.12794 0.356307 -3.67049e-20)
(1.11506 0.318374 -1.26663e-20)
(1.10653 0.284618 -8.0653e-21)
(1.09999 0.255714 1.36031e-21)
(1.09353 0.231444 -1.06718e-20)
(0.538957 0.257894 -1.98227e-19)
(1.01048 0.500655 -2.20909e-19)
(1.13301 0.515644 1.3472e-19)
(1.13052 0.467734 3.71343e-20)
(1.11147 0.413589 -4.34644e-20)
(1.09664 0.366326 -5.20098e-21)
(1.08702 0.325084 1.906e-20)
(1.08105 0.289153 6.80185e-21)
(1.07617 0.259041 -2.12294e-20)
(1.07209 0.232722 -2.42544e-21)
(0.560263 0.311965 6.83724e-20)
(0.993987 0.550383 2.83842e-19)
(1.09389 0.545105 -5.70737e-20)
(1.08799 0.485221 4.42431e-21)
(1.07309 0.424676 -3.24711e-21)
(1.0628 0.373467 1.0054e-21)
(1.05702 0.329481 1.49818e-20)
(1.05387 0.2917 -1.21291e-20)
(1.05127 0.260487 2.00781e-20)
(1.05005 0.232555 -1.97108e-20)
(0.565425 0.362207 -5.05338e-19)
(0.961205 0.592223 2.51226e-20)
(1.04494 0.567678 -1.05012e-19)
(1.04048 0.497377 1.2365e-20)
(1.03155 0.431727 -1.80662e-21)
(1.02666 0.377224 5.9496e-20)
(1.02534 0.331069 -4.83262e-20)
(1.02553 0.291931 2.80749e-20)
(1.02588 0.259766 -2.67638e-20)
(1.02815 0.23087 -8.9789e-20)
(0.555517 0.406337 2.56348e-19)
(0.913684 0.624099 -2.39156e-19)
(0.988472 0.582497 -1.67744e-20)
(0.988924 0.503408 -2.84345e-21)
(0.987435 0.43397 9.20974e-20)
(0.988782 0.377055 -8.96352e-21)
(0.992404 0.329437 7.21829e-20)
(0.996566 0.289448 8.40332e-21)
(1.00085 0.2567 5.78315e-21)
(1.00722 0.227763 1.25662e-19)
(0.531661 0.442662 1.41567e-19)
(0.853912 0.64443 -1.96427e-20)
(0.926508 0.588316 -8.08186e-21)
(0.93442 0.502855 7.21931e-20)
(0.941494 0.430867 -3.09079e-20)
(0.949638 0.372469 -1.10228e-19)
(0.958695 0.324056 -7.09619e-20)
(0.967598 0.28366 7.04851e-21)
(0.976879 0.250765 9.76995e-20)
(0.987642 0.223587 -7.9812e-20)
(0.495038 0.468627 -1.23156e-20)
(0.78593 0.652884 -2.61597e-20)
(0.860918 0.584221 -1.00469e-19)
(0.878112 0.495164 4.56973e-21)
(0.894515 0.421985 1.50797e-19)
(0.909876 0.363119 -4.81176e-20)
(0.924767 0.314589 1.80341e-19)
(0.93903 0.273997 -2.49134e-19)
(0.95388 0.240697 -1.67867e-19)
(0.96825 0.217161 -3.61683e-20)
(0.447982 0.480971 3.69024e-20)
(0.712279 0.647918 5.4024e-20)
(0.793238 0.57011 3.47675e-20)
(0.821194 0.47989 -5.35913e-20)
(0.84738 0.407043 -2.2755e-19)
(0.870221 0.348821 2.14793e-19)
(0.891266 0.301055 8.32903e-20)
(0.911091 0.260864 1.08036e-19)
(0.93118 0.22604 3.09552e-19)
(0.946409 0.199854 -7.51876e-20)
(0.394662 0.47934 1.3135e-19)
(0.635957 0.629105 -2.33103e-20)
(0.725352 0.545784 -5.78873e-20)
(0.764926 0.456779 1.12548e-19)
(0.801054 0.385849 2.01349e-19)
(0.831515 0.329431 -4.77823e-19)
(0.858904 0.283439 -7.44708e-20)
(0.884002 0.245245 -1.94344e-19)
(0.907191 0.212984 3.93501e-20)
(0.921946 0.188133 -1.41202e-19)
(0.338235 0.463352 -2.66477e-19)
(0.559622 0.596102 -1.20403e-19)
(0.659054 0.51131 4.01084e-19)
(0.710597 0.425833 -2.3017e-19)
(0.756537 0.358409 -3.32236e-19)
(0.794553 0.3049 3.11824e-19)
(0.828243 0.261255 -2.86108e-19)
(0.858459 0.22477 1.42257e-19)
(0.884987 0.193861 -1.77031e-19)
(0.901883 0.17029 2.8017e-19)
(0.281833 0.433433 -1.08461e-19)
(0.486071 0.549288 5.95269e-19)
(0.59615 0.466955 -6.20356e-19)
(0.659498 0.387269 2.5953e-20)
(0.714836 0.324971 2.02699e-19)
(0.760038 0.275733 -1.25387e-20)
(0.799444 0.235821 4.37481e-19)
(0.833817 0.202679 -3.81607e-19)
(0.863081 0.174585 2.78171e-19)
(0.883087 0.152525 -1.88146e-19)
(0.228276 0.390603 -1.77453e-19)
(0.417818 0.489393 9.70326e-20)
(0.538367 0.413232 2.67236e-19)
(0.612895 0.341486 3.07429e-19)
(0.676993 0.28575 -7.06039e-20)
(0.728923 0.241748 2.91801e-19)
(0.773651 0.206092 2.45153e-20)
(0.811848 0.176535 3.15351e-20)
(0.843802 0.151673 -1.1205e-19)
(0.866862 0.132256 -6.0743e-21)
(0.179969 0.336432 5.35481e-19)
(0.357119 0.417618 -3.71758e-19)
(0.487365 0.350928 -4.96853e-19)
(0.571949 0.289193 2.78968e-20)
(0.643814 0.241489 -1.46207e-19)
(0.70162 0.203939 1.22161e-19)
(0.750883 0.173595 -4.46841e-19)
(0.792336 0.148443 1.31824e-19)
(0.82688 0.12719 3.7529e-19)
(0.853045 0.110418 -1.81549e-19)
(0.138791 0.272595 7.27197e-20)
(0.305999 0.335719 4.62252e-19)
(0.444727 0.281112 3.33967e-19)
(0.537808 0.231177 -3.1245e-19)
(0.616247 0.192683 1.95022e-19)
(0.679007 0.162422 -8.83678e-20)
(0.732028 0.138016 -5.75758e-20)
(0.776155 0.11784 -2.73838e-20)
(0.812934 0.100792 -1.16058e-19)
(0.841879 0.0872112 2.1432e-19)
(0.106301 0.200731 -3.58563e-19)
(0.26612 0.245733 -4.18063e-19)
(0.411662 0.205242 -6.76566e-21)
(0.51135 0.168555 2.97785e-19)
(0.594906 0.140315 -5.46244e-20)
(0.661503 0.11814 -5.90848e-20)
(0.717409 0.100272 8.58709e-20)
(0.763595 0.0854999 -4.63976e-20)
(0.802179 0.0729876 -3.70366e-20)
(0.833437 0.0629394 3.85089e-20)
(0.0838439 0.122879 5.2131e-20)
(0.238792 0.149827 -6.8574e-20)
(0.389103 0.124927 2.95911e-19)
(0.493311 0.102506 -7.2594e-20)
(0.58037 0.0852578 1.36988e-19)
(0.649587 0.0717249 -3.68037e-20)
(0.707446 0.0608312 -5.74226e-20)
(0.755026 0.0518297 9.19937e-20)
(0.794871 0.044186 1.28039e-20)
(0.827795 0.0380017 -3.31411e-20)
(0.0723735 0.0413375 -1.41078e-21)
(0.224905 0.0503028 1.85557e-21)
(0.37767 0.0419052 1.37552e-19)
(0.484172 0.0343687 -6.87559e-20)
(0.573008 0.0285731 3.15452e-20)
(0.643552 0.0240275 -1.67147e-20)
(0.702397 0.0203701 1.99329e-20)
(0.750679 0.0173487 -2.61885e-20)
(0.79117 0.014779 -1.59603e-20)
(0.824971 0.0126913 5.6481e-24)
(0.0723778 -0.0414485 1.41034e-21)
(0.224911 -0.0504406 -1.85545e-21)
(0.377676 -0.0420266 -1.37548e-19)
(0.484178 -0.034472 -2.45258e-20)
(0.573013 -0.0286607 -4.16023e-20)
(0.643557 -0.0241014 2.22704e-20)
(0.702401 -0.0204319 3.53361e-20)
(0.750683 -0.0173999 -3.24814e-20)
(0.791174 -0.0148208 -2.8486e-20)
(0.824974 -0.0127252 -1.95648e-20)
(0.0838568 -0.12299 1.66764e-19)
(0.23881 -0.149965 -1.18555e-19)
(0.389122 -0.125048 1.68852e-19)
(0.493328 -0.102608 -2.34799e-21)
(0.580386 -0.0853448 9.85213e-20)
(0.649601 -0.0717981 -8.10684e-21)
(0.707459 -0.0608923 -4.98748e-20)
(0.755038 -0.0518803 2.01637e-19)
(0.794882 -0.0442272 -4.73116e-20)
(0.827804 -0.0380353 -1.24795e-21)
(0.106323 -0.200842 -3.57939e-19)
(0.266151 -0.24587 4.16644e-20)
(0.411693 -0.205362 -2.27454e-19)
(0.511379 -0.168656 2.10652e-20)
(0.594932 -0.140401 1.9624e-19)
(0.661527 -0.118212 -1.32682e-19)
(0.717431 -0.100331 5.26934e-20)
(0.763615 -0.0855492 -4.9173e-20)
(0.802197 -0.0730276 1.30597e-19)
(0.833452 -0.0629718 -1.73733e-19)
(0.138822 -0.272706 -5.74717e-21)
(0.306043 -0.335855 5.12822e-19)
(0.444771 -0.28123 2.79645e-19)
(0.537848 -0.231277 -1.36146e-19)
(0.616284 -0.192767 -1.60211e-19)
(0.67904 -0.162492 2.40105e-19)
(0.732059 -0.138074 -9.21412e-20)
(0.776183 -0.117887 -5.76306e-20)
(0.812959 -0.10083 -1.9227e-19)
(0.8419 -0.0872419 2.45293e-19)
(0.180009 -0.336543 1.57176e-19)
(0.357176 -0.417753 -2.27477e-19)
(0.487421 -0.351043 -6.27896e-19)
(0.572001 -0.28929 2.98643e-19)
(0.643861 -0.24157 -2.66161e-19)
(0.701663 -0.204007 -3.76385e-19)
(0.750922 -0.17365 2.90282e-20)
(0.792372 -0.148487 -1.21708e-20)
(0.826913 -0.127225 2.74095e-19)
(0.853073 -0.110447 -1.27815e-19)
(0.228326 -0.390715 2.6643e-19)
(0.417889 -0.489525 -1.52519e-19)
(0.538436 -0.413345 7.75306e-19)
(0.612958 -0.34158 -3.62632e-19)
(0.677052 -0.285828 -3.55248e-20)
(0.728976 -0.241812 4.13067e-19)
(0.773699 -0.206143 1.27081e-19)
(0.811892 -0.176576 -1.05863e-19)
(0.843841 -0.151704 -1.77059e-19)
(0.866895 -0.132281 9.51235e-20)
(0.281895 -0.433545 -4.73259e-21)
(0.486156 -0.549417 4.06847e-19)
(0.596233 -0.467064 -4.45723e-19)
(0.659573 -0.387359 3.06052e-19)
(0.714905 -0.325045 -7.53992e-20)
(0.7601 -0.275793 -2.47475e-19)
(0.799501 -0.235869 4.06974e-19)
(0.833869 -0.202716 1.56837e-19)
(0.863128 -0.174614 -1.36194e-19)
(0.883126 -0.152547 -6.86867e-20)
(0.338308 -0.463463 -1.36927e-19)
(0.559721 -0.596229 -6.41072e-19)
(0.65915 -0.511415 6.22713e-19)
(0.710684 -0.425918 -1.65528e-19)
(0.756617 -0.358478 -3.61769e-19)
(0.794625 -0.304955 1.7407e-19)
(0.828308 -0.261298 3.55911e-20)
(0.858518 -0.224802 1.90808e-19)
(0.88504 -0.193884 -2.20159e-19)
(0.901929 -0.170305 1.47018e-19)
(0.394748 -0.47945 2.36884e-19)
(0.636072 -0.629228 -4.95096e-20)
(0.725462 -0.545884 -2.20792e-19)
(0.765026 -0.456859 8.96301e-20)
(0.801145 -0.385912 3.45113e-19)
(0.831597 -0.32948 -3.82193e-19)
(0.858978 -0.283477 -2.46128e-19)
(0.884069 -0.245272 -2.00185e-19)
(0.907251 -0.213003 1.61267e-19)
(0.921998 -0.188145 -1.20567e-19)
(0.448081 -0.481078 -5.31204e-20)
(0.712409 -0.648036 9.36745e-20)
(0.793362 -0.570203 5.64308e-20)
(0.821306 -0.479963 -1.46411e-19)
(0.847482 -0.4071 -2.40631e-20)
(0.870313 -0.348864 2.12529e-19)
(0.891348 -0.301086 -2.19404e-19)
(0.911164 -0.260885 3.10223e-19)
(0.931247 -0.22605 1.54369e-19)
(0.946468 -0.199856 -5.30909e-20)
(0.495149 -0.468731 -4.67545e-21)
(0.786078 -0.652996 -2.94573e-20)
(0.861056 -0.584307 -9.0232e-20)
(0.878236 -0.495229 -6.18936e-20)
(0.894628 -0.422034 6.00895e-20)
(0.909977 -0.363154 1.56789e-19)
(0.924857 -0.314612 -6.74819e-20)
(0.939111 -0.27401 -8.15433e-20)
(0.953952 -0.240702 -2.99137e-19)
(0.968314 -0.217159 1.69165e-19)
(0.531785 -0.442762 1.85329e-19)
(0.854076 -0.644536 1.83126e-20)
(0.92666 -0.588394 -2.97395e-20)
(0.934556 -0.502912 4.91005e-20)
(0.941617 -0.430908 -1.47584e-19)
(0.949749 -0.372496 -7.62106e-20)
(0.958794 -0.324071 -9.75778e-20)
(0.967686 -0.283665 1.77869e-19)
(0.976956 -0.250763 7.25224e-20)
(0.98771 -0.223579 -6.90777e-20)
(0.555655 -0.40643 9.90509e-20)
(0.913865 -0.624197 -1.42876e-19)
(0.988639 -0.582566 -1.96094e-20)
(0.989073 -0.503455 6.55543e-21)
(0.987568 -0.434002 3.62137e-20)
(0.988902 -0.377072 -9.63849e-21)
(0.992511 -0.329444 1.77675e-19)
(0.996661 -0.289444 -1.45668e-19)
(1.00093 -0.256689 -1.08106e-20)
(1.00729 -0.227747 1.98306e-19)
(0.565575 -0.362293 -3.70299e-19)
(0.961404 -0.592314 -1.07819e-19)
(1.04512 -0.567737 -1.02724e-20)
(1.04064 -0.497414 -9.63685e-22)
(1.03169 -0.431748 5.79155e-21)
(1.02679 -0.377231 7.99111e-20)
(1.02546 -0.331065 -1.1601e-19)
(1.02563 -0.291918 2.69878e-20)
(1.02597 -0.259746 -3.28326e-20)
(1.02823 -0.230844 -5.36492e-20)
(0.560423 -0.312043 8.94332e-21)
(0.994204 -0.550465 2.92674e-19)
(1.09408 -0.545154 3.0609e-20)
(1.08817 -0.485247 -1.67437e-20)
(1.07324 -0.424686 -1.35924e-22)
(1.06294 -0.373463 2.52102e-21)
(1.05714 -0.329466 1.93688e-20)
(1.05398 -0.291676 -2.86504e-20)
(1.05137 -0.260456 4.11086e-21)
(1.05013 -0.232518 -1.83798e-21)
(0.539126 -0.257964 7.33773e-20)
(1.01071 -0.500728 -1.37098e-19)
(1.13322 -0.515683 4.82732e-20)
(1.1307 -0.467748 6.25334e-20)
(1.11163 -0.413586 -4.51712e-20)
(1.09679 -0.36631 -3.37609e-21)
(1.08715 -0.325058 -1.15169e-20)
(1.08117 -0.289117 1.53633e-20)
(1.07627 -0.258999 -2.18682e-20)
(1.07217 -0.232675 2.13655e-20)
(0.501482 -0.202838 1.00942e-19)
(1.00915 -0.444735 1.73694e-19)
(1.16048 -0.480324 9.8866e-20)
(1.16712 -0.445949 -1.06486e-19)
(1.14652 -0.399095 9.72026e-20)
(1.1281 -0.356279 -4.16267e-20)
(1.1152 -0.318335 -5.7619e-21)
(1.10665 -0.284569 -5.278e-21)
(1.1001 -0.25566 1.87032e-21)
(1.09362 -0.231385 -1.19018e-20)
(0.448634 -0.149555 2.59827e-19)
(0.987605 -0.384046 -1.36663e-19)
(1.17405 -0.440103 7.8113e-20)
(1.19603 -0.420671 7.19636e-20)
(1.17724 -0.38193 -3.1683e-20)
(1.15669 -0.34398 4.87044e-20)
(1.14124 -0.309598 1.48867e-20)
(1.13032 -0.27836 1.55571e-20)
(1.12231 -0.250718 8.62704e-21)
(1.11445 -0.228741 3.55725e-21)
(0.383274 -0.100885 -9.50625e-20)
(0.944365 -0.320308 -1.32184e-19)
(1.17189 -0.395942 -8.72753e-20)
(1.21602 -0.392565 -7.99343e-20)
(1.20308 -0.362765 -2.7896e-20)
(1.1822 -0.329967 3.63504e-20)
(1.16504 -0.299219 -1.462e-20)
(1.15223 -0.270722 2.96586e-21)
(1.14289 -0.244797 -7.86251e-21)
(1.13438 -0.224906 4.76507e-21)
(0.309682 -0.0594171 2.46032e-20)
(0.878125 -0.255305 -5.37495e-21)
(1.15146 -0.348681 2.2073e-20)
(1.22537 -0.362074 1.45059e-20)
(1.2233 -0.342126 1.26473e-20)
(1.20431 -0.314772 -2.92833e-20)
(1.18644 -0.287676 1.30483e-20)
(1.17242 -0.262006 -1.21239e-20)
(1.16183 -0.237975 -2.96464e-21)
(1.15262 -0.219912 -3.92174e-21)
(0.233407 -0.0274681 1.02439e-21)
(0.788456 -0.191111 -7.78539e-22)
(1.10992 -0.299226 -5.21149e-21)
(1.22171 -0.329457 6.67578e-20)
(1.23675 -0.320287 -1.80972e-20)
(1.22272 -0.298839 -2.08128e-20)
(1.20539 -0.275414 3.80098e-21)
(1.19071 -0.252504 -3.8211e-21)
(1.17942 -0.230304 -9.00687e-21)
(1.16929 -0.213838 -1.98161e-20)
(0.160518 -0.00665888 -9.84626e-20)
(0.676297 -0.130301 2.13558e-20)
(1.04424 -0.248409 -1.8326e-19)
(1.20172 -0.294761 -6.94342e-20)
(1.24154 -0.297289 -2.5714e-20)
(1.23679 -0.28241 -7.59445e-21)
(1.22182 -0.262789 -1.94521e-20)
(1.2073 -0.24256 -1.85248e-20)
(1.19531 -0.221901 5.6199e-21)
(1.18492 -0.206799 1.37603e-20)
(0.0966047 0.0029671 1.66558e-19)
(0.546248 -0.076564 -9.34034e-20)
(0.951778 -0.197253 1.43623e-19)
(1.16096 -0.257803 7.35303e-20)
(1.23455 -0.272829 -4.31962e-20)
(1.24529 -0.265551 1.33296e-19)
(1.23545 -0.249982 -2.79036e-20)
(1.22199 -0.232412 5.11013e-20)
(1.21028 -0.213307 3.5194e-21)
(1.1995 -0.198849 5.06363e-20)
(0.0455518 0.00344608 -1.02861e-19)
(0.408424 -0.0347409 4.26992e-19)
(0.83088 -0.147142 -9.37478e-20)
(1.09393 -0.218444 -7.95927e-20)
(1.21113 -0.246391 2.0327e-19)
(1.24555 -0.247872 -9.03067e-20)
(1.2455 -0.237077 -4.67944e-20)
(1.23504 -0.22223 -2.51717e-20)
(1.22338 -0.204634 -9.56173e-20)
(1.21379 -0.190463 3.42886e-20)
(0.00857586 -0.00166059 -1.86183e-19)
(0.277156 -0.00954838 -2.53529e-19)
(0.682994 -0.100406 2.00319e-19)
(0.994874 -0.176963 5.63065e-20)
(1.16449 -0.217147 -1.45173e-19)
(1.23332 -0.228766 -1.46985e-19)
(1.24969 -0.223607 7.82261e-21)
(1.24556 -0.212009 -9.56537e-20)
(1.2361 -0.196416 1.45507e-19)
(1.22594 -0.18125 -2.09172e-20)
(-0.0156826 -0.00882496 8.27891e-20)
(0.165878 -0.0019303 3.96114e-19)
(0.517248 -0.061344 -4.97451e-20)
(0.85961 -0.134267 1.39968e-20)
(1.0861 -0.184335 -3.3036e-20)
(1.20074 -0.206755 1.92693e-19)
(1.24434 -0.20916 6.52425e-20)
(1.25199 -0.201122 1.11038e-19)
(1.24604 -0.18831 -1.01467e-19)
(1.23949 -0.172615 6.10187e-20)
(-0.0300864 -0.0158669 -6.12824e-19)
(0.0813029 -0.00713036 1.55781e-19)
(0.353469 -0.0357718 -1.98935e-19)
(0.690544 -0.0933756 2.39837e-19)
(0.966364 -0.147282 -5.92298e-20)
(1.13745 -0.180554 -3.38113e-19)
(1.22032 -0.191673 1.81017e-19)
(1.25092 -0.189449 -6.76751e-20)
(1.25391 -0.179976 6.15488e-20)
(1.24792 -0.162599 1.84058e-19)
(-0.037412 -0.0219985 2.86956e-19)
(0.0227145 -0.0184668 -4.31414e-19)
(0.213778 -0.0266113 -5.33897e-20)
(0.50416 -0.0608135 -2.66397e-19)
(0.801105 -0.108131 -3.2906e-19)
(1.02822 -0.147837 1.6208e-19)
(1.1665 -0.170221 -2.01523e-19)
(1.23142 -0.173679 -2.42377e-20)
(1.2549 -0.171705 -1.88616e-20)
(1.25882 -0.15318 -2.35206e-19)
(-0.0397691 -0.027049 2.66504e-19)
(-0.0145437 -0.0313158 -1.02042e-19)
(0.109389 -0.03065 9.73215e-20)
(0.329217 -0.0431735 -1.44342e-19)
(0.603997 -0.0739147 1.42014e-19)
(0.863775 -0.110705 2.63214e-19)
(1.05962 -0.140123 1.56025e-19)
(1.18284 -0.1545 -7.75444e-21)
(1.23545 -0.157576 -1.73863e-19)
(1.26016 -0.143111 1.39412e-19)
(-0.0388793 -0.0311378 3.10052e-19)
(-0.0358982 -0.0435455 9.94085e-20)
(0.0390365 -0.0416851 1.66681e-19)
(0.189464 -0.0409989 4.89681e-20)
(0.408079 -0.0531245 -2.38267e-19)
(0.657996 -0.076627 7.14552e-20)
(0.888228 -0.105546 -2.71675e-19)
(1.06842 -0.122292 3.76043e-19)
(1.18843 -0.144538 2.25669e-19)
(1.23277 -0.11989 6.01798e-20)
(-0.0360778 -0.0344406 -4.38685e-19)
(-0.046184 -0.0542513 -1.09184e-19)
(-0.00445745 -0.0546474 -1.27256e-19)
(0.0914929 -0.0488314 7.40494e-20)
(0.245506 -0.0477162 3.01004e-19)
(0.447974 -0.0556697 -2.42357e-19)
(0.672463 -0.0743372 -1.0524e-19)
(0.880192 -0.087314 -1.32838e-19)
(1.05309 -0.111411 -4.24133e-19)
(1.19671 -0.116193 1.07719e-19)
(-0.0323256 -0.0370097 -1.79008e-19)
(-0.0493859 -0.0628718 3.91656e-20)
(-0.0292514 -0.0664228 1.9557e-20)
(0.0287097 -0.0600936 -1.19815e-19)
(0.128225 -0.0526206 -1.91852e-19)
(0.272258 -0.0518212 5.07019e-19)
(0.450758 -0.0512102 7.13107e-20)
(0.660452 -0.0648576 2.21682e-19)
(0.814657 -0.0698993 -4.37057e-20)
(1.07794 -0.0956648 1.67032e-19)
(-0.0282824 -0.0387443 3.19343e-19)
(-0.0485331 -0.0688227 7.14273e-20)
(-0.0424031 -0.075066 -3.37629e-19)
(-0.00986526 -0.0700212 1.88158e-19)
(0.050327 -0.0610408 3.06334e-19)
(0.145106 -0.0568459 -2.98594e-19)
(0.260926 -0.0403429 2.54832e-19)
(0.453461 -0.0569841 -1.38494e-19)
(0.536336 -0.04006 2.01659e-19)
(0.869727 -0.0679699 -3.16748e-19)
(-0.0242928 -0.0394108 6.13932e-20)
(-0.0456462 -0.0714753 -4.60354e-19)
(-0.0491583 -0.0793489 4.47479e-19)
(-0.0340951 -0.0757903 -2.5619e-20)
(-0.000787223 -0.0674467 -1.48942e-19)
(0.0575795 -0.0613523 -5.16187e-21)
(0.123001 -0.0428184 -3.9245e-19)
(0.273853 -0.0520648 3.52914e-19)
(0.304745 -0.0309632 -2.82387e-19)
(0.608669 -0.0465577 1.96889e-19)
(-0.020448 -0.0386209 9.20572e-20)
(-0.0419918 -0.0703079 -4.62158e-20)
(-0.0529094 -0.0786215 -1.5837e-19)
(-0.0507479 -0.0761492 -1.94493e-19)
(-0.0363131 -0.0690781 4.40744e-20)
(-0.00404725 -0.0619828 -2.16571e-19)
(0.029549 -0.0488338 -7.20027e-21)
(0.127851 -0.0452526 -3.28367e-20)
(0.143855 -0.0375238 9.74535e-20)
(0.349173 -0.0340305 4.53339e-21)
(-0.016802 -0.0359565 -2.63992e-19)
(-0.0383245 -0.0650623 1.88987e-19)
(-0.055458 -0.0727716 2.65948e-19)
(-0.0635327 -0.0709276 -1.14639e-20)
(-0.062886 -0.0651567 8.78619e-20)
(-0.0499829 -0.0581973 -8.26366e-20)
(-0.0372907 -0.0502597 3.30524e-19)
(0.0176391 -0.0387796 -1.06513e-19)
(0.0281957 -0.042285 -3.38636e-19)
(0.140032 -0.0209969 1.60168e-19)
(-0.0134768 -0.0311571 -1.85992e-20)
(-0.0350596 -0.0557923 -2.12673e-19)
(-0.0575326 -0.0621703 -1.68235e-19)
(-0.0738313 -0.060693 1.63953e-19)
(-0.0837677 -0.0560235 -1.20966e-19)
(-0.0860457 -0.0501576 5.5109e-20)
(-0.0864324 -0.0450198 4.13081e-20)
(-0.0622017 -0.0323633 1.92907e-20)
(-0.0611921 -0.0367595 1.00383e-19)
(-0.00577081 -0.0101722 -1.89387e-19)
(-0.0106687 -0.0242261 1.45549e-19)
(-0.0324305 -0.0429064 1.83789e-19)
(-0.059265 -0.0475645 5.73345e-21)
(-0.0819144 -0.0463898 -1.47398e-19)
(-0.0999301 -0.0428661 2.40554e-20)
(-0.113004 -0.0385263 3.78461e-20)
(-0.122684 -0.0342443 -5.74357e-20)
(-0.12011 -0.0251302 2.99272e-20)
(-0.12609 -0.0265803 3.07659e-20)
(-0.10462 -0.0060263 -3.15933e-20)
(-0.00861137 -0.0154752 -2.07559e-20)
(-0.0305872 -0.0271564 2.86382e-20)
(-0.0605483 -0.029957 -1.27856e-19)
(-0.0875769 -0.0291581 3.32385e-20)
(-0.111094 -0.026928 -7.32918e-20)
(-0.130955 -0.0242112 1.98557e-20)
(-0.14722 -0.0211551 3.57718e-20)
(-0.157143 -0.0160174 -6.40485e-20)
(-0.168092 -0.0153031 -7.40876e-21)
(-0.165095 -0.00443544 2.86156e-20)
(-0.00751319 -0.00549779 -1.42893e-20)
(-0.0296303 -0.00956831 3.05157e-21)
(-0.0612328 -0.0104992 6.81384e-20)
(-0.0905051 -0.0101799 2.7056e-20)
(-0.116797 -0.00936576 -1.59256e-20)
(-0.139931 -0.00836471 9.04113e-21)
(-0.159642 -0.00715837 -1.21186e-20)
(-0.175039 -0.00538457 1.86921e-20)
(-0.18885 -0.00464939 1.23835e-20)
(-0.194126 -0.00113458 4.59364e-24)
(-0.197721 0.00443446 -4.91866e-20)
(-0.201455 0.00441471 3.5197e-20)
(-0.204677 0.00432221 4.78896e-22)
(-0.207511 0.00426498 -6.09491e-21)
(-0.210025 0.00423629 -1.21647e-20)
(-0.212253 0.00422679 -1.39814e-20)
(-0.214225 0.00422347 -2.39091e-20)
(-0.215971 0.00421135 4.25126e-20)
(-0.217513 0.00418302 -2.40985e-20)
(-0.218867 0.00413102 4.94081e-20)
(-0.220046 0.00404668 -3.11123e-20)
(-0.22106 0.00392213 -4.48821e-21)
(-0.221916 0.00375125 -1.09772e-20)
(-0.222618 0.00352958 2.84588e-20)
(-0.223171 0.0032542 -1.87424e-20)
(-0.223578 0.00292366 1.91063e-20)
(-0.223839 0.002538 -1.32859e-20)
(-0.223957 0.00209838 -1.11821e-20)
(-0.223934 0.00160708 7.20205e-21)
(-0.22377 0.00106847 -4.7805e-21)
(-0.223463 0.000481945 1.78231e-20)
(-0.223027 -0.000158964 -8.11927e-21)
(-0.222472 -0.000848275 -1.2013e-20)
(-0.221785 -0.00158038 7.44871e-21)
(-0.220962 -0.00235053 -1.00994e-20)
(-0.220003 -0.003155 1.18858e-20)
(-0.218909 -0.00398459 3.29345e-21)
(-0.217679 -0.00482812 -9.48905e-21)
(-0.21631 -0.00567645 1.70114e-20)
(-0.214802 -0.00652061 1.73551e-20)
(-0.213152 -0.00735132 -1.80417e-20)
(-0.211357 -0.00815895 7.59665e-21)
(-0.209416 -0.00893372 9.31393e-21)
(-0.207327 -0.00966582 -1.67115e-20)
(-0.205089 -0.0103456 1.95126e-20)
(-0.202699 -0.0109635 -1.90704e-20)
(-0.200156 -0.0115107 2.26962e-20)
(-0.19746 -0.0119784 -1.03416e-20)
(-0.194608 -0.0123586 -3.9985e-21)
(-0.1916 -0.0126443 7.20942e-22)
(-0.188433 -0.012829 6.04208e-21)
(-0.185108 -0.0129076 3.50934e-21)
(-0.181622 -0.0128761 7.64507e-23)
(-0.177976 -0.0127317 -9.28684e-21)
(-0.174168 -0.0124731 -1.05e-21)
(-0.170196 -0.0121007 -2.96901e-21)
(-0.166058 -0.0116173 6.26258e-21)
(-0.161757 -0.011029 -5.34823e-22)
(-0.157295 -0.0103436 6.71039e-21)
(-0.152676 -0.00955853 -1.28343e-20)
(-0.1479 -0.00867881 6.48804e-21)
(-0.142967 -0.00771217 5.00821e-22)
(-0.137874 -0.00666829 -1.09878e-20)
(-0.132625 -0.00555972 5.28364e-21)
(-0.127224 -0.00439513 2.39856e-21)
(-0.121679 -0.00318588 1.37562e-21)
(-0.115991 -0.00194809 -3.23183e-21)
(-0.110161 -0.00069332 1.88211e-22)
(-0.104193 0.00056526 1.00991e-20)
(-0.0980888 0.00181396 -1.47381e-20)
(-0.0918532 0.00303878 1.01563e-20)
(-0.0854887 0.00422494 1.38742e-21)
(-0.0789896 0.0053574 -1.39637e-21)
(-0.0723804 0.00641416 -1.05989e-21)
(-0.0656805 0.00739608 1.15771e-21)
(-0.0588778 0.00829451 -2.19637e-21)
(-0.0519752 0.00909967 -2.06606e-22)
(-0.0449781 0.00980197 -5.48356e-22)
(-0.0378925 0.0103935 2.81642e-22)
(-0.0307251 0.010869 1.49549e-21)
(-0.0234828 0.0112214 -2.81213e-21)
(-0.0161715 0.011446 -7.50937e-22)
(-0.00879823 0.0115397 2.31837e-21)
(-0.00136907 0.0115008 1.62306e-21)
(0.00611199 0.011329 -1.93835e-21)
(0.0136375 0.0110262 7.98662e-22)
(0.0211989 0.0105943 -2.12971e-21)