/*--------------------------------*- C++ -*----------------------------------*\
  =========                 |
  \\      /  F ield         | OpenFOAM: The Open Source CFD Toolbox
   \\    /   O peration     | Website:  https://openfoam.org
    \\  /    A nd           | Version:  7
     \\/     M anipulation  |
\*---------------------------------------------------------------------------*/
FoamFile
{
    version     2.0;
    format      ascii;
    class       volScalarField;
    location    "35";
    object      p;
}
// * * * * * * * * * * * * * * * * * * * * * * * * * * * * * * * * * * * * * //

dimensions      [0 2 -2 0 0 0 0];

internalField   nonuniform List<scalar> 
1360
(
-0.0766092
-0.0750296
-0.073762
-0.0728092
-0.0721731
-0.071855
-0.115399
-0.112656
-0.110064
-0.107087
-0.103872
-0.100539
-0.0971804
-0.0938788
-0.0906979
-0.087686
-0.0848798
-0.0823064
-0.079986
-0.0779336
-0.0761599
-0.0746729
-0.0734781
-0.0725792
-0.0719786
-0.0716782
-0.11157
-0.109133
-0.106828
-0.104158
-0.101254
-0.0982245
-0.0951547
-0.0921218
-0.0891871
-0.0863978
-0.0837904
-0.0813924
-0.0792248
-0.0773033
-0.0756398
-0.074243
-0.0731193
-0.0722732
-0.0717075
-0.0714244
-0.107848
-0.105696
-0.103658
-0.101276
-0.0986637
-0.0959203
-0.0931237
-0.0903463
-0.0876465
-0.0850704
-0.0826539
-0.080425
-0.078405
-0.0766104
-0.0750539
-0.0737449
-0.0726905
-0.0718958
-0.0713641
-0.0710979
-0.104232
-0.102345
-0.100556
-0.0984422
-0.0961044
-0.0936304
-0.0910922
-0.0885573
-0.0860813
-0.083709
-0.0814757
-0.0794093
-0.0775317
-0.0758598
-0.074407
-0.0731832
-0.0721962
-0.0714516
-0.070953
-0.0707033
-0.100721
-0.0990811
-0.0975233
-0.0956602
-0.093579
-0.0913586
-0.0890643
-0.0867593
-0.0844963
-0.0823185
-0.0802607
-0.0783505
-0.0766099
-0.0750564
-0.0737037
-0.0725625
-0.0716409
-0.0709449
-0.0704785
-0.0702448
-0.0973156
-0.0959037
-0.0945609
-0.0929314
-0.0910904
-0.0891081
-0.0870439
-0.0849566
-0.082896
-0.0809037
-0.0790135
-0.077253
-0.0756441
-0.0742046
-0.0729487
-0.0718872
-0.0710288
-0.0703799
-0.0699448
-0.0697267
-0.0940129
-0.0928127
-0.0916693
-0.0902574
-0.0886408
-0.0868819
-0.0850346
-0.0831531
-0.0812845
-0.0794687
-0.0777386
-0.0761212
-0.0746387
-0.0733089
-0.072146
-0.0711615
-0.0703643
-0.0697608
-0.0693559
-0.0691529
-0.090812
-0.0898075
-0.088849
-0.0876394
-0.0862323
-0.0846828
-0.0830394
-0.0813523
-0.0796656
-0.0780175
-0.0764399
-0.0749595
-0.0735979
-0.0723733
-0.0712999
-0.0703895
-0.0696511
-0.0690917
-0.068716
-0.0685275
-0.0877111
-0.0868875
-0.0861001
-0.0850782
-0.0838664
-0.0825129
-0.0810612
-0.0795573
-0.0780427
-0.0765538
-0.0751214
-0.0737715
-0.0725256
-0.0714017
-0.0704143
-0.0695751
-0.0688934
-0.0683763
-0.0680287
-0.0678542
-0.0847086
-0.0840516
-0.0834223
-0.0825746
-0.0815446
-0.0803742
-0.0791023
-0.077771
-0.0764191
-0.075081
-0.0737865
-0.072561
-0.0714255
-0.070398
-0.0694929
-0.068722
-0.0680947
-0.0676183
-0.0672978
-0.0671368
-0.0818024
-0.0812989
-0.0808155
-0.080129
-0.079268
-0.0782686
-0.0771652
-0.0759961
-0.0747976
-0.0736023
-0.0724386
-0.0713313
-0.0703012
-0.0693656
-0.0685392
-0.0678338
-0.0672587
-0.0668213
-0.0665268
-0.0663788
-0.0789906
-0.078628
-0.078279
-0.0777416
-0.0770375
-0.0761974
-0.0752516
-0.074235
-0.073181
-0.0721205
-0.0710808
-0.0700858
-0.0691558
-0.068308
-0.0675567
-0.0669138
-0.0663888
-0.0659888
-0.0657192
-0.0655837
-0.0762711
-0.0760377
-0.0758122
-0.0754125
-0.0748537
-0.0741619
-0.0733634
-0.0724896
-0.0715715
-0.0706383
-0.0697159
-0.0688274
-0.0679925
-0.0672282
-0.0665486
-0.0659654
-0.0654881
-0.0651239
-0.0648782
-0.0647546
-0.0736416
-0.0735265
-0.0734144
-0.0731413
-0.0727171
-0.0721631
-0.0715019
-0.0707619
-0.0699716
-0.0691582
-0.0683466
-0.0675589
-0.0668143
-0.0661293
-0.0655179
-0.0649916
-0.0645599
-0.0642299
-0.0640069
-0.0638947
-0.0710999
-0.0710928
-0.0710844
-0.070928
-0.070628
-0.0702018
-0.0696685
-0.0690535
-0.068383
-0.0676824
-0.0669752
-0.0662828
-0.0656237
-0.065014
-0.0644675
-0.0639954
-0.063607
-0.0633096
-0.0631084
-0.063007
-0.0686437
-0.0687349
-0.0688213
-0.0687719
-0.0685865
-0.0682786
-0.0678643
-0.067366
-0.0668076
-0.0662129
-0.0656042
-0.0650017
-0.0644235
-0.0638851
-0.0634
-0.0629794
-0.0626323
-0.0623659
-0.0621854
-0.0620943
-0.0662706
-0.066451
-0.066624
-0.0666725
-0.0665925
-0.0663939
-0.0660901
-0.0657005
-0.065247
-0.0647516
-0.0642354
-0.0637177
-0.0632158
-0.062745
-0.0623182
-0.0619463
-0.0616384
-0.0614015
-0.0612407
-0.0611595
-0.0639781
-0.0642395
-0.064491
-0.064629
-0.0646458
-0.0645482
-0.0643467
-0.0640583
-0.0637027
-0.0633003
-0.0628709
-0.062433
-0.0620031
-0.061596
-0.0612243
-0.0608987
-0.0606279
-0.0604189
-0.0602768
-0.0602049
-0.061764
-0.0620984
-0.0624212
-0.0626408
-0.0627463
-0.0627416
-0.0626347
-0.0624402
-0.0621758
-0.0618603
-0.0615123
-0.0611493
-0.0607873
-0.0604403
-0.0601206
-0.0598387
-0.0596031
-0.0594206
-0.0592962
-0.0592332
-0.0596257
-0.0600259
-0.0604131
-0.0607068
-0.0608934
-0.0609741
-0.0609545
-0.060847
-0.0606675
-0.0604332
-0.0601613
-0.0598686
-0.0595703
-0.0592798
-0.0590093
-0.0587686
-0.0585663
-0.0584089
-0.0583012
-0.0582466
-0.057561
-0.0580202
-0.0584653
-0.0588262
-0.0590867
-0.0592456
-0.0593065
-0.0592795
-0.0591788
-0.05902
-0.0588193
-0.0585925
-0.0583539
-0.0581166
-0.0578923
-0.0576905
-0.0575196
-0.0573858
-0.0572939
-0.0572472
-0.0555674
-0.0560792
-0.0565763
-0.0569979
-0.0573256
-0.0575561
-0.0576909
-0.0577383
-0.0577105
-0.057622
-0.0574876
-0.0573223
-0.0571397
-0.0569524
-0.0567715
-0.0566063
-0.0564649
-0.0563534
-0.0562765
-0.0562372
-0.0536425
-0.0542011
-0.0547447
-0.0552209
-0.0556095
-0.0559052
-0.0561078
-0.0562236
-0.0562634
-0.05624
-0.0561674
-0.0560595
-0.0559293
-0.0557887
-0.0556485
-0.0555178
-0.0554041
-0.0553136
-0.0552507
-0.0552186
-0.0517841
-0.052384
-0.0529688
-0.0534941
-0.0539377
-0.0542927
-0.0545572
-0.0547359
-0.054838
-0.054875
-0.0548598
-0.0548053
-0.0547239
-0.0546272
-0.0545251
-0.0544266
-0.0543391
-0.0542682
-0.0542186
-0.0541931
-0.0499897
-0.050626
-0.0512473
-0.0518163
-0.0523094
-0.0527181
-0.0530391
-0.0532755
-0.0534349
-0.0535277
-0.0535656
-0.0535608
-0.053525
-0.0534691
-0.0534027
-0.0533344
-0.0532713
-0.053219
-0.0531817
-0.0531624
-0.0482573
-0.0489252
-0.0495785
-0.0501863
-0.0507237
-0.051181
-0.0515533
-0.0518424
-0.0520544
-0.0521987
-0.0522858
-0.0523271
-0.0523336
-0.0523157
-0.0522827
-0.0522426
-0.0522023
-0.0521673
-0.0521417
-0.0521282
-0.0465845
-0.0472797
-0.047961
-0.048603
-0.04918
-0.0496809
-0.0500997
-0.0504368
-0.050697
-0.0508885
-0.0510211
-0.0511051
-0.0511509
-0.0511683
-0.0511663
-0.0511525
-0.0511336
-0.0511148
-0.0511
-0.051092
-0.0449691
-0.0456878
-0.0463932
-0.0470651
-0.0476772
-0.0482172
-0.048678
-0.0490586
-0.0493629
-0.0495978
-0.0497721
-0.0498955
-0.0499777
-0.0500279
-0.0500547
-0.0500654
-0.0500664
-0.0500627
-0.0500581
-0.0500551
-0.0434092
-0.0441476
-0.0448735
-0.0455715
-0.0462145
-0.0467893
-0.0472878
-0.0477079
-0.0480522
-0.0483268
-0.0485394
-0.0486991
-0.0488149
-0.0488955
-0.0489491
-0.0489825
-0.049002
-0.0490123
-0.0490171
-0.0490189
-0.0419025
-0.0426573
-0.0434006
-0.044121
-0.044791
-0.0453966
-0.0459288
-0.0463844
-0.0467651
-0.0470758
-0.0473236
-0.0475166
-0.0476634
-0.0477721
-0.0478503
-0.0479049
-0.0479415
-0.0479648
-0.0479784
-0.0479846
-0.0404472
-0.0412153
-0.0419728
-0.0427123
-0.0434058
-0.0440385
-0.0446006
-0.0450881
-0.0455016
-0.0458452
-0.046125
-0.0463485
-0.0465237
-0.0466583
-0.0467593
-0.0468334
-0.0468859
-0.0469213
-0.0469431
-0.0469534
-0.0390412
-0.0398198
-0.0405889
-0.0413443
-0.0420578
-0.0427142
-0.0433028
-0.0438188
-0.0442618
-0.044635
-0.0449439
-0.0451954
-0.0453966
-0.0455549
-0.045677
-0.045769
-0.0458362
-0.0458828
-0.0459121
-0.0459261
-0.0376827
-0.0384692
-0.0392472
-0.0400157
-0.0407463
-0.041423
-0.0420349
-0.0425761
-0.0430454
-0.0434454
-0.0437808
-0.0440576
-0.0442826
-0.0444626
-0.044604
-0.0447126
-0.0447933
-0.0448502
-0.0448864
-0.0449039
-0.0363699
-0.0371619
-0.0379466
-0.0387255
-0.0394701
-0.0401643
-0.0407964
-0.0413597
-0.0418526
-0.0422766
-0.0426357
-0.0429356
-0.0431822
-0.043382
-0.0435411
-0.0436648
-0.0437579
-0.0438243
-0.0438669
-0.0438876
-0.0351009
-0.0358963
-0.0366854
-0.0374723
-0.0382285
-0.0389373
-0.0395867
-0.0401695
-0.0406831
-0.0411285
-0.041509
-0.0418295
-0.0420958
-0.0423137
-0.0424888
-0.0426263
-0.0427308
-0.0428059
-0.0428543
-0.042878
-0.0338741
-0.0346708
-0.0354626
-0.0362552
-0.0370204
-0.0377413
-0.0384054
-0.039005
-0.0395368
-0.0400011
-0.0404006
-0.0407398
-0.0410238
-0.041258
-0.0414477
-0.0415979
-0.0417127
-0.0417956
-0.0418495
-0.0418759
-0.0326878
-0.0334841
-0.0342766
-0.035073
-0.035845
-0.0365756
-0.0372519
-0.0378658
-0.0384134
-0.0388943
-0.0393108
-0.0396666
-0.0399664
-0.0402153
-0.0404183
-0.0405799
-0.0407041
-0.0407943
-0.040853
-0.0408819
-0.0315404
-0.0323347
-0.0331263
-0.0339245
-0.0347012
-0.0354393
-0.0361257
-0.0367516
-0.0373127
-0.0378081
-0.0382394
-0.03861
-0.038924
-0.0391861
-0.0394009
-0.0395728
-0.0397056
-0.0398023
-0.0398654
-0.0398965
-0.0304304
-0.0312212
-0.0320105
-0.0328087
-0.0335883
-0.0343318
-0.0350261
-0.0356619
-0.0362345
-0.0367423
-0.0371866
-0.0375701
-0.0378967
-0.0381706
-0.0383961
-0.0385772
-0.0387176
-0.0388202
-0.0388874
-0.0389205
-0.0293562
-0.0301423
-0.0309279
-0.0317246
-0.0325052
-0.0332524
-0.0339526
-0.0345963
-0.0351784
-0.0356969
-0.0361523
-0.0365471
-0.0368847
-0.037169
-0.037404
-0.0375934
-0.0377407
-0.0378486
-0.0379193
-0.0379542
-0.0283166
-0.0290966
-0.0298773
-0.0306711
-0.0314512
-0.0322003
-0.0329046
-0.0335545
-0.0341442
-0.0346715
-0.0351364
-0.035541
-0.0358882
-0.0361817
-0.036425
-0.0366217
-0.0367751
-0.0368877
-0.0369616
-0.0369982
-0.02731
-0.028083
-0.0288577
-0.0296473
-0.0304254
-0.0311748
-0.0318816
-0.0325358
-0.0331316
-0.033666
-0.0341389
-0.0345518
-0.0349073
-0.0352086
-0.0354592
-0.0356624
-0.0358212
-0.0359379
-0.0360147
-0.0360527
-0.0263352
-0.0271002
-0.0278679
-0.0286521
-0.029427
-0.0301751
-0.0308829
-0.03154
-0.0321402
-0.0326803
-0.0331596
-0.0335794
-0.0339419
-0.03425
-0.034507
-0.0347158
-0.0348792
-0.0349996
-0.0350789
-0.0351182
-0.025391
-0.0261471
-0.0269068
-0.0276847
-0.028455
-0.0292007
-0.029908
-0.0305665
-0.0311696
-0.0317139
-0.0321984
-0.0326238
-0.0329921
-0.033306
-0.0335684
-0.033782
-0.0339495
-0.0340731
-0.0341545
-0.0341949
-0.024476
-0.0252225
-0.0259736
-0.026744
-0.0275087
-0.0282507
-0.0289562
-0.0296148
-0.0302196
-0.0307668
-0.0312551
-0.0316849
-0.032058
-0.0323766
-0.0326435
-0.0328612
-0.0330321
-0.0331584
-0.0332417
-0.0332831
-0.0235892
-0.0243254
-0.0250671
-0.0258293
-0.0265873
-0.0273245
-0.0280271
-0.0286845
-0.0292897
-0.0298385
-0.0303295
-0.0307626
-0.0311394
-0.0314619
-0.0317324
-0.0319535
-0.0321274
-0.032256
-0.0323408
-0.032383
-0.0227295
-0.0234547
-0.0241864
-0.0249396
-0.0256901
-0.0264215
-0.0271201
-0.0277752
-0.0283795
-0.0289289
-0.0294214
-0.0298569
-0.0302364
-0.0305618
-0.0308353
-0.0310591
-0.0312353
-0.0313658
-0.0314519
-0.0314947
-0.0218956
-0.0226095
-0.0233307
-0.0240741
-0.0248163
-0.025541
-0.0262345
-0.0268863
-0.0274888
-0.0280377
-0.0285306
-0.0289674
-0.0293487
-0.0296763
-0.029952
-0.0301779
-0.030356
-0.030488
-0.0305752
-0.0306185
-0.11908
-0.115067
-0.111169
-0.107385
-0.103713
-0.100153
-0.0967022
-0.0933599
-0.0901239
-0.0869923
-0.083963
-0.0810337
-0.0782023
-0.0754662
-0.0728231
-0.0702704
-0.0678057
-0.0654263
-0.0631296
-0.0609132
-0.0587743
-0.0567105
-0.0547193
-0.0527981
-0.0509444
-0.0491559
-0.0474303
-0.0457651
-0.0441581
-0.0426072
-0.0411102
-0.039665
-0.0382696
-0.036922
-0.0356205
-0.0343631
-0.0331481
-0.0319737
-0.0308385
-0.0297407
-0.028679
-0.0276517
-0.0266576
-0.0256953
-0.0247635
-0.0238609
-0.0229865
-0.022139
-0.120236
-0.11608
-0.11205
-0.108146
-0.104364
-0.100704
-0.0971621
-0.093737
-0.0904262
-0.0872271
-0.084137
-0.0811533
-0.0782732
-0.0754937
-0.0728121
-0.0702255
-0.067731
-0.0653255
-0.0630063
-0.0607704
-0.058615
-0.0565373
-0.0545345
-0.0526039
-0.0507428
-0.0489487
-0.0472189
-0.0455511
-0.0439428
-0.0423916
-0.0408955
-0.039452
-0.0380592
-0.0367149
-0.0354173
-0.0341644
-0.0329544
-0.0317855
-0.030656
-0.0295643
-0.0285089
-0.0274883
-0.0265009
-0.0255456
-0.0246208
-0.0237254
-0.0228581
-0.0220178
-0.0212035
-0.121713
-0.117455
-0.113328
-0.109332
-0.105463
-0.101721
-0.0981018
-0.0946041
-0.0912251
-0.0879621
-0.0848123
-0.0817728
-0.0788406
-0.0760127
-0.0732861
-0.0706577
-0.0681244
-0.0656832
-0.0633309
-0.0610645
-0.058881
-0.0567775
-0.0547511
-0.0527988
-0.050918
-0.0491059
-0.0473597
-0.0456771
-0.0440554
-0.0424922
-0.0409852
-0.0395321
-0.0381307
-0.0367789
-0.0354746
-0.0342159
-0.0330009
-0.0318278
-0.0306947
-0.0296001
-0.0285423
-0.0275198
-0.0265311
-0.0255748
-0.0246495
-0.0237539
-0.0228868
-0.0220471
-0.0212335
-0.123605
-0.119242
-0.115016
-0.110924
-0.106964
-0.103134
-0.0994319
-0.0958554
-0.0924016
-0.0890678
-0.085851
-0.0827483
-0.0797565
-0.0768725
-0.0740931
-0.071415
-0.0688351
-0.0663501
-0.0639567
-0.0616519
-0.0594325
-0.0572954
-0.0552375
-0.053256
-0.0513478
-0.0495102
-0.0477404
-0.0460357
-0.0443935
-0.0428114
-0.0412867
-0.0398173
-0.0384008
-0.0370351
-0.035718
-0.0344474
-0.0332215
-0.0320383
-0.0308961
-0.029793
-0.0287276
-0.027698
-0.026703
-0.0257408
-0.0248103
-0.02391
-0.0230387
-0.0221952
-0.0213782
-0.0205867
-0.121339
-0.117022
-0.112841
-0.108795
-0.104881
-0.101098
-0.097443
-0.0939135
-0.0905068
-0.0872201
-0.0840504
-0.0809945
-0.0780493
-0.0752115
-0.0724778
-0.069845
-0.0673096
-0.0648686
-0.0625185
-0.0602561
-0.0580784
-0.0559821
-0.0539642
-0.0520217
-0.0501516
-0.0483512
-0.0466177
-0.0449484
-0.0433406
-0.0417919
-0.0402999
-0.0388621
-0.0374764
-0.0361405
-0.0348523
-0.0336099
-0.0324112
-0.0312545
-0.0301379
-0.0290597
-0.0280183
-0.0270121
-0.0260396
-0.0250994
-0.0241901
-0.0233104
-0.022459
-0.0216347
-0.0208363
-0.0200629
-0.1239
-0.119495
-0.115226
-0.111092
-0.107092
-0.103224
-0.0994849
-0.0958738
-0.0923876
-0.0890237
-0.0857791
-0.0826507
-0.0796355
-0.0767302
-0.0739316
-0.0712363
-0.0686411
-0.0661425
-0.0637374
-0.0614224
-0.0591943
-0.0570499
-0.0549861
-0.0529998
-0.0510881
-0.049248
-0.0474767
-0.0457714
-0.0441295
-0.0425484
-0.0410255
-0.0395584
-0.0381449
-0.0367827
-0.0354696
-0.0342035
-0.0329824
-0.0318044
-0.0306677
-0.0295705
-0.0285111
-0.0274878
-0.0264992
-0.0255437
-0.02462
-0.0237266
-0.0228623
-0.0220258
-0.0212159
-0.0204316
-0.0196717
-0.122551
-0.118187
-0.113957
-0.109861
-0.105897
-0.102065
-0.0983615
-0.0947847
-0.0913319
-0.0880006
-0.0847878
-0.0816904
-0.0787054
-0.0758295
-0.0730595
-0.0703921
-0.067824
-0.0653518
-0.0629723
-0.0606821
-0.0584782
-0.0563572
-0.0543161
-0.0523519
-0.0504615
-0.0486421
-0.0468909
-0.045205
-0.0435819
-0.0420189
-0.0405136
-0.0390636
-0.0376666
-0.0363202
-0.0350225
-0.0337713
-0.0325646
-0.0314006
-0.0302773
-0.0291931
-0.0281463
-0.0271352
-0.0261583
-0.0252142
-0.0243015
-0.0234187
-0.0225647
-0.0217381
-0.0209379
-0.0201629
-0.121848
-0.117506
-0.113298
-0.109223
-0.105281
-0.101468
-0.097784
-0.094226
-0.0907915
-0.0874778
-0.0842821
-0.0812014
-0.0782325
-0.0753723
-0.0726175
-0.0699647
-0.0674108
-0.0649524
-0.0625862
-0.060309
-0.0581176
-0.0560087
-0.0539794
-0.0520265
-0.050147
-0.0483382
-0.0465972
-0.0449212
-0.0433076
-0.0417539
-0.0402575
-0.0388161
-0.0374274
-0.0360891
-0.0347992
-0.0335554
-0.032356
-0.0311989
-0.0300825
-0.0290048
-0.0279642
-0.0269593
-0.0259883
-0.0250499
-0.0241426
-0.0232652
-0.0224163
)
;

boundaryField
{
    inlet
    {
        type            zeroGradient;
    }
    outlet
    {
        type            fixedValue;
        value           nonuniform 0();
    }
    cylinder
    {
        type            zeroGradient;
    }
    top
    {
        type            symmetryPlane;
    }
    bottom
    {
        type            symmetryPlane;
    }
    defaultFaces
    {
        type            empty;
    }
    procBoundary2to1
    {
        type            processor;
        value           nonuniform List<scalar> 
34
(
-0.0769824
-0.0753082
-0.0739662
-0.0729586
-0.0722862
-0.0719501
-0.119336
-0.119336
-0.116265
-0.113365
-0.110059
-0.106513
-0.102858
-0.0991956
-0.0956118
-0.0921732
-0.0889294
-0.0859166
-0.0831616
-0.0806834
-0.078496
-0.078496
-0.123209
-0.123209
-0.12452
-0.12452
-0.126104
-0.126104
-0.128104
-0.125793
-0.125793
-0.128442
-0.127052
-0.126325
)
;
    }
    procBoundary2to3
    {
        type            processor;
        value           nonuniform List<scalar> 
30
(
-0.0210867
-0.0213174
-0.0217888
-0.0224989
-0.023232
-0.0239652
-0.0246823
-0.0253699
-0.0260173
-0.0266171
-0.0271644
-0.027657
-0.0280941
-0.0284765
-0.0288054
-0.0290826
-0.02931
-0.0294895
-0.0296227
-0.0297107
-0.0297545
-0.0213174
-0.0204139
-0.020445
-0.020445
-0.0198196
-0.0193133
-0.0189352
-0.019412
-0.019412
)
;
    }
    procBoundary2to6
    {
        type            processor;
        value           nonuniform List<scalar> 
51
(
-0.121848
-0.117506
-0.113298
-0.109223
-0.105281
-0.101468
-0.097784
-0.094226
-0.0907915
-0.0874778
-0.0842821
-0.0812014
-0.0782325
-0.0753723
-0.0726175
-0.0699647
-0.0674108
-0.0649524
-0.0625862
-0.060309
-0.0581176
-0.0560087
-0.0539794
-0.0520265
-0.050147
-0.0483382
-0.0465972
-0.0449212
-0.0433076
-0.0417539
-0.0402575
-0.0388161
-0.0374274
-0.0360891
-0.0347992
-0.0335554
-0.032356
-0.0311989
-0.0300825
-0.0290048
-0.0279643
-0.0269593
-0.0259883
-0.0250499
-0.0241427
-0.0232652
-0.0224163
-0.0215947
-0.0207993
-0.0200289
-0.0215947
)
;
    }
}


// ************************************************************************* //
