/*--------------------------------*- C++ -*----------------------------------*\
  =========                 |
  \\      /  F ield         | OpenFOAM: The Open Source CFD Toolbox
   \\    /   O peration     | Website:  https://openfoam.org
    \\  /    A nd           | Version:  7
     \\/     M anipulation  |
\*---------------------------------------------------------------------------*/
FoamFile
{
    version     2.0;
    format      ascii;
    class       volVectorField;
    location    "35";
    object      U;
}
// * * * * * * * * * * * * * * * * * * * * * * * * * * * * * * * * * * * * * //

dimensions      [0 1 -1 0 0 0 0];

internalField   nonuniform List<vector> 
1360
(
(1.22153 0.00140195 8.73024e-28)
(1.21831 0.000908369 -8.73024e-28)
(1.21569 0.000560525 0)
(1.2137 0.000323252 0)
(1.21236 0.000163302 9.20167e-28)
(1.21168 4.92842e-05 -9.25992e-28)
(0.955877 0.06493 0)
(1.04866 0.0579373 0)
(1.12174 0.0489067 3.01173e-11)
(1.17459 0.0399837 -3.01173e-11)
(1.20955 0.0319252 0)
(1.23039 0.0251021 0)
(1.24104 0.0195605 1.22064e-27)
(1.24487 0.0151628 -1.22064e-27)
(1.24448 0.0117117 -1.027e-27)
(1.2417 0.00901138 1.027e-27)
(1.23774 0.00689525 0)
(1.23334 0.00523261 0)
(1.22896 0.0039253 -2.19023e-11)
(1.22486 0.00290021 2.19023e-11)
(1.2212 0.00210158 0)
(1.21807 0.0014846 0)
(1.21551 0.00101097 2.02571e-11)
(1.21356 0.000646147 -2.02571e-11)
(1.21225 0.000357479 0)
(1.2116 0.000114083 0)
(0.952732 0.0652262 0)
(1.04454 0.0585259 0)
(1.11728 0.0498277 0)
(1.17033 0.0411441 0)
(1.2058 0.0332253 0)
(1.22726 0.0264588 0)
(1.23851 0.0209146 0)
(1.24287 0.0164761 0)
(1.2429 0.0129601 0)
(1.24046 0.0101797 0)
(1.23675 0.00797334 0)
(1.23256 0.00621322 0)
(1.22834 0.0048027 -4.34186e-11)
(1.22437 0.00366967 4.34186e-11)
(1.22081 0.00275908 0)
(1.21776 0.00202682 0)
(1.21526 0.00143527 4.03298e-11)
(1.21336 0.000950545 -4.03298e-11)
(1.21209 0.00054063 -1.26214e-27)
(1.21145 0.000175219 1.27013e-27)
(0.94974 0.0654207 0)
(1.04059 0.0589969 0)
(1.11297 0.0506172 0)
(1.16617 0.0421694 0)
(1.20211 0.0343944 0)
(1.22415 0.0276925 0)
(1.23598 0.0221553 0)
(1.24084 0.0176858 0)
(1.24129 0.0141147 0)
(1.23917 0.0112637 0)
(1.23572 0.0089764 0)
(1.23173 0.0071277 0)
(1.22767 0.00562262 -2.14995e-11)
(1.22383 0.00439 2.14995e-11)
(1.22037 0.00337556 -8.56674e-28)
(1.21739 0.00253587 8.56674e-28)
(1.21496 0.00183404 4.01062e-11)
(1.21311 0.00123685 -4.01062e-11)
(1.21186 0.000712989 0)
(1.21123 0.000232769 0)
(0.946893 0.065521 0)
(1.03679 0.059359 0)
(1.1088 0.0512846 0)
(1.16211 0.0430684 0)
(1.19846 0.0354401 0)
(1.22106 0.0288098 0)
(1.23344 0.0232882 0)
(1.23879 0.0187968 0)
(1.23965 0.0151796 0)
(1.23785 0.0122669 0)
(1.23466 0.00990724 0)
(1.23086 0.00797839 0)
(1.22695 0.00638693 0)
(1.22323 0.0050627 0)
(1.21987 0.00395218 0)
(1.21698 0.00301265 0)
(1.2146 0.00220792 1.99229e-11)
(1.2128 0.00150551 -1.99229e-11)
(1.21158 0.000874812 0)
(1.21097 0.000286816 0)
(0.944182 0.065534 0)
(1.03315 0.0596203 0)
(1.10476 0.0518385 0)
(1.15814 0.0438493 0)
(1.19488 0.0363698 0)
(1.21799 0.0298171 0)
(1.2309 0.0243188 0)
(1.23673 0.0198138 0)
(1.23798 0.0161589 0)
(1.2365 0.0131927 0)
(1.23355 0.0107687 0)
(1.22994 0.00876763 0)
(1.22619 0.00709756 -2.1035e-11)
(1.22259 0.00568933 2.1035e-11)
(1.21933 0.00449017 0)
(1.21651 0.00345809 0)
(1.2142 0.00255761 8.20904e-28)
(1.21243 0.00175699 -8.20904e-28)
(1.21124 0.00102637 8.99053e-28)
(1.21064 0.000337451 -9.04745e-28)
(0.9416 0.0654665 -2.80892e-27)
(1.02965 0.0597887 0)
(1.10084 0.0522871 -5.92041e-29)
(1.15427 0.0445199 -2.79674e-27)
(1.19135 0.0371906 4.91783e-11)
(1.21495 0.0307205 4.81546e-11)
(1.22837 0.0252525 4.70843e-11)
(1.23465 0.0207413 4.59984e-11)
(1.23629 0.0170564 0)
(1.23512 0.0140443 0)
(1.23241 0.0115637 0)
(1.229 0.00949782 0)
(1.22539 0.00775648 -2.07829e-11)
(1.22191 0.00627148 6.11458e-11)
(1.21874 0.00499081 2.69653e-19)
(1.216 0.00387318 -3.91412e-11)
(1.21374 0.00288383 -8.14128e-28)
(1.21202 0.00199179 8.14128e-28)
(1.21086 0.00116797 0)
(1.21027 0.000384768 -1.91346e-27)
(0.939141 0.0653248 2.8089e-27)
(1.02628 0.0598713 0)
(1.09705 0.0526382 0)
(1.15049 0.0450878 2.85594e-27)
(1.18788 0.0379091 -4.91783e-11)
(1.21194 0.031526 -4.81546e-11)
(1.22584 0.0260943 -4.70843e-11)
(1.23257 0.021584 -4.59984e-11)
(1.23459 0.017876 1.92655e-27)
(1.23372 0.0148253 -1.92655e-27)
(1.23124 0.012295 2.13392e-11)
(1.22801 0.0101713 -2.13392e-11)
(1.22456 0.00836567 -2.05193e-11)
(1.22119 0.00681078 -1.98435e-11)
(1.21812 0.00545539 3.65252e-28)
(1.21544 0.00425892 3.91412e-11)
(1.21324 0.00318735 1.67933e-27)
(1.21156 0.00221044 -1.67933e-27)
(1.21043 0.00129989 -1.22137e-27)
(1.20986 0.000428869 3.14256e-27)
(0.936798 0.065115 0)
(1.02304 0.0598749 0)
(1.09338 0.0528991 0)
(1.1468 0.0455601 0)
(1.18448 0.0385319 -4.07156e-28)
(1.20896 0.0322392 4.07156e-28)
(1.22333 0.0268493 0)
(1.23049 0.022346 0)
(1.23286 0.0186217 0)
(1.23229 0.0155388 0)
(1.23005 0.0129654 4.1996e-11)
(1.227 0.0107906 -4.1996e-11)
(1.22369 0.00892713 -4.04903e-11)
(1.22044 0.00730886 4.04903e-11)
(1.21745 0.00588523 -3.37535e-28)
(1.21485 0.00461635 3.37535e-28)
(1.2127 0.00346892 0)
(1.21106 0.00241346 0)
(1.20996 0.00142247 0)
(1.2094 0.000469856 0)
(0.934565 0.0648426 0)
(1.01993 0.059806 0)
(1.08982 0.0530766 -8.48784e-28)
(1.1432 0.0459434 8.48784e-28)
(1.18113 0.0390652 0)
(1.20602 0.0328657 0)
(1.22083 0.0275224 0)
(1.2284 0.0230318 0)
(1.23113 0.019297 -5.14505e-28)
(1.23085 0.016188 5.14505e-28)
(1.22884 0.0135778 2.06504e-11)
(1.22597 0.0113579 -2.06504e-11)
(1.22279 0.00944284 -3.99234e-11)
(1.21965 0.00776737 3.99234e-11)
(1.21675 0.00628166 0)
(1.21422 0.00494652 0)
(1.21213 0.00372934 0)
(1.21052 0.00260142 0)
(1.20944 0.00153601 7.39556e-28)
(1.2089 0.000507838 -7.44238e-28)
(0.932437 0.0645133 0)
(1.01693 0.0596706 0)
(1.08637 0.0531772 0)
(1.1397 0.0462441 0)
(1.17785 0.0395148 0)
(1.20311 0.0334109 0)
(1.21834 0.0281183 0)
(1.22632 0.0236455 0)
(1.2294 0.0199057 3.60906e-28)
(1.22939 0.0167763 -3.60906e-28)
(1.2276 0.0141348 0)
(1.22491 0.0118756 0)
(1.22187 0.0099148 -1.96699e-11)
(1.21883 0.00818796 1.96699e-11)
(1.21602 0.00664603 0)
(1.21355 0.00525049 0)
(1.21151 0.00396942 1.88224e-11)
(1.20995 0.00277485 -1.88224e-11)
(1.20889 0.00164086 0)
(1.20836 0.000542921 0)
(0.930408 0.064132 -5.42095e-28)
(1.01405 0.0594742 5.42809e-28)
(1.08304 0.0532069 0)
(1.13628 0.0464683 0)
(1.17462 0.0398863 0)
(1.20024 0.0338797 0)
(1.21588 0.0286415 0)
(1.22424 0.024191 0)
(1.22765 0.0204512 0)
(1.22792 0.0173066 0)
(1.22635 0.0146392 4.78474e-28)
(1.22383 0.0123461 -4.78474e-28)
(1.22092 0.010345 -1.93708e-11)
(1.21799 0.00857227 1.93708e-11)
(1.21526 0.00697968 4.53856e-28)
(1.21286 0.00552931 -4.53856e-28)
(1.21087 0.00418994 1.85959e-11)
(1.20934 0.00293434 -1.85959e-11)
(1.20831 0.00173734 -7.23352e-28)
(1.20779 0.000575216 7.27932e-28)
(0.928473 0.0637036 3.74985e-28)
(1.01127 0.0592223 -3.75482e-28)
(1.0798 0.0531715 0)
(1.13295 0.0466216 0)
(1.17147 0.0401852 0)
(1.19741 0.0342771 0)
(1.21343 0.0290964 0)
(1.22217 0.0246723 0)
(1.22591 0.0209371 -3.46139e-28)
(1.22645 0.017782 3.46139e-28)
(1.22509 0.0150936 0)
(1.22273 0.0127717 0)
(1.21995 0.0107353 -3.81305e-11)
(1.21713 0.00892193 3.81305e-11)
(1.21448 0.00728395 0)
(1.21214 0.00578406 0)
(1.2102 0.00439173 1.83598e-11)
(1.20871 0.00308044 -1.83598e-11)
(1.2077 0.0018258 0)
(1.20719 0.000604835 0)
(0.926627 0.0632325 -8.75719e-28)
(1.0086 0.0589199 8.76882e-28)
(1.07667 0.0530763 0)
(1.1297 0.0467095 0)
(1.16837 0.0404165 0)
(1.19462 0.0346078 0)
(1.21101 0.0294872 0)
(1.2201 0.0250931 0)
(1.22416 0.0213666 -1.97235e-11)
(1.22496 0.0182055 1.97235e-11)
(1.22381 0.0155006 0)
(1.22162 0.0131545 0)
(1.21897 0.0110877 -3.75083e-11)
(1.21624 0.00923855 3.75083e-11)
(1.21367 0.00756015 -7.62918e-28)
(1.21139 0.0060158 7.62918e-28)
(1.2095 0.00457559 3.62299e-11)
(1.20804 0.00321372 -3.62299e-11)
(1.20706 0.00190655 0)
(1.20656 0.000631887 0)
(0.924866 0.0627231 1.76139e-27)
(1.00602 0.0585715 -1.76374e-27)
(1.07363 0.0529265 2.32034e-28)
(1.12653 0.046737 -2.32034e-28)
(1.16533 0.0405851 0)
(1.19187 0.0348761 0)
(1.20861 0.0298178 0)
(1.21805 0.0254571 0)
(1.22241 0.021743 -1.92963e-11)
(1.22347 0.0185798 1.92963e-11)
(1.22253 0.0158628 0)
(1.22049 0.0134968 0)
(1.21797 0.011404 -1.84383e-11)
(1.21534 0.00952372 1.84383e-11)
(1.21284 0.0078096 0)
(1.21063 0.00622556 0)
(1.20878 0.00474231 3.57244e-11)
(1.20735 0.00333473 -3.57244e-11)
(1.20639 0.00197994 1.12784e-27)
(1.2059 0.000656483 -1.13498e-27)
(0.923186 0.0621794 0)
(1.00354 0.0581815 0)
(1.07068 0.0527267 0)
(1.12344 0.0467089 0)
(1.16236 0.0406956 8.10794e-28)
(1.18916 0.0350863 -8.10794e-28)
(1.20623 0.0300923 -8.86268e-28)
(1.21601 0.0257676 8.86268e-28)
(1.22067 0.0220693 0)
(1.22198 0.0189078 0)
(1.22124 0.0161824 0)
(1.21936 0.0138007 0)
(1.21696 0.0116861 0)
(1.21442 0.00977899 0)
(1.212 0.00803359 7.39594e-28)
(1.20984 0.00641438 -7.39594e-28)
(1.20803 0.00489269 1.76024e-11)
(1.20664 0.00344405 -1.76024e-11)
(1.2057 0.0020463 -8.05726e-28)
(1.20522 0.000678733 8.10827e-28)
(0.921583 0.061605 0)
(1.00115 0.0577541 0)
(1.06782 0.0524813 0)
(1.12043 0.0466298 0)
(1.15944 0.0407524 -1.64026e-27)
(1.1865 0.0352426 1.64026e-27)
(1.20388 0.0303142 1.87555e-11)
(1.21398 0.0260282 -1.87555e-11)
(1.21894 0.0223487 0)
(1.22049 0.0191922 0)
(1.21994 0.016462 0)
(1.21821 0.0140682 0)
(1.21593 0.0119358 -1.77955e-11)
(1.21349 0.0100059 1.77955e-11)
(1.21114 0.00823338 0)
(1.20903 0.00658328 0)
(1.20727 0.0050275 0)
(1.20591 0.0035422 0)
(1.20499 0.00210595 0)
(1.20452 0.000698746 0)
(0.920052 0.0610035 0)
(0.998845 0.0572931 0)
(1.06505 0.0521947 4.20908e-29)
(1.1175 0.0465038 -4.20908e-29)
(1.15658 0.0407594 0)
(1.18387 0.0353487 0)
(1.20156 0.0304871 1.82784e-11)
(1.21197 0.0262419 -1.82784e-11)
(1.21721 0.022584 0)
(1.219 0.0194356 0)
(1.21864 0.0167039 -7.3666e-28)
(1.21706 0.0143015 7.3666e-28)
(1.2149 0.0121548 -3.49397e-11)
(1.21254 0.0102059 3.49397e-11)
(1.21026 0.00841022 0)
(1.20821 0.00673326 0)
(1.20649 0.00514751 0)
(1.20516 0.00362975 0)
(1.20426 0.00215922 0)
(1.2038 0.000716629 0)
(0.91859 0.060378 1.22051e-27)
(0.996621 0.0568021 2.59536e-27)
(1.06236 0.0518706 2.04429e-28)
(1.11464 0.0463351 -2.04429e-28)
(1.15379 0.0407208 0)
(1.18129 0.0354083 0)
(1.19927 0.0306144 1.13228e-27)
(1.20998 0.0264118 -1.13228e-27)
(1.21549 0.022778 0)
(1.21751 0.0196404 0)
(1.21734 0.0169102 0)
(1.21591 0.0145024 0)
(1.21385 0.0123449 -3.42846e-11)
(1.21159 0.0103805 3.42846e-11)
(1.20938 0.00856531 -1.46358e-27)
(1.20738 0.0068653 1.46358e-27)
(1.2057 0.00525348 -1.45069e-27)
(1.2044 0.00370722 1.45069e-27)
(1.20351 0.00220642 3.27177e-11)
(1.20306 0.000732487 3.28877e-11)
(0.917195 0.0597318 -4.75264e-28)
(0.994474 0.0562844 -3.34161e-27)
(1.05975 0.0515126 0)
(1.11185 0.0461274 0)
(1.15105 0.0406401 0)
(1.17875 0.035425 0)
(1.197 0.0306993 -7.99078e-28)
(1.208 0.0265409 7.99078e-28)
(1.21378 0.0229333 0)
(1.21602 0.019809 0)
(1.21603 0.0170831 0)
(1.21475 0.0146728 0)
(1.21281 0.0125076 -1.68134e-11)
(1.21063 0.0105311 1.68134e-11)
(1.20848 0.00869985 0)
(1.20653 0.00698035 0)
(1.20489 0.00534613 1.65077e-11)
(1.20362 0.00377513 -1.65077e-11)
(1.20275 0.00224787 -3.27177e-11)
(1.20231 0.000746424 -3.28877e-11)
(0.915861 0.0590675 -6.87932e-28)
(0.992402 0.055743 6.88866e-28)
(1.05722 0.0511243 -1.67985e-11)
(1.10913 0.0458841 1.67985e-11)
(1.14836 0.0405209 0)
(1.17625 0.0354019 0)
(1.19477 0.0307449 7.78166e-28)
(1.20604 0.026632 -7.78166e-28)
(1.21207 0.0230525 -6.97209e-28)
(1.21454 0.0199438 6.97209e-28)
(1.21473 0.0172246 0)
(1.21359 0.0148147 0)
(1.21176 0.0126447 -1.64837e-11)
(1.20966 0.0106591 1.64837e-11)
(1.20758 0.00881497 0)
(1.20568 0.00707935 0)
(1.20407 0.0054262 3.24472e-11)
(1.20283 0.00383399 -3.24472e-11)
(1.20198 0.00228387 -7.446e-28)
(1.20154 0.00075854 7.49314e-28)
(0.914587 0.0583877 1.3833e-27)
(0.990402 0.055181 -1.38518e-27)
(1.05476 0.0507088 -1.62675e-11)
(1.10647 0.0456087 1.62675e-11)
(1.14573 0.0403663 0)
(1.1738 0.0353423 0)
(1.19256 0.0307541 0)
(1.2041 0.0266878 0)
(1.21039 0.023138 0)
(1.21307 0.020047 0)
(1.21343 0.0173369 0)
(1.21243 0.0149297 0)
(1.2107 0.0127576 -1.61536e-11)
(1.20869 0.0107657 1.61536e-11)
(1.20667 0.00891179 1.3852e-27)
(1.20482 0.00716319 -1.3852e-27)
(1.20325 0.00549437 3.18731e-11)
(1.20202 0.0038843 -3.18731e-11)
(1.20119 0.00231471 1.01003e-27)
(1.20077 0.000768934 -1.01642e-27)
(0.91337 0.057695 0)
(0.988469 0.0546009 0)
(1.05237 0.0502691 -3.58632e-29)
(1.10389 0.0453042 3.58632e-29)
(1.14316 0.0401796 0)
(1.17138 0.0352491 0)
(1.19038 0.0307296 0)
(1.20218 0.0267109 0)
(1.20871 0.0231923 6.64e-28)
(1.2116 0.0201207 -6.64e-28)
(1.21214 0.0174217 0)
(1.21127 0.0150196 0)
(1.20964 0.0128478 0)
(1.20771 0.0108523 0)
(1.20575 0.00899139 -6.52746e-28)
(1.20395 0.00723277 6.52746e-28)
(1.20241 0.00555132 1.56471e-11)
(1.20121 0.00392654 -1.56471e-11)
(1.2004 0.00234069 -7.18828e-28)
(1.19998 0.000777701 7.23379e-28)
(0.912206 0.0569915 0)
(0.986602 0.0540052 0)
(1.05005 0.0498079 0)
(1.10136 0.0449735 0)
(1.14064 0.0399636 0)
(1.16901 0.0351251 0)
(1.18823 0.0306741 0)
(1.20028 0.0267036 0)
(1.20704 0.0232174 -1.56034e-11)
(1.21014 0.0201669 1.56034e-11)
(1.21085 0.0174809 0)
(1.21011 0.015086 0)
(1.20859 0.0129168 0)
(1.20673 0.0109202 0)
(1.20483 0.00905483 0)
(1.20307 0.00728892 0)
(1.20157 0.00559772 1.3269e-27)
(1.2004 0.00396118 -1.3269e-27)
(1.19959 0.00236208 0)
(1.19919 0.000784937 0)
(0.911093 0.0562794 0)
(0.984796 0.0533963 0)
(1.0478 0.0493278 1.47656e-11)
(1.0989 0.0446194 -1.47656e-11)
(1.13817 0.0397209 0)
(1.16667 0.0349729 0)
(1.18611 0.03059 0)
(1.1984 0.0266682 0)
(1.20539 0.0232157 -1.52164e-11)
(1.20869 0.0201877 1.52164e-11)
(1.20956 0.0175163 0)
(1.20895 0.0151304 0)
(1.20753 0.0129659 0)
(1.20575 0.0109704 0)
(1.20391 0.0091031 0)
(1.20219 0.00733247 0)
(1.20072 0.0056342 -6.25281e-28)
(1.19957 0.00398866 6.25281e-28)
(1.19879 0.00237916 6.92621e-28)
(1.19839 0.000790729 -6.97006e-28)
(0.910029 0.0555604 0)
(0.983051 0.0527763 0)
(1.0456 0.0488312 1.42942e-11)
(1.09649 0.0442443 -1.42942e-11)
(1.13575 0.0394543 0)
(1.16438 0.034795 0)
(1.18402 0.0304798 0)
(1.19654 0.0266071 0)
(1.20376 0.0231889 0)
(1.20725 0.0201847 0)
(1.20829 0.0175296 0)
(1.2078 0.0151544 0)
(1.20648 0.0129965 0)
(1.20477 0.0110043 0)
(1.20299 0.00913718 0)
(1.20131 0.00736422 0)
(1.19988 0.00566137 1.47694e-11)
(1.19875 0.00400944 -1.47694e-11)
(1.19797 0.00239218 0)
(1.19758 0.000795167 0)
(0.90901 0.0548365 0)
(0.981362 0.0521471 0)
(1.04347 0.0483202 1.57952e-28)
(1.09415 0.0438506 -1.57952e-28)
(1.13338 0.039166 0)
(1.16212 0.0345937 0)
(1.18196 0.0303457 0)
(1.1947 0.0265222 0)
(1.20214 0.0231392 -1.24942e-27)
(1.20582 0.0201599 1.24942e-27)
(1.20701 0.0175223 0)
(1.20666 0.0151594 0)
(1.20543 0.0130099 0)
(1.2038 0.0110228 0)
(1.20206 0.009158 1.25268e-27)
(1.20043 0.00738492 -1.25268e-27)
(1.19902 0.00567984 2.89506e-11)
(1.19792 0.00402393 -2.89506e-11)
(1.19716 0.00240141 -9.19453e-28)
(1.19677 0.000798335 9.25275e-28)
(0.908036 0.0541092 0)
(0.979728 0.0515106 0)
(1.0414 0.0477971 0)
(1.09185 0.0434406 0)
(1.13106 0.0388584 0)
(1.15991 0.0343713 0)
(1.17993 0.0301896 0)
(1.19289 0.0264155 0)
(1.20053 0.0230684 0)
(1.20441 0.0201148 0)
(1.20575 0.017496 0)
(1.20552 0.0151468 0)
(1.20438 0.0130072 -1.41909e-11)
(1.20282 0.011027 1.41909e-11)
(1.20114 0.00916646 -5.89076e-28)
(1.19955 0.00739531 5.89076e-28)
(1.19817 0.00569017 1.41811e-11)
(1.19708 0.00403254 -1.41811e-11)
(1.19634 0.00240709 0)
(1.19596 0.000800313 0)
(0.907104 0.05338 -1.08498e-27)
(0.978146 0.0508685 1.08648e-27)
(1.03938 0.0472636 -1.47968e-28)
(1.08962 0.0430162 1.47968e-28)
(1.12878 0.0385335 0)
(1.15773 0.0341299 0)
(1.17793 0.0300137 0)
(1.1911 0.026289 0)
(1.19895 0.0229781 0)
(1.203 0.0200512 0)
(1.2045 0.0174522 0)
(1.20438 0.015118 0)
(1.20334 0.0129897 -2.77401e-11)
(1.20185 0.0110179 2.77401e-11)
(1.20022 0.00916343 0)
(1.19867 0.00739611 0)
(1.19732 0.0056929 0)
(1.19625 0.00403567 0)
(1.19552 0.00240944 0)
(1.19514 0.000801182 0)
(0.906212 0.0526502 5.03392e-28)
(0.976614 0.0502222 -5.04088e-28)
(1.03742 0.0467215 0)
(1.08743 0.0425794 0)
(1.12655 0.0381933 0)
(1.15559 0.0338713 0)
(1.17596 0.0298198 0)
(1.18932 0.0261443 0)
(1.19737 0.02287 -1.33671e-11)
(1.20161 0.0199704 1.33671e-11)
(1.20325 0.0173922 0)
(1.20325 0.015074 0)
(1.2023 0.0129585 -2.71035e-11)
(1.20088 0.0109966 2.71035e-11)
(1.19931 0.00914973 0)
(1.19779 0.00738798 0)
(1.19647 0.00568858 5.64294e-28)
(1.19542 0.00403368 -5.64294e-28)
(1.1947 0.00240871 0)
(1.19433 0.000801015 0)
(0.905357 0.0519212 0)
(0.975129 0.0495732 0)
(1.03551 0.0461725 -2.76365e-29)
(1.08529 0.042132 2.76365e-29)
(1.12437 0.0378395 0)
(1.15349 0.0335973 0)
(1.17401 0.0296097 -5.89771e-28)
(1.18757 0.0259831 5.89771e-28)
(1.19582 0.0227457 -1.30151e-11)
(1.20022 0.019874 1.30151e-11)
(1.20201 0.0173173 5.4602e-28)
(1.20213 0.0150163 -5.4602e-28)
(1.20127 0.0129145 -1.32362e-11)
(1.19992 0.0109639 1.32362e-11)
(1.19839 0.00912614 1.32806e-11)
(1.19692 0.00737158 -1.32806e-11)
(1.19562 0.0056777 0)
(1.19459 0.00402695 0)
(1.19388 0.0024051 0)
(1.19352 0.000799886 0)
(0.904539 0.0511939 0)
(0.973691 0.0489228 0)
(1.03365 0.0456181 0)
(1.08321 0.0416755 0)
(1.12223 0.037474 0)
(1.15142 0.0333097 0)
(1.1721 0.0293849 1.24392e-11)
(1.18584 0.0258069 -1.24392e-11)
(1.19428 0.0226066 0)
(1.19885 0.0197633 0)
(1.20079 0.0172288 0)
(1.20102 0.0149458 0)
(1.20025 0.0128589 0)
(1.19896 0.0109208 0)
(1.19749 0.00909343 1.29806e-11)
(1.19604 0.00734752 -1.29806e-11)
(1.19477 0.00566074 0)
(1.19376 0.00401582 0)
(1.19306 0.00239882 0)
(1.19271 0.000797863 0)
(0.903756 0.0504695 0)
(0.972296 0.0482722 0)
(1.03183 0.0450595 2.58719e-29)
(1.08117 0.0412116 -2.58719e-29)
(1.12013 0.0370983 0)
(1.14939 0.0330101 0)
(1.17021 0.0291471 1.20831e-11)
(1.18414 0.0256174 -1.20831e-11)
(1.19275 0.0224542 -5.11802e-28)
(1.1975 0.0196396 5.11802e-28)
(1.19957 0.017128 0)
(1.19992 0.0148637 0)
(1.19923 0.0127926 0)
(1.19801 0.010868 0)
(1.19658 0.00905231 -5.26479e-28)
(1.19518 0.0073164 5.26479e-28)
(1.19393 0.00563818 1.27208e-11)
(1.19294 0.00400062 -1.27208e-11)
(1.19225 0.00239008 0)
(1.1919 0.000795015 0)
(0.903005 0.0497488 0)
(0.970943 0.0476225 0)
(1.03007 0.0444982 0)
(1.07917 0.0407415 0)
(1.11807 0.0367138 0)
(1.14739 0.0327 0)
(1.16835 0.0288977 0)
(1.18245 0.0254158 0)
(1.19125 0.0222896 1.03655e-27)
(1.19615 0.0195041 -1.03655e-27)
(1.19837 0.0170158 0)
(1.19882 0.014771 0)
(1.19822 0.0127165 0)
(1.19707 0.0108064 0)
(1.19569 0.00900347 0)
(1.19431 0.00727878 0)
(1.19309 0.00561045 1.24329e-11)
(1.19211 0.00398167 -1.24329e-11)
(1.19144 0.00237906 7.91772e-28)
(1.19109 0.000791403 -7.96785e-28)
(0.902286 0.0490328 0)
(0.969631 0.0469746 0)
(1.02834 0.0439352 1.06339e-11)
(1.07722 0.0402666 -1.06339e-11)
(1.11605 0.036322 0)
(1.14543 0.0323806 0)
(1.16652 0.028638 0)
(1.18079 0.0252034 0)
(1.18976 0.0221143 -4.84354e-28)
(1.19482 0.019358 4.84354e-28)
(1.19717 0.0168935 -4.92657e-28)
(1.19774 0.0146686 4.92657e-28)
(1.19722 0.0126315 -1.20058e-11)
(1.19613 0.0107368 1.20058e-11)
(1.1948 0.00894756 0)
(1.19346 0.0072352 0)
(1.19226 0.00557798 -5.04234e-28)
(1.1913 0.00395927 5.04234e-28)
(1.19063 0.00236595 0)
(1.19029 0.000787089 0)
(0.901597 0.0483221 -8.49688e-28)
(0.968358 0.0463294 8.50866e-28)
(1.02666 0.0433717 1.02851e-11)
(1.07531 0.0397882 -1.02851e-11)
(1.11407 0.0359241 0)
(1.1435 0.0320534 0)
(1.16471 0.0283694 0)
(1.17915 0.0249815 0)
(1.18828 0.0219293 0)
(1.19351 0.0192023 0)
(1.19599 0.0167619 0)
(1.19666 0.0145575 0)
(1.19623 0.0125384 -2.3414e-11)
(1.1952 0.0106598 2.3414e-11)
(1.19391 0.0088852 0)
(1.19261 0.00718618 0)
(1.19143 0.00554116 1.18633e-11)
(1.19049 0.0039337 -1.18633e-11)
(1.18983 0.00235092 0)
(1.18949 0.000782131 0)
(0.900936 0.0476175 3.94085e-28)
(0.967121 0.0456878 -3.94631e-28)
(1.02502 0.0428086 2.26462e-29)
(1.07345 0.0393072 -2.26462e-29)
(1.11213 0.0355213 0)
(1.1416 0.0317196 0)
(1.16293 0.0280929 -4.9456e-28)
(1.17752 0.0247513 4.9456e-28)
(1.18683 0.0217357 4.5792e-28)
(1.19221 0.0190381 -4.5792e-28)
(1.19482 0.0166221 0)
(1.1956 0.0144385 0)
(1.19525 0.012438 -1.14119e-11)
(1.19428 0.0105762 1.14119e-11)
(1.19303 0.00881699 4.78115e-28)
(1.19176 0.0071322 -4.78115e-28)
(1.19061 0.00550038 2.3164e-11)
(1.18968 0.00390525 -2.3164e-11)
(1.18903 0.00233413 -5.34905e-28)
(1.1887 0.000776583 5.38291e-28)
(0.900303 0.0469196 -3.80441e-28)
(0.965921 0.0450505 3.80969e-28)
(1.02343 0.0422467 0)
(1.07162 0.0388247 0)
(1.11023 0.0351147 0)
(1.13973 0.0313802 0)
(1.16118 0.0278098 4.79912e-28)
(1.17592 0.0245137 -4.79912e-28)
(1.18539 0.0215345 -4.45081e-28)
(1.19092 0.0188664 4.45081e-28)
(1.19366 0.0164748 0)
(1.19454 0.0143125 0)
(1.19427 0.0123309 0)
(1.19336 0.0104865 0)
(1.19217 0.00874347 -4.66328e-28)
(1.19092 0.00707372 4.66328e-28)
(1.1898 0.005456 2.26065e-11)
(1.18888 0.00387417 -2.26065e-11)
(1.18824 0.00231574 0)
(1.18792 0.000770499 0)
(0.899696 0.0462288 7.64452e-28)
(0.964755 0.0444181 -7.65512e-28)
(1.02187 0.041687 0)
(1.06983 0.0383417 0)
(1.10836 0.0347052 0)
(1.13789 0.0310362 0)
(1.15945 0.0275211 0)
(1.17434 0.0242698 0)
(1.18397 0.0213267 9.00286e-28)
(1.18964 0.018688 -9.00286e-28)
(1.19251 0.0163211 0)
(1.1935 0.0141803 0)
(1.19331 0.012218 -1.08333e-11)
(1.19246 0.0103915 1.08333e-11)
(1.1913 0.00866518 0)
(1.19009 0.00701119 0)
(1.18899 0.00540837 1.10272e-11)
(1.18809 0.00384072 -1.10272e-11)
(1.18746 0.00229591 0)
(1.18714 0.000763928 0)
(0.899115 0.0455458 0)
(0.963622 0.0437912 0)
(1.02034 0.0411301 -2.04679e-29)
(1.06808 0.0378589 2.04679e-29)
(1.10652 0.0342938 0)
(1.13609 0.0306887 0)
(1.15775 0.0272276 0)
(1.17278 0.0240206 0)
(1.18256 0.0211132 -4.20147e-28)
(1.18838 0.0185038 4.20147e-28)
(1.19137 0.0161616 0)
(1.19246 0.0140425 0)
(1.19235 0.0120999 -2.11e-11)
(1.19156 0.0102917 2.11e-11)
(1.19045 0.00858263 0)
(1.18927 0.00694501 0)
(1.18819 0.00535781 0)
(1.1873 0.00380512 0)
(1.18668 0.00227476 4.97099e-28)
(1.18637 0.000756918 -5.00246e-28)
(0.898557 0.0448708 0)
(0.96252 0.0431705 0)
(1.01886 0.0405767 0)
(1.06637 0.0373772 0)
(1.10472 0.0338814 0)
(1.13431 0.0303385 0)
(1.15607 0.0269304 0)
(1.17124 0.0237669 0)
(1.18117 0.0208949 0)
(1.18713 0.0183146 0)
(1.19025 0.0159971 8.71267e-28)
(1.19144 0.0138998 -8.71267e-28)
(1.19141 0.0119772 -2.05415e-11)
(1.19067 0.0101876 2.05415e-11)
(1.18961 0.00849627 0)
(1.18846 0.00687559 0)
(1.1874 0.00530463 -9.059e-28)
(1.18653 0.00376759 9.059e-28)
(1.18591 0.00225244 -6.69054e-28)
(1.1856 0.000749513 6.7329e-28)
(0.898023 0.0442043 0)
(0.961449 0.0425562 0)
(1.0174 0.0400274 0)
(1.06469 0.0368973 0)
(1.10296 0.0334687 0)
(1.13257 0.0299865 0)
(1.15442 0.0266302 0)
(1.16972 0.0235095 0)
(1.1798 0.0206725 0)
(1.1859 0.0181211 0)
(1.18914 0.0158283 -4.06909e-28)
(1.19043 0.0137529 4.06909e-28)
(1.19047 0.0118504 -1.99912e-11)
(1.1898 0.0100798 1.99912e-11)
(1.18877 0.00840657 4.20549e-28)
(1.18766 0.00680329 -4.20549e-28)
(1.18661 0.00524912 1.02165e-11)
(1.18576 0.00372836 -1.02165e-11)
(1.18515 0.00222908 4.72514e-28)
(1.18484 0.000741756 -4.75506e-28)
(0.89751 0.0435466 -3.18472e-28)
(0.960408 0.041949 3.18912e-28)
(1.01598 0.0394828 1.8474e-29)
(1.06305 0.0364198 -1.8474e-29)
(1.10122 0.0330565 0)
(1.13085 0.0296334 0)
(1.15279 0.0263278 0)
(1.16822 0.0232492 0)
(1.17844 0.0204467 0)
(1.18468 0.0179241 0)
(1.18804 0.0156559 0)
(1.18942 0.0136024 0)
(1.18955 0.0117202 -1.94491e-11)
(1.18893 0.00996879 1.94491e-11)
(1.18795 0.00831394 -4.09466e-28)
(1.18686 0.00672846 4.09466e-28)
(1.18584 0.00519157 1.99049e-11)
(1.185 0.00368762 -1.99049e-11)
(1.1844 0.00220479 9.10076e-28)
(1.18409 0.000733687 9.80579e-28)
(0.897019 0.042898 6.39515e-28)
(0.959395 0.041349 -6.40398e-28)
(1.0146 0.0389433 8.94851e-29)
(1.06143 0.0359453 -8.94851e-29)
(1.09952 0.0326453 0)
(1.12916 0.0292799 0)
(1.15118 0.0260239 0)
(1.16674 0.0229866 0)
(1.1771 0.0202183 -8.99013e-12)
(1.18347 0.0177241 8.99013e-12)
(1.18695 0.0154804 0)
(1.18843 0.0134489 0)
(1.18863 0.011587 -9.45773e-12)
(1.18807 0.00985496 9.45773e-12)
(1.18713 0.00821878 0)
(1.18607 0.00665144 0)
(1.18507 0.00513222 1.93834e-11)
(1.18424 0.00364556 -1.93834e-11)
(1.18366 0.00217969 -9.10076e-28)
(1.18335 0.000725345 -9.80579e-28)
(0.896548 0.0422587 0)
(0.958409 0.0407568 0)
(1.01324 0.0384094 0)
(1.05985 0.0354743 0)
(1.09784 0.0322359 0)
(1.12749 0.0289266 0)
(1.1496 0.0257192 0)
(1.16528 0.0227226 0)
(1.17577 0.0199878 -8.7215e-12)
(1.18227 0.0175218 8.7215e-12)
(1.18587 0.0153025 0)
(1.18745 0.0132929 0)
(1.18772 0.0114514 0)
(1.18722 0.00973878 0)
(1.18632 0.00812147 0)
(1.18529 0.00657254 0)
(1.18431 0.00507134 9.43424e-12)
(1.1835 0.00360235 -9.43424e-12)
(1.18292 0.00215389 -4.36671e-28)
(1.18262 0.000716765 4.39435e-28)
(0.896097 0.041629 0)
(0.95745 0.0401724 0)
(1.01192 0.0378815 0)
(1.05831 0.0350073 0)
(1.0962 0.0318288 0)
(1.12585 0.0285742 0)
(1.14804 0.0254143 0)
(1.16384 0.0224575 0)
(1.17446 0.0197559 0)
(1.18109 0.0173178 0)
(1.1848 0.0151227 0)
(1.18648 0.0131348 0)
(1.18683 0.0113137 0)
(1.18638 0.00962065 0)
(1.18553 0.00802235 7.85041e-28)
(1.18453 0.00649204 -7.85041e-28)
(1.18357 0.00500914 7.93262e-28)
(1.18276 0.00355817 -7.93262e-28)
(1.18219 0.00212748 5.86617e-28)
(1.1819 0.000707981 -5.90331e-28)
(0.895664 0.0410089 6.6363e-12)
(0.956516 0.0395963 -6.64542e-12)
(1.01062 0.0373599 1.60715e-29)
(1.05679 0.0345447 -1.60715e-29)
(1.09458 0.0314244 0)
(1.12424 0.0282232 0)
(1.1465 0.0251097 0)
(1.16241 0.0221921 0)
(1.17317 0.0195231 0)
(1.17993 0.0171125 0)
(1.18375 0.0149414 0)
(1.18552 0.0129752 0)
(1.18594 0.0111745 0)
(1.18555 0.00950095 0)
(1.18474 0.00792175 0)
(1.18377 0.00641024 0)
(1.18283 0.00494586 -3.70672e-28)
(1.18204 0.00351316 3.70672e-28)
(1.18148 0.00210057 -4.13507e-28)
(1.18118 0.000699025 4.16125e-28)
(0.89525 0.0403987 6.39665e-12)
(0.955607 0.0390286 -6.40542e-12)
(1.00935 0.0368449 7.77786e-29)
(1.0553 0.034087 -7.77786e-29)
(1.09299 0.0310232 0)
(1.12265 0.027874 0)
(1.14498 0.024806 0)
(1.16101 0.0219268 0)
(1.17189 0.0192899 6.86814e-28)
(1.17877 0.0169066 -6.86814e-28)
(1.18271 0.0147591 7.10421e-28)
(1.18457 0.0128145 -7.10421e-28)
(1.18507 0.011034 0)
(1.18473 0.00938004 0)
(1.18396 0.00782 -7.41773e-28)
(1.18302 0.00632738 7.41773e-28)
(1.1821 0.00488169 8.68231e-12)
(1.18132 0.00346749 -8.68231e-12)
(1.18077 0.00207324 0)
(1.18048 0.000689928 0)
(0.894853 0.0397983 0)
(0.954721 0.0384694 0)
(1.00811 0.0363368 6.57469e-12)
(1.05384 0.0336345 -6.57469e-12)
(1.09143 0.0306257 0)
(1.12109 0.0275272 0)
(1.14349 0.0245036 0)
(1.15962 0.0216621 0)
(1.17062 0.0190569 0)
(1.17763 0.0167003 0)
(1.18167 0.0145764 0)
(1.18363 0.0126531 0)
(1.1842 0.0108927 0)
(1.18392 0.00925825 0)
(1.18319 0.00771737 0)
(1.18228 0.00624371 0)
(1.18138 0.00481682 8.43862e-12)
(1.18061 0.00342129 -8.43862e-12)
(1.18007 0.00204558 3.90955e-28)
(1.17978 0.000680718 -3.9343e-28)
(0.857259 0.0716682 -1.48802e-19)
(0.855396 0.0716679 1.18851e-19)
(0.85365 0.0715801 1.09666e-20)
(0.852015 0.0714114 -2.36853e-19)
(0.850487 0.0711678 3.32054e-19)
(0.849058 0.0708553 3.37705e-19)
(0.847724 0.0704798 -9.50799e-20)
(0.84648 0.0700465 -4.1475e-19)
(0.84532 0.0695607 5.35732e-19)
(0.844241 0.0690274 -2.67084e-19)
(0.843239 0.0684512 -3.31511e-20)
(0.842308 0.0678366 8.29937e-20)
(0.841446 0.0671876 -2.26112e-19)
(0.840649 0.0665082 -1.14315e-19)
(0.839912 0.0658019 2.46755e-19)
(0.839233 0.0650723 -5.11987e-21)
(0.838609 0.0643225 -5.34313e-20)
(0.838037 0.0635555 9.14535e-20)
(0.837513 0.0627739 -9.41376e-20)
(0.837035 0.0619803 2.52329e-20)
(0.836601 0.0611771 1.26128e-19)
(0.836207 0.0603663 -3.75099e-20)
(0.835853 0.0595502 -1.12623e-19)
(0.835535 0.0587303 1.06385e-19)
(0.835251 0.0579085 -4.55444e-20)
(0.835 0.0570862 5.11068e-20)
(0.83478 0.0562648 -3.10232e-20)
(0.834589 0.0554457 -1.01828e-19)
(0.834425 0.0546299 1.3192e-19)
(0.834287 0.0538186 -2.49741e-21)
(0.834173 0.0530126 -8.33988e-20)
(0.834082 0.0522128 6.27571e-20)
(0.834012 0.0514199 4.96163e-21)
(0.833964 0.0506347 -1.09638e-20)
(0.833934 0.0498578 -3.64065e-20)
(0.833923 0.0490896 4.21004e-20)
(0.833929 0.0483307 -1.77851e-21)
(0.833951 0.0475814 1.26048e-20)
(0.833989 0.0468422 -1.28545e-20)
(0.834041 0.0461132 -1.35811e-20)
(0.834107 0.0453948 -1.66043e-20)
(0.834186 0.0446872 2.15e-20)
(0.834277 0.0439905 2.81133e-21)
(0.83438 0.043305 -3.07544e-20)
(0.834494 0.0426306 9.56205e-21)
(0.834619 0.0419675 -2.89938e-20)
(0.834754 0.0413158 -4.7627e-21)
(0.834898 0.0406754 2.38036e-20)
(0.743024 0.0724925 4.28442e-19)
(0.743057 0.0723445 5.98303e-20)
(0.743148 0.0721199 -6.57555e-19)
(0.743295 0.0718246 6.07983e-19)
(0.743496 0.0714642 -3.96041e-20)
(0.743747 0.0710441 6.99844e-20)
(0.744046 0.0705695 -4.983e-19)
(0.744391 0.0700454 2.65205e-19)
(0.744778 0.0694765 -1.7639e-19)
(0.745205 0.0688671 -1.68243e-19)
(0.74567 0.0682216 1.5127e-19)
(0.74617 0.0675438 1.62834e-19)
(0.746703 0.0668374 -1.06466e-19)
(0.747267 0.0661061 2.10086e-19)
(0.747859 0.0653529 -2.24571e-19)
(0.748478 0.0645809 3.32828e-20)
(0.749121 0.063793 8.93946e-20)
(0.749787 0.0629918 -1.12193e-19)
(0.750473 0.0621797 1.58339e-19)
(0.751179 0.061359 -3.87708e-20)
(0.751902 0.0605316 -5.44253e-21)
(0.75264 0.0596996 -2.27827e-20)
(0.753393 0.0588647 -5.48643e-20)
(0.754158 0.0580285 2.3651e-20)
(0.754935 0.0571924 2.87569e-20)
(0.755723 0.0563578 5.79287e-20)
(0.756519 0.0555259 6.10137e-21)
(0.757323 0.0546979 -1.21102e-19)
(0.758134 0.0538747 1.25239e-19)
(0.758952 0.0530571 -1.00008e-19)
(0.759774 0.0522462 -3.28639e-20)
(0.7606 0.0514424 2.42212e-20)
(0.76143 0.0506466 -8.80601e-21)
(0.762263 0.0498593 5.2755e-20)
(0.763098 0.0490809 -5.78579e-20)
(0.763934 0.048312 2.55789e-21)
(0.764771 0.0475529 7.46942e-23)
(0.765608 0.0468039 8.47908e-20)
(0.766445 0.0460654 -6.11378e-20)
(0.767281 0.0453376 1.17382e-20)
(0.768116 0.0446206 1.67507e-20)
(0.76895 0.0439147 9.27931e-21)
(0.769782 0.04322 -6.08811e-20)
(0.770612 0.0425365 8.04339e-20)
(0.771439 0.0418644 -4.80973e-20)
(0.772264 0.0412036 -2.83498e-20)
(0.773086 0.0405543 2.64032e-21)
(0.773905 0.0399163 5.9093e-20)
(0.77472 0.0392898 -1.29199e-20)
(0.61903 0.0699554 -1.03321e-20)
(0.62113 0.0697905 6.90305e-20)