/*--------------------------------*- C++ -*----------------------------------*\
  =========                 |
  \\      /  F ield         | OpenFOAM: The Open Source CFD Toolbox
   \\    /   O peration     | Website:  https://openfoam.org
    \\  /    A nd           | Version:  7
     \\/     M anipulation  |
\*---------------------------------------------------------------------------*/
FoamFile
{
    version     2.0;
    format      ascii;
    class       surfaceScalarField;
    location    "40";
    object      phi;
}
// * * * * * * * * * * * * * * * * * * * * * * * * * * * * * * * * * * * * * //

dimensions      [0 3 -1 0 0 0 0];

internalField   nonuniform List<scalar> 
6484
(
-5.42256e-05
5.42253e-05
-0.000182288
0.000128062
-0.000358475
0.000176187
-0.000563245
0.000204769
-0.00078397
0.000220724
-0.00101392
0.000229951
-0.00125036
0.000236436
-0.00149268
0.00024232
-0.00174118
0.000248504
-0.00199647
0.000255287
-0.00225923
0.000262759
-0.00253018
0.000270954
-0.00281006
0.000279876
-0.00309959
0.000289533
0.000300236
-0.00339983
-5.37495e-05
0.000107975
-0.000180909
0.000255221
-0.000356085
0.000351363
-0.000559891
0.000408575
-0.000779736
0.000440569
-0.00100887
0.000459087
-0.00124453
0.00047209
-0.00148607
0.000483866
-0.0017338
0.000496231
-0.0019883
0.000509787
-0.00225026
0.000524714
-0.00252038
0.000541084
-0.00279941
0.000558902
-0.00308806
0.000578182
0.00059953
-0.00338735
-5.27997e-05
0.000160775
-0.000178154
0.000380575
-0.000351308
0.000524517
-0.000553184
0.000610451
-0.000771269
0.000658654
-0.000998776
0.000686594
-0.00123287
0.000706182
-0.00147287
0.00072387
-0.00171905
0.000742407
-0.00197197
0.000762714
-0.00223232
0.000785064
-0.0025008
0.000809565
-0.00277813
0.000836229
-0.00306501
0.000865065
0.000896938
-0.00336242
-5.13807e-05
0.000212155
-0.000174031
0.000503226
-0.00034415
0.000694636
-0.000543127
0.000809429
-0.000758569
0.000874095
-0.000983633
0.000911658
-0.00121538
0.000937934
-0.00145308
0.000961563
-0.00169693
0.000986264
-0.00194751
0.00101329
-0.00220546
0.00104302
-0.00247148
0.00107558
-0.00274627
0.00111101
-0.00303051
0.0011493
0.00119152
-0.00332509
-4.94997e-05
0.000261655
-0.000168552
0.000622277
-0.00033462
0.000860704
-0.000529724
0.00100453
-0.000741636
0.00108601
-0.000963442
0.00113346
-0.00119208
0.00116657
-0.00142671
0.00119619
-0.00166749
0.00122705
-0.00191495
0.00126075
-0.00216973
0.00129779
-0.00243248
0.00133834
-0.0027039
0.00138243
-0.00298463
0.00143003
0.00148233
-0.00327544
-4.7166e-05
0.000308821
-0.00016173
0.000736842
-0.00032273
0.0010217
-0.00051298
0.00119478
-0.000720469
0.0012935
-0.000938202
0.0013512
-0.00116296
0.00139133
-0.00139377
0.001427
-0.00163073
0.00146401
-0.00187433
0.00150436
-0.00212517
0.00154863
-0.00238389
0.00159706
-0.00265114
0.00164967
-0.0029275
0.0017064
0.00176846
-0.00321363
-4.43915e-05
0.000353212
-0.000153586
0.000846036
-0.000308495
0.00117661
-0.000492899
0.00137919
-0.000695065
0.00149566
-0.000907908
0.00156404
-0.00112802
0.00161144
-0.00135428
0.00165326
-0.00158669
0.00169642
-0.00182571
0.00174337
-0.00207189
0.00179481
-0.00232583
0.001851
-0.00258812
0.00191197
-0.00285931
0.00197758
0.00204902
-0.00313987
-4.11908e-05
0.000394403
-0.000144143
0.000948988
-0.000291935
0.0013244
-0.000469488
0.00155674
-0.000665417
0.00169159
-0.00087255
0.00177117
-0.00108726
0.00182614
-0.00130824
0.00187424
-0.0015354
0.00192359
-0.00176913
0.0019771
-0.00200995
0.00203564
-0.00225842
0.00209947
-0.00251506
0.00216862
-0.00278033
0.00224285
0.00232315
-0.00305446
-3.75815e-05
0.000431985
-0.00013343
0.00104484
-0.000273072
0.00146405
-0.000442753
0.00172642
-0.000631517
0.00188036
-0.000832109
0.00197177
-0.00104066
0.00203469
-0.00125565
0.00208923
-0.00147687
0.00214481
-0.00170465
0.00220488
-0.00193947
0.00227046
-0.00218184
0.00234183
-0.00243221
0.00241899
-0.0026909
0.00250153
0.00259011
-0.00295786
-3.35848e-05
0.00046557
-0.000121484
0.00113274
-0.000251936
0.0015945
-0.000412704
0.00188719
-0.000593351
0.002061
-0.000786559
0.00216497
-0.000988185
0.00223632
-0.00119648
0.00229753
-0.00141109
0.00235942
-0.00163227
0.00242606
-0.00186048
0.00249866
-0.00209618
0.00257753
-0.00233978
0.00266259
-0.00259139
0.00275314
0.00284932
-0.0028506
-2.9226e-05
0.000494796
-0.000108348
0.00121186
-0.000228568
0.00171472
-0.000379357
0.00203798
-0.00055091
0.00223255
-0.00073587
0.00234993
-0.000929811
0.00243026
-0.00113071
0.00249843
-0.00133807
0.00256677
-0.00155205
0.00264005
-0.00177311
0.00271971
-0.00200172
0.00280614
-0.00223829
0.00289917
-0.00248271
0.00299756
0.00310033
-0.00273372
-2.45353e-05
0.000519331
-9.40811e-05
0.0012814
-0.00020302
0.00182366
-0.000342736
0.00217769
-0.000504175
0.00239399
-0.000679985
0.00252574
-0.000865433
0.00261571
-0.00105819
0.00269119
-0.00125756
0.00276614
-0.00146365
0.00284614
-0.00167686
0.00293292
-0.00189771
0.00302699
-0.00212684
0.00312829
-0.00236417
0.00323489
0.00334355
-0.00260738
-1.95499e-05
0.000538881
-7.87567e-05
0.00134061
-0.00017537
0.00192027
-0.000302889
0.00230521
-0.000453161
0.00254427
-0.000618896
0.00269148
-0.000795053
0.00279186
-0.000978978
0.00287512
-0.00116978
0.00295694
-0.00136755
0.00304391
-0.00157273
0.0031381
-0.0017859
0.00324016
-0.00200811
0.0033505
-0.0022403
0.00346707
0.00358033
-0.00247708
-1.43139e-05
0.000553195
-6.24718e-05
0.00138877
-0.000145722
0.00200352
-0.00025989
0.00241938
-0.000397884
0.00268226
-0.000552545
0.00284614
-0.000718508
0.00295783
-0.000892712
0.00304932
-0.00107397
0.0031382
-0.00126221
0.00323215
-0.00145779
0.00333369
-0.00166102
0.00344339
-0.0018726
0.00356209
-0.00209663
0.0036911
0.00381792
-0.00233422
-8.88902e-06
0.000562084
-4.5354e-05
0.00142523
-0.00011422
0.00207239
-0.000213861
0.00251902
-0.000338423
0.00280682
-0.000480973
0.00298869
-0.000635838
0.00311269
-0.000799539
0.00321302
-0.000970605
0.00330926
-0.00114898
0.00341052
-0.00133553
0.00352024
-0.00153171
0.00363957
-0.00173859
0.00376897
-0.00195738
0.00390989
0.00408609
-0.00222555
-3.46762e-06
0.000565551
-2.75435e-05
0.00144931
-8.10518e-05
0.0021259
-0.000164986
0.00260296
-0.000274918
0.00291675
-0.000404265
0.00311804
-0.000547069
0.0032555
-0.000699354
0.00336531
-0.000859222
0.00346913
-0.00102628
0.00357758
-0.00120099
0.00369495
-0.00138412
0.00382269
-0.00157677
0.00396162
-0.0017817
0.00411482
0.00427976
-0.00197537
2.16908e-06
0.000563382
-9.02928e-06
0.00146051
-4.64411e-05
0.00216331
-0.000113523
0.00267004
-0.000207584
0.00301081
-0.000322577
0.00323303
-0.000452294
0.00338521
-0.000592169
0.00350518
-0.000739706
0.00361667
-0.000893957
0.00373183
-0.00105478
0.00385578
-0.00122226
0.00399018
-0.00139623
0.00413558
-0.00157588
0.00429447
0.00447131
-0.00176743
7.9843e-06
0.000555398
9.65904e-06
0.00145883
-1.03078e-05
0.00218327
-5.98338e-05
0.00271957
-0.00013671
0.00308769
-0.000236232
0.00333255
-0.000351881
0.00350086
-0.000478501
0.0036318
-0.000612969
0.00375114
-0.000753812
0.00387267
-0.000900507
0.00400247
-0.00105299
0.00414265
-0.00121141
0.00429401
-0.00137579
0.00445886
0.00464218
-0.00154666
1.32969e-05
0.000542101
2.81197e-05
0.00144401
2.57747e-05
0.00218562
-3.49978e-06
0.00274884
-6.27032e-05
0.00314689
-0.000145683
0.00341553
-0.000246317
0.0036015
-0.000359002
0.00374449
-0.000479979
0.00387211
-0.000607283
0.00399998
-0.000740112
0.0041353
-0.000878307
0.00428085
-0.00102206
0.00443776
-0.0011713
0.00460809
0.00479621
-0.00132533
1.83729e-05
0.000523728
4.62657e-05
0.00141612
6.19186e-05
0.00216997
5.2049e-05
0.00275871
1.3447e-05
0.0031855
-5.15483e-05
0.00348053
-0.000136159
0.00368611
-0.000234214
0.00384254
-0.000341302
0.0039792
-0.000454926
0.0041136
-0.000573974
0.00425435
-0.000698141
0.00440502
-0.000827526
0.00456715
-0.000962042
0.00474261
0.00493532
-0.00110115
2.316e-05
0.000500568
6.38562e-05
0.00137542
9.79528e-05
0.00213587
0.000109193
0.00274747
9.11408e-05
0.00320355
4.55357e-05
0.00352613
-2.19011e-05
0.00375354
-0.000104551
0.00392519
-0.000197288
0.00407194
-0.000297012
0.00421333
-0.000402231
0.00435957
-0.000512476
0.00451526
-0.000627775
0.00468245
-0.000748049
0.00486288
0.00506009
-0.000872829
2.75283e-05
0.00047304
8.05291e-05
0.00132242
0.000133096
0.0020833
0.000166084
0.00271448
0.0001702
0.00319943
0.000145108
0.00355122
9.59827e-05
0.00380267
2.95975e-05
0.00399158
-4.82639e-05
0.0041498
-0.000133804
0.00429887
-0.000225088
0.00445085
-0.000321424
0.0046116
-0.00042277
0.00478379
-0.000528986
0.0049691
0.00517048
-0.000639374
3.13475e-05
0.000441692
9.58685e-05
0.0012579
0.00016662
0.00201255
0.000221872
0.00265923
0.000249316
0.00317199
0.000246287
0.00355425
0.000216841
0.00383211
0.000167765
0.00404065
0.000105451
0.00421212
3.44093e-05
0.00436991
-4.27995e-05
0.00452806
-0.000125092
0.00469389
-0.000212389
0.00487109
-0.000304675
0.00506139
0.0052664
-0.000400595
3.45153e-05
0.000407177
0.000109485
0.00118293
0.000197768
0.00192427
0.000275525
0.00258147
0.000327378
0.00312013
0.000347966
0.00353367
0.000339783
0.0038403
0.000309294
0.00407114
0.000263406
0.004258
0.000207444
0.00442587
0.000144629
0.00459088
7.64975e-05
0.00476202
3.57882e-06
0.00494401
-7.44837e-05
0.00513945
0.00535067
-0.000158749
3.69489e-05
0.000370228
0.000121008
0.00109887
0.000225745
0.00181953
0.000325859
0.00248136
0.00040302
0.00304297
0.000448818
0.00348787
0.000463685
0.00382543
0.000453342
0.00408148
0.000425008
0.00428634
0.000384809
0.00446607
0.000336799
0.00463889
0.000283101
0.00481572
0.000224441
0.00500267
0.000160598
0.00520329
0.00542093
9.0334e-05
3.85847e-05
0.000331643
0.000130096
0.00100736
0.000249734
0.00169989
0.000371566
0.00235953
0.00047462
0.00293992
0.000547185
0.0034153
0.000587082
0.00378553
0.000598769
0.0040698
0.000589455
0.00429565
0.000566019
0.0044895
0.000533459
0.00467145
0.000494713
0.00485447
0.000451193
0.00504619
0.000403487
0.005251
0.00547184
0.000352578
3.93833e-05
0.00029226
0.000136458
0.000910284
0.000268944
0.00156741
0.000411247
0.00221723
0.000540305
0.00281086
0.000641023
0.00331459
0.000708076
0.00371848
0.000744021
0.00403385
0.000755602
0.00428407
0.000750271
0.00449483
0.000734045
0.00468767
0.000710858
0.00487765
0.000682895
0.00507415
0.000651238
0.00528265
0.00550663
0.000616454
3.93352e-05
0.000252925
0.000139886
0.000809734
0.000282661
0.00142463
0.000443472
0.00205641
0.000597989
0.00265634
0.000727888
0.00318469
0.000824247
0.00362212
0.000887005
0.00397109
0.000921812
0.00424926
0.000936344
0.0044803
0.000937576
0.00468644
0.00093055
0.00488468
0.000918338
0.00508636
0.000902598
0.00529839
0.00552494
0.000884281
3.84653e-05
0.00021446
0.00014028
0.000707918
0.000290328
0.00127458
0.000466895
0.00187985
0.000645458
0.00247778
0.000804953
0.00302519
0.000932597
0.00349448
0.00102497
0.00387872
0.00108583
0.0041884
0.00112253
0.00444361
0.00114277
0.0046662
0.00115276
0.00487469
0.00115666
0.00508246
0.00115691
0.00529814
0.00552683
0.00115502
3.68347e-05
0.000177625
0.000137676
0.000607077
0.000291617
0.00112064
0.000480383
0.00169108
0.000680521
0.00227764
0.000869105
0.00283661
0.00102954
0.00333404
0.00115441
0.00375385
0.00124465
0.00409816
0.00130648
0.00438177
0.00134794
0.00462475
0.0013763
0.00484632
0.00139699
0.00506178
0.00141342
0.00528171
0.00551246
0.00142779
3.45396e-05
0.000143085
0.000132253
0.000509364
0.000286501
0.000966394
0.000483178
0.0014944
0.000701231
0.00205959
0.000917133
0.00262071
0.001111
0.00314017
0.00127101
0.00359385
0.00139432
0.00397485
0.00148501
0.00429108
0.00155072
0.00455904
0.00159953
0.00479751
0.00163816
0.00502315
0.00167126
0.00524862
0.00548183
0.0017019
3.17058e-05
0.00011138
0.000124338
0.000416732
0.000275301
0.000815431
0.000475053
0.00129465
0.000706154
0.00182849
0.000946037
0.00238082
0.00117259
0.00291362
0.00136965
0.00339679
0.00152978
0.00381472
0.00165375
0.00416711
0.00174775
0.00446504
0.00182007
0.00472519
0.00187859
0.00496463
0.00192935
0.00519785
0.00543456
0.00197662
2.84803e-05
8.28993e-05
0.000114382
0.00033083
0.000258684
0.000671129
0.000456422
0.00109691
0.00069466
0.00159025
0.000953439
0.00212204
0.00121002
0.00265703
0.00144463
0.00316218
0.00164484
0.00361451
0.00180691
0.00400504
0.00193426
0.00433769
0.0020344
0.00462505
0.00211588
0.00488315
0.00218617
0.00512756
0.00536977
0.00225097
2.50199e-05
5.78794e-05
0.000102929
0.000252921
0.000237632
0.000536426
0.000428375
0.000906171
0.000667155
0.00135147
0.000938064
0.00185114
0.0012197
0.00237539
0.00149017
0.00289171
0.00173235
0.00337234
0.00193714
0.00380025
0.00210371
0.00417112
0.00223734
0.00449142
0.00234636
0.00477413
0.00243931
0.0050346
0.00528567
0.00252341
2.14789e-05
3.64006e-05
9.05647e-05
0.000183835
0.000213348
0.000413643
0.000392615
0.000726904
0.000625192
0.00111889
0.00090017
0.00157616
0.00119945
0.00207611
0.00150116
0.00259
0.00178475
0.00308875
0.00203563
0.00354936
0.00224744
0.00395931
0.0024215
0.00431737
0.00256438
0.00463125
0.00268487
0.00491411
0.00517912
0.00279142
1.7998e-05
1.84025e-05
7.78704e-05
0.000123963
0.000187145
0.000304368
0.000351295
0.000562754
0.000571387
0.000898803
0.000841795
0.00130575
0.00114924
0.00176866
0.00147427
0.00226498
0.00179514
0.00276788
0.00209278
0.00325172
0.00235475
0.00369735
0.0025767
0.00409541
0.00276151
0.00444644
0.0029166
0.00475901
0.00504504
0.00305069
1.46959e-05
3.70658e-06
6.53767e-05
7.3282e-05
0.000160323
0.000209422
0.000306785
0.000416291
0.00050915
0.000696438
0.000766673
0.00104822
0.00107164
0.0014637
0.00140907
0.00192754
0.00175882
0.00241813
0.00209961
0.00291093
0.00241364
0.00338332
0.00269
0.00381905
0.00292576
0.00421068
0.00312478
0.00455999
0.00487573
0.00329409
1.16646e-05
-7.95798e-06
5.35302e-05
3.14163e-05
0.000134056
0.000128896
0.000261422
0.000288925
0.000442274
0.000515586
0.000679818
0.00081068
0.000971741
0.00117177
0.00130878
0.0015905
0.00167494
0.00205197
0.00204984
0.00253604
0.00241269
0.00302046
0.00274658
0.00348516
0.00304148
0.00391578
0.00329525
0.00430622
0.00466061
0.00351038
8.96643e-06
-1.69244e-05
4.26734e-05
-2.29065e-06
0.000109315
6.22549e-05
0.000217293
0.000180947
0.000374481
0.000358398
0.000586844
0.000598318
0.000856575
0.000902041
0.00118023
0.00126685
0.00154762
0.00168458
0.00194232
0.00214134
0.002344
0.00261878
0.00273225
0.00309691
0.00309048
0.00355756
0.003409
0.0039877
0.00438672
0.00368288
6.63865e-06
-2.35631e-05
3.30395e-05
-2.86915e-05
8.6823e-05
8.47146e-06
0.000176079
9.16905e-05
0.000309041
0.000225436
0.000493218
0.000414141
0.000734006
0.000661253
0.00103292
0.000967928
0.00138594
0.00133157
0.00178257
0.00174471
0.00220646
0.00219489
0.00263757
0.00266579
0.00305561
0.00313952
0.00344404
0.00359927
0.00404091
0.00378985
4.69332e-06
-2.82564e-05
2.47529e-05
-4.8751e-05
6.70365e-05
-3.38122e-05
0.000138968
1.97586e-05
0.00024849
0.000115915
0.000403623
0.000259009
0.000611581
0.000453295
0.000877428
0.000702081
0.00120244
0.00100656
0.00158258
0.00136457
0.00200774
0.00176973
0.00246219
0.00221135
0.00292629
0.00267542
0.00338006
0.00314549
0.00361502
0.00380595
3.11931e-06
-3.13757e-05
1.78348e-05
-6.34665e-05
5.01501e-05
-6.61275e-05
0.000106626
-3.67177e-05
0.000194495
2.80458e-05
0.00032152
0.000131984
0.000495539
0.000279276
0.000723618
0.000474002
0.00101079
0.000719383
0.00135858
0.00101678
0.00176362
0.00136469
0.00221694
0.00175803
0.00270402
0.00218834
0.0032064
0.00264311
0.00311014
0.00371129
1.88463e-06
-3.32603e-05
1.22135e-05
-7.37954e-05
3.61188e-05
-9.00328e-05
7.92263e-05
-7.98252e-05
0.000147838
-4.0566e-05
0.000248972
3.08498e-05
0.000390214
0.000138034
0.000579288
0.000284928
0.000823286
0.000475386
0.00112756
0.000712506
0.00149444
0.000997808
0.00192206
0.00133041
0.00240374
0.00170666
0.00292788
0.00211897
0.00254487
0.00349314
9.40238e-07
-3.42006e-05
7.74191e-06
-8.05971e-05
2.47011e-05
-0.000106992
5.65237e-05
-0.000111648
0.000108515
-9.25574e-05
0.000186705
-4.73395e-05
0.000297876
2.68627e-05
0.000449436
0.000133368
0.000649052
0.000275769
0.000904014
0.000457544
0.00122036
0.000681466
0.00160193
0.000948835
0.00205021
0.00125838
0.00256386
0.00160532
0.00194186
0.00316687
2.27439e-07
-3.4428e-05
4.22578e-06
-8.45954e-05
1.55261e-05
-0.000118292
3.79843e-05
-0.000134106
7.59438e-05
-0.000130517
0.000134379
-0.000105775
0.000219007
-5.7765e-05
0.000336319
1.60564e-05
0.000493481
0.000118607
0.000698054
0.000252972
0.00095755
0.000421969
0.00127893
0.00062746
0.00166856
0.000868751
0.0021376
0.00113628
0.00133155
0.00274791
-3.15058e-07
-3.41129e-05
1.45845e-06
-8.63689e-05
8.17349e-06
-0.000125007
2.29378e-05
-0.00014887
4.92289e-05
-0.000156808
9.10206e-05
-0.000147567
0.000152907
-0.000119651
0.000240191
-7.12278e-05
0.000358915
-1.17262e-07
0.000515699
9.61877e-05
0.000717508
0.00022016
0.000971061
0.000373907
0.00128158
0.000558233
0.00164881
0.000769047
-7.37588e-07
-3.33753e-05
-7.47994e-07
-8.63585e-05
2.24604e-06
-0.000128001
1.07173e-05
-0.000157342
2.74101e-05
-0.000173501
5.54273e-05
-0.000175584
9.83406e-05
-0.000162565
0.000160287
-0.000133174
0.000246009
-8.58394e-05
0.000360872
-1.86757e-05
0.000510645
7.03883e-05
0.00070124
0.000183311
0.000938464
0.000321009
-1.08213e-06
-3.22932e-05
-2.5499e-06
-8.48908e-05
-2.59538e-06
-0.000127956
7.38819e-07
-0.000160676
9.59975e-06
-0.000182362
2.63951e-05
-0.000192379
5.38642e-05
-0.000190034
9.51693e-05
-0.000174479
0.000153974
-0.000144644
0.000234511
-9.92123e-05
0.000341604
-3.6705e-05
0.000480767
4.41484e-05
0.000143269
-1.37657e-06
-3.09166e-05
-4.06065e-06
-8.22067e-05
-6.6186e-06
-0.000125398
-7.49285e-06
-0.000159802
-4.98388e-06
-0.000184871
2.78596e-06
-0.000200149
1.79376e-05
-0.000205185
4.29128e-05
-0.000199454
8.05688e-05
-0.0001823
0.000134297
-0.00015294
0.00020818
-0.000110588
0.000307237
-5.49081e-05
-1.6408e-06
-2.92758e-05
-5.36889e-06
-7.84786e-05
-1.00344e-05
-0.000120732
-1.43774e-05
-0.000155459
-1.7026e-05
-0.000182222
-1.64721e-05
-0.000200703
-1.10239e-05
-0.000210634
1.26479e-06
-0.000211743
2.26949e-05
-0.00020373
5.60552e-05
-0.000186301
0.000104811
-0.000159344
-1.88943e-06
-2.73864e-05
-6.54276e-06
-7.38253e-05
-1.30168e-05
-0.000114258
-2.02641e-05
-0.000148211
-2.7139e-05
-0.000175347
-3.2384e-05
-0.000195458
-3.4593e-05
-0.000208425
-3.21504e-05
-0.000214186
-2.31435e-05
-0.000212737
-5.24224e-06
-0.000204202
-0.000189027
-2.13338e-06
-2.5253e-05
-7.63502e-06
-6.83236e-05
-1.5705e-05
-0.000106188
-2.54416e-05
-0.000138475
-3.58526e-05
-0.000164936
-4.58491e-05
-0.000185461
-5.42195e-05
-0.000200054
-5.95838e-05
-0.000208821
-6.03284e-05
-0.000211993
-5.45279e-05
-0.000210002
-2.37958e-06
-2.28734e-05
-8.68181e-06
-6.20214e-05
-1.81996e-05
-9.66705e-05
-3.01282e-05
-0.000126546
-4.35799e-05
-0.000151484
-5.75848e-05
-0.000171456
-7.10765e-05
-0.000186563
-8.28645e-05
-0.000197033
-9.15976e-05
-0.00020326
-0.000205866
-2.62993e-06
-2.02435e-05
-9.69933e-06
-5.4952e-05
-2.0555e-05
-8.58148e-05
-3.44548e-05
-0.000112647
-5.05848e-05
-0.000135355
-6.80663e-05
-0.000153975
-8.59536e-05
-0.000168675
-0.000103224
-0.000179763
-0.000118767
-0.000187716
-2.88059e-06
-1.73629e-05
-1.06819e-05
-4.71507e-05
-2.27757e-05
-7.3721e-05
-3.84589e-05
-9.69633e-05
-5.6972e-05
-0.000116841
-7.75117e-05
-0.000133435
-9.92398e-05
-0.000146947
-0.000121288
-0.000157715
-0.000166235
-3.12222e-06
-1.42407e-05
-1.16036e-05
-3.86693e-05
-2.48206e-05
-6.0504e-05
-4.20934e-05
-7.96905e-05
-6.27035e-05
-9.62314e-05
-8.59122e-05
-0.000110227
-0.000110977
-0.000121883
-0.000137169
-0.000131523
-0.000139607
-3.34153e-06
-1.08992e-05
-1.24238e-05
-2.9587e-05
-2.66157e-05
-4.63121e-05
-4.52498e-05
-6.10564e-05
-6.76386e-05
-7.38425e-05
-9.3097e-05
-8.47682e-05
-0.000120964
-9.40152e-05
-0.00015063
-0.000101858
-0.000108674
-3.52352e-06
-7.37567e-06
-1.30951e-05
-2.00154e-05
-2.80709e-05
-3.13363e-05
-4.7789e-05
-4.13383e-05
-7.15844e-05
-5.0047e-05
-9.88134e-05
-5.75392e-05
-0.000128879
-6.39491e-05
-0.000161263
-6.94742e-05
-7.43822e-05
-3.65408e-06
-3.72159e-06
-1.35725e-05
-1.00971e-05
-2.9099e-05
-1.58098e-05
-4.95738e-05
-2.08636e-05
-7.43463e-05
-2.52745e-05
-0.000102801
-2.90845e-05
-0.000134385
-3.23647e-05
-0.000168641
-3.52182e-05
-3.72232e-06
-1.38207e-05
-2.96318e-05
-5.04959e-05
-7.57699e-05
-0.000104852
-0.000137213
-0.00400768
0.000607849
-0.00429714
0.000289457
-0.00452979
0.000232653
-0.00463564
0.000105846
-0.00473831
0.000102674
-0.00477459
3.62806e-05
-0.0048191
4.45106e-05
-0.00482395
4.84639e-06
-0.004837
1.30503e-05
-0.00482478
-1.22214e-05
-0.00481831
-6.47022e-06
-0.00479524
-2.3072e-05
-0.0047753
-1.99402e-05
-0.00474433
-3.09698e-05
-3.02852e-05
-0.0039945
0.00121499
-0.00428459
0.000579549
-0.00451786
0.000465924
-0.00462482
0.000212805
-0.00472836
0.000206213
-0.00476578
7.37054e-05
-0.00481118
8.99106e-05
-0.00481714
1.08055e-05
-0.00483108
2.69876e-05
-0.00481995
-2.33529e-05
-0.00481439
-1.20222e-05
-0.00479236
-4.51073e-05
-0.00477335
-3.89468e-05
-0.00474339
-6.09366e-05
-5.96257e-05
-0.0039681
0.00182066
-0.00425952
0.000870968
-0.00449401
0.000700423
-0.0046032
0.000321996
-0.00470847
0.000311481
-0.00474818
0.000113416
-0.00479536
0.000137087
-0.00480354
1.89869e-05
-0.00481925
4.26992e-05
-0.00481029
-3.23132e-05
-0.00480657
-1.57404e-05
-0.00478661
-6.50757e-05
-0.00476946
-5.60885e-05
-0.0047415
-8.89023e-05
-8.7079e-05
-0.00392844
0.00242401
-0.00422199
0.00116452
-0.0044583
0.000936738
-0.00457085
0.000434542
-0.00467871
0.000419344
-0.00472184
0.000156547
-0.00477168
0.000186926
-0.00478319
3.04941e-05
-0.00480156
6.10758e-05
-0.00479584
-3.80322e-05
-0.00479487
-1.67121e-05
-0.00477799
-8.19554e-05
-0.00476365
-7.04359e-05
-0.00473867
-0.000113876
-0.000111706
-0.00387546
0.00302403
-0.00417209
0.00146115
-0.00441079
0.00117544
-0.00452782
0.000551569
-0.00463915
0.000530671
-0.00468682
0.000204225
-0.00474021
0.00024031
-0.00475613
4.64199e-05
-0.00477807
8.30119e-05
-0.00477664
-3.94573e-05
-0.00477933
-1.40297e-05
-0.00476654
-9.47394e-05
-0.00475591
-8.10639e-05
-0.00473491
-0.000134876
-0.000132575
-0.00380914
0.00361953
-0.00410994
0.00176195
-0.00435159
0.00141709
-0.00447422
0.000674199
-0.00458988
0.000646336
-0.00464322
0.00025756
-0.00470103
0.000298118
-0.00472245
6.78408e-05
-0.00474885
0.000109409
-0.00475274
-3.5566e-05
-0.00475999
-6.78171e-06
-0.00475228
-0.000102449
-0.00474629
-8.70487e-05
-0.00473023
-0.000150936
-0.000148761
-0.00372946
0.00420913
-0.00403551
0.00206801
-0.00428084
0.00166241
-0.00441018
0.000803539
-0.00453106
0.000767221
-0.00459115
0.000317643
-0.00465426
0.000361229
-0.00468223
9.58134e-05
-0.00471399
0.000141172
-0.00472421
-2.53442e-05
-0.00473688
5.88471e-06
-0.00473523
-0.000104101
-0.00473481
-8.74728e-05
-0.00472464
-0.000161105
-0.000159351
-0.00363649
0.00479116
-0.00394888
0.0023804
-0.00419872
0.00191225
-0.00433585
0.000940672
-0.00446285
0.000894218
-0.00453074
0.000385539
-0.00460003
0.000430518
-0.00463559
0.000131371
-0.00467358
0.000179162
-0.00469118
-7.74042e-06
-0.00471005
2.47512e-05
-0.00471546
-9.86894e-05
-0.00472149
-8.14444e-05
-0.00471814
-0.000164454
-0.000163446
-0.00353038
0.00536368
-0.00385016
0.00270017
-0.00410547
0.00216756
-0.00425143
0.00108663
-0.00438543
0.00102822
-0.00446218
0.000462285
-0.00453851
0.000506853
-0.00458263
0.000175486
-0.00462785
0.00022438
-0.0046535
1.79142e-05
-0.00467967
5.0914e-05
-0.00469302
-8.53311e-05
-0.00470637
-6.80953e-05
-0.00471076
-0.000160066
-0.000160161
-0.00341144
0.00592453
-0.0037395
0.00302823
-0.00400139
0.00242944
-0.00415714
0.00124239
-0.00429906
0.00117014
-0.00438566
0.000548884
-0.00446989
0.000591079
-0.00452351
0.00022911
-0.00457676
0.000277632
-0.00461151
5.26648e-05
-0.00464577
8.51693e-05
-0.00466799
-6.31108e-05
-0.00468951
-4.65781e-05
-0.00470251
-0.000147057
-0.00014863
-0.00328013
0.00647094
-0.00361715
0.00336524
-0.00388686
0.00269916
-0.0040533
0.00140882
-0.00420403
0.00132088
-0.00430145
0.0006463
-0.00439438
0.000684009
-0.00445842
0.000293155
-0.00452049
0.000339704
-0.00456529
9.74624e-05
-0.00460849
0.000128368
-0.00464042
-3.11769e-05
-0.00467093
-1.60727e-05
-0.00469342
-0.000124565
-0.000128006
-0.00313733
0.00700089
-0.00348345
0.00371137
-0.00376238
0.00297809
-0.00394034
0.00158677
-0.00410067
0.00148121
-0.00420984
0.000755475
-0.00431223
0.000786395
-0.00438758
0.000368506
-0.00445927
0.000411394
-0.00451496
0.000153153
-0.00456793
0.000181334
-0.00461041
1.13077e-05
-0.00465066
2.41786e-05
-0.00468351
-9.17215e-05
-9.74672e-05
-0.00298406
0.00750787
-0.00333857
0.00406588
-0.00362821
0.00326773
-0.00381845
0.00177701
-0.00398914
0.0016519
-0.00411102
0.000877362
-0.00422362
0.000898994
-0.00431115
0.000456036
-0.00439325
0.000493487
-0.00446065
0.000220554
-0.00452424
0.000244923
-0.00457795
6.50251e-05
-0.00462881
7.50376e-05
-0.0046728
-4.77339e-05
-5.62228e-05
-0.00282467
0.00799832
-0.00318413
0.00442534
-0.00348558
0.00356918
-0.00368867
0.00198011
-0.00387014
0.00183336
-0.00400555
0.00101278
-0.00412901
0.00102245
-0.00422949
0.000556516
-0.00432271
0.000586706
-0.00440257
0.000300421
-0.00447745
0.000319801
-0.00454328
0.00013085
-0.00460545
0.000137211
-0.00466134
8.15363e-06
-3.51461e-06
-0.00267406
0.00844683
-0.00303592
0.0047872
-0.00334817
0.00388144
-0.00356129
0.00219323
-0.00375303
0.00202509
-0.00389837
0.00115813
-0.00403356
0.00115764
-0.00414473
0.000667684
-0.00425042
0.000692388
-0.00434158
0.000391584
-0.00442911
0.000407337
-0.00450651
0.000208247
-0.0045814
0.000212094
-0.00464894
7.56954e-05
6.1593e-05
-0.0264446
0.00752863
0.0273628
-0.0258954
0.00423794
-0.0264458
0.00443184
-0.0266344
0.00238181
-0.0271638
0.00255453
-0.0273741
0.0013684
-0.0277532
0.00153679
-0.0278996
0.000814116
-0.0281579
0.000950672
-0.0282446
0.000478304
-0.0284151
0.000577766
-0.0284549
0.000248098
-0.0285568
0.00031401
-0.0285507
6.9518e-05
9.67143e-05
-0.0274864
0.00632165
0.0286934
-0.0273289
0.00408044
-0.0271586
0.00426156
-0.0273087
0.0025319
-0.0275077
0.00275354
-0.0276891
0.00154976
-0.0279185
0.00176624
-0.0280474
0.000942952
-0.0282304
0.00113371
-0.0283097
0.000557586
-0.0284398
0.000707913
-0.0284801
0.000288397
-0.0285593
0.000393132
-0.0285571
6.74038e-05
0.000125365
-0.0284417
0.00534099
0.0294224
-0.0281947
0.0038335
-0.0278646
0.00393146
-0.027905
0.00257227
-0.027878
0.0027265
-0.0280118
0.00168355
-0.0280856
0.00184007
-0.0282144
0.00107178
-0.0282987
0.00121795
-0.028394
0.000652928
-0.0284594
0.000773255
-0.0285172
0.000346279
-0.0285532
0.000429112
-0.0285759
9.01372e-05
0.000135206
-0.0290863
0.00455792
0.0298694
-0.0287626
0.00350972
-0.0283903
0.00355925
-0.028353
0.00253492
-0.028218
0.00259152
-0.0282862
0.0017517
-0.0282689
0.00182278
-0.028364
0.00116694
-0.0283841
0.00123803
-0.0284666
0.000735386
-0.0284887
0.000795363
-0.0285454
0.000402952
-0.0285562
0.000439927
-0.0285883
0.000122241
0.000132705
-0.0294753
0.00393594
0.0300973
-0.0291341
0.00316848
-0.0287753
0.00320051
-0.0286634
0.00242301
-0.0284962
0.00242428
-0.0284986
0.00175415
-0.028436
0.00176014
-0.0284846
0.0012156
-0.0284697
0.00122313
-0.0285244
0.000790025
-0.0285232
0.000794161
-0.0285665
0.000446278
-0.0285649
0.000438346
-0.0285937
0.000150977
0.000124841
-0.0296905
0.00342189
0.0302046
-0.0293657
0.00284369
-0.0290382
0.00287297
-0.0288842
0.00226898
-0.0287066
0.00224677
-0.02866
0.00170746
-0.0285741
0.00167424
-0.0285805
0.00122204
-0.0285451
0.00118772
-0.0285707
0.000815619
-0.028556
0.000779444
-0.0285825
0.00047276
-0.0285744
0.000430273
-0.0285949
0.000171452
0.000115763
-0.0297998
0.00299122
0.0302304
-0.0295025
0.00254638
-0.0292061
0.00257662
-0.0290355
0.00209842
-0.0288572
0.00206846
-0.0287786
0.00162878
-0.0286811
0.00157677
-0.0286556
0.00119655
-0.0286066
0.00113872
-0.028608
0.000817008
-0.028584
0.000755506
-0.028595
0.000483705
-0.0285826
0.000417852
-0.0285945
0.000183378
0.000107061
-0.0298402
0.00262686
0.0302045
-0.0295725
0.00227871
-0.0293055
0.00230958
-0.0291327
0.00192563
-0.028959
0.00189476
-0.0288625
0.00153226
-0.0287588
0.00147311
-0.0287126
0.00115033
-0.0286541
0.00108022
-0.0286374
0.000800313
-0.0286064
0.000724577
-0.0286049
0.000482123
-0.0285889
0.000401934
-0.0285938
0.000188224
9.90556e-05
-0.0298349
0.00231594
0.0301458
-0.0295957
0.0020395
-0.0293561
0.00206997
-0.0291886
0.00175812
-0.0290228
0.00172905
-0.0289181
0.00142748
-0.0288121
0.00136712
-0.0287531
0.00109131
-0.0286889
0.00101611
-0.0286596
0.000770931
-0.0286234
0.000688412
-0.0286124
0.000471144
-0.0285937
0.000383184
-0.0285932
0.00018774
9.16511e-05
-0.0297997
0.00204846
0.0300671
-0.0295865
0.00182638
-0.0293722
0.00185562
-0.0292138
0.00159978
-0.0290581
0.00157334
-0.0289512
0.00132054
-0.028846
0.00126194
-0.0287797
0.00102501
-0.0287128
0.000949229
-0.0286753
0.000733409
-0.0286356
0.000648657
-0.0286179
0.00045348
-0.028597
0.000362336
-0.0285927
0.000183435
8.47039e-05
-0.0297456
0.0018169
0.0299772
-0.0295559
0.00163669
-0.0293644
0.0016641
-0.029217
0.00145236
-0.0290723
0.00142863
-0.028967
0.00121528
-0.0288649
0.00115985
-0.0287953
0.000955384
-0.0287277
0.000881586
-0.0286854
0.00069112
-0.0286437
0.000606931
-0.0286215
0.000431318
-0.0285993
0.000340147
-0.0285924
0.000176485
7.8126e-05
-0.0296804
0.00161537
0.029882
-0.0295116
0.00146784
-0.0293405
0.00149305
-0.0292046
0.00131645
-0.0290712
0.0012952
-0.02897
0.00111404
-0.0288725
0.00106238
-0.0288023
0.000885207
-0.0287355
0.000814788
-0.0286908
0.000646347
-0.0286485
0.000564653
-0.0286236
0.000406406
-0.0286007
0.000317308
-0.028592
0.000167787
7.18834e-05
-0.0296093
0.00143915
0.0297855
-0.029459
0.00131749
-0.0293062
0.0013403
-0.0291817
0.00119198
-0.0290594
0.00117286
-0.0289636
0.00101821
-0.0288717
0.000970449
-0.0288028
0.00081636
-0.028738
0.000750031
-0.0286925
0.000600793
-0.0286506
0.000522771
-0.0286244
0.00038016
-0.0286015
0.000294409
-0.0285917
0.000158015
6.59742e-05
-0.0295361
0.00128451
0.0296907
-0.0294021
0.00118349
-0.0292656
0.00120382
-0.0291521
0.00107849
-0.0290404
0.00106118
-0.0289507
0.000928503
-0.0288648
0.000884537
-0.0287985
0.00075008
-0.0287366
0.000688137
-0.0286915
0.000555698
-0.0286507
0.000482006
-0.0286241
0.000353516
-0.0286017
0.000271982
-0.0285914
0.0001477
6.0399e-05
-0.0294631
0.00114831
0.0295993
-0.0293436
0.00106399
-0.0292216
0.00108185