/*--------------------------------*- C++ -*----------------------------------*\
  =========                 |
  \\      /  F ield         | OpenFOAM: The Open Source CFD Toolbox
   \\    /   O peration     | Website:  https://openfoam.org
    \\  /    A nd           | Version:  7
     \\/     M anipulation  |
\*---------------------------------------------------------------------------*/
FoamFile
{
    version     2.0;
    format      ascii;
    class       volVectorField;
    location    "24.999";
    object      U;
}
// * * * * * * * * * * * * * * * * * * * * * * * * * * * * * * * * * * * * * //

dimensions      [0 1 -1 0 0 0 0];

internalField   nonuniform List<vector> 
14800
(
(-0.0027255 0.00172697 -1.82803e-20)
(-0.0138433 0.00354074 2.40003e-21)
(-0.0320298 0.00439899 1.03614e-20)
(-0.0510662 0.0047098 -5.48846e-21)
(-0.0700248 0.00470126 -1.78901e-20)
(-0.0879721 0.00452545 1.68701e-20)
(-0.104565 0.00426785 6.9865e-22)
(-0.119703 0.00397053 1.97975e-21)
(-0.133368 0.00364919 -9.33821e-21)
(-0.145561 0.00330681 -1.21534e-21)
(-0.156274 0.00294614 6.98698e-21)
(-0.165511 0.00257908 5.96075e-21)
(-0.173334 0.00223884 2.23105e-20)
(-0.179924 0.00200216 -2.48048e-20)
(-0.185596 0.0018848 1.01231e-20)
(-0.00294372 0.00514272 3.83806e-20)
(-0.0141678 0.010555 -2.37159e-20)
(-0.0322155 0.0131219 -8.43202e-21)
(-0.0510019 0.0140544 1.811e-21)
(-0.0696302 0.0140317 1.67188e-20)
(-0.0871874 0.0135079 3.31357e-20)
(-0.103338 0.0127388 -2.84228e-20)
(-0.117982 0.0118508 5.07166e-21)
(-0.131099 0.0108911 2.4678e-20)
(-0.142686 0.00986806 2.63081e-20)
(-0.152726 0.00878796 -3.28806e-20)
(-0.161208 0.00768283 3.56721e-20)
(-0.168151 0.00664372 -5.17429e-20)
(-0.173741 0.00592643 4.92877e-20)
(-0.177979 0.00550212 9.9796e-21)
(-0.00337251 0.00844569 6.14502e-20)
(-0.0148083 0.0173694 1.0981e-19)
(-0.0325835 0.0216209 5.95582e-21)
(-0.050875 0.0231739 -3.01293e-20)
(-0.0688461 0.0231451 -1.4826e-20)
(-0.0856254 0.0222833 -5.26397e-20)
(-0.100892 0.0210133 3.70863e-20)
(-0.114545 0.0195458 4.62221e-20)
(-0.126562 0.0179604 -5.23371e-20)
(-0.136931 0.0162689 -2.07437e-20)
(-0.14562 0.0144763 6.88973e-20)
(-0.152592 0.0126249 -2.39378e-20)
(-0.157764 0.0108312 2.24012e-20)
(-0.161417 0.00962024 2.58402e-20)
(-0.162741 0.00866027 4.06756e-20)
(-0.00399708 0.0115664 -5.21948e-20)
(-0.0157476 0.0238583 -1.81587e-19)
(-0.033127 0.029752 8.85636e-20)
(-0.0506881 0.0319214 -8.48521e-21)
(-0.0676827 0.0318974 3.32115e-20)
(-0.0833001 0.0307129 -9.81208e-20)
(-0.0972394 0.0289578 3.37647e-21)
(-0.109402 0.0269284 1.28761e-21)
(-0.119759 0.0247377 3.63366e-20)
(-0.128283 0.0223997 -4.22359e-20)
(-0.134924 0.0199108 -1.15834e-19)
(-0.139627 0.017313 -4.11715e-20)
(-0.1421 0.0146721 -5.59277e-21)
(-0.143009 0.0129765 1.12387e-20)
(-0.139829 0.0110694 -4.59441e-20)
(-0.00479667 0.0144438 -1.15633e-19)
(-0.0169616 0.0299066 8.56141e-20)
(-0.0338355 0.0373791 5.14482e-21)
(-0.0504442 0.0401542 9.28173e-21)
(-0.0661529 0.0401462 -7.22075e-20)
(-0.0802295 0.0386566 5.42399e-20)
(-0.0923996 0.036436 -1.97638e-20)
(-0.102565 0.0338665 3.10555e-20)
(-0.110685 0.0310975 -1.78104e-20)
(-0.116714 0.0281451 1.07883e-19)
(-0.120569 0.0249902 8.3487e-20)
(-0.122233 0.021674 5.53954e-20)
(-0.120966 0.0180577 -8.63979e-20)
(-0.118506 0.0159514 2.32797e-20)
(-0.109062 0.0125003 -2.3712e-20)
(-0.00574605 0.0170275 2.16034e-22)
(-0.0184199 0.0354135 1.48619e-19)
(-0.034695 0.0443773 -1.10932e-19)
(-0.050145 0.0477359 9.21973e-20)
(-0.0642699 0.0477513 8.02836e-20)
(-0.0764323 0.0459737 -4.54914e-20)
(-0.0863885 0.0433078 3.149e-20)
(-0.0940375 0.040222 -1.26572e-19)
(-0.0993218 0.0369055 3.67289e-20)
(-0.102166 0.0333797 -8.23622e-20)
(-0.102427 0.0296037 4.27049e-20)
(-0.100266 0.0256518 -9.92421e-20)
(-0.0939848 0.020917 -2.34722e-20)
(-0.0877033 0.0185501 -4.79245e-20)
(-0.070048 0.0129702 5.6986e-20)
(-0.00681741 0.0192802 -1.30622e-20)
(-0.0200878 0.0402957 -1.52564e-19)
(-0.0356877 0.050635 1.40394e-20)
(-0.0497887 0.0545393 1.94988e-21)
(-0.0620431 0.0545769 2.27421e-20)
(-0.071921 0.0525241 2.01129e-19)
(-0.0792126 0.049431 -1.58862e-20)
(-0.0838083 0.0458512 1.03478e-19)
(-0.0856218 0.0420182 1.2863e-20)
(-0.0845402 0.0379649 7.21362e-21)
(-0.0802779 0.0336221 -3.1791e-20)
(-0.0734801 0.0291843 7.53504e-20)
(-0.0605891 0.0233114 1.84021e-19)
(-0.0499576 0.0206855 -2.05229e-19)
(-0.0221484 0.0130981 -7.26097e-20)
(-0.00798239 0.0211787 8.64919e-20)
(-0.0219274 0.0444894 1.50533e-19)
(-0.0367903 0.0560572 -4.0571e-20)
(-0.049366 0.0604481 -7.01215e-20)
(-0.0594714 0.0604937 -6.96966e-20)
(-0.0666933 0.0581711 9.17136e-21)
(-0.0708558 0.0546637 6.4045e-20)
(-0.0718312 0.0506085 -2.0109e-19)
(-0.0694875 0.0462866 -3.24802e-21)
(-0.0636737 0.0417553 -5.98974e-20)
(-0.0537893 0.0369242 -1.45241e-19)
(-0.0414139 0.0321156 1.47452e-19)
(-0.0201483 0.0255565 -2.00865e-19)
(-0.00397634 0.0220533 1.05733e-19)
(0.03609 0.0133069 7.52564e-20)
(-0.0092141 0.0227143 -4.72759e-20)
(-0.0238992 0.0479518 5.58914e-20)
(-0.0379732 0.0605671 -1.00541e-19)
(-0.0488558 0.06536 8.55569e-20)
(-0.0565349 0.0653825 1.1593e-19)
(-0.0607183 0.0627845 1.37731e-19)
(-0.0612597 0.0588694 -5.55754e-20)
(-0.0579994 0.0543533 -4.30638e-20)
(-0.0507309 0.0495682 1.98094e-19)
(-0.0392778 0.0446124 1.42167e-19)
(-0.0225431 0.0394805 1.32638e-19)
(-0.00322423 0.0341469 -1.94894e-19)
(0.0282816 0.0274893 5.59301e-20)
(0.0509899 0.023194 5.47096e-20)
(0.107904 0.0136911 -1.54984e-21)
(-0.0104889 0.0238922 -2.06855e-19)
(-0.0259626 0.0506608 -2.69599e-19)
(-0.0391977 0.064108 1.01021e-19)
(-0.0482177 0.0691898 1.36477e-19)
(-0.0531827 0.0691381 -2.81728e-19)
(-0.0539181 0.0662473 -1.25528e-20)
(-0.0502967 0.0619253 -1.10592e-19)
(-0.0421063 0.056962 2.62885e-19)
(-0.0290237 0.0517471 -1.16398e-19)
(-0.0108126 0.0464049 -1.41065e-20)
(0.0141062 0.0410992 8.95118e-20)
(0.041775 0.0352459 2.22633e-19)
(0.0867083 0.0288849 9.76635e-20)
(0.115672 0.0244956 -7.82005e-20)
(0.195967 0.0149723 -1.50916e-20)
(-0.0117876 0.0247303 1.43652e-19)
(-0.0280761 0.0526146 1.93018e-19)
(-0.0404117 0.0666443 -1.3244e-19)
(-0.0473839 0.0718725 -4.51713e-19)
(-0.0493179 0.0716747 -4.96336e-20)
(-0.0461444 0.0684628 1.94461e-21)
(-0.0377343 0.063733 1.49047e-19)
(-0.0237923 0.0583427 -3.30939e-19)
(-0.00384216 0.0527387 -1.4901e-20)
(0.0224366 0.0470591 -1.73386e-19)
(0.0573561 0.0417076 -2.28225e-19)
(0.0947201 0.0354888 -1.4687e-19)
(0.156881 0.0301746 1.38021e-20)
(0.191564 0.0252515 -4.85892e-20)
(0.302192 0.0181671 -1.49318e-19)
(-0.0130965 0.0252563 7.92826e-20)
(-0.0301962 0.0538294 1.3931e-19)
(-0.0415453 0.0681621 -6.40352e-20)
(-0.0462482 0.0733665 -5.80776e-20)
(-0.0447788 0.0729325 3.68087e-19)
(-0.0371491 0.0693647 -3.79709e-19)
(-0.0231941 0.0642326 1.96727e-20)
(-0.00249429 0.0584563 8.69986e-20)
(0.0256367 0.0525439 6.42284e-20)
(0.0615697 0.0466468 4.43585e-20)
(0.108624 0.0416039 7.72591e-20)
(0.157455 0.0348158 -5.79324e-20)
(0.240337 0.0321176 1.76396e-19)
(0.28064 0.0253686 1.41816e-19)
(0.426746 0.0236326 9.37526e-20)
(-0.0144067 0.0255052 3.40665e-20)
(-0.0322751 0.0543364 -2.82273e-19)
(-0.0425039 0.0686687 4.11579e-19)
(-0.044653 0.0736571 5.10063e-19)
(-0.0393181 0.0728847 -1.71493e-19)
(-0.026552 0.0689286 6.0904e-20)
(-0.00610423 0.063422 -1.5883e-19)
(0.0226195 0.0573479 -2.70628e-20)
(0.0605703 0.0512928 -2.99306e-19)
(0.108133 0.0453732 6.40831e-20)
(0.169619 0.0412301 2.49525e-19)
(0.232352 0.0337116 -3.31114e-20)
(0.337764 0.0353216 8.21823e-20)
(0.385202 0.0259516 -3.37897e-20)
(0.566553 0.0313744 9.57405e-21)
(-0.0157136 0.0255156 -1.67697e-19)
(-0.0342567 0.0541774 -1.89074e-19)
(-0.0431608 0.068192 -4.51063e-19)
(-0.0423759 0.0727597 -3.22934e-19)
(-0.0325794 0.0715454 -2.54749e-19)
(-0.013807 0.0671865 2.88671e-19)
(0.0143424 0.0613772 5.70949e-20)
(0.0526913 0.0551715 1.24737e-19)
(0.10247 0.0492646 6.62924e-20)
(0.164038 0.0436743 -1.86738e-19)
(0.242119 0.0411202 -9.70705e-20)
(0.321829 0.0334209 2.73331e-20)
(0.448265 0.0399848 -3.48476e-19)
(0.506563 0.0290176 7.8965e-20)
(0.714343 0.0415351 -2.02229e-19)
(-0.017014 0.0253253 8.59571e-20)
(-0.0360711 0.0533998 6.59501e-19)
(-0.0433489 0.066781 3.34269e-19)
(-0.0391153 0.0707227 1.56002e-19)
(-0.0240766 0.0689778 3.96831e-19)
(0.00182488 0.0642409 -3.46591e-19)
(0.0392139 0.058275 -1.43833e-19)
(0.0891741 0.0522219 -1.38672e-19)
(0.15313 0.0469191 6.64004e-19)
(0.231311 0.0422773 2.14682e-19)
(0.32757 0.0418584 -1.66088e-19)
(0.427093 0.0356844 8.96496e-20)
(0.569137 0.0461496 -1.19067e-19)
(0.642595 0.0363108 1.25073e-19)
(0.859391 0.0541836 5.86106e-20)
(-0.0183048 0.0249681 -8.21443e-21)
(-0.0376279 0.0520522 -3.52005e-19)
(-0.0428521 0.0645036 -3.2045e-19)
(-0.0344785 0.0676285 -1.1134e-19)
(-0.0131771 0.0653017 -1.95593e-19)
(0.0212902 0.0602805 2.0157e-19)
(0.0698317 0.0544149 9.78841e-20)
(0.133758 0.0489612 -1.4784e-19)
(0.214417 0.0449071 2.62285e-21)
(0.311578 0.0421654 -1.1308e-19)
(0.426537 0.0441761 2.56289e-20)
(0.546488 0.0418851 3.50097e-20)
(0.69602 0.0541634 3.02662e-20)
(0.785781 0.0482437 7.76854e-20)
(0.990165 0.0685637 -2.11615e-19)
(-0.0195799 0.0244717 -1.72427e-19)
(-0.0388173 0.0501903 1.41943e-19)
(-0.0413903 0.0614351 1.3391e-19)
(-0.0279722 0.0635942 1.68098e-20)
(0.000903835 0.060701 1.35563e-19)
(0.0457323 0.055592 -1.82443e-19)
(0.10771 0.0502368 1.89308e-19)
(0.18819 0.0460311 3.00828e-20)
(0.287896 0.0440558 -2.13971e-19)
(0.405349 0.0443819 6.1458e-21)
(0.537901 0.0490573 -2.13818e-19)
(0.674675 0.0523044 1.94177e-19)
(0.822925 0.0644731 2.62839e-20)
(0.924049 0.0637617 4.47918e-20)
(1.09757 0.0829487 2.12869e-19)
(-0.0208225 0.023855 4.83275e-19)
(-0.039501 0.0478595 -1.90709e-19)
(-0.0386248 0.0576611 -1.01286e-19)
(-0.0189973 0.0587765 -1.25074e-19)
(0.0190937 0.0554278 -3.39053e-19)
(0.0764454 0.0505696 -1.11958e-19)
(0.154423 0.0463256 2.21059e-19)
(0.25397 0.0442336 -1.47832e-19)
(0.374274 0.0453114 -5.70646e-19)
(0.511326 0.049751 2.09052e-19)
(0.657985 0.0574288 4.74586e-20)
(0.803481 0.0661608 -1.28611e-19)
(0.942445 0.0769302 7.47768e-20)
(1.04485 0.080945 -7.14608e-20)
(1.17722 0.0954466 8.79774e-20)
(-0.0220004 0.0231194 -7.78751e-20)
(-0.0395013 0.0450932 2.50454e-19)
(-0.0341568 0.053288 2.80869e-19)
(-0.00686061 0.0533697 2.16517e-19)
(0.0424317 0.0498052 3.34126e-19)
(0.114784 0.045715 2.96284e-19)
(0.211385 0.0433971 -3.35043e-19)
(0.331919 0.0444607 4.6501e-19)
(0.472765 0.049584 3.65255e-19)
(0.62599 0.0586782 -3.39528e-19)
(0.780374 0.069515 2.59036e-19)
(0.924 0.0820585 -6.83245e-20)
(1.04715 0.0906232 -1.25378e-19)
(1.13978 0.0978665 -1.73823e-19)
(1.22972 0.104665 -9.01061e-20)
(-0.0230566 0.0222517 -2.16203e-19)
(-0.0386042 0.0419262 4.30864e-19)
(-0.0275255 0.048431 -2.32611e-20)
(0.00920833 0.0476043 4.48729e-20)
(0.0720126 0.0442262 -6.08073e-20)
(0.162017 0.0416302 -4.61086e-21)
(0.279541 0.0422559 2.85526e-19)
(0.421699 0.0475642 -2.17466e-19)
(0.58061 0.0574842 2.20179e-19)
(0.743731 0.0710372 2.74104e-19)
(0.897146 0.0845202 -1.76744e-19)
(1.02889 0.0983894 1.40715e-19)
(1.13187 0.104452 -5.3949e-20)
(1.20661 0.112955 1.31569e-19)
(1.25935 0.109762 6.2316e-20)
(-0.0239207 0.0212438 -3.03942e-19)
(-0.0365466 0.0383843 3.3323e-20)
(-0.0182161 0.0432125 1.15212e-19)
(0.0300295 0.0417478 -1.86155e-19)
(0.108906 0.039152 -2.13171e-19)
(0.219139 0.038996 1.30882e-19)
(0.359005 0.0437108 -2.43894e-19)
(0.52139 0.0541713 1.92394e-19)
(0.693095 0.0690627 -7.89429e-20)
(0.857722 0.0861103 -3.00971e-19)
(1.00107 0.100935 -1.73384e-19)
(1.11394 0.113798 2.54821e-19)
(1.19506 0.117603 -1.07964e-19)
(1.24842 0.124599 -6.80217e-20)
(1.2728 0.110711 -1.17066e-19)
(-0.0245138 0.0200804 5.97664e-19)
(-0.0330254 0.0344827 -7.36052e-19)
(-0.00566799 0.0377724 -1.68531e-19)
(0.0564325 0.0361083 -9.96008e-20)
(0.154049 0.0351068 6.19797e-20)
(0.286621 0.0385299 -2.46825e-19)
(0.448711 0.0484411 1.43432e-19)
(0.62738 0.0644854 7.13281e-20)
(0.804257 0.083724 -4.75146e-19)
(0.961476 0.102704 3.88845e-19)
(1.08753 0.117175 1.01856e-19)
(1.17842 0.127566 -2.74853e-19)
(1.23822 0.129245 1.6125e-19)
(1.2711 0.131641 1.04332e-19)
(1.28872 0.120066 2.21587e-20)
(-0.0247306 0.0187345 -4.02603e-19)
(-0.0277111 0.0302484 6.69503e-19)
(0.010703 0.0322742 6.53587e-20)
(0.0892042 0.0310392 -2.41041e-19)
(0.208108 0.0326682 2.97946e-19)
(0.364154 0.0409117 -1.80596e-19)
(0.546208 0.0568278 1.94004e-20)
(0.734755 0.0781632 -2.31813e-19)
(0.908144 0.100384 4.18017e-19)
(1.05038 0.119497 -1.86688e-19)
(1.15513 0.132139 5.09708e-20)
(1.22419 0.139485 -8.02428e-20)
(1.26483 0.138434 -8.05327e-21)
(1.28464 0.138505 1.1961e-20)
(1.29328 0.126035 2.54879e-20)
(-0.0244439 0.0171805 8.6392e-20)
(-0.0202467 0.0257248 -3.96199e-19)
(0.0314835 0.0269128 -3.47195e-19)
(0.129025 0.0269457 9.24686e-20)
(0.271316 0.0324429 -2.41513e-19)
(0.450426 0.0466683 -2.23236e-19)
(0.647787 0.0688118 7.0663e-20)
(0.838208 0.0943712 3.317e-19)
(1.00011 0.117799 1.10357e-19)
(1.12244 0.135432 -2.16427e-19)
(1.20505 0.145345 -5.97122e-20)
(1.25443 0.149408 3.11649e-20)
(1.28026 0.146179 1.74479e-19)
(1.29004 0.143937 -3.8484e-20)
(1.2927 0.131265 -4.76633e-20)
(-0.0235104 0.0154026 -4.74084e-20)
(-0.0102543 0.0209793 5.1981e-19)
(0.0572372 0.0219251 2.44675e-19)
(0.176389 0.024289 8.67996e-20)
(0.343299 0.0350134 1.70941e-19)
(0.543049 0.0560387 3.31512e-19)
(0.749014 0.0838686 1.55346e-19)
(0.933117 0.112023 -3.44096e-19)
(1.07755 0.134899 -2.17187e-19)
(1.17796 0.149913 3.73989e-19)
(1.23988 0.156695 -3.69549e-20)
(1.27303 0.157734 -2.51456e-20)
(1.28763 0.152644 -2.22663e-19)
(1.2908 0.148738 -2.8637e-20)
(1.29036 0.135982 2.09749e-19)
(-0.0217738 0.0133989 -8.15596e-20)
(0.00265277 0.016114 -6.5596e-19)
(0.0884726 0.0176021 -4.94941e-20)
(0.231505 0.0235808 -1.39348e-19)
(0.422932 0.040847 -3.77981e-19)
(0.638747 0.0688799 1.26622e-19)
(0.845537 0.101143 -3.10746e-19)
(1.01633 0.130075 1.41393e-19)
(1.1399 0.150975 -1.23473e-20)
(1.21875 0.162739 -2.13633e-19)
(1.26277 0.166405 1.39005e-19)
(1.2832 0.164802 -7.24418e-20)
(1.28987 0.158311 9.1411e-20)
(1.28884 0.153081 1.56492e-19)
(1.28593 0.140255 -3.02657e-20)
(-0.0190677 0.0111855 -2.17709e-22)
(0.0188566 0.0112752 1.0889e-19)
(0.1256 0.0142988 1.04397e-19)
(0.294183 0.0253528 -9.82409e-21)
(0.508292 0.050185 5.35141e-20)
(0.733833 0.0846838 -4.0047e-19)
(0.933842 0.119683 9.47723e-20)
(1.0864 0.147726 -6.16324e-20)
(1.18809 0.165684 4.84403e-20)
(1.24731 0.173996 1.21294e-19)
(1.27665 0.174789 -1.47822e-19)
(1.28759 0.170998 3.76034e-20)
(1.28884 0.163464 3.31311e-20)
(1.28509 0.157148 -4.25661e-20)
(1.28105 0.144425 2.8893e-20)
(-0.0152204 0.00879977 1.88706e-19)
(0.0387181 0.00666119 3.34028e-19)
(0.168878 0.0124375 5.10573e-20)
(0.363725 0.0300924 -1.23496e-19)
(0.596803 0.0629642 3.62248e-19)
(0.82481 0.102712 2.42886e-19)
(1.01167 0.138645 -8.83073e-20)
(1.14329 0.164482 3.12168e-21)
(1.22387 0.178963 -8.47161e-20)
(1.2662 0.18391 2.40873e-20)
(1.28402 0.182187 1.9994e-20)
(1.28813 0.176628 -8.61526e-20)
(1.28577 0.168323 -1.80113e-19)
(1.28044 0.161099 1.13716e-19)
(1.27553 0.148515 -1.73084e-19)
(-0.0100597 0.00630267 -2.05815e-19)
(0.062556 0.00252635 -1.08611e-19)
(0.218346 0.0124963 -2.90784e-19)
(0.438878 0.0381518 4.61489e-19)
(0.685559 0.078827 -4.03335e-19)
(0.908881 0.122181 1.65668e-19)
(1.07803 0.157402 1.03602e-19)
(1.18794 0.180113 1.1525e-19)
(1.24933 0.190925 7.25979e-20)
(1.27772 0.192765 -1.49462e-20)
(1.28682 0.188902 -7.28087e-20)
(1.28615 0.181931 -1.72992e-19)
(1.28147 0.173039 9.08867e-20)
(1.27515 0.165004 8.73077e-20)
(1.26979 0.152606 1.87668e-19)
(-0.00341906 0.00377926 -1.83391e-19)
(0.0906228 -0.000816573 8.96768e-20)
(0.273758 0.0149771 9.28138e-20)
(0.517874 0.0496661 -2.01633e-19)
(0.771743 0.0972202 7.87183e-20)
(0.984186 0.142398 -7.00003e-20)
(1.13294 0.175562 -1.08302e-19)
(1.22182 0.194585 -1.23905e-19)
(1.26652 0.20177 4.67402e-20)
(1.28378 0.200841 1.4347e-19)
(1.28646 0.195184 2.09091e-19)
(1.28254 0.187077 8.04653e-20)
(1.27636 0.177699 -5.53175e-20)
(1.26949 0.16892 -5.96312e-20)
(1.2638 0.156718 -4.9662e-20)
(0.00485875 0.00133764 1.76912e-19)
(0.123075 -0.00299957 -8.87611e-20)
(0.33452 0.0203471 5.11533e-20)
(0.598606 0.0645278 2.9183e-19)
(0.85298 0.117527 2.80812e-19)
(1.04979 0.162833 -2.62744e-19)
(1.1771 0.192921 1.29627e-19)
(1.24659 0.207982 1.51832e-19)
(1.27724 0.211735 -2.61092e-19)
(1.28589 0.208386 5.46206e-20)
(1.28396 0.201222 -1.2106e-19)
(1.27785 0.192177 1.9032e-20)
(1.27073 0.182358 -6.27772e-20)
(1.26352 0.172872 1.13747e-19)
(1.25761 0.160857 -1.24151e-19)
(0.0149116 -0.00088915 -1.59797e-19)
(0.159938 -0.00360717 1.09119e-19)
(0.399677 0.0289688 1.47651e-19)
(0.678873 0.0824287 -3.84205e-20)
(0.927527 0.139171 -3.53777e-19)
(1.10551 0.18312 -1.26787e-19)
(1.21161 0.209418 -2.00332e-19)
(1.26385 0.220455 8.6998e-20)
(1.28303 0.221045 -1.22397e-20)
(1.28516 0.215599 -1.40258e-19)
(1.27996 0.207152 -1.31297e-19)
(1.27242 0.1973 2.4162e-20)
(1.26469 0.18704 5.01421e-20)
(1.2573 0.176872 -1.05229e-19)
(1.25122 0.165022 5.3446e-20)
(0.0268498 -0.00274533 6.82754e-20)
(0.201075 -0.00219739 1.51719e-21)
(0.467959 0.0410415 -4.43649e-19)
(0.756627 0.102945 -3.2228e-20)
(0.994301 0.161674 2.53185e-19)
(1.15171 0.203032 2.5843e-19)
(1.23771 0.225083 1.7855e-19)
(1.27506 0.232182 -3.3336e-20)
(1.28509 0.229905 5.57254e-20)
(1.28237 0.222634 -2.30436e-21)
(1.27492 0.213062 1.04308e-19)
(1.26643 0.20248 4.11703e-20)
(1.25832 0.191753 9.08267e-20)
(1.25083 0.180923 -6.99595e-20)
(1.2446 0.169202 -5.38786e-20)
(0.040752 -0.00405361 -1.1966e-20)
(0.246156 0.00166853 1.24943e-19)
(0.537875 0.0565805 2.32721e-19)
(0.830159 0.125618 7.87295e-20)
(1.05279 0.18466 -2.27571e-19)
(1.18905 0.222449 -2.88009e-19)
(1.25665 0.240002 1.19015e-19)
(1.28146 0.243337 -7.31876e-20)
(1.28434 0.238479 2.10404e-19)
(1.27809 0.229598 6.14683e-21)
(1.26909 0.219005 -5.44859e-20)
(1.25999 0.207729 -2.14504e-20)
(1.25163 0.196494 1.04407e-19)
(1.24411 0.185021 9.36611e-20)
(1.23776 0.17338 1.01535e-19)
(0.0566534 -0.00461623 1.78847e-19)
(0.29465 0.00838615 -1.93104e-19)
(0.607852 0.0754377 1.22073e-19)
(0.898178 0.150013 1.73131e-19)
(1.10294 0.207852 1.51103e-19)
(1.2184 0.241324 6.13749e-20)
(1.26959 0.254285 3.33446e-20)
(1.28406 0.254078 -1.33061e-20)
(1.28145 0.246893 -9.67181e-20)
(1.27267 0.23656 3.71574e-20)
(1.26263 0.225006 9.06804e-20)
(1.25314 0.213043 3.75146e-20)
(1.24463 0.201252 -3.63633e-20)
(1.23711 0.189155 -3.87995e-20)
(1.23066 0.177538 -4.84348e-20)
(0.0745362 -0.00421964 -9.62392e-20)
(0.345832 0.0182666 6.97271e-20)
(0.676369 0.0973462 -7.8299e-21)
(0.959811 0.175741 -1.8203e-19)
(1.14498 0.231047 -4.8261e-20)
(1.24067 0.259658 1.08881e-19)
(1.27754 0.268049 -9.86597e-20)
(1.28364 0.264536 6.92252e-21)
(1.2769 0.255234 -6.18978e-21)
(1.26635 0.243557 -3.39638e-20)
(1.25562 0.231069 -5.7149e-20)
(1.24589 0.218406 -8.32699e-20)
(1.23732 0.206012 -3.34006e-20)
(1.22984 0.193311 5.80068e-20)
(1.22329 0.181652 1.44944e-20)
(0.0943199 -0.00264269 -1.23557e-19)
(0.398824 0.031505 -1.58474e-20)
(0.742061 0.121969 -7.9616e-20)
(1.01455 0.202463 7.52916e-20)
(1.17937 0.254101 -8.93741e-20)
(1.25672 0.27748 -3.9456e-20)
(1.28136 0.2814 1.04423e-20)
(1.28082 0.27481 -1.57924e-20)
(1.27103 0.263558 3.25071e-20)
(1.25925 0.250602 4.97138e-22)
(1.24809 0.237183 2.38843e-20)
(1.23823 0.223796 4.19264e-20)
(1.22966 0.210756 4.97505e-20)
(1.22226 0.197471 -2.25606e-20)
(1.21564 0.185699 -1.74484e-20)
(0.115854 0.000331279 7.42353e-20)
(0.452641 0.0481666 7.88648e-20)
(0.803785 0.148936 2.77624e-20)
(1.06218 0.229888 -4.41083e-20)
(1.20665 0.276911 9.89293e-21)
(1.26739 0.294828 6.9188e-20)
(1.28175 0.294426 -4.79848e-20)
(1.27604 0.284967 -4.25142e-20)
(1.26405 0.271887 -1.35055e-20)
(1.25147 0.257686 9.14534e-21)
(1.24006 0.243324 -5.09615e-20)
(1.23017 0.229183 1.12789e-20)
(1.22166 0.215464 3.03811e-20)
(1.21436 0.201613 -1.20582e-20)
(1.20771 0.189652 -1.03981e-20)
(0.138915 0.00489975 -4.8787e-20)
(0.506254 0.0681893 -3.35481e-20)
(0.860646 0.177868 -6.56564e-20)
(1.1027 0.257757 -1.07216e-20)
(1.22741 0.299399 -7.06274e-21)
(1.27338 0.311742 -7.52196e-20)
(1.27928 0.307193 2.41039e-20)
(1.26962 0.295045 1.4761e-20)
(1.2561 0.280222 -2.52476e-20)
(1.24302 0.264787 -1.55656e-20)
(1.23152 0.249461 -6.77096e-22)
(1.22169 0.234536 -1.55936e-20)
(1.21329 0.220111 -2.473e-20)
(1.20614 0.205708 -2.26673e-20)
(1.1995 0.19348 1.64406e-20)
(0.16321 0.011226 -2.24364e-20)
(0.558645 0.0913995 8.23286e-21)
(0.91199 0.208392 1.11783e-20)
(1.13627 0.28584 1.16515e-20)
(1.24226 0.3215 2.00612e-20)
(1.27533 0.32825 1.43202e-20)
(1.27438 0.319741 -4.06017e-21)
(1.26179 0.305052 1.43472e-20)
(1.24726 0.288544 -7.44149e-22)
(1.23394 0.271871 -4.34732e-23)
(1.22247 0.255557 6.21942e-21)
(1.21276 0.239817 -2.92185e-21)
(1.20455 0.224666 2.11056e-21)
(1.1976 0.209716 8.82789e-21)
(1.19105 0.197151 -7.44925e-21)
(0.188384 0.0194263 -1.42856e-20)
(0.608857 0.117532 -3.70389e-21)
(0.95738 0.240142 1.65251e-20)
(1.16314 0.313925 7.27713e-21)
(1.25176 0.343156 2.04163e-20)
(1.27376 0.344368 1.3892e-20)
(1.26739 0.332083 -4.84321e-22)
(1.2527 0.314976 1.68541e-20)
(1.23758 0.296817 -8.49678e-21)
(1.22421 0.278894 9.06739e-22)
(1.21288 0.261567 5.71918e-21)
(1.20338 0.244987 -2.72041e-21)
(1.19542 0.229092 2.6193e-21)
(1.18873 0.213585 9.79272e-21)
(1.18238 0.20063 -3.67752e-21)
(0.214033 0.0295615 -2.06261e-20)
(0.656027 0.146249 -5.85326e-20)
(0.996561 0.272766 -6.59736e-20)
(1.18366 0.341814 -2.43982e-21)
(1.25643 0.364309 -9.80398e-21)
(1.26909 0.360091 -6.86596e-20)
(1.25855 0.344211 3.42221e-20)
(1.24246 0.324783 3.7679e-21)
(1.22707 0.304994 -2.22139e-20)
(1.21383 0.285806 -1.99282e-20)
(1.20274 0.267446 2.94535e-21)
(1.19353 0.250006 -1.19004e-20)
(1.18589 0.233349 -1.31158e-20)
(1.17953 0.217263 -1.86265e-20)
(1.17345 0.20389 1.17945e-20)
(0.239719 0.0416342 7.75349e-20)
(0.699416 0.177161 5.6675e-20)
(1.02943 0.305923 2.38563e-20)
(1.19817 0.369321 -3.40727e-20)
(1.25674 0.384893 1.58691e-20)
(1.26169 0.3754 3.63448e-20)
(1.24805 0.356093 -2.87359e-20)
(1.23113 0.334424 -5.61234e-20)
(1.21577 0.313016 -4.84552e-21)
(1.2028 0.292552 3.285e-20)
(1.19205 0.273147 -3.95461e-20)
(1.1832 0.254834 1.70647e-20)
(1.17594 0.237397 8.02342e-21)
(1.16997 0.220709 1.0666e-21)
(1.16418 0.206912 5.33881e-22)
(0.264986 0.0555894 -9.41609e-20)
(0.738414 0.209839 -5.93275e-20)
(1.056 0.339276 -9.34366e-20)
(1.20707 0.396269 8.23722e-20)
(1.2531 0.404837 -8.7084e-20)
(1.25183 0.390252 -2.08834e-20)
(1.23602 0.367677 -1.76428e-21)
(1.21876 0.343835 1.13464e-21)
(1.20365 0.32082 4.20817e-20)
(1.1911 0.299074 -4.60822e-20)
(1.1808 0.278619 3.71646e-20)
(1.17239 0.259427 1.52438e-20)
(1.16559 0.241207 3.8463e-20)
(1.16004 0.223921 -1.64345e-21)
(1.15442 0.209678 -1.2004e-20)
(0.289378 0.0713197 1.33791e-20)
(0.772553 0.243829 1.72891e-20)
(1.07637 0.372499 -3.22638e-20)
(1.21072 0.422487 -1.25085e-19)
(1.2459 0.424059 -3.11857e-20)
(1.23976 0.404591 8.2107e-20)
(1.22259 0.378899 -6.38899e-20)
(1.20538 0.352942 -3.13833e-20)
(1.19074 0.328334 9.65029e-21)
(1.17874 0.305312 -1.03432e-20)
(1.16898 0.28381 -5.62251e-20)
(1.16109 0.263737 -2.84869e-20)
(1.15484 0.244748 -2.79622e-21)
(1.14975 0.226951 8.36224e-21)
(1.14414 0.212173 6.52184e-21)
(0.31245 0.0886684 1.8099e-19)
(0.801505 0.278672 -2.268e-19)
(1.09071 0.405271 1.53458e-19)
(1.20949 0.447808 7.83302e-20)
(1.23546 0.44247 2.23593e-19)
(1.22566 0.418342 6.1384e-21)
(1.20781 0.389678 5.56836e-20)
(1.191 0.361666 1.56805e-20)
(1.17703 0.335486 -9.81359e-20)
(1.16572 0.3112 3.53185e-20)
(1.15661 0.288665 2.68313e-20)
(1.14933 0.267714 3.89691e-20)
(1.14371 0.247974 -3.79632e-20)
(1.1391 0.22982 -1.00809e-20)
(1.13369 0.214416 -1.13631e-21)
(0.33379 0.107434 -2.41015e-20)
(0.825065 0.31391 2.64714e-19)
(1.09921 0.437282 2.00677e-19)
(1.20375 0.472063 3.39873e-20)
(1.22206 0.459968 -2.09827e-19)
(1.2097 0.43142 -1.26342e-19)
(1.19176 0.399925 4.02015e-20)
(1.17565 0.36992 -2.3793e-20)
(1.16254 0.342196 5.41124e-20)
(1.15205 0.316669 1.23721e-20)
(1.14371 0.293129 1.2125e-20)
(1.13714 0.271314 -2.08885e-20)
(1.13221 0.25086 9.56813e-21)
(1.12805 0.232375 3.78347e-20)
(1.12316 0.216379 3.82921e-20)
(0.353024 0.127376 2.04087e-19)
(0.843131 0.349096 -2.1886e-19)
(1.10214 0.468232 -3.34566e-19)
(1.19384 0.495083 2.51863e-20)
(1.20596 0.476448 1.69597e-19)
(1.19199 0.443729 1.60436e-19)
(1.17447 0.409543 8.01312e-20)
(1.15937 0.37761 6.06276e-21)
(1.1473 0.348387 1.26512e-20)
(1.13777 0.321655 2.70384e-21)
(1.13028 0.297136 3.46778e-20)
(1.12451 0.274497 6.92156e-21)
(1.12031 0.253389 9.2631e-22)
(1.11666 0.234581 -1.10791e-20)
(1.11245 0.217987 -1.39845e-20)
(0.36983 0.148223 -2.6356e-19)
(0.855694 0.383795 2.01925e-19)
(1.09978 0.49783 1.75212e-19)
(1.18007 0.516699 -1.17991e-19)
(1.18738 0.491794 -2.41315e-19)
(1.17264 0.455161 -4.83916e-20)
(1.15602 0.418423 -1.1249e-19)
(1.14222 0.384645 4.4082e-20)
(1.13134 0.353976 -8.50693e-21)
(1.12288 0.326093 -3.27966e-20)
(1.11635 0.30064 -1.37327e-20)
(1.11147 0.277214 -3.38156e-21)
(1.10804 0.255509 -1.36812e-20)
(1.105 0.236387 -4.76481e-21)
(1.10155 0.219217 -3.98462e-21)
(0.38394 0.169677 3.7667e-19)
(0.86282 0.417588 -2.40682e-19)
(1.09243 0.5258 1.27838e-19)
(1.16276 0.536748 1.1937e-19)
(1.16649 0.505882 2.04757e-19)
(1.15178 0.465598 -1.24458e-19)
(1.13655 0.426462 4.52242e-20)
(1.12421 0.390926 4.52968e-20)
(1.11467 0.3589 -3.72167e-20)
(1.10741 0.329918 -7.81355e-21)
(1.10194 0.30358 1.15442e-21)
(1.09803 0.279423 -7.56386e-21)
(1.09544 0.25718 -1.7335e-20)
(1.09307 0.237761 7.96443e-21)
(1.09046 0.22004 -1.03174e-20)
(0.39515 0.191425 -2.08582e-19)
(0.864645 0.450078 1.30456e-20)
(1.0804 0.551884 8.4426e-20)
(1.14219 0.555074 -1.78745e-19)
(1.14349 0.518575 7.04121e-20)
(1.12963 0.474924 1.40258e-20)
(1.11607 0.433548 -5.66786e-20)
(1.10536 0.396382 -2.28664e-20)
(1.09733 0.363066 1.00424e-20)
(1.0914 0.333062 2.61999e-20)
(1.0871 0.305905 2.31647e-20)
(1.08423 0.281081 6.79498e-21)
(1.08253 0.25836 -8.79925e-22)
(1.0809 0.238666 -5.4879e-21)
(1.07921 0.220449 5.25202e-21)
(0.403314 0.213142 3.97002e-20)
(0.86136 0.480885 -2.15923e-19)
(1.06406 0.575841 -2.77622e-19)
(1.11866 0.571535 2.10751e-19)
(1.11866 0.529749 -1.15607e-19)
(1.10621 0.483003 6.26952e-20)
(1.09456 0.439595 3.84387e-20)
(1.08574 0.400904 1.87363e-20)
(1.07937 0.366402 1.95743e-20)
(1.07488 0.335463 -1.73747e-21)
(1.07186 0.307561 -1.12102e-20)
(1.0701 0.282145 -9.49245e-21)
(1.06935 0.259011 -2.7986e-21)
(1.06852 0.239071 7.09323e-22)
(1.06783 0.220429 -1.02537e-20)
(0.40835 0.2345 1.58968e-19)
(0.853217 0.509656 4.05433e-19)
(1.04373 0.597435 -7.05757e-20)
(1.09247 0.585946 -1.32175e-19)
(1.09218 0.539311 2.07728e-19)
(1.08157 0.489718 6.33482e-20)
(1.07218 0.444481 1.3765e-21)
(1.06542 0.404411 -1.81839e-20)
(1.06085 0.368834 3.50037e-21)
(1.05793 0.337058 -7.53713e-21)
(1.05626 0.308498 -7.21889e-22)
(1.0557 0.282575 -6.85907e-22)
(1.05593 0.259096 1.00909e-20)
(1.05596 0.238942 3.68299e-21)
(1.05635 0.219965 1.57944e-20)
(0.410246 0.255176 -7.05903e-20)
(0.84055 0.536085 1.55159e-19)
(1.01972 0.616426 1.32878e-19)
(1.06386 0.598156 -6.15452e-20)
(1.06416 0.547109 -3.40409e-20)
(1.05588 0.494985 -4.90261e-20)
(1.04899 0.448113 -6.08785e-22)
(1.04446 0.406816 -1.30361e-20)
(1.04183 0.370294 3.28168e-21)
(1.04058 0.33779 -7.31615e-21)
(1.04037 0.308669 1.32876e-20)
(1.04106 0.28233 -8.45582e-21)
(1.04232 0.258581 -2.23238e-20)
(1.04325 0.238242 3.39574e-20)
(1.0448 0.219034 -2.37274e-20)
(0.409071 0.274845 -1.40469e-19)
(0.823761 0.559965 -5.15312e-19)
(0.992192 0.632543 1.7336e-20)
(1.03315 0.608006 -7.39753e-20)
(1.03482 0.553026 -1.28644e-19)
(1.02926 0.498692 3.92917e-20)
(1.0251 0.450398 -2.06818e-20)
(1.02296 0.408046 -3.38393e-21)
(1.02238 0.370719 -6.00332e-21)
(1.0229 0.337606 1.70362e-20)
(1.02424 0.308029 -8.98713e-21)
(1.02624 0.281375 -7.25919e-21)
(1.02857 0.25743 -3.96247e-21)
(1.03043 0.23693 -9.85764e-21)
(1.03319 0.217616 9.80896e-21)
(0.404968 0.293155 1.23991e-20)
(0.803154 0.581124 2.71332e-19)
(0.961493 0.645647 1.15044e-19)
(1.00063 0.615278 6.13302e-20)
(1.00434 0.556958 3.80207e-20)
(1.00185 0.500748 8.38458e-21)
(1.00061 0.451256 -8.45948e-22)
(1.00099 0.408029 2.11626e-20)
(1.00258 0.370049 5.32427e-20)
(1.00497 0.336457 -5.80253e-20)
(1.00793 0.30654 -7.89953e-21)
(1.0113 0.279681 6.61503e-21)
(1.01471 0.255618 5.36112e-20)
(1.01755 0.23497 1.71652e-20)
(1.02158 0.215703 -5.04017e-20)
(0.398081 0.309754 8.22074e-20)
(0.778734 0.5991 -2.79969e-19)
(0.928355 0.655878 -2.96647e-20)
(0.966635 0.619854 -4.82861e-20)
(0.972915 0.558786 2.02316e-21)
(0.973786 0.501063 -1.65657e-20)
(0.975627 0.450611 -7.22332e-22)
(0.978659 0.406703 -3.94594e-20)
(0.982506 0.368232 -2.61887e-20)
(0.986851 0.334296 4.23503e-20)
(0.991503 0.304162 -3.58082e-20)
(0.996279 0.277219 4.96727e-20)
(1.0008 0.253126 -4.50681e-20)
(1.00472 0.232342 1.48402e-20)
(1.01019 0.213276 4.8066e-20)
(0.388474 0.324462 -2.16593e-19)
(0.750736 0.613417 3.22624e-19)
(0.893198 0.663 -3.56927e-21)
(0.931404 0.621785 -1.26451e-20)
(0.94074 0.558434 -6.23203e-21)
(0.945211 0.49956 5.66432e-21)
(0.950276 0.4484 4.07661e-20)
(0.956054 0.404013 6.06047e-20)
(0.962246 0.365221 -1.30543e-19)
(0.968619 0.331085 3.96409e-20)
(0.975021 0.30086 9.25146e-21)
(0.981232 0.273949 -7.04332e-20)
(0.986929 0.249921 5.79221e-20)
(0.992191 0.229041 -1.86427e-20)
(0.999409 0.210352 2.40287e-20)
(0.376298 0.33708 2.64455e-19)
(0.719904 0.624085 -2.18136e-19)
(0.856267 0.66677 -2.8425e-20)
(0.895195 0.620999 1.53074e-20)
(0.908007 0.555838 -1.03985e-20)
(0.916273 0.49617 4.7905e-20)
(0.924677 0.444566 -6.63252e-20)
(0.933284 0.399914 6.05216e-20)
(0.94189 0.360979 8.17013e-20)
(0.950346 0.32679 -1.21344e-19)
(0.95853 0.296598 3.5342e-20)
(0.966198 0.269818 -1.73204e-20)
(0.97322 0.245908 -4.13945e-21)
(0.980244 0.224976 -6.32916e-20)
(0.989306 0.207134 -3.30681e-20)
(0.361748 0.34733 -8.2552e-20)
(0.686708 0.63095 5.81558e-20)
(0.817893 0.667075 2.15592e-20)
(0.858267 0.617429 1.88301e-20)
(0.874913 0.550943 6.91744e-20)
(0.887128 0.49084 -6.82718e-20)
(0.898958 0.439066 9.85782e-20)
(0.910458 0.394371 -7.96533e-20)
(0.921532 0.355476 9.71224e-20)
(0.932108 0.321391 1.06114e-19)
(0.942082 0.291361 -2.00304e-20)