/*--------------------------------*- C++ -*----------------------------------*\
  =========                 |
  \\      /  F ield         | OpenFOAM: The Open Source CFD Toolbox
   \\    /   O peration     | Website:  https://openfoam.org
    \\  /    A nd           | Version:  7
     \\/     M anipulation  |
\*---------------------------------------------------------------------------*/
FoamFile
{
    version     2.0;
    format      ascii;
    class       volVectorField;
    location    "40";
    object      U;
}
// * * * * * * * * * * * * * * * * * * * * * * * * * * * * * * * * * * * * * //

dimensions      [0 1 -1 0 0 0 0];

internalField   nonuniform List<vector> 
1360
(
(0.0888706 -0.0440509 -6.37171e-20)
(0.151029 -0.0505834 8.30405e-20)
(0.216591 -0.053364 -5.40833e-20)
(0.281835 -0.0535246 9.68247e-21)
(0.344517 -0.0519717 -5.55929e-20)
(0.403309 -0.0494027 1.10429e-20)
(0.457602 -0.0463209 8.65798e-20)
(0.507277 -0.0430661 -2.25984e-19)
(0.552498 -0.0398499 -2.6092e-20)
(0.593574 -0.0367907 4.91351e-20)
(0.630875 -0.0339446 9.39411e-20)
(0.664775 -0.0313286 -9.91961e-21)
(0.695629 -0.0289386 -8.86991e-20)
(0.723757 -0.0267599 7.56835e-20)
(0.74945 -0.0247745 -1.13029e-19)
(0.772966 -0.0229614 8.68326e-20)
(0.794525 -0.0212972 9.01899e-20)
(0.814268 -0.0197721 -1.06593e-19)
(0.104629 -0.130057 -4.07382e-19)
(0.168662 -0.149532 -1.94884e-19)
(0.234793 -0.157934 -2.10016e-19)
(0.299757 -0.158572 4.21976e-19)
(0.361647 -0.154109 1.14716e-19)
(0.419374 -0.146602 -9.52244e-20)
(0.472492 -0.137541 4.07819e-19)
(0.520985 -0.127939 -2.61281e-20)
(0.565072 -0.11843 -4.07248e-19)
(0.605095 -0.109371 5.69952e-20)
(0.641431 -0.100933 7.2608e-20)
(0.674456 -0.0931707 7.7373e-22)
(0.704516 -0.0860746 -7.85087e-20)
(0.731925 -0.0796033 -2.07402e-19)
(0.756967 -0.073703 -6.99934e-20)
(0.779907 -0.0683106 7.59154e-21)
(0.800944 -0.0633586 3.7441e-19)
(0.820097 -0.0588346 2.42732e-19)
(0.135142 -0.209895 3.36764e-19)
(0.202897 -0.24194 3.52969e-19)
(0.270222 -0.256128 -3.3883e-19)
(0.334724 -0.257699 -3.66517e-19)
(0.395137 -0.2509 -1.17815e-19)
(0.45084 -0.239042 1.87411e-19)
(0.501702 -0.22455 1.41933e-20)
(0.547906 -0.209083 -2.4109e-19)
(0.589793 -0.193693 2.11643e-19)
(0.627761 -0.178984 -1.54074e-19)
(0.662213 -0.165252 6.02438e-20)
(0.693526 -0.152599 -5.61939e-19)
(0.722035 -0.141016 8.10601e-19)
(0.748037 -0.130443 1.98328e-19)
(0.771807 -0.120794 -7.32465e-19)
(0.793616 -0.111961 6.50049e-19)
(0.813633 -0.103839 1.39662e-21)
(0.831641 -0.0964639 1.07709e-19)
(0.251719 -0.323821 9.25399e-20)
(0.320971 -0.344028 3.95659e-20)
(0.385014 -0.347238 -5.88526e-20)
(0.443478 -0.339016 -3.80138e-19)
(0.496399 -0.323754 4.4944e-19)
(0.544102 -0.304714 4.76064e-21)
(0.587067 -0.284164 7.40115e-19)
(0.625813 -0.263567 9.2159e-20)
(0.660834 -0.243781 -1.04817e-19)
(0.692575 -0.225241 -3.91909e-19)
(0.721418 -0.208112 2.09566e-19)
(0.747688 -0.192401 -6.62902e-19)
(0.771658 -0.178037 9.29791e-19)
(0.793588 -0.164907 -1.12538e-18)
(0.813762 -0.152858 7.75734e-19)
(0.832308 -0.141754 -4.82419e-19)
(0.848687 -0.131753 -2.27521e-19)
(0.384278 -0.418196 1.42718e-19)
(0.448124 -0.423936 -7.83025e-19)
(0.504465 -0.415475 1.2944e-18)
(0.55414 -0.398058 -1.02915e-18)
(0.598046 -0.375653 -4.66544e-19)
(0.637046 -0.351074 9.76383e-19)
(0.671899 -0.326181 -2.36737e-19)
(0.703238 -0.302093 -8.80245e-20)
(0.73157 -0.279403 -1.10435e-18)
(0.757301 -0.258359 1.18517e-18)
(0.780744 -0.239001 3.299e-19)
(0.80215 -0.221263 -9.15516e-19)
(0.82176 -0.20501 7.56743e-19)
(0.839873 -0.190041 -5.15984e-19)
(0.856575 -0.176194 -4.56401e-19)
(0.870946 -0.163838 1.51821e-18)
(0.456648 -0.475845 -3.81492e-19)
(0.520862 -0.485089 1.03817e-18)
(0.575275 -0.477759 -9.18338e-19)
(0.621609 -0.459669 8.44747e-19)
(0.661417 -0.435324 -8.47482e-19)
(0.696018 -0.408003 7.85837e-19)
(0.726474 -0.379932 -4.37418e-19)
(0.753601 -0.3525 1.08009e-18)
(0.778006 -0.326476 -1.33136e-18)
(0.800133 -0.302214 -1.19288e-19)
(0.820301 -0.279808 3.16362e-19)
(0.838738 -0.259214 6.66462e-19)
(0.855671 -0.240291 3.88555e-20)
(0.871416 -0.22278 -7.59152e-19)
(0.886035 -0.206486 -3.93256e-19)
(0.898171 -0.192066 8.13987e-19)
(0.599467 -0.528671 -2.59408e-19)
(0.652551 -0.523917 2.82997e-20)
(0.695874 -0.506776 2.83375e-20)
(0.731676 -0.482088 3.91252e-19)
(0.761791 -0.453488 6.72447e-20)
(0.787636 -0.423526 1.27178e-19)
(0.810263 -0.393854 7.09875e-19)
(0.830418 -0.365439 -6.61843e-19)
(0.848618 -0.338764 5.92531e-19)
(0.865209 -0.314002 -3.76135e-19)
(0.88041 -0.291151 3.33924e-19)
(0.894429 -0.270076 -6.07842e-19)
(0.907626 -0.250444 4.69399e-19)
(0.920122 -0.231963 -1.74124e-19)
(0.930111 -0.21561 -8.61212e-19)
(0.773629 -0.538109 -4.27345e-19)
(0.805965 -0.514765 -3.2125e-19)
(0.831908 -0.486467 2.97868e-19)
(0.853282 -0.456027 -3.07135e-19)
(0.871424 -0.425346 7.69997e-19)
(0.887272 -0.395599 4.62802e-19)
(0.901459 -0.367423 -9.90886e-19)
(0.914396 -0.341096 3.96143e-19)
(0.926326 -0.316673 2.76858e-19)
(0.937444 -0.29403 -3.59155e-19)
(0.948159 -0.272766 -8.17995e-19)
(0.958947 -0.252531 4.7485e-19)
(0.968025 -0.234908 1.47106e-19)
(0.903573 -0.506304 -3.49655e-19)
(0.920936 -0.476885 -4.6942e-19)
(0.934841 -0.446534 5.90924e-19)
(0.946454 -0.416646 3.87888e-20)
(0.956561 -0.388053 -1.5185e-19)
(0.965667 -0.361186 -4.7384e-20)
(0.974092 -0.336214 7.07577e-20)
(0.982028 -0.313152 -1.49239e-19)
(0.989624 -0.292019 1.1894e-19)
(0.99717 -0.273041 5.51672e-19)
(1.00553 -0.255879 -5.1691e-19)
(0.998464 -0.456919 -8.55825e-20)
(1.00627 -0.42794 -1.57509e-19)
(1.01257 -0.39976 -2.66712e-19)
(1.01799 -0.372959 2.14471e-19)
(1.02295 -0.347802 9.35084e-21)
(1.02764 -0.324395 4.71794e-20)
(1.03207 -0.302917 3.55012e-19)
(1.03623 -0.283508 -2.6355e-19)
(1.04128 -0.264548 9.01333e-20)
(1.07019 -0.377017 -1.13352e-19)
(1.07197 -0.352413 -9.55002e-20)
(1.07363 -0.329312 2.1329e-19)
(1.07516 -0.307978 1.6705e-19)
(1.07639 -0.288568 -1.62587e-19)
(1.07824 -0.269282 -4.32084e-20)
(1.11745 -0.307518 -3.21892e-20)
(1.11607 -0.288485 2.2434e-20)
(1.11505 -0.269516 1.3237e-19)
(0.831037 -0.0185207 1.4486e-19)
(0.84582 -0.0169371 -6.10774e-20)
(0.859282 -0.0153779 5.32228e-20)
(0.871526 -0.0139506 -6.93058e-20)
(0.882673 -0.0126711 6.13243e-20)
(0.892838 -0.0115296 -6.63516e-20)
(0.902125 -0.0105108 -3.19253e-20)
(0.910626 -0.00959908 4.70472e-20)
(0.918421 -0.00878099 -1.84753e-21)
(0.925579 -0.00804467 2.16717e-20)
(0.932163 -0.00737998 3.66984e-20)
(0.938225 -0.00677819 -2.41099e-20)
(0.943813 -0.00623177 -4.98893e-20)
(0.94897 -0.00573424 5.37128e-20)
(0.953731 -0.00527995 -5.119e-20)
(0.958131 -0.00486403 5.43417e-20)
(0.962197 -0.0044822 1.66321e-20)
(0.965957 -0.00413074 3.10556e-21)
(0.969432 -0.00380638 -6.02482e-20)
(0.972646 -0.00350625 -1.56463e-20)
(0.975615 -0.00322797 -4.04099e-21)
(0.97836 -0.00296982 3.88617e-20)
(0.980894 -0.00273011 -1.38891e-20)
(0.983225 -0.00250462 -1.95025e-20)
(0.985366 -0.00229265 4.61286e-20)
(0.987329 -0.00209322 -1.71672e-20)
(0.989123 -0.00190509 -2.71369e-20)
(0.990759 -0.00172705 3.73843e-20)
(0.992243 -0.00155803 -9.93871e-22)
(0.993582 -0.00139704 -3.45127e-20)
(0.994782 -0.00124319 1.58458e-20)
(0.995849 -0.00109566 1.0203e-20)
(0.996787 -0.000953678 5.08521e-22)
(0.9976 -0.000816539 -2.49688e-22)
(0.998291 -0.000683574 -5.5151e-21)
(0.998863 -0.00055415 -2.50274e-22)
(0.99932 -0.000427675 3.43844e-21)
(0.99966 -0.000303597 -6.84565e-21)
(0.999881 -0.00018136 3.41748e-21)
(0.999985 -6.02908e-05 -5.21792e-22)
(0.836117 -0.0551579 -2.48898e-19)
(0.850238 -0.0504704 -1.17164e-19)
(0.863092 -0.0458505 1.16938e-19)
(0.874808 -0.0416153 -1.96457e-19)
(0.885503 -0.0378148 3.02475e-19)
(0.895283 -0.0344212 1.91447e-19)
(0.904242 -0.0313894 -2.75377e-19)
(0.912462 -0.0286749 1.93e-20)
(0.920015 -0.0262375 6.25307e-20)
(0.926966 -0.0240426 -6.86576e-20)
(0.93337 -0.0220602 1.603e-19)
(0.939277 -0.0202648 -2.17852e-19)
(0.944731 -0.0186339 2.55527e-19)
(0.94977 -0.0171484 -2.92324e-19)
(0.954429 -0.0157917 1.82371e-19)
(0.958739 -0.0145492 -1.36308e-20)
(0.962726 -0.0134082 -8.32533e-20)
(0.966417 -0.0123576 1.27726e-20)
(0.969832 -0.0113878 3.86587e-20)
(0.972991 -0.0104901 -4.12939e-20)
(0.975911 -0.00965697 7.18537e-20)
(0.97861 -0.00888238 5.15864e-21)
(0.981108 -0.00816188 1.7895e-20)
(0.983411 -0.00749102 -6.37574e-20)
(0.985524 -0.00685941 1.14436e-19)
(0.987462 -0.00626407 -1.87355e-19)
(0.989234 -0.00570174 7.32536e-20)
(0.99085 -0.00516937 -2.76326e-20)
(0.992317 -0.00466384 3.54376e-20)
(0.993641 -0.00418227 -2.00351e-20)
(0.994828 -0.00372199 4.81708e-20)
(0.995884 -0.00328054 -4.72878e-20)
(0.996813 -0.00285567 2.15272e-20)
(0.997618 -0.00244523 1.55893e-21)
(0.998302 -0.00204723 1.8196e-20)
(0.99887 -0.00165977 -1.02751e-20)
(0.999322 -0.00128109 -1.03592e-20)
(0.99966 -0.000909508 1.46983e-20)
(0.99988 -0.000543362 -9.02597e-21)
(0.999984 -0.00018064 -2.372e-21)
(0.846209 -0.0905881 -3.37608e-21)
(0.859022 -0.0829856 -5.52977e-19)
(0.870672 -0.0754771 -1.44689e-19)
(0.881343 -0.0685751 2.98506e-19)
(0.891142 -0.0623671 -7.51036e-19)
(0.900157 -0.0568131 1.83735e-19)
(0.908462 -0.0518432 1.80406e-19)
(0.916123 -0.0473869 3.00832e-20)
(0.923197 -0.0433807 2.54661e-19)
(0.929734 -0.0397691 7.9669e-20)
(0.935781 -0.0365042 -4.52427e-19)
(0.941379 -0.0335445 1.55153e-19)
(0.946564 -0.0308542 1.75004e-19)
(0.951369 -0.0284022 2.59637e-21)
(0.955824 -0.0261614 7.30519e-20)
(0.959955 -0.0241082 -1.94447e-19)
(0.963787 -0.022222 -1.31679e-20)
(0.96734 -0.0204847 5.29856e-20)
(0.970634 -0.0188803 -1.81297e-19)
(0.973688 -0.0173948 6.98544e-20)
(0.976514 -0.0160156 1.40549e-19)
(0.979127 -0.0147319 8.07216e-20)
(0.981538 -0.013535 -1.53849e-19)
(0.983771 -0.0124188 -7.37473e-20)
(0.985835 -0.0113751 9.58056e-20)
(0.987726 -0.0103924 -2.66378e-20)
(0.989456 -0.00946031 3.33625e-20)
(0.991033 -0.0085777 9.93219e-20)
(0.992466 -0.00773956 -1.19568e-19)
(0.99376 -0.00694113 -6.28424e-20)
(0.994922 -0.00617798 8.3175e-20)
(0.995955 -0.00544598 -1.77221e-20)
(0.996865 -0.00474135 8.36024e-20)
(0.997654 -0.00406053 -7.10385e-20)
(0.998326 -0.00340018 -3.71491e-20)
(0.998884 -0.00275717 4.91431e-20)
(0.999328 -0.00212851 2.49029e-20)
(0.999661 -0.00151144 -1.16558e-20)
(0.999878 -0.000903129 -6.4558e-21)
(0.999983 -0.000300266 -2.97098e-21)
(0.861186 -0.124031 3.03016e-19)
(0.872079 -0.113822 4.74481e-19)
(0.881955 -0.103709 -5.71307e-19)
(0.89108 -0.0943715 1.03064e-19)
(0.899551 -0.0859426 4.51536e-19)
(0.907431 -0.0783789 -1.59339e-19)
(0.914766 -0.0715935 -2.87523e-19)
(0.921596 -0.065496 9.86633e-20)
(0.927955 -0.0600039 -7.13979e-20)
(0.933877 -0.0550445 3.61738e-19)
(0.939392 -0.0505547 6.41721e-20)
(0.944528 -0.0464794 1.45994e-19)
(0.949313 -0.0427708 -7.40874e-19)
(0.953769 -0.0393874 -3.97156e-20)
(0.957919 -0.0362928 5.23867e-19)
(0.961783 -0.0334552 -5.71861e-19)
(0.965381 -0.0308467 4.89089e-19)
(0.968728 -0.0284429 -1.3338e-19)
(0.971841 -0.0262221 9.45793e-20)
(0.974734 -0.024165 -4.23804e-20)
(0.977421 -0.0222548 8.80455e-20)
(0.979911 -0.0204762 -1.19777e-19)
(0.982213 -0.0188153 1.06833e-20)
(0.984334 -0.0172599 2.19314e-19)
(0.986298 -0.0158028 -6.39135e-20)
(0.988123 -0.0144325 8.33862e-20)
(0.989796 -0.0131445 -2.83718e-19)
(0.991314 -0.0119249 2.30263e-19)
(0.992695 -0.0107628 -2.18758e-19)
(0.993944 -0.00965451 3.44149e-20)
(0.995066 -0.00859491 7.80728e-20)
(0.996066 -0.00757819 1.63835e-21)
(0.996947 -0.00659915 -4.78231e-20)
(0.997712 -0.00565288 -6.11825e-21)
(0.998364 -0.00473475 3.96319e-20)
(0.998906 -0.00384035 6.2991e-22)
(0.999339 -0.00296554 -6.39797e-21)
(0.999663 -0.00210641 -6.8169e-21)
(0.999876 -0.00125895 1.43431e-20)
(0.999981 -0.00041861 -5.38095e-21)
(0.880894 -0.154717 -1.7323e-19)
(0.889307 -0.142321 -7.54479e-19)
(0.896871 -0.129993 -5.79163e-19)
(0.903975 -0.118543 3.4862e-19)
(0.910704 -0.108155 -1.31802e-20)
(0.917091 -0.0987947 -2.512e-19)
(0.923146 -0.0903684 4.01034e-19)
(0.928877 -0.0827733 -2.50903e-19)
(0.934291 -0.0759139 4.63511e-21)
(0.939397 -0.069705 6.66317e-19)
(0.944207 -0.064072 -3.39457e-19)
(0.948733 -0.0589493 -3.88088e-19)
(0.952985 -0.0542797 2.199e-19)
(0.956978 -0.0500132 1.48884e-19)
(0.960723 -0.0461059 2.7038e-19)
(0.964233 -0.0425189 -3.52937e-19)
(0.967519 -0.0392185 -1.23943e-19)
(0.970593 -0.0361744 6.16246e-19)
(0.973465 -0.03336 -3.8116e-19)
(0.976145 -0.0307517 -2.76548e-19)
(0.978643 -0.0283285 2.48313e-19)
(0.980968 -0.0260717 -2.31344e-19)
(0.983127 -0.0239639 1.32923e-19)
(0.985127 -0.0219888 1.19325e-19)
(0.986973 -0.0201316 -1.7498e-19)
(0.988668 -0.0183862 9.57015e-20)
(0.990233 -0.0167427 1.88071e-19)
(0.991684 -0.015185 -3.22709e-19)
(0.993005 -0.0137085 2.94819e-19)
(0.994195 -0.0123024 -2.42437e-19)
(0.995265 -0.0109567 2.06763e-19)
(0.996219 -0.00966343 -7.23048e-20)
(0.997061 -0.00841722 -1.85698e-20)
(0.997793 -0.00721229 -2.1549e-20)
(0.998418 -0.00604271 7.62501e-20)
(0.998938 -0.00490277 -5.74188e-20)
(0.999355 -0.00378717 -1.90087e-20)
(0.999668 -0.00269089 1.81293e-20)
(0.999875 -0.00160873 1.20828e-20)
(0.99998 -0.00053497 -8.98599e-21)
(0.905212 -0.182037 -5.58333e-19)
(0.910629 -0.167969 1.86058e-19)
(0.915377 -0.153921 4.55321e-19)
(0.920005 -0.140762 -6.51948e-20)
(0.924592 -0.12874 5.71848e-20)
(0.929135 -0.117844 1.55927e-19)
(0.933608 -0.107985 2.39447e-19)
(0.93798 -0.0990597 -3.55255e-19)
(0.942224 -0.0909677 -1.93627e-19)
(0.94632 -0.0836188 -2.57123e-19)
(0.950256 -0.0769325 5.68952e-19)
(0.954023 -0.070837 -3.0666e-19)
(0.957615 -0.0652692 1.79877e-19)
(0.961032 -0.060173 -5.86691e-19)
(0.964272 -0.0554987 6.12382e-19)
(0.96734 -0.0512024 -1.84476e-19)
(0.970236 -0.047245 2.16425e-19)
(0.972967 -0.0435918 -6.83408e-20)
(0.975535 -0.040212 7.47271e-20)
(0.977947 -0.0370779 -2.582e-19)
(0.980208 -0.034165 -1.66903e-19)
(0.982322 -0.0314511 -1.5168e-19)
(0.984294 -0.0289163 1.33073e-19)
(0.98613 -0.0265426 2.48999e-19)
(0.987834 -0.0243133 -1.49117e-19)
(0.989409 -0.0222124 3.32393e-19)
(0.99086 -0.0202243 -3.2654e-19)
(0.992188 -0.0183439 -2.69614e-21)
(0.993404 -0.0165615 -1.89256e-20)
(0.994516 -0.0148621 6.92487e-20)
(0.995523 -0.0132365 -1.06268e-19)
(0.996422 -0.0116774 1.12879e-19)
(0.997214 -0.0101756 -3.14608e-21)
(0.997903 -0.00872262 1.95066e-20)
(0.998493 -0.00731113 1.05871e-20)
(0.998985 -0.0059341 4.9527e-20)
(0.99938 -0.0045855 -9.29625e-20)
(0.999677 -0.00325934 4.26768e-20)
(0.999877 -0.00194917 -2.80738e-20)
(0.999979 -0.000648206 1.57407e-20)
(0.93415 -0.204992 1.66575e-18)
(0.936094 -0.189698 -8.53368e-19)
(0.937551 -0.174385 -8.17467e-20)
(0.93928 -0.159926 -9.99545e-19)
(0.94135 -0.146642 9.84119e-19)
(0.943719 -0.134547 4.7181e-19)
(0.946318 -0.123556 -1.62986e-18)
(0.949073 -0.113565 1.76006e-18)
(0.951918 -0.104475 -1.56209e-19)
(0.954802 -0.0961906 -1.44113e-18)
(0.957684 -0.0886287 7.13849e-19)
(0.960533 -0.0817142 6.249e-19)
(0.963324 -0.0753804 -2.69185e-19)
(0.966038 -0.0695679 -1.38178e-19)
(0.968664 -0.0642241 2.11298e-19)
(0.97119 -0.0593017 4.82132e-20)
(0.97361 -0.0547587 -2.37229e-20)
(0.97592 -0.0505576 -3.40429e-20)
(0.978116 -0.0466647 -5.66566e-19)
(0.980199 -0.0430499 4.36191e-19)
(0.982166 -0.0396859 4.51542e-20)
(0.98402 -0.0365484 -1.88984e-19)
(0.985761 -0.0336153 -1.31936e-19)
(0.987391 -0.0308665 1.81036e-20)
(0.988912 -0.0282841 1.35649e-19)
(0.990326 -0.0258509 -6.99082e-20)
(0.991635 -0.0235517 1.02754e-19)
(0.992841 -0.0213723 7.92218e-20)
(0.993946 -0.019298 -1.04775e-19)
(0.994955 -0.01732 -1.36306e-19)
(0.995866 -0.0154291 1.90628e-19)
(0.996683 -0.0136151 -1.3181e-19)
(0.997409 -0.0118669 9.57892e-21)
(0.998046 -0.010175 1.63032e-19)
(0.998592 -0.00853124 -2.54192e-20)
(0.999048 -0.00692783 5.12376e-20)
(0.999414 -0.00535661 -1.11584e-19)
(0.999692 -0.00380964 2.17907e-20)
(0.999881 -0.00227932 1.12938e-20)
(0.99998 -0.000758124 3.04056e-21)
(0.968968 -0.224781 2.94563e-19)
(0.966608 -0.209506 2.24827e-19)
(0.964019 -0.193897 -9.15133e-20)
(0.962213 -0.1789 1.81596e-19)
(0.961236 -0.164907 1.18694e-19)
(0.960997 -0.151975 -1.54501e-18)
(0.961363 -0.140066 5.71811e-19)
(0.962202 -0.129116 -2.5454e-19)
(0.963398 -0.119055 -4.53933e-19)
(0.964859 -0.109812 1.44509e-18)
(0.966507 -0.101317 -3.81255e-19)
(0.968283 -0.0935074 -1.0176e-18)
(0.970139 -0.086321 8.70118e-19)
(0.972035 -0.0797023 -2.22836e-19)
(0.973942 -0.0735996 4.77115e-19)
(0.975835 -0.0679657 -2.24098e-19)
(0.977697 -0.0627573 -4.39074e-19)
(0.979513 -0.0579349 3.72221e-19)
(0.981271 -0.0534626 2.13133e-19)
(0.982963 -0.0493077 4.3613e-20)
(0.984584 -0.0454403 6.07902e-20)
(0.986128 -0.0418333 -6.72826e-20)
(0.987592 -0.0384619 -4.75898e-19)
(0.988975 -0.0353037 1.19741e-19)
(0.990275 -0.0323378 5.26373e-19)
(0.991492 -0.0295455 3.49019e-20)
(0.992624 -0.0269093 -5.48589e-19)
(0.993673 -0.0244131 2.38407e-19)
(0.99464 -0.0220417 7.04703e-20)
(0.995524 -0.019782 -1.63826e-19)
(0.996326 -0.0176212 -3.9278e-20)
(0.997047 -0.0155467 -2.04573e-20)
(0.997688 -0.0135483 -1.32512e-19)
(0.99825 -0.0116159 -1.20567e-10)
(0.998733 -0.0097395 1.20088e-10)
(0.999137 -0.00790968 7.26022e-20)
(0.999466 -0.00611648 2.47624e-20)
(0.999717 -0.00435062 -1.07759e-20)
(0.99989 -0.00260354 -7.45094e-21)
(0.999983 -0.000867035 1.52697e-20)
(1.00293 -0.226988 -2.46463e-27)
(0.99641 -0.212956 9.54559e-28)
(0.990322 -0.197863 0)
(0.985725 -0.183379 0)
(0.98238 -0.169778 0)
(0.980033 -0.157102 1.34276e-27)
(0.978493 -0.145331 -4.64815e-28)
(0.977601 -0.134428 0)
(0.977228 -0.124342 -1.12472e-27)
(0.977268 -0.11502 -3.75825e-27)
(0.977632 -0.106408 6.83408e-27)
(0.978247 -0.0984518 0)
(0.979056 -0.091099 -1.1374e-27)
(0.980007 -0.0843001 0)
(0.981062 -0.0780084 5.03742e-27)
(0.982187 -0.0721805 0)
(0.983356 -0.0667758 0)
(0.984545 -0.0617569 0)
(0.985738 -0.0570894 0)
(0.986921 -0.0527416 0)
(0.98808 -0.0486843 0)
(0.989208 -0.0448909 6.57291e-27)
(0.990296 -0.0413369 -6.57307e-27)
(0.991339 -0.0379996 0)
(0.992332 -0.0348583 0)
(0.993271 -0.031894 -1.09472e-27)
(0.994154 -0.029089 -1.4249e-27)
(0.994979 -0.0264269 0)
(0.995743 -0.0238927 0)
(0.996447 -0.0214723 -6.38183e-27)
(0.997088 -0.0191525 7.79189e-27)
(0.997667 -0.0169208 4.78274e-27)
(0.998183 -0.0147658 0)
(0.998636 -0.0126764 -2.35562e-10)
(0.999024 -0.0106421 2.35571e-10)
(0.999349 -0.00865242 0)
(0.999609 -0.0066979 0)
(0.999805 -0.00476927 -4.89829e-29)
(0.999932 -0.00285741 1.44579e-27)
(0.999992 -0.00095345 9.46124e-28)
(1.0244 -0.20323 2.46848e-27)
(1.01716 -0.193112 -9.56765e-28)
(1.01035 -0.181756 0)
(1.0048 -0.170459 0)
(1.00033 -0.159537 0)
(0.996792 -0.149101 9.83511e-27)
(0.994039 -0.139195 -1.07149e-26)
(0.991952 -0.129838 0)
(0.990422 -0.121029 1.12695e-27)
(0.989356 -0.112757 -9.88031e-27)
(0.988674 -0.105003 6.79867e-27)
(0.988307 -0.0977439 0)
(0.988197 -0.0909527 1.13952e-27)
(0.988294 -0.0846018 0)
(0.988556 -0.0786629 -5.04658e-27)
(0.988948 -0.0731079 0)
(0.989438 -0.0679097 0)
(0.990003 -0.0630418 0)
(0.990622 -0.0584791 0)
(0.991275 -0.0541977 0)
(0.991949 -0.0501751 0)
(0.992631 -0.0463901 0)
(0.993311 -0.0428228 0)
(0.99398 -0.0394544 0)
(0.994632 -0.0362675 0)
(0.99526 -0.0332456 1.09641e-27)
(0.995859 -0.0303733 1.42706e-27)
(0.996427 -0.0276362 0)
(0.996959 -0.0250206 0)
(0.997454 -0.0225138 0)
(0.997908 -0.0201036 -1.41182e-27)
(0.99832 -0.0177784 -4.78923e-27)
(0.99869 -0.0155274 0)
(0.999015 -0.0133401 -2.31277e-10)
(0.999295 -0.0112061 2.31277e-10)
(0.999529 -0.00911589 0)
(0.999717 -0.00705987 0)
(0.999858 -0.00502892 -9.09374e-27)
(0.99995 -0.00301385 7.69541e-27)
(0.999994 -0.00100524 -9.46997e-28)
(1.04008 -0.186473 -1.78461e-27)
(1.03275 -0.178339 -2.55781e-27)
(1.02588 -0.169184 3.21247e-27)
(1.02002 -0.159951 0)
(1.01505 -0.150876 0)
(1.01086 -0.142055 3.08411e-27)
(1.00737 -0.133547 -2.25862e-27)
(1.0045 -0.125388 0)
(1.00215 -0.117599 4.01626e-27)
(1.00026 -0.110188 -1.63557e-27)
(0.998772 -0.103158 4.12128e-27)
(0.997618 -0.0965025 0)
(0.996749 -0.0902114 6.55542e-28)
(0.996122 -0.0842713 -1.4296e-27)
(0.995696 -0.0786667 0)
(0.995439 -0.0733808 6.65349e-28)
(0.995319 -0.0683957 0)
(0.995313 -0.0636935 5.75207e-27)
(0.995397 -0.0592562 -5.75207e-27)
(0.995553 -0.0550661 0)
(0.995766 -0.0511059 0)
(0.99602 -0.047359 5.86835e-27)
(0.996305 -0.0438093 -6.53912e-27)
(0.996609 -0.0404413 6.70471e-28)
(0.996925 -0.0372403 7.20281e-28)
(0.997246 -0.0341923 0)
(0.997564 -0.0312839 1.45052e-27)
(0.997875 -0.0285024 7.18794e-28)
(0.998175 -0.0258354 0)
(0.99846 -0.0232714 -4.23957e-27)
(0.998726 -0.0207994 5.01955e-27)
(0.998971 -0.0184085 0)
(0.999194 -0.0160887 6.66322e-28)
(0.999391 -0.01383 -2.26441e-10)
(0.999563 -0.0116229 2.26441e-10)
(0.999708 -0.00945813 -6.65313e-28)
(0.999824 -0.00732664 0)
(0.999912 -0.0052197 -7.1469e-28)
(0.999969 -0.0031284 -1.44098e-27)
(0.999996 -0.00104349 0)
(1.05203 -0.17083 1.7834e-27)
(1.04492 -0.164181 1.50501e-27)
(1.03821 -0.156664 -2.15967e-27)
(1.03229 -0.14902 0)
(1.02709 -0.141422 0)
(1.02255 -0.133949 -9.63139e-11)
(1.0186 -0.126653 9.63139e-11)
(1.01519 -0.119572 0)
(1.01227 -0.112734 -4.01626e-27)
(1.00978 -0.106158 1.63557e-27)
(1.00767 -0.0998541 -4.12128e-27)
(1.0059 -0.093827 0)
(1.00442 -0.0880768 -6.55542e-28)
(1.0032 -0.0825997 5.43661e-27)
(1.0022 -0.0773893 -4.00702e-27)
(1.00139 -0.0724367 -6.65349e-28)
(1.00074 -0.0677319 0)
(1.00023 -0.0632634 0)
(0.999844 -0.0590192 0)
(0.999555 -0.0549871 0)
(0.999349 -0.0511544 0)
(0.999212 -0.0475085 -4.87662e-27)
(0.999133 -0.0440371 5.54738e-27)
(0.999099 -0.0407277 -6.70471e-28)
(0.999102 -0.0375686 -7.20281e-28)
(0.999134 -0.0345479 0)
(0.999188 -0.0316545 -1.45052e-27)
(0.999256 -0.0288774 -7.18794e-28)
(0.999336 -0.0262059 0)
(0.999421 -0.0236298 4.87086e-27)
(0.999508 -0.0211392 -5.65084e-27)
(0.999594 -0.0187245 0)
(0.999676 -0.0163763 -6.66322e-28)
(0.999752 -0.0140856 -1.10743e-10)
(0.99982 -0.0118435 1.10743e-10)
(0.999879 -0.00964136 6.65313e-28)
(0.999927 -0.00747078 0)
(0.999963 -0.00532343 -6.48718e-28)
(0.999987 -0.00319089 2.80439e-27)
(0.999999 -0.00106432 0)
(1.06117 -0.15581 0)
(1.05431 -0.150357 -3.55603e-11)
(1.04782 -0.144162 -3.75388e-11)
(1.04197 -0.137818 0)
(1.0367 -0.131455 0)
(1.03198 -0.125133 -8.92983e-11)
(1.02777 -0.118899 8.92983e-11)
(1.02403 -0.112787 0)
(1.02072 -0.106827 0)
(1.01781 -0.101039 0)
(1.01525 -0.0954395 0)
(1.01302 -0.090038 0)
(1.01107 -0.0848408 9.07504e-28)
(1.00938 -0.0798504 -6.76373e-29)
(1.00791 -0.0750663 1.2666e-27)
(1.00665 -0.0704859 0)
(1.00557 -0.0661044 0)
(1.00464 -0.0619158 -6.01759e-27)
(1.00384 -0.057913 6.01759e-27)
(1.00317 -0.0540878 0)
(1.0026 -0.0504318 0)
(1.00212 -0.0469359 0)
(1.00172 -0.043591 0)
(1.00138 -0.0403876 0)
(1.0011 -0.0373164 0)
(1.00087 -0.034368 0)
(1.00069 -0.0315331 0)
(1.00053 -0.0288027 0)
(1.00041 -0.0261677 0)
(1.00031 -0.0236192 0)
(1.00023 -0.0211487 0)
(1.00017 -0.0187476 0)
(1.00012 -0.0164077 0)
(1.00009 -0.0141207 -6.16776e-27)
(1.00006 -0.0118787 6.16776e-27)
(1.00004 -0.00967362 0)
(1.00002 -0.00749785 0)
(1.00001 -0.00534367 0)
(1 -0.00320325 0)
(1 -0.00106837 0)
(1.06802 -0.141645 0)
(1.06143 -0.137164 3.55603e-11)
(1.05519 -0.132037 3.75388e-11)
(1.04948 -0.12675 0)
(1.04425 -0.121405 0)
(1.03947 -0.116051 5.01819e-27)
(1.03513 -0.110725 -5.01819e-27)
(1.0312 -0.10546 0)
(1.02764 -0.100282 0)
(1.02445 -0.0952111 0)
(1.02157 -0.0902654 0)
(1.019 -0.0854574 0)
(1.0167 -0.0807962 -9.07504e-28)
(1.01465 -0.0762879 -1.19897e-27)
(1.01282 -0.071936 0)
(1.0112 -0.0677415 0)
(1.00976 -0.0637038 0)
(1.00849 -0.0598205 0)
(1.00736 -0.056088 0)
(1.00636 -0.0525018 0)
(1.00548 -0.0490564 0)
(1.00471 -0.0457457 -5.55986e-27)
(1.00403 -0.0425633 5.55986e-27)
(1.00343 -0.0395023 0)
(1.0029 -0.0365555 0)
(1.00244 -0.0337157 1.04725e-10)
(1.00204 -0.0309753 -1.04725e-10)
(1.00169 -0.0283271 0)
(1.00139 -0.0257634 0)
(1.00112 -0.023277 0)
(1.0009 -0.0208603 0)
(1.0007 -0.018506 0)
(1.00053 -0.0162068 0)
(1.00039 -0.0139556 -1.05776e-10)
(1.00028 -0.0117451 1.05776e-10)
(1.00018 -0.00956834 0)
(1.00011 -0.00741821 0)
(1.00005 -0.00528778 -7.06933e-27)
(1.00002 -0.00316994 7.06933e-27)
(1 -0.0010572 0)
(1.07299 -0.128277 1.08338e-27)
(1.0667 -0.12459 -3.2845e-27)
(1.06073 -0.120336 2.07254e-27)
(1.0552 -0.11592 0)
(1.05006 -0.111424 0)
(1.04531 -0.106886 1.47274e-27)
(1.04093 -0.10234 -1.47274e-27)
(1.0369 -0.0978112 1.47683e-27)
(1.0332 -0.0933243 -2.20715e-28)
(1.02982 -0.0888991 0)
(1.02674 -0.0845522 0)
(1.02393 -0.0802969 0)
(1.02138 -0.0761438 2.40163e-28)
(1.01906 -0.0721009 5.61151e-28)
(1.01696 -0.0681736 0)
(1.01505 -0.0643656 0)
(1.01334 -0.0606786 0)
(1.01178 -0.057113 -4.55852e-27)
(1.01038 -0.0536677 4.55852e-27)
(1.00912 -0.0503407 2.60606e-28)
(1.00799 -0.0471289 -3.34922e-27)
(1.00696 -0.0440286 4.68244e-27)
(1.00605 -0.0410355 -4.68244e-27)
(1.00523 -0.0381447 0)
(1.00449 -0.0353509 0)
(1.00383 -0.0326488 2.03525e-10)
(1.00324 -0.0300324 -2.03525e-10)
(1.00272 -0.0274959 0)
(1.00226 -0.0250332 0)
(1.00185 -0.0226381 4.80867e-27)
(1.00149 -0.0203045 -4.80867e-27)
(1.00117 -0.018026 3.49524e-27)
(1.0009 -0.0157964 -2.74405e-28)
(1.00067 -0.0136094 -1.03355e-10)
(1.00047 -0.0114588 1.03355e-10)
(1.00031 -0.00933832 0)
(1.00019 -0.00724172 0)
(1.00009 -0.00516281 -4.46851e-27)
(1.00003 -0.0030952 3.83459e-27)
(1 -0.00103222 -2.43914e-28)
(1.07646 -0.115669 -1.08289e-27)
(1.07047 -0.112631 -2.89099e-27)
(1.06478 -0.109097 4.10295e-27)
(1.05945 -0.105404 0)
(1.05445 -0.101619 0)
(1.04977 -0.0977744 -7.38652e-11)
(1.04541 -0.0938964 7.38652e-11)
(1.04135 -0.0900084 -1.47683e-27)
(1.03759 -0.0861312 2.20715e-28)
(1.03411 -0.0822828 0)
(1.03089 -0.0784788 0)
(1.02792 -0.074732 0)
(1.02519 -0.0710534 -2.40163e-28)
(1.02268 -0.0674514 -5.61151e-28)
(1.02038 -0.0639327 0)
(1.01827 -0.0605023 0)
(1.01633 -0.0571635 0)
(1.01456 -0.0539182 0)
(1.01294 -0.0507673 0)
(1.01147 -0.0477103 -2.60606e-28)
(1.01013 -0.0447462 3.34922e-27)
(1.0089 -0.0418728 0)
(1.00779 -0.0390875 0)
(1.00678 -0.0363871 0)
(1.00586 -0.0337681 0)
(1.00504 -0.0312262 9.89548e-11)
(1.00429 -0.0287571 -9.89548e-11)
(1.00362 -0.0263562 0)
(1.00302 -0.0240187 0)
(1.00248 -0.0217395 0)
(1.00201 -0.0195136 0)
(1.00159 -0.0173357 -3.49524e-27)
(1.00122 -0.0152005 2.74405e-28)
(1.00091 -0.0131026 0)
(1.00065 -0.0110367 0)
(1.00043 -0.00899729 0)
(1.00026 -0.00697894 0)
(1.00013 -0.00497622 6.33922e-28)
(1.00004 -0.00298351 0)
(1.00001 -0.000994916 2.43914e-28)
(1.07874 -0.10378 0)
(1.07306 -0.101276 0)
(1.06763 -0.0983377 2.23991e-28)
(1.06251 -0.0952479 0)
(1.05767 -0.0920618 -3.23389e-11)
(1.0531 -0.0888063 -1.03846e-10)
(1.0488 -0.0855032 7.01722e-11)
(1.04477 -0.0821724 1.80686e-27)
(1.04099 -0.0788317 -6.84778e-28)
(1.03747 -0.0754971 0)
(1.03417 -0.0721824 -3.92133e-11)
(1.03111 -0.0688999 -4.01111e-11)
(1.02826 -0.0656598 7.5341e-28)
(1.02562 -0.0624708 3.17396e-27)
(1.02317 -0.0593398 4.24386e-11)
(1.0209 -0.0562723 4.31031e-11)
(1.0188 -0.0532726 -8.04399e-28)
(1.01686 -0.0503436 3.61678e-27)
(1.01508 -0.0474872 0)
(1.01344 -0.0447042 0)
(1.01193 -0.0419947 0)
(1.01054 -0.039358 -4.61306e-11)
(1.00927 -0.0367927 -9.30011e-11)
(1.0081 -0.0342969 -4.68384e-11)
(1.00704 -0.031868 -4.71461e-11)
(1.00607 -0.0295033 -4.74256e-11)
(1.00519 -0.0271995 4.76787e-11)
(1.00439 -0.0249531 9.58136e-11)
(1.00368 -0.0227603 9.62229e-11)
(1.00303 -0.0206172 -4.95745e-11)
(1.00246 -0.0185195 9.78684e-11)
(1.00195 -0.016463 -3.96908e-27)
(1.00151 -0.0144433 8.96445e-28)
(1.00112 -0.0124558 -2.3947e-27)
(1.0008 -0.0104959 4.89103e-11)
(1.00053 -0.00855906 4.89801e-11)
(1.00032 -0.00664051 4.90334e-11)
(1.00016 -0.00473558 4.907e-11)
(1.00006 -0.00283939 -2.79074e-27)
(1.00001 -0.000946811 0)
(1.08012 -0.0925592 0)
(1.07472 -0.0904957 0)
(1.06956 -0.0880525 -2.23991e-28)
(1.06465 -0.0854686 0)
(1.05997 -0.0827896 3.23389e-11)
(1.05553 -0.0800375 3.36741e-11)
(1.05132 -0.0772304 3.49505e-27)
(1.04734 -0.0743851 -1.80686e-27)
(1.04358 -0.0715167 6.84778e-28)
(1.04005 -0.068639 0)
(1.03672 -0.0657645 3.92133e-11)
(1.03361 -0.0629041 4.01111e-11)
(1.03068 -0.0600673 -7.5341e-28)
(1.02795 -0.0572622 0)
(1.0254 -0.0544957 -4.24386e-11)
(1.02302 -0.0517735 -4.31031e-11)
(1.02081 -0.0491001 8.04399e-28)
(1.01875 -0.0464789 -3.61678e-27)
(1.01683 -0.0439125 0)
(1.01506 -0.0414025 0)
(1.01342 -0.0389498 0)
(1.0119 -0.0365546 4.61306e-11)
(1.0105 -0.0342163 9.30011e-11)
(1.00921 -0.031934 4.68384e-11)
(1.00803 -0.0297061 4.71461e-11)
(1.00694 -0.0275308 4.74256e-11)
(1.00595 -0.0254058 -4.76787e-11)
(1.00505 -0.0233284 -9.58136e-11)
(1.00423 -0.0212958 -9.62229e-11)
(1.0035 -0.0193048 -1.43924e-10)
(1.00284 -0.0173522 9.56303e-11)
(1.00226 -0.0154343 3.96908e-27)
(1.00175 -0.0135477 -8.96445e-28)
(1.0013 -0.0116885 -9.66828e-11)
(1.00093 -0.00985293 4.77725e-11)
(1.00062 -0.008037 -4.89801e-11)
(1.00037 -0.00623678 -4.90334e-11)
(1.00018 -0.00444825 -4.907e-11)
(1.00006 -0.00266725 0)
(1.00001 -0.000889369 0)
(1.08082 -0.0819497 -1.21956e-27)
(1.07569 -0.0802507 8.14505e-28)
(1.07076 -0.0782219 5.43527e-28)
(1.06606 -0.076065 -5.24395e-28)
(1.06154 -0.0738176 1.49109e-27)
(1.05724 -0.0714976 0)
(1.05313 -0.0691202 -1.61233e-27)
(1.04922 -0.0666992 0)
(1.04551 -0.0642475 6.3318e-28)
(1.04199 -0.061777 -2.69592e-28)
(1.03867 -0.0592984 6.6927e-28)
(1.03553 -0.0568213 0)
(1.03257 -0.0543543 0)
(1.02979 -0.0519049 -1.31018e-27)
(1.02717 -0.0494796 5.48426e-27)
(1.02471 -0.0470837 -7.42619e-28)
(1.02241 -0.0447218 7.54658e-28)
(1.02026 -0.0423976 -4.25225e-27)
(1.01825 -0.0401138 4.25225e-27)
(1.01638 -0.0378726 -7.86135e-28)
(1.01464 -0.0356752 3.52966e-27)
(1.01302 -0.0335225 1.04926e-27)
(1.01152 -0.0314146 8.11358e-28)
(1.01013 -0.0293511 0)
(1.00885 -0.0273313 -3.66245e-27)
(1.00767 -0.025354 9.16516e-11)
(1.00659 -0.0234176 -9.16516e-11)
(1.0056 -0.0215202 0)
(1.0047 -0.0196597 0)
(1.00389 -0.0178336 -4.68152e-27)
(1.00316 -0.0160394 3.82762e-27)
(1.00252 -0.0142743 0)
(1.00195 -0.0125352 0)
(1.00146 -0.0108193 -1.89455e-10)
(1.00104 -0.00912317 1.89455e-10)
(1.00069 -0.00744367 0)
(1.00041 -0.00577746 -8.67076e-28)
(1.00021 -0.00412114 -2.67981e-27)
(1.00007 -0.00247122 2.67981e-27)
(1.00001 -0.000823975 7.68249e-28)
(1.08102 -0.0718903 1.21924e-27)
(1.07614 -0.070495 9.56073e-28)
(1.07144 -0.0688156 -2.3141e-27)
(1.06692 -0.0670216 5.24395e-28)
(1.06257 -0.0651439 -1.49109e-27)
(1.05839 -0.0631973 -6.21445e-11)
(1.05439 -0.0611941 6.21445e-11)