/*--------------------------------*- C++ -*----------------------------------*\
  =========                 |
  \\      /  F ield         | OpenFOAM: The Open Source CFD Toolbox
   \\    /   O peration     | Website:  https://openfoam.org
    \\  /    A nd           | Version:  7
     \\/     M anipulation  |
\*---------------------------------------------------------------------------*/
FoamFile
{
    version     2.0;
    format      ascii;
    class       volVectorField;
    location    "50";
    object      U;
}
// * * * * * * * * * * * * * * * * * * * * * * * * * * * * * * * * * * * * * //

dimensions      [0 1 -1 0 0 0 0];

internalField   nonuniform List<vector> 
3500
(
(-0.0612873 0.0100503 6.30246e-20)
(-0.0905924 0.00978763 1.09892e-20)
(-0.116916 0.0090558 2.13838e-20)
(-0.140081 0.00817104 -1.23717e-20)
(-0.15982 0.00713535 -2.2937e-20)
(-0.175243 0.00560412 2.22635e-20)
(-0.189073 0.00520184 2.18055e-20)
(-0.194369 0.00212482 1.70257e-20)
(-0.00859645 0.0152069 -7.98961e-20)
(-0.0305911 0.0267329 5.28811e-20)
(-0.0605928 0.029531 -7.19736e-20)
(-0.0876582 0.0287856 3.85664e-21)
(-0.111205 0.0266342 -5.13438e-20)
(-0.131089 0.0240286 6.30865e-21)
(-0.147367 0.0211361 3.29549e-20)
(-0.157286 0.0162269 -1.44921e-19)
(-0.168206 0.0158382 3.57574e-20)
(-0.165185 0.0053985 1.50957e-22)
(-0.0106419 0.0239822 1.48727e-19)
(-0.0324202 0.0425139 -1.31714e-20)
(-0.0592998 0.0471638 1.00006e-19)
(-0.0819884 0.0460346 -9.36555e-21)
(-0.100032 0.0425803 -1.09466e-19)
(-0.113119 0.0383386 8.08284e-20)
(-0.122802 0.034204 -3.47564e-20)
(-0.120197 0.0252869 3.4863e-20)
(-0.126111 0.0270424 -1.05831e-19)
(-0.104591 0.00688631 1.5022e-19)
(-0.0134421 0.0309424 1.7536e-20)
(-0.0350398 0.055436 -2.3662e-19)
(-0.0575619 0.0617966 -1.40804e-19)
(-0.0739026 0.0603531 7.40775e-20)
(-0.0838677 0.0557393 8.79971e-20)
(-0.0861537 0.0499527 -1.46466e-19)
(-0.0865485 0.0449411 6.27425e-20)
(-0.0622769 0.0324337 4.17263e-20)
(-0.0611962 0.0371212 1.67564e-19)
(-0.00582879 0.0108045 -2.1653e-19)
(-0.0167644 0.0357747 -7.48425e-20)
(-0.0383014 0.0647468 1.1653e-19)
(-0.0554878 0.0724275 3.41016e-19)
(-0.0636085 0.0706029 -1.70088e-19)
(-0.0629954 0.0648711 1.5786e-19)
(-0.0500978 0.057969 2.66189e-19)
(-0.037432 0.0501291 -7.4202e-21)
(0.0175477 0.0387561 7.5576e-21)
(0.0281335 0.0425388 -2.47227e-19)
(0.139993 0.0214035 1.16701e-19)
(-0.0204126 0.0384745 -1.77384e-19)
(-0.0419716 0.0700378 1.05047e-19)
(-0.0529448 0.078311 -4.75902e-19)
(-0.0508322 0.0758423 2.31717e-19)
(-0.0364376 0.0687913 3.2515e-20)
(-0.00417918 0.0617389 -3.00267e-19)
(0.0293825 0.0486555 -8.81417e-20)
(0.127742 0.0451512 8.80882e-20)
(0.143696 0.0376677 1.67252e-19)
(0.349082 0.0342869 -9.30227e-20)
(-0.0242638 0.0393004 -1.9421e-20)
(-0.0456337 0.0712546 -3.30399e-19)
(-0.0492003 0.079077 3.26441e-19)
(-0.0341845 0.0755083 -2.34693e-19)
(-0.000910767 0.0671686 5.82345e-20)
(0.0574535 0.0611096 1.95109e-19)
(0.122849 0.042618 -3.57637e-19)
(0.273784 0.0519257 -1.49762e-19)
(0.304563 0.0310331 1.27281e-19)
(0.60863 0.0467182 7.42559e-20)
(-0.028262 0.0386684 1.94516e-19)
(-0.048529 0.0686522 5.70146e-19)
(-0.0424467 0.0748393 -5.50273e-19)
(-0.0099431 0.0697747 1.34602e-19)
(0.0502372 0.0607886 3.36942e-19)
(0.14504 0.0566194 -1.7156e-19)
(0.260867 0.0401569 -5.45876e-20)
(0.453492 0.0568501 -2.02768e-19)
(0.536266 0.0400982 2.41497e-19)
(0.869791 0.0680795 -1.69585e-19)
(-0.0323148 0.0369648 -3.56668e-19)
(-0.0493858 0.0627496 9.85877e-20)
(-0.0292835 0.0662456 2.05802e-19)
(0.0286712 0.0598914 -1.02364e-19)
(0.128213 0.05241 -3.45957e-19)
(0.272307 0.0516285 4.09809e-19)
(0.450844 0.0510638 2.60133e-19)
(0.660591 0.0647574 2.34578e-19)
(0.814747 0.0699307 -1.91071e-19)
(1.07807 0.0957431 1.44632e-19)
(-0.0360767 0.0344214 -8.84973e-20)
(-0.0461818 0.0541712 -2.88152e-19)
(-0.00446177 0.0545179 -1.71004e-19)
(0.0915217 0.0486774 2.00892e-19)
(0.245606 0.0475567 3.85779e-20)
(0.448153 0.055526 -2.41459e-19)
(0.672669 0.0742276 2.81469e-19)
(0.880396 0.0872501 -3.95251e-19)
(1.05325 0.111416 -2.22341e-19)
(1.19685 0.116236 7.74858e-20)
(-0.0388851 0.0311344 2.16308e-19)
(-0.0358889 0.0434974 3.03611e-19)
(0.0390737 0.0415968 1.26199e-19)
(0.189577 0.0408914 1.75862e-19)
(0.408288 0.0530152 -1.01965e-19)
(0.65826 0.0765273 -2.60878e-19)
(0.888474 0.10546 1.04041e-19)
(1.06861 0.122235 1.27696e-19)
(1.18855 0.144493 4.25021e-19)
(1.23291 0.119928 -2.49855e-19)
(-0.039776 0.0270528 3.22304e-19)
(-0.0145217 0.0312887 -3.93597e-20)
(0.109475 0.0305927 2.9081e-19)
(0.329413 0.0431052 -1.29269e-19)
(0.604275 0.0738424 3.9513e-19)
(0.864053 0.110626 1.56639e-19)
(1.05984 0.140041 1.93846e-19)
(1.18298 0.154419 -3.1718e-19)
(1.23555 0.157517 -1.29659e-19)
(1.26026 0.143058 1.24436e-19)
(-0.0374164 0.022004 2.29623e-20)
(0.0227555 0.0184493 -2.83978e-19)
(0.213919 0.0265761 -2.69726e-19)
(0.504413 0.0607726 -6.81045e-20)
(0.801392 0.108075 -1.07567e-19)
(1.02846 0.147761 1.17369e-19)
(1.16666 0.170129 -4.85679e-19)
(1.23153 0.173589 3.2479e-19)
(1.25498 0.171618 -3.18591e-21)
(1.25891 0.153106 -3.83164e-19)
(-0.0300858 0.0158704 -4.59493e-19)
(0.0813697 0.00711563 -9.36653e-20)
(0.35366 0.0357534 -9.9373e-21)
(0.690815 0.0933474 2.89652e-20)
(0.966619 0.147227 1.51926e-19)
(1.13764 0.180472 -4.74367e-19)
(1.22046 0.191577 4.64364e-19)
(1.25102 0.189351 -1.02235e-19)
(1.25399 0.179883 6.0056e-20)
(1.24801 0.162511 9.85979e-20)
(-0.0156746 0.00882476 1.22886e-20)
(0.165977 0.00191824 3.76713e-19)
(0.517472 0.0613366 9.57022e-20)
(0.859865 0.13424 -5.13797e-20)
(1.08631 0.184275 -4.30859e-20)
(1.2009 0.20667 2.76295e-19)
(1.24445 0.209064 -1.12398e-21)
(1.25208 0.201023 2.02133e-19)
(1.24612 0.188212 -6.31198e-20)
(1.23957 0.172517 -2.92839e-21)
(0.00859459 0.00165661 7.50464e-20)
(0.27729 0.00954379 -1.36618e-19)
(0.683226 0.100402 1.0758e-19)
(0.9951 0.17693 1.42096e-19)
(1.16467 0.217083 -9.32289e-20)
(1.23345 0.228682 -1.52863e-20)
(1.24979 0.223513 -2.70047e-19)
(1.24565 0.211912 -1.7719e-19)
(1.23618 0.196318 2.16773e-19)
(1.22602 0.18115 -1.3667e-19)
(0.0455851 -0.00345175 9.70768e-20)
(0.408587 0.034747 1.73087e-19)
(0.831101 0.147137 1.21575e-19)
(1.09413 0.218407 -1.83634e-19)
(1.21128 0.246326 2.17007e-19)
(1.24567 0.24779 -1.15238e-19)
(1.24559 0.236988 -2.88947e-20)
(1.23512 0.222137 -1.04315e-20)
(1.22345 0.204538 -6.14395e-20)
(1.21386 0.190363 1.95412e-20)
(0.0966549 -0.00297084 2.4614e-19)
(0.546427 0.0765786 -1.36785e-19)
(0.951982 0.197245 8.56456e-20)
(1.16113 0.257764 1.00081e-19)
(1.23468 0.272765 -7.14989e-20)
(1.24539 0.265473 1.08478e-19)
(1.23553 0.249897 3.95902e-20)
(1.22207 0.232323 5.27427e-20)
(1.21036 0.213215 3.37136e-20)
(1.19957 0.198751 5.3891e-20)
(0.160585 0.00666047 -9.06563e-20)
(0.676479 0.13032 -1.32946e-19)
(1.04442 0.248399 -1.0419e-19)
(1.20186 0.29472 -9.88821e-20)
(1.24166 0.297227 -4.35642e-20)
(1.23688 0.282337 4.79032e-20)
(1.22191 0.26271 -2.36453e-20)
(1.20738 0.242476 -1.57864e-22)
(1.19538 0.221813 -2.18467e-20)
(1.18498 0.206705 4.02073e-21)
(0.233488 0.0274769 2.42648e-20)
(0.788631 0.191132 -5.27847e-21)
(1.11009 0.299214 2.35225e-20)
(1.22184 0.329417 1.84127e-20)
(1.23686 0.320229 1.38196e-20)
(1.22281 0.298772 -3.70986e-20)
(1.20547 0.27534 1.72065e-20)
(1.19078 0.252425 -1.68261e-20)
(1.17949 0.230221 -5.38796e-21)
(1.16935 0.213749 -8.79518e-21)
(0.309774 0.0594332 1.25595e-21)
(0.878288 0.255327 -7.43709e-22)
(1.15161 0.348668 -5.11414e-21)
(1.22549 0.362036 6.13712e-20)
(1.2234 0.342072 -1.66695e-20)
(1.20439 0.31471 -1.57205e-20)
(1.18652 0.287608 2.05694e-21)
(1.17249 0.261932 -1.72711e-21)
(1.1619 0.237897 -6.32482e-21)
(1.15268 0.219828 -1.33178e-20)
(0.383371 0.100907 -1.04399e-19)
(0.944515 0.320329 1.97953e-20)
(1.17202 0.39593 -1.68729e-19)
(1.21612 0.39253 -5.92153e-20)
(1.20317 0.362716 -1.81195e-20)
(1.18228 0.32991 -2.32428e-21)
(1.16511 0.299156 -1.21179e-20)
(1.1523 0.270654 -6.71086e-21)
(1.14295 0.244724 6.11426e-21)
(1.13443 0.224828 9.16589e-21)
(0.448731 0.149582 1.80126e-19)
(0.987741 0.384066 -9.20526e-20)
(1.17417 0.440091 1.28229e-19)
(1.19612 0.420638 5.12536e-20)
(1.17732 0.381885 -1.80738e-20)
(1.15677 0.343929 6.04034e-20)
(1.14131 0.30954 -1.5204e-20)
(1.13038 0.278296 1.77298e-20)
(1.12237 0.250651 3.37424e-21)
(1.1145 0.228668 6.73639e-21)
(0.501577 0.20287 -1.1036e-19)
(1.00927 0.444755 4.18621e-19)
(1.16058 0.480312 -7.72023e-20)
(1.1672 0.44592 -4.33095e-20)
(1.14659 0.399054 9.16027e-20)
(1.12817 0.356231 -3.82505e-20)
(1.11527 0.318282 -1.35442e-20)
(1.10671 0.28451 -8.64998e-21)
(1.10015 0.255598 -9.03567e-22)
(1.09367 0.231317 -9.96827e-21)
(0.539214 0.257999 -2.00283e-19)
(1.01082 0.500748 -2.23969e-19)
(1.13331 0.515673 1.37216e-19)
(1.13078 0.467721 3.78452e-20)
(1.1117 0.413549 -4.57145e-20)
(1.09685 0.366266 -7.70993e-21)
(1.08721 0.325008 1.92019e-20)
(1.08122 0.289063 5.04686e-21)
(1.07632 0.258941 -1.79545e-20)
(1.07221 0.232612 -2.92774e-21)
(0.560503 0.31208 6.9411e-20)
(0.994299 0.550483 2.88806e-19)
(1.09416 0.545144 -5.76593e-20)
(1.08824 0.485223 4.6144e-21)
(1.07331 0.424652 -3.70301e-21)
(1.063 0.373422 4.01281e-21)
(1.0572 0.32942 1.6206e-20)
(1.05403 0.291626 -1.00194e-20)
(1.05141 0.260403 1.78453e-20)
(1.05017 0.23246 -1.84298e-20)
(0.565646 0.362331 -5.12938e-19)
(0.961485 0.592331 2.722e-20)
(1.04519 0.567727 -1.07565e-19)
(1.0407 0.497391 1.56598e-20)
(1.03175 0.431717 -2.62366e-21)
(1.02685 0.377194 5.44154e-20)
(1.02551 0.331022 -4.54471e-20)
(1.02568 0.291871 2.68018e-20)
(1.02601 0.259696 -2.5747e-20)
(1.02827 0.23079 -8.62358e-20)
(0.555716 0.406468 2.59882e-19)
(0.913933 0.624213 -2.44693e-19)
(0.988699 0.582556 -1.74609e-20)
(0.989128 0.503433 -6.46127e-21)
(0.987622 0.433972 8.7422e-20)
(0.988953 0.377037 -6.5535e-21)
(0.992559 0.329404 6.90321e-20)
(0.996705 0.289401 7.96436e-21)
(1.00097 0.256643 5.24947e-21)
(1.00733 0.227697 1.21152e-19)
(0.531835 0.442797 1.45006e-19)
(0.854133 0.644549 -2.09894e-20)
(0.926712 0.588383 -6.78176e-21)
(0.934606 0.502891 7.0188e-20)
(0.941666 0.43088 -2.89455e-20)
(0.949796 0.372463 -1.06469e-19)
(0.958839 0.324033 -6.86498e-20)
(0.967728 0.283624 6.99172e-21)
(0.976994 0.250719 9.48632e-20)
(0.987744 0.223533 -7.72354e-20)
(0.495188 0.468761 -8.16942e-21)
(0.786125 0.653006 -2.48263e-20)
(0.861101 0.584296 -9.81988e-20)
(0.878281 0.495208 5.23611e-21)
(0.894672 0.422007 1.47453e-19)
(0.91002 0.363122 -4.7112e-20)
(0.924899 0.314577 1.76376e-19)
(0.93915 0.273971 -2.43496e-19)
(0.953988 0.240661 -1.64493e-19)
(0.968347 0.217117 -3.51047e-20)
(0.448111 0.481102 3.10297e-20)
(0.712448 0.648041 5.25506e-20)
(0.793401 0.570189 3.30427e-20)
(0.821346 0.479941 -5.25762e-20)
(0.847523 0.407073 -2.23365e-19)
(0.870353 0.348833 2.11426e-19)
(0.891387 0.301052 8.17883e-20)
(0.911202 0.260848 1.06107e-19)
(0.931281 0.226012 3.03098e-19)
(0.946499 0.199817 -7.35143e-20)
(0.394771 0.479468 1.28911e-19)
(0.636103 0.629227 -2.2781e-20)
(0.725496 0.545867 -5.7619e-20)
(0.765061 0.456835 1.10897e-19)
(0.801183 0.385884 1.98706e-19)
(0.831635 0.329449 -4.70785e-19)
(0.859016 0.283444 -7.3502e-20)
(0.884104 0.245237 -1.91183e-19)
(0.907284 0.212967 3.87671e-20)
(0.922028 0.188109 -1.38812e-19)
(0.338324 0.463474 -2.62124e-19)
(0.559746 0.596222 -1.19426e-19)
(0.659179 0.511394 3.96467e-19)
(0.710717 0.425893 -2.27592e-19)
(0.756652 0.358449 -3.28022e-19)
(0.794662 0.304924 3.07711e-19)
(0.828345 0.261265 -2.82654e-19)
(0.858553 0.224769 1.40301e-19)
(0.885072 0.19385 -1.74288e-19)
(0.901958 0.170271 2.75725e-19)
(0.281905 0.433548 -1.07609e-19)
(0.486176 0.549403 5.88977e-19)
(0.596259 0.467039 -6.14232e-19)
(0.659603 0.387331 2.55998e-20)
(0.714939 0.325015 2.00663e-19)
(0.760135 0.275762 -1.26011e-20)
(0.799536 0.235837 4.32176e-19)
(0.833903 0.202684 -3.76758e-19)
(0.86316 0.174582 2.7434e-19)
(0.883156 0.152515 -1.85424e-19)
(0.228333 0.39071 -1.76175e-19)
(0.417905 0.489503 9.63912e-20)
(0.53846 0.413315 2.6506e-19)
(0.612987 0.341549 3.04768e-19)
(0.677085 0.285796 -6.99998e-20)
(0.729011 0.24178 2.8885e-19)
(0.773734 0.206112 2.44288e-20)
(0.811926 0.176544 3.1095e-20)
(0.843874 0.151674 -1.10791e-19)
(0.866925 0.132251 -6.04163e-21)
(0.180014 0.33653 5.31801e-19)
(0.357191 0.417723 -3.69145e-19)
(0.487445 0.351008 -4.93191e-19)
(0.57203 0.289255 2.77366e-20)
(0.643895 0.241536 -1.45008e-19)
(0.701699 0.203974 1.21055e-19)
(0.750958 0.173619 -4.42397e-19)
(0.792407 0.148457 1.30369e-19)
(0.826946 0.127197 3.70825e-19)
(0.853104 0.110419 -1.79349e-19)
(0.138825 0.272683 7.24514e-20)
(0.306057 0.335817 4.59304e-19)
(0.444795 0.28119 3.31647e-19)
(0.537878 0.231238 -3.10195e-19)
(0.616319 0.192731 1.93374e-19)
(0.679077 0.162458 -8.76177e-20)
(0.732096 0.138043 -5.70196e-20)
(0.776219 0.117858 -2.71218e-20)
(0.812994 0.100802 -1.14744e-19)
(0.841933 0.0872165 2.11696e-19)
(0.106326 0.20081 -3.56511e-19)
(0.266167 0.245823 -4.15508e-19)
(0.411719 0.205316 -6.6888e-21)
(0.511411 0.168614 2.95752e-19)
(0.594969 0.140362 -5.42901e-20)
(0.661566 0.118177 -5.85703e-20)
(0.71747 0.1003 8.50927e-20)
(0.763653 0.0855207 -4.59907e-20)
(0.802234 0.0730019 -3.66157e-20)
(0.833487 0.0629486 3.80879e-20)
(0.0838614 0.122948 5.18375e-20)
(0.238829 0.149909 -6.81755e-20)
(0.389151 0.124995 2.94135e-19)
(0.493364 0.102562 -7.21334e-20)
(0.580425 0.0853039 1.35981e-19)
(0.649643 0.0717622 -3.65313e-20)
(0.707501 0.0608608 -5.69355e-20)
(0.755079 0.0518527 9.11218e-20)
(0.794921 0.0442033 1.27011e-20)
(0.827841 0.0380144 -3.27482e-20)
(0.484218 0.0344219 -6.83124e-20)
(0.573057 0.0286177 3.13259e-20)
(0.643602 0.0240646 -1.65906e-20)
(0.702447 0.0204006 1.97677e-20)
(0.750727 0.0173735 -2.59343e-20)
(0.791216 0.0147988 -1.57926e-20)
(0.825014 0.0127069 5.70614e-24)
(-0.198111 0.00318059 -4.9935e-20)
(-0.201883 0.00292396 3.57343e-20)
(-0.205141 0.00259172 4.86811e-22)
(-0.208014 0.00229561 -6.1879e-21)
(-0.210569 0.00203595 -1.23511e-20)
(-0.21284 0.00180833 -1.41959e-20)
(-0.21486 0.00160762 -2.42762e-20)
(-0.216657 0.00142834 4.31652e-20)
(-0.218251 0.00126541 -2.44681e-20)
(-0.219658 0.00111456 5.01649e-20)
(-0.22089 0.000972383 -3.15887e-20)
(-0.221955 0.000836275 -4.55669e-21)
(-0.222859 0.000704386 -1.11437e-20)
(-0.223604 0.000575734 2.88898e-20)
(-0.224193 0.000450803 -1.90253e-20)
(-0.224629 0.000331703 1.93929e-20)
(-0.224912 0.000218651 -1.34852e-20)
(-0.225058 0.00010383 -1.13491e-20)
(-0.225074 -1.27257e-05 7.30934e-21)
(-0.224959 -0.000130119 -4.85256e-21)
(-0.22471 -0.000248165 1.80921e-20)
(-0.224326 -0.000366733 -8.24178e-21)
(-0.223807 -0.000485391 -1.21955e-20)
(-0.22315 -0.00060458 7.56142e-21)
(-0.222355 -0.000724696 -1.02551e-20)
(-0.22142 -0.000846001 1.20685e-20)
(-0.220343 -0.000968686 3.34563e-21)
(-0.219121 -0.00109286 -9.63928e-21)
(-0.217753 -0.00121859 1.72843e-20)
(-0.165497 0.00893721 5.13779e-21)
(-0.168952 0.00821664 4.25658e-20)
(-0.171714 0.00728695 -6.67774e-20)
(-0.174094 0.00644218 1.02306e-19)
(-0.176212 0.00569753 -8.4189e-20)
(-0.178087 0.00504144 -2.74356e-21)
(-0.179742 0.00445985 1.09903e-19)
(-0.181198 0.00393836 -3.5834e-20)
(-0.182469 0.00346333 1.32497e-20)
(-0.183568 0.00302316 -4.32626e-20)
(-0.184501 0.00260847 -5.05402e-20)
(-0.185275 0.00221176 2.73286e-20)
(-0.185891 0.00182737 -3.51713e-20)
(-0.186349 0.0014524 7.05953e-20)
(-0.186647 0.00108887 -2.21659e-20)
(-0.186785 0.000741287 2.31069e-20)
(-0.186782 0.00039923 -1.19017e-20)
(-0.186652 5.17874e-05 -2.71273e-20)
(-0.186387 -0.000297726 3.05321e-20)
(-0.185985 -0.000647658 -1.00041e-20)
(-0.185446 -0.000997666 -4.41622e-20)
(-0.184768 -0.00134807 4.12311e-20)
(-0.183951 -0.00169786 -2.66878e-20)
(-0.182997 -0.00204958 -6.07899e-21)
(-0.181903 -0.00240434 1.03251e-20)
(-0.180669 -0.00276251 2.96856e-20)
(-0.179293 -0.00312447 -8.12392e-21)
(-0.177772 -0.00349048 5.44471e-20)
(-0.176106 -0.00386074 -7.13179e-22)
(-0.0998656 0.0136401 -1.33066e-19)
(-0.102859 0.0121027 5.33788e-20)
(-0.104684 0.0108536 -1.40993e-19)
(-0.106226 0.00954516 2.5699e-19)
(-0.107636 0.00838265 -1.73143e-19)
(-0.108895 0.0073582 2.10103e-19)
(-0.109992 0.0064468 -2.09498e-19)
(-0.11093 0.00562533 9.43816e-20)
(-0.111714 0.00487053 -2.12918e-20)
(-0.112345 0.00416351 1.14174e-19)
(-0.112825 0.00349016 -5.36304e-20)
(-0.113154 0.00283933 -6.76292e-20)
(-0.113332 0.00220245 -1.29478e-19)
(-0.113349 0.00157577 1.33703e-19)
(-0.113196 0.000964675 -1.80724e-21)
(-0.112895 0.000375865 -1.19552e-19)
(-0.112471 -0.000216824 2.79151e-20)
(-0.111909 -0.000804993 1.04439e-19)
(-0.111198 -0.0013883 -2.9798e-20)
(-0.110341 -0.00197007 5.44835e-21)
(-0.109342 -0.00255235 6.15635e-20)
(-0.108196 -0.0031439 -5.9822e-20)
(-0.106907 -0.00372485 9.55896e-20)
(-0.105477 -0.00430435 -1.50956e-20)
(-0.103905 -0.004888 -1.25224e-19)
(-0.10219 -0.00547678 1.25748e-19)
(-0.10033 -0.00607145 -4.58438e-20)
(-0.0983238 -0.0066725 4.43526e-20)
(-0.0961714 -0.00728017 -1.29941e-19)
(0.00211871 0.0142216 6.58052e-21)
(-0.00172405 0.0135132 -1.58807e-19)
(-0.00210453 0.0126358 1.41475e-19)
(-0.00305458 0.0112494 1.01488e-19)
(-0.00387705 0.00992217 -6.87427e-20)
(-0.00466599 0.00867133 -1.35118e-19)
(-0.00537366 0.00750972 5.70887e-21)
(-0.00597257 0.0064376 9.79522e-20)
(-0.00644788 0.00543739 -8.02136e-20)
(-0.0067841 0.0044904 1.34743e-19)
(-0.00697019 0.00358277 -1.71737e-19)
(-0.0070006 0.00270178 1.63615e-19)
(-0.00687082 0.00183435 -3.72016e-20)
(-0.00656574 0.000971746 2.49616e-20)
(-0.00606087 0.000114269 4.4784e-20)
(-0.00542002 -0.000743663 -3.90215e-20)
(-0.00464212 -0.00159718 -1.59342e-19)
(-0.00369676 -0.00243663 6.59307e-20)
(-0.00259533 -0.00326901 1.24353e-19)
(-0.00134055 -0.0040977 -3.84835e-20)
(4.87376e-05 -0.00492851 -5.53285e-20)
(0.00160532 -0.00575305 -1.94122e-20)
(0.00334462 -0.00656899 -6.85644e-21)
(0.00522633 -0.00738863 -5.25282e-20)
(0.00725186 -0.00821359 1.42572e-19)
(0.00942662 -0.00904393 -1.77522e-21)
(0.0117514 -0.0098803 -4.5588e-20)
(0.0142265 -0.010723 2.37813e-20)
(0.0168519 -0.0115721 -4.11308e-20)
(0.0196275 -0.0124276 -7.43515e-20)
(0.149592 0.016877 6.09777e-20)
(0.146714 0.0150509 8.24962e-21)
(0.143358 0.0133874 -3.08563e-19)
(0.141032 0.012108 1.33397e-19)
(0.139266 0.0108526 -1.12223e-19)
(0.137758 0.00954341 2.74822e-20)
(0.13647 0.00825042 -4.71764e-20)
(0.135381 0.00700205 1.10122e-19)
(0.134481 0.00578221 -2.99632e-21)
(0.133775 0.00458108 3.43726e-19)
(0.133274 0.00340231 -5.78122e-20)
(0.132977 0.00224539 -1.47608e-19)
(0.132882 0.00109931 -2.3455e-20)
(0.132993 -5.01622e-05 -7.03514e-21)
(0.13333 -0.00121438 -5.70744e-20)
(0.133847 -0.00240589 -5.20876e-20)
(0.134567 -0.00355503 3.56315e-21)
(0.135487 -0.00467133 6.61566e-20)
(0.136602 -0.00577004 8.86814e-20)
(0.137906 -0.00686016 -1.01341e-19)
(0.139392 -0.00794603 1.05544e-19)
(0.141056 -0.00901197 -1.40963e-19)
(0.142898 -0.0100761 4.66815e-20)
(0.144915 -0.011142 -1.74083e-20)
(0.147104 -0.0122098 -1.21378e-19)
(0.149462 -0.0132812 1.05453e-19)
(0.151987 -0.0143577 2.79522e-20)
(0.154678 -0.0154394 -7.08915e-20)
(0.157531 -0.0165261 9.49815e-20)
(0.160543 -0.0176176 4.60251e-20)
(0.346491 0.0275465 -1.34816e-20)
(0.3427 0.0229894 -7.66594e-20)
(0.337299 0.0195437 7.35037e-20)
(0.331815 0.0169629 1.76183e-19)
(0.326841 0.0146696 4.35416e-20)
(0.322549 0.0125582 -1.74448e-19)
(0.318873 0.0106943 2.97689e-20)
(0.315666 0.00901956 2.22671e-19)
(0.312853 0.00742335 -6.06893e-19)
(0.310432 0.00585804 2.15004e-19)
(0.308399 0.00432666 -1.81684e-19)
(0.306727 0.0028318 3.31627e-19)
(0.305386 0.00136209 9.72978e-20)
(0.304351 -9.90327e-05 -2.76494e-19)
(0.303617 -0.00156802 3.91994e-19)
(0.303238 -0.00304079 -8.43662e-20)
(0.303181 -0.00454255 -2.55898e-19)
(0.303387 -0.00605361 -2.34084e-19)
(0.303835 -0.0075227 3.04737e-19)
(0.304528 -0.00895539 1.70135e-19)
(0.305462 -0.0103635 -2.30622e-19)
(0.306629 -0.0117562 2.3169e-19)
(0.30802 -0.0131392 -3.52802e-19)
(0.309628 -0.0145146 8.57865e-20)
(0.311443 -0.0158845 -3.53795e-20)
(0.313461 -0.0172511 1.43758e-19)
(0.315678 -0.0186156 4.78288e-20)
(0.318088 -0.0199779 -2.45519e-19)
(0.320687 -0.0213371 -3.87212e-20)
(0.323469 -0.0226929 1.47951e-19)
(0.588891 0.0405001 -1.16242e-19)
(0.579601 0.0361059 1.38891e-20)
(0.57088 0.0324644 2.05092e-19)
(0.561638 0.0289334 -2.29293e-19)
(0.552586 0.0251928 1.17709e-19)
(0.544451 0.0216432 1.08369e-19)
(0.537258 0.0185577 9.41084e-20)
(0.530728 0.0158142 -2.84904e-19)
(0.524751 0.0132376 -1.67065e-19)
(0.519366 0.0107832 -3.14967e-20)
(0.51459 0.0084593 5.04269e-19)
(0.510381 0.0062511 7.92479e-21)
(0.506688 0.00412882 -4.71283e-19)
(0.503469 0.00207053 1.65393e-19)
(0.500682 5.9873e-05 -1.29119e-20)
(0.498291 -0.00191334 1.00909e-19)
(0.496297 -0.0038712 5.6363e-20)
(0.494831 -0.00579448 -9.38982e-20)
(0.493784 -0.00773235 2.28278e-19)
(0.493078 -0.00967305 9.78264e-21)
(0.492683 -0.0115381 -4.41663e-19)
(0.492594 -0.0133371 2.15062e-19)
(0.492805 -0.0150864 1.06646e-19)
(0.493303 -0.016801 -1.51142e-20)
(0.494074 -0.0184943 -4.87333e-20)
(0.495106 -0.0201753 6.25704e-20)
(0.496387 -0.0218483 1.14105e-19)
(0.497911 -0.0235123 -4.25488e-19)
(0.499666 -0.0251642 3.5951e-19)
(0.501638 -0.0268029 -2.24989e-19)
(0.503817 -0.0284293 -6.56436e-20)
(0.84148 0.0589465 1.18214e-19)
(0.827504 0.0541254 -2.93112e-19)
(0.815524 0.050653 3.87152e-22)
(0.80289 0.0464041 2.77305e-19)
(0.790392 0.0414156 -7.84353e-20)
(0.779079 0.0367027 -1.89706e-19)
(0.768867 0.0325459 3.36149e-20)
(0.75931 0.0286725 7.065e-20)
(0.750306 0.0249372 -8.5716e-20)
(0.741963 0.0213853 1.36121e-19)
(0.734324 0.0180489 7.39542e-20)
(0.727351 0.0148955 6.30036e-20)
(0.721 0.0118853 -1.68038e-19)
(0.715246 0.00899811 5.96667e-20)
(0.710063 0.00622343 5.20384e-21)
(0.705419 0.0035514 -2.13135e-19)
(0.701259 0.000984043 2.85639e-19)
(0.697561 -0.0015248 -2.23852e-19)
(0.694325 -0.00400254 1.31812e-19)
(0.691714 -0.00641502 -1.47906e-19)
(0.689584 -0.00885293 9.60505e-20)
(0.687825 -0.0113185 -7.62273e-20)
(0.686406 -0.0137012 -1.44247e-20)
(0.685315 -0.0159941 -1.52905e-19)
(0.68454 -0.0182136 3.20872e-20)
(0.68407 -0.020378 2.11812e-19)
(0.683898 -0.022502 8.58163e-20)
(0.684017 -0.0245887 -2.07138e-19)
(0.684414 -0.0266362 1.31574e-19)
(0.685066 -0.0286471 -1.00858e-19)
(0.685955 -0.0306257 1.25185e-19)
(0.687068 -0.0325744 -1.15521e-19)
(1.05166 0.0827904 5.5548e-21)
(1.03835 0.0776922 1.65349e-19)
(1.02619 0.0736609 1.44398e-19)
(1.01276 0.0678499 -4.09761e-19)
(0.999555 0.0614264 1.42312e-19)
(0.98767 0.0556602 1.60383e-19)
(0.976735 0.0504115 3.5621e-20)
(0.966246 0.0452832 1.08364e-19)
(0.956184 0.0402711 -2.52017e-19)
(0.946682 0.0355013 -1.41165e-19)
(0.937775 0.0309973 2.85304e-19)
(0.929433 0.0267231 -1.1042e-19)
(0.921643 0.0226567 -2.70063e-19)
(0.914401 0.0187892 3.55416e-19)
(0.907694 0.0151066 -2.03615e-19)
(0.901509 0.0115902 8.72416e-20)
(0.895819 0.00822716 2.08389e-19)
(0.890608 0.00501123 -2.30951e-19)
(0.885817 0.0019312 -2.81781e-19)
(0.881418 -0.00107552 1.47841e-20)
(0.877404 -0.00404299 3.09607e-19)
(0.874011 -0.00688083 2.39081e-19)
(0.871117 -0.00970613 -2.38486e-19)
(0.868578 -0.0125339 -2.40884e-19)
(0.866344 -0.0152824 1.38007e-19)
(0.864395 -0.0179526 1.56704e-19)
(0.862732 -0.020559 7.40621e-20)
(0.861361 -0.0230931 -1.44051e-19)
(0.860271 -0.025549 1.6339e-19)
(0.859438 -0.0279344 -3.22906e-19)
(0.858843 -0.0302595 7.99387e-20)
(0.85847 -0.0325293 -1.10288e-19)
(1.18224 0.103168 -2.79021e-19)
(1.17504 0.0995638 4.04753e-19)
(1.16676 0.0949933 -5.14385e-20)
(1.15676 0.0883316 -2.16502e-19)
(1.14707 0.0817074 3.20204e-19)
(1.13832 0.0757718 -4.15617e-19)
(1.13001 0.0700483 -1.31399e-19)
(1.12178 0.06431 -1.14103e-19)
(1.1137 0.0586618 3.29919e-19)
(1.10586 0.0531846 -2.04232e-19)
(1.09828 0.0478745 2.76006e-19)
(1.09097 0.042726 1.23962e-19)
(1.08393 0.037752 -1.70844e-19)
(1.07719 0.0329611 -3.12782e-19)
(1.07076 0.0283518 3.67349e-19)
(1.06463 0.0239179 7.90794e-20)
(1.05881 0.0196557 -7.91815e-20)
(1.05331 0.0155591 -1.54906e-19)
(1.04811 0.0116327 3.03198e-19)
(1.04323 0.00787986 -3.59721e-19)
(1.0386 0.00431508 3.80789e-19)
(1.03418 0.000838107 -9.56902e-20)
(1.03002 -0.00259964 -2.69891e-19)
(1.02633 -0.00588218 -7.14559e-20)
(1.02299 -0.00906759 3.98052e-19)
(1.01988 -0.012237 2.79796e-20)
(1.01699 -0.0153721 -1.90128e-19)
(1.01435 -0.018424 3.03153e-20)
(1.01195 -0.0213794 -2.32726e-19)
(1.00976 -0.0242474 -3.1738e-21)
(1.00776 -0.0270346 2.09072e-19)
(1.00595 -0.0297415 3.78181e-20)
(1.00432 -0.0323678 -1.62286e-19)
(1.2611 0.125937 0)
(1.26062 0.118691 0)
(1.25558 0.112098 0)
(1.24888 0.105603 0)
(1.24251 0.0991552 0)
(1.23687 0.0926999 0)
(1.2316 0.0863135 0)
(1.2264 0.080121 0)
(1.22117 0.0741623 0)
(1.21592 0.068406 0)
(1.21069 0.0628196 0)
(1.2055 0.0573934 0)
(1.20039 0.0521289 0)
(1.19537 0.0470269 0)
(1.19043 0.0420858 0)
(1.1856 0.037301 0)
(1.18088 0.0326685 0)
(1.17628 0.0281806 0)
(1.17181 0.0238342 0)
(1.16747 0.0196158 0)
(1.16327 0.015528 0)
(1.15921 0.0115673 0)
(1.15526 0.00778568 0)
(1.15141 0.00414127 0)
(1.14766 0.00056691 0)
(1.14406 -0.00292193 0)
(1.14067 -0.00629196 0)
(1.13747 -0.00953636 0)
(1.13445 -0.0126758 0)
(1.13157 -0.0157273 1.86468e-27)
(1.12881 -0.0186954 -1.8647e-27)
(1.12618 -0.0215799 0)
(1.12367 -0.0243808 0)
(1.26388 0.129044 0)
(1.27021 0.1213 0)
(1.2714 0.114399 0)
(1.2698 0.108034 0)
(1.26779 0.101859 0)
(1.26625 0.0957394 0)
(1.26506 0.089707 0)
(1.26386 0.0838285 0)
(1.26242 0.0781228 0)
(1.26071 0.0725712 0)
(1.25878 0.0671508 0)
(1.25669 0.0618498 0)
(1.25447 0.0566662 0)
(1.25215 0.051602 0)
(1.24973 0.0466587 0)
(1.24722 0.0418358 0)
(1.24464 0.0371323 0)
(1.242 0.0325456 0)
(1.23931 0.0280745 0)
(1.23658 0.0237171 0)
(1.23382 0.0194736 0)
(1.23103 0.0153443 0)
(1.22823 0.0113327 0)
(1.22545 0.00745513 0)
(1.22273 0.00373277 0)
(1.22009 0.000163953 0)
(1.21753 -0.00326606 0)
(1.21498 -0.00659364 0)
(1.21241 -0.00984236 0)
(1.20984 -0.013012 5.62753e-27)
(1.20728 -0.0160966 -5.62753e-27)
(1.20476 -0.0190933 0)
(1.20227 -0.0220028 0)
(1.25578 0.126152 0)
(1.26356 0.119225 0)
(1.2667 0.112577 0)
(1.26703 0.106376 0)
(1.26676 0.100503 0)
(1.26689 0.0948218 0)
(1.26741 0.0892673 0)
(1.26799 0.0838324 0)
(1.26837 0.0785236 0)
(1.26846 0.07334 0)
(1.26831 0.068274 0)
(1.26797 0.0633175 0)
(1.26747 0.0584667 0)
(1.26684 0.0537203 0)
(1.26607 0.0490788 0)
(1.26517 0.0445425 0)
(1.26414 0.0401118 0)
(1.26299 0.035787 0)
(1.26173 0.031569 0)
(1.26037 0.0274596 0)
(1.25893 0.0234617 0)
(1.25741 0.0195784 0)
(1.25584 0.0158134 0)
(1.25421 0.0121638 0)
(1.25253 0.0086201 0)
(1.25078 0.00515583 0)
(1.24896 0.00174974 0)
(1.24705 -0.00160512 0)
(1.2451 -0.00488589 0)
(1.24313 -0.0080785 1.73166e-27)
(1.24115 -0.0111813 -1.73166e-27)
(1.23915 -0.0141969 0)
(1.23712 -0.0171277 0)
(1.24501 0.122094 0)
(1.25275 0.115855 0)
(1.25662 0.109641 0)
(1.25793 0.103746 0)
(1.25855 0.0981783 0)
(1.25941 0.0928363 0)
(1.2606 0.0876317 0)
(1.26186 0.0825282 0)
(1.26295 0.0775242 0)
(1.26378 0.0726265 0)
(1.26439 0.0678367 0)
(1.26481 0.0631514 0)
(1.26509 0.0585656 0)
(1.26524 0.0540761 0)
(1.26526 0.0496813 0)
(1.26514 0.0453806 0)
(1.2649 0.0411736 0)
(1.26453 0.0370601 0)
(1.26404 0.0330397 0)
(1.26344 0.0291117 0)
(1.26274 0.0252749 0)
(1.26194 0.0215267 0)
(1.26104 0.0178625 0)
(1.26005 0.0142762 0)
(1.25897 0.0107621 0)
(1.2578 0.00731995 0)
(1.25656 0.00395645 0)
(1.25526 0.000687478 0)
(1.25392 -0.00247859 0)
(1.25252 -0.00555052 0)
(1.25104 -0.00853772 0)
(1.2495 -0.0114452 0)
(1.2479 -0.0142747 0)
(1.23356 0.116918 0)
(1.24102 0.111315 0)
(1.24521 0.105652 0)
(1.24713 0.100191 0)
(1.24833 0.0949874 0)
(1.24963 0.0899828 0)
(1.25118 0.0851051 0)
(1.25275 0.0803161 0)
(1.25418 0.07561 0)
(1.25536 0.0709937 0)
(1.25633 0.0664725 0)
(1.25713 0.0620461 0)
(1.25778 0.057711 0)
(1.2583 0.0534637 0)
(1.2587 0.049302 0)
(1.25896 0.045225 0)
(1.2591 0.0412322 0)
(1.25911 0.037323 0)
(1.25901 0.0334969 0)
(1.2588 0.0297528 0)
(1.25848 0.0260894 0)
(1.25805 0.0225056 0)
(1.25753 0.0190006 0)
(1.25691 0.0155754 0)
(1.2562 0.0122319 0)
(1.25541 0.00897314 0)
(1.25454 0.0057993 0)
(1.25361 0.0027095 0)
(1.2526 -0.000307409 0)
(1.25151 -0.00325431 0)
(1.25034 -0.00612947 0)
(1.2491 -0.00893128 0)
(1.2478 -0.0116591 0)
(1.22281 0.11108 0)
(1.22992 0.106107 0)
(1.2342 0.101014 0)
(1.23646 0.0960321 0)
(1.23804 0.0912347 0)
(1.23964 0.0865931 0)
(1.2414 0.0820568 0)
(1.24317 0.077595 0)
(1.24478 0.0732009 0)
(1.24618 0.0688804 0)
(1.24736 0.0646392 0)
(1.24837 0.0604793 0)
(1.24924 0.0563992 0)
(1.24997 0.0523966 0)
(1.25058 0.04847 0)
(1.25106 0.0446186 0)
(1.25142 0.0408422 0)
(1.25165 0.0371409 0)
(1.25177 0.0335144 0)
(1.25177 0.0299623 0)
(1.25168 0.0264846 0)
(1.25147 0.0230814 0)
(1.25117 0.0197532 0)
(1.25078 0.0165008 0)
(1.2503 0.0133244 0)
(1.24973 0.0102233 0)
(1.24909 0.00719434 0)
(1.24836 0.00423409 0)
(1.24755 0.00134076 0)
(1.24666 -0.00148413 0)
(1.2457 -0.00423918 0)
(1.24467 -0.00692363 0)
(1.24357 -0.00953738 0)
(1.21323 0.105124 0)
(1.21987 0.100707 0)
(1.22409 0.0961335 0)
(1.22656 0.0916145 0)
(1.22838 0.0872243 0)
(1.23019 0.0829497 5.2156e-28)
(1.2321 0.0787556 -5.2156e-28)
(1.23399 0.074619 0)
(1.23572 0.070535 0)
(1.23725 0.0665087 0)
(1.23857 0.0625463 0)
(1.23973 0.0586509 0)
(1.24074 0.0548231 0)
(1.24162 0.051062 0)
(1.24237 0.047367 0)
(1.243 0.0437381 0)
(1.2435 0.0401756 0)
(1.24388 0.0366798 0)
(1.24415 0.0332512 0)
(1.24431 0.0298901 0)
(1.24436 0.0265967 0)
(1.24431 0.0233714 0)
(1.24417 0.0202143 0)
(1.24393 0.0171253 0)
(1.2436 0.0141038 0)
(1.24319 0.0111487 0)
(1.24269 0.0082589 0)
(1.24211 0.00543387 0)
(1.24145 0.00267433 0)
(1.24071 -1.91963e-05 0)
(1.2399 -0.00264635 0)
(1.23902 -0.00520705 0)
(1.23807 -0.00770143 0)
(1.20466 0.0991707 0)
(1.21081 0.0952348 0)
(1.21492 0.0911339 0)
(1.2175 0.0870497 0)
(1.21949 0.0830518 0)
(1.22144 0.0791356 -8.31093e-28)
(1.22345 0.0752761 8.31093e-28)
(1.22542 0.0714569 0)
(1.22723 0.0676755 0)
(1.22885 0.0639373 0)
(1.23028 0.0602489 0)
(1.23154 0.0566143 0)
(1.23266 0.0530353 0)
(1.23365 0.0495125 0)
(1.23452 0.0460462 0)
(1.23525 0.042637 0)
(1.23587 0.0392858 0)
(1.23637 0.0359935 0)
(1.23675 0.0327608 0)
(1.23703 0.0295883 0)
(1.2372 0.0264765 0)
(1.23727 0.0234257 0)
(1.23725 0.0204361 0)
(1.23713 0.0175077 0)
(1.23692 0.0146403 0)
(1.23663 0.011834 0)
(1.23625 0.0090888 0)
(1.23579 0.00640507 0)