/*--------------------------------*- C++ -*----------------------------------*\
  =========                 |
  \\      /  F ield         | OpenFOAM: The Open Source CFD Toolbox
   \\    /   O peration     | Website:  https://openfoam.org
    \\  /    A nd           | Version:  7
     \\/     M anipulation  |
\*---------------------------------------------------------------------------*/
FoamFile
{
    version     2.0;
    format      ascii;
    class       surfaceScalarField;
    location    "15";
    object      phi;
}
// * * * * * * * * * * * * * * * * * * * * * * * * * * * * * * * * * * * * * //

dimensions      [0 3 -1 0 0 0 0];

internalField   nonuniform List<scalar> 
24025
(
-4.38716e-06
4.38716e-06
7.78449e-13
-1.4797e-05
1.04098e-05
2.14472e-12
-2.935e-05
1.4553e-05
3.47495e-12
-4.63905e-05
1.70404e-05
4.73498e-12
-6.44375e-05
1.8047e-05
5.94582e-12
-8.2173e-05
1.77355e-05
7.15041e-12
-9.84354e-05
1.62624e-05
8.3193e-12
-0.000112229
1.37936e-05
9.46158e-12
-0.000122754
1.05253e-05
1.05547e-11
-0.000129462
6.70747e-06
1.15853e-11
-0.000132132
2.67035e-06
1.25119e-11
-0.000130982
-1.15052e-06
1.32943e-11
-0.000126759
-4.22244e-06
1.39122e-11
-0.000120754
-6.00515e-06
1.43265e-11
-5.62266e-06
1.44303e-11
-0.000115131
-4.2454e-06
8.63256e-06
-1.42569e-05
2.04213e-05
-2.81559e-05
2.8452e-05
-4.42803e-05
3.31649e-05
-6.11369e-05
3.49036e-05
-7.73875e-05
3.39861e-05
-9.18426e-05
3.07175e-05
-0.000103469
2.54196e-05
-0.000111416
1.84731e-05
-0.000115075
1.03662e-05
-0.000114154
1.74914e-06
-0.000108793
-6.51101e-06
-9.96901e-05
-1.33258e-05
-8.8154e-05
-1.75413e-05
-1.79465e-05
-7.58301e-05
-3.96465e-06
1.25972e-05
-1.31859e-05
2.96426e-05
-2.57862e-05
4.10523e-05
-4.0091e-05
4.74698e-05
-5.4582e-05
4.93946e-05
-6.78824e-05
4.72864e-05
-7.87474e-05
4.15826e-05
-8.60694e-05
3.27415e-05
-8.89024e-05
2.13061e-05
-8.65139e-05
7.97772e-06
-7.84702e-05
-6.29452e-06
-6.47499e-05
-2.02313e-05
-4.58797e-05
-3.2196e-05
-2.31842e-05
-4.02368e-05
-4.09091e-05
-2.21638e-07
-3.55014e-06
1.61473e-05
-1.16015e-05
3.76939e-05
-2.22763e-05
5.17272e-05
-3.38814e-05
5.90748e-05
-4.48613e-05
6.03745e-05
-5.3783e-05
5.62081e-05
-5.93225e-05
4.71221e-05
-6.02651e-05
3.36842e-05
-5.55249e-05
1.65658e-05
-4.41906e-05
-3.35662e-06
-2.56128e-05
-2.48723e-05
4.59298e-07
-4.63034e-05
3.3763e-05
-6.54997e-05
7.31852e-05
-7.9659e-05
-8.43951e-05
0.000116671
-3.00902e-06
1.91564e-05
-9.52762e-06
4.42125e-05
-1.76754e-05
5.98749e-05
-2.57329e-05
6.71324e-05
-3.20972e-05
6.67388e-05
-3.52631e-05
5.93739e-05
-3.38071e-05
4.56661e-05
-2.63804e-05
2.62575e-05
-1.17212e-05
1.90659e-06
1.13069e-05
-2.63847e-05
4.36363e-05
-5.72018e-05
8.58542e-05
-8.85213e-05
0.000137955
-0.000117601
0.000199107
-0.000140811
-0.000152361
0.000267073
-2.34966e-06
2.1506e-05
-6.99274e-06
4.88556e-05
-1.20414e-05
6.49235e-05
-1.57429e-05
7.08339e-05
-1.6436e-05
6.74319e-05
-1.25301e-05
5.5468e-05
-2.486e-06
3.5622e-05
1.51967e-05
8.57488e-06
4.19806e-05
-2.48773e-05
7.92628e-05
-6.36669e-05
0.000128303
-0.000106242
0.000190073
-0.000150291
0.000264984
-0.000192511
0.000352495
-0.000228322
-0.000250113
0.000450246
-1.58091e-06
2.30869e-05
-4.02738e-06
5.13021e-05
-5.43707e-06
6.63332e-05
-4.01666e-06
6.94135e-05
1.9638e-06
6.14514e-05
1.41895e-05
4.32423e-05
3.43275e-05
1.5484e-05
6.40437e-05
-2.11413e-05
0.000105011
-6.58451e-05
0.000158902
-0.000117558
0.000227331
-0.000174671
0.000311711
-0.000234671
0.000412947
-0.000293748
0.000530906
-0.00034628
-0.000382423
0.000663215
-7.11936e-07
2.37989e-05
-6.58757e-07
5.12489e-05
2.07367e-06
6.36008e-05
9.33614e-06
6.2151e-05
2.29356e-05
4.78519e-05
4.46628e-05
2.15152e-05
7.6317e-05
-1.61702e-05
0.000119731
-6.45553e-05
0.000176788
-0.000122902
0.000249429
-0.000190198
0.000339621
-0.000264864
0.000449244
-0.000344294
0.000579775
-0.000424279
0.000731642
-0.000498147
-0.000553424
0.000902643
2.52115e-07
2.35468e-05
3.07331e-06
4.84277e-05
1.04248e-05
5.62493e-05
2.4208e-05
4.83678e-05
4.63167e-05
2.57432e-05
7.86549e-05
-1.08231e-05
0.00012316
-6.06752e-05
0.000181827
-0.000123222
0.000256733
-0.000197808
0.000350056
-0.000283521
0.000464078
-0.000378886
0.00060112
-0.000481335
0.00076327
-0.000586428
0.000951692
-0.000686569
-0.000766439
0.00116471
1.29879e-06
2.2248e-05
7.15382e-06
4.25727e-05
1.95598e-05
4.38433e-05
4.04913e-05
2.74363e-05
7.1938e-05
-5.70348e-06
0.000115923
-5.48083e-05
0.000174524
-0.000119276
0.000249889
-0.000198587
0.000344261
-0.00029218
0.000460003
-0.000399263
0.000599627
-0.00051851
0.000765797
-0.000647505
0.000961166
-0.000781798
0.00118776
-0.000913163
-0.00102353
0.00144485
2.4264e-06
1.98216e-05
1.15506e-05
3.34485e-05
2.94153e-05
2.59786e-05
5.80737e-05
-1.22207e-06
9.96189e-05
-4.72487e-05
0.000156201
-0.000111391
0.000230038
-0.000193112
0.000323421
-0.00029197
0.000438728
-0.000407487
0.000578439
-0.000538974
0.000745174
-0.000685246
0.000941762
-0.000844093
0.00117124
-0.00101127
0.00143646
-0.00117839
-0.0013253
0.00173823
3.62762e-06
1.61939e-05
1.62377e-05
2.08385e-05
3.99266e-05
2.2896e-06
7.68296e-05
-3.8125e-05
0.000129152
-9.95713e-05
0.000199173
-0.000181412
0.000289249
-0.000283188
0.000401808
-0.000404529
0.000539335
-0.000545014
0.000704362
-0.000704001
0.00089948
-0.000880365
0.00112744
-0.00107205
0.0013913
-0.00127514
0.00169443
-0.00148152
-0.00167051
0.00203965
4.89646e-06
1.12975e-05
2.11864e-05
4.54848e-06
5.10189e-05
-2.75428e-05
9.66142e-05
-8.37204e-05
0.000160285
-0.000163242
0.000244439
-0.000265566
0.000351568
-0.000390317
0.000484227
-0.000537188
0.000644994
-0.000705781
0.000836414
-0.00089542
0.00106095
-0.0011049
0.00132099
-0.0013321
0.00161911
-0.00157326
0.00195837
-0.00182078
-0.00205681
0.00234467
6.22641e-06
5.07107e-06
2.63635e-05
-1.55886e-05
6.26069e-05
-6.37862e-05
0.000117251
-0.000138364
0.000192705
-0.000238697
0.000291489
-0.00036435
0.000416213
-0.000515042
0.000569548
-0.000690523
0.000754167
-0.0008904
0.000972659
-0.00111391
0.00122739
-0.00135963
0.0015204
-0.0016251
0.00185314
-0.00190601
0.0022265
-0.00219414
-0.002479
0.00264869
7.60978e-06
-2.53871e-06
3.17315e-05
-3.97103e-05
7.45885e-05
-0.000106643
0.000138527
-0.000202303
0.000226025
-0.000326194
0.000339675
-0.000478
0.000482164
-0.000657531
0.000656238
-0.000864597
0.000864661
-0.00109882
0.00111017
-0.00135942
0.0013954
-0.00164487
0.00172287
-0.00195257
0.00209419
-0.00227733
0.00250518
-0.00260513
-0.00292645
0.00295263
9.0379e-06
-1.15766e-05
3.72464e-05
-6.79188e-05
8.68461e-05
-0.000156243
0.000160197
-0.000275653
0.00025979
-0.000425788
0.000388225
-0.000606435
0.00054817
-0.000817476
0.000742333
-0.00105876
0.00097345
-0.00132994
0.00124434
-0.0016303
0.00155809
-0.00195862
0.00191855
-0.00231303
0.00233215
-0.00269093
0.00281787
-0.00309085
-0.00353502
0.00342645
1.05013e-05
-2.20779e-05
4.28592e-05
-0.000100277
9.92482e-05
-0.000212632
0.000181985
-0.00035839
0.000293499
-0.000537303
0.000436287
-0.000749222
0.000612851
-0.00099404
0.000825651
-0.00127156
0.00107708
-0.00158137
0.0013695
-0.00192272
0.00170542
-0.00229454
0.00208786
-0.00269547
0.00252126
-0.00312432
0.00301324
-0.00358284
-0.00408488
0.0035631
1.1989e-05
-3.40669e-05
4.85161e-05
-0.000136804
0.000111653
-0.000275769
0.000203599
-0.000450337
0.000326627
-0.00066033
0.000482996
-0.000905592
0.000674865
-0.00118591
0.000904199
-0.00150089
0.00117269
-0.00184986
0.00148173
-0.00223177
0.0018324
-0.00264521
0.00222549
-0.00308855
0.00266136
-0.0035602
0.0031388
-0.00406028
-0.00459149
0.00364542
1.34887e-05
-4.75556e-05
5.41581e-05
-0.000177473
0.000123907
-0.000345518
0.000224734
-0.000551164
0.000358641
-0.000794237
0.00052751
-0.00107446
0.000732973
-0.00139137
0.000976274
-0.00174419
0.00125814
-0.00213173
0.00157866
-0.00255229
0.00193717
-0.00300372
0.00233206
-0.00348345
0.00276035
-0.00398848
0.00321607
-0.004516
-0.00506029
0.00368486
1.49863e-05
-6.25418e-05
5.9719e-05
-0.000222206
0.000135846
-0.000421644
0.000245068
-0.000660386
0.000388998
-0.000938167
0.000568999
-0.00125446
0.000786012
-0.00160838
0.00104038
-0.00199856
0.00133168
-0.00242303
0.00165859
-0.0028792
0.00201872
-0.00336385
0.00240841
-0.00387314
0.00282239
-0.00440246
0.00325265
-0.00494626
-0.00549354
0.0036859
1.64646e-05
-7.90065e-05
6.5124e-05
-0.000270865
0.000147288
-0.000503808
0.000264257
-0.000777355
0.000417137
-0.00109105
0.000606637
-0.00144396
0.000832865
-0.00183461
0.00109514
-0.00226083
0.00139181
-0.0027197
0.00172015
-0.00320753
0.00207622
-0.00371992
0.00245483
-0.00425175
0.00284934
-0.00479697
0.00325125
-0.00534817
-0.00589157
0.00364928
1.79034e-05
-9.69099e-05
7.02878e-05
-0.00032325
0.000158032
-0.000591552
0.000281935
-0.000901258
0.000442476
-0.00125159
0.000639592
-0.00164108
0.000872448
-0.00206747
0.00113926
-0.00252764
0.00143714
-0.00301759
0.00176208
-0.00353247
0.00210887
-0.00406672
0.00247128
-0.00461415
0.00284207
-0.00516777
0.00321306
-0.00571916
-0.00625375
0.00357525
1.92784e-05
-0.000116188
7.51145e-05
-0.000379086
0.000167863
-0.000684301
0.000297714
-0.00103111
0.00046442
-0.00141829
0.000667037
-0.00184369
0.000903716
-0.00230415
0.00117154
-0.00279547
0.00146647
-0.00331252
0.00178335
-0.00384934
0.00211606
-0.00439943
0.00245776
-0.00495585
0.0028012
-0.00551121
0.00313906
-0.00605702
-0.00657926
0.00346457
2.05622e-05
-0.00013675
7.94987e-05
-0.000438022
0.000176547
-0.000781349
0.000311196
-0.00116576
0.00048237
-0.00158947
0.000688174
-0.0020495
0.000925705
-0.00254168
0.00119095
-0.00306072
0.0014788
-0.00360037
0.00178322
-0.00415376
0.00209749
-0.0047137
0.00241459
-0.00527295
0.0027277
-0.00582433
0.00303066
-0.00635997
-0.00686744
0.00331884
2.17244e-05
-0.000158475
8.33288e-05
-0.000499627
0.000183849
-0.000881869
0.000321983
-0.00130389
0.000495753
-0.00176324
0.00070227
-0.00225601
0.000937577
-0.00277699
0.00119664
-0.00331978
0.00147346
-0.00387719
0.00176135
-0.00444165
0.00205334
-0.00500568
0.00234261
-0.00556223
0.0026231
-0.00610481
0.00288996
-0.00662683
-0.00711802
0.00314054
2.27329e-05
-0.000181208
8.64907e-05
-0.000563385
0.000189531
-0.00098491
0.000329692
-0.00144405
0.000504046
-0.00193759
0.000708691
-0.00246066
0.00093867
-0.00300697
0.00118804
-0.00356915
0.00145013
-0.00413927
0.00171787
-0.0047094
0.00198433
-0.00527215
0.00224325
-0.00582114
0.00248951
-0.00635107
0.00271969
-0.00685701
-0.0073312
0.00293286
2.35553e-05
-0.000204763
8.88724e-05
-0.000628702
0.000193371
-0.00108941
0.00033398
-0.00158466
0.000506799
-0.00211041
0.000706941
-0.0026608
0.000928537
-0.00322856
0.0011649
-0.00380552
0.00140889
-0.00438326
0.00165337
-0.00495387
0.00189173
-0.00551051
0.00211846
-0.00604787
0.00232958
-0.0065622
0.00252306
-0.00705048
-0.00750759
0.00269944
2.41598e-05
-0.000228923
9.03689e-05
-0.000694911
0.000195168
-0.00119421
0.000334554
-0.00172405
0.000503663
-0.00227952
0.000696689
-0.00285383
0.000906973
-0.00343884
0.00112728
-0.00402583
0.00135025
-0.00460623
0.00156891
-0.00517253
0.00177723
-0.00571883
0.00197063
-0.00624127
0.00214633
-0.00673789
0.00230357
-0.00720772
-0.00764813
0.00244411
2.45171e-05
-0.00025344
9.08868e-05
-0.000761281
0.000194755
-0.00129808
0.000331187
-0.00186048
0.000494406
-0.00244274
0.000677783
-0.00303721
0.000874031
-0.00363509
0.00107558
-0.00422737
0.00127507
-0.00480572
0.00146594
-0.00536339
0.00164292
-0.00589581
0.00180247
-0.00640082
0.00194295
-0.00687838
0.0020648
-0.00732957
-0.00775401
0.00217068
2.4601e-05
-0.000278041
9.03486e-05
-0.000827028
0.000192001
-0.00139973
0.00032373
-0.00199221
0.000478922
-0.00259793
0.00065026
-0.00320854
0.000830007
-0.00381484
0.00101047
-0.00440783
0.00118453
-0.00497978
0.00134621
-0.00552508
0.00149114
-0.00604074
0.00161682
-0.0065265
0.00172273
-0.00698429
0.00181028
-0.00741711
-0.00782654
0.00188281
2.439e-05
-0.000302431
8.86952e-05
-0.000891333
0.000186823
-0.00149786
0.000312119
-0.0021175
0.000457241
-0.00274305
0.00061434
-0.00336564
0.000775433
-0.00397593
0.000932906
-0.0045653
0.00108008
-0.00512696
0.00121172
-0.00565672
0.00132438
-0.0061534
0.0014166
-0.00661872
0.00148886
-0.00705655
0.00154335
-0.00747161
-0.00786709
0.0015839
2.38676e-05
-0.000326298
8.58889e-05
-0.000953355
0.000179186
-0.00159115
0.000296371
-0.00223469
0.000429515
-0.0028762
0.000570416
-0.00350654
0.000711036
-0.00411655
0.000844046
-0.00469831
0.000963359
-0.00524627
0.00106456
-0.00575792
0.00114517
-0.00623402
0.00120468
-0.00667823
0.00124438
-0.00709624
0.00126711
-0.00749434
-0.00787698
0.001277
2.30233e-05
-0.000349322
8.19143e-05
-0.00101225
0.000169101
-0.00167834
0.00027659
-0.00234218
0.000396021
-0.00299563
0.000519026
-0.00362955
0.00063771
-0.00423524
0.000745198
-0.0048058
0.000836115
-0.00533719
0.000906921
-0.00582873
0.00095604
-0.00628314
0.000983789
-0.00670598
0.000992127
-0.00710458
0.000984361
-0.00748657
-0.00785743
0.000964804
2.18528e-05
-0.000371175
7.67789e-05
-0.00106717
0.000156632
-0.00175819
0.000252956
-0.0024385
0.000357139
-0.00309981
0.000460834
-0.00373324
0.000556472
-0.00433087
0.000637774
-0.0048871
0.000700156
-0.00539957
0.000740948
-0.00586952
0.000759403
-0.00630159
0.000756513
-0.00670309
0.000734707
-0.00708278
0.000697578
-0.00744944
-0.00780951
0.000649657
2.0358e-05
-0.000391533
7.05125e-05
-0.00111733
0.000141883
-0.00182956
0.000225718
-0.00252234
0.000313337
-0.00318743
0.000396598
-0.0038165
0.00046842
-0.0044027
0.000523232
-0.00494192
0.000557284
-0.00543362
0.000568743
-0.00588098
0.000557582
-0.00629043
0.000525306
-0.00667081
0.000474589
-0.00703206
0.000408934
-0.00738379
-0.0077342
0.000333626
1.85469e-05
-0.00041008
6.31658e-05
-0.00116195
0.000125002
-0.0018914
0.000195185
-0.00259252
0.000265152
-0.0032574
0.000327141
-0.00387849
0.000374694
-0.00445025
0.00040303
-0.00497025
0.000409246
-0.00543984
0.000392293
-0.00586402
0.000352756
-0.00625089
0.00029253
-0.00661058
0.000214454
-0.00695398
0.000121656
-0.00729099
-0.00762737
1.48281e-05
1.64334e-05
-0.000426513
5.48087e-05
-0.00120032
0.00010617
-0.00194276
0.000161714
-0.00264806
0.000213172
-0.00330886
0.000253323
-0.00391865
0.000276441
-0.00447337
0.000278584
-0.0049724
0.000257685
-0.00541894
0.000213406
-0.00581974
0.000146849
-0.00618434
6.01927e-05
-0.00652393
-4.36112e-05
-0.00685018
-0.000161184
-0.00717342
-0.00750003
-0.000288526
1.40368e-05
-0.00044055
4.5528e-05
-0.00123181
8.5599e-05
-0.00198283
0.000125695
-0.00268816
0.000158017
-0.00334118
0.000176016
-0.00393664
0.000174781
-0.00447213
0.000151233
-0.00494885
0.000104104
-0.00537181
3.3681e-05
-0.00574932
-5.85399e-05
-0.00609212
-0.000170236
-0.00641223
-0.000298555
-0.00672186
-0.000440186
-0.00703179
-0.00734943
-0.000590782
1.13817e-05
-0.000451931
3.54256e-05
-0.00125586
6.35234e-05
-0.00201093
8.75493e-05
-0.00271219
0.000100326
-0.00335395
9.6085e-05
-0.0039324
7.07965e-05
-0.00444684
2.22371e-05
-0.00490029
-5.01291e-05
-0.00529944
-0.000145458
-0.00565399
-0.00026198
-0.00597559
-0.000397375
-0.00627684
-0.000548995
-0.00657024
-0.000713712
-0.00686707
-0.00717559
-0.000887549
8.4971e-06
-0.000460429
2.46167e-05
-0.00127198
4.01984e-05
-0.00202651
4.77111e-05
-0.0027197
4.07474e-05
-0.00334699
1.44033e-05
-0.00390606
-3.44875e-05
-0.00439795
-0.000107275
-0.0048275
-0.000203796
-0.00520292
-0.000322767
-0.00553502
-0.000462233
-0.00583613
-0.000619979
-0.00611909
-0.000793698
-0.00639652
-0.000980674
-0.00668009
-0.00697923
-0.00117704
5.41918e-06
-0.000465848
1.32285e-05
-0.00127978
1.5895e-05
-0.00202918
6.66183e-06
-0.00271046
-2.00843e-05
-0.00332024
-6.82803e-05
-0.00385786
-0.000140133
-0.0043261
-0.000236233
-0.0047314
-0.000355808
-0.00508335
-0.000497179
-0.00539365
-0.000658267
-0.00567504
-0.000837025
-0.00594033
-0.00103161
-0.00620193
-0.00123993
-0.00647177
-0.00676108
-0.00145809
2.23095e-06
-0.000468079
1.3868e-06
-0.00127894
-9.12243e-06
-0.00201867
-3.52507e-05
-0.00268434
-8.15802e-05
-0.00327392
-0.00015112
-0.00378832
-0.000245208
-0.00423201
-0.000363679
-0.00461293
-0.00050521
-0.00494182
-0.000667797
-0.00523106
-0.000849266
-0.00549357
-0.00104774
-0.00574186
-0.00126195
-0.00598773
-0.00149067
-0.00624306
-0.00652167
-0.00173008
-1.23119e-06
-0.000466848
-1.07805e-05
-0.00126939
-3.45747e-05
-0.00199487
-7.74827e-05
-0.00264143
-0.000143072
-0.00320833
-0.000233371
-0.00369802
-0.000348866
-0.00411652
-0.000488719
-0.00447308
-0.000651144
-0.00477939
-0.000833869
-0.00504834
-0.00103463
-0.00529281
-0.00125167
-0.00552482
-0.00148421
-0.00575519
-0.00173225
-0.00599502
-0.00626086
-0.00199305
-4.63313e-06
-0.000462214
-2.31046e-05
-0.00125092
-6.01611e-05
-0.00195782
-0.000119616
-0.00258197
-0.000203977
-0.00312397
-0.000314305
-0.00358769
-0.000450287
-0.00398053
-0.000610502
-0.00431286
-0.000792798
-0.0045971
-0.000994726
-0.00484641
-0.00121396
-0.00507357
-0.00144877
-0.00529001
-0.00169863
-0.00550532
-0.00196463
-0.00572902
-0.00597694
-0.00224855
-8.11123e-06
-0.000454103
-3.5457e-05
-0.00122357
-8.56081e-05
-0.00190767
-0.000161221
-0.00250636
-0.000263718
-0.00302147
-0.000393219
-0.00345819
-0.000548673
-0.00382508
-0.000728169
-0.00413337
-0.000929308
-0.00439596
-0.00114961
-0.00462611
-0.00138684
-0.00483634
-0.00163939
-0.00503746
-0.0019069
-0.00523781
-0.00219228
-0.00544365
-0.00566968
-0.00249953
-1.1589e-05
-0.000442514
-4.76966e-05
-0.00118747
-0.000110644
-0.00184472
-0.000201883
-0.00241512
-0.000321747
-0.0029016
-0.000469441
-0.0033105
-0.000643242
-0.00365128
-0.000840823
-0.00393579
-0.00105964
-0.00417714
-0.0012973
-0.00438845
-0.00155192
-0.00458173
-0.00182239
-0.00476699
-0.00210836
-0.00495184
-0.00241028
-0.00514172
-0.0053355
-0.00274446
-1.50209e-05
-0.000427493
-5.96857e-05
-0.0011428
-0.00013501
-0.0017694
-0.000241218
-0.00230891
-0.000377557
-0.00276526
-0.000542359
-0.0031457
-0.000733271
-0.00346037
-0.000947601
-0.00372146
-0.00118268
-0.00394205
-0.00143622
-0.00413491
-0.00170655
-0.0043114
-0.00199279
-0.00448075
-0.00229477
-0.00464986
-0.00261363
-0.00482287
-0.00499763
-0.0029515
-1.83664e-05
-0.000409127
-7.12963e-05
-0.00108987
-0.000158469
-0.00168222
-0.000278877
-0.0021885
-0.000430705
-0.00261344
-0.000611447
-0.00296496
-0.000818167
-0.00325365
-0.00104783
-0.00349179
-0.00129765
-0.00369224
-0.00156533
-0.00386723
-0.00184928
-0.00402745
-0.00214862
-0.00418142
-0.00246309
-0.00433538
-0.00279303
-0.00449294
-0.00465331
-0.00313734
-2.15884e-05
-0.000387539
-8.24123e-05
-0.00102905
-0.00018081
-0.00158383
-0.000314558
-0.00205476
-0.000480814
-0.00244718
-0.000676282
-0.00276949
-0.000897488
-0.00303244
-0.00114109
-0.00324819
-0.00140416
-0.00342917
-0.0016844
-0.003587
-0.00198021
-0.00373164
-0.00229068
-0.00387095
-0.00261542
-0.00401064
-0.00295432
-0.00415404
-0.00430141
-0.00330621
-2.46529e-05
-0.000362886
-9.29294e-05
-0.000960771
-0.000201847
-0.00147491
-0.000348001
-0.0019086
-0.000527573
-0.00226761
-0.000736533
-0.00256053
-0.000970917
-0.00279806
-0.00122711
-0.002992
-0.00150207
-0.00315421
-0.00179348
-0.00329558
-0.00209977
-0.00342534
-0.00242003
-0.00355069
-0.00275383
-0.00367684
-0.00310096
-0.0038069
-0.0039417
-0.00346068
-2.75299e-05
-0.000335356
-0.000102756
-0.000885545
-0.000221418
-0.00135625
-0.000378986
-0.00175104
-0.000570728
-0.00207587
-0.00079194
-0.00233932
-0.00103822
-0.00255178
-0.00130572
-0.0027245
-0.00159131
-0.00286861
-0.0018927
-0.0029942
-0.00220834
-0.0031097
-0.00253739
-0.00322165
-0.00287946
-0.00333477
-0.00323443
-0.00345194
-0.00357421
-0.00360192
-3.01924e-05
-0.000305163
-0.000111812
-0.000803926
-0.000239386
-0.00122867
-0.000407331
-0.00158309
-0.000610071
-0.00187313
-0.000842295
-0.00210709
-0.00109922
-0.00229485
-0.0013768
-0.00244692
-0.00167187
-0.00257355
-0.00198214
-0.00268393
-0.00230616
-0.00278567
-0.00264316
-0.00288464
-0.00299286
-0.00298507
-0.00335527
-0.00308953
-0.00319916
-0.00373032
-3.26168e-05
-0.000272546
-0.000120026
-0.000716516
-0.000255632
-0.00109307
-0.000432878
-0.00140584
-0.000645428
-0.00166058
-0.000887434
-0.00186509
-0.00115378
-0.00202851
-0.00144027
-0.00216043
-0.0017437
-0.00227012
-0.00206184
-0.00236578
-0.00239334
-0.00245417
-0.00273752
-0.00254047
-0.00309422
-0.00262836
-0.0034636
-0.00272015
-0.00281692
-0.00384583
-3.47824e-05
-0.000237764
-0.000127341
-0.000623958
-0.000270055
-0.000950353
-0.000455499
-0.0012204
-0.000676658
-0.00143942
-0.000927216
-0.00161453
-0.00120178
-0.00175394
-0.00149603
-0.00186618
-0.00180676
-0.00195939
-0.0021318
-0.00204074
-0.00246989
-0.00211609
-0.00282047
-0.00218989
-0.0031835
-0.00226533
-0.00355927
-0.00234437
-0.00242802
-0.00394817
-3.66714e-05
-0.000201093
-0.000133703
-0.000526926
-0.00028257
-0.000801486
-0.000475082
-0.00102789
-0.00070364
-0.00121086
-0.000961527
-0.00135664
-0.00124312
-0.00147234
-0.00154402
-0.00156529
-0.001861
-0.0016424
-0.00219198
-0.00170977
-0.00253577
-0.00177229
-0.00289194
-0.00183372
-0.00326056
-0.00189671
-0.00364205
-0.00196288
-0.00203313
-0.00403695
-3.82686e-05
-0.000162824
-0.00013907
-0.000426125
-0.000293106
-0.00064745
-0.000491538
-0.000829456
-0.000726274
-0.000976122
-0.00099027
-0.00109265
-0.00127772
-0.00118489
-0.00158414
-0.00125886
-0.00190634
-0.0013202
-0.00224229
-0.00137382
-0.00259089
-0.00142369
-0.0029518
-0.00147281
-0.00332521
-0.0015233
-0.00371163
-0.00157646
-0.00163303
-0.00411172
-3.95615e-05
-0.000123263
-0.000143406
-0.00032228
-0.000301604
-0.000489253
-0.00050479
-0.000626269
-0.00074448
-0.000736433
-0.00101336
-0.000823763
-0.00130549
-0.000892764
-0.00161634
-0.00094802
-0.00194272
-0.000993821
-0.00228266
-0.00103389
-0.00263514
-0.00107121
-0.00299992
-0.00110804
-0.00337724
-0.00114598
-0.00376771
-0.00118599
-0.00122865
-0.0041721
-4.054e-05
-8.27226e-05
-0.000146683
-0.000216137
-0.000308017
-0.000327918
-0.000514781
-0.000419505
-0.00075819
-0.000493025
-0.00103074
-0.000551213
-0.00132638
-0.000597126
-0.00164054
-0.000633857
-0.00197007
-0.000664296
-0.00231301
-0.000690936
-0.00266844
-0.000715782
-0.00303614
-0.000740337
-0.00341645
-0.000765667
-0.00381003
-0.000792413
-0.000820963
-0.00421771
-4.11966e-05
-4.15261e-05
-0.000148879
-0.000108455
-0.000312312
-0.000164485
-0.000521467
-0.000210351
-0.000767358
-0.000247133
-0.00104235
-0.000276218
-0.00134033
-0.000299148
-0.00165671
-0.000317482
-0.00198833
-0.000332673
-0.00233329
-0.000345973
-0.00269069
-0.000358386
-0.00306036
-0.000370664
-0.00344269
-0.000383341
-0.00383836
-0.000396736
-0.000411045
-0.00424828
-4.15261e-05
3.4988e-13
-0.000149981
9.32135e-13
-0.000314466
1.43491e-12
-0.000524816
1.84983e-12
-0.00077195
2.16998e-12
-0.00104817
2.39607e-12
-0.00134732
2.54423e-12
-0.0016648
2.63408e-12
-0.00199747
2.68235e-12
-0.00234344
2.70139e-12
-0.00270183
2.70243e-12
-0.00307249
2.69408e-12
-0.00345583
2.68115e-12
-0.00385257
2.66519e-12
2.64621e-12
-0.00426362
-4.15261e-05
4.15261e-05
-0.000149981
0.000108455
-0.000314466
0.000164485
-0.000524816
0.000210351
-0.00077195
0.000247133
-0.00104817
0.000276218
-0.00134732
0.000299148
-0.0016648
0.000317482
-0.00199747
0.000332673
-0.00234344
0.000345973
-0.00270183
0.000358386
-0.00307249
0.000370664
-0.00345583
0.000383341
-0.00385257
0.000396736
0.000411045
-0.00426362
-4.11966e-05
8.27226e-05
-0.000148879
0.000216137
-0.000312312
0.000327918
-0.000521467
0.000419505
-0.000767358
0.000493025
-0.00104235
0.000551213
-0.00134033
0.000597126
-0.00165671
0.000633857
-0.00198833
0.000664296
-0.00233329
0.000690936
-0.00269069
0.000715782
-0.00306036
0.000740337
-0.00344269
0.000765667
-0.00383836
0.000792413
0.000820963
-0.00424828
-4.054e-05
0.000123263
-0.000146683
0.00032228
-0.000308017
0.000489253
-0.000514781
0.000626269
-0.00075819
0.000736433
-0.00103074
0.000823763
-0.00132638
0.000892764
-0.00164054
0.00094802
-0.00197007
0.000993821
-0.00231301
0.00103389
-0.00266844
0.00107121
-0.00303614
0.00110804
-0.00341645
0.00114598
-0.00381003
0.00118599
0.00122865
-0.00421771
-3.95615e-05
0.000162824
-0.000143406
0.000426125
-0.000301604
0.00064745
-0.00050479
0.000829456
-0.00074448
0.000976122
-0.00101336
0.00109265
-0.00130549
0.00118489
-0.00161634
0.00125886
-0.00194272
0.0013202
-0.00228266
0.00137382
-0.00263514
0.00142369
-0.00299992
0.00147281
-0.00337724
0.0015233
-0.00376771
0.00157646
0.00163303
-0.0041721
-3.82686e-05
0.000201093
-0.00013907
0.000526926
-0.000293106
0.000801486
-0.000491538
0.00102789
-0.000726274
0.00121086
-0.00099027
0.00135664
-0.00127772
0.00147234
-0.00158414
0.00156529
-0.00190634
0.0016424
-0.00224229
0.00170977
-0.00259089
0.00177229
-0.0029518
0.00183372
-0.00332521
0.00189671
-0.00371163
0.00196288
0.00203313
-0.00411172
-3.66714e-05
0.000237764
-0.000133703
0.000623958
-0.00028257
0.000950353
-0.000475082
0.0012204
-0.00070364
0.00143942
-0.000961527
0.00161453
-0.00124312
0.00175394
-0.00154402
0.00186618
-0.001861
0.00195939
-0.00219198
0.00204074
-0.00253577
0.00211609
-0.00289194
0.00218989
-0.00326056
0.00226533
-0.00364205
0.00234437
0.00242802
-0.00403695
-3.47824e-05
0.000272546
-0.000127341
0.000716516
-0.000270055
0.00109307
-0.000455499
0.00140584
-0.000676658
0.00166058
-0.000927216
0.00186509
-0.00120178
0.00202851
-0.00149603
0.00216043
-0.00180676
0.00227012
-0.0021318
0.00236578
-0.00246989
0.00245417
-0.00282047
0.00254047
-0.0031835
0.00262836
-0.00355927
0.00272015
0.00281692
-0.00394817
-3.26168e-05
0.000305163
-0.000120026
0.000803926
-0.000255632
0.00122867
-0.000432878
0.00158309
-0.000645428
0.00187313
-0.000887434
0.00210709
-0.00115378
0.00229485
-0.00144027
0.00244692
-0.0017437
0.00257355
-0.00206184
0.00268393
-0.00239334
0.00278567
-0.00273752
0.00288464
-0.00309422
0.00298507
-0.0034636
0.00308953
0.00319916
-0.00384583
-3.01924e-05
0.000335356
-0.000111812
0.000885545
-0.000239386
0.00135625
-0.000407331
0.00175104
-0.000610071
0.00207587
-0.000842295
0.00233932
-0.00109922
0.00255178
-0.0013768
0.0027245
-0.00167187
0.00286861
-0.00198214
0.0029942
-0.00230616
0.0031097
-0.00264316
0.00322165
-0.00299286
0.00333477
-0.00335527
0.00345194
0.00357421
-0.00373032
-2.75299e-05
0.000362886
-0.000102756
0.000960771
-0.000221418
0.00147491
-0.000378986
0.0019086
-0.000570728
0.00226761
-0.00079194
0.00256053
-0.00103822
0.00279806
-0.00130572
0.002992
-0.00159131
0.00315421
-0.0018927
0.00329558
-0.00220834
0.00342534
-0.00253739
0.00355069
-0.00287946
0.00367684
-0.00323443
0.0038069
0.0039417
-0.00360192
-2.46529e-05
0.000387539
-9.29294e-05
0.00102905
-0.000201847
0.00158383
-0.000348001
0.00205476
-0.000527573
0.00244718
-0.000736533
0.00276949
-0.000970917
0.00303244
-0.00122711
0.00324819
-0.00150207
0.00342917
-0.00179348
0.003587
-0.00209977
0.00373164
-0.00242003
0.00387095
-0.00275383
0.00401064
-0.00310096
0.00415404
0.00430141
-0.00346068
-2.15884e-05
0.000409127
-8.24123e-05
0.00108987
-0.00018081
0.00168222
-0.000314558
0.0021885
-0.000480814
0.00261344
-0.000676282
0.00296496
-0.000897488
0.00325365
-0.00114109
0.00349179
-0.00140416
0.00369224
-0.0016844
0.00386723
-0.00198021
0.00402745
-0.00229068
0.00418142
-0.00261542
0.00433538
-0.00295432
0.00449294
0.00465331
-0.00330621
-1.83664e-05
0.000427493
-7.12963e-05
0.0011428
-0.000158469
0.0017694
-0.000278877
0.00230891
-0.000430705
0.00276526
-0.000611447
0.0031457
-0.000818167
0.00346037
-0.00104783
0.00372146
-0.00129765
0.00394205
-0.00156533
0.00413491
-0.00184928
0.0043114
-0.00214862
0.00448075
-0.00246309
0.00464986
-0.00279303
0.00482287
0.00499763
-0.00313734
-1.50209e-05
0.000442514
-5.96857e-05
0.00118747
-0.00013501
0.00184472
-0.000241218
0.00241512
-0.000377557
0.0029016
-0.000542359
0.0033105
-0.000733271
0.00365128
-0.000947601
0.00393579
-0.00118268
0.00417714
-0.00143622
0.00438845
-0.00170655
0.00458173
-0.00199279
0.00476699
-0.00229477
0.00495184
-0.00261363
0.00514172
0.0053355
-0.0029515
-1.1589e-05
0.000454103
-4.76966e-05
0.00122357
-0.000110644
0.00190767
-0.000201883
0.00250636
-0.000321747
0.00302147
-0.000469441
0.00345819
-0.000643242
0.00382508
-0.000840823
0.00413337
-0.00105964
0.00439596
-0.0012973
0.00462611
-0.00155192
0.00483634
-0.00182239
0.00503746
-0.00210836
0.00523781
-0.00241028
0.00544365
0.00566968
-0.00274446
-8.11123e-06
0.000462214
-3.5457e-05
0.00125092
-8.56081e-05
0.00195782
-0.000161221
0.00258197
-0.000263718
0.00312397
-0.000393219
0.00358769
-0.000548673
0.00398053
-0.000728169
0.00431286
-0.000929308
0.0045971
-0.00114961
0.00484641
-0.00138684
0.00507357
-0.00163939
0.00529001
-0.0019069
0.00550532
-0.00219228
0.00572902
0.00597694
-0.00249953
-4.63313e-06
0.000466848
-2.31046e-05
0.00126939
-6.01611e-05
0.00199487
-0.000119616
0.00264143
-0.000203977
0.00320833
-0.000314305
0.00369802
-0.000450287
0.00411652
-0.000610502
0.00447308
-0.000792798
0.00477939
-0.000994726
0.00504834
-0.00121396
0.00529281
-0.00144877
0.00552482
-0.00169863
0.00575519
-0.00196463
0.00599502
0.00626086
-0.00224855
-1.23119e-06
0.000468079
-1.07805e-05
0.00127894
-3.45747e-05
0.00201867
-7.74827e-05
0.00268434
-0.000143072
0.00327392
-0.000233371
0.00378832
-0.000348866
0.00423201
-0.000488719
0.00461293
-0.000651144
0.00494182
-0.000833869
0.00523106
-0.00103463
0.00549357
-0.00125167
0.00574186
-0.00148421
0.00598773
-0.00173225
0.00624306
0.00652167
-0.00199305
2.23095e-06
0.000465848
1.3868e-06
0.00127978
-9.12243e-06
0.00202918
-3.52507e-05
0.00271046
-8.15802e-05
0.00332024
-0.00015112
0.00385786
-0.000245208
0.0043261
-0.000363679
0.0047314
-0.00050521
0.00508335
-0.000667797
0.00539365
-0.000849266
0.00567504
-0.00104774
0.00594033
-0.00126195
0.00620193
-0.00149067
0.00647177
0.00676108
-0.00173008
5.41918e-06
0.000460429
1.32285e-05
0.00127198
1.5895e-05
0.00202651
6.66183e-06
0.0027197
-2.00843e-05
0.00334699
-6.82803e-05
0.00390606
-0.000140133
0.00439795
-0.000236233
0.0048275
-0.000355808
0.00520292
-0.000497179
0.00553502
-0.000658267
0.00583613
-0.000837025
0.00611909
-0.00103161
0.00639652
-0.00123993
0.00668009
0.00697923
-0.00145809
8.4971e-06
0.000451931
2.46167e-05
0.00125586
4.01984e-05
0.00201093
4.77111e-05
0.00271219
4.07474e-05
0.00335395
1.44033e-05
0.0039324
-3.44875e-05
0.00444684
-0.000107275
0.00490029
-0.000203796
0.00529944
-0.000322767
0.00565399
-0.000462233
0.00597559
-0.000619979
0.00627684
-0.000793698
0.00657024
-0.000980674
0.00686707
0.00717559
-0.00117704