/*--------------------------------*- C++ -*----------------------------------*\
  =========                 |
  \\      /  F ield         | OpenFOAM: The Open Source CFD Toolbox
   \\    /   O peration     | Website:  https://openfoam.org
    \\  /    A nd           | Version:  7
     \\/     M anipulation  |
\*---------------------------------------------------------------------------*/
FoamFile
{
    version     2.0;
    format      ascii;
    class       volVectorField;
    location    "15";
    object      U;
}
// * * * * * * * * * * * * * * * * * * * * * * * * * * * * * * * * * * * * * //

dimensions      [0 1 -1 0 0 0 0];

internalField   nonuniform List<vector> 
12150
(
(-0.000611932 0.000669572 -7.07492e-22)
(-0.00299574 0.00147199 7.10632e-22)
(-0.00712332 0.001879 -3.37588e-21)
(-0.0117391 0.00199812 3.88724e-21)
(-0.016244 0.00190364 -3.81354e-21)
(-0.0202667 0.00165464 -5.58022e-21)
(-0.0235343 0.00130032 -3.43039e-23)
(-0.0258769 0.00088243 9.09447e-22)
(-0.0272151 0.000438108 -8.42062e-22)
(-0.0275477 2.37787e-06 8.5404e-23)
(-0.0269469 -0.00039002 4.75014e-21)
(-0.025561 -0.000703653 4.05682e-21)
(-0.0236093 -0.000904646 -4.68079e-21)
(-0.0213331 -0.000968239 -4.37071e-21)
(-0.0190943 -0.000858653 -6.90377e-22)
(-0.000735704 0.0019824 2.0249e-21)
(-0.0032086 0.00435238 -2.03469e-21)
(-0.00726106 0.00554972 -3.77127e-21)
(-0.0116844 0.00589283 1.3035e-20)
(-0.0159032 0.0056023 -1.53739e-21)
(-0.0195623 0.00485367 -8.52526e-22)
(-0.0224022 0.00379305 1.19257e-20)
(-0.0242626 0.00254438 3.78954e-21)
(-0.0250714 0.001218 1.5879e-21)
(-0.0248323 -8.18019e-05 -2.08326e-21)
(-0.0236215 -0.00125109 -9.13743e-21)
(-0.0215923 -0.00218335 1.16096e-20)
(-0.0189783 -0.00277585 -3.97171e-21)
(-0.0160177 -0.00295071 -3.06229e-21)
(-0.0129732 -0.0026042 5.39369e-21)
(-0.000973959 0.00321728 1.87217e-20)
(-0.00361152 0.00704436 -1.36399e-20)
(-0.00750471 0.00896178 5.97783e-21)
(-0.0115371 0.0094867 -1.75815e-20)
(-0.0151796 0.0089793 2.85788e-20)
(-0.0181093 0.00772656 -1.15361e-20)
(-0.0200928 0.00596702 -1.11887e-20)
(-0.0209892 0.00390294 8.13112e-22)
(-0.0207405 0.00171464 -1.19988e-20)
(-0.0193605 -0.000426824 1.19873e-20)
(-0.0169326 -0.00234938 -1.66076e-20)
(-0.0136198 -0.00387515 -8.16615e-21)
(-0.00968252 -0.00482994 -1.80263e-21)
(-0.00537116 -0.00505375 4.94775e-21)
(-0.000715575 -0.00428128 3.92071e-21)
(-0.00130846 0.00432553 6.78397e-21)
(-0.00415954 0.00942993 2.82369e-21)
(-0.00779133 0.0119532 2.18668e-20)
(-0.0112218 0.0125916 2.91498e-20)
(-0.0139898 0.0118342 -1.60154e-20)
(-0.0158196 0.0100712 1.68873e-21)
(-0.016516 0.00762629 -5.99904e-21)
(-0.0159672 0.00477381 3.86073e-21)
(-0.0141356 0.00175845 6.56344e-21)
(-0.01105 -0.00118637 1.03675e-20)
(-0.0068046 -0.00382296 -2.57829e-20)
(-0.00157599 -0.00590204 1.28825e-20)
(0.00435682 -0.0071762 2.88696e-20)
(0.0107871 -0.00736734 -4.31449e-20)
(0.0175712 -0.00603836 -3.54824e-21)
(-0.00171262 0.00526313 -1.74249e-20)
(-0.00478686 0.0114021 -3.31717e-22)
(-0.00802829 0.0143771 -1.96312e-20)
(-0.0106273 0.0150376 -5.7314e-20)
(-0.0122101 0.013987 3.89535e-20)
(-0.012562 0.0117079 -4.37824e-20)
(-0.0115375 0.00859954 3.40245e-20)
(-0.00906232 0.00499943 3.10695e-21)
(-0.00512639 0.00120906 2.97309e-20)
(0.000222273 -0.00248268 -1.20809e-20)
(0.00687465 -0.00577723 7.78693e-21)
(0.0146329 -0.00835611 1.46708e-20)
(0.0231967 -0.00989201 -3.29684e-20)
(0.0324187 -0.00997755 4.03915e-20)
(0.0420659 -0.00802328 8.74548e-21)
(-0.00215244 0.00599219 2.9322e-20)
(-0.00540854 0.0128685 -5.03007e-20)
(-0.00809536 0.0161072 1.07489e-20)
(-0.00960851 0.0166794 4.9311e-20)
(-0.00967856 0.0152857 -4.02176e-20)
(-0.00816378 0.012488 3.90509e-20)
(-0.00497919 0.00874915 2.4734e-20)
(-9.64286e-05 0.0044594 -4.0584e-20)
(0.00646069 -3.30685e-05 9.3584e-21)
(0.0146196 -0.00439271 2.7039e-20)
(0.0242526 -0.0082678 -3.51157e-20)
(0.0351367 -0.0112745 5.60308e-20)
(0.0469378 -0.0129968 -1.0126e-20)
(0.0595658 -0.0128717 -2.63825e-20)
(0.072759 -0.010096 -1.08661e-20)
(-0.00258744 0.00648209 -4.37117e-20)
(-0.00592277 0.0137542 6.37956e-21)
(-0.00784741 0.0170418 2.57287e-20)
(-0.00798919 0.0174019 -5.27299e-20)
(-0.00619726 0.015613 2.54594e-20)
(-0.00241345 0.0123012 3.44827e-20)
(0.00337781 0.00797966 3.49083e-20)
(0.0111508 0.00307943 -6.86894e-22)
(0.0208411 -0.00201612 -4.00115e-20)
(0.0323458 -0.00693601 -5.8006e-20)
(0.0455142 -0.011286 5.09078e-20)
(0.060094 -0.0146242 6.41692e-21)
(0.0757068 -0.0164461 -1.14199e-20)
(0.0923164 -0.0159928 2.63883e-20)
(0.109677 -0.0121524 7.27488e-20)
(-0.00297192 0.00671011 2.2479e-20)
(-0.00621327 0.0140039 9.65018e-21)
(-0.00711771 0.0171079 -3.38697e-21)
(-0.0055659 0.0171253 1.66819e-20)
(-0.00153678 0.0148915 -2.15671e-20)
(0.00493556 0.0110816 -8.72935e-20)
(0.0137893 0.00624437 -2.37422e-20)
(0.0249375 0.000838868 -9.65114e-20)
(0.038268 -0.00472873 7.48881e-20)
(0.0536411 -0.0100655 -2.55574e-20)
(0.0708767 -0.0147484 -9.56222e-22)
(0.0896887 -0.0182913 -3.10704e-20)
(0.109645 -0.0201097 -4.36011e-20)
(0.130763 -0.0192114 -3.02099e-20)
(0.152859 -0.0140576 -3.22448e-21)
(-0.00325604 0.00666172 3.3197e-20)
(-0.00615241 0.0135847 7.32843e-21)
(-0.00572135 0.0162639 6.48473e-20)
(-0.00211267 0.0158081 -1.81408e-20)
(0.00455827 0.0130887 5.45289e-20)
(0.0141583 0.0088127 2.82021e-20)
(0.0265412 0.00355058 3.98239e-20)
(0.0415522 -0.00222395 1.38598e-21)
(0.0590242 -0.00809463 2.83362e-21)
(0.078772 -0.0136609 1.1497e-20)
(0.100579 -0.0184883 -1.53347e-20)
(0.124118 -0.0220676 3.95007e-20)
(0.148894 -0.0237551 9.45691e-21)
(0.174977 -0.0223029 -3.49672e-20)
(0.202315 -0.0156125 1.56513e-20)
(-0.00338613 0.00633177 -3.26009e-20)
(-0.00560388 0.012486 -3.73872e-21)
(-0.00346141 0.0145006 -4.76645e-20)
(0.00261319 0.0134507 1.26155e-20)
(0.0123623 0.0102201 -1.48886e-20)
(0.0255495 0.00553154 5.09822e-21)
(0.0419391 -3.71321e-05 4.37023e-21)
(0.0613021 -0.00600956 -4.373e-20)
(0.0834082 -0.0119714 3.97263e-20)
(0.108017 -0.0175284 2.39754e-20)
(0.134865 -0.0222538 -6.07259e-20)
(0.163573 -0.0256431 -5.97418e-20)
(0.193572 -0.0270325 3.38486e-20)
(0.224978 -0.0249232 -1.45273e-20)
(0.257956 -0.0165269 -6.40718e-21)
(-0.00330746 0.00572342 -8.78643e-20)
(-0.00442583 0.0107192 1.53666e-20)
(-0.000132458 0.0118447 1.908e-21)
(0.00886328 0.0100976 1.26205e-20)
(0.0221591 0.00635192 3.59817e-20)
(0.0394123 0.00133007 -1.01233e-19)
(0.0602941 -0.00439603 8.49518e-20)
(0.0844955 -0.0103585 -7.50051e-20)
(0.111715 -0.0161546 2.81996e-20)
(0.141646 -0.0214081 1.8968e-20)
(0.173961 -0.0257174 3.42115e-20)
(0.208216 -0.0286149 9.50757e-21)
(0.243753 -0.0294737 -1.72488e-21)
(0.280719 -0.026594 -3.70305e-20)
(0.319605 -0.0163952 2.77493e-20)
(-0.00296412 0.00484834 2.74973e-20)
(-0.00247478 0.00832054 3.19096e-20)
(0.00447295 0.00835812 -1.36682e-19)
(0.0168901 0.00583782 4.34081e-20)
(0.03423 0.00160174 2.29731e-20)
(0.0560429 -0.0036439 -4.96505e-20)
(0.081904 -0.00934633 -3.60443e-20)
(0.111419 -0.0150555 -6.21404e-20)
(0.144208 -0.0203875 1.30137e-20)
(0.179885 -0.0249906 -4.59541e-21)
(0.218041 -0.0285001 4.53572e-20)
(0.258147 -0.0305146 1.9008e-20)
(0.299435 -0.0305179 3.4067e-20)
(0.342065 -0.0267145 3.24242e-21)
(0.386963 -0.0147109 2.34423e-20)
(-0.00230048 0.00372711 2.09685e-20)
(0.000390862 0.00534998 -8.03562e-20)
(0.0105574 0.00413877 7.75501e-20)
(0.0269372 0.000806203 -7.88349e-20)
(0.0488414 -0.00386033 4.9884e-20)
(0.0757136 -0.0091873 2.0804e-20)
(0.107031 -0.0146539 3.53197e-20)
(0.142311 -0.0198366 7.79078e-20)
(0.181087 -0.0243749 -3.66593e-20)
(0.222881 -0.0279415 -3.09008e-20)
(0.267183 -0.0302078 -2.39106e-20)
(0.313351 -0.0308519 -9.48379e-21)
(0.360479 -0.029525 2.66895e-20)
(0.408686 -0.024456 -7.14938e-20)
(0.459457 -0.010624 -1.88148e-20)
(-0.00126254 0.00238904 -2.5195e-20)
(0.0043067 0.00189119 -7.40501e-21)
(0.0183115 -0.000679066 -5.93979e-20)
(0.0392281 -0.00481666 3.79578e-20)
(0.0662294 -0.00981267 -4.22432e-20)
(0.098653 -0.0150433 -1.27124e-20)
(0.135877 -0.0200338 -1.56514e-21)
(0.177328 -0.0243977 3.64251e-20)
(0.222446 -0.0278016 2.11379e-19)
(0.27066 -0.029938 -1.50504e-19)
(0.321343 -0.0304978 9.68099e-20)
(0.373708 -0.0292079 -7.91665e-20)
(0.426663 -0.0258152 3.32579e-20)
(0.480046 -0.0185143 -1.06972e-20)
(0.53564 -0.00240221 4.90353e-20)
(0.0002007 0.000872045 5.1996e-20)
(0.00939805 -0.00194847 1.23295e-20)
(0.0279066 -0.00592561 -3.09619e-20)
(0.0539559 -0.010806 -4.05949e-20)
(0.0865849 -0.0159835 1.31452e-20)
(0.125026 -0.0209032 8.73695e-20)
(0.168556 -0.0251541 2.88558e-20)
(0.216507 -0.0284016 -4.50401e-20)
(0.268231 -0.0303504 -6.60765e-20)
(0.323067 -0.0307159 4.4756e-20)
(0.380302 -0.029195 1.23025e-19)
(0.439069 -0.0254859 -8.86582e-20)
(0.49822 -0.01913 -3.79231e-20)
(0.55696 -0.00801839 9.45849e-21)
(0.615538 0.010334 1.07038e-21)
(0.002136 -0.000777535 -5.67695e-20)
(0.0157756 -0.00603891 -1.71684e-20)
(0.039487 -0.0113973 9.15941e-20)
(0.0712716 -0.0168945 -5.01358e-21)
(0.110039 -0.0220532 -9.07902e-20)
(0.154913 -0.0264089 4.60348e-20)
(0.205067 -0.0296363 1.27602e-19)
(0.25973 -0.0314757 -3.85744e-20)
(0.318166 -0.0316972 -3.9592e-20)
(0.379638 -0.0300723 -3.38968e-20)
(0.443401 -0.0263439 -2.48306e-20)
(0.508711 -0.0201721 -2.01133e-21)
(0.57506 -0.0107227 5.51177e-20)
(0.642309 0.00367699 -4.63474e-20)
(0.708758 0.0178975 2.23395e-20)
(0.00458434 -0.00250521 4.03531e-20)
(0.023531 -0.0102287 1.32826e-20)
(0.0531633 -0.0168593 2.14544e-20)
(0.0912755 -0.0227768 -4.86429e-20)
(0.136651 -0.0276593 -5.88998e-20)
(0.1883 -0.0311566 -4.81477e-20)
(0.245281 -0.0330543 -3.0482e-20)
(0.306709 -0.0331976 -8.13344e-20)
(0.371733 -0.031461 9.07008e-21)
(0.439522 -0.0277328 5.28222e-20)
(0.509262 -0.0219046 3.84187e-20)
(0.580219 -0.01383 -1.98888e-20)
(0.652065 -0.00303223 4.18213e-20)
(0.724795 0.0105855 2.77764e-20)
(0.795031 0.019312 1.15958e-19)
(0.00757947 -0.00424907 6.7861e-20)
(0.0327331 -0.0143475 1.9642e-20)
(0.0690056 -0.02205 1.08253e-19)
(0.114008 -0.0281156 -1.34456e-19)
(0.1664 -0.0324051 -1.10931e-21)
(0.225071 -0.0347069 -6.24021e-20)
(0.288949 -0.0349434 -6.90735e-20)
(0.35701 -0.0330935 8.78161e-20)
(0.428261 -0.0291702 2.08844e-20)
(0.501728 -0.0232196 5.46387e-20)
(0.576455 -0.0153285 -8.21673e-20)
(0.651558 -0.00560427 -8.0379e-20)
(0.726458 0.00601029 -1.07399e-20)
(0.800594 0.0188046 -4.87698e-20)
(0.869769 0.0258317 9.27464e-23)
(0.0111467 -0.00594068 -3.4865e-20)
(0.0434236 -0.0182091 -3.74107e-20)
(0.087038 -0.026687 -6.56427e-20)
(0.139446 -0.0325518 -1.70837e-20)
(0.199182 -0.0358737 2.8776e-20)
(0.265007 -0.0366043 5.59609e-20)
(0.335703 -0.0348276 1.15728e-19)
(0.410085 -0.0306809 -1.17196e-19)
(0.48699 -0.0243397 -7.62579e-20)
(0.565261 -0.0160269 -3.03511e-20)
(0.643756 -0.00602706 1.05262e-19)
(0.721373 0.00532868 -2.56153e-20)
(0.797181 0.0177978 4.61441e-20)
(0.870048 0.0304023 -3.89701e-20)
(0.935702 0.0377346 3.23913e-21)
(0.0153013 -0.00750601 -1.02814e-19)
(0.0556136 -0.0216152 -3.16314e-20)
(0.107233 -0.0304747 1.17321e-19)
(0.167491 -0.035716 -2.00384e-20)
(0.234801 -0.0376455 2.45414e-20)
(0.307786 -0.0364017 -3.83028e-20)
(0.385068 -0.0322536 -1.54758e-21)
(0.465286 -0.0255183 4.64821e-20)
(0.547089 -0.0165505 5.2557e-20)
(0.62913 -0.00575646 6.90824e-20)
(0.710073 0.00639471 -1.01755e-19)
(0.788614 0.0193915 1.30496e-20)
(0.863547 0.0327947 5.55653e-20)
(0.933401 0.0455937 -7.64147e-20)
(0.99426 0.0538645 2.25324e-20)
(0.0200471 -0.00886674 4.51948e-20)
(0.0692797 -0.0243604 9.58662e-20)
(0.129507 -0.0331133 -4.58664e-20)
(0.197971 -0.0372426 2.00386e-20)
(0.272969 -0.0373166 -2.38e-20)
(0.352983 -0.0336844 2.31897e-20)
(0.436464 -0.0268219 2.69843e-20)
(0.521873 -0.0172443 -9.80406e-20)
(0.607672 -0.00549699 5.42557e-20)
(0.692337 0.00783095 -8.20818e-20)
(0.774373 0.0221038 7.62537e-20)
(0.852342 0.0366709 -4.07559e-20)
(0.924894 0.0509703 6.8929e-20)
(0.99046 0.0640602 2.55944e-20)
(1.04568 0.0732543 -3.64966e-20)
(0.0253747 -0.00994166 4.9249e-20)
(0.0843603 -0.0262366 -3.03769e-20)
(0.153716 -0.0343073 3.7913e-20)
(0.230635 -0.0367825 -3.07923e-20)
(0.313308 -0.0345165 5.37481e-20)
(0.400072 -0.0280921 -2.74542e-20)
(0.489216 -0.0182117 6.10308e-20)
(0.579027 -0.00560377 -6.82129e-20)
(0.667802 0.008989 8.69671e-21)
(0.75388 0.0248007 9.5785e-20)
(0.835672 0.0410505 -2.77352e-20)
(0.9117 0.0569863 1.0406e-20)
(0.980613 0.0719795 -5.02016e-20)
(1.04094 0.0852035 -5.18585e-20)
(1.08998 0.0949507 2.52229e-20)
(0.0312598 -0.0106484 -6.79225e-20)
(0.100753 -0.0270394 -6.71949e-21)
(0.179655 -0.0337758 -5.61272e-21)
(0.265153 -0.0340168 2.55757e-21)
(0.355348 -0.028925 5.10219e-20)
(0.44844 -0.0193371 -8.05549e-20)
(0.542569 -0.00619925 9.35175e-20)
(0.635872 0.00953685 -6.98128e-20)
(0.726524 0.0269308 -4.45387e-20)
(0.812787 0.0450523 1.68127e-20)
(0.893061 0.0630022 -3.53271e-20)
(0.965935 0.0799655 1.33343e-20)
(1.03019 0.0952956 4.24917e-20)
(1.08463 0.108312 3.54996e-20)
(1.12718 0.11806 1.25421e-20)
(0.0376619 -0.0109056 5.58857e-20)
(0.118313 -0.0265737 1.73765e-22)
(0.207053 -0.031262 -1.4714e-20)
(0.30112 -0.0286696 -3.23149e-20)
(0.398539 -0.0202857 -6.50418e-21)
(0.497397 -0.0072183 2.45436e-20)
(0.595709 0.00933142 -4.38729e-20)
(0.691505 0.0281851 -1.34645e-20)
(0.782895 0.0482127 1.40235e-20)
(0.868142 0.0683413 1.58765e-20)
(0.945732 0.0875879 1.95963e-20)
(1.01443 0.105117 7.75739e-21)
(1.07327 0.120314 -1.47936e-20)
(1.12142 0.13267 2.3047e-20)
(1.15746 0.14181 -5.00145e-21)
(0.0445232 -0.010635 1.05353e-19)
(0.136852 -0.0246607 -3.20338e-20)
(0.235582 -0.0265431 -3.00704e-20)
(0.338058 -0.0205195 -5.72201e-20)
(0.442262 -0.00841851 2.97222e-20)
(0.546196 0.00836909 1.24206e-20)
(0.64779 0.0283832 4.74974e-20)
(0.745025 0.050225 1.86087e-20)
(0.836019 0.0725942 -3.8557e-20)
(0.919127 0.0943077 -2.40313e-20)
(0.993019 0.114342 1.75862e-20)
(1.05673 0.13189 -3.5787e-20)
(1.10966 0.146419 -1.87429e-20)
(1.15138 0.157624 7.96042e-21)
(1.1811 0.165567 -2.78326e-20)
(0.051768 -0.00976484 -4.53178e-20)
(0.156139 -0.0211446 1.72007e-20)
(0.264856 -0.0194396 3.40211e-20)
(0.375431 -0.00941004 -2.91711e-20)
(0.485846 0.0067714 2.06195e-20)
(0.594055 0.0274279 -5.27649e-20)
(0.697962 0.0508467 2.12802e-20)
(0.795566 0.0754269 6.67799e-20)
(0.885081 0.0997296 -1.55883e-20)
(0.965046 0.122506 4.91267e-20)
(1.03441 0.142743 -7.14121e-20)
(1.09257 0.159718 4.99156e-20)
(1.13933 0.173031 -1.6035e-20)
(1.17473 0.182605 -1.5283e-20)
(1.19851 0.18884 2.60595e-20)
(0.059303 -0.00823221 4.12661e-20)
(0.175902 -0.0159001 4.42987e-20)
(0.294437 -0.00982466 -3.70684e-20)
(0.412656 0.00474156 2.37635e-20)
(0.528583 0.0252875 -1.03664e-20)
(0.640183 0.0498575 -9.72305e-21)
(0.745398 0.0765055 -1.99781e-20)
(0.842329 0.10346 2.17457e-20)
(0.929374 0.129189 -1.32911e-20)
(1.00535 0.152433 -2.95641e-21)
(1.06957 0.17225 -2.18624e-20)
(1.12184 0.188055 8.06934e-22)
(1.16242 0.199628 -2.41716e-20)
(1.19179 0.207145 1.42241e-20)
(1.2102 0.211264 1.20749e-20)
(0.0670183 -0.00598661 3.05518e-21)
(0.195834 -0.00883867 -2.34502e-20)
(0.323849 0.00236828 4.46936e-21)
(0.449114 0.0219379 3.1274e-20)
(0.569754 0.0470384 -2.77334e-20)
(0.683804 0.0754564 1.57342e-20)
(0.789326 0.105045 -1.9712e-20)
(0.884607 0.133911 -2.87288e-21)
(0.96832 0.160484 6.02859e-21)
(1.03964 0.183558 1.21276e-20)
(1.09831 0.202326 -4.95262e-23)
(1.14459 0.216393 1.71274e-21)
(1.17919 0.225761 -9.6685e-22)
(1.20301 0.23087 -5.11621e-21)
(1.21668 0.232581 5.04946e-21)
(0.0747892 -0.00299286 3.80726e-21)
(0.215602 8.4591e-05 -4.58578e-21)
(0.352589 0.017139 -3.97602e-20)
(0.484174 0.0420968 3.92595e-21)
(0.608644 0.0718385 1.45531e-21)
(0.724181 0.103928 2.51771e-21)
(0.829046 0.136067 -1.92267e-20)
(0.921801 0.166298 4.83531e-21)
(1.00148 0.193085 -8.70773e-21)
(1.06768 0.215342 7.58312e-21)
(1.12061 0.232459 -4.99913e-22)
(1.16101 0.244279 -2.04341e-21)
(1.19 0.251054 3.30123e-21)
(1.20885 0.25349 5.95954e-21)
(1.21851 0.252614 1.21332e-21)
(0.0824787 0.000766112 5.29098e-21)
(0.234848 0.0108662 -6.81405e-22)
(0.380137 0.0344159 1.11974e-21)
(0.517205 0.0650502 -5.98469e-21)
(0.644571 0.0994103 1.03127e-20)
(0.760639 0.134888 6.20745e-21)
(0.863955 0.169099 -1.00023e-21)
(0.953437 0.200095 -2.38772e-21)
(1.02854 0.226445 4.35568e-22)
(1.08936 0.247258 2.30285e-21)
(1.13657 0.262173 -6.30384e-21)
(1.17137 0.271313 1.80522e-21)
(1.19527 0.275196 3.77237e-21)
(1.20982 0.274789 -5.44397e-21)
(1.2162 0.271246 4.90166e-22)
(0.089941 0.00528692 -6.67647e-21)
(0.253206 0.0234503 2.51952e-21)
(0.405971 0.0540536 5.20093e-21)
(0.547596 0.0905449 -5.70034e-21)
(0.676899 0.129391 5.26921e-21)
(0.792584 0.16788 7.39164e-21)
(0.893559 0.203616 7.56384e-23)
(0.979171 0.234742 -6.67698e-21)
(1.04936 0.260014 5.75261e-21)
(1.10471 0.2788 -1.14378e-22)
(1.14639 0.291039 -4.32865e-21)
(1.17602 0.297155 -3.41785e-21)
(1.19544 0.297938 3.79223e-21)
(1.2064 0.2946 1.47364e-21)
(1.21023 0.288398 -1.08701e-21)
(0.0970255 0.010544 -1.11059e-20)
(0.270306 0.0377265 -1.04599e-20)
(0.429588 0.0758331 -6.38337e-21)
(0.574778 0.118247 -1.85962e-20)
(0.70506 0.161342 1.06758e-20)
(0.819514 0.202383 -1.45353e-20)
(0.917478 0.239051 -7.3739e-21)
(0.998785 0.26967 1.39529e-21)
(1.06389 0.293256 2.72376e-21)
(1.11388 0.309497 1.57487e-21)
(1.15038 0.31867 8.02975e-21)
(1.17538 0.321513 -9.38411e-21)
(1.19097 0.319077 2.41222e-21)
(1.19907 0.312795 5.13744e-21)
(1.20106 0.304014 1.90471e-21)
(0.103581 0.0164886 -2.96204e-20)
(0.28579 0.0535297 -1.84048e-20)
(0.450511 0.0994645 2.70189e-20)
(0.598233 0.147748 4.22145e-21)
(0.72857 0.194758 -1.9445e-20)
(0.841035 0.237828 1.40344e-20)
(0.935457 0.274814 1.34319e-20)
(1.01219 0.304305 -2.16776e-20)
(1.07221 0.325655 -1.32343e-20)
(1.11708 0.338917 3.58645e-21)
(1.14887 0.344729 1.39707e-20)
(1.16984 0.344142 6.56153e-21)
(1.18231 0.33845 5.36893e-22)
(1.18826 0.329269 -3.22502e-21)
(1.18908 0.31805 -1.08394e-20)
(0.109461 0.0230484 4.71449e-20)
(0.299322 0.0706415 -2.58854e-21)
(0.46831 0.124592 -5.97628e-21)
(0.617518 0.178575 1.11817e-21)
(0.747036 0.229081 3.66616e-20)
(0.856865 0.273614 -4.39515e-20)
(0.947358 0.310304 8.04781e-21)
(1.0194 0.33809 -3.04162e-21)
(1.07449 0.356725 -4.06903e-21)
(1.11464 0.366665 -8.51972e-21)
(1.14225 0.368918 1.82469e-20)
(1.15986 0.364835 -2.42531e-20)
(1.16988 0.355919 8.53587e-21)
(1.17436 0.343927 -8.74115e-21)
(1.17463 0.330464 2.35262e-21)
(0.114526 0.0301285 -5.66745e-20)
(0.310596 0.0887939 -2.25794e-20)
(0.48261 0.1508 6.74472e-20)
(0.632268 0.210201 1.35299e-20)
(0.760169 0.263713 -7.45406e-20)
(0.866836 0.30912 4.78725e-20)
(0.953162 0.344922 -1.12095e-20)
(1.02056 0.370487 1.42924e-20)
(1.07101 0.386015 7.21901e-21)
(1.10691 0.392389 8.89079e-21)
(1.13095 0.390982 1.34363e-20)
(1.14583 0.383421 -7.97623e-21)
(1.15407 0.371372 -5.09446e-21)
(1.15766 0.356678 2.32748e-22)
(1.15787 0.341207 2.62923e-21)
(0.118651 0.0376126 3.70419e-20)
(0.319346 0.107674 -3.99639e-21)
(0.493105 0.177626 -7.10234e-20)
(0.642211 0.242056 4.63285e-20)
(0.767789 0.298032 4.09744e-20)
(0.870896 0.343721 -3.74315e-20)
(0.952957 0.378085 3.69861e-20)
(1.01589 0.400986 -1.80879e-20)
(1.06208 0.413111 -3.71952e-21)
(1.09429 0.415776 -3.54405e-20)
(1.11539 0.410704 2.08862e-20)
(1.12821 0.399767 -1.21712e-21)
(1.13525 0.384756 4.44666e-21)
(1.13844 0.367541 -4.52099e-21)
(1.13874 0.350225 -7.84008e-21)
(0.12173 0.0453652 -4.40214e-20)
(0.325359 0.126933 3.68135e-20)
(0.499566 0.204565 1.17432e-20)
(0.647174 0.273544 2.0803e-20)
(0.769825 0.331403 -2.43848e-20)
(0.8691 0.376798 3.5683e-20)
(0.946932 0.409232 -4.57002e-20)
(1.00569 0.429114 -2.92574e-20)
(1.04812 0.437637 2.53027e-20)
(1.07723 0.436546 1.56503e-20)
(1.09605 0.427889 -1.15053e-20)
(1.10742 0.41375 1.86137e-20)
(1.11384 0.396043 4.35511e-21)
(1.11706 0.376746 3.21431e-21)
(1.11786 0.357727 -1.32254e-21)
(0.123675 0.0532349 -4.52415e-20)
(0.328475 0.146191 2.69493e-20)
(0.501848 0.231089 5.25202e-21)
(0.647083 0.304052 1.00184e-20)
(0.766312 0.363195 -6.37228e-21)
(0.861609 0.407753 2.52286e-20)
(0.935366 0.437834 -4.35041e-20)
(0.990333 0.454432 9.93734e-21)
(1.02955 0.459251 -1.9607e-20)
(1.0562 0.454446 -2.45451e-21)
(1.07336 0.442355 -9.42869e-21)
(1.08389 0.425228 -5.11692e-21)
(1.09021 0.405072 1.01992e-20)
(1.09395 0.383953 1.08821e-20)
(1.09588 0.363539 -3.83405e-21)
(0.124424 0.0610574 -2.74819e-20)
(0.3286 0.165048 -3.51941e-20)
(0.499894 0.256655 3.45574e-20)
(0.641967 0.33297 1.16814e-20)
(0.757391 0.392795 1.56913e-22)
(0.848679 0.436016 1.54978e-20)
(0.918614 0.463402 -1.81221e-20)
(0.970256 0.476544 3.89376e-20)
(1.00685 0.47765 -2.95667e-22)
(1.03166 0.469256 3.79672e-21)
(1.04779 0.453943 1.18568e-20)
(1.05802 0.434088 -7.03912e-21)
(1.06469 0.411744 -2.94845e-21)
(1.06933 0.389006 -7.08536e-21)
(1.07272 0.367461 -1.17063e-22)
(0.123942 0.0686604 2.02097e-20)
(0.325701 0.183095 7.86884e-20)
(0.493734 0.280719 -5.87238e-20)
(0.631954 0.359701 8.58781e-21)
(0.7433 0.419615 3.70772e-21)
(0.830651 0.461061 -2.70485e-21)
(0.897099 0.485491 -1.73007e-20)
(0.945928 0.4951 1.63444e-20)
(0.980507 0.492571 -4.32505e-22)
(1.00411 0.480782 -1.83889e-20)
(1.01978 0.462515 5.61532e-21)
(1.0302 0.440229 5.0068e-21)
(1.03759 0.415977 -1.66417e-21)
(1.04343 0.391843 2.95978e-21)
(1.04848 0.369418 -7.52554e-22)
(0.122224 0.0758686 -2.10148e-21)
(0.319816 0.199924 -1.66851e-20)
(0.483489 0.30275 3.66279e-20)
(0.617271 0.383676 -9.80183e-21)
(0.724365 0.44311 -1.75749e-20)
(0.807936 0.482407 3.73404e-22)
(0.871294 0.503707 1.72399e-20)
(0.917859 0.509791 -7.96535e-22)
(0.951032 0.503786 7.87035e-21)
(0.974037 0.488861 3.96446e-21)
(0.989788 0.467952 -3.47577e-21)
(1.00082 0.443559 9.45471e-22)
(1.00925 0.417698 2.37886e-22)
(1.01649 0.392396 -2.93507e-21)
(1.02336 0.36933 4.02366e-21)
(0.119292 0.0825123 7.81017e-21)
(0.311039 0.215134 -2.94491e-20)
(0.469364 0.32224 -2.88642e-20)
(0.598224 0.404366 1.3054e-20)
(0.700989 0.462788 2.75904e-21)
(0.781014 0.499628 7.60952e-21)
(0.841725 0.51771 -4.19442e-21)
(0.88658 0.520362 5.44431e-21)
(0.918941 0.511107 -5.68409e-21)
(0.941918 0.493355 2.57065e-21)
(0.958252 0.470151 6.25823e-22)
(0.970291 0.443997 -1.24741e-20)
(0.980001 0.416834 4.28734e-21)
(0.988758 0.390573 -5.78702e-21)
(0.997575 0.367041 6.57188e-21)
(0.115183 0.088421 -9.10881e-21)
(0.299545 0.228361 1.66424e-20)
(0.451645 0.338721 2.82847e-21)
(0.575204 0.421289 -1.36522e-21)
(0.673654 0.478213 -1.70394e-20)
(0.750418 0.512365 -2.66572e-21)
(0.80894 0.52722 -3.57252e-21)
(0.852632 0.526606 -2.25715e-21)
(0.884747 0.514384 -2.40194e-21)
(0.908228 0.494154 1.59398e-20)
(0.925614 0.469023 -4.96651e-21)
(0.939024 0.441469 1.07488e-20)
(0.950218 0.413325 2.06338e-20)
(0.960564 0.386284 -8.21394e-21)
(0.971424 0.362337 5.91497e-21)
(0.109984 0.0934161 -2.63961e-22)
(0.285571 0.239243 -1.11371e-20)
(0.430688 0.351777 6.7581e-22)
(0.548678 0.434032 -4.58618e-22)
(0.642894 0.489018 1.89313e-21)
(0.716719 0.520323 5.88519e-21)
(0.773512 0.532019 1.57419e-20)
(0.81656 0.528369 1.66711e-20)
(0.848945 0.513509 -5.09807e-21)
(0.873415 0.491169 -2.35208e-20)
(0.892286 0.464483 -8.82254e-21)
(0.907425 0.435885 -6.56274e-21)
(0.920342 0.407085 1.44784e-20)
(0.93242 0.379443 -2.09684e-20)
(0.945442 0.355103 -2.5094e-20)
(0.103811 0.0973663 5.91781e-21)
(0.269391 0.247473 -7.05224e-21)
(0.406915 0.361045 -1.63465e-20)
(0.519168 0.442248 3.91105e-21)
(0.609293 0.494911 -2.76417e-21)
(0.68052 0.523282 1.28183e-20)
(0.736028 0.531957 -3.69406e-21)
(0.778902 0.525557 1.04425e-20)
(0.812009 0.50842 -1.03236e-20)
(0.837876 0.484349 1.63616e-20)
(0.858597 0.456449 5.60259e-20)
(0.875799 0.427087 -4.00072e-20)
(0.890746 0.397822 -1.94102e-20)
(0.904857 0.369555 3.42611e-21)
(0.920065 0.344722 -1.31595e-21)
(0.0967864 0.100146 -1.88396e-20)
(0.251338 0.252796 -1.33263e-20)
(0.380806 0.366228 -6.02671e-21)
(0.48725 0.445664 2.48102e-20)
(0.573473 0.495678 -4.84261e-20)
(0.642449 0.521096 -2.43731e-21)
(0.697085 0.526952 2.88519e-20)
(0.740196 0.518141 -2.71445e-20)
(0.77439 0.499128 4.26605e-20)
(0.801952 0.473718 -1.9073e-20)
(0.824763 0.444934 -1.16186e-20)
(0.844235 0.415008 3.37145e-22)
(0.861471 0.385249 3.19648e-20)
(0.877906 0.355585 -2.88112e-20)
(0.893361 0.326348 1.11107e-20)
(0.0890603 0.101649 3.96082e-20)
(0.231787 0.255007 -2.50007e-20)
(0.352887 0.367105 5.10846e-21)
(0.453536 0.444091 -1.58257e-20)
(0.536086 0.491186 3.72473e-22)
(0.60315 0.513697 3.9099e-21)
(0.657286 0.516994 9.68749e-21)
(0.700981 0.506162 1.25925e-20)
(0.736541 0.485716 -4.25193e-20)
(0.765987 0.459415 -1.12914e-20)
(0.790973 0.430166 2.02897e-20)
(0.812738 0.400052 -4.73397e-20)
(0.832323 0.370266 3.02112e-20)
(0.851005 0.340849 1.72225e-20)
(0.867582 0.312462 -4.11761e-21)
(0.0808 0.101798 1.09369e-20)
(0.211146 0.253958 3.36584e-20)
(0.323713 0.363528 7.75398e-21)
(0.418667 0.437422 -2.87365e-20)
(0.4978 0.481383 3.93644e-20)
(0.563279 0.501086 -3.93754e-20)
(0.617245 0.502136 -4.73128e-20)
(0.661809 0.489711 -6.69527e-20)
(0.698947 0.468315 9.75531e-20)
(0.730395 0.441613 1.72524e-20)
(0.757574 0.412385 -1.78126e-20)
(0.781546 0.382572 -1.60544e-20)
(0.803227 0.353272 3.16137e-20)
(0.823624 0.324651 -3.62899e-21)
(0.841342 0.297572 8.81642e-20)
(0.0721863 0.100539 -1.04677e-19)
(0.189844 0.249563 8.04243e-20)
(0.293864 0.355429 1.66618e-20)
(0.383298 0.425629 -3.72669e-20)
(0.459289 0.466291 7.20354e-20)
(0.52349 0.483334 -5.38585e-20)
(0.577573 0.48248 4.39179e-20)
(0.623236 0.468916 1.75812e-20)
(0.662111 0.447064 7.10427e-21)
(0.695647 0.420463 3.92321e-20)
(0.725037 0.391745 -2.07075e-20)
(0.751184 0.362721 -7.01542e-20)
(0.774879 0.334408 -4.39869e-20)
(0.796937 0.307058 6.65545e-21)
(0.816071 0.281543 3.46764e-21)
(0.0634081 0.0978493 9.20019e-21)
(0.168322 0.2418 -1.95739e-20)
(0.263928 0.342816 2.666e-20)
(0.348086 0.408767 -1.92659e-20)
(0.421224 0.446011 2.51456e-20)
(0.484428 0.460574 -3.39354e-20)
(0.538864 0.458183 4.42222e-20)
(0.585803 0.443938 -4.27186e-20)
(0.626523 0.422121 1.07389e-20)
(0.662195 0.396101 -1.49948e-22)
(0.6938 0.36835 -3.8962e-20)
(0.7221 0.340539 7.87696e-21)
(0.747786 0.313611 5.26198e-20)
(0.771539 0.28786 -7.11193e-20)
(0.792243 0.264064 2.13163e-20)
(0.054658 0.0937335 -6.53888e-20)
(0.147026 0.230706 4.00714e-20)
(0.234491 0.325777 -3.29046e-20)
(0.313678 0.386972 5.22425e-20)
(0.384256 0.420714 -1.74031e-20)
(0.446713 0.433001 2.15924e-20)
(0.50169 0.429445 7.84281e-20)
(0.550024 0.414974 -9.39143e-20)
(0.592645 0.393663 1.03838e-20)
(0.630457 0.368677 -4.75551e-21)
(0.664251 0.342307 7.53802e-20)
(0.694665 0.316078 7.18579e-20)
(0.722304 0.290853 2.0112e-20)
(0.747755 0.266934 -1.74981e-20)
(0.770082 0.244967 1.93385e-21)
(0.0461277 0.088225 4.91542e-20)
(0.126393 0.216383 -8.10685e-20)
(0.206123 0.304473 -3.233e-21)
(0.280698 0.360453 -3.18565e-20)
(0.349011 0.390643 -1.8453e-20)
(0.410937 0.400869 -9.5945e-20)
(0.466591 0.396519 -5.4229e-20)
(0.51638 0.382258 -2.10093e-20)
(0.560904 0.361898 5.41474e-20)
(0.600815 0.338365 -9.98127e-20)
(0.636731 0.31375 6.87146e-21)
(0.669186 0.289427 1.22569e-20)
(0.698711 0.266171 -5.74445e-20)
(0.72582 0.244273 -1.09588e-20)
(0.749761 0.224238 -1.11373e-20)
(0.0380033 0.0813846 -7.46836e-20)
(0.106846 0.198991 -6.87847e-20)
(0.179371 0.279139 -3.73638e-21)
(0.249739 0.329493 4.62098e-20)
(0.316076 0.356104 1.35048e-20)
(0.37765 0.364491 1.26389e-19)
(0.434064 0.359701 3.91527e-20)
(0.485315 0.34606 9.17243e-20)
(0.531687 0.327064 -1.48568e-21)
(0.573608 0.305366 -2.71126e-20)
(0.611538 0.282842 -1.86306e-21)
(0.645922 0.260711 8.44985e-20)
(0.67723 0.239655 5.08162e-20)
(0.705915 0.21994 -6.84975e-21)
(0.731413 0.201941 -2.74814e-20)
(0.0304617 0.0732998 6.53675e-20)
(0.0887832 0.178747 6.2851e-20)
(0.154744 0.250077 -7.26421e-20)
(0.221353 0.294443 1.36758e-20)
(0.285994 0.317466 -7.66673e-21)
(0.347359 0.324228 -7.43634e-21)
(0.404565 0.319334 5.13692e-20)
(0.457228 0.306692 -7.51924e-20)
(0.505345 0.289434 1.71843e-20)
(0.549137 0.269914 6.60096e-20)
(0.588932 0.249779 -1.59171e-20)
(0.625096 0.230088 -5.76633e-20)
(0.658046 0.211432 -1.80181e-20)
(0.688189 0.194045 -7.45408e-20)
(0.715144 0.178187 3.88124e-20)
(0.0236666 0.0640822 -6.82343e-20)
(0.0725687 0.155917 -4.03612e-21)
(0.13271 0.217648 -5.85765e-21)
(0.196038 0.255715 -1.44015e-20)
(0.259254 0.275156 3.45606e-20)
(0.320517 0.280495 -6.78574e-20)
(0.378501 0.2758 2.37306e-20)
(0.432476 0.264498 -7.08374e-20)
(0.482184 0.24931 8.5581e-21)
(0.527667 0.232269 -2.89456e-20)
(0.569138 0.214783 2.51288e-20)
(0.606896 0.197751 2.68582e-20)
(0.641315 0.181668 -8.99082e-20)
(0.672765 0.166734 6.5609e-20)
(0.701041 0.153117 6.11837e-21)
(0.0177649 0.053866 6.51618e-20)
(0.0585294 0.130816 -1.36229e-20)
(0.113683 0.182273 1.05492e-19)
(0.174237 0.213776 -8.73464e-21)
(0.236288 0.229649 -2.15547e-20)
(0.297523 0.233747 1.94271e-20)
(0.356226 0.22952 -1.02469e-20)
(0.411368 0.219853 2.16769e-20)
(0.462472 0.207024 -2.07289e-20)
(0.509426 0.192721 -5.93226e-20)
(0.552347 0.178107 -5.40622e-20)
(0.591483 0.163916 7.15148e-20)
(0.62717 0.150555 -2.25926e-20)
(0.65975 0.138182 -2.19508e-20)
(0.689177 0.1269 1.45929e-20)
(0.0128837 0.0428047 1.14248e-20)
(0.0469466 0.1038 -1.77593e-20)
(0.0980192 0.144419 -1.32116e-20)
(0.156329 0.169143 -2.64123e-20)
(0.217463 0.181464 1.17072e-20)
(0.278713 0.184479 -7.98892e-20)
(0.338039 0.180947 5.30272e-20)
(0.394164 0.173164 -3.85448e-20)
(0.44643 0.162933 -1.69978e-20)
(0.494602 0.151582 4.85014e-20)
(0.538721 0.140024 -3.25957e-20)
(0.578992 0.128827 -3.62122e-20)
(0.615721 0.118308 2.98057e-20)
(0.649231 0.108588 -7.19552e-21)
(0.679613 0.0997212 7.20442e-20)
(0.00912816 0.0310685 4.45587e-21)
(0.0380517 0.0752571 -1.11455e-20)
(0.08601 0.104593 -1.06832e-20)
(0.142622 0.122372 1.25125e-20)
(0.203079 0.131157 -1.05731e-20)
(0.264363 0.133217 2.12941e-20)
(0.324185 0.130562 -2.68502e-20)
(0.381076 0.124859 4.82226e-20)
(0.43424 0.117415 3.93342e-20)
(0.48335 0.109186 -8.58164e-21)
(0.528389 0.100826 4.85202e-23)
(0.569529 0.0927427 3.24343e-21)
(0.607056 0.08516 -2.38794e-21)
(0.641279 0.0781649 -9.01677e-21)
(0.672396 0.0717814 -1.53634e-20)
(0.00657882 0.0188405 -5.97796e-21)
(0.0320217 0.0456039 -2.56261e-20)
(0.0778783 0.0633348 -1.577e-21)
(0.133352 0.0740499 5.64303e-21)
(0.193361 0.0793148 1.47834e-20)
(0.25468 0.0805124 -2.01195e-20)