/*--------------------------------*- C++ -*----------------------------------*\
  =========                 |
  \\      /  F ield         | OpenFOAM: The Open Source CFD Toolbox
   \\    /   O peration     | Website:  https://openfoam.org
    \\  /    A nd           | Version:  7
     \\/     M anipulation  |
\*---------------------------------------------------------------------------*/
FoamFile
{
    version     2.0;
    format      ascii;
    class       volScalarField;
    location    "30";
    object      p;
}
// * * * * * * * * * * * * * * * * * * * * * * * * * * * * * * * * * * * * * //

dimensions      [0 2 -2 0 0 0 0];

internalField   nonuniform List<scalar> 
3312
(
-0.221206
-0.228171
-0.223486
-0.228815
-0.225724
-0.231604
-0.229518
-0.227661
-0.232814
-0.231708
-0.230252
-0.229232
-0.232549
-0.231809
-0.230871
-0.230267
-0.232676
-0.232271
-0.23183
-0.231278
-0.230781
-0.232162
-0.231963
-0.231743
-0.231461
-0.231469
-0.231675
-0.231654
-0.231615
-0.231563
-0.231483
-0.231699
-0.231075
-0.231166
-0.231247
-0.23132
-0.231384
-0.231676
-0.230552
-0.230726
-0.230892
-0.231056
-0.231221
-0.23155
-0.230131
-0.230361
-0.230587
-0.230812
-0.231045
-0.231394
-0.229835
-0.230101
-0.230363
-0.230626
-0.2309
-0.231261
-0.229387
-0.229682
-0.229965
-0.230245
-0.230526
-0.23082
-0.231186
-0.206063
-0.177125
-0.152556
-0.123299
-0.100696
-0.0835247
-0.0698616
-0.0589835
-0.0501299
-0.0428507
-0.0367954
-0.0317065
-0.0273929
-0.02371
-0.0205465
-0.0178151
-0.015447
-0.0133865
-0.0115887
-0.010017
-0.00863954
-0.00742994
-0.0063664
-0.00542996
-0.00460487
-0.00387736
-0.00323565
-0.00266949
-0.00216998
-0.00172933
-0.0013407
-0.00099814
-0.000696333
-0.000430658
-0.000197004
8.3248e-06
0.000188348
0.000345797
0.000483118
0.000602396
0.000705527
0.000794125
0.000869604
0.000933176
0.000985856
0.0010285
0.00106182
0.00108632
0.00110245
0.00111052
-0.206558
-0.188639
-0.161354
-0.13277
-0.109402
-0.0911038
-0.0764465
-0.0646128
-0.0549508
-0.0469844
-0.0403492
-0.0347716
-0.0300451
-0.0260124
-0.0225515
-0.0195663
-0.0169806
-0.0147329
-0.0127735
-0.0110615
-0.00956218
-0.00824655
-0.00709041
-0.00607304
-0.00517701
-0.00438722
-0.00369076
-0.00307641
-0.00253441
-0.00205628
-0.00163458
-0.0012628
-0.000935196
-0.000646741
-0.000392989
-0.000169987
2.56021e-05
0.000196742
0.000346061
0.000475838
0.000588099
0.000684591
0.000766836
0.000836137
0.000893592
0.000940123
0.000976479
0.00100323
0.00102085
0.00102963
-0.213913
-0.194805
-0.166226
-0.13828
-0.115177
-0.0966154
-0.0814348
-0.0690156
-0.0587997
-0.0503355
-0.0432631
-0.0373061
-0.0322528
-0.0279394
-0.0242373
-0.0210447
-0.0182803
-0.0158782
-0.0137849
-0.0119566
-0.0103558
-0.00895159
-0.00771797
-0.0066327
-0.00567703
-0.00483479
-0.0040921
-0.00343694
-0.0028589
-0.00234889
-0.00189896
-0.00150219
-0.00115245
-0.000844381
-0.000573277
-0.000334949
-0.000125828
5.72444e-05
0.000217061
0.000356043
0.000476336
0.000579794
0.000668025
0.000742408
0.000804107
0.000854097
0.00089317
0.000921936
0.000940873
0.0009503
-0.219118
-0.198307
-0.169064
-0.141738
-0.119216
-0.100763
-0.0853477
-0.072574
-0.0619781
-0.0531473
-0.0457375
-0.0394782
-0.0341588
-0.0296131
-0.0257092
-0.0223413
-0.0194248
-0.0168906
-0.0146821
-0.0127532
-0.0110645
-0.00958324
-0.00828203
-0.00713736
-0.00612939
-0.00524103
-0.0044576
-0.00376642
-0.00315647
-0.00261818
-0.00214316
-0.00172412
-0.0013546
-0.00102899
-0.000742325
-0.000490214
-0.000268899
-7.50539e-05
9.42586e-05
0.000241583
0.00036917
0.000478963
0.000572647
0.000651668
0.000717245
0.0007704
0.000811961
0.000842567
0.000862716
0.000872742
-0.221785
-0.200937
-0.171421
-0.144644
-0.122598
-0.104257
-0.0887
-0.0756745
-0.0647882
-0.055662
-0.04797
-0.0414522
-0.0359012
-0.0311508
-0.027067
-0.0235417
-0.0204875
-0.017833
-0.0155193
-0.0134981
-0.0117285
-0.0101761
-0.00881236
-0.00761259
-0.00655601
-0.00562471
-0.0048033
-0.00407848
-0.00343872
-0.00287396
-0.00237545
-0.00193554
-0.00154748
-0.00120539
-0.000904108
-0.000639038
-0.000406252
-0.000202266
-2.40115e-05
0.000131171
0.000265632
0.000381396
0.000480222
0.000563618
0.000632853
0.000688993
0.000732901
0.000765245
0.000786538
0.00079713
-0.223518
-0.203522
-0.173948
-0.147621
-0.125846
-0.107493
-0.0917795
-0.0785326
-0.0673955
-0.0580092
-0.050065
-0.0433131
-0.0375505
-0.0326113
-0.0283603
-0.0246878
-0.0215042
-0.018736
-0.0163226
-0.0142137
-0.0123668
-0.0107465
-0.00932291
-0.00807032
-0.00696709
-0.00599453
-0.0051366
-0.00437942
-0.00371096
-0.00312073
-0.0025996
-0.00213959
-0.00173369
-0.00137575
-0.0010604
-0.000782869
-0.000539051
-0.000325316
-0.000138468
2.42638e-05
0.000165323
0.000286818
0.000390577
0.000478166
0.000550908
0.000609908
0.000656065
0.000690073
0.000712462
0.000723596
-0.225378
-0.206242
-0.176655
-0.150688
-0.129032
-0.110559
-0.0946589
-0.0812008
-0.0698355
-0.0602131
-0.0520391
-0.045073
-0.0391154
-0.0340009
-0.0295938
-0.025783
-0.0224773
-0.0196015
-0.0170932
-0.0149008
-0.0129803
-0.011295
-0.00981403
-0.00851078
-0.00736276
-0.00635056
-0.00545753
-0.00466923
-0.00397315
-0.00335842
-0.00281554
-0.0023362
-0.00191314
-0.00153997
-0.00121111
-0.000921606
-0.000667195
-0.000444102
-0.000249009
-7.90383e-05
6.8345e-05
0.000195329
0.000303811
0.000395414
0.000471511
0.000533246
0.000581554
0.000617152
0.00064059
0.000652242
-0.227544
-0.208931
-0.179281
-0.153621
-0.132015
-0.113382
-0.0972923
-0.0836427
-0.0720747
-0.0622426
-0.0538641
-0.0467064
-0.040573
-0.0352994
-0.0307496
-0.0268116
-0.0233932
-0.0204175
-0.0178209
-0.0155504
-0.0135609
-0.0118146
-0.0102797
-0.00892875
-0.0077385
-0.0066889
-0.0057627
-0.00494498
-0.0042228
-0.00358489
-0.00302142
-0.0025238
-0.0020845
-0.00169691
-0.00135526
-0.00105443
-0.000789993
-0.000558044
-0.000355149
-0.000178331
-2.49654e-05
0.00010721
0.000220158
0.000315556
0.000394823
0.000459144
0.000509484
0.000546585
0.000571014
0.000583155
-0.229784
-0.211331
-0.181557
-0.156204
-0.13463
-0.115852
-0.0996046
-0.0858012
-0.0740656
-0.0640568
-0.0555046
-0.0481826
-0.0418967
-0.0364836
-0.0318075
-0.0277562
-0.0242365
-0.0211707
-0.0184941
-0.0161525
-0.0141
-0.0122979
-0.0107135
-0.0093187
-0.00808954
-0.00700541
-0.00604856
-0.00520363
-0.00445728
-0.00379789
-0.00321533
-0.00270074
-0.00224636
-0.00184539
-0.00149186
-0.00118049
-0.000906729
-0.000666541
-0.000456387
-0.000273195
-0.00011426
2.2749e-05
0.000139855
0.000238788
0.000321008
0.000387738
0.00043997
0.000478473
0.000503825
0.000516423
-0.231831
-0.213253
-0.183323
-0.158325
-0.136779
-0.117894
-0.101543
-0.0876373
-0.0757759
-0.0656285
-0.0569375
-0.0494817
-0.0430692
-0.0375384
-0.0327545
-0.0286054
-0.0249976
-0.0218528
-0.0191055
-0.0167009
-0.0145923
-0.0127402
-0.0111114
-0.00967711
-0.00841283
-0.00729747
-0.00631286
-0.00544323
-0.00467491
-0.00399597
-0.00339602
-0.00286596
-0.00239782
-0.00198461
-0.00162021
-0.00129921
-0.00101691
-0.000769175
-0.000552366
-0.000363327
-0.000199283
-5.7836e-05
6.30893e-05
0.000165269
0.000250204
0.000319148
0.00037312
0.00041291
0.000439112
0.00045213
-0.233524
-0.214617
-0.184543
-0.159955
-0.138429
-0.119481
-0.103092
-0.0891379
-0.0771947
-0.0669488
-0.0581553
-0.0505968
-0.0440843
-0.0384583
-0.0335857
-0.029355
-0.0256727
-0.0224605
-0.0196524
-0.0171931
-0.0150355
-0.0131397
-0.0114718
-0.0100025
-0.00870712
-0.00756401
-0.00655465
-0.00566296
-0.00487497
-0.00417851
-0.00356294
-0.00301897
-0.00253844
-0.00211421
-0.00174001
-0.0014103
-0.00112029
-0.00086572
-0.000642886
-0.00044855
-0.000279874
-0.000134402
-1.00111e-05
9.51164e-05
0.000182517
0.000253472
0.000309026
0.000349987
0.000376961
0.000390361
-0.234788
-0.215414
-0.185249
-0.161113
-0.139588
-0.12062
-0.10426
-0.0903087
-0.0783254
-0.0680209
-0.0591603
-0.0515296
-0.0449428
-0.0392438
-0.0343013
-0.0300049
-0.0262617
-0.0229935
-0.0201344
-0.0176288
-0.0154294
-0.013496
-0.0117943
-0.0102948
-0.00897222
-0.00780481
-0.00677372
-0.00586261
-0.00505727
-0.00434532
-0.00371592
-0.00315961
-0.00266808
-0.00223404
-0.00185111
-0.00151364
-0.00121673
-0.000956062
-0.000727838
-0.000528761
-0.000355935
-0.000206855
-7.93554e-05
2.84178e-05
0.000118032
0.000190794
0.000247769
0.000289781
0.000317449
0.000331192
-0.235582
-0.215647
-0.185492
-0.161822
-0.140263
-0.121336
-0.105069
-0.091162
-0.0791775
-0.0688526
-0.0599589
-0.0522847
-0.0456484
-0.0398975
-0.0349034
-0.0305567
-0.0267657
-0.0234528
-0.0205522
-0.0180086
-0.0157744
-0.0138095
-0.0120792
-0.0105539
-0.00920818
-0.00801991
-0.00697009
-0.00604218
-0.0052218
-0.00449637
-0.00385492
-0.00328783
-0.00278667
-0.00234404
-0.00195344
-0.00160915
-0.00130617
-0.00104013
-0.000807148
-0.000603885
-0.000427391
-0.000275121
-0.00014487
-3.47541e-05
5.68213e-05
0.000131185
0.000189419
0.000232364
0.000260647
0.000274695
-0.235867
-0.215294
-0.185317
-0.162088
-0.140455
-0.121656
-0.105537
-0.0917086
-0.0797601
-0.0694519
-0.0605568
-0.0528662
-0.046204
-0.0404218
-0.0353935
-0.0310116
-0.0271856
-0.0238388
-0.0209062
-0.0183326
-0.0160706
-0.0140801
-0.0123265
-0.01078
-0.00941496
-0.00820925
-0.00714368
-0.0062016
-0.00536846
-0.00463157
-0.00397984
-0.00340353
-0.00289412
-0.00244411
-0.00204692
-0.00169674
-0.00138853
-0.00111783
-0.000880739
-0.000673846
-0.00049417
-0.000339129
-0.000206487
-9.4333e-05
-1.05041e-06
7.47081e-05
0.00013404
0.000177798
0.000206617
0.000220929
-0.235598
-0.214309
-0.184753
-0.161869
-0.140177
-0.12161
-0.105674
-0.0919554
-0.0800804
-0.0698247
-0.0609581
-0.0532772
-0.046612
-0.0408182
-0.0357728
-0.0313702
-0.0275217
-0.0241518
-0.0211964
-0.0186007
-0.0163179
-0.0143078
-0.012536
-0.0109728
-0.00959235
-0.00837261
-0.00729429
-0.00634065
-0.00549706
-0.00475075
-0.00409052
-0.00350658
-0.0029903
-0.00253413
-0.00213143
-0.00177632
-0.00146371
-0.00118909
-0.000948525
-0.000738567
-0.000556199
-0.000398811
-0.000264141
-0.000150257
-5.55237e-05
2.14209e-05
8.16864e-05
0.000126136
0.000155411
0.000169947
-0.234642
-0.212679
-0.18382
-0.161095
-0.139459
-0.121212
-0.10548
-0.0919071
-0.0801439
-0.0699756
-0.0611659
-0.0535197
-0.0468737
-0.0410877
-0.0360417
-0.0316327
-0.027774
-0.0243916
-0.0214225
-0.0188127
-0.0165158
-0.0144921
-0.0127073
-0.0111319
-0.00974006
-0.00850972
-0.00742166
-0.00645911
-0.0056074
-0.00485371
-0.00418679
-0.00359679
-0.00307505
-0.00261397
-0.00220686
-0.00184778
-0.0015316
-0.00125381
-0.00101042
-0.000797972
-0.000613408
-0.000454102
-0.000317772
-0.00020247
-0.000106546
-2.86271e-05
3.24063e-05
7.74242e-05
0.000107073
0.000121794
-0.232921
-0.210326
-0.18248
-0.159705
-0.138346
-0.120453
-0.104954
-0.0915683
-0.0799561
-0.0699085
-0.0611826
-0.0535959
-0.0469908
-0.0412312
-0.0362009
-0.0317994
-0.0279424
-0.024558
-0.0215844
-0.0189684
-0.0166642
-0.0146328
-0.0128402
-0.0112571
-0.0098578
-0.0086203
-0.00752553
-0.00655674
-0.00569926
-0.00494026
-0.00426847
-0.00367403
-0.00314825
-0.00268351
-0.00227309
-0.001911
-0.00159213
-0.00131191
-0.00106636
-0.000851993
-0.000665737
-0.000504947
-0.00036733
-0.000250925
-0.000154074
-7.53939e-05
-1.37604e-05
3.17022e-05
6.16431e-05
7.65051e-05
-0.230368
-0.207306
-0.180502
-0.157734
-0.136864
-0.119316
-0.1041
-0.0909457
-0.0795237
-0.0696268
-0.0610115
-0.0535086
-0.0469654
-0.0412502
-0.0362515
-0.0318711
-0.0280275
-0.0246514
-0.0216821
-0.0190676
-0.016763
-0.0147298
-0.0129345
-0.0113484
-0.00994545
-0.00870422
-0.00760577
-0.00663341
-0.00577252
-0.00501029
-0.00433546
-0.00373819
-0.00320979
-0.00274265
-0.00233005
-0.00196593
-0.00164521
-0.00136333
-0.00111629
-0.000900583
-0.000713141
-0.000551305
-0.000412776
-0.000295587
-0.000198072
-0.000118847
-5.67827e-05
-1.10004e-05
1.91489e-05
3.41086e-05
-0.226919
-0.203625
-0.177764
-0.155254
-0.134966
-0.117811
-0.102929
-0.0900507
-0.078858
-0.0691327
-0.0606576
-0.0532618
-0.0468006
-0.0411472
-0.0361956
-0.0318482
-0.0280301
-0.0246724
-0.0217162
-0.0191109
-0.0168124
-0.0147832
-0.0129903
-0.0114057
-0.0100029
-0.00876139
-0.00766231
-0.00668907
-0.00582712
-0.00506372
-0.00438769
-0.00378921
-0.00325963
-0.00279135
-0.00237771
-0.00201253
-0.00169081
-0.00140803
-0.00116016
-0.000943707
-0.000755587
-0.000593146
-0.000454083
-0.000336428
-0.000238517
-0.000158963
-9.66372e-05
-5.06602e-05
-2.03861e-05
-5.37508e-06
-0.222521
-0.199252
-0.174282
-0.152291
-0.132635
-0.115947
-0.101452
-0.0888929
-0.0779627
-0.0684405
-0.0601282
-0.0528615
-0.0465011
-0.0409261
-0.0360338
-0.031733
-0.0279515
-0.0246221
-0.0216875
-0.0190986
-0.0168129
-0.0147933
-0.0130077
-0.0114294
-0.0100302
-0.0087918
-0.00769518
-0.00672373
-0.00586307
-0.00510059
-0.00442518
-0.0038271
-0.00329776
-0.0028296
-0.00241606
-0.00205074
-0.00172891
-0.00144599
-0.00119797
-0.000981351
-0.000793063
-0.000630456
-0.000491236
-0.000373435
-0.000275394
-0.000195728
-0.00013331
-8.72634e-05
-5.69473e-05
-4.19353e-05
-0.217138
-0.194158
-0.170127
-0.148849
-0.12988
-0.113733
-0.0996808
-0.0874825
-0.0768456
-0.0675573
-0.0594302
-0.0523128
-0.0460706
-0.0405893
-0.035771
-0.031529
-0.027794
-0.0245019
-0.021597
-0.019032
-0.0167652
-0.0147609
-0.0129877
-0.0114185
-0.0100276
-0.00879581
-0.00770456
-0.00673751
-0.00588046
-0.00512094
-0.00444796
-0.00385189
-0.00332421
-0.00285747
-0.00244511
-0.00208056
-0.00175949
-0.00147721
-0.00122971
-0.00101351
-0.000825563
-0.000663232
-0.000524231
-0.000406605
-0.000308698
-0.000229138
-0.000166797
-0.000120803
-9.05254e-05
-7.55689e-05
-0.210763
-0.188336
-0.165365
-0.144939
-0.126726
-0.111186
-0.097629
-0.0858306
-0.0755166
-0.0664889
-0.0585707
-0.0516211
-0.0455137
-0.0401407
-0.0354094
-0.0312385
-0.0275601
-0.0243138
-0.0214463
-0.0189118
-0.0166701
-0.0146864
-0.0129302
-0.0113748
-0.00999583
-0.00877385
-0.00769081
-0.00673069
-0.0058795
-0.00512494
-0.00445619
-0.00386371
-0.00333911
-0.00287496
-0.00246461
-0.00210206
-0.00178262
-0.00150172
-0.0012554
-0.0010402
-0.000853103
-0.000691486
-0.000553078
-0.000435944
-0.000338436
-0.000259196
-0.0001971
-0.000151281
-0.000121115
-0.000106282
-0.203422
-0.181809
-0.160045
-0.140585
-0.123202
-0.108329
-0.0953121
-0.0839492
-0.0739863
-0.0652433
-0.0575558
-0.0507919
-0.0448349
-0.0395841
-0.0349522
-0.0308631
-0.0272512
-0.0240593
-0.0212366
-0.0187392
-0.0165284
-0.0145704
-0.0128358
-0.0112984
-0.0099351
-0.0087262
-0.00765421
-0.00670353
-0.00586041
-0.00511279
-0.00445
-0.00386266
-0.00334248
-0.00288211
-0.00247501
-0.00211537
-0.0017984
-0.00151962
-0.00127512
-0.00106149
-0.000875729
-0.000715254
-0.000577807
-0.000461476
-0.000364632
-0.000285923
-0.000224242
-0.000178729
-0.000148763
-0.000133958
-0.195173
-0.174627
-0.154211
-0.135817
-0.119336
-0.105183
-0.0927477
-0.0818521
-0.072267
-0.0638302
-0.0563924
-0.0498311
-0.0440394
-0.0389237
-0.0344027
-0.0304052
-0.0268691
-0.0237398
-0.0209693
-0.0185154
-0.0163411
-0.014414
-0.0127054
-0.0111901
-0.00984577
-0.0086531
-0.00759499
-0.00665623
-0.00582339
-0.00508465
-0.00442955
-0.00384887
-0.00333446
-0.00287908
-0.00247634
-0.00212055
-0.00180688
-0.00153095
-0.00128892
-0.00107742
-0.000893494
-0.000734583
-0.000598462
-0.000483243
-0.00038732
-0.000309351
-0.000248249
-0.000203162
-0.00017347
-0.000158767
-0.186105
-0.166857
-0.14791
-0.130676
-0.115161
-0.101775
-0.0899552
-0.0795548
-0.0703711
-0.0622602
-0.0550885
-0.0487452
-0.0431323
-0.0381638
-0.0337645
-0.029868
-0.026416
-0.0233571
-0.0206456
-0.0182415
-0.0161092
-0.0142178
-0.0125396
-0.0110503
-0.00972837
-0.00855496
-0.00751345
-0.00658904
-0.00576864
-0.0050407
-0.004395
-0.0038225
-0.0033152
-0.00286602
-0.00246869
-0.00211766
-0.00180812
-0.00153578
-0.00129686
-0.00108805
-0.000906438
-0.00074951
-0.00061508
-0.000501282
-0.000406534
-0.000329514
-0.000269154
-0.000224613
-0.000195274
-0.000180728
-0.176332
-0.158581
-0.141202
-0.125206
-0.110712
-0.0981309
-0.0869556
-0.0770741
-0.0683117
-0.060544
-0.0536533
-0.0475412
-0.0421193
-0.037309
-0.0330413
-0.0292547
-0.0258948
-0.0229134
-0.0202674
-0.0179188
-0.0158339
-0.0139828
-0.0123393
-0.0108797
-0.00958347
-0.0084323
-0.00741003
-0.00650233
-0.00569648
-0.00498121
-0.00434656
-0.00378372
-0.00328486
-0.00284306
-0.00245219
-0.00210681
-0.00180221
-0.00153417
-0.00129899
-0.00109342
-0.000914613
-0.000760088
-0.000627706
-0.000515631
-0.000422311
-0.000346448
-0.000286991
-0.000243113
-0.000214208
-0.000199867
-0.165988
-0.149892
-0.134154
-0.119454
-0.106023
-0.0942779
-0.0837707
-0.0744271
-0.0661024
-0.0586924
-0.0520959
-0.0462266
-0.0410062
-0.0363639
-0.0322368
-0.0285684
-0.0253081
-0.0224109
-0.0198365
-0.017549
-0.0155164
-0.0137102
-0.0121052
-0.010679
-0.00941171
-0.00828563
-0.00728519
-0.0063965
-0.00560724
-0.00490647
-0.00428451
-0.00373277
-0.00324363
-0.00281035
-0.00242696
-0.00208814
-0.00178927
-0.00152623
-0.00129541
-0.00109362
-0.000918087
-0.000766374
-0.000636389
-0.000526336
-0.000434692
-0.000360188
-0.000301793
-0.000258696
-0.000230301
-0.000216208
-0.155223
-0.140895
-0.126843
-0.113476
-0.101134
-0.0902457
-0.0804231
-0.0716318
-0.0637574
-0.0567169
-0.0504254
-0.0448091
-0.0397995
-0.0353339
-0.0313554
-0.0278126
-0.0246588
-0.0218522
-0.0193551
-0.0171338
-0.0151581
-0.013401
-0.0118385
-0.0104492
-0.00921384
-0.00811563
-0.0071395
-0.00627204
-0.00550135
-0.00481685
-0.00420915
-0.00366993
-0.00319177
-0.00276813
-0.0023932
-0.00206181
-0.00176944
-0.00151209
-0.00128623
-0.00108876
-0.000916956
-0.000768455
-0.000641211
-0.00053347
-0.000443746
-0.000370799
-0.000313619
-0.000271418
-0.00024361
-0.000229806
-0.144193
-0.131697
-0.119346
-0.107326
-0.0960858
-0.0860641
-0.0769355
-0.0687059
-0.061291
-0.0546287
-0.0486508
-0.0432959
-0.0385052
-0.0342239
-0.0304013
-0.0269907
-0.0239497
-0.0212394
-0.0188251
-0.0166749
-0.0147606
-0.0130567
-0.0115403
-0.010191
-0.00899062
-0.00792294
-0.0069735
-0.00612942
-0.00537922
-0.00471271
-0.00412081
-0.00359547
-0.00312952
-0.0027166
-0.00235109
-0.00202798
-0.00174288
-0.00149189
-0.00127158
-0.00107894
-0.000911314
-0.000766416
-0.000642249
-0.000537105
-0.000449538
-0.00037834
-0.000322529
-0.000281336
-0.00025419
-0.000240712
-0.133054
-0.122406
-0.111743
-0.101062
-0.0909194
-0.0817642
-0.0733316
-0.0656679
-0.0587179
-0.0524398
-0.0467818
-0.0416949
-0.0371298
-0.0330394
-0.0293789
-0.0261066
-0.023184
-0.0205755
-0.0182487
-0.0161742
-0.0143255
-0.0126785
-0.0112116
-0.00990555
-0.00874296
-0.00770835
-0.0067879
-0.00596924
-0.00524139
-0.00459452
-0.0040199
-0.00350975
-0.00305718
-0.00265604
-0.00230089
-0.00198689
-0.00170978
-0.00146579
-0.0012516
-0.00106429
-0.000901291
-0.000760374
-0.000639609
-0.000537339
-0.000452159
-0.000382899
-0.000328605
-0.000288528
-0.000262116
-0.000249002
-0.121954
-0.113123
-0.104107
-0.094738
-0.0856746
-0.077376
-0.0696338
-0.0625354
-0.0560518
-0.0501612
-0.0448274
-0.0400134
-0.0356793
-0.0317853
-0.0282924
-0.0251638
-0.0223647
-0.0198627
-0.017628
-0.0156335
-0.0138542
-0.0122677
-0.0108537
-0.0095938
-0.00847168
-0.00747257
-0.00658329
-0.00579205
-0.00508831
-0.00446267
-0.00390675
-0.00341309
-0.00297504
-0.00258669
-0.0022428
-0.00193871
-0.00167031
-0.00143395
-0.00122644
-0.00104494
-0.000886992
-0.000750426
-0.000633379
-0.000534252
-0.000451685
-0.000384545
-0.00033191
-0.000293056
-0.00026745
-0.000254735
-0.111027
-0.103947
-0.0965123
-0.0884066
-0.0803911
-0.0729295
-0.0658657
-0.0593268
-0.0533075
-0.0478047
-0.0427973
-0.0382595
-0.0341604
-0.0304671
-0.0271465
-0.0241662
-0.0214951
-0.019104
-0.0169656
-0.0150549
-0.0133486
-0.011826
-0.0104678
-0.00925695
-0.00817784
-0.00721653
-0.00636051
-0.00559855
-0.00492062
-0.00431773
-0.00378187
-0.00330591
-0.00288347
-0.00250888
-0.00217712
-0.00188371
-0.0016247
-0.00139659
-0.00119628
-0.00102107
-0.000868574
-0.000736714
-0.000623691
-0.000527965
-0.000448226
-0.000383383
-0.000332546
-0.000295018
-0.000270284
-0.000258002
-0.100394
-0.094964
-0.0890194
-0.0821144
-0.0751039
-0.0684515
-0.0620482
-0.0560583
-0.0504977
-0.0453806
-0.0406998
-0.03644
-0.0325787
-0.0290897
-0.0259452
-0.0231172
-0.0205782
-0.0183019
-0.0162635
-0.0144401
-0.0128103
-0.0113546
-0.0100552
-0.00889597
-0.00786227
-0.00694096
-0.00612018
-0.0053893
-0.00473879
-0.00416011
-0.00364564
-0.00318855
-0.00278277
-0.00242288
-0.00210409
-0.0018221
-0.00157314
-0.00135385
-0.00116127
-0.0009928
-0.000846153
-0.000719341
-0.000610639
-0.000518565
-0.000441863
-0.000379487
-0.000330582
-0.000294479
-0.000270684
-0.000258867
-0.0901548
-0.0862507
-0.0816858
-0.0759055
-0.0698477
-0.063969
-0.0582029
-0.0527474
-0.0476365
-0.0429005
-0.0385445
-0.034563
-0.0309411
-0.0276588
-0.0246934
-0.022021
-0.0196175
-0.0174594
-0.0155245
-0.0137917
-0.0122414
-0.0108555
-0.00961745
-0.00851226
-0.00752622
-0.00664693
-0.00586326
-0.00516515
-0.00454359
-0.00399049
-0.00349862
-0.00306152
-0.00267339
-0.0023291
-0.00202407
-0.00175421
-0.00151593
-0.00130601
-0.00112165
-0.000960345
-0.000819925
-0.000698489
-0.000594386
-0.000506203
-0.000432739
-0.000372992
-0.000326147
-0.000291564
-0.000268769
-0.000257449
-0.0803892
-0.0778688
-0.074558
-0.0698164
-0.0646504
-0.0595035
-0.0543468
-0.0494075
-0.0447347
-0.0403731
-0.0363387
-0.0326344
-0.0292525
-0.0261786
-0.0233947
-0.0208806
-0.0186156
-0.0165789
-0.0147505
-0.0131112
-0.0116431
-0.0103297
-0.00915557
-0.00810676
-0.00717048
-0.00633517
-0.00559037
-0.00492663
-0.00433547
-0.00380928
-0.0033412
-0.00292514
-0.00255563
-0.00222779
-0.00193728
-0.00168023
-0.00145323
-0.00125323
-0.00107755
-0.000923831
-0.000790003
-0.000674257
-0.000575026
-0.000490965
-0.00042093
-0.00036397
-0.000319308
-0.000286335
-0.000264602
-0.000253808
-0.0711583
-0.0698691
-0.0676783
-0.0638819
-0.0595404
-0.0550777
-0.0504987
-0.0460543
-0.0418056
-0.0378096
-0.0340917
-0.0306624
-0.0275199
-0.0246552
-0.0220543
-0.0197007
-0.0175766
-0.0156638
-0.0139444
-0.0124013
-0.011018
-0.00977944
-0.00867145
-0.00768109
-0.00679652
-0.00600696
-0.00530265
-0.00467476
-0.00411535
-0.00361727
-0.00317409
-0.00278007
-0.00243005
-0.00211945
-0.00184417
-0.00160057
-0.00138541
-0.00119582
-0.00102927
-0.000883529
-0.000756632
-0.000646872
-0.000552766
-0.000473042
-0.000406617
-0.000352591
-0.000310227
-0.000278951
-0.000258334
-0.000248096
-0.0625063
-0.062287
-0.0610757
-0.0581259
-0.0545365
-0.0507065
-0.0466705
-0.0426974
-0.0388571
-0.0352166
-0.031809
-0.0286513
-0.0257472
-0.0230917
-0.020675
-0.0184836
-0.0165025
-0.0147159
-0.013108
-0.0116633
-0.0103672
-0.00920572
-0.00816597
-0.00723604
-0.006405
-0.00566288
-0.00500062
-0.00441
-0.00388363
-0.00341482
-0.00299759
-0.00262655
-0.00229689
-0.0020043
-0.00174494
-0.00151539
-0.00131262
-0.00113393
-0.000976935
-0.00083954
-0.000719903
-0.000616414
-0.000527679
-0.0004525
-0.00038986
-0.000338909
-0.000298957
-0.000269459
-0.000250014
-0.000240358
-0.0544588
-0.0551494
-0.0547776
-0.052573
-0.0496602
-0.0464084
-0.0428785
-0.039351
-0.0359016
-0.0326048
-0.0295001
-0.0266097
-0.0239416
-0.0214948
-0.0192625
-0.0172344
-0.0153978
-0.0137392
-0.0122447
-0.0109006
-0.00969352
-0.00861103
-0.00764135
-0.00677358
-0.0059977
-0.00530452
-0.00468568
-0.0041336
-0.00364141
-0.00320294
-0.0028126
-0.0024654
-0.00215686
-0.00188297
-0.00164016
-0.00142522
-0.00123533
-0.00106797
-0.000920916
-0.000792211
-0.000680131
-0.000583173
-0.000500032
-0.000429589
-0.000370892
-0.000323146
-0.000285706
-0.000258062
-0.000239839
-0.000230789
-0.0470316
-0.048469
-0.0487946
-0.0472329
-0.0449193
-0.0421901
-0.0391284
-0.0360198
-0.0329428
-0.0299776
-0.0271678
-0.0245399
-0.0221053
-0.0198661
-0.0178184
-0.0159544
-0.0142637
-0.0127348
-0.0113555
-0.0101137
-0.00899761
-0.00799596
-0.00709811
-0.00629417
-0.00557499
-0.0049322
-0.00435812
-0.0038458
-0.00338892
-0.00298179
-0.00261928
-0.00229676
-0.00201009
-0.00175558
-0.00152991
-0.00133012
-0.00115359
-0.000997996
-0.000861265
-0.000741583
-0.000637353
-0.000547179
-0.000469851
-0.00040433
-0.000349731
-0.000305318
-0.000270489
-0.000244773
-0.000227821
-0.000219402
-0.0402213
-0.0422531
-0.043141
-0.0421208
-0.0403295
-0.0380671
-0.0354346
-0.0327172
-0.0299932
-0.0273461
-0.0248224
-0.0224513
-0.0202467
-0.0182133
-0.0163496
-0.0146498
-0.0131057
-0.0117075
-0.0104446
-0.00930666
-0.00828302
-0.00736367
-0.00653908
-0.00580032
-0.00513915
-0.00454795
-0.00401976
-0.00354823
-0.00312761
-0.0027527
-0.00241879
-0.00212166
-0.00185752
-0.00162296
-0.00141496
-0.00123079
-0.00106804
-0.000924572
-0.00079849
-0.00068812
-0.000591991
-0.000508822
-0.000437496
-0.000377058
-0.000326692
-0.000285721
-0.00025359
-0.000229866
-0.000214226
-0.000206458
-0.0340266
-0.0364955
-0.0378096
-0.0372315
-0.0358865
-0.0340365
-0.031795
-0.0294415
-0.0270513
-0.0247092
-0.0224629
-0.0203429
-0.018365
-0.0165358
-0.0148554
-0.0133202
-0.0119234
-0.0106569
-0.00951195
-0.0084792
-0.00754948
-0.00671391
-0.00596402
-0.00529184
-0.00468998
-0.0041516
-0.00367043
-0.00324074
-0.00285734
-0.00251552
-0.00221101
-0.00194
-0.00169903
-0.00148502
-0.00129521
-0.00112712
-0.000978575
-0.000847614
-0.000732511
-0.000631745
-0.000543975
-0.000468032
-0.0004029
-0.000347707
-0.000301711
-0.000264294
-0.000234949
-0.000213281
-0.000198997
-0.000191904
-0.0284184
-0.0311881
-0.0328051
-0.0325744
-0.0316029
-0.0301123
-0.0282242
-0.026207
-0.024131
-0.0220801
-0.0201015
-0.0182262
-0.0164708
-0.0148431
-0.0133448
-0.0119734
-0.0107239
-0.00958974
-0.00856327
-0.0076366
-0.00680176
-0.00605098
-0.0053768
-0.00477219
-0.00423059
-0.00374593
-0.00331262
-0.00292557
-0.00258011
-0.00227205
-0.00199756
-0.00175322
-0.00153593
-0.00134292
-0.00117171
-0.00102009
-0.00088607
-0.000767907
-0.000664044
-0.000573111
-0.0004939
-0.000425359
-0.000366573
-0.000316754
-0.000275236
-0.000241459
-0.000214969
-0.000195409
-0.000182514
-0.000176108
-0.0233908
-0.026309
-0.0281023
-0.0281281
-0.0274607
-0.02628
-0.02471
-0.0230034
-0.0212234
-0.0194511
-0.0177318
-0.0160956
-0.0145591
-0.0131309
-0.0118136
-0.0106061
-0.00950436
-0.00850316
-0.00759619
-0.00677673
-0.00603795
-0.00537315
-0.00477587
-0.00423997
-0.00375973
-0.00332982
-0.00294534
-0.0026018
-0.00229512
-0.00202157
-0.00177778
-0.00156073
-0.00136768
-0.00119618
-0.00104403
-0.000909267
-0.000790143
-0.000685103
-0.000592768
-0.000511921
-0.000441492
-0.000380546
-0.000328272
-0.00028397
-0.000247047
-0.000217009
-0.00019345
-0.000176053
-0.000164585
-0.000158891
-0.0188856
-0.0218381
-0.0237014
-0.0239007
-0.0234737
-0.0225567
-0.0212707
-0.0198495
-0.0183471
-0.0168403
-0.0153707
-0.0139668
-0.0126446
-0.0114128
-0.0102746
-0.00922955
-0.00827496
-0.00740656
-0.00661917
-0.00590722
-0.00526494
-0.00468665
-0.00416683
-0.00370023
-0.00328193
-0.00290734
-0.00257223
-0.00227274
-0.0020053
-0.00176671
-0.00155404
-0.00136466
-0.0011962
-0.00104652
-0.000913719
-0.000796078
-0.000692079
-0.000600367
-0.000519742
-0.000449144
-0.000387638
-0.000334412
-0.000288757
-0.000250063
-0.000217812
-0.000191574
-0.000170995
-0.000155799
-0.000145781
-0.000140804
-0.0149078
-0.0177381
-0.019557
-0.0198521
-0.0196068
-0.0189123
-0.0178803
-0.0167224
-0.0154823
-0.01423
-0.0130027
-0.0118262
-0.0107153
-0.009678
-0.00871797
-0.00783533
-0.00702816
-0.00629315
-0.00562617
-0.00502267
-0.0044779
-0.00398714
-0.0035458
-0.00314948
-0.00279406
-0.00247568
-0.00219079
-0.0019361
-0.00170863
-0.00150566
-0.0013247
-0.00116354
-0.00102016
-0.000892744
-0.000779683
-0.000679522
-0.000590968
-0.00051287
-0.000444208
-0.000384081
-0.000331696
-0.00028636
-0.00024747
-0.000214509
-0.000187036
-0.000164684
-0.000147152
-0.000134206
-0.000125672
-0.000121437
-0.0113544
-0.0139804
-0.015672
-0.0159955
-0.0158824
-0.0153734
-0.0145667
-0.0136508
-0.0126571
-0.0116475
-0.0106537
-0.00969809
-0.00879343
-0.00794721
-0.0071628
-0.00644073
-0.0057797
-0.00517725
-0.00463014
-0.00413479
-0.00368738
-0.00328415
-0.00292135
-0.00259545
-0.00230309
-0.00204111
-0.00180663
-0.00159695
-0.00140965
-0.00124248
-0.00109343
-0.000960655
-0.000842515
-0.000737521
-0.000644343
-0.000561788
-0.000488794
-0.000424413
-0.000367806
-0.000318233
-0.000275039
-0.000237657
-0.000205588
-0.000178406
-0.00015575
-0.000137316
-0.000122858
-0.000112181
-0.000105142
-0.000101643
-0.00826238
-0.01051
-0.0119762
-0.0122656
-0.0122423
-0.0118875
-0.0112827
-0.0105927
-0.00983397
-0.00905912
-0.00829351
-0.00755527
-0.00685489
-0.00619866
-0.00558956
-0.00502824
-0.00451391
-0.00404479
-0.00361848
-0.00323227
-0.00288327
-0.00256858
-0.00228535
-0.00203084
-0.00180244
-0.00159773
-0.00141446
-0.00125055
-0.00110409
-0.000973358
-0.000856773
-0.00075291
-0.000660481
-0.000578329
-0.000505414
-0.000440807
-0.000383676
-0.000333284
-0.000288973
-0.000250166
-0.000216352
-0.000187084
-0.000161976
-0.000140694
-0.000122955
-0.000108521
-9.71995e-05
-8.88386e-05
-8.33268e-05
-8.05951e-05
-0.00545842
-0.00729581
-0.00848481
-0.00869154
-0.00872885
-0.0084994
-0.00807456
-0.00759539
-0.00705842
-0.00650842
-0.00596315
-0.00543612
-0.00493511
-0.00446501
-0.00402816
-0.00362517
-0.00325561
-0.00291829
-0.00261156
-0.00233354
-0.00208218
-0.00185545
-0.0016513
-0.00146778
-0.00130306
-0.00115537
-0.00102312
-0.000904821
-0.000799096
-0.000704705
-0.000620515
-0.000545501
-0.000478737
-0.000419388
-0.000366707
-0.000320022
-0.000278737
-0.000242317
-0.000210291
-0.00018224
-0.000157796
-0.000136638
-0.000118486
-0.000103099
-9.02731e-05
-7.98366e-05
-7.16502e-05
-6.56043e-05
-6.16178e-05
-5.96316e-05
-0.00304524
-0.00426552
-0.00508778
-0.00517358
-0.00524592
-0.00511711
-0.0048597
-0.00458278
-0.00426075
-0.00393214
-0.00360514
-0.00328848
-0.00298692
-0.00270364
-0.00244013
-0.00219684
-0.00197357
-0.00176965
-0.00158412
-0.00141588
-0.00126371
-0.0011264
-0.00100272
-0.000891516
-0.000791667
-0.000702129
-0.000621932
-0.000550176
-0.000486039
-0.000428768
-0.000377679
-0.000332152
-0.000291626
-0.000255598
-0.000223614
-0.000195268
-0.000170197
-0.00014808
-0.000128629
-0.000111591
-9.67435e-05
-8.38909e-05
-7.28635e-05
-6.35156e-05
-5.57229e-05
-4.9382e-05
-4.4408e-05
-4.07343e-05
-3.83119e-05
-3.71145e-05
-0.000770902
-0.00141067
-0.00181322
-0.00178442
-0.00186364
-0.00181309
-0.00171578
-0.00162841
-0.00151183
-0.00139748
-0.00128224
-0.00117059
-0.00106402
-0.000963815
-0.000870489
-0.000784233
-0.000705012
-0.000632601
-0.000566676
-0.000506858
-0.000452724