/*--------------------------------*- C++ -*----------------------------------*\
  =========                 |
  \\      /  F ield         | OpenFOAM: The Open Source CFD Toolbox
   \\    /   O peration     | Website:  https://openfoam.org
    \\  /    A nd           | Version:  7
     \\/     M anipulation  |
\*---------------------------------------------------------------------------*/
FoamFile
{
    version     2.0;
    format      ascii;
    class       surfaceScalarField;
    location    "30";
    object      phi;
}
// * * * * * * * * * * * * * * * * * * * * * * * * * * * * * * * * * * * * * //

dimensions      [0 3 -1 0 0 0 0];

internalField   nonuniform List<scalar> 
2638
(
0.00272717
-0.000114979
0.00284213
-0.000114963
0.00295692
-0.000114789
0.00307138
-0.000114468
0.00318539
-0.000114009
0.00329882
-0.000113422
0.00341153
-0.000112718
0.00352344
-0.000111906
0.00363443
-0.000110996
0.00374443
-0.000109998
0.00385335
-0.000108921
0.00396113
-0.000107772
0.00406769
-0.000106561
0.00417298
-0.000105295
0.00427696
-0.000103981
0.00437959
-0.000102626
0.00448082
-0.000101235
0.00458064
-9.98144e-05
0.00467901
-9.83692e-05
0.00477591
-9.69044e-05
0.00487134
-9.54242e-05
0.00496527
-9.39326e-05
0.0050577
-9.24334e-05
0.00514863
-9.09298e-05
0.00523806
-8.94249e-05
0.00532598
-8.79215e-05
0.0054124
-8.64219e-05
0.00549733
-8.49284e-05
0.00558077
-8.3443e-05
0.00566274
-8.19676e-05
0.00574324
-8.05036e-05
0.0058223
-7.90527e-05
0.00589991
-7.76159e-05
0.00597611
-7.61944e-05
0.0060509
-7.47892e-05
0.0061243
-7.34011e-05
0.00619633
-7.20309e-05
0.00626701
-7.06792e-05
0.00633635
-6.93464e-05
0.00640439
-6.80332e-05
0.00647113
-6.67397e-05
0.00653659
-6.54663e-05
0.00660081
-6.42133e-05
0.00666379
-6.29807e-05
0.00672555
-6.17687e-05
0.00678613
-6.05774e-05
0.00684554
-5.94067e-05
0.0069038
-5.82567e-05
7.09383e-12
0.00696092
-5.71272e-05
3.10032e-12
-5.60182e-05
-2.29513e-12
0.00314963
-0.000223621
0.00325822
-0.000223557
0.00336662
-0.000223188
0.00347469
-0.000222534
0.00358229
-0.000221614
0.00368932
-0.000220449
0.00379566
-0.000219059
0.00390122
-0.000217462
0.0040059
-0.000215679
0.00410963
-0.000213727
0.00421233
-0.000211625
0.00431395
-0.000209387
0.00441442
-0.00020703
0.00451369
-0.000204569
0.00461172
-0.000202016
0.00470848
-0.000199385
0.00480393
-0.000196686
0.00489805
-0.000193932
0.00499081
-0.000191131
0.0050822
-0.000188293
0.0051722
-0.000185426
0.00526081
-0.000182538
0.00534801
-0.000179636
0.00543381
-0.000176726
0.0055182
-0.000173814
0.00560118
-0.000170905
0.00568276
-0.000168004
0.00576295
-0.000165114
0.00584175
-0.000162241
0.00591917
-0.000159387
0.00599522
-0.000156556
0.00606992
-0.00015375
0.00614327
-0.000150971
0.0062153
-0.000148222
0.00628601
-0.000145504
0.00635543
-0.000142819
0.00642357
-0.000140169
0.00649045
-0.000137555
0.00655608
-0.000134978
0.00662048
-0.000132438
0.00668368
-0.000129936
0.00674568
-0.000127473
0.00680652
-0.000125049
0.0068662
-0.000122665
0.00692476
-0.000120321
0.0069822
-0.000118017
0.00703854
-0.000115752
0.00709381
-0.000113527
0.00714803
-0.000111343
-0.000109197
0.00394148
0.00403776
-0.000319842
0.00413384
-0.000319271
0.00422961
-0.000318295
0.00432494
-0.000316945
0.00441974
-0.00031525
0.00451392
-0.000313239
0.00460739
-0.00031094
0.00470009
-0.00030838
0.00479195
-0.000305586
0.00488291
-0.000302581
0.00497291
-0.000299388
0.00506191
-0.00029603
0.00514987
-0.000292527
0.00523675
-0.000288896
0.00532252
-0.000285157
0.00540716
-0.000281324
0.00549064
-0.000277413
0.00557295
-0.000273438
0.00565407
-0.000269412
0.00573399
-0.000265345
0.0058127
-0.000261249
0.00589019
-0.000257134
0.00596648
-0.000253008
0.00604154
-0.000248878
0.00611539
-0.000244754
0.00618803
-0.00024064
0.00625946
-0.000236544
0.00632969
-0.00023247
0.00639872
-0.000228424
0.00646657
-0.000224409
0.00653325
-0.000220429
0.00659877
-0.000216488
0.00666314
-0.000212589
0.00672637
-0.000208734
0.00678847
-0.000204926
0.00684947
-0.000201167
0.00690937
-0.000197458
0.0069682
-0.0001938
0.00702596
-0.000190196
0.00708267
-0.000186646
0.00713834
-0.00018315
0.007193
-0.00017971
0.00724666
-0.000176326
0.00729934
-0.000172998
0.00735105
-0.000169727
0.00740181
-0.000166512
0.00745164
-0.000163353
0.00750054
-0.00016025
0.00754855
-0.000157203
-0.000154213
0.00508282
-0.000398714
0.00516156
-0.000398016
0.00524009
-0.00039682
0.00531831
-0.000395165
0.00539615
-0.000393086
0.00547353
-0.000390621
0.00555039
-0.000387805
0.00562668
-0.00038467
0.00570235
-0.000381248
0.00577733
-0.000377569
0.00585161
-0.00037366
0.00592512
-0.000369549
0.00599786
-0.000365258
0.00606977
-0.000360812
0.00614084
-0.00035623
0.00621105
-0.000351534
0.00628038
-0.00034674
0.00634881
-0.000341866
0.00641632
-0.000336927
0.00648292
-0.000331937
0.00654858
-0.000326909
0.0066133
-0.000321855
0.00667708
-0.000316786
0.00673991
-0.000311712
0.0068018
-0.000306642
0.00686274
-0.000301583
0.00692274
-0.000296543
0.0069818
-0.00029153
0.00703992
-0.000286548
0.00709712
-0.000281603
0.00715339
-0.0002767
0.00720874
-0.000271844
0.00726319
-0.000267037
0.00731674
-0.000262284
0.0073694
-0.000257587
0.00742119
-0.000252949
0.0074721
-0.000248371
0.00752216
-0.000243857
0.00757137
-0.000239407
0.00761974
-0.000235022
0.0076673
-0.000230704
0.00771404
-0.000226454
0.00775999
-0.000222272
0.00780515
-0.000218158
0.00784953
-0.000214114
0.00789316
-0.000210138
0.00793604
-0.000206232
0.00797818
-0.000202394
0.00801961
-0.000198625
-0.000194925
0.00626319
0.00632095
-0.000455777
0.00637877
-0.00045464
0.00643658
-0.000452977
0.00649433
-0.000450831
0.00655195
-0.000448242
0.00660939
-0.00044525
0.00666661
-0.000441891
0.00672356
-0.0004382
0.00678021
-0.00043421
0.0068365
-0.000429953
0.00689241
-0.000425457
0.0069479
-0.000420751
0.00700295
-0.000415859
0.00705752
-0.000410805
0.0071116
-0.000405612
0.00716516
-0.0004003
0.00721818
-0.000394889
0.00727065
-0.000389395
0.00732255
-0.000383835
0.00737387
-0.000378224
0.00742459
-0.000372576
0.0074747
-0.000366903
0.00752421
-0.000361217
0.00757309
-0.000355528
0.00762136
-0.000349845
0.00766899
-0.000344179
0.007716
-0.000338536
0.00776237
-0.000332923
0.00780812
-0.000327347
0.00785323
-0.000321814
0.00789771
-0.000316329
0.00794157
-0.000310896
0.00798481
-0.000305519
0.00802742
-0.000300203
0.00806942
-0.00029495
0.00811082
-0.000289763
0.0081516
-0.000284644
0.00819179
-0.000279595
0.00823139
-0.000274619
0.0082704
-0.000269716
0.00830883
-0.000264887
0.00834669
-0.000260134
0.00838399
-0.000255458
0.00842074
-0.000250858
0.00845693
-0.000246335
0.00849259
-0.000241889
0.00852772
-0.00023752
0.00856232
-0.000233229
-0.000229014
0.007468
0.00750366
-0.000490299
0.00753985
-0.000489167
0.00757651
-0.00048749
0.00761357
-0.000485311
0.00765099
-0.000482671
0.00768871
-0.000479609
0.00772668
-0.000476164
0.00776484
-0.00047237
0.00780314
-0.00046826
0.00784156
-0.000463868
0.00788003
-0.000459222
0.00791852
-0.000454351
0.00795699
-0.000449281
0.00799542
-0.000444037
0.00803376
-0.000438641
0.00807199
-0.000433116
0.00811007
-0.000427481
0.00814799
-0.000421755
0.00818572
-0.000415954
0.00822324
-0.000410094
0.00826053
-0.00040419
0.00829757
-0.000398256
0.00833434
-0.000392303
0.00837084
-0.000386342
0.00840705
-0.000380385
0.00844295
-0.00037444
0.00847854
-0.000368516
0.00851382
-0.00036262
0.00854876
-0.00035676
0.00858338
-0.000350942
0.00861765
-0.000345171
0.00865158
-0.000339452
0.00868517
-0.00033379
0.00871841
-0.000328189
0.0087513
-0.000322653
0.00878384
-0.000317183
0.00881603
-0.000311785
0.00884787
-0.000306458
0.00887936
-0.000301206
0.0089105
-0.00029603
0.0089413
-0.000290931
0.00897175
-0.000285911
0.00900186
-0.00028097
0.00903164
-0.000276109
0.00906108
-0.000271329
0.00909019
-0.000266629
0.00911897
-0.000262011
-0.000257473
0.0084749
0.00849097
-0.000505237
0.00850824
-0.000504764
0.00852663
-0.000503701
0.00854606
-0.000502092
0.00856643
-0.00049998
0.00858767
-0.000497405
0.0086097
-0.000494407
0.00863247
-0.000491024
0.00865589
-0.000487289
0.0086799
-0.000483237
0.00870445
-0.0004789
0.00872948
-0.000474306
0.00875493
-0.000469485
0.00878075
-0.000464463
0.00880689
-0.000459264
0.00883332
-0.000453911
0.00885999
-0.000448425
0.00888687
-0.000442827
0.00891391
-0.000437136
0.00894109
-0.000431367
0.00896837
-0.000425538
0.00899573
-0.000419662
0.00902314
-0.000413753
0.00905058
-0.000407824
0.00907802
-0.000401885
0.00910545
-0.000395948
0.00913285
-0.000390021
0.00916021
-0.000384113
0.0091875
-0.000378233
0.00921471
-0.000372386
0.00924184
-0.00036658
0.00926887
-0.00036082
0.00929579
-0.000355112
0.0093226
-0.000349459
0.00934928
-0.000343866
0.00937584
-0.000338337
0.00940225
-0.000332875
0.00942853
-0.000327483
0.00945466
-0.000322162
0.00948065
-0.000316915
0.00950648
-0.000311744
0.00953216
-0.000306651
0.00955769
-0.000301635
0.00958306
-0.000296699
0.00960827
-0.000291843
0.00963333
-0.000287068
0.00965823
-0.000282373
-0.000277759
0.00917785
0.00917998
-0.000506888
0.00918402
-0.000507737
0.00918983
-0.000507907
0.0091973
-0.000507447
0.0092063
-0.000506405
0.00921672
-0.000504827
0.00922845
-0.000502757
0.0092414
-0.000500236
0.00925547
-0.000497304
0.00927056
-0.000493998
0.00928661
-0.000490353
0.00930353
-0.000486403
0.00932124
-0.000482178
0.00933969
-0.000477709
0.0093588
-0.000473022
0.00937852
-0.000468144
0.00939879
-0.000463098
0.00941956
-0.000457907
0.00944078
-0.000452591
0.00946242
-0.00044717
0.00948442
-0.000441662
0.00950675
-0.000436083
0.00952937
-0.000430448
0.00955226
-0.000424772
0.00957537
-0.000419067
0.0095987
-0.000413345
0.0096222
-0.000407617
0.00964586
-0.000401892
0.00966966
-0.000396181
0.00969357
-0.000390491
0.00971758
-0.000384829
0.00974167
-0.000379202
0.00976583
-0.000373617
0.00979004
-0.000368078
0.00981429
-0.000362591
0.00983858
-0.00035716
0.00986288
-0.000351789
0.0098872
-0.00034648
0.00991152
-0.000341238
0.00993584
-0.000336065
0.00996016
-0.000330962
0.00998445
-0.000325933
0.0100087
-0.000320978
0.010033
-0.000316099
0.0100572
-0.000311297
0.0100814
-0.000306572
-0.000301926
0.0140253
-0.000459485
0.0139802
-0.000462648
0.0139373
-0.000465002
0.0138964
-0.000466607
0.0138575
-0.000467519
0.0138205
-0.000467792
0.0137852
-0.000467475
0.0137516
-0.000466617
0.0137196
-0.000465263
0.013689
-0.000463453
0.0136599
-0.000461229
0.0136321
-0.000458628
0.0136056
-0.000455684
0.0135803
-0.000452431
0.0135562
-0.0004489
0.0135332
-0.00044512
0.0135112
-0.000441117
0.0134902
-0.000436917
0.0134702
-0.000432544
0.013451
-0.000428018
0.0134327
-0.000423361
0.0134152
-0.000418591
0.0133985
-0.000413726
0.0133825
-0.000408782
0.0133672
-0.000403774
0.0133526
-0.000398715
0.0133386
-0.000393618
0.0133252
-0.000388495
0.0133124
-0.000383356
0.0133001
-0.000378211
0.0132883
-0.00037307
0.0132771
-0.000367939
0.0132663
-0.000362828
0.013256
-0.000357741
0.0132461
-0.000352686
0.0132366
-0.000347668
0.0132275
-0.000342691
0.0132187
-0.000337761
0.0132104
-0.00033288
0.0132024
-0.000328053
0.0131947
-0.000323283
0.0131873
-0.000318572
0.0131803
-0.000313924
0.0131735
-0.000309338
0.013167
-0.000304819
0.0131608
-0.000300366
0.0131549
-0.000295982
-0.000291668
0.0153817
-0.000397716
0.0153224
-0.000403362
0.0152654
-0.000408081
0.0152108
-0.000411937
0.0151583
-0.000414994
0.0151078
-0.000417312
0.0150592
-0.000418946
0.0150126
-0.000419949
0.0149677
-0.000420371
0.0149245
-0.000420256
0.0148829
-0.000419651
0.0148429
-0.000418595
0.0148043
-0.000417127
0.0147672
-0.000415283
0.0147314
-0.000413099
0.0146969
-0.000410604
0.0146636
-0.00040783
0.0146315
-0.000404803
0.0146005
-0.000401551
0.0145705
-0.000398097
0.0145416
-0.000394465
0.0145137
-0.000390674
0.0144867
-0.000386745
0.0144607
-0.000382696
0.0144354
-0.000378544
0.014411
-0.000374304
0.0143874
-0.000369991
0.0143645
-0.000365618
0.0143424
-0.000361198
0.0143209
-0.000356741
0.0143001
-0.000352259
0.0142799
-0.000347761
0.0142603
-0.000343255
0.0142413
-0.00033875
0.0142229
-0.000334254
0.014205
-0.000329771
0.0141876
-0.00032531
0.0141707
-0.000320874
0.0141543
-0.00031647
0.0141384
-0.000312102
0.0141229
-0.000307773
0.0141078
-0.000303487
0.0140931
-0.000299248
0.0140788
-0.000295059
0.0140649
-0.000290921
0.0140514
-0.000286837
0.0140382
-0.00028281
-0.00027884
0.0164532
-0.000331228
0.0163888
-0.000338972
0.0163264
-0.000345725
0.016266
-0.000351553
0.0162076
-0.000356519
0.0161509
-0.000360684
0.0160961
-0.000364103
0.016043
-0.00036683
0.0159915
-0.000368915
0.0159417
-0.000370408
0.0158934
-0.000371351
0.0158466
-0.000371789
0.0158012
-0.000371761
0.0157572
-0.000371304
0.0157146
-0.000370455
0.0156732
-0.000369246
0.0156331
-0.00036771
0.0155942
-0.000365875
0.0155564
-0.000363769
0.0155197
-0.000361418
0.0154841
-0.000358845
0.0154495
-0.000356075
0.0154159
-0.000353127
0.0153832
-0.000350022
0.0153514
-0.000346777
0.0153205
-0.000343411
0.0152905
-0.000339938
0.0152612
-0.000336373
0.0152328
-0.00033273
0.015205
-0.000329022
0.0151781
-0.00032526
0.0151517
-0.000321455
0.0151261
-0.000317617
0.0151011
-0.000313755
0.0150767
-0.000309878
0.015053
-0.000305994
0.0150298
-0.000302108
0.0150071
-0.000298229
0.014985
-0.000294361
0.0149634
-0.00029051
0.0149423
-0.000286682
0.0149217
-0.000282879
0.0149016
-0.000279108
0.0148819
-0.00027537
0.0148626
-0.00027167
0.0148438
-0.00026801
0.0148254
-0.000264393
-0.00026082
0.0172313
-0.000267962
0.0171695
-0.000277122
0.017109
-0.000285292
0.01705
-0.000292531
0.0169924
-0.0002989
0.0169362
-0.000304452
0.0168813
-0.000309241
0.0168278
-0.000313318
0.0167756
-0.00031673
0.0167247
-0.000319524
0.0166751
-0.000321742
0.0166267
-0.000323426
0.0165796
-0.000324614
0.0165336
-0.000325345
0.0164888
-0.000325652
0.0164452
-0.000325569
0.0164026
-0.000325127
0.0163611
-0.000324355
0.0163206
-0.000323282
0.0162811
-0.000321934
0.0162426
-0.000320334
0.016205
-0.000318506
0.0161683
-0.000316471
0.0161326
-0.000314251
0.0160977
-0.000311863
0.0160636
-0.000309325
0.0160303
-0.000306655
0.0159978
-0.000303867
0.015966
-0.000300976
0.015935
-0.000297995
0.0159047
-0.000294937
0.015875
-0.000291813
0.0158461
-0.000288634
0.0158177
-0.000285409
0.01579
-0.000282149
0.0157629
-0.000278862
0.0157363
-0.000275554
0.0157103
-0.000272234
0.0156849
-0.000268908
0.0156599
-0.000265583
0.0156355
-0.000262263
0.0156116
-0.000258954
0.0155881
-0.00025566
0.0155651
-0.000252386
0.0155426
-0.000249136
0.0155205
-0.000245913
0.0154988
-0.000242719
-0.000239559
0.0177489
-0.000212517
0.0176942
-0.00022241
0.0176402
-0.000231358
0.0175871
-0.000239413
0.0175348
-0.000246627
0.0174834
-0.000253047
0.0174329
-0.000258723
0.0173833
-0.000263698
0.0173346
-0.000268018
0.0172868
-0.000271722
0.0172399
-0.000274852
0.0171939
-0.000277446
0.0171488
-0.000279539
0.0171047
-0.000281167
0.0170614
-0.000282363
0.017019
-0.000283157
0.0169774
-0.000283579
0.0169367
-0.000283659
0.0168969
-0.000283422
0.0168578
-0.000282893
0.0168196
-0.000282097
0.0167821
-0.000281057
0.0167454
-0.000279792
0.0167095
-0.000278324
0.0166743
-0.000276671
0.0166399
-0.00027485
0.0166061
-0.000272879
0.016573
-0.000270772
0.0165406
-0.000268544
0.0165088
-0.00026621
0.0164776
-0.000263781
0.0164471
-0.000261269
0.0164171
-0.000258685
0.0163877
-0.00025604
0.0163589
-0.000253344
0.0163307
-0.000250604
0.016303
-0.000247829
0.0162758
-0.000245027
0.0162491
-0.000242205
0.0162228
-0.00023937
0.0161971
-0.000236526
0.0161718
-0.000233681
0.016147
-0.000230838
0.0161226
-0.000228003
0.0160987
-0.000225179
0.0160751
-0.000222371
0.016052
-0.000219582
-0.000216815
0.0180597
-0.000166455
0.0180138
-0.000176551
0.0179682
-0.000185767
0.017923
-0.000194148
0.0178781
-0.000201738
0.0178336
-0.00020858
0.0177896
-0.000214715
0.0177461
-0.000220184
0.0177031
-0.000225024
0.0176606
-0.000229274
0.0176188
-0.00023297
0.0175775
-0.000236145
0.0175368
-0.000238832
0.0174966
-0.000241064
0.0174572
-0.00024287
0.0174183
-0.00024428
0.01738
-0.00024532
0.0173424
-0.000246018
0.0173054
-0.000246398
0.0172689
-0.000246483
0.0172331
-0.000246297
0.0171979
-0.000245861
0.0171634
-0.000245194
0.0171293
-0.000244316
0.0170959
-0.000243246
0.0170631
-0.000241999
0.0170308
-0.000240592
0.016999
-0.00023904
0.0169679
-0.000237358
0.0169372
-0.000235558
0.0169071
-0.000233653
0.0168775
-0.000231655
0.0168484
-0.000229574
0.0168197
-0.000227421
0.0167916
-0.000225206
0.0167639
-0.000222937
0.0167367
-0.000220622
0.01671
-0.00021827
0.0166837
-0.000215887
0.0166578
-0.00021348
0.0166323
-0.000211056
0.0166072
-0.000208619
0.0165826
-0.000206176
0.0165583
-0.00020373
0.0165344
-0.000201288
0.0165109
-0.000198851
0.0164877
-0.000196425
-0.000194013
0.0182205
-0.000129422
0.0181833
-0.000139357
0.0181461
-0.000148485
0.0181088
-0.000156843
0.0180715
-0.00016447
0.0180343
-0.000171403
0.0179973
-0.000177677
0.0179604
-0.000183329
0.0179238
-0.000188391
0.0178874
-0.000192897
0.0178513
-0.000196878
0.0178155
-0.000200366
0.0177801
-0.00020339
0.017745
-0.000205978
0.0177103
-0.000208159
0.017676
-0.000209957
0.0176421
-0.000211398
0.0176085
-0.000212507
0.0175755
-0.000213306
0.0175428
-0.000213817
0.0175106
-0.000214061
0.0174788
-0.000214057
0.0174474
-0.000213826
0.0174164
-0.000213383
0.017386
-0.000212747
0.0173559
-0.000211934
0.0173263
-0.000210958
0.017297
-0.000209835
0.0172683
-0.000208576
0.0172399
-0.000207196
0.017212
-0.000205706
0.0171844
-0.000204118
0.0171573
-0.000202442
0.0171306
-0.000200687
0.0171042
-0.000198864
0.0170783
-0.000196981
0.0170527
-0.000195045
0.0170275
-0.000193066
0.0170026
-0.000191049
0.0169782
-0.000189001
0.016954
-0.000186929
0.0169302
-0.000184838
0.0169068
-0.000182733
0.0168837
-0.00018062
0.0168609
-0.000178502
0.0168384
-0.000176384
0.0168163
-0.000174271
-0.000172164
0.0182807
-0.000100176
0.0182511
-0.000109719
0.0182211
-0.000118526
0.0181909
-0.000126632
0.0181605
-0.000134068
0.01813
-0.000140867
0.0180993
-0.00014706
0.0180687
-0.000152676
0.018038
-0.000157747
0.0180074
-0.000162301
0.0179769
-0.000166366
0.0179465
-0.00016997
0.0179163
-0.000173138
0.0178862
-0.000175897
0.0178563
-0.000178271
0.0178266
-0.000180284
0.0177972
-0.000181958
0.017768
-0.000183315
0.0177391
-0.000184376
0.0177104
-0.000185161
0.0176821
-0.00018569
0.017654
-0.00018598
0.0176262
-0.000186048
0.0175987
-0.000185913
0.0175716
-0.000185588
0.0175447
-0.000185089
0.0175182
-0.00018443
0.017492
-0.000183626
0.0174661
-0.000182687
0.0174405
-0.000181626
0.0174153
-0.000180456
0.0173903
-0.000179185
0.0173657
-0.000177825
0.0173414
-0.000176384
0.0173174
-0.000174872
0.0172938
-0.000173297
0.0172704
-0.000171667
0.0172473
-0.000169989
0.0172245
-0.00016827
0.017202
-0.000166516
0.0171798
-0.000164733
0.0171579
-0.000162927
0.0171363
-0.000161103
0.0171149
-0.000159266
0.0170939
-0.000157421
0.017073
-0.00015557
0.0170525
-0.000153719
-0.00015187
0.0182781
-7.72539e-05
0.0182547
-8.62569e-05
0.0182307
-9.45969e-05
0.0182064
-0.000102301
0.0181817
-0.000109398
0.0181568
-0.000115915
0.0181316
-0.000121878
0.0181062
-0.000127314
0.0180807
-0.000132249
0.0180551
-0.000136709
0.0180295
-0.000140717
0.0180038
-0.000144299
0.0179782
-0.000147478
0.0179525
-0.000150276
0.017927
-0.000152715
0.0179015
-0.000154816
0.0178762
-0.000156601
0.0178509
-0.000158088
0.0178258
-0.000159296
0.0178009
-0.000160244
0.0177762
-0.000160949
0.0177516
-0.000161428
0.0177273
-0.000161696
0.0177031
-0.000161769
0.0176792
-0.000161661
0.0176555
-0.000161386
0.017632
-0.000160957
0.0176088
-0.000160386
0.0175858
-0.000159685
0.017563
-0.000158866
0.0175405
-0.000157939
0.0175182
-0.000156914
0.0174962
-0.000155799
0.0174744
-0.000154605
0.0174529
-0.00015334
0.0174316
-0.000152011
0.0174106
-0.000150626
0.0173898
-0.000149191
0.0173692
-0.000147714
0.0173489
-0.0001462
0.0173288
-0.000144655
0.017309
-0.000143085
0.0172894
-0.000141494
0.01727
-0.000139887
0.0172509
-0.000138268
0.0172319
-0.000136641
0.0172132
-0.000135011
-0.00013338
0.0182397
-5.93054e-05
0.0182211
-6.76743e-05
0.018202
-7.54499e-05
0.0181823
-8.26552e-05
0.0181622
-8.93137e-05
0.0181418
-9.54485e-05
0.018121
-0.000101083
0.0180999
-0.000106239
0.0180786
-0.00011094
0.0180571
-0.000115207
0.0180354
-0.000119062
0.0180137
-0.000122527
0.0179918
-0.000125622
0.0179699
-0.000128367
0.017948
-0.000130781
0.017926
-0.000132883
0.0179041
-0.000134692
0.0178823
-0.000136225
0.0178605
-0.000137499
0.0178387
-0.000138531
0.0178171
-0.000139335
0.0177956
-0.000139928
0.0177743
-0.000140323
0.017753
-0.000140534
0.0177319
-0.000140575
0.017711
-0.000140457
0.0176902
-0.000140194
0.0176697
-0.000139796
0.0176492
-0.000139275
0.017629
-0.00013864
0.017609
-0.000137901
0.0175891
-0.000137067
0.0175695
-0.000136148
0.01755
-0.000135151
0.0175308
-0.000134085
0.0175117
-0.000132956
0.0174929
-0.000131771
0.0174742
-0.000130538
0.0174558
-0.000129261
0.0174375
-0.000127948
0.0174195
-0.000126603
0.0174016
-0.00012523
0.0173839
-0.000123836
0.0173665
-0.000122425
0.0173492
-0.000120999
0.0173321
-0.000119564
0.0173152
-0.000118123
-0.000116679
0.0181833
-4.52229e-05
0.0181685
-5.28928e-05
0.0181531
-6.00369e-05
0.0181371
-6.66741e-05
0.0181206
-7.28241e-05
0.0181037
-7.85066e-05
0.0180864
-8.37407e-05
0.0180687
-8.85458e-05
0.0180507
-9.29413e-05
0.0180324
-9.6946e-05
0.0180139
-0.000100579
0.0179953
-0.000103858
0.0179764
-0.000106801
0.0179575
-0.000109427
0.0179385
-0.000111751
0.0179194
-0.000113791
0.0179002
-0.000115562
0.0178811
-0.00011708
0.017862
-0.000118361
0.0178428
-0.000119419
0.0178238
-0.000120267
0.0178048
-0.00012092
0.0177858
-0.000121389
0.017767
-0.000121689
0.0177482
-0.00012183
0.0177296
-0.000121824
0.0177111
-0.000121682
0.0176927
-0.000121413
0.0176745
-0.000121029
0.0176564
-0.000120537
0.0176384
-0.000119948
0.0176206
-0.000119269
0.017603
-0.000118509
0.0175855
-0.000117675
0.0175682
-0.000116774
0.017551
-0.000115813
0.0175341
-0.000114799
0.0175173
-0.000113737
0.0175006
-0.000112633
0.0174842
-0.000111493
0.0174679
-0.000110321
0.0174518
-0.000109122
0.0174359
-0.0001079
0.0174201
-0.00010666
0.0174045
-0.000105406
0.0173891
-0.000104141
0.0173738
-0.000102868
-0.000101591
0.0181202
-3.41537e-05
0.0181083
-4.10761e-05
0.0180958
-4.75379e-05
0.0180827
-5.35549e-05
0.018069
-5.91431e-05
0.0180549
-6.43187e-05
0.0180402
-6.90979e-05
0.0180252
-7.34971e-05
0.0180098
-7.75326e-05
0.017994
-8.12205e-05
0.017978
-8.45767e-05
0.0179618
-8.7617e-05
0.0179453
-9.03569e-05
0.0179287
-9.28115e-05
0.017912
-9.49957e-05
0.0178951
-9.69239e-05
0.0178782
-9.86101e-05
0.0178611
-0.000100068
0.0178441
-0.000101311
0.017827
-0.000102351
0.01781
-0.000103202
0.0177929
-0.000103875
0.0177759
-0.000104381
0.0177589
-0.000104731
0.0177421
-0.000104937
0.0177252
-0.000105007
0.0177085
-0.000104953
0.0176919
-0.000104782
0.0176754
-0.000104505
0.0176589
-0.000104128
0.0176427
-0.000103661
0.0176265
-0.000103111
0.0176105
-0.000102484
0.0175946
-0.000101789
0.0175788
-0.000101031
0.0175633
-0.000100217
0.0175478
-9.93522e-05
0.0175325
-9.84421e-05
0.0175174
-9.74921e-05
0.0175024
-9.65068e-05
0.0174876
-9.5491e-05
0.0174729
-9.4449e-05
0.0174584
-9.33847e-05
0.017444
-9.2302e-05
0.0174298
-9.12043e-05
0.0174158
-9.00951e-05
0.0174019
-8.89774e-05
-8.78542e-05
0.018057
-2.54599e-05
0.0180475
-3.15955e-05
0.0180373
-3.73342e-05
0.0180264
-4.26883e-05
0.018015
-4.76705e-05
0.018003
-5.22946e-05
0.0179904
-5.65737e-05
0.0179775
-6.05217e-05
0.0179641
-6.41517e-05
0.0179503
-6.74777e-05
0.0179363
-7.05126e-05
0.0179219
-7.32703e-05
0.0179073
-7.57633e-05
0.0178925
-7.80052e-05
0.0178775
-8.00084e-05
0.0178624
-8.17849e-05
0.0178471
-8.33473e-05
0.0178318
-8.47069e-05
0.0178163
-8.58757e-05
0.0178008
-8.68644e-05
0.0177853
-8.76838e-05
0.0177698
-8.8344e-05
0.0177543
-8.88554e-05
0.0177388
-8.92272e-05
0.0177233
-8.94692e-05
0.0177079
-8.95898e-05
0.0176925
-8.95974e-05
0.0176772
-8.95007e-05
0.017662
-8.93069e-05
0.0176469
-8.90237e-05
0.0176319
-8.8658e-05
0.017617
-8.82169e-05
0.0176023
-8.77063e-05
0.0175876
-8.71326e-05
0.0175731
-8.65014e-05
0.0175587
-8.58185e-05
0.0175444
-8.50887e-05
0.0175303
-8.43172e-05
0.0175163
-8.35082e-05
0.0175025
-8.26663e-05
0.0174888
-8.17956e-05
0.0174752
-8.09002e-05
0.0174618
-7.99835e-05
0.0174486
-7.90487e-05
0.0174355
-7.80993e-05
0.0174225
-7.71382e-05
0.0174097
-7.61682e-05
-7.51923e-05
0.0179978
-1.86612e-05
0.0179901
-2.39776e-05
0.0179818
-2.89582e-05
0.0179727
-3.3613e-05
0.017963
-3.79522e-05
0.0179527
-4.19866e-05
0.0179418
-4.5727e-05
0.0179305
-4.91845e-05
0.0179187
-5.23701e-05
0.0179065
-5.52951e-05
0.017894
-5.79705e-05
0.0178811
-6.04074e-05
0.017868
-6.26168e-05
0.0178546
-6.46093e-05
0.0178409
-6.63957e-05
0.0178271
-6.79863e-05
0.0178132
-6.93913e-05
0.0177991
-7.06207e-05
0.0177849
-7.16841e-05
0.0177706
-7.25909e-05
0.0177563
-7.33502e-05
0.0177419
-7.39708e-05
0.0177275
-7.44612e-05
0.0177131
-7.48298e-05
0.0176988
-7.50843e-05
0.0176844
-7.52324e-05
0.0176701
-7.52813e-05
0.0176558
-7.52381e-05
0.0176416
-7.51095e-05
0.0176275
-7.49018e-05
0.0176135
-7.46212e-05
0.0175995
-7.42734e-05
0.0175857
-7.38642e-05
0.0175719
-7.33986e-05
0.0175583
-7.28818e-05
0.0175448
-7.23184e-05
0.0175315
-7.1713e-05
0.0175182
-7.10699e-05
0.0175051
-7.03931e-05
0.0174921
-6.96864e-05
0.0174793
-6.89534e-05
0.0174666
-6.81975e-05
0.017454
-6.74218e-05
0.0174416
-6.66295e-05
0.0174293
-6.58232e-05
0.0174172
-6.50058e-05
0.0174052
-6.41795e-05
-6.33469e-05
0.0179447
-1.33828e-05
0.0179386
-1.78527e-05
0.0179317
-2.20462e-05
0.017924
-2.59709e-05
0.0179157
-2.96351e-05
0.0179068
-3.30472e-05
0.0178972
-3.62153e-05
0.0178872
-3.91488e-05
0.0178767
-4.18562e-05
0.0178657
-4.43466e-05
0.0178544
-4.66291e-05
0.0178427
-4.87122e-05
0.0178307
-5.06053e-05
0.0178184
-5.23166e-05
0.0178059
-5.38554e-05
0.0177931
-5.52297e-05
0.0177802
-5.64481e-05
0.0177671
-5.75189e-05
0.0177538
-5.84495e-05
0.0177405
-5.92484e-05
0.0177271
-5.99224e-05
0.0177136
-6.04794e-05
0.0177
-6.09261e-05
0.0176865
-6.12693e-05
0.0176729
-6.1516e-05
0.0176593
-6.16719e-05
0.0176458
-6.17436e-05
0.0176323
-6.17369e-05
0.0176189
-6.1657e-05
0.0176055
-6.15097e-05
0.0175921
-6.12998e-05
0.0175789
-6.10324e-05
0.0175657
-6.07121e-05
0.0175527
-6.03434e-05
0.0175397
-5.99304e-05
0.0175269
-5.94771e-05
0.0175142
-5.89874e-05
0.0175016
-5.84649e-05
0.0174891
-5.79131e-05
0.0174767
-5.73349e-05
0.0174645
-5.67337e-05
0.0174524
-5.61123e-05
0.0174405
-5.54732e-05
0.0174287
-5.48195e-05
0.017417
-5.41528e-05
0.0174055
-5.3476e-05
0.0173941
-5.2791e-05
-5.20998e-05
0.0178992
-9.31523e-06
0.0178942
-1.29163e-05
0.0178885
-1.62987e-05
0.017882
-1.94681e-05
0.0178748
-2.24307e-05
0.0178669
-2.51928e-05
0.0178585
-2.77609e-05
0.0178495
-3.01419e-05
0.01784
-3.23426e-05
0.01783
-3.43698e-05
0.0178196
-3.62307e-05
0.0178088
-3.7932e-05
0.0177977
-3.94808e-05
0.0177862
-4.0884e-05
0.0177745
-4.21483e-05
0.0177626
-4.32804e-05
0.0177504
-4.4287e-05
0.0177381
-4.51744e-05
0.0177256
-4.5949e-05
0.0177129
-4.66169e-05
0.0177002
-4.71841e-05
0.0176874
-4.76564e-05
0.0176745
-4.80394e-05
0.0176616
-4.83386e-05
0.0176486
-4.85591e-05
0.0176356
-4.87062e-05
0.0176227
-4.87845e-05
0.0176097
-4.87989e-05
0.0175968
-4.87537e-05
0.017584
-4.86534e-05
0.0175712
-4.85019e-05
0.0175585
-4.83033e-05
0.0175458
-4.80613e-05
0.0175332
-4.77795e-05
0.0175208
-4.74612e-05
0.0175084
-4.71098e-05
0.0174962
-4.67283e-05
0.017484
-4.63196e-05
0.017472
-4.58864e-05
0.0174601
-4.54315e-05
0.0174483
-4.49572e-05
0.0174367
-4.4466e-05
0.0174251
-4.396e-05
0.0174138
-4.34412e-05
0.0174025
-4.29118e-05
0.0173914
-4.23734e-05
0.0173805
-4.18279e-05
-4.12768e-05
0.017862
-6.18686e-06
0.017858
-8.9021e-06
0.0178532
-1.14545e-05
0.0178475
-1.38485e-05
0.0178412
-1.60884e-05
0.0178342
-1.81788e-05
0.0178266
-2.01242e-05
0.0178183
-2.19301e-05
0.0178096
-2.36008e-05
0.0178004
-2.51416e-05
0.0177907
-2.65577e-05
0.0177806
-2.78542e-05
0.0177702
-2.9036e-05
0.0177594
-3.01086e-05
0.0177483
-3.10764e-05
0.017737
-3.19449e-05
0.0177254
-3.27187e-05
0.0177137
-3.34026e-05
0.0177017
-3.40014e-05
0.0176896
-3.45196e-05
0.0176774
-3.49615e-05
0.0176651
-3.5332e-05
0.0176527
-3.56345e-05
0.0176402
-3.58736e-05
0.0176277
-3.6053e-05
0.0176152
-3.61765e-05
0.0176026
-3.6248e-05
0.0175901
-3.62708e-05
0.0175776
-3.62483e-05
0.0175651
-3.61836e-05
0.0175527
-3.608e-05
0.0175403
-3.59402e-05
0.017528
-3.57676e-05
0.0175158
-3.55641e-05
0.0175037
-3.53331e-05
0.0174917
-3.50762e-05
0.0174797
-3.47965e-05
0.0174679
-3.44955e-05
0.0174562
-3.41761e-05
0.0174446
-3.38393e-05
0.0174331
-3.34879e-05
0.0174218
-3.31231e-05
0.0174106
-3.2747e-05
0.0173995
-3.23605e-05
0.0173885
-3.1966e-05
0.0173777
-3.15641e-05
0.0173671
-3.11566e-05
-3.07445e-05
0.0178338
-3.74825e-06
0.0178304
-5.56475e-06
0.0178263
-7.27365e-06
0.0178213
-8.87755e-06
0.0178156
-1.03792e-05
0.0178092
-1.17817e-05
0.0178021
-1.30879e-05
0.0177945
-1.43011e-05
0.0177863
-1.54246e-05
0.0177777
-1.64615e-05
0.0177685
-1.74154e-05
0.017759
-1.82894e-05
0.017749
-1.90871e-05
0.0177387
-1.98116e-05
0.0177281
-2.04664e-05
0.0177172
-2.10546e-05
0.0177061
-2.15796e-05
0.0176947
-2.20444e-05
0.0176832
-2.24523e-05
0.0176715
-2.28061e-05
0.0176596
-2.31088e-05
0.0176476
-2.33634e-05
0.0176356
-2.35726e-05
0.0176234
-2.37392e-05
0.0176112
-2.38656e-05
0.017599
-2.39545e-05
0.0175868
-2.40083e-05
0.0175745
-2.40294e-05
0.0175623
-2.40198e-05
0.0175501
-2.3982e-05
0.0175379
-2.39178e-05
0.0175258
-2.38293e-05
0.0175138
-2.37184e-05
0.0175018
-2.35868e-05
0.0174899
-2.34364e-05
0.0174781
-2.32686e-05
0.0174664
-2.30852e-05
0.0174548
-2.28875e-05
0.0174433
-2.2677e-05
0.0174319
-2.2455e-05
0.0174206
-2.22227e-05
0.0174095
-2.19814e-05
0.0173985
-2.17322e-05
0.0173876
-2.14761e-05
0.0173768
-2.12142e-05
0.0173662
-2.09474e-05
0.0173558
-2.06766e-05
-2.04025e-05
0.0178148
-1.76201e-06
0.0178119
-2.67238e-06
0.0178081
-3.52882e-06
0.0178036
-4.33308e-06
0.0177983
-5.08628e-06
0.0177923
-5.79035e-06
0.0177857
-6.44607e-06
0.0177784
-7.05549e-06
0.0177706
-7.62008e-06
0.0177623
-8.14136e-06
0.0177535
-8.62145e-06
0.0177443
-9.06117e-06
0.0177347
-9.46315e-06
0.0177247
-9.82819e-06
0.0177144
-1.01584e-05
0.0177038
-1.04554e-05
0.0176929
-1.07206e-05
0.0176818
-1.09557e-05
0.0176705
-1.11621e-05
0.0176591
-1.13416e-05
0.0176475
-1.14956e-05
0.0176357