/*--------------------------------*- C++ -*----------------------------------*\
  =========                 |
  \\      /  F ield         | OpenFOAM: The Open Source CFD Toolbox
   \\    /   O peration     | Website:  https://openfoam.org
    \\  /    A nd           | Version:  7
     \\/     M anipulation  |
\*---------------------------------------------------------------------------*/
FoamFile
{
    version     2.0;
    format      ascii;
    class       volVectorField;
    location    "85";
    object      U;
}
// * * * * * * * * * * * * * * * * * * * * * * * * * * * * * * * * * * * * * //

dimensions      [0 1 -1 0 0 0 0];

internalField   nonuniform List<vector> 
6000
(
(-0.000936209 0.0120953 6.49807e-22)
(-0.00542125 0.030056 -2.91503e-21)
(-0.0135777 0.0433432 -3.21201e-22)
(-0.0232515 0.0527598 1.99639e-21)
(-0.0339185 0.059165 -1.40686e-21)
(-0.0450142 0.0633794 4.61132e-21)
(-0.0561533 0.0661247 1.43933e-21)
(-0.0670833 0.0679833 -1.50032e-21)
(-0.0776402 0.0693803 5.81813e-22)
(-0.0877246 0.0705883 -4.7361e-21)
(-0.0972812 0.0717497 1.01097e-21)
(-0.106283 0.072908 -8.99773e-23)
(-0.114717 0.0740379 -1.24134e-21)
(-0.122581 0.0750707 2.88008e-21)
(-0.129873 0.0759129 6.79368e-23)
(-0.136592 0.0764556 -2.54721e-21)
(-0.142735 0.0765813 -1.01346e-21)
(-0.148305 0.0761653 -1.57846e-22)
(-0.153307 0.0750778 -1.86177e-21)
(-0.157766 0.0731849 -8.71934e-22)
(-0.00124933 0.0133738 -2.82124e-22)
(-0.00602557 0.0331254 -5.9967e-21)
(-0.0141543 0.0476455 -4.3163e-21)
(-0.0236433 0.0578843 -7.94298e-21)
(-0.0340208 0.0647943 6.68409e-21)
(-0.0447672 0.0692751 -4.28532e-21)
(-0.0555254 0.0721108 8.19986e-22)
(-0.066059 0.0739338 -1.26487e-21)
(-0.0762122 0.0752076 -6.7735e-21)
(-0.0858886 0.0762337 -9.54828e-22)
(-0.095033 0.0771754 -1.2176e-21)
(-0.103617 0.0780895 -1.45287e-21)
(-0.111626 0.0789589 7.82801e-21)
(-0.119056 0.0797192 3.77219e-21)
(-0.125904 0.0802782 -3.54524e-21)
(-0.132167 0.0805279 7.85348e-21)
(-0.137841 0.0803518 5.51859e-22)
(-0.142922 0.0796283 4.16968e-21)
(-0.147412 0.0782346 6.20188e-21)
(-0.151323 0.0760496 -4.65675e-22)
(-0.00161793 0.0145544 7.37918e-21)
(-0.00674381 0.0359869 1.55447e-22)
(-0.0148528 0.0516871 -1.83068e-20)
(-0.0241338 0.0627291 1.55008e-20)
(-0.0341731 0.070145 1.82397e-21)
(-0.0445016 0.0749031 -1.09714e-20)
(-0.0547943 0.077844 -6.11058e-21)
(-0.0648332 0.0796457 -5.93651e-21)
(-0.074472 0.0808089 -1.59557e-22)
(-0.0836184 0.0816637 -2.68236e-21)
(-0.0922171 0.0823942 -3.11594e-21)
(-0.100238 0.083072 3.90801e-21)
(-0.107665 0.0836887 -1.58898e-20)
(-0.11449 0.0841851 -1.50512e-20)
(-0.120709 0.0844709 1.22223e-20)
(-0.126314 0.0844387 -2.00441e-20)
(-0.1313 0.0839723 -4.17204e-21)
(-0.135655 0.082952 1.96786e-20)
(-0.139371 0.0812595 2.36066e-21)
(-0.142447 0.0787834 -4.416e-21)
(-0.0020349 0.0156259 -5.819e-21)
(-0.00756334 0.0386147 2.16571e-20)
(-0.0156613 0.0554333 2.993e-20)
(-0.0247138 0.0672539 -1.27633e-20)
(-0.0343701 0.0751733 -1.8548e-21)
(-0.044216 0.080218 2.95997e-20)
(-0.0539617 0.0832778 1.79306e-21)
(-0.0634099 0.0850727 2.30763e-21)
(-0.0724255 0.086138 1.27733e-20)
(-0.0809206 0.0868318 -2.44572e-20)
(-0.0888403 0.0873598 -7.03125e-21)
(-0.0961521 0.0878086 4.04158e-21)
(-0.102837 0.0881802 -4.19953e-21)
(-0.108885 0.0884208 1.3116e-20)
(-0.114286 0.0884426 -5.82454e-21)
(-0.119029 0.0881386 2.84386e-20)
(-0.123103 0.0873921 7.5074e-21)
(-0.126489 0.0860833 -7.94316e-22)
(-0.129166 0.0840955 1.14571e-20)
(-0.131115 0.0813233 -1.08012e-20)
(-0.132319 0.0776808 -6.18448e-21)
(-0.00249241 0.0165788 1.23784e-20)
(-0.00847022 0.0409868 -1.90383e-20)
(-0.0165667 0.0588532 8.39989e-21)
(-0.0253737 0.0714213 1.17282e-20)
(-0.0346066 0.0798378 -4.06804e-20)
(-0.0439095 0.0851758 -9.37409e-21)
(-0.0530304 0.088367 1.2129e-20)
(-0.0617951 0.0901684 -1.25446e-21)
(-0.070081 0.0911481 2.3279e-20)
(-0.0778052 0.0916911 1.69449e-21)
(-0.0849134 0.0920247 1.51822e-20)
(-0.0913706 0.0922516 1.48983e-20)
(-0.0971544 0.0923845 2.92188e-20)
(-0.102249 0.0923763 -1.42536e-20)
(-0.106641 0.0921421 4.26656e-21)
(-0.110314 0.0915753 -5.54144e-21)
(-0.113249 0.0905577 -1.58401e-20)
(-0.115417 0.0889673 -6.24123e-21)
(-0.116787 0.0866861 3.13828e-21)
(-0.117317 0.0836091 -1.51181e-20)
(-0.116962 0.0796576 1.05557e-20)
(-0.00298216 0.017406 -2.22596e-20)
(-0.00944962 0.0430849 -3.33667e-21)
(-0.0175551 0.0619196 -2.13861e-20)
(-0.0261034 0.0751978 -9.11617e-21)
(-0.0348773 0.0840999 3.41199e-20)
(-0.0435816 0.0897345 -2.35861e-21)
(-0.0520046 0.0930672 -2.84359e-20)
(-0.0599966 0.0948874 2.41243e-20)
(-0.067449 0.0957927 -1.12091e-20)
(-0.074285 0.0961943 3.99846e-20)
(-0.0804506 0.0963407 -2.06131e-20)
(-0.0859081 0.0963515 -3.55124e-20)
(-0.0906307 0.096251 6.9098e-21)
(-0.0945968 0.0959995 -2.48939e-21)
(-0.0977866 0.0955158 -1.52681e-20)
(-0.100178 0.0946936 -1.7264e-20)
(-0.101742 0.0934127 -1.31385e-20)
(-0.102442 0.0915473 1.27771e-20)
(-0.10223 0.0889743 1.88335e-22)
(-0.101047 0.0855845 7.15762e-21)
(-0.0988209 0.0812981 -1.8606e-20)
(-0.00349558 0.0181024 6.69206e-20)
(-0.0104862 0.0448948 -1.68578e-20)
(-0.0186121 0.0646103 -2.00778e-20)
(-0.0268927 0.0785537 -9.29199e-21)
(-0.0351772 0.0879243 -2.6656e-20)
(-0.0432329 0.0938545 1.33702e-20)
(-0.0508896 0.0973358 2.08558e-20)
(-0.058024 0.0991848 -2.21399e-20)
(-0.0645428 0.100026 1.58313e-20)
(-0.0703758 0.100294 -3.11729e-20)
(-0.0754698 0.100259 -3.50249e-21)
(-0.0797841 0.100058 -1.3222e-20)
(-0.0832862 0.0997278 -2.74242e-20)
(-0.0859481 0.0992365 -3.09915e-20)
(-0.0877419 0.0985075 -9.74955e-21)
(-0.0886371 0.0974353 1.86308e-20)
(-0.0885962 0.0958976 -1.12294e-20)
(-0.0875716 0.0937635 -2.73811e-20)
(-0.0855018 0.0909022 -2.91092e-20)
(-0.0823098 0.0871949 2.85907e-20)
(-0.0778979 0.082553 -2.4975e-20)
(-0.00402413 0.0186655 -7.02548e-21)
(-0.0115644 0.0464072 4.77763e-20)
(-0.0197235 0.066908 2.49578e-20)
(-0.027731 0.0814642 1.66014e-20)
(-0.0355015 0.0912797 3.66492e-20)
(-0.0428642 0.0974991 -2.14706e-20)
(-0.0496917 0.101132 -1.87916e-21)
(-0.0558885 0.103017 -3.09086e-20)
(-0.0613774 0.103801 -3.19796e-20)
(-0.066096 0.103942 1.98802e-20)
(-0.0699921 0.103731 2.96072e-20)
(-0.0730216 0.10332 -2.53701e-20)
(-0.0751458 0.102761 -1.59659e-20)
(-0.0763284 0.102032 8.56364e-20)
(-0.0765325 0.101059 3.79869e-21)
(-0.0757175 0.0997396 9.6089e-21)
(-0.0738353 0.0979496 7.8345e-21)
(-0.0708267 0.0955525 1.00443e-20)
(-0.066617 0.0924085 -1.33425e-20)
(-0.061113 0.0883853 4.20406e-21)
(-0.0541979 0.0833775 -7.19707e-21)
(-0.00455955 0.0190952 -5.79061e-20)
(-0.0126693 0.0476174 -3.48778e-20)
(-0.020875 0.0688007 -5.42188e-20)
(-0.0286084 0.0839095 1.72062e-20)
(-0.0358456 0.0941388 -6.16184e-20)
(-0.0424768 0.100635 4.58672e-21)
(-0.0484179 0.104418 4.70429e-20)
(-0.0536019 0.106342 -1.08469e-20)
(-0.0579692 0.107074 4.38862e-21)
(-0.0614657 0.107092 -3.65566e-20)
(-0.0640407 0.106706 -2.17464e-20)
(-0.0656466 0.106087 4.68283e-20)
(-0.0662374 0.105299 2.6041e-20)
(-0.0657675 0.104328 -4.1583e-20)
(-0.0641891 0.10311 1.08735e-20)
(-0.0614497 0.101543 -2.68177e-20)
(-0.0574888 0.0995026 -6.01245e-21)
(-0.0522343 0.0968469 -2.15873e-20)
(-0.045598 0.0934271 4.95648e-20)
(-0.0374719 0.0890958 7.80069e-21)
(-0.0277242 0.0837252 -1.94836e-20)
(-0.00509413 0.019394 2.38079e-20)
(-0.0137865 0.0485257 3.86798e-21)
(-0.0220532 0.0702821 4.14514e-20)
(-0.029515 0.0858751 1.8704e-20)
(-0.0362049 0.0964791 6.46956e-20)
(-0.042072 0.103232 -5.3113e-20)
(-0.047075 0.107158 -1.58795e-20)
(-0.0511763 0.10912 3.66967e-20)
(-0.0543347 0.109801 -3.83515e-20)
(-0.0565054 0.109698 -4.24627e-21)
(-0.0576396 0.109137 -9.82487e-21)
(-0.0576858 0.108307 -1.76723e-20)
(-0.0565903 0.107286 2.21056e-20)
(-0.0542966 0.10607 -1.74754e-20)
(-0.0507443 0.104601 -9.06799e-21)
(-0.0458673 0.102782 4.48353e-21)
(-0.0395902 0.100489 1.22995e-20)
(-0.0318261 0.0975761 4.44765e-20)
(-0.022472 0.0938869 -4.12635e-20)
(-0.0114058 0.0892594 -9.06157e-21)
(0.00151801 0.0835419 5.18933e-20)
(-0.00562099 0.0195667 -2.10598e-20)
(-0.0149028 0.0491373 9.94182e-21)
(-0.0232455 0.0713515 -1.21344e-21)
(-0.0304415 0.0873524 2.97501e-20)
(-0.036575 0.0982833 -6.99256e-20)
(-0.0416505 0.105266 1.10939e-19)
(-0.0456691 0.109319 2.8537e-20)
(-0.0486226 0.111313 8.01139e-22)
(-0.0504894 0.111941 6.99956e-20)
(-0.0512342 0.111715 1.10568e-20)
(-0.0508108 0.110978 2.16371e-20)
(-0.0491638 0.109932 -6.54043e-20)
(-0.0462309 0.108671 -2.25924e-20)
(-0.0419437 0.107201 7.42173e-20)
(-0.0362276 0.105474 -1.04007e-20)
(-0.029 0.103395 1.20096e-20)
(-0.0201689 0.100842 -3.51166e-21)
(-0.00962975 0.0976691 -9.92701e-20)
(0.00273735 0.0937138 3.02649e-20)
(0.0170699 0.0888029 2.29497e-20)
(0.0335286 0.0827629 1.55816e-20)
(-0.00613436 0.0196205 2.71086e-20)
(-0.0160069 0.0494618 1.86598e-20)
(-0.0244405 0.072014 -6.17304e-20)
(-0.031379 0.0883382 -3.81946e-20)
(-0.0369507 0.0995393 -3.64636e-21)
(-0.041212 0.106716 -4.41837e-20)
(-0.0442043 0.110876 -5.2744e-20)
(-0.0459494 0.112889 -2.36601e-21)
(-0.0464451 0.113457 -7.7485e-20)
(-0.045667 0.113102 6.10973e-21)
(-0.0435714 0.112183 2.79945e-20)
(-0.0400989 0.110915 5.6632e-20)
(-0.0351782 0.109405 -1.65809e-20)
(-0.0287277 0.107672 -5.1669e-20)
(-0.0206566 0.105674 -2.69606e-20)
(-0.0108642 0.103323 -3.6558e-20)
(0.000761474 0.1005 -5.27146e-20)
(0.0143451 0.0970598 1.00022e-19)
(0.0300264 0.0928374 -1.19317e-20)
(0.0479601 0.0876531 -6.36343e-20)
(0.0683297 0.0813165 1.26258e-20)
(0.0912718 0.0736743 -4.18132e-20)
(-0.00662976 0.0195648 9.09243e-21)
(-0.017089 0.0495133 1.40718e-20)
(-0.025628 0.07228 4.83764e-20)
(-0.0323188 0.0888355 8.70454e-20)
(-0.0373261 0.100241 5.49982e-20)
(-0.0407537 0.107566 1.15693e-20)
(-0.0426815 0.111803 2.5029e-20)
(-0.0431603 0.113818 7.88046e-21)
(-0.0422082 0.114314 6.2281e-20)
(-0.0398115 0.113822 -3.09454e-21)
(-0.0359292 0.112712 1.78211e-20)
(-0.0304981 0.111214 4.19399e-20)
(-0.0234368 0.109446 -2.02059e-20)
(-0.0146494 0.107437 7.05142e-20)
(-0.00402714 0.105154 4.18163e-20)
(0.0085513 0.102518 4.33293e-20)
(0.0232201 0.0994119 1.04587e-19)
(0.0401273 0.0956942 -4.4462e-20)
(0.0594361 0.0912005 -5.80445e-20)
(0.0813182 0.0857492 2.94393e-21)
(0.105997 0.0791399 6.19363e-20)
(0.133496 0.0712109 -4.5335e-20)
(-0.00710397 0.0194101 -3.94821e-20)
(-0.0181418 0.0493103 -7.20285e-20)
(-0.0267993 0.0721653 1.0702e-20)
(-0.0332521 0.0888528 -7.99638e-20)
(-0.0376937 0.100388 9.83795e-21)
(-0.0402697 0.107808 2.13686e-21)
(-0.0410963 0.112085 -1.00935e-19)
(-0.0402523 0.114076 1.98957e-20)
(-0.0377756 0.114482 4.48364e-20)
(-0.0336634 0.113841 -3.85908e-21)
(-0.0278774 0.112531 -4.45875e-20)
(-0.0203497 0.110793 -2.23776e-20)
(-0.0109879 0.108755 2.53523e-20)
(0.000319528 0.106459 4.42325e-21)
(0.0137015 0.10388 4.4431e-20)
(0.0293022 0.100945 -6.36135e-20)
(0.0472808 0.0975437 -5.23067e-20)
(0.0678113 0.0935393 -1.09053e-20)
(0.0910839 0.0887705 1.13573e-20)
(0.117284 0.0830586 -1.03251e-20)
(0.146702 0.076201 -4.43075e-20)
(0.179148 0.0680337 2.73217e-20)
(-0.00755495 0.0191689 8.41549e-21)
(-0.0191599 0.0488746 1.28362e-19)
(-0.0279469 0.0716901 -8.04714e-20)
(-0.0341699 0.0884044 -4.12787e-20)
(-0.0380432 0.0999867 -4.89447e-20)
(-0.039749 0.107438 -4.1695e-20)
(-0.0394369 0.11171 6.55878e-20)
(-0.0372121 0.113644 -4.48457e-21)
(-0.0331313 0.113939 -2.72149e-20)
(-0.027202 0.113133 3.56119e-20)
(-0.0193878 0.111611 4.30258e-21)
(-0.00961496 0.109623 4.09715e-21)
(0.00222102 0.107307 -1.09196e-20)
(0.0162499 0.104715 -6.66948e-20)
(0.0326226 0.10183 -5.55807e-20)
(0.0515091 0.0985878 4.36792e-20)
(0.0730964 0.0948858 -4.19521e-20)
(0.0975861 0.0905923 4.92285e-21)
(0.125199 0.0855526 3.70065e-20)
(0.156123 0.0795936 -1.57042e-20)
(0.190756 0.0725238 2.68348e-20)
(0.228542 0.0641567 -1.22325e-20)
(-0.00798271 0.0188556 -7.21953e-20)
(-0.0201399 0.0482304 -3.34989e-20)
(-0.0290643 0.0708787 1.0195e-19)
(-0.0350619 0.0875096 3.63008e-20)
(-0.0383608 0.0990481 1.63706e-20)
(-0.0391744 0.10646 2.51131e-20)
(-0.0376818 0.110673 2.79186e-20)
(-0.0340129 0.112514 -7.32664e-20)
(-0.0282413 0.112671 2.6829e-20)
(-0.0203834 0.111682 -8.45398e-20)
(-0.010403 0.109936 4.86882e-21)
(0.00178138 0.107689 -5.37049e-20)
(0.0162889 0.10509 7.58546e-20)
(0.0332699 0.102197 1.80387e-20)
(0.0529006 0.0990049 -9.11994e-21)
(0.0753794 0.0954575 -1.14018e-20)
(0.100923 0.0914605 4.64632e-20)
(0.129762 0.0868905 -1.21794e-20)
(0.16215 0.0816017 6.58111e-20)
(0.198256 0.0754279 2.35099e-20)
(0.238633 0.0682103 -3.61448e-20)
(0.282158 0.0596771 -3.25589e-20)
(0.333585 0.0500775 -5.06334e-21)
(-0.00838891 0.0184846 8.62768e-20)
(-0.0210807 0.0474035 1.5579e-20)
(-0.0301454 0.0697592 4.71491e-20)
(-0.0359158 0.0861927 6.19431e-20)
(-0.0386277 0.0975904 -1.56443e-22)
(-0.0385196 0.104886 -5.75229e-20)
(-0.0357967 0.10898 -1.99587e-20)
(-0.0306104 0.110683 3.28914e-20)
(-0.0230486 0.110672 4.21773e-21)
(-0.0131339 0.109481 6.69247e-20)
(-0.000827615 0.107499 4.64706e-20)
(0.0139626 0.104989 5.32057e-20)
(0.0313739 0.102106 -3.70105e-20)
(0.0515809 0.0989189 6.95372e-20)
(0.0747885 0.0954311 -2.45834e-20)
(0.101226 0.0915963 2.30706e-20)
(0.131142 0.0873304 5.78667e-20)
(0.164791 0.08252 -5.26727e-20)
(0.202458 0.0770335 -2.01838e-20)
(0.24426 0.0707056 -1.41065e-20)
(0.290951 0.0634512 -9.89447e-21)
(0.340612 0.0547955 4.90765e-20)
(0.399999 0.045661 -5.60086e-20)
(-0.00877648 0.0180701 -6.66183e-21)
(-0.0219829 0.0464212 -6.83297e-21)
(-0.031184 0.0683619 -1.21591e-19)
(-0.0367164 0.084482 1.71508e-20)
(-0.0388181 0.0956372 2.09577e-20)
(-0.0377475 0.102732 3.40336e-20)
(-0.0337312 0.106643 8.68937e-21)
(-0.0269383 0.10816 -3.99573e-20)
(-0.0174671 0.10795 8.88139e-20)
(-0.00534255 0.106537 -8.37242e-20)
(0.00948096 0.104312 -1.18962e-19)
(0.0271108 0.10154 -1.68293e-21)
(0.047707 0.0983841 1.45301e-21)
(0.0714722 0.094922 1.11777e-20)
(0.0986432 0.0911677 5.01443e-20)
(0.129482 0.0870862 -1.84839e-20)
(0.164265 0.0826056 -7.8731e-20)
(0.203263 0.0776245 6.84457e-20)
(0.246781 0.0720309 2.87865e-20)
(0.294835 0.0656465 -3.10628e-20)
(0.348399 0.0585258 -5.37297e-20)
(0.404552 0.0498224 -4.9509e-20)
(0.472255 0.0414826 -1.62885e-21)
(-0.0091495 0.0176265 -3.20939e-20)
(-0.022848 0.0453112 -4.29461e-20)
(-0.0321727 0.0667188 6.56618e-20)
(-0.0374441 0.0824094 -1.30286e-19)
(-0.038898 0.0932178 -2.1151e-20)
(-0.0368074 0.100025 -3.40496e-20)
(-0.0314154 0.103684 6.5229e-21)
(-0.0229035 0.104967 -1.98063e-20)
(-0.0113757 0.104524 -1.9935e-19)
(0.0031468 0.102874 5.35725e-20)
(0.0207219 0.100403 1.10277e-19)
(0.0414779 0.0973815 1.58539e-20)
(0.0656026 0.0939774 4.06275e-20)
(0.093331 0.0902792 -1.87462e-20)
(0.124933 0.0863127 -9.07942e-20)
(0.160699 0.0820557 -6.70929e-20)
(0.200926 0.0774506 8.08411e-20)
(0.24588 0.0724091 1.23839e-21)
(0.295857 0.066846 -7.71444e-20)
(0.35071 0.0605489 5.61528e-20)
(0.411597 0.0537862 -6.38214e-20)
(0.474484 0.045166 -1.45933e-20)
(0.550369 0.037953 -2.08978e-20)
(0.608755 0.0251839 4.19222e-20)
(-0.009513 0.0171671 2.93606e-20)
(-0.0236781 0.0441 8.51699e-20)
(-0.0331021 0.0648625 -9.21201e-20)
(-0.0380736 0.0800094 1.07479e-19)
(-0.0388229 0.0903666 1.02166e-19)
(-0.0356324 0.0967977 4.48459e-20)
(-0.0287561 0.100137 -4.5928e-20)
(-0.0183818 0.101136 5.81676e-20)
(-0.00461224 0.100432 1.32703e-19)
(0.0125421 0.0985335 -6.78954e-20)
(0.0331586 0.0958255 1.58651e-20)
(0.057393 0.0925796 -7.7557e-20)
(0.0854656 0.0889721 -1.30056e-20)
(0.117646 0.0851022 -9.60483e-20)
(0.154232 0.0810088 1.02548e-19)
(0.195535 0.0766844 -1.13982e-20)
(0.241847 0.0720874 -1.72721e-20)
(0.293391 0.0671417 -1.6085e-20)
(0.350406 0.0617967 3.08795e-20)
(0.412506 0.0557781 -5.23388e-20)
(0.480907 0.0496277 4.40797e-20)
(0.550524 0.0412972 1.02448e-20)
(0.633748 0.0354739 -1.09299e-20)
(0.695841 0.0228198 -4.33081e-20)
(-0.00987252 0.0167043 6.99271e-21)
(-0.0244746 0.0428126 -1.22152e-19)
(-0.0339594 0.0628253 1.2374e-20)
(-0.0385723 0.0773184 -9.31724e-20)
(-0.0385359 0.0871225 -4.68865e-20)
(-0.0341369 0.0930916 3.6881e-20)
(-0.025634 0.0960443 -1.39176e-20)
(-0.0132138 0.0967153 -1.3308e-20)
(0.00303084 0.095727 -4.90982e-20)
(0.0231083 0.0935803 4.95323e-20)
(0.0471235 0.090657 -1.26696e-19)
(0.0752655 0.0872324 6.43032e-20)
(0.10779 0.0834913 1.04943e-19)
(0.144996 0.079545 3.00243e-21)
(0.187201 0.075447 2.41688e-20)
(0.234706 0.0712052 3.9115e-20)
(0.287764 0.0667942 1.50472e-20)
(0.346493 0.0621469 3.80737e-20)
(0.410985 0.0572491 -2.89772e-20)
(0.480549 0.0517435 1.41705e-19)
(0.556231 0.046449 1.59763e-19)
(0.632158 0.0386881 1.08508e-19)
(0.721038 0.0343748 6.40142e-20)
(0.786078 0.0221119 1.04801e-19)
(-0.0102336 0.0162482 9.40563e-21)
(-0.0252374 0.0414712 6.54261e-20)
(-0.0347272 0.060638 1.22542e-19)
(-0.0388986 0.0743741 2.34286e-20)
(-0.0379656 0.0835285 7.59334e-20)
(-0.0322142 0.0889548 -1.12691e-19)
(-0.0219006 0.0914608 6.69758e-20)
(-0.00720138 0.0917667 -2.24024e-20)
(0.01181 0.0904826 1.69713e-19)
(0.03517 0.0881018 -1.09476e-19)
(0.0630184 0.0850048 2.86828e-20)
(0.095581 0.0814718 -5.07431e-20)
(0.133145 0.0776974 -1.38289e-19)
(0.176028 0.0738062 -8.74423e-20)
(0.224538 0.0698666 -3.62181e-20)
(0.278925 0.0659007 1.25333e-20)
(0.33933 0.0618963 1.43253e-20)
(0.405687 0.0577881 -2.03175e-20)
(0.477821 0.0535897 -3.92084e-20)
(0.554672 0.0488571 -1.27957e-19)
(0.636832 0.0446082 -1.02042e-19)
(0.718057 0.0377289 -7.02209e-20)
(0.810114 0.0348628 -3.89054e-20)
(0.876879 0.0233114 9.06609e-20)
(0.993862 0.0227108 -1.40648e-20)
(-0.0106014 0.0158069 6.12582e-20)
(-0.0259639 0.0400944 2.44998e-20)
(-0.0353822 0.0583294 -3.87812e-20)
(-0.0390008 0.0712137 -3.19617e-20)
(-0.0370249 0.0796308 -4.81317e-20)
(-0.0297352 0.0844426 4.41683e-20)
(-0.0173769 0.0864519 -1.32419e-21)
(-0.000106927 0.0863682 5.55835e-20)
(0.0220306 0.0847918 -1.09099e-19)
(0.0491091 0.0822107 1.15607e-19)
(0.0813075 0.0790063 1.46699e-20)
(0.118886 0.075465 1.60596e-21)
(0.162152 0.0717926 8.46634e-20)
(0.211412 0.0681271 5.69857e-20)
(0.266916 0.0645497 1.84666e-20)
(0.328795 0.0610923 3.3318e-20)
(0.396987 0.0577472 -7.40099e-20)
(0.47113 0.0544399 1.64374e-20)
(0.550648 0.0511866 -9.84223e-20)
(0.634061 0.0474783 1.48828e-19)
(0.721247 0.0443753 1.55699e-21)
(0.806059 0.0386466 -2.83706e-21)
(0.898242 0.0369869 -3.16305e-20)
(0.964984 0.0264211 -1.08325e-19)
(1.07494 0.0277562 -5.93179e-20)
(-0.0109798 0.015386 -1.4348e-19)
(-0.0266479 0.0386967 -2.5278e-20)
(-0.0358937 0.0559246 1.17469e-20)
(-0.0388155 0.067874 3.57495e-20)
(-0.0356098 0.0754778 2.39065e-20)
(-0.0265469 0.0796164 -1.93428e-20)
(-0.0118526 0.0810934 -1.10005e-20)
(0.00834607 0.0806124 8.95277e-20)
(0.0340439 0.0787678 -2.13843e-20)
(0.0653569 0.0760449 -1.90303e-20)
(0.102503 0.0728285 3.45091e-20)
(0.145764 0.0694132 2.66539e-20)
(0.195439 0.0660156 -3.314e-20)
(0.251774 0.0627848 -1.18272e-19)
(0.314892 0.0598093 2.03609e-20)
(0.384704 0.0571207 -2.7343e-21)
(0.460829 0.0547003 -1.31546e-20)
(0.542491 0.0524488 1.89539e-20)
(0.628584 0.0503447 1.54953e-19)
(0.717185 0.0478542 -3.09928e-20)
(0.807314 0.045887 -6.40606e-20)
(0.893343 0.0414547 -7.97881e-21)
(0.982391 0.0406201 7.58491e-20)
(1.04695 0.0311889 6.38534e-20)
(1.14552 0.0337001 1.81834e-20)
(-0.0113712 0.0149881 5.60854e-20)
(-0.0272781 0.0372879 -6.48689e-20)
(-0.0362229 0.0534451 4.45276e-21)
(-0.0382667 0.06439 3.78242e-20)
(-0.0335985 0.0711197 6.52641e-20)
(-0.0224731 0.0745426 3.04311e-20)
(-0.0050881 0.0754705 -3.38735e-20)
(0.018469 0.0746064 9.92823e-21)
(0.0482386 0.0725425 6.29091e-20)
(0.0843802 0.0697657 -7.47964e-20)
(0.127139 0.0666661 2.01635e-20)
(0.176794 0.0635469 -6.7054e-20)
(0.233583 0.0606337 9.42838e-20)
(0.297623 0.0580799 5.57447e-20)
(0.368805 0.0559701 -3.75738e-20)
(0.446703 0.0543186 -3.72642e-21)
(0.530487 0.0530728 -4.54843e-20)
(0.618858 0.0520893 3.89222e-20)
(0.710098 0.051261 2.04371e-20)
(0.801866 0.050073 3.47549e-20)
(0.892364 0.0491146 -1.28172e-19)
(0.976799 0.0459517 1.0039e-19)
(1.05965 0.045468 -1.46838e-19)
(1.11975 0.037175 7.17617e-20)
(1.20396 0.0399834 4.17055e-20)
(-0.0117751 0.0146123 -6.46581e-20)
(-0.027838 0.0358727 1.39369e-19)
(-0.0363216 0.050908 -2.94379e-20)
(-0.0372656 0.0607938 -1.39836e-19)
(-0.030852 0.0666065 5.96395e-20)
(-0.0173157 0.0692918 -5.79619e-20)
(0.00318214 0.0696767 -4.70204e-20)
(0.0306007 0.0684692 -5.08514e-20)
(0.0650284 0.0662646 5.70934e-20)
(0.106659 0.0635545 7.14766e-20)
(0.155741 0.0607358 -5.93637e-20)
(0.212502 0.0581185 4.88525e-20)
(0.277048 0.0559304 5.31822e-21)
(0.34926 0.0543178 -2.22683e-20)
(0.42868 0.0533424 6.66197e-20)
(0.51441 0.0529776 -9.88463e-20)
(0.605056 0.0531074 5.80739e-20)
(0.698724 0.0535223 -4.0951e-20)
(0.79309 0.0539895 -1.47792e-20)
(0.885486 0.0540449 1.55531e-19)
(0.973534 0.053859 1.61795e-19)
(1.05349 0.0517673 3.16052e-20)
(1.12764 0.0511147 -7.54722e-20)
(1.18132 0.0438579 -4.44917e-20)
(1.24981 0.0460461 1.95306e-20)
(-0.0121881 0.0142547 7.87319e-20)
(-0.0283041 0.0344514 -1.46891e-19)
(-0.0361322 0.0483253 5.22092e-20)
(-0.0357103 0.0571147 1.06573e-19)
(-0.0272155 0.0619881 -8.63099e-20)
(-0.010858 0.0639373 6.47041e-20)
(0.0132433 0.0638116 -7.6802e-20)
(0.0450973 0.0623302 6.66938e-21)
(0.0848339 0.0600961 -3.78186e-20)
(0.13266 0.0576081 -4.42492e-20)
(0.188783 0.0552691 1.05188e-20)
(0.253306 0.0533901 -8.80167e-20)
(0.326105 0.0521893 6.08247e-20)
(0.406701 0.0517862 -1.54815e-21)
(0.494147 0.0521938 -1.25727e-20)
(0.586958 0.0533146 -4.71057e-21)
(0.683098 0.0549381 7.71724e-21)
(0.780078 0.0567671 1.13991e-19)
(0.875088 0.0584261 -1.7216e-19)
(0.965306 0.0595158 7.67937e-20)
(1.04816 0.0597863 -1.73626e-19)
(1.12107 0.05844 -5.91281e-21)
(1.18484 0.0571056 7.95523e-21)
(1.23084 0.0507525 5.4056e-20)
(1.28382 0.0514901 3.96791e-20)
(-0.0126042 0.0139106 3.72952e-20)
(-0.0286449 0.0330179 2.85008e-20)
(-0.0355871 0.0457038 -1.52178e-19)
(-0.0334871 0.0533782 -1.41458e-20)
(-0.02252 0.0573126 -4.05754e-20)
(-0.00286901 0.0585534 -1.53795e-20)
(0.0253921 0.0579791 2.26007e-19)
(0.0623176 0.0563258 -7.99632e-20)
(0.108061 0.054208 -1.53716e-20)
(0.162803 0.0521321 4.83612e-20)
(0.226641 0.0505026 -1.26968e-20)
(0.299458 0.0496204 3.23761e-20)
(0.380773 0.0496745 -2.25365e-20)
(0.469609 0.0507306 -1.68926e-21)
(0.564404 0.0527205 -3.88939e-20)
(0.663001 0.0554428 1.26182e-20)
(0.762724 0.0585665 3.05512e-20)
(0.860593 0.0616934 -3.34974e-20)
(0.953535 0.06432 5.46856e-20)
(1.03883 0.0661106 -5.86633e-20)
(1.11415 0.0664935 3.4051e-20)
(1.17808 0.0654992 4.94108e-20)
(1.23073 0.0630509 4.2164e-21)
(1.26857 0.0575389 -9.52072e-21)
(1.30733 0.0559986 -6.93758e-20)
(-0.0130152 0.0135709 -1.438e-20)
(-0.0288223 0.0315613 4.43437e-20)
(-0.0346085 0.0430464 1.08259e-19)
(-0.0304711 0.0496061 2.17889e-20)
(-0.0165859 0.0526261 1.37049e-20)
(0.00689075 0.0532146 -2.55895e-21)
(0.0399268 0.0522854 -1.06423e-19)
(0.0826078 0.0505963 -2.32162e-20)
(0.135076 0.0487751 2.51048e-20)
(0.197425 0.0473333 -1.44367e-20)
(0.269551 0.0466671 1.24157e-19)
(0.350991 0.0470488 -1.23241e-20)
(0.440765 0.0486107 5.78682e-20)
(0.537266 0.0513306 9.82457e-20)
(0.638223 0.055023 -5.38928e-20)
(0.740797 0.0593534 2.07172e-20)
(0.841772 0.0638577 5.09162e-20)
(0.937883 0.0680385 -1.69421e-20)
(1.02611 0.0713111 -1.29198e-19)
(1.10411 0.0733981 2.33408e-21)
(1.17023 0.0735795 4.87965e-20)
(1.22405 0.0725273 -4.40818e-20)
(1.26575 0.0687357 4.85866e-20)
(1.29551 0.0641339 -4.0462e-20)
(1.32192 0.0593128 -4.59552e-20)
(-0.0134061 0.013223 -6.37659e-20)
(-0.028792 0.0300691 2.30323e-20)
(-0.0331104 0.0403518 -1.1279e-20)
(-0.0265286 0.0458166 -8.69493e-20)
(-0.00922637 0.0479726 6.46782e-20)
(0.0186624 0.0479948 2.37511e-20)
(0.057136 0.0468373 -5.9659e-20)
(0.106283 0.0452828 7.67075e-20)
(0.166181 0.0439715 -3.71695e-20)
(0.23675 0.0434122 -6.69507e-20)
(0.317566 0.0439763 -1.86422e-19)
(0.407678 0.0458802 6.99927e-20)
(0.505466 0.0491648 -1.2468e-19)
(0.608582 0.0536806 -4.66229e-21)
(0.714025 0.0590923 -1.36572e-20)
(0.818354 0.0649142 1.69057e-20)
(0.918021 0.0705558 -4.04124e-20)
(1.00978 0.0754462 -1.63449e-20)
(1.09098 0.0789855 5.52076e-20)
(1.15998 0.0809611 -6.20989e-20)
(1.21598 0.080694 -7.18828e-20)
(1.25947 0.0792038 1.03341e-19)
(1.29112 0.0741858 -6.78785e-20)
(1.3131 0.0705217 -7.17207e-21)
(1.32898 0.061147 -1.63347e-20)
(-0.013759 0.0128548 -3.70672e-20)
(-0.0285014 0.0285258 -4.11018e-20)
(-0.0309989 0.0376151 6.57915e-20)
(-0.0215189 0.0420253 4.52874e-21)
(-0.000251665 0.0433939 -1.15517e-19)
(0.0326815 0.0429664 -1.60752e-19)
(0.0772864 0.0417406 4.96511e-20)
(0.13361 0.0405247 -6.08238e-20)
(0.201589 0.0399657 5.6579e-20)
(0.280856 0.0405555 -5.27508e-20)
(0.370527 0.0426154 1.22243e-19)
(0.469015 0.0462711 -1.73602e-20)
(0.573935 0.0514301 5.6712e-20)
(0.682154 0.0577786 8.05239e-20)
(0.789998 0.0648082 -8.55169e-20)
(0.893622 0.0718839 -8.88627e-20)
(0.989439 0.0783195 5.69118e-21)
(1.07455 0.0835187 1.87595e-20)
(1.14701 0.086937 -1.85893e-20)
(1.20604 0.0884516 8.72833e-20)
(1.25179 0.0875581 1.05765e-19)
(1.28547 0.0853505 -1.18003e-19)
(1.3085 0.0795719 1.60793e-20)
(1.32324 0.0762321 2.99827e-20)
(1.32988 0.061278 -4.37954e-20)
(-0.0140542 0.0124545 1.06149e-19)
(-0.0278903 0.0269127 6.69797e-20)
(-0.0281734 0.0348295 -9.84818e-20)
(-0.0152974 0.038246 6.28311e-20)
(0.0105263 0.0389304 3.92184e-20)
(0.0491701 0.038201 1.85094e-19)
(0.100611 0.0371001 1.19415e-19)
(0.164789 0.0364575 -5.7877e-22)
(0.241399 0.0369161 -4.23494e-20)
(0.329652 0.0389284 1.15227e-19)
(0.428048 0.0427315 -1.20003e-19)
(0.534223 0.0483171 4.78361e-20)
(0.644955 0.0554173 3.63601e-20)
(0.756359 0.063524 -1.10883e-19)
(0.864261 0.0719521 8.33734e-21)
(0.964696 0.0799432 1.25325e-19)
(1.05438 0.0867686 1.48267e-20)
(1.13109 0.0918694 1.68821e-20)
(1.19377 0.0948195 7.74674e-20)
(1.24261 0.0956192 -5.10826e-20)
(1.27862 0.0939791 -9.44989e-20)
(1.30358 0.0909573 7.70183e-20)
(1.31944 0.0848469 -1.85912e-19)
(1.32791 0.0805128 8.33185e-20)
(1.33154 0.0680355 -2.41359e-20)
(-0.0142691 0.012009 -1.18207e-19)
(-0.0268939 0.0252115 -1.19809e-19)
(-0.0245277 0.0319886 2.43703e-20)
(-0.00771723 0.0344924 3.42887e-20)
(0.0232894 0.034623 -4.29545e-20)
(0.0683301 0.0337706 -1.81256e-19)
(0.1273 0.033019 -4.9176e-20)
(0.199943 0.0332114 1.18128e-19)
(0.285586 0.0349675 1.6851e-21)
(0.382864 0.0386686 -5.30859e-20)
(0.489507 0.0444244 9.85638e-20)
(0.602274 0.0520457 -1.47793e-20)
(0.717103 0.0610516 1.62348e-19)
(0.829491 0.0707275 3.19533e-20)
(0.935036 0.080232 -3.77347e-20)
(1.02999 0.0887345 -4.72165e-20)
(1.11172 0.0955316 6.92597e-21)
(1.1789 0.100167 3.15611e-20)
(1.23148 0.102378 6.04408e-20)
(1.27053 0.10231 7.8549e-21)
(1.29776 0.099872 -7.74257e-21)
(1.31536 0.0961222 -2.91507e-20)
(1.32536 0.0896498 8.88833e-20)
(1.32952 0.0850052 1.27037e-20)
(1.33034 0.0729892 7.52256e-20)
(-0.0143774 0.0115055 -4.4932e-21)
(-0.0254432 0.023406 4.13698e-20)
(-0.0199525 0.029088 5.72889e-20)
(0.00136702 0.0307806 -8.49923e-20)
(0.0382092 0.0305147 1.1562e-20)
(0.0903358 0.0297484 3.68359e-20)
(0.157487 0.0295999 -2.50248e-20)
(0.239099 0.0309101 -1.17543e-20)
(0.333981 0.0342474 2.24276e-20)
(0.440031 0.0398802 -5.41451e-20)
(0.554076 0.0477403 -9.34902e-20)
(0.671952 0.0574123 -4.72397e-20)
(0.788852 0.0681789 -3.3778e-20)
(0.899901 0.0791304 -1.01686e-19)
(1.0008 0.0893165 3.46214e-20)
(1.08839 0.0979039 -1.00224e-22)
(1.16091 0.104286 -6.30158e-20)
(1.21808 0.108161 9.4906e-21)
(1.26083 0.109456 2.71617e-20)
(1.29096 0.10846 7.85317e-23)
(1.31064 0.105251 8.2546e-21)
(1.32224 0.100856 7.47971e-20)
(1.32774 0.0941493 -8.23729e-20)
(1.32876 0.0891596 -9.02856e-20)
(1.32753 0.0777606 -1.87409e-20)
(-0.0143508 0.010933 1.39037e-19)
(-0.0234653 0.0214833 1.17648e-19)
(-0.0143362 0.0261268 -8.12854e-20)
(0.0120974 0.0271308 6.01183e-20)
(0.0554425 0.0266531 -4.38364e-20)
(0.115327 0.0262115 6.22144e-20)
(0.191243 0.0269452 -1.73021e-20)
(0.282181 0.0296695 -4.32223e-20)
(0.38627 0.0348624 -2.88626e-20)
(0.500511 0.0426279 1.15768e-19)
(0.620743 0.0526672 4.70196e-20)
(0.74192 0.0643027 4.5187e-20)
(0.858691 0.0765795 -6.36503e-20)
(0.966129 0.0884322 1.30201e-19)
(1.06041 0.0988708 -1.26284e-19)
(1.13923 0.107137 -2.6808e-20)
(1.20192 0.112781 2.31081e-20)
(1.2492 0.115692 -4.56837e-20)
(1.28284 0.115986 -1.5498e-19)
(1.30517 0.114074 4.79896e-20)
(1.31859 0.110168 2.05312e-20)
(1.32548 0.105239 -4.8802e-20)
(1.32762 0.0983639 3.66024e-20)
(1.32645 0.0931477 4.91111e-21)
(1.32393 0.0822083 -2.95087e-20)
(-0.0141594 0.0102828 -2.02629e-19)
(-0.0208843 0.0194351 -3.89372e-20)
(-0.00756735 0.0231102 -6.67307e-21)
(0.0246099 0.0235703 2.74142e-20)
(0.0751273 0.0230927 6.96259e-20)
(0.143405 0.0232419 -6.17066e-20)
(0.228568 0.0251581 -7.95745e-20)
(0.329005 0.0295959 -7.73886e-21)
(0.441992 0.0368937 5.97502e-20)
(0.563505 0.0469327 -1.68493e-19)
(0.688375 0.0591344 -1.76363e-20)
(0.810819 0.0725417 5.27784e-22)
(0.925233 0.085989 -3.31946e-23)
(1.02701 0.0983206 -6.46776e-20)
(1.11313 0.108589 1.12837e-19)
(1.18237 0.116181 4.65253e-20)
(1.23514 0.12085 1.27953e-20)
(1.27311 0.122683 -2.71516e-20)
(1.29865 0.121969 8.10144e-20)
(1.31441 0.119208 -1.1281e-20)
(1.32283 0.114702 3.20557e-20)
(1.32612 0.109348 1.29096e-20)
(1.32583 0.102374 1.13785e-21)
(1.32316 0.0969845 3.78777e-21)
(1.31973 0.0864441 -1.08934e-20)
(-0.0137723 0.00954924 1.69348e-19)
(-0.017623 0.0172593 -7.87441e-20)
(0.000464581 0.0200514 9.27766e-20)
(0.0390316 0.0201355 -2.21615e-20)
(0.0973787 0.0198971 -3.07052e-20)
(0.174624 0.0209287 5.97658e-20)
(0.269384 0.0243411 8.4506e-20)
(0.379273 0.0307833 4.26916e-20)
(0.50055 0.040393 -6.21539e-20)
(0.628086 0.0527685 1.07295e-19)
(0.755779 0.0670158 -2.0925e-20)
(0.877352 0.0819073 -1.80469e-20)
(0.987314 0.0961228 2.93739e-20)
(1.08174 0.1085 2.12903e-21)
(1.15867 0.118215 -4.39342e-20)
(1.21804 0.124858 1.60185e-20)
(1.26129 0.128403 -6.54972e-21)
(1.29082 0.129126 5.54922e-20)
(1.30941 0.127452 -3.44045e-20)
(1.3198 0.123941 -1.09951e-20)
(1.32433 0.11894 3.82403e-21)
(1.32495 0.113258 -3.31786e-20)
(1.32294 0.10624 3.07749e-20)
(1.31928 0.10072 4.26133e-20)
(1.31527 0.090544 5.84163e-20)
(-0.0131578 0.00872964 -5.7971e-20)
(-0.0136035 0.0149609 5.58619e-20)
(0.00986685 0.0169734 3.4493e-20)
(0.0554782 0.016874 4.25146e-20)
(0.122285 0.0171409 -3.32835e-20)