/*--------------------------------*- C++ -*----------------------------------*\
  =========                 |
  \\      /  F ield         | OpenFOAM: The Open Source CFD Toolbox
   \\    /   O peration     | Website:  https://openfoam.org
    \\  /    A nd           | Version:  7
     \\/     M anipulation  |
\*---------------------------------------------------------------------------*/
FoamFile
{
    version     2.0;
    format      ascii;
    class       surfaceScalarField;
    location    "30";
    object      phi;
}
// * * * * * * * * * * * * * * * * * * * * * * * * * * * * * * * * * * * * * //

dimensions      [0 3 -1 0 0 0 0];

internalField   nonuniform List<scalar> 
6869
(
-0.000261929
0.0148911
0.000286672
-0.000233063
0.01584
-0.000207014
0.0162503
-0.000184666
0.0163674
-0.000165224
0.0163536
-0.000147926
0.0162909
-0.000132305
0.0162136
-0.000118096
0.0161344
-0.00010515
0.0160571
-9.33689e-05
0.0159825
-8.26747e-05
0.0159106
-7.29972e-05
0.0158412
-6.42656e-05
0.0157744
-5.64093e-05
0.0157103
-4.93587e-05
0.0156491
-4.30457e-05
0.0155911
-3.74034e-05
0.0155364
-3.2369e-05
0.0154852
-2.78819e-05
0.0154376
-2.38842e-05
0.0153937
-2.03228e-05
0.0153536
-1.71438e-05
0.0153173
-1.42987e-05
0.015285
-1.174e-05
0.0152566
-9.42296e-06
0.0152323
-7.30433e-06
0.015212
-5.3426e-06
0.0151957
-3.49766e-06
0.0151834
-1.73e-06
0.0151753
0.0151712
-0.000284727
0.0148677
0.000308089
-0.000256226
0.0158115
-0.000229806
0.0162238
-0.000206717
0.0163443
-0.000186393
0.0163333
-0.000168166
0.0162726
-0.000151602
0.016197
-0.000136451
0.0161192
-0.000122567
0.0160432
-0.000109853
0.0159698
-9.82334e-05
0.015899
-8.76385e-05
0.0158306
-7.79992e-05
0.0157647
-6.92461e-05
0.0157015
-6.13101e-05
0.0156412
-5.41243e-05
0.0155839
-4.76221e-05
0.0155299
-4.17408e-05
0.0154793
-3.64198e-05
0.0154323
-3.16008e-05
0.0153889
-2.72296e-05
0.0153492
-2.32526e-05
0.0153134
-1.96196e-05
0.0152814
-1.62826e-05
0.0152533
-1.31954e-05
0.0152292
-1.03137e-05
0.0152091
-7.59459e-06
0.0151929
-4.99656e-06
0.0151808
-2.47869e-06
0.0151728
0.0151687
-0.00030702
0.0148456
0.000329091
-0.000278865
0.0157833
-0.000252085
0.0161971
-0.000228277
0.0163205
-0.000207093
0.0163121
-0.000187958
0.0162535
-0.000170475
0.0161795
-0.000154405
0.0161031
-0.000139607
0.0160284
-0.000125984
0.0159562
-0.000113463
0.0158865
-0.000101974
0.0158191
-9.14505e-05
0.0157542
-8.18231e-05
0.0156919
-7.30238e-05
0.0156324
-6.49862e-05
0.0155759
-5.76443e-05
0.0155226
-5.09355e-05
0.0154726
-4.47988e-05
0.0154261
-3.91761e-05
0.0153833
-3.40119e-05
0.015344
-2.92528e-05
0.0153086
-2.48473e-05
0.015277
-2.07464e-05
0.0152492
-1.69031e-05
0.0152254
-1.32718e-05
0.0152054
-9.80846e-06
0.0151895
-6.4702e-06
0.0151775
-3.21481e-06
0.0151695
0.0151655
-0.000328819
0.0148248
0.000349687
-0.000300985
0.0157555
-0.000273854
0.0161699
-0.000249347
0.016296
-0.000227323
0.0162901
-0.000207303
0.0162335
-0.000188923
0.0161612
-0.000171957
0.0160862
-0.000156267
0.0160127
-0.00014176
0.0159417
-0.000128361
0.0158731
-0.000116002
0.0158068
-0.000104616
0.0157428
-9.41368e-05
0.0156814
-8.44959e-05
0.0156228
-7.56275e-05
0.015567
-6.74661e-05
0.0155144
-5.9949e-05
0.0154651
-5.30153e-05
0.0154192
-4.66064e-05
0.0153768
-4.06664e-05
0.0153381
-3.51412e-05
0.0153031
-2.99787e-05
0.0152718
-2.5129e-05
0.0152444
-2.05439e-05
0.0152208
-1.6177e-05
0.0152011
-1.19829e-05
0.0151853
-7.91774e-06
0.0151734
-3.93793e-06
0.0151655
0.0151616
-0.000350131
0.014805
0.000369888
-0.000322591
0.015728
-0.000295116
0.0161425
-0.000269926
0.0162708
-0.000247084
0.0162672
-0.0002262
0.0162126
-0.000206944
0.0161419
-0.000189105
0.0160683
-0.000172547
0.0159962
-0.000157178
0.0159263
-0.000142924
0.0158588
-0.000129718
0.0157935
-0.000117493
0.0157306
-0.000106184
0.0156701
-9.57232e-05
0.0156123
-8.60449e-05
0.0155574
-7.70842e-05
0.0155055
-6.87782e-05
0.0154568
-6.1066e-05
0.0154115
-5.38889e-05
0.0153697
-4.71901e-05
0.0153314
-4.09152e-05
0.0152968
-3.50115e-05
0.0152659
-2.94281e-05
0.0152388
-2.41161e-05
0.0152155
-1.90277e-05
0.015196
-1.41169e-05
0.0151804
-9.33842e-06
0.0151686
-4.64766e-06
0.0151608
0.0151569
-0.000370964
0.0147863
0.0003897
-0.000343687
0.0157007
-0.000315871
0.0161146
-0.000290016
0.0162449
-0.000266376
0.0162436
-0.000244648
0.0161909
-0.000224539
0.0161218
-0.000205848
0.0160496
-0.000188444
0.0159788
-0.000172236
0.0159101
-0.00015715
0.0158437
-0.000143119
0.0157795
-0.000130078
0.0157176
-0.000117962
0.015658
-0.000106702
0.015601
-9.62351e-05
0.0155469
-8.64952e-05
0.0154957
-7.74199e-05
0.0154477
-6.8948e-05
0.015403
-6.10205e-05
0.0153617
-5.35803e-05
0.015324
-4.65725e-05
0.0152898
-3.99435e-05
0.0152593
-3.36419e-05
0.0152325
-2.76178e-05
0.0152094
-2.18227e-05
0.0151902
-1.62093e-05
0.0151748
-1.07315e-05
0.0151632
-5.34365e-06
0.0151554
0.0151516
-0.000391323
0.0147685
0.00040913
-0.000364276
0.0156736
-0.000336121
0.0160865
-0.000309616
0.0162184
-0.000285196
0.0162192
-0.000262645
0.0161683
-0.000241704
0.0161008
-0.000222183
0.0160301
-0.000203957
0.0159605
-0.000186932
0.0158931
-0.000171037
0.0158278
-0.000156204
0.0157647
-0.000142369
0.0157037
-0.000129467
0.0156451
-0.000117431
0.015589
-0.000106195
0.0155357
-9.56964e-05
0.0154852
-8.58712e-05
0.0154379
-7.66583e-05
0.0153938
-6.79986e-05
0.0153531
-5.98346e-05
0.0153158
-5.21105e-05
0.0152821
-4.47726e-05
0.0152519
-3.77685e-05
0.0152255
-3.10476e-05
0.0152027
-2.45606e-05
0.0151837
-1.82592e-05
0.0151685
-1.20965e-05
0.015157
-6.02559e-06
0.0151494
0.0151456
-0.000411211
0.0147515
0.000428179
-0.00038436
0.0156468
-0.000355865
0.016058
-0.000328725
0.0161913
-0.000303544
0.016194
-0.00028019
0.016145
-0.000258438
0.0160791
-0.00023811
0.0160098
-0.000219082
0.0159415
-0.000201264
0.0158753
-0.000184582
0.0158111
-0.00016897
0.0157491
-0.000154364
0.0156891
-0.000140697
0.0156314
-0.000127905
0.0155762
-0.000115923
0.0155237
-0.000104685
0.015474
-9.41294e-05
0.0154274
-8.41946e-05
0.0153839
-7.48209e-05
0.0153437
-6.59505e-05
0.0153069
-5.75273e-05
0.0152736
-4.94969e-05
0.0152439
-4.18063e-05
0.0152178
-3.44041e-05
0.0151953
-2.72402e-05
0.0151765
-2.02658e-05
0.0151615
-1.34326e-05
0.0151502
-6.69316e-06
0.0151426
0.0151389
-0.000430628
0.0147353
0.000446848
-0.000403938
0.0156201
-0.000375102
0.0160291
-0.00034734
0.0161635
-0.000321417
0.0161681
-0.00029728
0.0161208
-0.000274738
0.0160566
-0.000253624
0.0159887
-0.000233818
0.0159217
-0.000215228
0.0158567
-0.000197782
0.0157937
-0.000181414
0.0157327
-0.000166058
0.0156738
-0.00015165
0.015617
-0.000138124
0.0155627
-0.000125415
0.015511
-0.000113458
0.015462
-0.000102192
0.0154161
-9.15543e-05
0.0153732
-8.1485e-05
0.0153336
-7.1926e-05
0.0152974
-6.28209e-05
0.0152645
-5.41146e-05
0.0152352
-4.57536e-05
0.0152094
-3.76859e-05
0.0151872
-2.98606e-05
0.0151687
-2.22281e-05
0.0151539
-1.47394e-05
0.0151427
-7.34611e-06
0.0151352
0.0151315
-0.000449576
0.0147197
0.000465136
-0.000423009
0.0155935
-0.00039383
0.016
-0.00036546
0.0161351
-0.000338812
0.0161414
-0.000313914
0.0160959
-0.000290603
0.0160332
-0.000268725
0.0159668
-0.000248162
0.0159011
-0.000228824
0.0158373
-0.000210637
0.0157755
-0.000193534
0.0157156
-0.000177451
0.0156577
-0.000162322
0.0156019
-0.000148083
0.0155484
-0.000134669
0.0154975
-0.000122014
0.0154494
-0.000110057
0.0154041
-9.87353e-05
0.0153619
-8.79889e-05
0.0153229
-7.77592e-05
0.0152871
-6.79895e-05
0.0152548
-5.86241e-05
0.0152258
-4.96092e-05
0.0152004
-4.08919e-05
0.0151785
-3.24208e-05
0.0151602
-2.41455e-05
0.0151456
-1.60163e-05
0.0151346
-7.98418e-06
0.0151272
0.0151235
-0.00046805
0.0147047
0.000483037
-0.000441571
0.0155671
-0.000412046
0.0159704
-0.00038308
0.0161062
-0.000355727
0.0161141
-0.000330087
0.0160703
-0.000306029
0.0160092
-0.00028341
0.0159442
-0.000262113
0.0158798
-0.000242048
0.0158173
-0.000223142
0.0157566
-0.000205327
0.0156978
-0.000188539
0.0156409
-0.000172712
0.0155861
-0.000157782
0.0155335
-0.000143683
0.0154834
-0.000130351
0.0154361
-0.000117722
0.0153915
-0.000105736
0.0153499
-9.43306e-05
0.0153115
-8.34483e-05
0.0152763
-7.30315e-05
0.0152444
-6.30241e-05
0.0152158
-5.33716e-05
0.0151908
-4.40209e-05
0.0151692
-3.49198e-05
0.0151511
-2.60173e-05
0.0151367
-1.7263e-05
0.0151258
-8.60714e-06
0.0151186
0.0151149
-0.000486047
0.0146902
0.000500547
-0.000459619
0.0155406
-0.000429747
0.0159406
-0.000400197
0.0160766
-0.000372157
0.016086
-0.000345797
0.0160439
-0.000321014
0.0159844
-0.000297675
0.0159208
-0.000275667
0.0158578
-0.000254898
0.0157965
-0.000235296
0.015737
-0.000216792
0.0156793
-0.000199321
0.0156234
-0.000182818
0.0155696
-0.000167218
0.0155179
-0.000152455
0.0154687
-0.000138465
0.0154221
-0.000125185
0.0153782
-0.000112553
0.0153373
-0.000100509
0.0152994
-8.89918e-05
0.0152647
-7.79454e-05
0.0152333
-6.73131e-05
0.0152052
-5.70399e-05
0.0151805
-4.7072e-05
0.0151592
-3.73569e-05
0.0151414
-2.78428e-05
0.0151272
-1.8479e-05
0.0151164
-9.21479e-06
0.0151093
0.0151057
-0.000503562
0.0146761
0.000517656
-0.00047715
0.0155142
-0.000446926
0.0159103
-0.000416806
0.0160465
-0.000388099
0.0160573
-0.00036104
0.0160169
-0.000335554
0.0159589
-0.000311518
0.0158968
-0.000288821
0.0158351
-0.000267372
0.0157751
-0.000247097
0.0157167
-0.000227926
0.0156601
-0.000209795
0.0156053
-0.000192638
0.0155524
-0.000176389
0.0155017
-0.000160983
0.0154533
-0.000146357
0.0154074
-0.000132445
0.0153643
-0.000119187
0.015324
-0.000106521
0.0152868
-9.43881e-05
0.0152526
-8.27299e-05
0.0152216
-7.149e-05
0.015194
-6.06129e-05
0.0151696
-5.00443e-05
0.0151486
-3.97313e-05
0.0151311
-2.96217e-05
0.015117
-1.96639e-05
0.0151065
-9.80694e-06
0.0150994
0.0150959
-0.000520587
0.0146624
0.000534355
-0.000494158
0.0154878
-0.00046358
0.0158798
-0.000432903
0.0160158
-0.000403548
0.016028
-0.000375812
0.0159891
-0.000349646
0.0159327
-0.000324937
0.0158721
-0.000301574
0.0158118
-0.000279468
0.015753
-0.000258542
0.0156958
-0.000238728
0.0156403
-0.000219959
0.0155865
-0.000202169
0.0155346
-0.000185293
0.0154848
-0.000169266
0.0154373
-0.000154023
0.0153922
-0.0001395
0.0153498
-0.000125635
0.0153102
-0.000112367
0.0152735
-9.96361e-05
0.0152399
-8.7384e-05
0.0152094
-7.55537e-05
0.0151821
-6.40897e-05
0.0151581
-5.29371e-05
0.0151375
-4.20425e-05
0.0151202
-3.13532e-05
0.0151064
-2.08174e-05
0.0150959
-1.03834e-05
0.015089
0.0150855
-0.000537115
0.0146488
0.000550632
-0.000510634
0.0154613
-0.000479702
0.0158488
-0.000448482
0.0159846
-0.0004185
0.015998
-0.000390109
0.0159607
-0.000363286
0.0159059
-0.000337927
0.0158467
-0.000313922
0.0157878
-0.000291182
0.0157302
-0.000269629
0.0156742
-0.000249194
0.0156199
-0.00022981
0.0155671
-0.00021141
0.0155162
-0.00019393
0.0154673
-0.000177302
0.0154206
-0.000161463
0.0153764
-0.000146349
0.0153347
-0.000131896
0.0152957
-0.000118045
0.0152597
-0.000104735
0.0152266
-9.19064e-05
0.0151966
-7.95035e-05
0.0151697
-6.74695e-05
0.0151461
-5.57496e-05
0.0151258
-4.42898e-05
0.0151088
-3.30372e-05
0.0150951
-2.19393e-05
0.0150848
-1.09441e-05
0.015078
0.0150746
-0.000553134
0.0146355
0.000566473
-0.000526573
0.0154347
-0.000495285
0.0158176
-0.000463538
0.0159529
-0.00043295
0.0159674
-0.000403927
0.0159317
-0.000376472
0.0158785
-0.000350486
0.0158208
-0.000325864
0.0157631
-0.000302514
0.0157069
-0.000280357
0.0156521
-0.000259324
0.0155988
-0.000239348
0.0155472
-0.00022036
0.0154972
-0.000202296
0.0154492
-0.00018509
0.0154034
-0.000168675
0.0153599
-0.00015299
0.015319
-0.00013797
0.0152807
-0.000123554
0.0152452
-0.000109683
0.0152127
-9.62965e-05
0.0151832
-8.33383e-05
0.0151568
-7.07517e-05
0.0151335
-5.84813e-05
0.0151135
-4.64729e-05
0.0150967
-3.46731e-05
0.0150833
-2.30292e-05
0.0150732
-1.14889e-05
0.0150665
0.0150631
-0.000568636
0.0146223
0.000581864
-0.000541965
0.0154081
-0.000510322
0.0157859
-0.000478064
0.0159206
-0.000446892
0.0159362
-0.000417262
0.0159021
-0.000389198
0.0158504
-0.000362611
0.0157942
-0.000337395
0.0157379
-0.000313459
0.0156829
-0.000290724
0.0156294
-0.000269117
0.0155772
-0.00024857
0.0155266
-0.000229018
0.0154777
-0.000210392
0.0154306
-0.000192628
0.0153857
-0.000175659
0.015343
-0.000159422
0.0153027
-0.000143854
0.0152651
-0.000128893
0.0152303
-0.000114479
0.0151983
-0.000100553
0.0151693
-8.70577e-05
0.0151433
-7.39356e-05
0.0151204
-6.11316e-05
0.0151007
-4.85912e-05
0.0150842
-3.62607e-05
0.015071
-2.40871e-05
0.015061
-1.20177e-05
0.0150544
0.0150511
-0.000583607
0.0146091
0.000596789
-0.000556801
0.0153813
-0.000524806
0.0157539
-0.000492054
0.0158878
-0.00046032
0.0159045
-0.000430109
0.0158719
-0.000401463
0.0158218
-0.000374299
0.015767
-0.000348515
0.0157121
-0.000324018
0.0156584
-0.000300726
0.0156061
-0.000278569
0.0155551
-0.000257476
0.0155055
-0.000237381
0.0154576
-0.000218216
0.0154115
-0.000199915
0.0153674
-0.000182413
0.0153255
-0.000165645
0.015286
-0.000149549
0.015249
-0.000134062
0.0152148
-0.000119124
0.0151834
-0.000104677
0.0151548
-9.0661e-05
0.0151293
-7.70208e-05
0.0151068
-6.37002e-05
0.0150874
-5.06445e-05
0.0150712
-3.77998e-05
0.0150581
-2.51127e-05
0.0150483
-1.25303e-05
0.0150418
0.0150385
-0.000598036
0.0145959
0.00061123
-0.000571072
0.0153543
-0.000538729
0.0157216
-0.000505501
0.0158546
-0.000473231
0.0158722
-0.000442463
0.0158411
-0.000413261
0.0157926
-0.000385547
0.0157393
-0.00035922
0.0156858
-0.000334187
0.0156334
-0.000310364
0.0155822
-0.00028768
0.0155324
-0.000266065
0.0154839
-0.00024545
0.015437
-0.000225767
0.0153918
-0.000206951
0.0153485
-0.000188937
0.0153075
-0.000171658
0.0152687
-0.000155053
0.0152324
-0.000139059
0.0151988
-0.000123617
0.0151679
-0.000108665
0.0151399
-9.41478e-05
0.0151147
-8.00069e-05
0.0150926
-6.61868e-05
0.0150736
-5.26325e-05
0.0150576
-3.929e-05
0.0150448
-2.61058e-05
0.0150352
-1.30268e-05
0.0150287
0.0150255
-0.000611909
0.0145826
0.00062517
-0.000584768
0.0153272
-0.000552083
0.0156889
-0.000518399
0.0158209
-0.000485618
0.0158394
-0.000454321
0.0158098
-0.00042459
0.0157628
-0.000396353
0.0157111
-0.000369509
0.015659
-0.000343964
0.0156078
-0.000319636
0.0155579
-0.00029645
0.0155092
-0.000274335
0.0154618
-0.000253222
0.0154159
-0.000233045
0.0153716
-0.000213736
0.0153292
-0.000195229
0.0152889
-0.000177461
0.0152509
-0.000160367
0.0152153
-0.000143885
0.0151823
-0.000127956
0.015152
-0.00011252
0.0151244
-9.75179e-05
0.0150997
-8.28937e-05
0.015078
-6.85911e-05
0.0150592
-5.45551e-05
0.0150436
-4.07314e-05
0.015031
-2.70665e-05
0.0150215
-1.3507e-05
0.0150152
0.015012
-0.000625214
0.0145693
0.00063859
-0.000597879
0.0152998
-0.00056486
0.0156559
-0.000530742
0.0157868
-0.000497477
0.0158062
-0.000465679
0.015778
-0.000435446
0.0157326
-0.000406713
0.0156823
-0.000379379
0.0156316
-0.000353349
0.0155818
-0.00032854
0.0155331
-0.000304876
0.0154855
-0.000282285
0.0154392
-0.000260699
0.0153943
-0.000240049
0.0153509
-0.000220268
0.0153094
-0.000201291
0.01527
-0.000183052
0.0152327
-0.000165489
0.0151978
-0.00014854
0.0151654
-0.000132143
0.0151356
-0.000116239
0.0151085
-0.000100771
0.0150843
-8.5681e-05
0.0150629
-7.0913e-05
0.0150445
-5.6412e-05
0.0150291
-4.21238e-05
0.0150167
-2.79946e-05
0.0150074
-1.3971e-05
0.0150011
0.014998
-0.000637935
0.0145557
0.000651472
-0.000610394
0.0152723
-0.000577052
0.0156225
-0.000542523
0.0157523
-0.000508801
0.0157724
-0.000476532
0.0157458
-0.000445827
0.0157019
-0.000416625
0.0156531
-0.000388828
0.0156038
-0.00036234
0.0155553
-0.000337076
0.0155078
-0.000312958
0.0154614
-0.000289916
0.0154162
-0.000267879
0.0153722
-0.000246778
0.0153298
-0.000226548
0.0152892
-0.000207121
0.0152505
-0.000188433
0.015214
-0.000170421
0.0151798
-0.000153022
0.015148
-0.000136176
0.0151187
-0.000119824
0.0150922
-0.000103907
0.0150683
-8.83687e-05
0.0150474
-7.31525e-05
0.0150293
-5.82034e-05
0.0150141
-4.34672e-05
0.0150019
-2.88901e-05
0.0149928
-1.44188e-05
0.0149867
0.0149836
-0.000650061
0.014542
0.000663795
-0.000622303
0.0152445
-0.000588652
0.0155889
-0.000553736
0.0157174
-0.000519587
0.0157383
-0.000486876
0.015713
-0.000455729
0.0156707
-0.000426088
0.0156235
-0.000397856
0.0155756
-0.000370936
0.0155284
-0.000345242
0.0154821
-0.000320696
0.0154369
-0.000297226
0.0153927
-0.000274762
0.0153498
-0.000253234
0.0153083
-0.000232575
0.0152686
-0.00021272
0.0152307
-0.000193603
0.0151949
-0.000175161
0.0151613
-0.000157333
0.0151301
-0.000140057
0.0151015
-0.000123274
0.0150754
-0.000106926
0.015052
-9.09569e-05
0.0150314
-7.53095e-05
0.0150136
-5.99292e-05
0.0149987
-4.47616e-05
0.0149868
-2.97531e-05
0.0149778
-1.48502e-05
0.0149718
0.0149688
-0.000661576
0.014528
0.000675541
-0.000633597
0.0152166
-0.000599651
0.0155549
-0.000564375
0.0156821
-0.00052983
0.0157037
-0.000496709
0.0156799
-0.00046515
0.0156392
-0.000435099
0.0155934
-0.000406461
0.015547
-0.000379136
0.0155011
-0.000353039
0.015456
-0.00032809
0.0154119
-0.000304217
0.0153688
-0.000281348
0.0153269
-0.000259415
0.0152864
-0.00023835
0.0152475
-0.000218088
0.0152104
-0.000198562
0.0151754
-0.000179711
0.0151425
-0.000161472
0.0151119
-0.000143785
0.0150838
-0.00012659
0.0150582
-0.000109829
0.0150352
-9.34458e-05
0.015015
-7.73843e-05
0.0149976
-6.15894e-05
0.0149829
-4.60071e-05
0.0149712
-3.05835e-05
0.0149624
-1.52655e-05
0.0149565
0.0149535
-0.000672468
0.0145138
0.000686692
-0.000644266
0.0151884
-0.000610043
0.0155207
-0.000574436
0.0156465
-0.000539526
0.0156688
-0.000506028
0.0156464
-0.000474088
0.0156072
-0.000443658
0.015563
-0.000414641
0.015518
-0.00038694
0.0154734
-0.000360466
0.0154296
-0.000335139
0.0153866
-0.000310887
0.0153446
-0.000287638
0.0153036
-0.000265323
0.0152641
-0.000243874
0.015226
-0.000223225
0.0151898
-0.000203312
0.0151555
-0.000184071
0.0151232
-0.00016544
0.0150933
-0.00014736
0.0150657
-0.000129771
0.0150406
-0.000112615
0.0150181
-9.58355e-05
0.0149982
-7.9377e-05
0.0149811
-6.31844e-05
0.0149667
-4.72037e-05
0.0149552
-3.13815e-05
0.0149465
-1.56645e-05
0.0149407
0.0149378
-0.000682724
0.0144993
0.00069723
-0.000654301
0.0151599
-0.000619822
0.0154862
-0.000583913
0.0156106
-0.000548673
0.0156336
-0.00051483
0.0156126
-0.000482541
0.015575
-0.000451763
0.0155322
-0.000422397
0.0154886
-0.000394347
0.0154453
-0.000367523
0.0154027
-0.000341845
0.0153609
-0.000317238
0.01532
-0.000293632
0.01528
-0.000270958
0.0152414
-0.000249146
0.0152042
-0.000228133
0.0151688
-0.000207852
0.0151352
-0.000188241
0.0151036
-0.000169238
0.0150743
-0.000150784
0.0150472
-0.000132818
0.0150226
-0.000115285
0.0150006
-9.81266e-05
0.0149811
-8.12879e-05
0.0149643
-6.47142e-05
0.0149502
-4.83518e-05
0.0149388
-3.21472e-05
0.0149303
-1.60475e-05
0.0149246
0.0149218
-0.000692333
0.0144845
0.000707136
-0.000663695
0.0151313
-0.000628982
0.0154515
-0.000592803
0.0155744
-0.000557266
0.0155981
-0.000523113
0.0155784
-0.000490509
0.0155424
-0.000459413
0.0155011
-0.000429729
0.0154589
-0.000401358
0.015417
-0.000374211
0.0153756
-0.000348207
0.0153349
-0.000323271
0.015295
-0.000299332
0.0152561
-0.000276321
0.0152184
-0.000254169
0.0151821
-0.000232811
0.0151474
-0.000212183
0.0151145
-0.000192222
0.0150837
-0.000172866
0.0150549
-0.000154056
0.0150284
-0.000135733
0.0150043
-0.000117839
0.0149827
-0.000100319
0.0149636
-8.31174e-05
0.0149471
-6.61793e-05
0.0149332
-4.94514e-05
0.0149221
-3.28807e-05
0.0149138
-1.64143e-05
0.0149082
0.0149054
-0.000701284
0.0144694
0.000716395
-0.00067244
0.0151024
-0.000637519
0.0154166
-0.000601102
0.015538
-0.000565304
0.0155623
-0.000530877
0.015544
-0.000497991
0.0155095
-0.00046661
0.0154697
-0.000436637
0.0154289
-0.000407974
0.0153883
-0.000380531
0.0153482
-0.000354227
0.0153086
-0.000328987
0.0152698
-0.000304739
0.0152319
-0.000281413
0.0151951
-0.000258943
0.0151596
-0.000237262
0.0151257
-0.000216307
0.0150936
-0.000196016
0.0150634
-0.000176326
0.0150352
-0.000157178
0.0150093
-0.000138515
0.0149856
-0.000120279
0.0149644
-0.000102414
0.0149457
-8.4866e-05
0.0149295
-6.758e-05
0.0149159
-5.0503e-05
0.014905
-3.35822e-05
0.0148968
-1.67652e-05
0.0148914
0.0148886
-0.000709566
0.014454
0.000724991
-0.00068053
0.0150734
-0.000645427
0.0153815
-0.000608809
0.0155014
-0.000572786
0.0155262
-0.00053812
0.0155093
-0.000504987
0.0154763
-0.000473353
0.0154381
-0.000443122
0.0153987
-0.000414196
0.0153594
-0.000386485
0.0153204
-0.000359907
0.015282
-0.000334387
0.0152443
-0.000309853
0.0152073
-0.000286236
0.0151714
-0.000263469
0.0151368
-0.000241487
0.0151037
-0.000220225
0.0150723
-0.000199622
0.0150428
-0.000179617
0.0150152
-0.000160151
0.0149898
-0.000141166
0.0149667
-0.000122605
0.0149459
-0.000104412
0.0149275
-8.65343e-05
0.0149116
-6.89167e-05
0.0148983
-5.15067e-05
0.0148876
-3.42519e-05
0.0148796
-1.71003e-05
0.0148742
0.0148715
-0.000717172
0.0144382
0.000732912
-0.000687959
0.0150442
-0.000652706
0.0153462
-0.000615921
0.0154646
-0.000579711
0.01549
-0.000544843
0.0154745
-0.000511498
0.015443
-0.000479643
0.0154063
-0.000449186
0.0153682
-0.000420026
0.0153302
-0.000392074
0.0152925
-0.000365248
0.0152552
-0.000339473
0.0152185
-0.000314677
0.0151825
-0.000290792
0.0151476
-0.00026775
0.0151138
-0.000245487
0.0150815
-0.000223939
0.0150508
-0.000203044
0.0150219
-0.000182743
0.0149949
-0.000162976
0.01497
-0.000143686
0.0149474
-0.000124817
0.014927
-0.000106314
0.014909
-8.81228e-05
0.0148934
-7.019e-05
0.0148804
-5.24631e-05
0.0148699
-3.48902e-05
0.014862
-1.74196e-05
0.0148567
0.0148541
-0.000724095
0.0144222
0.000740145
-0.000694726
0.0150148
-0.000659352
0.0153109
-0.000622439
0.0154277
-0.000586081
0.0154537
-0.000551048
0.0154394
-0.000517525
0.0154095
-0.000485483
0.0153742
-0.00045483
0.0153376
-0.000425466
0.0153009
-0.000397301
0.0152643
-0.000370253
0.0152282
-0.000344248
0.0151925
-0.000319214
0.0151575
-0.000295083
0.0151234
-0.000271788
0.0150905
-0.000249264
0.015059
-0.00022745
0.015029
-0.000206283
0.0150007
-0.000185703
0.0149743
-0.000165654
0.01495
-0.000146077
0.0149278
-0.000126918
0.0149078
-0.000108121
0.0148902
-8.96323e-05
0.014875
-7.14004e-05
0.0148622
-5.33725e-05
0.0148519
-3.54972e-05
0.0148441
-1.77233e-05
0.014839
0.0148364
-0.000730328
0.0144058
0.00074668
-0.000700826
0.0149853
-0.000665367
0.0152754
-0.000628363
0.0153907
-0.000591896
0.0154172
-0.000556735
0.0154043
-0.000523071
0.0153758
-0.000490876
0.015342
-0.000460057
0.0153068
-0.000430518
0.0152713
-0.000402167
0.015236
-0.000374924
0.0152009
-0.000348714
0.0151663
-0.000323465
0.0151322
-0.000299111
0.0150991
-0.000275584
0.015067
-0.000252821
0.0150362
-0.00023076
0.0150069
-0.000209339
0.0149793
-0.000188501
0.0149535
-0.000168187
0.0149297
-0.00014834
0.0149079
-0.000128907
0.0148884
-0.000109832
0.0148711
-9.10637e-05
0.0148562
-7.25485e-05
0.0148436
-5.42354e-05
0.0148336
-3.60733e-05
0.014826
-1.80116e-05
0.0148209
0.0148184
-0.00073587
0.0143892
0.000752509
-0.00070626
0.0149557
-0.00067075
0.0152399
-0.000633695
0.0153536
-0.000597158
0.0153807
-0.000561909
0.015369
-0.000528139
0.015342
-0.000495823
0.0153097
-0.000464871
0.0152758
-0.000435186
0.0152416
-0.000406677
0.0152075
-0.000379265
0.0151735
-0.000352874
0.0151399
-0.000327434
0.0151068
-0.000302879
0.0150745
-0.000279142
0.0150432
-0.00025616
0.0150132
-0.000233871
0.0149846
-0.000212216
0.0149576
-0.000191137
0.0149324
-0.000170576
0.0149091
-0.000150477
0.0148878
-0.000130787
0.0148687
-0.000111451
0.0148518
-9.24178e-05
0.0148371
-7.36352e-05
0.0148249
-5.50524e-05
0.014815
-3.66189e-05
0.0148075
-1.82847e-05
0.0148026
0.0148001
-0.000740717
0.0143723
0.000757627
-0.000711029
0.014926
-0.000675505
0.0152044
-0.000638439
0.0153165
-0.000601872
0.0153441
-0.000566572
0.0153337
-0.000532733
0.0153082
-0.00050033
0.0152773
-0.000469276
0.0152448
-0.000439474
0.0152118
-0.000410835
0.0151788
-0.000383279
0.0151459
-0.000356732
0.0151133
-0.000331124
0.0150812
-0.00030639
0.0150498
-0.000282463
0.0150193
-0.000259283
0.01499
-0.000236787
0.0149621
-0.000214916
0.0149358
-0.000193614
0.0149111
-0.000172823
0.0148883
-0.000152489
0.0148675
-0.000132558
0.0148488
-0.000112978
0.0148322
-9.36955e-05
0.0148179
-7.46611e-05
0.0148058
-5.5824e-05
0.0147961
-3.71343e-05
0.0147888
-1.85427e-05
0.014784
0.0147815
-0.000744871
0.0143551
0.00076203
-0.000715134
0.0148963
-0.000679634
0.0151689
-0.000642598
0.0152795
-0.000606043
0.0153075
-0.000570731
0.0152984
-0.000536857
0.0152743
-0.000504401
0.0152448
-0.000473276
0.0152136
-0.000443386
0.0151819
-0.000414644
0.0151501
-0.00038697
0.0151183
-0.000360291
0.0150866
-0.000334539
0.0150554
-0.000309647
0.0150249
-0.000285553
0.0149952
-0.000262193
0.0149667
-0.000239509
0.0149394
-0.000217441
0.0149137
-0.000195933
0.0148896
-0.00017493
0.0148673
-0.000154378
0.014847
-0.000134223
0.0148286
-0.000114413
0.0148124
-9.4898e-05
0.0147984
-7.56271e-05
0.0147866
-5.65508e-05
0.0147771
-3.762e-05
0.0147699
-1.87859e-05
0.0147651
0.0147627
-0.000748333
0.0143377
0.000765717
-0.000718582
0.0148665
-0.000683145
0.0151334
-0.00064618
0.0152425
-0.000609675
0.015271
-0.000574389
0.0152631
-0.000540518
0.0152404
-0.000508041
0.0152124
-0.000476876
0.0151825
-0.000446927
0.015152
-0.000418109
0.0151213
-0.000390343
0.0150905
-0.000363557
0.0150599
-0.000337682
0.0150296
-0.000312655
0.0149999
-0.000288413
0.014971
-0.000264894
0.0149432
-0.00024204
0.0149166
-0.000219793
0.0148914
-0.000198098
0.0148679
-0.0001769
0.0148461
-0.000156145
0.0148262
-0.000135782
0.0148083
-0.000115759
0.0147924
-9.60265e-05
0.0147786
-7.65342e-05
0.0147671
-5.72336e-05
0.0147578
-3.80764e-05
0.0147508
-1.90144e-05
0.0147461
0.0147437
-0.000751109
0.0143201
0.00076869
-0.000721378
0.0148368
-0.000686043
0.0150981
-0.00064919
0.0152057
-0.000612777
0.0152346
-0.000577555
0.0152279
-0.000543721
0.0152066
-0.000511257
0.0151799
-0.000480082
0.0151513
-0.000450104
0.015122
-0.000421236
0.0150924
-0.000393403
0.0150627
-0.000366532
0.015033
-0.000340558
0.0150036
-0.000315417
0.0149747
-0.000291047
0.0149466
-0.000267389
0.0149195
-0.000244384
0.0148936
-0.000221976
0.014869
-0.000200111
0.0148461
-0.000178734
0.0148248
-0.000157794
0.0148053
-0.000137238
0.0147877
-0.000117017
0.0147721
-9.7082e-05
0.0147587
-7.73833e-05
0.0147474
-5.78731e-05
0.0147383
-3.8504e-05
0.0147314
-1.92286e-05
0.0147268
0.0147245
-0.000753204
0.0143024
0.000770953
-0.000723529
0.0148071
-0.000688337
0.0150629
-0.000651637
0.015169
-0.000615356
0.0151983
-0.000580236
0.0151928
-0.000546474
0.0151729
-0.000514056
0.0151475
-0.000482901
0.0151201
-0.000452921
0.015092
-0.00042403
0.0150635
-0.000396154
0.0150348
-0.000369223
0.0150061
-0.000343172
0.0149775
-0.000317938
0.0149495
-0.000293461
0.0149221
-0.000269682
0.0148957
-0.000246544
0.0148704
-0.000223993
0.0148465
-0.000201974
0.014824
-0.000180435
0.0148032
-0.000159325
0.0147842
-0.000138593
0.014767
-0.000118189
0.0147517
-9.8066e-05
0.0147386
-7.81754e-05
0.0147275
-5.84701e-05
0.0147186
-3.89033e-05
0.0147118
-1.94287e-05
0.0147073
0.0147051
-0.000754629
0.0142845
0.00077251
-0.000725047
0.0147776
-0.000690038
0.0150279
-0.000653532
0.0151325
-0.000617421
0.0151622
-0.00058244
0.0151578
-0.000548785
0.0151392
-0.000516444
0.0151151
-0.000485341
0.015089
-0.000455386
0.0150621
-0.000426499
0.0150346
-0.000398605
0.0150069
-0.000371636
0.0149791
-0.000345529
0.0149514
-0.000320222
0.0149242
-0.000295657
0.0148976
-0.000271776
0.0148718
-0.000248524
0.0148472
-0.000225846
0.0148238
-0.000203691
0.0148019
-0.000182006
0.0147815
-0.000160741
0.0147629
-0.000139847
0.0147461
-0.000119276
0.0147312
-9.89798e-05
0.0147183
-7.89116e-05
0.0147074
-5.90253e-05
0.0146987
-3.92749e-05
0.0146921
-1.96149e-05
0.0146877
0.0146855
-0.000755393
0.0142665
0.000773373
-0.000725942
0.0147481
-0.000691156
0.0149931
-0.000654885
0.0150962
-0.000618984
0.0151263
-0.000584178
0.015123
-0.000550664
0.0151057
-0.000518432
0.0150829
-0.000487408
0.015058
-0.000457506
0.0150322
-0.000428647
0.0150058
-0.000400759
0.014979
-0.000373775
0.0149521
-0.000347633
0.0149253
-0.000322274
0.0148988
-0.000297641
0.0148729
-0.000273676
0.0148479
-0.000250327
0.0148238
-0.00022754
0.014801
-0.000205264
0.0147796
-0.000183449
0.0147597
-0.000162045
0.0147415
-0.000141005
0.014725
-0.00012028
0.0147105
-9.98248e-05
0.0146978
-7.95931e-05
0.0146872
-5.95396e-05
0.0146786
-3.96193e-05
0.0146722
-1.97875e-05
0.0146678
0.0146657
-0.00075551
0.0142485
0.000773552
-0.000726228
0.0147188
-0.000691706
0.0149586
-0.000655708
0.0150602
-0.000620055
0.0150907
-0.00058546
0.0150884
-0.00055212
0.0150723
-0.000520028
0.0150508
-0.000489112
0.0150271
-0.00045929
0.0150023
-0.000430484
0.014977
-0.000402625
0.0149512
-0.000375648
0.0149251
-0.000349492
0.0148991
-0.0003241
0.0148734
-0.000299417
0.0148482
-0.000275387
0.0148238
-0.000251957
0.0148004
-0.000229078
0.0147781
-0.000206697
0.0147572
-0.000184767
0.0147378
-0.000163239
0.01472
-0.000142066
0.0147039
-0.000121203
0.0146896
-0.000100603
0.0146772
-8.02212e-05
0.0146668
-6.0014e-05
0.0146584
-3.99371e-05
0.0146521
-1.99469e-05
0.0146478
0.0146457
-0.000754994
0.0142304
0.000773062
-0.00072592
0.0146897
-0.0006917
0.0149244
-0.000656016
0.0150245
-0.000620648
0.0150553
-0.000586299
0.0150541
-0.000553165
0.0150392
-0.000521242
0.0150189
-0.000490462
0.0149963
-0.000460745
0.0149726
-0.000432017
0.0149482
-0.000404209
0.0149233
-0.00037726
0.0148982
-0.000351111
0.014873
-0.000325706
0.014848
-0.00030099
0.0148235
-0.000276912
0.0147998
-0.000253419
0.0147769
-0.000230463
0.0147552
-0.000207993
0.0147348
-0.000185963
0.0147158
-0.000164326
0.0146983
-0.000143035
0.0146826
-0.000122046
0.0146686
-0.000101315
0.0146565
-8.0797e-05
0.0146463
-6.04493e-05
0.0146381
-4.0229e-05
0.0146319
-2.00934e-05
0.0146277
0.0146256
-0.000753863
0.0142124
0.000771918
-0.000725035
0.0146609
-0.000691157
0.0148905
-0.000655823
0.0149892
-0.000620775
0.0150203
-0.000586706
0.01502
-0.000553809
0.0150063
-0.000522085
0.0149872
-0.000491468
0.0149657
-0.000461881
0.014943
-0.000433254
0.0149196
-0.00040552
0.0148956
-0.000378619
0.0148713
-0.000352496
0.0148469
-0.000327096
0.0148226
-0.000302367
0.0147988
-0.000278257
0.0147756
-0.000254718
0.0147534
-0.0002317
0.0147322
-0.000209156
0.0147122
-0.000187041
0.0146936
-0.000165308
0.0146766
-0.000143913
0.0146612
-0.000122813
0.0146475
-0.000101963
0.0146356
-8.13219e-05
0.0146256
-6.08466e-05
0.0146176
-4.04956e-05