/*--------------------------------*- C++ -*----------------------------------*\
  =========                 |
  \\      /  F ield         | OpenFOAM: The Open Source CFD Toolbox
   \\    /   O peration     | Website:  https://openfoam.org
    \\  /    A nd           | Version:  7
     \\/     M anipulation  |
\*---------------------------------------------------------------------------*/
FoamFile
{
    version     2.0;
    format      ascii;
    class       volVectorField;
    location    "30";
    object      U;
}
// * * * * * * * * * * * * * * * * * * * * * * * * * * * * * * * * * * * * * //

dimensions      [0 1 -1 0 0 0 0];

internalField   nonuniform List<vector> 
3500
(
(1.13494 0.0352583 0)
(1.20739 0.0336947 0)
(1.23854 0.029135 0)
(1.24732 0.0261964 0)
(1.24616 0.0233795 0)
(1.24131 0.0209533 0)
(1.23536 0.0187619 0)
(1.22927 0.0167652 0)
(1.22334 0.0149462 0)
(1.21762 0.0132896 0)
(1.2121 0.0117835 0)
(1.20677 0.0104185 0)
(1.20165 0.00918529 0)
(1.19673 0.00807441 0)
(1.19205 0.00707614 0)
(1.1876 0.00618133 0)
(1.18341 0.00538104 0)
(1.17948 0.00466641 0)
(1.17584 0.00402917 0)
(1.17247 0.00346141 0)
(1.1694 0.00295559 0)
(1.16663 0.00250468 0)
(1.16415 0.00210181 0)
(1.16198 0.00174042 0)
(1.16012 0.0014144 0)
(1.15856 0.00111787 0)
(1.15731 0.000845151 0)
(1.15638 0.000590641 0)
(1.15575 0.000349427 0)
(1.15544 0.000115379 0)
(1.13311 0.0382554 0)
(1.2052 0.0367974 0)
(1.23654 0.0322479 0)
(1.24559 0.0292091 0)
(1.24465 0.0262835 0)
(1.23995 0.0237341 0)
(1.23413 0.0214156 0)
(1.22815 0.0192921 0)
(1.22232 0.017347 0)
(1.21668 0.0155647 0)
(1.21125 0.0139339 0)
(1.206 0.0124451 0)
(1.20095 0.0110894 0)
(1.1961 0.00985727 0)
(1.19147 0.00873938 0)
(1.18708 0.00772656 0)
(1.18295 0.00680994 0)
(1.17907 0.00598076 0)
(1.17546 0.00523069 0)
(1.17214 0.00455186 0)
(1.1691 0.00393665 0)
(1.16635 0.00337785 0)
(1.16391 0.00286855 0)
(1.16176 0.00240209 0)
(1.15991 0.00197219 0)
(1.15837 0.00157281 0)
(1.15714 0.00119809 0)
(1.15621 0.000842262 0)
(1.15559 0.000500177 0)
(1.15528 0.000165625 0)
(1.13138 0.0411888 0)
(1.20305 0.0398316 0)
(1.23451 0.0352898 0)
(1.2438 0.0321548 0)
(1.24307 0.0291231 0)
(1.23853 0.0264533 0)
(1.23284 0.0240108 0)
(1.22696 0.0217638 0)
(1.22122 0.0196956 0)
(1.21568 0.0177909 0)
(1.21033 0.0160385 0)
(1.20516 0.0144292 0)
(1.20018 0.012954 0)
(1.1954 0.0116038 0)
(1.19084 0.0103693 0)
(1.1865 0.00924131 0)
(1.18242 0.00821114 0)
(1.17859 0.00727005 0)
(1.17503 0.00640971 0)
(1.17174 0.0056222 0)
(1.16874 0.00489985 0)
(1.16602 0.00423537 0)
(1.1636 0.00362175 0)
(1.16147 0.00305222 0)
(1.15965 0.00252036 0)
(1.15812 0.00201996 0)
(1.1569 0.00154503 0)
(1.15598 0.00108963 0)
(1.15537 0.000648392 0)
(1.15507 0.000215025 0)
(1.12975 0.04406 0)
(1.20091 0.0427981 0)
(1.23246 0.0382613 0)
(1.24196 0.0350338 0)
(1.24142 0.0318984 0)
(1.23704 0.0291109 0)
(1.23147 0.0265474 0)
(1.22571 0.0241799 0)
(1.22006 0.0219918 0)
(1.21461 0.0199678 0)
(1.20934 0.018097 0)
(1.20425 0.0163702 0)
(1.19934 0.0147788 0)
(1.19463 0.0133135 0)
(1.19013 0.0119653 0)
(1.18586 0.0107251 0)
(1.18183 0.0095841 0)
(1.17805 0.00853377 0)
(1.17453 0.00756569 0)
(1.17128 0.00667194 0)
(1.16831 0.00584477 0)
(1.16563 0.00507684 0)
(1.16323 0.00436102 0)
(1.16113 0.00369047 0)
(1.15933 0.0030586 0)
(1.15782 0.00245908 0)
(1.15661 0.00188578 0)
(1.1557 0.00133261 0)
(1.15509 0.000793989 0)
(1.15479 0.000263551 0)
(1.12821 0.0468701 0)
(1.19881 0.0456977 0)
(1.23038 0.0411628 0)
(1.24007 0.0378462 0)
(1.23971 0.0346094 0)
(1.23548 0.0317068 0)
(1.23004 0.0290253 0)
(1.22438 0.0265403 0)
(1.21883 0.0242353 0)
(1.21347 0.0220951 0)
(1.20829 0.020109 0)
(1.20328 0.018268 0)
(1.19844 0.0165633 0)
(1.1938 0.014986 0)
(1.18937 0.013527 0)
(1.18515 0.0121774 0)
(1.18118 0.0109284 0)
(1.17744 0.00977146 0)
(1.17397 0.00869821 0)
(1.17076 0.00770065 0)
(1.16783 0.00677102 0)
(1.16518 0.00590187 0)
(1.16281 0.00508602 0)
(1.16073 0.00431651 0)
(1.15895 0.00358664 0)
(1.15746 0.00288996 0)
(1.15626 0.00222018 0)
(1.15536 0.00157108 0)
(1.15476 0.000936892 0)
(1.15447 0.000311178 0)
(1.12674 0.0496203 0)
(1.19672 0.048531 0)
(1.22827 0.0439948 0)
(1.23813 0.0405921 0)
(1.23794 0.037256 0)
(1.23386 0.0342409 0)
(1.22854 0.0314444 0)
(1.22299 0.0288448 0)
(1.21754 0.0264259 0)
(1.21227 0.0241725 0)
(1.20717 0.0220742 0)
(1.20224 0.020122 0)
(1.19748 0.0183072 0)
(1.19291 0.0166208 0)
(1.18854 0.015054 0)
(1.18439 0.0135978 0)
(1.18046 0.0122436 0)
(1.17678 0.0109827 0)
(1.17335 0.00980683 0)
(1.17019 0.00870794 0)
(1.16729 0.00767821 0)
(1.16467 0.00671013 0)
(1.16234 0.00579643 0)
(1.16028 0.00493007 0)
(1.15852 0.00410425 0)
(1.15704 0.00331238 0)
(1.15586 0.00254805 0)
(1.15497 0.00180492 0)
(1.15438 0.00107703 0)
(1.15408 0.000357882 0)
(1.12535 0.0523111 0)
(1.19465 0.0512983 0)
(1.22614 0.0467575 0)
(1.23613 0.0432714 0)
(1.23611 0.0398381 0)
(1.23217 0.0367131 0)
(1.22697 0.0338044 0)
(1.22153 0.0310932 0)
(1.21618 0.0285633 0)
(1.211 0.0261998 0)
(1.20599 0.0239924 0)
(1.20114 0.021932 0)
(1.19646 0.02001 0)
(1.19196 0.0182176 0)
(1.18765 0.0165459 0)
(1.18356 0.014986 0)
(1.17969 0.0135293 0)
(1.17606 0.0121671 0)
(1.17268 0.0108912 0)
(1.16956 0.00969344 0)
(1.1667 0.008566 0)
(1.16411 0.00750128 0)
(1.1618 0.00649196 0)
(1.15978 0.0055309 0)
(1.15803 0.0046112 0)
(1.15657 0.00372615 0)
(1.15541 0.00286924 0)
(1.15453 0.00203401 0)
(1.15394 0.00121434 0)
(1.15365 0.000403642 0)
(1.12403 0.0549432 0)
(1.1926 0.0539997 0)
(1.22399 0.049451 0)
(1.23409 0.0458838 0)
(1.23423 0.0423553 0)
(1.23042 0.0391231 0)
(1.22535 0.0361051 0)
(1.22002 0.0332851 0)
(1.21476 0.0306472 0)
(1.20967 0.0281767 0)
(1.20475 0.0258631 0)
(1.19998 0.0236977 0)
(1.19538 0.0216716 0)
(1.19095 0.0197761 0)
(1.18671 0.0180023 0)
(1.18268 0.0163416 0)
(1.17886 0.0147851 0)
(1.17529 0.0133243 0)
(1.17195 0.0119509 0)
(1.16887 0.0106568 0)
(1.16605 0.00943406 0)
(1.1635 0.00827504 0)
(1.16122 0.00717233 0)
(1.15922 0.00611875 0)
(1.15749 0.00510727 0)
(1.15605 0.00413111 0)
(1.1549 0.00318363 0)
(1.15403 0.00225827 0)
(1.15346 0.00134875 0)
(1.15317 0.000448439 0)
(1.12277 0.0575168 0)
(1.19056 0.0566353 0)
(1.2218 0.0520752 0)
(1.232 0.0484293 0)
(1.23228 0.0448075 0)
(1.22862 0.0414706 0)
(1.22366 0.0383461 0)
(1.21844 0.0354204 0)
(1.21329 0.0326774 0)
(1.20829 0.0301028 0)
(1.20345 0.0276862 0)
(1.19876 0.0254186 0)
(1.19423 0.0232914 0)
(1.18988 0.0212958 0)
(1.1857 0.0194229 0)
(1.18173 0.0176641 0)
(1.17798 0.0160107 0)
(1.17445 0.014454 0)
(1.17117 0.0129857 0)
(1.16813 0.0115977 0)
(1.16535 0.0102821 0)
(1.16283 0.00903112 0)
(1.16058 0.0078373 0)
(1.1586 0.00669339 0)
(1.1569 0.00559228 0)
(1.15548 0.00452709 0)
(1.15434 0.00349108 0)
(1.15349 0.00247759 0)
(1.15292 0.00148022 0)
(1.15263 0.000492253 0)
(1.12156 0.0600318 0)
(1.18853 0.0592048 0)
(1.21959 0.0546299 0)
(1.22986 0.0509073 0)
(1.23028 0.0471943 0)
(1.22675 0.0437553 0)
(1.22191 0.0405273 0)
(1.2168 0.0374986 0)
(1.21175 0.0346535 0)
(1.20684 0.0319778 0)
(1.20209 0.0294612 0)
(1.19749 0.0270946 0)
(1.19304 0.0248692 0)
(1.18875 0.0227764 0)
(1.18465 0.0208074 0)
(1.18074 0.0189534 0)
(1.17704 0.0172057 0)
(1.17357 0.0155558 0)
(1.17033 0.0139953 0)
(1.16734 0.0125159 0)
(1.16459 0.0111099 0)
(1.16211 0.00976927 0)
(1.15989 0.00848664 0)
(1.15794 0.00725462 0)
(1.15626 0.00606605 0)
(1.15486 0.00491395 0)
(1.15374 0.00379148 0)
(1.15289 0.00269191 0)
(1.15233 0.0016087 0)
(1.15205 0.000535069 0)
(1.1204 0.062488 0)
(1.18652 0.0617078 0)
(1.21736 0.0571148 0)
(1.22768 0.0533174 0)
(1.22822 0.0495152 0)
(1.22482 0.0459768 0)
(1.22011 0.042648 0)
(1.2151 0.0395193 0)
(1.21015 0.0365752 0)
(1.20534 0.0338015 0)
(1.20068 0.0311878 0)
(1.19616 0.0287252 0)
(1.19178 0.0264047 0)
(1.18757 0.0242177 0)
(1.18354 0.0221555 0)
(1.17969 0.0202091 0)
(1.17605 0.01837 0)
(1.17263 0.0166295 0)
(1.16944 0.0149793 0)
(1.16649 0.0134111 0)
(1.16379 0.0119171 0)
(1.16134 0.0104893 0)
(1.15915 0.00912014 0)
(1.15723 0.00780227 0)
(1.15558 0.00652843 0)
(1.15419 0.00529155 0)
(1.15308 0.00408473 0)
(1.15225 0.00290113 0)
(1.15169 0.00173413 0)
(1.15142 0.000576872 0)
(1.11928 0.0648848 0)
(1.1845 0.0641437 0)
(1.2151 0.0595295 0)
(1.22545 0.0556591 0)
(1.22611 0.0517697 0)
(1.22284 0.0481346 0)
(1.21825 0.0447081 0)
(1.21335 0.0414823 0)
(1.2085 0.0384421 0)
(1.20379 0.0355734 0)
(1.19921 0.0328658 0)
(1.19477 0.0303102 0)
(1.19048 0.0278976 0)
(1.18634 0.0256194 0)
(1.18237 0.0234668 0)
(1.17859 0.0214309 0)
(1.17501 0.0195031 0)
(1.17165 0.0176748 0)
(1.16851 0.0159375 0)
(1.1656 0.0142831 0)
(1.16294 0.0127036 0)
(1.16052 0.0111909 0)
(1.15837 0.00973762 0)
(1.15647 0.00833616 0)
(1.15484 0.00697926 0)
(1.15348 0.00565977 0)
(1.15238 0.00437073 0)
(1.15156 0.00310521 0)
(1.15101 0.00185647 0)
(1.15074 0.000617647 0)
(1.11819 0.0672215 0)
(1.18249 0.0665117 0)
(1.21281 0.0618732 0)
(1.22318 0.0579317 0)
(1.22395 0.0539571 0)
(1.22081 0.0502282 0)
(1.21633 0.0467069 0)
(1.21155 0.0433871 0)
(1.2068 0.0402538 0)
(1.20218 0.0372932 0)
(1.19769 0.0344948 0)
(1.19334 0.0318492 0)
(1.18912 0.0293476 0)
(1.18506 0.0269812 0)
(1.18116 0.0247411 0)
(1.17744 0.0226186 0)
(1.17392 0.0206049 0)
(1.17061 0.0186914 0)
(1.16752 0.0168698 0)
(1.16466 0.0151317 0)
(1.16204 0.0134691 0)
(1.15966 0.011874 0)
(1.15753 0.0103389 0)
(1.15567 0.00885615 0)
(1.15406 0.00741842 0)
(1.15271 0.00601852 0)
(1.15163 0.00464939 0)
(1.15082 0.00330406 0)
(1.15028 0.0019757 0)
(1.15001 0.000657382 0)
(1.11713 0.0694971 0)
(1.18048 0.068811 0)
(1.21049 0.0641453 0)
(1.22086 0.0601345 0)
(1.22174 0.056077 0)
(1.21872 0.0522571 0)
(1.21437 0.048644 0)
(1.20969 0.0452333 0)
(1.20505 0.0420101 0)
(1.20052 0.0389607 0)
(1.19612 0.0360745 0)
(1.19185 0.0333421 0)
(1.18772 0.0307545 0)
(1.18373 0.0283028 0)
(1.1799 0.0259782 0)
(1.17625 0.0237719 0)
(1.17278 0.0216751 0)
(1.16953 0.0196792 0)
(1.16649 0.0177758 0)
(1.16367 0.0159566 0)
(1.16109 0.0142135 0)
(1.15875 0.0125384 0)
(1.15666 0.0109239 0)
(1.15482 0.0093621 0)
(1.15323 0.0078458 0)
(1.15191 0.00636768 0)
(1.15084 0.00492064 0)
(1.15004 0.00349764 0)
(1.14951 0.00209178 0)
(1.14924 0.000696068 0)
(1.11609 0.0717105 0)
(1.17847 0.0710403 0)
(1.20815 0.066345 0)
(1.21851 0.0622667 0)
(1.21948 0.0581285 0)
(1.21658 0.0542206 0)
(1.21235 0.0505189 0)
(1.20779 0.0470204 0)
(1.20324 0.0437105 0)
(1.19881 0.0405754 0)
(1.1945 0.0376047 0)
(1.19032 0.0347885 0)
(1.18626 0.032118 0)
(1.18235 0.029584 0)
(1.17859 0.0271779 0)
(1.175 0.0248906 0)
(1.1716 0.0227136 0)
(1.1684 0.020638 0)
(1.16541 0.0186555 0)
(1.16264 0.0167577 0)
(1.1601 0.0149366 0)
(1.15779 0.013184 0)
(1.15573 0.0114923 0)
(1.15392 0.00985391 0)
(1.15236 0.00826129 0)
(1.15105 0.00670719 0)
(1.15001 0.00518442 0)
(1.14922 0.00368591 0)
(1.14869 0.00220467 0)
(1.14843 0.000733693 0)
(1.11507 0.0738603 0)
(1.17645 0.0731985 0)
(1.20578 0.0684713 0)
(1.21611 0.0643275 0)
(1.21717 0.0601111 0)
(1.2144 0.0561182 0)
(1.21028 0.0523311 0)
(1.20583 0.048748 0)
(1.20139 0.0453545 0)
(1.19706 0.0421371 0)
(1.19284 0.0390849 0)
(1.18874 0.0361882 0)
(1.18477 0.0334378 0)
(1.18093 0.0308247 0)
(1.17724 0.0283399 0)
(1.17371 0.0259747 0)
(1.17037 0.0237201 0)
(1.16723 0.0215676 0)
(1.16428 0.0195087 0)
(1.16156 0.0175349 0)
(1.15906 0.0156382 0)
(1.1568 0.0138106 0)
(1.15477 0.0120442 0)
(1.15298 0.0103315 0)
(1.15145 0.00866482 0)
(1.15016 0.00703696 0)
(1.14913 0.00544067 0)
(1.14835 0.00386881 0)
(1.14784 0.00231436 0)
(1.14758 0.000770251 0)
(1.11406 0.0759448 0)
(1.17442 0.0752843 0)
(1.20339 0.0705232 0)
(1.21367 0.0663159 0)
(1.21482 0.0620238 0)
(1.21216 0.0579492 0)
(1.20817 0.0540801 0)
(1.20383 0.0504157 0)
(1.19949 0.046942 0)
(1.19526 0.0436455 0)
(1.19113 0.0405151 0)
(1.18712 0.037541 0)
(1.18322 0.0347138 0)
(1.17946 0.0320245 0)
(1.17584 0.0294641 0)
(1.17238 0.0270238 0)
(1.1691 0.0246946 0)
(1.16601 0.0224679 0)
(1.16312 0.0203352 0)
(1.16044 0.0182881 0)
(1.15798 0.0163184 0)
(1.15575 0.0144181 0)
(1.15376 0.0125794 0)
(1.152 0.0107947 0)
(1.15049 0.00905631 0)
(1.14922 0.00735694 0)
(1.14821 0.00568934 0)
(1.14745 0.00404633 0)
(1.14694 0.00242082 0)
(1.14668 0.000805733 0)
(1.11306 0.0779626 0)
(1.17238 0.0772962 0)
(1.20096 0.0724998 0)
(1.2112 0.0682311 0)
(1.21242 0.0638659 0)
(1.20989 0.0597129 0)
(1.20601 0.0557652 0)
(1.20178 0.052023 0)
(1.19755 0.0484725 0)
(1.19341 0.0451001 0)
(1.18938 0.0418948 0)
(1.18545 0.0388465 0)
(1.18164 0.0359457 0)
(1.17795 0.0331834 0)
(1.1744 0.0305504 0)
(1.17101 0.0280378 0)
(1.16779 0.0256368 0)
(1.16475 0.0233387 0)
(1.16191 0.0211349 0)
(1.15928 0.019017 0)
(1.15687 0.0169769 0)
(1.15467 0.0150065 0)
(1.15271 0.0130979 0)
(1.15098 0.0112435 0)
(1.1495 0.00943569 0)
(1.14825 0.00766708 0)
(1.14725 0.00593039 0)
(1.1465 0.00421842 0)
(1.146 0.00252403 0)
(1.14575 0.000840135 0)
(1.11205 0.0799117 0)
(1.17034 0.0792327 0)
(1.19851 0.0743997 0)
(1.20868 0.070072 0)
(1.20999 0.0656367 0)
(1.20756 0.0614088 0)
(1.20381 0.0573861 0)
(1.19969 0.0535695 0)
(1.19557 0.0499456 0)
(1.19152 0.0465009 0)
(1.18758 0.043224 0)
(1.18374 0.0401047 0)
(1.18001 0.0371335 0)
(1.1764 0.0343012 0)
(1.17292 0.0315986 0)
(1.16959 0.0290167 0)
(1.16643 0.0265468 0)
(1.16346 0.02418 0)
(1.16067 0.0219078 0)
(1.15808 0.0197218 0)
(1.15571 0.0176137 0)
(1.15355 0.0155756 0)
(1.15162 0.0135996 0)
(1.14993 0.0116779 0)
(1.14846 0.00980293 0)
(1.14724 0.00796734 0)
(1.14625 0.0061638 0)
(1.14551 0.00438507 0)
(1.14502 0.00262399 0)
(1.14477 0.000873453 0)
(1.11105 0.0817902 0)
(1.16828 0.0810922 0)
(1.19604 0.076222 0)
(1.20613 0.0718376 0)
(1.20751 0.0673354 0)
(1.2052 0.0630362 0)
(1.20156 0.0589421 0)
(1.19756 0.0550548 0)
(1.19354 0.051361 0)
(1.1896 0.0478474 0)
(1.18575 0.0445023 0)
(1.182 0.0413154 0)
(1.17834 0.0382769 0)
(1.17481 0.0353777 0)
(1.1714 0.0326086 0)
(1.16814 0.0299604 0)
(1.16504 0.0274244 0)
(1.16212 0.0249917 0)
(1.15938 0.0226538 0)
(1.15685 0.0204022 0)
(1.15451 0.0182288 0)
(1.1524 0.0161255 0)
(1.1505 0.0140844 0)
(1.14883 0.0120977 0)
(1.14739 0.010158 0)
(1.14619 0.0082577 0)
(1.14522 0.00638953 0)
(1.14449 0.00454626 0)
(1.14401 0.00272068 0)
(1.14376 0.000905682 0)
(1.11004 0.0835961 0)
(1.1662 0.0828731 0)
(1.19354 0.0779655 0)
(1.20355 0.0735271 0)
(1.20499 0.0689611 0)
(1.2028 0.0645945 0)
(1.19928 0.0604328 0)
(1.19539 0.0564785 0)
(1.19148 0.0527185 0)
(1.18763 0.0491394 0)
(1.18388 0.0457296 0)
(1.18021 0.0424783 0)
(1.17664 0.0393759 0)
(1.17318 0.036413 0)
(1.16985 0.0335803 0)
(1.16665 0.0308688 0)
(1.16362 0.0282695 0)
(1.16075 0.0257737 0)
(1.15806 0.0233728 0)
(1.15557 0.0210583 0)
(1.15328 0.0188221 0)
(1.1512 0.016656 0)
(1.14934 0.0145523 0)
(1.1477 0.0125031 0)
(1.14628 0.0105008 0)
(1.1451 0.00853813 0)
(1.14415 0.00660759 0)
(1.14343 0.00470198 0)
(1.14295 0.0028141 0)
(1.14272 0.000936821 0)
(1.10901 0.0853275 0)
(1.16412 0.0845737 0)
(1.19101 0.0796289 0)
(1.20094 0.0751394 0)
(1.20244 0.0705131 0)
(1.20036 0.066083 0)
(1.19696 0.0618576 0)
(1.19318 0.0578402 0)
(1.18938 0.0540177 0)
(1.18563 0.0503768 0)
(1.18197 0.0469057 0)
(1.17839 0.0435935 0)
(1.1749 0.0404304 0)
(1.17152 0.0374069 0)
(1.16826 0.0345137 0)
(1.16513 0.0317418 0)
(1.16215 0.0290822 0)
(1.15934 0.0265261 0)
(1.15671 0.0240648 0)
(1.15426 0.0216901 0)
(1.15202 0.0193936 0)
(1.14997 0.0171673 0)
(1.14814 0.0150033 0)
(1.14653 0.0128939 0)
(1.14514 0.0108315 0)
(1.14398 0.00880863 0)
(1.14304 0.00681795 0)
(1.14234 0.00485223 0)
(1.14187 0.00290424 0)
(1.14163 0.00096687 0)
(1.10797 0.0869822 0)
(1.16201 0.0861924 0)
(1.18846 0.0812111 0)
(1.19829 0.0766736 0)
(1.19986 0.0719907 0)
(1.19788 0.0675013 0)
(1.1946 0.0632163 0)
(1.19094 0.0591396 0)
(1.18724 0.0552584 0)
(1.1836 0.0515594 0)
(1.18003 0.0480305 0)
(1.17654 0.0446608 0)
(1.17313 0.0414403 0)
(1.16982 0.0383594 0)
(1.16663 0.0354089 0)
(1.16357 0.0325795 0)
(1.16066 0.0298624 0)
(1.1579 0.0272488 0)
(1.15532 0.0247299 0)
(1.15292 0.0222975 0)
(1.15072 0.0199433 0)
(1.14871 0.0176593 0)
(1.14692 0.0154375 0)
(1.14533 0.0132702 0)
(1.14397 0.01115 0)
(1.14282 0.00906921 0)
(1.1419 0.00702064 0)
(1.14121 0.00499701 0)
(1.14075 0.00299111 0)
(1.14052 0.000995829 0)
(1.10692 0.0885582 0)
(1.15989 0.0877277 0)
(1.18588 0.0827111 0)
(1.19562 0.0781289 0)
(1.19724 0.0733933 0)
(1.19537 0.0688487 0)
(1.19221 0.0645083 0)
(1.18867 0.0603764 0)
(1.18508 0.0564405 0)
(1.18153 0.0526871 0)
(1.17806 0.049104 0)
(1.17465 0.0456802 0)
(1.17133 0.0424056 0)
(1.1681 0.0392706 0)
(1.16498 0.0362657 0)
(1.16198 0.033382 0)
(1.15913 0.0306103 0)
(1.15643 0.0279419 0)
(1.1539 0.0253681 0)
(1.15155 0.0228807 0)
(1.14939 0.0204713 0)
(1.14742 0.018132 0)
(1.14565 0.0158548 0)
(1.1441 0.0136321 0)
(1.14276 0.0114562 0)
(1.14163 0.00931987 0)
(1.14073 0.00721565 0)
(1.14005 0.00513633 0)
(1.1396 0.00307471 0)
(1.13937 0.0010237 0)
(1.10585 0.0900535 0)
(1.15775 0.0891779 0)
(1.18329 0.0841277 0)
(1.19292 0.0795044 0)
(1.1946 0.0747202 0)
(1.19284 0.0701249 0)
(1.18979 0.0657334 0)
(1.18637 0.0615505 0)
(1.18288 0.0575637 0)
(1.17944 0.0537597 0)
(1.17605 0.0501261 0)
(1.17274 0.0466517 0)
(1.1695 0.0433263 0)
(1.16634 0.0401404 0)
(1.16329 0.0370844 0)
(1.16036 0.0341492 0)
(1.15757 0.0313258 0)
(1.15493 0.0286054 0)
(1.15245 0.0259795 0)
(1.15014 0.0234396 0)
(1.14802 0.0209776 0)
(1.14609 0.0185854 0)
(1.14436 0.0162553 0)
(1.14284 0.0139794 0)
(1.14152 0.0117504 0)
(1.14042 0.00956065 0)
(1.13953 0.007403 0)
(1.13886 0.0052702 0)
(1.13842 0.00315505 0)
(1.13819 0.00105048 0)
(1.10475 0.0914662 0)
(1.15559 0.0905417 0)
(1.18067 0.0854602 0)
(1.1902 0.0807994 0)
(1.19193 0.0759709 0)
(1.19027 0.0713295 0)
(1.18735 0.0668914 0)
(1.18404 0.0626616 0)
(1.18066 0.058628 0)
(1.17731 0.0547773 0)
(1.17402 0.0510968 0)
(1.17079 0.0475753 0)
(1.16763 0.0442026 0)
(1.16456 0.0409689 0)
(1.16158 0.0378649 0)
(1.15872 0.0348812 0)
(1.15598 0.032009 0)
(1.1534 0.0292395 0)
(1.15097 0.026564 0)
(1.14871 0.0239744 0)
(1.14663 0.0214623 0)
(1.14474 0.0190197 0)
(1.14304 0.016639 0)
(1.14154 0.0143124 0)
(1.14025 0.0120324 0)
(1.13917 0.00979159 0)
(1.1383 0.00758273 0)
(1.13764 0.00539864 0)
(1.13721 0.00323214 0)
(1.13699 0.00107618 0)
(1.10364 0.0927943 0)
(1.15342 0.0918177 0)
(1.17804 0.0867075 0)
(1.18745 0.0820133 0)
(1.18923 0.0771449 0)
(1.18768 0.0724623 0)
(1.18488 0.067982 0)
(1.18168 0.0637096 0)
(1.17841 0.0596334 0)
(1.17517 0.0557398 0)
(1.17197 0.0520162 0)
(1.16883 0.0484512 0)
(1.16575 0.0450345 0)
(1.16275 0.0417564 0)
(1.15984 0.0386074 0)
(1.15704 0.0355783 0)
(1.15437 0.0326601 0)
(1.15184 0.0298442 0)
(1.14946 0.027122 0)
(1.14725 0.0244851 0)
(1.14521 0.0219254 0)
(1.14336 0.019435 0)
(1.14169 0.0170061 0)
(1.14022 0.014631 0)
(1.13895 0.0123024 0)
(1.13789 0.0100127 0)
(1.13704 0.00775488 0)
(1.13639 0.00552168 0)
(1.13597 0.003306 0)
(1.13575 0.00110081 0)
(1.1025 0.0940361 0)
(1.15123 0.0930046 0)
(1.17539 0.087869 0)
(1.18469 0.0831455 0)
(1.18651 0.0782421 0)
(1.18507 0.0735229 0)
(1.18238 0.0690051 0)
(1.1793 0.0646946 0)
(1.17614 0.0605799 0)
(1.17299 0.0566474 0)
(1.16989 0.0528844 0)
(1.16683 0.0492794 0)
(1.16384 0.0458222 0)
(1.16091 0.0425029 0)
(1.15807 0.039312 0)
(1.15534 0.0362405 0)
(1.15273 0.0332793 0)
(1.15026 0.0304198 0)
(1.14793 0.0276534 0)
(1.14576 0.0249719 0)
(1.14377 0.0223672 0)
(1.14195 0.0198313 0)
(1.14032 0.0173566 0)
(1.13887 0.0149354 0)
(1.13763 0.0125603 0)
(1.13659 0.0102241 0)
(1.13575 0.00791947 0)
(1.13512 0.00563935 0)
(1.1347 0.00337664 0)
(1.13449 0.00112436 0)
(1.10134 0.0951901 0)
(1.14903 0.0941015 0)
(1.17272 0.088944 0)
(1.18191 0.0841957 0)
(1.18378 0.079262 0)
(1.18244 0.0745112 0)
(1.17987 0.0699607 0)
(1.1769 0.0656166 0)
(1.17384 0.0614677 0)
(1.1708 0.0575002 0)
(1.16779 0.0537015 0)
(1.16482 0.0500602 0)
(1.1619 0.0465659 0)
(1.15905 0.0432086 0)
(1.15629 0.0399791 0)
(1.15362 0.0368681 0)
(1.15107 0.0338667 0)
(1.14865 0.0309664 0)
(1.14637 0.0281585 0)
(1.14425 0.025435 0)
(1.1423 0.0227877 0)
(1.14051 0.0202088 0)
(1.13891 0.0176906 0)
(1.1375 0.0152256 0)
(1.13628 0.0128064 0)
(1.13526 0.0104258 0)
(1.13444 0.00807658 0)
(1.13382 0.00575168 0)
(1.1334 0.00344408 0)
(1.1332 0.00114685 0)
(1.10015 0.0962547 0)
(1.14681 0.0951073 0)
(1.17004 0.0899321 0)
(1.17911 0.0851636 0)
(1.18103 0.0802046 0)
(1.17979 0.0754274 0)
(1.17734 0.0708489 0)
(1.17448 0.0664758 0)
(1.17153 0.0622968 0)
(1.16859 0.0582984 0)
(1.16567 0.0544679 0)
(1.16279 0.0507939 0)
(1.15995 0.0472658 0)
(1.15717 0.0438739 0)
(1.15448 0.0406087 0)
(1.15187 0.0374613 0)
(1.14938 0.0344226 0)
(1.14702 0.0314842 0)
(1.14479 0.0286375 0)
(1.14272 0.0258745 0)
(1.1408 0.0231871 0)
(1.13906 0.0205676 0)
(1.13749 0.0180083 0)
(1.1361 0.0155018 0)
(1.13491 0.0130407 0)
(1.1339 0.0106179 0)
(1.1331 0.00822625 0)
(1.13249 0.00585872 0)
(1.13209 0.00350836 0)
(1.13188 0.00116829 0)
(1.09894 0.0972287 0)
(1.14458 0.0960215 0)
(1.16735 0.0908331 0)
(1.1763 0.086049 0)
(1.17826 0.08107 0)
(1.17713 0.0762715 0)
(1.17479 0.0716699 0)
(1.17205 0.0672723 0)
(1.16921 0.0630676 0)
(1.16636 0.0590424 0)
(1.16353 0.0551839 0)
(1.16073 0.0514807 0)
(1.15798 0.0479223 0)
(1.15528 0.0444989 0)
(1.15265 0.0412013 0)
(1.15011 0.0380203 0)
(1.14768 0.0349472 0)
(1.14537 0.0319734 0)
(1.14319 0.0290906 0)
(1.14116 0.0262907 0)
(1.13929 0.0235657 0)
(1.13758 0.0209079 0)
(1.13604 0.0183098 0)
(1.13468 0.0157641 0)
(1.13351 0.0132633 0)
(1.13253 0.0108005 0)
(1.13174 0.00836855 0)
(1.13114 0.00596052 0)
(1.13074 0.0035695 0)
(1.13054 0.00118868 0)
(1.09771 0.0981112 0)
(1.14234 0.0968436 0)
(1.16465 0.0916467 0)
(1.17349 0.086852 0)
(1.17549 0.0818582 0)
(1.17445 0.0770437 0)
(1.17223 0.072424 0)
(1.1696 0.0680065 0)
(1.16686 0.0637804 0)
(1.16412 0.0597324 0)
(1.16138 0.0558497 0)
(1.15867 0.0521209 0)
(1.15599 0.0485357 0)
(1.15336 0.0450842 0)
(1.1508 0.0417572 0)
(1.14833 0.0385456 0)
(1.14595 0.0354409 0)
(1.14369 0.0324344 0)
(1.14157 0.0295181 0)
(1.13958 0.0266837 0)
(1.13775 0.0239235 0)
(1.13608 0.0212299 0)
(1.13457 0.0185954 0)
(1.13324 0.0160126 0)
(1.13209 0.0134744 0)
(1.13113 0.0109737 0)
(1.13035 0.00850357 0)
(1.12977 0.00605713 0)
(1.12938 0.00362754 0)
(1.12918 0.00120804 0)
(1.09645 0.0989012 0)
(1.14008 0.0975732 0)
(1.16195 0.0923731 0)
(1.17067 0.0875729 0)
(1.17271 0.0825697 0)
(1.17177 0.0777444 0)
(1.16966 0.0731116 0)
(1.16714 0.0686789 0)
(1.16451 0.0644357 0)
(1.16186 0.060369 0)
(1.15921 0.0564659 0)
(1.15658 0.0527152 0)
(1.15399 0.0491064 0)
(1.15143 0.04563 0)
(1.14894 0.0422766 0)
(1.14653 0.0390375 0)
(1.14421 0.0359039 0)
(1.14201 0.0328675 0)
(1.13993 0.0299201 0)
(1.13799 0.0270538 0)
(1.13619 0.0242609 0)
(1.13455 0.0215338 0)
(1.13308 0.018865 0)
(1.13178 0.0162475 0)
(1.13065 0.013674 0)
(1.12971 0.0111376 0)
(1.12895 0.00863138 0)
(1.12837 0.00614861 0)
(1.12799 0.0036825 0)
(1.1278 0.00122638 0)
(1.09517 0.0995984 0)
(1.13783 0.0982104 0)
(1.15924 0.0930126 0)
(1.16784 0.0882119 0)
(1.16992 0.0832049 0)
(1.16909 0.0783742 0)
(1.16709 0.0737332 0)
(1.16468 0.0692899 0)
(1.16215 0.0650341 0)
(1.15959 0.0609526 0)
(1.15704 0.057033 0)
(1.15449 0.0532639 0)
(1.15197 0.049635 0)
(1.14949 0.0461368 0)
(1.14706 0.0427602 0)
(1.14471 0.0394963 0)
(1.14245 0.0363367 0)
(1.1403 0.033273 0)
(1.13827 0.0302972 0)
(1.13637 0.0274014 0)
(1.13462 0.0245781 0)
(1.13301 0.0218197 0)
(1.13157 0.0191191 0)
(1.1303 0.0164689 0)
(1.12919 0.0138623 0)
(1.12827 0.0112922 0)
(1.12752 0.00875207 0)
(1.12696 0.00623503 0)
(1.12659 0.00373444 0)
(1.1264 0.0012437 0)
(1.09387 0.100202 0)
(1.13556 0.0987554 0)
(1.15654 0.0935657 0)
(1.16502 0.0887697 0)
(1.16714 0.0837644 0)
(1.1664 0.0789336 0)
(1.16451 0.0742894 0)
(1.16221 0.0698402 0)
(1.15978 0.065576 0)
(1.15732 0.0614839 0)
(1.15485 0.0575515 0)
(1.15239 0.0537675 0)
(1.14994 0.0501219 0)
(1.14753 0.0466051 0)
(1.14517 0.0432082 0)
(1.14288 0.0399225 0)
(1.14068 0.0367396 0)
(1.13858 0.0336512 0)
(1.1366 0.0306495 0)
(1.13474 0.0277267 0)
(1.13302 0.0248754 0)
(1.13146 0.0220881 0)
(1.13004 0.0193577 0)
(1.1288 0.0166771 0)
(1.12772 0.0140394 0)
(1.12681 0.0114379 0)
(1.12608 0.00886575 0)
(1.12553 0.00631645 0)
(1.12516 0.00378338 0)
(1.12498 0.00126003 0)
(1.09256 0.100714 0)
(1.1333 0.0992087 0)
(1.15384 0.094033 0)
(1.1622 0.0892471 0)
(1.16436 0.084249 0)
(1.16371 0.0794235 0)
(1.16193 0.0747811 0)
(1.15974 0.0703306 0)
(1.15741 0.0660623 0)
(1.15504 0.0619636 0)
(1.15266 0.0580221 0)
(1.15028 0.0542268 0)
(1.14791 0.0505678 0)
(1.14556 0.0470356 0)
(1.14327 0.0436214 0)
(1.14104 0.0403166 0)
(1.13889 0.0371131 0)
(1.13684 0.0340026 0)
(1.13491 0.0309775 0)
(1.1331 0.0280301 0)
(1.13142 0.0251531 0)
(1.12988 0.0223391 0)
(1.1285 0.0195811 0)
(1.12728 0.0168722 0)
(1.12622 0.0142056 0)
(1.12533 0.0115746 0)
(1.12462 0.00897252 0)
(1.12408 0.00639296 0)
(1.12372 0.00382938 0)
(1.12354 0.00127538 0)
(1.09123 0.101132 0)
(1.13103 0.0995712 0)
(1.15114 0.0944155 0)
(1.15939 0.089645 0)
(1.16158 0.0846597 0)
(1.16102 0.0798448 0)
(1.15935 0.0752091 0)
(1.15726 0.0707618 0)
(1.15503 0.0664938 0)
(1.15276 0.0623924 0)
(1.15046 0.0584456 0)
(1.14816 0.0546424 0)
(1.14586 0.0509732 0)
(1.14359 0.0474287 0)
(1.14136 0.0440001 0)
(1.13919 0.0406792 0)
(1.1371 0.0374576 0)
(1.1351 0.0343277 0)
(1.13321 0.0312816 0)
(1.13144 0.028312 0)
(1.1298 0.0254115 0)
(1.1283 0.022573 0)
(1.12694 0.0197896 0)
(1.12575 0.0170545 0)
(1.12471 0.014361 0)
(1.12384 0.0117025 0)
(1.12314 0.0090725 0)
(1.12261 0.00646463 0)
(1.12226 0.00387248 0)
(1.12208 0.00128977 0)
(1.08988 0.101458 0)
(1.12877 0.0998437 0)
(1.14845 0.0947144 0)
(1.15659 0.0899645 0)
(1.15881 0.0849976 0)
(1.15834 0.0801985 0)
(1.15677 0.0755744 0)
(1.15479 0.071135 0)
(1.15266 0.0668713 0)
(1.15047 0.0627712 0)
(1.14826 0.0588227 0)
(1.14604 0.0550151 0)
(1.14381 0.0513389 0)
(1.14161 0.0477851 0)
(1.13944 0.0443451 0)
(1.13733 0.0410106 0)
(1.13529 0.0377738 0)
(1.13334 0.0346268 0)
(1.1315 0.0315622 0)
(1.12976 0.0285726 0)
(1.12816 0.0256509 0)
(1.12669 0.0227901 0)
(1.12537 0.0199834 0)
(1.1242 0.0172242 0)
(1.12318 0.0145058 0)
(1.12233 0.0118218 0)
(1.12164 0.0091658 0)
(1.12113 0.00653155 0)
(1.12078 0.00391274 0)
(1.12061 0.00130321 0)
(1.08852 0.101693 0)
(1.12651 0.100028 0)
(1.14578 0.094931 0)
(1.1538 0.090207 0)
(1.15605 0.0852639 0)
(1.15567 0.0804859 0)
(1.15421 0.0758782 0)
(1.15232 0.0714511 0)
(1.15029 0.067196 0)
(1.14819 0.0631009 0)
(1.14606 0.0591543 0)
(1.14391 0.0553457 0)
(1.14176 0.0516658 0)
(1.13962 0.0481056 0)
(1.13752 0.044657 0)
(1.13546 0.0413117 0)
(1.13348 0.0380621 0)
(1.13157 0.0349006 0)
(1.12977 0.0318197 0)
(1.12808 0.0288125 0)
(1.12652 0.0258718 0)
(1.12508 0.0229908 0)
(1.12379 0.0201629 0)
(1.12264 0.0173815 0)
(1.12164 0.0146402 0)
(1.12081 0.0119326 0)
(1.12014 0.00925256 0)
(1.11963 0.00659381 0)
(1.11929 0.00395021 0)
(1.11912 0.00131572 0)
(1.08716 0.101838 0)
(1.12426 0.100125 0)
(1.14312 0.0950669 0)
(1.15103 0.0903739 0)
(1.15331 0.0854603 0)
(1.15301 0.0807083 0)
(1.15165 0.0761217 0)
(1.14986 0.0717113 0)
(1.14792 0.0674688 0)
(1.14591 0.0633826 0)
(1.14386 0.0594414 0)
(1.14179 0.0556351 0)
(1.13971 0.0519545 0)
(1.13763 0.048391 0)
(1.13559 0.0449364 0)
(1.13359 0.041583 0)
(1.13165 0.0383232 0)
(1.1298 0.0351495 0)
(1.12804 0.0320547 0)
(1.12639 0.029032 0)
(1.12486 0.0260745 0)
(1.12345 0.0231754 0)
(1.12219 0.0203283 0)
(1.12107 0.0175267 0)
(1.12009 0.0147644 0)
(1.11927 0.0120352 0)
(1.11862 0.00933291 0)
(1.11812 0.00665151 0)
(1.11779 0.00398496 0)
(1.11762 0.00132732 0)
(1.08578 0.101895 0)
(1.12202 0.100137 0)
(1.14048 0.0951239 0)
(1.14828 0.0904672 0)
(1.15058 0.0855881 0)
(1.15037 0.0808673 0)
(1.1491 0.0763064 0)
(1.14741 0.071917 0)
(1.14556 0.067691 0)
(1.14364 0.0636174 0)
(1.14167 0.059685 0)
(1.13966 0.0558842 0)
(1.13765 0.0522059 0)
(1.13564 0.0486419 0)
(1.13365 0.0451842 0)
(1.13171 0.0418252 0)
(1.12982 0.0385576 0)
(1.12802 0.0353741 0)
(1.1263 0.0322677 0)
(1.12469 0.0292317 0)
(1.12319 0.0262594 0)
(1.12182 0.0233442 0)
(1.12058 0.0204799 0)
(1.11948 0.0176601 0)
(1.11853 0.0148787 0)
(1.11773 0.0121297 0)
(1.11708 0.009407 0)
(1.1166 0.00670474 0)
(1.11627 0.00401703 0)
(1.11611 0.00133803 0)
(1.08441 0.101864 0)
(1.1198 0.100065 0)
(1.13786 0.0951041 0)
(1.14555 0.0904885 0)
(1.14788 0.0856494 0)
(1.14774 0.0809645 0)
(1.14657 0.0764338 0)
(1.14498 0.0720695 0)
(1.14321 0.0678639 0)
(1.14137 0.0638064 0)
(1.13947 0.0598863 0)
(1.13754 0.0560941 0)
(1.1356 0.0524211 0)
(1.13365 0.0488593 0)
(1.13172 0.0454011 0)
(1.12983 0.0420391 0)
(1.12799 0.038766 0)
(1.12623 0.035575 0)
(1.12456 0.0324592 0)
(1.12298 0.029412 0)
(1.12152 0.026427 0)
(1.12018 0.0234977 0)
(1.11896 0.0206181 0)
(1.11789 0.017782 0)
(1.11696 0.0149833 0)
(1.11617 0.0122163 0)
(1.11554 0.00947496 0)
(1.11506 0.00675362 0)
(1.11474 0.00404649 0)
(1.11458 0.00134787 0)
(1.08303 0.10175 0)
(1.1176 0.0999134 0)
(1.13527 0.0950097 0)
(1.14284 0.0904401 0)
(1.1452 0.0856459 0)
(1.14514 0.0810016 0)
(1.14405 0.0765055 0)
(1.14255 0.0721703 0)
(1.14088 0.0679889 0)
(1.13911 0.063951 0)
(1.13729 0.0600463 0)
(1.13543 0.0562658 0)
(1.13355 0.052601 0)
(1.13166 0.0490442 0)
(1.12978 0.045588 0)
(1.12794 0.0422253 0)
(1.12616 0.0389491 0)
(1.12444 0.0357528 0)
(1.12281 0.0326297 0)
(1.12127 0.0295734 0)
(1.11984 0.0265776 0)
(1.11852 0.0236363 0)
(1.11734 0.0207432 0)
(1.11628 0.0178925 0)
(1.11537 0.0150784 0)
(1.1146 0.0122952 0)
(1.11398 0.00953697 0)
(1.11352 0.00679826 0)
(1.1132 0.00407341 0)
(1.11305 0.00135687 0)
(1.08166 0.101552 0)
(1.11541 0.0996835 0)
(1.1327 0.094843 0)
(1.14016 0.0903241 0)
(1.14254 0.0855797 0)
(1.14256 0.0809805 0)
(1.14156 0.0765231 0)
(1.14014 0.072221 0)
(1.13855 0.0680674 0)
(1.13686 0.0640525 0)
(1.13511 0.0601664 0)
(1.13332 0.0564004 0)
(1.1315 0.0527465 0)
(1.12967 0.0491973 0)
(1.12785 0.0457457 0)
(1.12606 0.0423847 0)
(1.12432 0.0391077 0)
(1.12265 0.0359082 0)
(1.12105 0.0327799 0)
(1.11955 0.0297165 0)
(1.11815 0.0267119 0)
(1.11687 0.0237602 0)
(1.1157 0.0208556 0)
(1.11467 0.0179922 0)
(1.11378 0.0151644 0)
(1.11303 0.0123665 0)
(1.11242 0.00959317 0)
(1.11196 0.00683877 0)
(1.11165 0.00409786 0)
(1.1115 0.00136504 0)
(1.08029 0.101276 0)
(1.11325 0.0993783 0)
(1.13017 0.0946067 0)
(1.13752 0.0901429 0)
(1.13991 0.0854531 0)
(1.14 0.0809033 0)
(1.13908 0.0764887 0)
(1.13775 0.0722233 0)
(1.13624 0.068101 0)
(1.13463 0.0641122 0)