/*--------------------------------*- C++ -*----------------------------------*\
  =========                 |
  \\      /  F ield         | OpenFOAM: The Open Source CFD Toolbox
   \\    /   O peration     | Website:  https://openfoam.org
    \\  /    A nd           | Version:  7
     \\/     M anipulation  |
\*---------------------------------------------------------------------------*/
FoamFile
{
    version     2.0;
    format      ascii;
    class       surfaceScalarField;
    location    "70";
    object      phi;
}
// * * * * * * * * * * * * * * * * * * * * * * * * * * * * * * * * * * * * * //

dimensions      [0 3 -1 0 0 0 0];

internalField   nonuniform List<scalar> 
6855
(
-7.48224e-05
-3.87888e-07
-7.89934e-07
-0.000609258
-6.44198e-08
-0.00149084
-9.14843e-08
-8.9851e-08
-0.000609258
0.000609194
-0.00149084
0.000881492
-0.00240483
0.0009139
-0.0033337
0.000928781
-0.00429354
0.000959762
-0.00529415
0.00100053
-0.00634532
0.0010511
-0.00745403
0.00110864
-0.00862638
0.00117228
0.00124429
-0.00987073
-0.000599963
0.00120916
-0.00147309
0.00175462
-0.00238018
0.00182099
-0.00330244
0.00185104
-0.00425571
0.00191303
-0.00524976
0.00199458
-0.00629443
0.00209577
-0.00739688
0.00221109
-0.00856333
0.00233874
0.00248294
-0.00980198
-0.000581463
0.00179062
-0.00143771
0.00261087
-0.00233094
0.00271421
-0.00323999
0.00276009
-0.00418012
0.00285315
-0.00516102
0.00297549
-0.00619259
0.00312734
-0.00728238
0.00330088
-0.00843666
0.00349301
0.00370913
-0.00966285
-0.000554043
0.00234466
-0.00138494
0.00344177
-0.00225726
0.00358653
-0.00314658
0.00364942
-0.00406711
0.00377369
-0.00502836
0.00393674
-0.0060401
0.00413908
-0.00711046
0.00437124
-0.00824586
0.00462841
0.00491543
-0.00945216
-0.000518724
0.00286339
-0.00131506
0.0042381
-0.00215915
0.00443062
-0.0030222
0.00451247
-0.00391662
0.0046681
-0.00485159
0.00487171
-0.00583674
0.00512423
-0.00688104
0.00541554
-0.00799099
0.00573836
0.00609434
-0.00916991
-0.000477621
0.00334101
-0.00122809
0.00498857
-0.00203697
0.0052395
-0.00286779
0.00534329
-0.00373038
0.00553069
-0.00463332
0.00577466
-0.0055855
0.00607642
-0.00659651
0.00642655
-0.00767364
0.00681549
0.00723793
-0.00881723
-0.000424879
0.00376589
-0.00112273
0.00568642
-0.00189048
0.00600725
-0.00268293
0.00613573
-0.003507
0.00635476
-0.00437057
0.00663823
-0.00528157
0.00698741
-0.006251
0.00739599
-0.00729052
0.007855
0.00834258
-0.00839517
-0.000362005
0.00412789
-0.000999321
0.00632373
-0.00172004
0.00672798
-0.00246891
0.0068846
-0.00324976
0.00713561
-0.00407052
0.00745899
-0.00493769
0.00785459
-0.00586029
0.00831859
-0.00685305
0.00884777
0.0093991
-0.00790957
-0.000289983
0.00441788
-0.000858567
0.00689232
-0.00152609
0.0073955
-0.00222602
0.00758453
-0.00295769
0.00786728
-0.00372809
0.00822939
-0.00454087
0.00866737
-0.00539996
0.00917768
-0.00632498
0.00977279
0.0104267
-0.00735255
-0.000209118
0.00462699
-0.000701176
0.00738437
-0.0013092
0.00800353
-0.00195526
0.00823058
-0.00263302
0.00854505
-0.00334926
0.00894563
-0.00410918
0.00942729
-0.00491557
0.00998406
-0.00576937
0.0106266
0.0114259
-0.0067686
-0.000118924
0.00474592
-0.000528327
0.00779378
-0.0010702
0.00854539
-0.00165783
0.00881822
-0.00227745
0.00916467
-0.00293415
0.00960233
-0.00363274
0.0101259
-0.00437599
0.0107273
-0.00516782
0.0114184
0.0121991
-0.005941
-1.2807e-05
0.00475872
-0.000341292
0.00812226
-0.000809345
0.00901345
-0.00133492
0.00934379
-0.0018924
0.00972215
-0.00248487
0.0101948
-0.00311666
0.0107577
-0.00378925
0.0113999
-0.00449786
0.012127
0.0129518
-0.00525064
7.33003e-05
0.00468542
-0.000139244
0.00833481
-0.000528785
0.00940299
-0.000988233
0.00980324
-0.0014799
0.0102138
-0.00200502
0.0107199
-0.00256764
0.0113203
-0.0031721
0.0120044
-0.00382003
0.012775
0.0136364
-0.00450459
0.000166876
0.00451855
7.56333e-05
0.00842605
-0.000232974
0.0097116
-0.000619433
0.0101897
-0.00104192
0.0106363
-0.00149741
0.0111754
-0.00198835
0.0118112
-0.00252037
0.0125364
-0.00309236
0.0133469
0.014245
-0.00370099
0.000262134
0.00425641
0.000287065
0.00840112
7.81433e-05
0.00992052
-0.000231289
0.0104991
-0.000580981
0.010986
-0.000963959
0.0115584
-0.00137928
0.0122265
-0.00183364
0.0129908
-0.0023256
0.0138389
0.0147705
-0.00285104
0.000353569
0.00390284
0.000507997
0.00824669
0.000409709
0.0100188
0.000178372
0.0107305
-0.000101367
0.0112657
-0.000406994
0.011864
-0.000743332
0.0125629
-0.00111467
0.0133621
-0.00152398
0.0142482
0.0152088
-0.00196228
0.000435663
0.00346718
0.000727932
0.00795442
0.000747181
0.00999956
0.000608648
0.010869
0.000407385
0.011467
0.000173304
0.0120981
-8.70257e-05
0.0128232
-0.000369533
0.0136446
-0.000687799
0.0145665
0.0155599
-0.00103896
0.00050134
0.00296584
0.000937733
0.00751803
0.00108775
0.00984953
0.00104899
0.0109078
0.000930845
0.0115851
0.000778442
0.0122505
0.000601998
0.0129996
0.000400732
0.0138459
0.0001784
0.0147888
0.0158316
-9.32903e-05
0.000542571
0.00242327
0.00112714
0.00693346
0.00142322
0.00955346
0.00149611
0.0108349
0.00146611
0.0116151
0.00139596
0.0123207
0.00130373
0.0130919
0.00119191
0.0139577
0.00105756
0.0149232
0.0159761
0.000913141
0.000552497
0.00187077
0.00128376
0.0062022
0.00174135
0.00909587
0.00194204
0.0106342
0.00200918
0.011548
0.00202415
0.0123057
0.00201704
0.013099
0.00199548
0.0139792
0.00196014
0.0149585
0.0160175
0.00191871
0.000528346
0.00134243
0.00139365
0.00533689
0.00202634
0.00846318
0.0023748
0.0102857
0.0025532
0.0113696
0.00265898
0.0121999
0.00273847
0.0130195
0.00280733
0.0139104
0.00286797
0.0148979
0.0159641
0.00292137
0.00047272
0.000869707
0.00144191
0.00436771
0.00225718
0.0076479
0.00277845
0.00976445
0.00308803
0.01106
0.00329421
0.0119937
0.00346302
0.0128507
0.00362167
0.0137517
0.00377601
0.0147435
0.0158138
0.0039263
0.000393042
0.000476666
0.00140566
0.00335509
0.0024074
0.00664616
0.00312946
0.00904239
0.00359756
0.0105919
0.00392046
0.0116708
0.0041843
0.0125869
0.00443389
0.0135021
0.00468299
0.0144944
0.0155663
0.00493052
0.000301599
0.000175066
0.00128016
0.00237653
0.00244885
0.00547747
0.00339445
0.00809679
0.00405595
0.00993042
0.00452225
0.0112045
0.0048945
0.0122146
0.00523752
0.0131591
0.00558261
0.0141493
0.0152189
0.00592997
0.0002137
-3.86343e-05
0.00108243
0.0015078
0.0023545
0.0042054
0.00352943
0.00692185
0.00442422
0.00903564
0.00507372
0.010555
0.0055786
0.0117097
0.00602645
0.0127113
0.00646729
0.0137085
0.0147784
0.00690784
0.000141159
-0.000179793
0.000845673
0.000803281
0.00210951
0.00294157
0.00348304
0.00554832
0.0046448
0.00787388
0.00553078
0.00966905
0.00621162
0.0110289
0.00678271
0.0121402
0.00733313
0.0131581
0.0142424
0.0078691
8.66099e-05
-0.000266403
0.000610757
0.000279133
0.00173712
0.00181521
0.00321149
0.00407394
0.00464163
0.00644374
0.00582056
0.00849012
0.00674242
0.010107
0.00748542
0.0113972
0.00815248
0.012491
0.0135959
0.00879894
4.76761e-05
-0.000314079
0.000411225
-8.44154e-05
0.0013097
0.00091673
0.0027203
0.00266335
0.00433345
0.00483058
0.00583621
0.00698736
0.00708018
0.00886307
0.00806809
0.0104093
0.00892328
0.0116358
0.01286
0.00965921
2.15943e-05
-0.000335673
0.000260415
-0.000323236
0.000911816
0.000265329
0.00209882
0.00147635
0.00370623
0.00322318
0.00544658
0.00524702
0.00707578
0.00723387
0.0084147
0.00907034
0.00953997
0.0105105
0.0118884
0.0105116
6.08259e-06
-0.000341756
0.000155486
-0.000472639
0.000595488
-0.000174674
0.00148401
0.000587828
0.00287362
0.00183356
0.00463215
0.00348849
0.00652542
0.0053406
0.00831865
0.00727712
0.00985427
0.00897492
0.0107466
0.010996
-2.11024e-06
-0.000339646
8.67217e-05
-0.000561471
0.000368859
-0.000456811
0.000976201
-1.95137e-05
0.00202801
0.000781758
0.00356095
0.00195554
0.00543142
0.00347013
0.00747847
0.00523007
0.00958847
0.00686492
0.00910323
0.0112319
-6.53188e-06
-0.000333114
4.16425e-05
-0.000609646
0.00021296
-0.000628129
0.000600666
-0.000407219
0.0013196
6.28264e-05
0.00247839
0.000796749
0.00405783
0.00189069
0.00602094
0.00326695
0.00837945
0.0045064
0.00698303
0.0104997
-9.66869e-06
-0.000323445
8.04939e-06
-0.000627364
9.99527e-05
-0.000720032
0.000330501
-0.000637767
0.000783633
-0.000390306
0.00155354
2.68421e-05
0.00273227
0.000711958
0.00431473
0.0016845
0.00638997
0.00243116
0.00461161
0.00876139
-1.46065e-05
-0.000308839
-2.50028e-05
-0.000616967
5.48579e-06
-0.000750521
0.000121172
-0.000753453
0.00037791
-0.000647043
0.000837952
-0.0004332
0.0016192
-6.92856e-05
0.00273106
0.000572633
0.00426086
0.000901364
0.00247289
0.00639958
-2.30603e-05
-0.000285778
-6.1749e-05
-0.000578279
-8.5047e-05
-0.000727223
-6.02968e-05
-0.000778204
5.2176e-05
-0.000759516
0.000283817
-0.000664841
0.000728948
-0.000514417
0.00143212
-0.000130537
0.00239164
-5.81536e-05
0.000944719
0.0039198
-3.44947e-05
-0.000251283
-0.000102526
-0.000510248
-0.00017554
-0.000654208
-0.000227565
-0.000726179
-0.000235059
-0.000752022
-0.00016759
-0.000732309
3.0249e-05
-0.000712256
0.000374524
-0.000474812
0.000868797
-0.000552427
7.44258e-05
0.00173909
-4.74488e-05
-0.000203835
-0.00014426
-0.000413437
-0.000262466
-0.000536002
-0.000380811
-0.000607835
-0.000482498
-0.000650335
-0.00054284
-0.000671967
-0.000565402
-0.000689693
-0.000456183
-0.000584031
-0.000322848
-0.000685762
-0.00028935
4.09277e-05
-5.98411e-05
-0.000143994
-0.000181982
-0.000291295
-0.000338029
-0.000379955
-0.000509621
-0.000436243
-0.000684154
-0.000475803
-0.00084957
-0.000506551
-0.00100974
-0.000529525
-0.00109239
-0.000501383
-0.0012157
-0.000562449
-0.000377763
-0.00112729
-6.95387e-05
-7.44548e-05
-0.000210553
-0.000150281
-0.000393903
-0.000196605
-0.000602953
-0.000227193
-0.000828462
-0.000250294
-0.00106499
-0.000270026
-0.00130977
-0.000284736
-0.00152752
-0.000283643
-0.00178018
-0.000309788
-0.000246977
-0.00191096
-7.48427e-05
-0.000225913
-0.000423546
-0.000651939
-0.000903601
-0.00117517
-0.00146159
-0.00174696
-0.00205833
-0.00230644
-0.0100945
0.000223709
-0.0102662
0.000171691
-0.0104168
0.000150557
-0.010535
0.000118194
-0.0106363
0.00010123
-0.0107162
7.98554e-05
-0.010783
6.67534e-05
-0.0108351
5.2082e-05
-0.0108772
4.20584e-05
-0.0109088
3.16414e-05
-0.0109328
2.39364e-05
-0.0109491
1.62994e-05
-0.0109595
1.03171e-05
-0.0109641
4.65445e-06
-0.0109645
2.98082e-07
-0.01096
-4.51394e-06
-0.0109515
-8.48308e-06
-0.0109394
-1.2111e-05
-0.0109241
-1.52739e-05
-0.0109059
-1.81998e-05
-0.0108852
-2.08075e-05
-0.0108619
-2.32344e-05
-0.0108365
-2.54403e-05
-0.010809
-2.75108e-05
-0.0107796
-2.9429e-05
-0.0107483
-3.12479e-05
-0.0107154
-3.29649e-05
-0.0106808
-3.46247e-05
-0.0106445
-3.62522e-05
-3.78992e-05
-0.0100285
0.000450226
-0.0102022
0.000345343
-0.0103546
0.000303032
-0.0104745
0.000238073
-0.0105776
0.000204321
-0.0106593
0.000161596
-0.0107281
0.000135565
-0.0107823
0.00010628
-0.0108266
8.63455e-05
-0.0108605
6.55509e-05
-0.0108868
5.02033e-05
-0.0109055
3.49537e-05
-0.0109182
2.3025e-05
-0.0109252
1.16764e-05
-0.0109276
2.73232e-06
-0.0109257
-6.48512e-06
-0.0109197
-1.44273e-05
-0.0109101
-2.1738e-05
-0.0108973
-2.80611e-05
-0.0108816
-3.39308e-05
-0.0108632
-3.9144e-05
-0.0108425
-4.40059e-05
-0.0108195
-4.842e-05
-0.0107944
-5.25679e-05
-0.0107674
-5.64088e-05
-0.0107386
-6.00535e-05
-0.0107081
-6.3494e-05
-0.0106759
-6.68215e-05
-0.0106421
-7.00825e-05
-7.33795e-05
-0.00989442
0.000681796
-0.010072
0.000522879
-0.0102285
0.000459582
-0.0103521
0.000361669
-0.0104592
0.00031145
-0.010545
0.000247366
-0.0106181
0.000208672
-0.0106767
0.000164834
-0.0107255
0.00013516
-0.010764
0.000104035
-0.0107949
8.11445e-05
-0.0108183
5.83166e-05
-0.0108357
4.04864e-05
-0.0108474
2.33737e-05
-0.0108543
9.63322e-06
-0.0108574
-3.39434e-06
-0.0108564
-1.5456e-05
-0.0108517
-2.64694e-05
-0.0108438
-3.59361e-05
-0.010833
-4.47562e-05
-0.0108195
-5.25771e-05
-0.0108036
-5.98835e-05
-0.0107856
-6.65131e-05
-0.0107654
-7.27482e-05
-0.0107433
-7.85199e-05
-0.0107193
-8.40015e-05
-0.0106936
-8.91767e-05
-0.0106663
-9.41845e-05
-0.0106373
-9.90882e-05
-0.000104038
-0.00969056
0.000920195
-0.00987389
0.000706208
-0.0100369
0.000622628
-0.0101667
0.000491389
-0.0102804
0.000425176
-0.0103727
0.000339651
-0.0104526
0.000288596
-0.010518
0.000230211
-0.0105738
0.000190979
-0.0106193
0.000149547
-0.0106574
0.000119216
-0.0106879
8.8826e-05
-0.0107125
6.51432e-05
-0.0107314
4.22435e-05
-0.0107454
2.36446e-05
-0.0107552
6.42651e-06
-0.0107617
-8.9619e-06
-0.0107644
-2.37823e-05
-0.0107639
-3.64508e-05
-0.0107604
-4.8251e-05
-0.0107543
-5.86906e-05
-0.0107457
-6.84552e-05
-0.0107349
-7.73128e-05
-0.010722
-8.56487e-05
-0.0107072
-9.33667e-05
-0.0106905
-0.000100703
-0.010672
-0.000107629
-0.0106519
-0.000114336
-0.0106301
-0.000120896
-0.000127502
-0.00941672
0.001167
-0.00960776
0.000897251
-0.00977982
0.000794686
-0.00991817
0.000629742
-0.0100411
0.000548142
-0.0101425
0.000441039
-0.0102319
0.000377935
-0.0103066
0.00030497
-0.010372
0.000256341
-0.010427
0.000204598
-0.0104747
0.000166904
-0.0105148
0.000128945
-0.0105491
9.94477e-05
-0.0105777
7.07942e-05
-0.0106015
4.74344e-05
-0.0106204
2.53047e-05
-0.0106363
7.00626e-06
-0.0106489
-1.12011e-05
-0.0106581
-2.72444e-05
-0.0106644
-4.1992e-05
-0.010668
-5.51137e-05
-0.0106691
-6.73489e-05
-0.0106679
-7.84472e-05
-0.0106647
-8.89169e-05
-0.0106594
-9.86015e-05
-0.0106523
-0.000107811
-0.0106434
-0.000116513
-0.0106328
-0.000124945
-0.0106205
-0.000133178
-0.000141444
-0.00907383
0.0014236
-0.00927432
0.00109774
-0.00945766
0.000978027
-0.0096071
0.000779181
-0.00974198
0.000683017
-0.00985517
0.000554233
-0.00995661
0.000479379
-0.0100434
0.000391763
-0.0101209
0.000333831
-0.010188
0.000271734
-0.0102478
0.000226704
-0.0103
0.000181145
-0.0103464
0.00014583
-0.010387
0.000111412
-0.010423
8.33781e-05
-0.0104543
5.66347e-05
-0.0104813
3.40053e-05
-0.0105054
1.29338e-05
-0.0105272
-5.44333e-06
-0.0105455
-2.37822e-05
-0.010561
-3.95375e-05
-0.0105742
-5.42156e-05
-0.010585
-6.76225e-05
-0.0105936
-8.02693e-05
-0.0106003
-9.19188e-05
-0.0106051
-0.000103037
-0.010608
-0.00011356
-0.0106092
-0.000123746
-0.0106088
-0.000133668
-0.000143594
-0.00866391
0.00169235
-0.00887566
0.00130949
-0.0090729
0.00117527
-0.00923599
0.000942273
-0.00938517
0.000832199
-0.00951268
0.000681739
-0.0096286
0.000595297
-0.00972992
0.000493083
-0.00982195
0.000425861
-0.00990363
0.000353417
-0.00997794
0.000301017
-0.0100446
0.000247833
-0.0101055
0.000206661
-0.0101605
0.000166445
-0.0102108
0.000133721
-0.0102567
0.000102449
-0.0102986
7.59601e-05
-0.0103366
5.09385e-05
-0.0103712
2.91919e-05
-0.0104041
9.09588e-06
-0.0104343
-9.32072e-06
-0.0104615
-2.70111e-05
-0.0104866
-4.26125e-05
-0.0105095
-5.73724e-05
-0.0105303
-7.11172e-05
-0.0105491
-8.41982e-05
-0.0105661
-9.65761e-05
-0.0105813
-0.000108541
-0.0105948
-0.00012018
-0.000131762
-0.00819013
0.00197291
-0.00841465
0.00153401
-0.00862644
0.00138705
-0.00880509
0.00112092
-0.00897079
0.000997893
-0.00911542
0.00082637
-0.00924862
0.000728499
-0.00936727
0.000611731
-0.00947653
0.000535121
-0.00957533
0.000452221
-0.00966664
0.000392328
-0.00975021
0.0003314
-0.00982782
0.000284274
-0.00989954
0.000238161
-0.00996649
0.000200676
-0.0100289
0.000164821
-0.0100874
0.000134509
-0.0101423
0.000105821
-0.0101939
8.08218e-05
-0.0102422
5.73556e-05
-0.0102879
3.64005e-05
-0.0103316
1.66643e-05
-0.0103737
-5.03286e-07
-0.0104127
-1.83855e-05
-0.0104496
-3.42272e-05
-0.0104846
-4.9128e-05
-0.0105178
-6.33783e-05
-0.0105491
-7.72408e-05
-0.0105787
-9.0634e-05
-0.000103846
-0.00765369
0.00227406
-0.00789483
0.00177514
-0.00812442
0.00161665
-0.00832297
0.00131947
-0.00850689
0.00118181
-0.0086708
0.000990284
-0.00882254
0.000880243
-0.00896029
0.000749479
-0.00908838
0.000663204
-0.0092062
0.000570044
-0.0093164
0.000502524
-0.00941888
0.000433881
-0.00951532
0.000380713
-0.00960582
0.000328669
-0.0096915
0.000286348
-0.00977252
0.000245841
-0.00984964
0.000211632
-0.00992309
0.000179274
-0.00999338
0.000151113
-0.0100606
0.000124557
-0.010125
0.000100814
-0.0101869
7.85271e-05
-0.0102457
5.83832e-05
-0.0103033
3.91287e-05
-0.0103588
2.12631e-05
-0.0104123
4.45891e-06
-0.0104637
-1.20369e-05
-0.010513
-2.79153e-05
-0.0105606
-4.30277e-05
-5.7856e-05
-0.00708179
0.00258725
-0.00733192
0.00202527
-0.00757236
0.00185709
-0.00778581
0.00153293
-0.00798873
0.00138473
-0.00817309
0.00117464
-0.00834759
0.00105474
-0.00850738
0.000909274
-0.00865812
0.000813937
-0.0087978
0.00070973
-0.00892992
0.000634638
-0.00905375
0.00055771
-0.00917145
0.000498414
-0.00928285
0.000440075
-0.00938933
0.000392822
-0.00949092
0.000347437
-0.00958853
0.000309239
-0.00968229
0.000273034
-0.00977279
0.000241612
-0.00986019
0.000211959
-0.00994492
0.000185547
-0.0100271
0.000160667
-0.0101067
0.000137985
-0.010184
0.00011645
-0.0102593
9.6569e-05
-0.0103324
7.75904e-05
-0.0104038
5.9342e-05
-0.0104732
4.15225e-05
-0.0105407
2.44358e-05
8.04244e-06
-0.0126689
0.00237777
0.0128784
-0.0125755
0.00193189
-0.0125694
0.00185102
-0.0125676
0.0015311
-0.0125995
0.00141664
-0.0126246
0.0011997
-0.0126647
0.00109489
-0.0126998
0.00094435
-0.0127407
0.000854819
-0.0127773
0.00074635
-0.0128152
0.000672555
-0.0128495
0.000591967
-0.012883
0.000531911
-0.0129133
0.000470389
-0.012942
0.000421506
-0.0129679
0.000373337
-0.0129919
0.000333228
-0.0130134
0.000294583
-0.013033
0.000261228
-0.0130505
0.000229443
-0.0130662
0.00020123
-0.01308
0.000174428
-0.013092
0.000150006
-0.0131023
0.000126767
-0.013111
0.000105239
-0.0131179
8.45349e-05
-0.0131234
6.48134e-05
-0.0131275
4.56179e-05
-0.0131302
2.71464e-05
8.98677e-06
-0.012888
0.00221422
0.0130515
-0.0128254
0.00186931
-0.0127564
0.00178205
-0.0127397
0.0015144
-0.0127345
0.00141147
-0.0127466
0.00121179
-0.0127648
0.00111301
-0.0127878
0.000967368
-0.012814
0.000881058
-0.0128408
0.000773128
-0.0128686
0.000700318
-0.0128952
0.000618608
-0.0129214
0.00055815
-0.012946
0.000494918
-0.0129694
0.000444905
-0.0129909
0.000394882
-0.013011
0.000353325
-0.0130293
0.000312863
-0.013046
0.00027797
-0.0130611
0.000244485
-0.0130746
0.000214752
-0.0130865
0.000186363
-0.013097
0.000160511
-0.0131061
0.000135806
-0.0131137
0.000112833
-0.0131198
9.06884e-05
-0.0131246
6.96338e-05
-0.0131282
4.91557e-05
-0.0131304
2.93515e-05
9.73881e-06
-0.013071
0.0020689
0.0132163
-0.0129985
0.00179684
-0.0129237
0.00170723
-0.0128925
0.00148316
-0.0128659
0.00138492
-0.0128628
0.0012087
-0.0128638
0.00111397
-0.0128748
0.000978405
-0.0128881
0.000894305
-0.0129053
0.000790328
-0.0129233
0.000718358
-0.0129424
0.000637716
-0.0129614
0.000577132
-0.0129801
0.000513606
-0.012998
0.000462874
-0.0130151
0.000411941
-0.0130311
0.00036935
-0.013046
0.000327726
-0.0130597
0.000291665
-0.0130721
0.000256943
-0.0130834
0.000226
-0.0130934
0.000196378
-0.0131022
0.000169343
-0.0131099
0.00014344
-0.0131163
0.000119279
-0.0131216
9.59585e-05
-0.0131257
7.3765e-05
-0.0131287
5.21446e-05
-0.0131305
3.1169e-05
1.03465e-05
-0.0132252
0.00193981
0.0133543
-0.0131411
0.00171269
-0.0130656
0.00163174
-0.0130224
0.00143995
-0.0129854
0.00134791
-0.0129689
0.00119218
-0.0129572
0.00110234
-0.0129569
0.000978081
-0.0129594
0.000896764
-0.0129674
0.000798382
-0.0129768
0.000727744
-0.0129886
0.000649566
-0.0130009
0.000589353
-0.0130139
0.0005266
-0.0130266
0.000475629
-0.0130393
0.000424575
-0.0130513
0.000381383
-0.0130627
0.000339182
-0.0130734
0.000302324
-0.0130833
0.000266807
-0.0130922
0.00023497
-0.0131003
0.000204457
-0.0131075
0.000176493
-0.0131137
0.00014966
-0.013119
0.000124555
-0.0131233
0.0001003
-0.0131267
7.71702e-05
-0.0131292
5.45991e-05
-0.0131306
3.26486e-05
1.08392e-05
-0.0133509
0.00182111
0.0134696
-0.0132627
0.00162442
-0.013186
0.00155509
-0.0131339
0.00138779
-0.0130902
0.00130429
-0.0130634
0.00116537
-0.0130427
0.00108156
-0.0130325
0.000967917
-0.0130262
0.000890444
-0.0130259
0.000798124
-0.0130278
0.000729638
-0.0130329
0.000654651
-0.013039
0.000595467
-0.0130466
0.000534192
-0.0130545
0.000483522
-0.0130629
0.000432948
-0.0130711
0.000389606
-0.0130792
0.000347318
-0.0130869
0.000310037
-0.0130942
0.000274116
-0.013101
0.000241702
-0.0131071
0.000210615
-0.0131126
0.000181986
-0.0131175
0.000154486
-0.0131216
0.000128671
-0.013125
0.000103709
-0.0131277
7.98459e-05
-0.0131296
5.65297e-05
-0.0131307
3.38104e-05
1.12272e-05
-0.0134536
0.001709
0.0135657
-0.0133654
0.00153626
-0.0132879
0.00147756
-0.0132301
0.00132997
-0.0131814
0.0012556
-0.013147
0.00113094
-0.0131192
0.00105385
-0.0131011
0.000949808
-0.0130876
0.000876947
-0.0130802
0.000790674
-0.0130756
0.000725075
-0.0130746
0.000653645
-0.0130753
0.000596116
-0.0130779
0.000536786
-0.0130813
0.000486943
-0.0130856
0.000437302
-0.0130903
0.000394246
-0.0130952
0.000352271
-0.0131001
0.000314933
-0.013105
0.000278951
-0.0131095
0.000246265
-0.0131138
0.000214895
-0.0131177
0.000185862
-0.0131211
0.000157946
-0.0131241
0.00013165
-0.0131266
0.0001062
-0.0131286
8.18074e-05
-0.01313
5.79508e-05
-0.0131308
3.4666e-05
1.15141e-05
-0.013538
0.00160198
0.0136451
-0.0134514
0.00144966
-0.0133738
0.0013999
-0.0133128
0.00126896
-0.0132603
0.00120311
-0.0132203
0.00109098
-0.0131872
0.00102069
-0.0131628
0.000925466
-0.0131435
0.000857564
-0.01313
0.00077719
-0.0131199
0.000714966
-0.0131135
0.000647292
-0.0131093
0.000591911
-0.0131074
0.000534853
-0.0131067
0.000486285
-0.0131073
0.000437932
-0.0131086
0.000395551
-0.0131106
0.000354225
-0.0131128
0.000317164
-0.0131153
0.000281422
-0.0131178
0.000248752
-0.0131203
0.000217364
-0.0131226
0.000188177
-0.0131247
0.000160082
-0.0131266
0.000133526
-0.0131282
0.000107797
-0.0131295
8.30776e-05
-0.0131304
5.88795e-05
-0.0131309
3.52264e-05
1.1703e-05
-0.0136078
0.00149965
0.0137101
-0.0135232
0.00136509
-0.013446
0.00132274
-0.0133834
0.00120632
-0.0133283
0.00114803
-0.0132844
0.00104711
-0.013247
0.000983302
-0.0132178
0.000896263
-0.0131936
0.000833369
-0.0131752
0.000758728
-0.0131604
0.000700131
-0.0131494
0.000636323
-0.0131409
0.000583429
-0.0131349
0.000528884
-0.0131306
0.000481941
-0.0131278
0.000435159
-0.013126
0.000393784
-0.0131252
0.000353389
-0.013125
0.000316902
-0.0131252
0.000281664
-0.0131257
0.000249273
-0.0131265
0.000218107
-0.0131273
0.000189002
-0.0131281
0.000160945
-0.013129
0.000134341
-0.0131297
0.000108535
-0.0131303
8.36838e-05
-0.0131308
5.93358e-05
-0.013131
3.5504e-05
1.17978e-05
-0.0136651
0.0014018
0.013763
-0.0135829
0.00128281
-0.0135067
0.0012466
-0.0134434
0.001143
-0.0133867
0.00109132
-0.0133401
0.00100052
-0.0132995
0.000942698
-0.0132665
0.000863294
-0.0132384
0.000805278
-0.0132159
0.000736187
-0.0131971
0.000681305
-0.0131822
0.000621413
-0.0131699
0.000571216
-0.0131604
0.000519359
-0.0131528
0.000474299
-0.0131469
0.000429316
-0.0131424
0.000389212
-0.013139
0.000349989
-0.0131364
0.000314328
-0.0131346
0.000279828
-0.0131332
0.00024795
-0.0131323
0.000217225
-0.0131318
0.000188416
-0.0131314
0.000160601
-0.0131312
0.000134147
-0.0131311
0.000108453
-0.0131311
8.36573e-05
-0.0131311
5.93417e-05
-0.0131311
3.55121e-05
1.18029e-05
-0.0137121
0.00130828
0.0138056
-0.0136323
0.00120296
-0.0135575
0.00117186
-0.0134942
0.00107963
-0.0134366
0.00103374
-0.0133881
0.000952082
-0.0133452
0.000899736
-0.0133093
0.000827436
-0.0132781
0.000774076
-0.0132523
0.000710326
-0.0132301
0.000659146
-0.0132118
0.000603164
-0.0131964
0.000555781
-0.0131838
0.000506727
-0.0131732
0.000463735
-0.0131646
0.000420727
-0.0131575
0.000382104
-0.0131518
0.000344252
-0.0131471
0.000309633
-0.0131433
0.000276072
-0.0131403
0.000244914
-0.0131379
0.000214825
-0.013136
0.000186507
-0.0131345
0.000159121
-0.0131334
0.000133002
-0.0131325
0.000107597
-0.0131319
8.30323e-05
-0.0131315
5.89214e-05
-0.0131312
3.52653e-05
1.17229e-05
-0.0137503
0.00121889
0.0138397
-0.0136729
0.0011256
-0.0135999
0.00109878
-0.0135369
0.00101665
-0.013479
0.000975846
-0.0134294
0.000902466
-0.0133847
0.000855104
-0.0133467
0.000789393
-0.0133131
0.00074043
-0.0132845
0.00068178
-0.0132596
0.000634229
-0.0132385
0.000582106
-0.0132203
0.000537587
-0.013205
0.000491403
-0.0131919
0.000450604
-0.0131809
0.000409702
-0.0131715
0.000372725
-0.0131636
0.000336406
-0.013157
0.000303007
-0.0131515
0.00027056
-0.0131469
0.0002403
-0.0131431
0.000211023
-0.0131399
0.000183371
-0.0131374
0.000156583
-0.0131354
0.000130966
-0.0131338
0.000106017
-0.0131326
8.18461e-05
-0.0131318
5.8101e-05
-0.0131313
3.47789e-05
1.1563e-05
-0.013781
0.00113339
0.0138665
-0.0137062
0.00105075
-0.0136349
0.00102751
-0.0135727
0.000954392
-0.0135149
0.000918056
-0.0134646
0.00085217
-0.0134188
0.000809344
-0.0133792
0.000749726
-0.0133436
0.000704895
-0.0133129
0.000651086
-0.0132858
0.000607054
-0.0132623
0.000558702
-0.0132418
0.000517052
-0.0132242
0.000473763
-0.0132088
0.000435236
-0.0131956
0.000396534
-0.0131842
0.000361326
-0.0131745
0.000326672
-0.0131661
0.000294637
-0.013159
0.000263451
-0.013153
0.000234245
-0.0131479
0.000205932
-0.0131436
0.000179102
-0.0131401
0.000153067
-0.0131372
0.000128106
-0.013135
0.000103762
-0.0131333
8.01375e-05
-0.0131321
5.69078e-05
-0.0131314
3.40691e-05
1.13286e-05
-0.0138056
0.00105156
0.0138874
-0.0137332
0.000978347
-0.0136638
0.00095815
-0.0136025
0.000893061
-0.0135451
0.000860676
-0.0134945
0.000801573
-0.013448
0.00076288
-0.0134072
0.000708887
-0.0133702
0.000667926
-0.0133378
0.000618691
-0.0133088
0.000578048
-0.0132835
0.000533353
-0.013261
0.000494545
-0.0132413
0.000454142
-0.013224
0.000417935
-0.013209
0.000381492
-0.0131958
0.000348146
-0.0131844
0.000315256
-0.0131745
0.000284705
-0.0131659
0.000254903
-0.0131586
0.000226884
-0.0131523
0.000199668
-0.013147
0.000173798
-0.0131426
0.000148651
-0.013139
0.000124485
-0.0131361
0.000100886
-0.0131339
7.79461e-05
-0.0131324
5.53697e-05
-0.0131314
3.31525e-05
1.10253e-05
-0.0138249
0.00097316
0.0139033
-0.0137548
0.000908311
-0.0136874
0.000890705
-0.0136271
0.000832797
-0.0135704
0.00080392
-0.0135197
0.000750962
-0.0134729
0.000716041
-0.0134313
0.000667236
-0.0133932
0.000629895
-0.0133595
0.000584969
-0.013329
0.000547574
-0.0133021
0.000506405
-0.0132779
0.000470391
-0.0132566
0.000432841
-0.0132377
0.000398972
-0.013221
0.000364823
-0.0132063
0.000333405
-0.0131934
0.000302356
-0.013182
0.000273385
-0.0131722
0.000245068
-0.0131637
0.000218346
-0.0131563
0.000192343
-0.0131501
0.000167553
-0.0131449
0.000143418
-0.0131405
0.000120171
-0.0131371
9.74417e-05
-0.0131345
7.53118e-05
-0.0131326
5.35149e-05
-0.0131315
3.20457e-05
1.06586e-05
-0.0138398
0.000897935
0.013915
-0.013772
0.000840536
-0.0137065
0.000825152
-0.0136473
0.000773681
-0.0135914
0.000747935
-0.0135409
0.000700551
-0.013494
0.00066908
-0.0134518
0.000625058
-0.013413
0.000591102
-0.0133783
0.000550226
-0.0133466
0.000515938
-0.0133184
0.000478155
-0.0132929
0.000444872
-0.0132701
0.000410124
-0.0132498
0.000378594
-0.0132317
0.000346751
-0.0132156
0.000317305
-0.0132014
0.000288153
-0.0131888
0.000260836
-0.0131779
0.000234086
-0.0131683
0.000208756
-0.01316
0.000184065
-0.0131529
0.000160459
-0.0131469
0.000137443
-0.013142
0.000115227
-0.013138
9.34792e-05
-0.013135
7.22739e-05
-0.0131328
5.13711e-05
-0.0131316
3.07655e-05
1.02339e-05
-0.0138511
0.000825646
0.0139234
-0.0137855
0.000774901
-0.0137217
0.000761435
-0.0136638
0.000715748
-0.0136087
0.000692808
-0.0135586
0.000650492
-0.0135117
0.000622184
-0.0134692
0.000582576
-0.0134299
0.000551788
-0.0133944
0.000514717
-0.0133619
0.000483393
-0.0133326
0.000448853
-0.0133059
0.00041823
-0.013282
0.000386221
-0.0132605
0.000357016
-0.0132412
0.000327476
-0.0132239
0.00030003
-0.0132086
0.000272813
-0.0131949
0.000247208
-0.0131829
0.000222092
-0.0131724
0.000198232
-0.0131633
0.000174935
-0.0131554
0.000152606
-0.0131488
0.000130802
-0.0131433
0.000109716
-0.0131389
8.90491e-05
-0.0131355
6.88708e-05
-0.013133
4.89654e-05
-0.0131316
2.93279e-05
9.75672e-06
-0.0138594
0.000756051
0.013929
-0.0137958
0.000711267
-0.0137338
0.000699471
-0.0136771
0.000659
-0.0136229
0.000638589
-0.0135733
0.000600889
-0.0135266
0.000575492
-0.013484
0.000539964
-0.0134443
0.000512144
-0.0134083
0.000478647
-0.013375
0.00045015
-0.0133449
0.000418712
-0.0133173
0.000390673
-0.0132924
0.000361334
-0.0132698
0.000334428
-0.0132495
0.000307175
-0.0132313
0.000281746
-0.0132149
0.000256487
-0.0132004
0.00023264
-0.0131875
0.000209209
-0.0131761
0.000186884
-0.0131662
0.000165051
-0.0131577
0.000144076
-0.0131505
0.000123566
-0.0131445
0.000103695
-0.0131396
8.41991e-05
-0.0131359
6.51392e-05
-0.0131332
4.6324e-05
-0.0131317
2.77486e-05
9.23221e-06
-0.0138654
0.000688917
0.0139325
-0.0138036
0.000649495
-0.0137433
0.000639163
-0.0136877
0.000603409
-0.0136344
0.000585291
-0.0135853
0.000551811
-0.0135389
0.000529101
-0.0134963
0.000497351
-0.0134565
0.000472316
-0.01342
0.000442181
-0.0133863
0.000416382
-0.0133555
0.00038791
-0.0133272
0.000362376
-0.0133015
0.000335635
-0.013278
0.000310995
-0.0132569
0.000286007
-0.0132377
0.000262598
-0.0132205
0.000239312
-0.0132052
0.000217254
-0.0131915
0.000195549
-0.0131794
0.000174811
-0.0131689
0.000154502
-0.0131597
0.000134947
-0.013152
0.000115802
-0.0131455
9.72223e-05
-0.0131403
7.89746e-05
-0.0131363
6.11144e-05
-0.0131334
4.34717e-05
-0.0131317
2.60424e-05
8.66533e-06
-0.0138694
0.000624017
0.0139343
-0.0138093
0.000589435
-0.0137505
0.000580399
-0.0136961
0.000548931
-0.0136437
0.000532903
-0.0135952
0.000503292
-0.0135491
0.000483075
-0.0135066
0.000454833
-0.0134667
0.00043242
-0.01343
0.000405451
-0.0133958
0.000382229
-0.0133645
0.000356594
-0.0133356
0.000333487
-0.0133093
0.000309271
-0.0132851
0.000286861
-0.0132632
0.000264109
-0.0132434
0.000242717
-0.0132255
0.00022141
-0.0132094
0.000201165
-0.013195
0.000181216
-0.0131823
0.000162108
-0.0131712
0.00014337
-0.0131615
0.000125292
-0.0131533
0.000107573
-0.0131464
9.03494e-05
-0.0131409
7.34185e-05
-0.0131366
5.68293e-05
-0.0131336
4.04321e-05
-0.0131317
2.42236e-05
8.06079e-06
-0.0138718
0.000561129
0.0139347
-0.0138133
0.000530941
-0.013756
0.00052306
-0.0137026
0.000495504
-0.0136511
0.000481393
-0.0136031
0.000455346
-0.0135575
0.000437449
-0.0135151
0.000412476
-0.0134753
0.000392538
-0.0134384
0.00036856
-0.0134039
0.000347801
-0.0133722
0.000324883
-0.0133429
0.000304131
-0.013316
0.000282368
-0.0132913
0.000262149
-0.0132687
0.000241601
-0.0132482
0.000222218
-0.0132297
0.000202889
-0.013213