/*--------------------------------*- C++ -*----------------------------------*\
  =========                 |
  \\      /  F ield         | OpenFOAM: The Open Source CFD Toolbox
   \\    /   O peration     | Website:  https://openfoam.org
    \\  /    A nd           | Version:  7
     \\/     M anipulation  |
\*---------------------------------------------------------------------------*/
FoamFile
{
    version     2.0;
    format      ascii;
    class       volVectorField;
    location    "54.999";
    object      U;
}
// * * * * * * * * * * * * * * * * * * * * * * * * * * * * * * * * * * * * * //

dimensions      [0 1 -1 0 0 0 0];

internalField   nonuniform List<vector> 
45600
(
(-0.00142487 0.00125558 3.92275e-21)
(-0.00776157 0.0028316 -1.41956e-20)
(-0.0189966 0.00377472 -1.17246e-21)
(-0.0318735 0.00429842 -2.18076e-21)
(-0.0454389 0.00453438 -1.2685e-20)
(-0.0590248 0.00458054 -1.21778e-20)
(-0.0721943 0.00450656 -2.2661e-21)
(-0.0847132 0.00435931 4.8584e-21)
(-0.0964629 0.00416842 2.05204e-21)
(-0.107389 0.00395095 2.97048e-21)
(-0.117471 0.00371533 7.65176e-21)
(-0.1267 0.0034649 1.06163e-20)
(-0.13507 0.00320103 -9.43296e-22)
(-0.142578 0.00292606 -5.06258e-21)
(-0.149226 0.00264614 1.88344e-20)
(-0.15504 0.00237412 1.6921e-21)
(-0.160089 0.00213138 -7.74765e-21)
(-0.164487 0.00194474 -7.99247e-21)
(-0.168404 0.00184538 8.0187e-22)
(-0.172234 0.00188873 2.07258e-21)
(-0.00159278 0.00370833 -3.036e-20)
(-0.00807092 0.00836098 -2.682e-20)
(-0.0192814 0.0111411 1.04714e-20)
(-0.0320456 0.0126795 -1.11465e-20)
(-0.0454373 0.0133656 -8.92526e-21)
(-0.0588057 0.0134888 -2.55749e-20)
(-0.0717247 0.0132549 1.46101e-20)
(-0.083966 0.0128023 -1.23746e-20)
(-0.0954137 0.0122188 3.81566e-21)
(-0.106015 0.011555 -2.09487e-20)
(-0.115749 0.0108362 -1.61961e-20)
(-0.124606 0.0100725 -7.56461e-21)
(-0.132581 0.00926799 -2.84829e-20)
(-0.139664 0.00842921 2.26453e-20)
(-0.145853 0.00757386 -2.11036e-20)
(-0.151162 0.0067395 -2.15763e-20)
(-0.155647 0.00599037 -2.42661e-21)
(-0.159407 0.00541033 2.06548e-20)
(-0.162569 0.00509776 -4.51069e-21)
(-0.165543 0.00522573 -2.52271e-20)
(-0.00192198 0.00607911 3.97121e-20)
(-0.00867937 0.0137258 -1.03431e-20)
(-0.0198434 0.0183077 -4.70116e-20)
(-0.0323861 0.0208487 2.16022e-20)
(-0.0454344 0.0219852 2.11931e-20)
(-0.0583713 0.0221915 9.65356e-21)
(-0.0707919 0.0218065 -1.39302e-20)
(-0.0824791 0.0210586 4.83016e-21)
(-0.0933229 0.0200933 4.41276e-20)
(-0.103273 0.018995 4.25611e-20)
(-0.112308 0.0178059 3.52551e-21)
(-0.120419 0.0165426 -1.97279e-21)
(-0.127595 0.0152104 6.26765e-21)
(-0.133825 0.0138173 -1.43463e-20)
(-0.139091 0.0123876 -6.28317e-21)
(-0.143387 0.0109778 -2.56563e-20)
(-0.146744 0.00969066 3.86422e-20)
(-0.149235 0.008673 -2.42308e-20)
(-0.1509 0.00810019 1.14766e-20)
(-0.152129 0.00827222 4.36338e-20)
(-0.00240055 0.00831772 2.02095e-20)
(-0.00956828 0.0188237 1.21113e-20)
(-0.0206679 0.0251481 8.22282e-20)
(-0.0328869 0.0286701 1.95431e-20)
(-0.0454282 0.0302552 4.65213e-20)
(-0.0577243 0.0305534 1.65528e-20)
(-0.0694013 0.0300304 -4.58528e-20)
(-0.0802587 0.0290026 -2.82227e-20)
(-0.0901947 0.0276723 -8.82609e-22)
(-0.0991619 0.026158 -3.82195e-20)
(-0.10714 0.0245193 8.40909e-21)
(-0.114118 0.0227791 -1.53964e-21)
(-0.120082 0.0209422 2.99525e-20)
(-0.12501 0.0190137 -9.0815e-21)
(-0.128874 0.0170177 8.39743e-20)
(-0.131639 0.0150189 7.35966e-20)
(-0.133298 0.0131491 3.6823e-20)
(-0.133893 0.0116231 -1.07395e-20)
(-0.133347 0.0107099 -2.83951e-20)
(-0.131863 0.010829 -2.41767e-20)
(-0.0030117 0.0103801 -4.97155e-20)
(-0.0107112 0.0235621 4.7449e-20)
(-0.0217338 0.0315452 4.10659e-20)
(-0.0335356 0.0360144 7.91092e-21)
(-0.0454149 0.0380425 -8.91643e-20)
(-0.0568675 0.038441 -2.66285e-20)
(-0.0675594 0.0377955 -6.80203e-21)
(-0.0773118 0.0365065 2.31494e-20)
(-0.086033 0.0348324 2.16242e-20)
(-0.0936793 0.032926 -2.92052e-20)
(-0.10023 0.0308651 -7.47483e-20)
(-0.10567 0.028679 1.19091e-19)
(-0.109982 0.026371 -4.99154e-20)
(-0.113136 0.0239394 -1.25931e-20)
(-0.115087 0.0213995 -6.2135e-20)
(-0.115774 0.0188107 -4.06756e-20)
(-0.115141 0.0163147 -1.12069e-19)
(-0.1132 0.0141906 2.28471e-20)
(-0.10979 0.0128317 -9.82441e-21)
(-0.104463 0.0126999 -6.68831e-20)
(-0.00373502 0.0122301 5.64337e-20)
(-0.0120753 0.0278617 -1.9462e-20)
(-0.0230145 0.0373943 -1.27477e-19)
(-0.0343156 0.0427625 -6.93226e-20)
(-0.0453879 0.0452201 6.54153e-20)
(-0.0558018 0.0457242 4.39284e-20)
(-0.0652712 0.0449712 -4.06359e-20)
(-0.0736432 0.043441 -3.87666e-20)
(-0.0808378 0.0414465 -2.33648e-20)
(-0.0868144 0.0391748 9.10355e-20)
(-0.0915496 0.0367233 -8.18097e-21)
(-0.0950235 0.034129 -6.09609e-20)
(-0.0972099 0.0313939 5.05351e-20)
(-0.0980697 0.028507 8.07111e-20)
(-0.0975453 0.0254681 -2.32274e-20)
(-0.0955511 0.0223159 9.60661e-20)
(-0.0919715 0.0191733 3.73741e-20)
(-0.0867829 0.0163552 -1.78652e-20)
(-0.0799671 0.0144539 5.11132e-20)
(-0.0694317 0.0137885 3.46932e-20)
(-0.00454792 0.0138414 -1.03539e-19)
(-0.0136235 0.031659 7.11525e-20)
(-0.0244785 0.0426059 1.23492e-20)
(-0.0352058 0.0488073 3.01002e-20)
(-0.045336 0.0516695 2.75514e-20)
(-0.0545233 0.0522779 -4.68048e-20)
(-0.062536 0.0514287 7.79078e-20)
(-0.0692502 0.0496757 1.89993e-21)
(-0.0745987 0.0473836 -2.19852e-20)
(-0.0785418 0.0447742 -1.39986e-20)
(-0.0810505 0.0419654 2.35948e-20)
(-0.0820945 0.0390045 5.59829e-20)
(-0.0816352 0.0358943 2.3134e-20)
(-0.0796196 0.0326154 -5.69517e-20)
(-0.0759758 0.0291489 2.46434e-20)
(-0.0706045 0.0255025 -6.82821e-20)
(-0.0633319 0.0217513 -5.79988e-20)
(-0.0539912 0.0181779 1.95207e-20)
(-0.0432885 0.0156045 3.79055e-20)
(-0.0261162 0.0143921 -5.83598e-20)
(-0.00542728 0.0151976 -2.61629e-20)
(-0.0153163 0.0349079 2.409e-21)
(-0.0260904 0.0471081 -2.08899e-20)
(-0.0361794 0.0540562 -4.74189e-21)
(-0.0452409 0.0572835 6.36617e-20)
(-0.053019 0.0579844 8.54182e-20)
(-0.0593412 0.0570436 6.29619e-20)
(-0.0641149 0.0550817 1.14665e-19)
(-0.0672847 0.0525123 2.91561e-20)
(-0.0688092 0.0495908 -4.67092e-20)
(-0.0686479 0.0464575 4.21384e-20)
(-0.0667535 0.0431723 -7.90732e-20)
(-0.0630665 0.039743 -1.22114e-19)
(-0.057512 0.0361469 1.21465e-19)
(-0.0499964 0.0323496 -6.34427e-20)
(-0.0404136 0.0283283 9.79626e-20)
(-0.0285781 0.0241131 7.75781e-20)
(-0.0139698 0.0199201 8.72833e-20)
(0.00154402 0.0161953 -1.75552e-19)
(0.0264434 0.0148391 -2.09425e-21)
(-0.00635107 0.0162933 1.15658e-19)
(-0.0171138 0.037581 -3.26983e-20)
(-0.0278115 0.050848 -1.35121e-19)
(-0.0372026 0.0584337 1.43038e-20)
(-0.0450731 0.0619679 -9.99933e-22)
(-0.0512604 0.0627362 4.15391e-20)
(-0.0556534 0.0616987 -5.66676e-20)
(-0.0581914 0.0595356 -5.99303e-20)
(-0.0588288 0.0567048 -1.43763e-20)
(-0.0575172 0.0534942 5.50714e-20)
(-0.0541975 0.0500671 -1.31872e-19)
(-0.0487949 0.0464992 6.44067e-20)
(-0.0412178 0.0428083 7.80383e-20)
(-0.0313571 0.0389754 1.38048e-19)
(-0.0190835 0.0349617 3.62945e-20)
(-0.00425941 0.0307243 4.75514e-20)
(0.0132555 0.0262717 1.28113e-21)
(0.0342453 0.0216327 -3.55339e-20)
(0.0557417 0.0169056 1.81318e-19)
(0.0906546 0.0151896 -5.05536e-20)
(-0.00729979 0.0171331 6.60514e-20)
(-0.0189772 0.0396689 4.57407e-20)
(-0.029599 0.0537921 3.81734e-20)
(-0.038232 0.0618824 4.67718e-20)
(-0.0447869 0.0656452 -6.67704e-20)
(-0.0491947 0.0664398 2.9193e-20)
(-0.0514059 0.0652896 1.45677e-19)
(-0.0513899 0.0629255 -1.95907e-19)
(-0.0491059 0.0598451 -6.20925e-20)
(-0.0444916 0.0563666 -1.35898e-19)
(-0.0374589 0.0526767 1.86576e-19)
(-0.0278936 0.0488693 -1.75367e-19)
(-0.0156575 0.044977 2.23866e-20)
(-0.000592699 0.040993 -2.02841e-20)
(0.0174765 0.0368855 -2.54809e-19)
(0.038756 0.0326102 -7.68844e-20)
(0.0632074 0.0281633 -1.18275e-19)
(0.0924577 0.0234038 6.55394e-21)
(0.120457 0.0184043 -9.21744e-20)
(0.168792 0.0160036 1.35095e-19)
(-0.00825763 0.0177309 -1.04975e-19)
(-0.02087 0.0411791 6.25207e-20)
(-0.0314059 0.0559268 -1.18743e-19)
(-0.0392104 0.0643649 8.62726e-20)
(-0.0443125 0.0682567 -6.77721e-20)
(-0.0467337 0.0690202 -4.40135e-20)
(-0.0464829 0.0677298 -2.63851e-19)
(-0.0435538 0.0651588 1.78238e-19)
(-0.0379035 0.0618392 1.40377e-19)
(-0.0294448 0.0581169 -1.7623e-20)
(-0.0180484 0.0542018 2.47459e-20)
(-0.00354657 0.0502089 8.50971e-20)
(0.0142598 0.0461901 -1.37413e-19)
(0.0355899 0.0421575 -5.42112e-20)
(0.0606666 0.0380975 8.37576e-20)
(0.0898264 0.0339908 1.74266e-19)
(0.122526 0.0298098 1.27715e-20)
(0.162357 0.0255117 -1.10926e-19)
(0.197163 0.0205933 1.03118e-19)
(0.262789 0.0184301 -1.00593e-19)
(-0.0092131 0.0181078 1.01162e-19)
(-0.0227575 0.0421339 4.30701e-20)
(-0.0331781 0.0572568 9.3691e-20)
(-0.0400622 0.0658645 -1.0538e-19)
(-0.0435479 0.0697662 -1.61816e-19)
(-0.0437403 0.0704262 -1.22794e-19)
(-0.0406993 0.0689592 4.63788e-20)
(-0.0344339 0.066173 9.75361e-20)
(-0.0248864 0.0626287 -1.84472e-19)
(-0.0119315 0.0586983 8.24116e-20)
(0.00461661 0.0546155 6.19979e-21)
(0.0249924 0.050519 -9.44639e-20)
(0.0494657 0.0464847 -2.04931e-19)
(0.0783212 0.0425504 1.64115e-19)
(0.111795 0.0387243 1.11009e-19)
(0.150462 0.035061 -1.9158e-19)
(0.192683 0.0313547 1.65906e-19)
(0.245569 0.0283213 -2.06382e-21)
(0.287065 0.0235703 -1.977e-19)
(0.373624 0.0232766 -5.62233e-20)
(-0.0101591 0.0182899 -7.96058e-20)
(-0.0246065 0.0425668 1.00884e-19)
(-0.0348515 0.0578034 3.37182e-20)
(-0.0406866 0.0663851 3.23491e-21)
(-0.0423475 0.0701622 2.677e-19)
(-0.0400121 0.0706358 1.78959e-19)
(-0.0337788 0.0689523 -9.08044e-20)
(-0.0236572 0.0659475 -7.50073e-20)
(-0.00955847 0.062208 1.23323e-19)
(0.00869823 0.058131 1.62387e-19)
(0.0313694 0.0539764 -1.00095e-19)
(0.0587647 0.0499102 3.25033e-19)
(0.09122 0.0460379 1.16164e-19)
(0.12907 0.04243 -2.24841e-19)
(0.172472 0.0391023 2.39636e-20)
(0.222349 0.0362946 4.69557e-20)
(0.275217 0.0332078 -1.02491e-20)
(0.343154 0.0324134 1.38192e-19)
(0.390907 0.0277304 1.07613e-19)
(0.500168 0.0310057 1.03608e-19)
(-0.0110922 0.0183059 6.46136e-20)
(-0.0263823 0.0425189 -2.30828e-19)
(-0.0363473 0.0576014 -3.03115e-19)
(-0.0409503 0.0659515 6.83775e-20)
(-0.0405108 0.0694611 -1.65156e-19)
(-0.0352646 0.0696625 -2.74507e-20)
(-0.0253304 0.0677283 1.35884e-19)
(-0.0106981 0.064518 -2.17913e-20)
(0.00877273 0.0606426 1.72693e-19)
(0.0333352 0.0565259 -9.93094e-20)
(0.0633247 0.0524577 8.01858e-20)
(0.0991171 0.0486372 -3.059e-19)
(0.141079 0.0452033 -8.91655e-20)
(0.189536 0.0422668 -9.22028e-20)
(0.24441 0.0398063 1.50563e-19)
(0.306935 0.038419 -7.70622e-21)
(0.371322 0.0361555 -1.26547e-19)
(0.454701 0.0384742 -1.06793e-19)
(0.508365 0.0339036 -9.64079e-20)
(0.638085 0.0418043 -4.66499e-20)
(-0.0120111 0.018184 2.01155e-19)
(-0.0280456 0.042034 3.45791e-20)
(-0.0375663 0.0566965 6.82885e-20)
(-0.0406789 0.0646095 -2.54843e-20)
(-0.0377702 0.0677094 2.24748e-20)
(-0.029115 0.0675609 -1.05292e-19)
(-0.0148277 0.0653608 1.21443e-19)
(0.00514559 0.0619912 -1.72962e-19)
(0.0310171 0.058089 2.05932e-19)
(0.0631214 0.0541087 -3.81012e-21)
(0.10186 0.0503759 -2.43462e-19)
(0.147631 0.0471262 6.71107e-20)
(0.20074 0.0445309 1.54776e-19)
(0.261357 0.042742 1.1037e-19)
(0.32898 0.0416378 -1.95869e-19)
(0.404759 0.0422605 -1.08931e-19)
(0.481014 0.0412953 1.1818e-20)
(0.577433 0.0470106 1.10543e-19)
(0.636963 0.0430634 1.18668e-19)
(0.779431 0.0555239 -1.46787e-19)
(-0.0129146 0.0179487 -2.68024e-19)
(-0.0295475 0.0411541 1.80489e-19)
(-0.0383834 0.055144 -1.0178e-19)
(-0.0396481 0.0624224 2.56555e-20)
(-0.0337809 0.0649841 1.79989e-19)
(-0.0210689 0.0644321 1.0761e-19)
(-0.00159571 0.0619878 -1.63963e-19)
(0.0247609 0.0585587 1.19165e-19)
(0.0582965 0.0548123 -3.26225e-19)
(0.0994125 0.0512404 1.82383e-20)
(0.148523 0.0482068 1.796e-19)
(0.205935 0.0459808 -2.86921e-20)
(0.271717 0.0447522 -1.6793e-19)
(0.345625 0.0446875 -7.40394e-20)
(0.426535 0.0455375 -5.17124e-21)
(0.514715 0.0485504 1.3697e-19)
(0.602034 0.0496697 4.30912e-20)
(0.705948 0.0581655 1.73212e-19)
(0.771008 0.0556856 4.93599e-20)
(0.913777 0.0714009 -6.65313e-20)
(-0.0137996 0.0176192 -1.03996e-19)
(-0.0308243 0.0399178 -2.8903e-19)
(-0.0386406 0.053003 1.92903e-19)
(-0.0375783 0.0594691 2.27567e-20)
(-0.0281123 0.0613954 -1.45551e-20)
(-0.0105152 0.0604282 -2.94466e-20)
(0.0151883 0.0578188 -4.43533e-20)
(0.0492035 0.0545067 7.94427e-20)
(0.0918955 0.0511979 -1.88992e-19)
(0.143672 0.0484235 -4.29694e-20)
(0.204831 0.0465809 -2.06955e-19)
(0.275382 0.0459545 2.18827e-19)
(0.35487 0.0467152 1.20256e-19)
(0.442272 0.0489621 -1.02336e-19)
(0.535635 0.0523652 -1.44683e-20)
(0.633547 0.0577907 -1.09076e-20)
(0.729042 0.0617154 -2.81608e-20)
(0.832844 0.0716215 -4.80389e-20)
(0.901582 0.0712815 1.53744e-19)
(1.03073 0.0879266 3.1351e-19)
(-0.0146574 0.0172075 4.78282e-20)
(-0.0317947 0.038357 2.33056e-19)
(-0.0381394 0.05033 1.40797e-19)
(-0.0341287 0.0558449 6.55926e-20)
(-0.020248 0.0570866 -8.5731e-20)
(0.00326867 0.0557541 -4.30259e-20)
(0.0364737 0.0531386 2.20522e-21)
(0.0796459 0.0502214 -8.80764e-20)
(0.133158 0.0477501 -2.51617e-20)
(0.197284 0.0462897 1.67672e-19)
(0.271972 0.046248 1.98461e-19)
(0.356613 0.0478746 -6.67509e-20)
(0.449848 0.0512507 -1.10981e-19)
(0.549497 0.0562763 2.19507e-19)
(0.652558 0.0625851 2.12401e-19)
(0.755765 0.0701181 1.21283e-19)
(0.853995 0.0769212 -1.1041e-19)
(0.950032 0.0865353 2.69181e-20)
(1.01843 0.0884823 -2.06304e-20)
(1.12269 0.103179 -2.65217e-19)
(-0.0154705 0.016717 3.28667e-19)
(-0.0323529 0.0364905 -9.44578e-20)
(-0.0366412 0.047182 -1.33715e-19)
(-0.0288961 0.0516599 -1.34902e-19)
(-0.00959098 0.0522329 -1.13703e-19)
(0.0210964 0.0506676 1.84176e-19)
(0.0632904 0.0483076 8.34785e-20)
(0.117285 0.046182 -2.04723e-19)
(0.183318 0.0450753 1.37542e-19)
(0.261283 0.0455607 -7.66695e-20)
(0.350425 0.0479987 -1.09849e-19)
(0.44909 0.0525127 4.55435e-20)
(0.554627 0.058983 4.94876e-20)
(0.663461 0.0669807 -1.14541e-19)
(0.771457 0.0760325 -1.10953e-19)
(0.874196 0.0851124 -7.47557e-20)
(0.967979 0.0939108 -7.92248e-20)
(1.05046 0.10169 1.87739e-20)
(1.11312 0.105631 6.06255e-20)
(1.18667 0.11542 9.7911e-20)
(-0.0162065 0.0161376 -7.62222e-20)
(-0.0323655 0.0343287 -1.72168e-19)
(-0.0338652 0.0436186 2.04577e-19)
(-0.0214211 0.0470375 -1.78526e-19)
(0.00452012 0.0470405 1.20219e-19)
(0.043836 0.0454774 -1.62721e-19)
(0.0966736 0.0437539 -1.7781e-19)
(0.163207 0.0429449 4.28971e-19)
(0.243287 0.0438463 2.16676e-20)
(0.336047 0.0469765 -1.01593e-19)
(0.439573 0.0525455 -1.91584e-19)
(0.550742 0.0604168 -5.03068e-20)
(0.66535 0.0701333 -2.42191e-19)
(0.778517 0.0808677 7.10109e-20)
(0.885306 0.0919033 3.2597e-20)
(0.981326 0.101716 -2.96301e-20)
(1.06379 0.110874 2.19023e-19)
(1.12982 0.116001 -5.86877e-20)
(1.1815 0.12128 5.13249e-20)
(1.22423 0.123317 -1.36282e-19)
(-0.0168172 0.0154571 1.00851e-19)
(-0.031665 0.0318765 4.96264e-21)
(-0.0294893 0.0396974 3.42012e-20)
(-0.0111973 0.0421147 6.50277e-20)
(0.0227857 0.041746 7.76982e-20)
(0.0723553 0.0405388 1.20047e-19)
(0.137563 0.0399623 5.66864e-20)
(0.218218 0.0411152 -1.30941e-19)
(0.313398 0.044742 2.95495e-20)
(0.420987 0.0511935 -6.25178e-21)
(0.537438 0.0603777 1.24439e-19)
(0.657888 0.0717445 -5.18116e-20)
(0.776672 0.0843913 6.00812e-20)
(0.888121 0.0971149 -6.26322e-21)
(0.987371 0.108951 -2.01597e-19)
(1.07115 0.118446 1.45589e-20)
(1.13786 0.126227 -1.44055e-19)
(1.18741 0.128961 -1.66067e-20)
(1.2243 0.133823 -3.94996e-20)
(1.24117 0.125847 6.48012e-20)
(-0.0172459 0.0146601 -7.4616e-20)
(-0.0300518 0.0291304 1.21193e-20)
(-0.0231523 0.0354806 2.81662e-19)
(0.00231386 0.0370452 -1.42448e-19)
(0.0459098 0.0366173 7.26876e-20)
(0.107453 0.0362484 -1.21304e-19)
(0.18668 0.0374552 -1.09985e-19)
(0.282657 0.0413028 -1.01088e-19)
(0.393174 0.0483679 -1.98356e-19)
(0.514342 0.0586656 2.19588e-19)
(0.640656 0.0716236 1.82371e-19)
(0.765594 0.08616 4.14174e-20)
(0.882613 0.100921 1.54992e-19)
(0.98621 0.114467 -1.09721e-19)
(1.07272 0.125804 2.16996e-20)
(1.14073 0.133861 1.83886e-19)
(1.19059 0.139224 -3.53398e-20)
(1.22515 0.140202 -6.64083e-20)
(1.24601 0.141359 4.5142e-20)
(1.25732 0.134347 -2.78993e-19)
(-0.01742 0.0137255 -2.81405e-19)
(-0.0273002 0.0260896 -1.42672e-19)
(-0.0144642 0.0310414 -3.49659e-19)
(0.0196629 0.0320049 -2.7156e-20)
(0.0745575 0.0319541 -1.09349e-19)
(0.149778 0.033036 -3.42953e-20)
(0.244396 0.0367667 7.31514e-20)
(0.356219 0.0440655 3.52687e-19)
(0.481167 0.0551621 -3.57085e-19)
(0.613168 0.069531 1.13913e-19)
(0.744792 0.0859711 -1.38053e-19)
(0.86845 0.102858 -1.07809e-19)
(0.977754 0.118536 -1.49923e-19)
(1.06852 0.131592 -3.85634e-20)
(1.13918 0.141298 9.74456e-20)
(1.19052 0.14709 -3.75613e-20)
(1.22508 0.149949 -1.55643e-20)
(1.24639 0.148712 -5.94041e-20)
(1.25752 0.147874 1.43294e-19)
(1.26327 0.140355 2.09436e-19)
(-0.0172508 0.0126328 2.08216e-20)
(-0.0231602 0.0227637 2.72327e-19)
(-0.00301693 0.0264717 2.81235e-19)
(0.0413873 0.027198 1.07867e-19)
(0.109304 0.0280899 1.28464e-19)
(0.199739 0.0313543 -1.20884e-20)
(0.310603 0.0384068 4.71625e-20)
(0.437823 0.04984 -1.2613e-19)
(0.574931 0.0653043 2.52249e-19)
(0.713592 0.0835441 2.84694e-20)
(0.844999 0.102692 1.04228e-19)
(0.961579 0.120735 -4.48926e-20)
(1.05832 0.136002 1.13258e-19)
(1.1333 0.147421 1.22739e-20)
(1.18739 0.154741 -7.34086e-20)
(1.22346 0.158013 9.2699e-20)
(1.24528 0.158445 3.6307e-21)
(1.25701 0.155483 -9.01607e-20)
(1.2615 0.153062 -1.55089e-19)
(1.26275 0.145141 -4.54033e-20)
(-0.0166373 0.0113681 -5.44667e-20)
(-0.0173619 0.0191797 -1.59972e-19)
(0.0116022 0.0218913 -6.19799e-20)
(0.0679819 0.0228652 1.9311e-19)
(0.150579 0.0253925 -1.26564e-19)
(0.257412 0.0316604 1.71018e-19)
(0.384604 0.0428142 8.8591e-20)
(0.525568 0.0588678 -8.48932e-20)
(0.671199 0.0786514 2.33742e-19)
(0.811331 0.10009 -2.4058e-19)
(0.93686 0.120786 -1.40534e-19)
(1.04153 0.138648 1.09318e-19)
(1.12272 0.152334 -1.77523e-20)
(1.18117 0.161348 2.40197e-19)
(1.21995 0.166002 -1.64359e-19)
(1.24332 0.166861 4.07378e-20)
(1.2556 0.165269 -5.22781e-20)
(1.26071 0.160996 -1.61306e-20)
(1.26097 0.157452 2.1328e-19)
(1.2602 0.149296 5.94651e-20)
(-0.0154684 0.00992751 1.6817e-19)
(-0.00962286 0.0153898 2.02198e-19)
(0.0297941 0.0174567 -1.22149e-19)
(0.0998651 0.019289 -1.55217e-19)
(0.198604 0.0242581 -9.07015e-20)
(0.322458 0.0343879 -1.31351e-19)
(0.465055 0.0502996 -1.68628e-19)
(0.616833 0.0711346 6.52259e-20)
(0.76627 0.0947352 -2.86212e-19)
(0.902375 0.118297 1.53443e-19)
(1.01712 0.139207 -7.98012e-20)
(1.10672 0.155673 -9.44336e-20)
(1.17141 0.166959 1.42705e-20)
(1.21437 0.173235 9.60825e-20)
(1.24025 0.175313 7.58755e-20)
(1.25388 0.174105 1.20033e-19)
(1.25946 0.170932 -7.61206e-20)
(1.26028 0.165739 4.09744e-20)
(1.25819 0.161391 -6.34201e-20)
(1.25599 0.153128 3.19906e-21)
(-0.0136253 0.00831999 -1.41027e-19)
(0.000342214 0.011479 1.55048e-19)
(0.0519281 0.013369 9.0139e-20)
(0.13734 0.0167962 -6.58548e-20)
(0.253328 0.025098 1.23294e-19)
(0.394057 0.0399063 -9.40951e-20)
(0.549996 0.0609885 1.87172e-19)
(0.708525 0.0863475 1.35988e-19)
(0.856528 0.112837 -1.28088e-19)
(0.983601 0.137216 2.19976e-19)
(1.0841 0.157071 -9.44228e-20)
(1.15731 0.171237 6.49968e-20)
(1.20623 0.179712 1.37665e-19)
(1.23586 0.183278 -8.9484e-20)
(1.25159 0.18309 -6.7121e-21)
(1.25819 0.180229 -1.95384e-19)
(1.25931 0.175875 1.61827e-19)
(1.25752 0.170057 1.98937e-20)
(1.25407 0.165109 1.21002e-19)
(1.25113 0.156808 -9.1121e-20)
(-0.0109846 0.0065701 9.17352e-20)
(0.0128108 0.00757033 -1.61799e-19)
(0.0783178 0.00987776 -1.01212e-20)
(0.180549 0.015753 -3.28691e-20)
(0.314373 0.0283124 -1.63815e-19)
(0.470891 0.0484717 2.15475e-19)
(0.636984 0.0747827 -4.97534e-20)
(0.797464 0.103971 -1.60454e-19)
(0.938965 0.132125 -3.26386e-20)
(1.05314 0.156004 3.82445e-20)
(1.13759 0.173789 2.35106e-19)
(1.19471 0.185126 7.85299e-20)
(1.2297 0.190727 -7.07283e-20)
(1.24856 0.191833 -7.89077e-20)
(1.25675 0.189774 4.10053e-20)
(1.25852 0.185641 1.70423e-19)
(1.2568 0.180418 -8.90749e-20)
(1.25344 0.174172 -1.01366e-19)
(1.24928 0.168738 -5.66602e-20)
(1.24589 0.160454 2.28863e-21)
(-0.0074221 0.00471978 7.15953e-21)
(0.0280394 0.00382824 1.41292e-20)
(0.109194 0.00728044 -1.28618e-19)
(0.229434 0.0165503 6.76153e-20)
(0.380993 0.0342539 1.56666e-19)
(0.551192 0.0601806 -1.92081e-19)
(0.723345 0.0913602 3.51338e-20)
(0.880796 0.123321 1.33889e-19)
(1.01153 0.151807 -1.9421e-20)
(1.1104 0.174045 4.9514e-20)
(1.17854 0.189078 -2.29301e-19)
(1.221 0.197397 -9.60969e-20)
(1.24438 0.200299 -2.61865e-20)
(1.25497 0.199298 -2.15337e-20)
(1.25779 0.195746 -4.49277e-20)
(1.25637 0.190649 -1.31003e-19)
(1.25289 0.184777 1.0414e-19)
(1.24864 0.178214 -4.4761e-20)
(1.24409 0.17236 1.13515e-19)
(1.24038 0.164102 3.14337e-20)
(-0.00281621 0.00282936 6.44358e-20)
(0.0462489 0.000458542 -8.44296e-20)
(0.144676 0.00591505 1.16864e-19)
(0.283691 0.0195804 -5.23178e-20)
(0.452067 0.0431842 4.11575e-20)
(0.632874 0.0749437 9.57197e-20)
(0.806479 0.110224 -2.50225e-20)
(0.956324 0.143683 -1.27597e-19)
(1.07321 0.171244 7.71671e-20)
(1.15583 0.190978 7.37191e-20)
(1.20856 0.202906 1.1366e-19)
(1.2384 0.20827 2.57605e-20)
(1.25256 0.208772 1.94204e-19)
(1.25705 0.206027 5.32808e-20)
(1.25618 0.201303 1.40403e-20)
(1.25269 0.195462 5.17869e-20)
(1.24815 0.189081 8.69976e-20)
(1.24338 0.182255 -2.33897e-20)
(1.23862 0.176008 -8.53927e-20)
(1.23469 0.167774 1.59555e-20)
(0.00294753 0.000977401 -8.68066e-20)
(0.0676079 -0.00229437 -1.35205e-19)
(0.18474 0.00614747 -6.59056e-20)
(0.342747 0.0252056 -1.73751e-21)
(0.526146 0.0552355 6.40799e-21)
(0.71373 0.0924929 -1.9388e-19)
(0.884154 0.130787 1.12337e-19)
(1.02267 0.164421 -5.43522e-20)
(1.12395 0.19 -8.7694e-20)
(1.19057 0.206673 1.26329e-21)
(1.22952 0.215409 -1.02315e-19)
(1.24895 0.218036 -1.08287e-19)
(1.25605 0.216474 -1.66487e-19)
(1.25619 0.212308 2.04675e-20)
(1.25285 0.206654 5.02692e-20)
(1.24807 0.200214 -7.38703e-20)
(1.24289 0.193403 7.66383e-21)
(1.23781 0.186329 1.06194e-19)
(1.23293 0.179697 -6.40217e-20)
(1.22881 0.171473 5.93979e-20)
(0.00997033 -0.00073888 4.37382e-20)
(0.0922155 -0.00415282 4.21253e-20)
(0.229196 0.00835271 -1.94196e-19)
(0.405756 0.0337226 7.56961e-20)
(0.601552 0.0703887 -1.71131e-19)
(0.791658 0.112424 1.32623e-19)
(0.954698 0.152458 -1.53216e-20)
(1.07925 0.18504 1.02754e-19)
(1.16436 0.20784 1.62222e-19)
(1.21607 0.221165 -1.32281e-20)
(1.24324 0.226806 1.10387e-19)
(1.2544 0.226986 1.25234e-19)
(1.25627 0.223682 -4.37361e-20)
(1.25337 0.218353 -8.44071e-20)
(1.24841 0.211937 -7.20706e-20)
(1.24281 0.20498 8.74581e-20)
(1.23725 0.197779 -7.2553e-20)
(1.23199 0.190447 -3.27765e-20)
(1.22703 0.183428 1.47675e-20)
(1.22275 0.175196 -1.28177e-20)
(0.0183335 -0.00220564 1.04023e-19)
(0.120084 -0.00481569 1.13924e-19)
(0.27767 0.0128917 -3.90795e-20)
(0.471629 0.0453302 2.21518e-19)
(0.676514 0.0884766 5.20538e-20)
(0.864856 0.134261 -1.99663e-19)
(1.01707 0.174717 1.58445e-19)
(1.12614 0.205201 -2.85662e-20)
(1.19547 0.224688 -1.92659e-20)
(1.2339 0.23459 -6.19769e-20)
(1.25131 0.237344 1.3982e-20)
(1.2561 0.235381 2.13569e-20)
(1.25418 0.230609 -8.09716e-20)
(1.24922 0.224306 5.81576e-22)
(1.2432 0.217232 -2.89335e-20)
(1.2371 0.209801 -4.18191e-20)
(1.23129 0.202221 3.95153e-20)
(1.22592 0.194607 -4.82124e-20)
(1.22091 0.187197 -5.72027e-20)
(1.21649 0.178933 3.93532e-20)
(0.0280935 -0.00329475 -2.17831e-19)
(0.151127 -0.00396967 6.83517e-20)
(0.329599 0.0200855 6.82609e-22)
(0.539091 0.0601087 -1.34756e-19)
(0.749324 0.109212 1.85074e-20)
(0.931942 0.157518 -3.87455e-20)
(1.07082 0.197147 -4.65385e-20)
(1.16391 0.224711 -7.60948e-20)
(1.21852 0.240578 -3.68537e-21)
(1.24549 0.247134 -3.3334e-20)
(1.25508 0.247259 -8.35949e-20)
(1.25506 0.243432 -3.91022e-20)
(1.25046 0.237405 9.54896e-20)
(1.24411 0.230257 5.63124e-20)
(1.23742 0.222582 2.53369e-20)
(1.23099 0.214687 6.02177e-20)
(1.22504 0.206724 -9.44753e-20)
(1.2196 0.198797 3.51183e-20)
(1.21456 0.190993 2.47598e-20)
(1.21002 0.182671 -5.50785e-21)
(0.0392746 -0.00386673 1.5808e-19)
(0.185144 -0.00130336 -1.39212e-19)
(0.384243 0.0301911 -5.91289e-20)
(0.60677 0.0780134 1.4614e-19)
(0.818468 0.132231 1.38227e-20)
(0.991998 0.181748 3.62356e-21)
(1.11598 0.219446 6.69804e-20)
(1.19337 0.243491 -1.0127e-19)
(1.23473 0.255615 1.70242e-20)
(1.25212 0.258991 7.19672e-20)
(1.25557 0.256753 -2.56073e-20)
(1.25202 0.251297 -7.06615e-20)
(1.24555 0.244171 -3.62559e-21)
(1.23828 0.236254 -3.40322e-20)
(1.23115 0.228002 -2.89781e-20)
(1.22453 0.219638 -8.44899e-20)
(1.21849 0.211275 5.3952e-20)
(1.21301 0.203004 -1.62234e-21)
(1.20795 0.194803 1.62992e-21)
(1.20333 0.186395 -2.62722e-20)
(0.0518636 -0.00377502 -1.45696e-19)
(0.22182 0.00347686 1.32683e-19)
(0.440713 0.0433801 -2.09867e-20)
(0.673293 0.0988864 -1.3062e-20)
(0.882714 0.157135 1.87728e-20)
(1.04454 0.206569 -2.73161e-20)
(1.15291 0.241411 -7.61895e-22)
(1.21548 0.26154 9.9641e-20)
(1.24526 0.269931 -6.68673e-21)
(1.25482 0.270341 7.86301e-21)
(1.25357 0.265984 2.54137e-21)
(1.24747 0.259085 1.08735e-20)
(1.23972 0.250962 -3.0158e-20)
(1.23185 0.242316 6.7416e-20)
(1.22445 0.233487 1.09311e-20)
(1.21771 0.224637 4.19119e-20)
(1.21163 0.215856 -1.54597e-20)
(1.20614 0.207208 7.64932e-21)
(1.20109 0.198612 -2.31487e-20)
(1.19641 0.190085 2.2642e-20)
(0.0658057 -0.00287111 6.35973e-20)
(0.260727 0.0106302 -5.70235e-20)
(0.498019 0.0597266 -2.13454e-20)
(0.737375 0.122479 -2.15237e-20)
(0.941149 0.183526 3.10566e-20)
(1.08943 0.231669 8.27294e-21)
(1.18221 0.26292 4.71128e-20)
(1.23121 0.278905 -1.029e-19)
(1.25111 0.283664 5.50147e-20)
(1.25441 0.281335 3.98883e-20)
(1.24964 0.275068 -2.73019e-20)
(1.24173 0.266859 5.55308e-20)
(1.23313 0.257803 4.65318e-22)
(1.22487 0.24844 1.39041e-20)
(1.21731 0.239022 2.01185e-20)
(1.21052 0.229665 -2.46951e-20)
(1.20445 0.220442 1.85637e-20)
(1.19897 0.211389 7.9216e-21)
(1.19395 0.202401 8.27622e-22)
(1.18923 0.193722 -8.80022e-21)
(0.0810014 -0.00101049 -3.60283e-20)
(0.301333 0.0203653 9.17182e-21)
(0.555119 0.0792026 6.43012e-20)
(0.797885 0.148478 -1.36671e-20)
(0.993172 0.21103 1.65309e-20)
(1.12682 0.256805 -1.05374e-20)
(1.20456 0.283912 1.24734e-20)
(1.24146 0.295656 -9.64188e-21)
(1.25313 0.29694 -5.9158e-20)
(1.25153 0.292085 1.56673e-21)
(1.24416 0.284077 1.80274e-21)
(1.235 0.274651 -3.7061e-20)
(1.22585 0.264692 1.24589e-20)
(1.21736 0.254608 -3.53674e-21)
(1.20973 0.24458 -2.29659e-20)
(1.20294 0.234693 1.98441e-20)
(1.19691 0.225007 -2.70698e-20)
(1.1915 0.215524 -8.97411e-21)
(1.18653 0.20615 6.14202e-21)
(1.1818 0.197281 -1.36884e-21)
(0.0973062 0.001941 4.01436e-20)
(0.343021 0.0328269 1.2494e-20)
(0.610974 0.101684 -1.85037e-20)
(0.853893 0.176534 -7.70321e-21)
(1.03846 0.239305 -3.16811e-20)
(1.15703 0.281788 -2.65843e-21)
(1.22069 0.30436 -7.41951e-21)
(1.24703 0.311868 1.08576e-21)
(1.25198 0.309857 -5.03487e-21)
(1.24663 0.30267 -1.09479e-20)
(1.2374 0.293049 -4.93014e-21)
(1.22741 0.282464 1.14377e-20)
(1.21792 0.271611 1.266e-21)
(1.20933 0.26079 -1.00126e-20)
(1.2017 0.25013 3.82322e-21)
(1.19497 0.239692 2.61578e-21)
(1.18902 0.22952 1.20465e-20)
(1.18369 0.219589 -3.58641e-21)
(1.1788 0.209836 -3.51922e-21)
(1.1741 0.200736 -6.03372e-22)
(0.114532 0.00610051 -8.86537e-21)
(0.385108 0.0480851 2.12012e-20)
(0.664603 0.12696 7.21581e-21)
(0.904681 0.206276 -3.29432e-21)
(1.07691 0.268045 -8.0269e-21)
(1.18052 0.306471 1.01498e-20)
(1.2313 0.324256 8.10887e-21)
(1.24863 0.327605 -1.36264e-20)
(1.24819 0.322487 3.49876e-21)
(1.24003 0.313132 -1.54221e-21)
(1.22952 0.301991 6.03484e-22)
(1.21901 0.290279 -4.4638e-21)
(1.20936 0.278526 -5.12258e-21)
(1.20077 0.266949 1.10071e-21)
(1.1932 0.255634 4.28031e-22)
(1.18658 0.244625 -5.63464e-21)
(1.18075 0.233949 3.56202e-22)
(1.17556 0.223558 3.43428e-21)
(1.17078 0.213431 3.3014e-21)
(1.16614 0.204061 7.92154e-23)
(0.132452 0.0115619 -1.0067e-21)
(0.42688 0.0661298 1.93256e-20)
(0.715119 0.154752 2.0341e-21)
(0.949736 0.237332 3.38674e-21)
(1.1086 0.296976 -1.40218e-20)
(1.19777 0.330737 2.38903e-20)
(1.23703 0.343601 -7.23119e-21)
(1.24681 0.342914 -4.0967e-21)
(1.24216 0.334872 -1.91622e-21)
(1.23197 0.323483 -4.7569e-21)
(1.22062 0.310886 7.57184e-21)
(1.20985 0.29806 -8.33343e-21)
(1.20017 0.285397 -5.09036e-21)
(1.19166 0.273043 2.43785e-22)
(1.18422 0.261053 1.55477e-21)
(1.17775 0.249453 -5.973e-22)
(1.1721 0.238258 -2.70765e-21)
(1.16708 0.227399 2.58906e-21)
(1.16246 0.216901 3.48508e-21)
(1.15793 0.207228 2.54347e-21)
(0.150804 0.01839 6.74544e-20)
(0.467614 0.08687 1.75025e-20)
(0.761757 0.184726 -3.7088e-20)
(0.988729 0.269331 1.68036e-20)
(1.13372 0.325854 -5.02932e-20)
(1.2093 0.354486 -1.9132e-21)
(1.23845 0.36239 -1.63283e-20)
(1.24204 0.357819 1.97183e-20)
(1.23418 0.347021 2.17761e-21)
(1.2226 0.333706 -1.46007e-20)
(1.21077 0.319697 -1.39444e-20)
(1.19992 0.30576 4.88593e-21)
(1.19033 0.292172 4.54573e-21)
(1.18198 0.279023 -5.73113e-21)
(1.17474 0.266341 1.32146e-21)
(1.16848 0.254138 2.27995e-21)
(1.16305 0.242411 1.0415e-20)
(1.15825 0.231074 -2.29737e-21)
(1.15384 0.220201 -5.72865e-21)
(1.1495 0.210205 3.04161e-21)
(0.169302 0.0266163 -4.91743e-20)
(0.506607 0.110137 -4.23525e-21)
(0.803885 0.216507 9.88673e-20)
(1.02149 0.301913 -4.99574e-20)
(1.15255 0.354454 5.46857e-20)
(1.21561 0.377627 -1.30704e-20)
(1.23606 0.380605 -3.53534e-21)
(1.23469 0.37232 -4.52295e-21)
(1.22448 0.358919 -3.51739e-20)
(1.21201 0.343764 -1.06727e-20)
(1.19999 0.328372 1.28289e-20)
(1.18923 0.313322 -2.34792e-20)
(1.17984 0.298796 -1.29023e-20)
(1.17173 0.284839 6.91793e-21)
(1.16474 0.271453 -1.05334e-20)
(1.15876 0.258637 3.08105e-21)
(1.1536 0.246369 -1.5348e-20)
(1.14907 0.234543 6.15812e-21)
(1.14491 0.223282 -2.69985e-21)
(1.14081 0.212954 4.54183e-21)
(0.187641 0.0362355 4.05261e-20)
(0.543204 0.135692 1.39605e-21)
(0.841013 0.249694 -5.82972e-20)
(1.04799 0.33473 -2.86193e-20)
(1.16543 0.382567 4.65556e-20)
(1.21715 0.400072 -1.89565e-20)
(1.23028 0.398217 1.36799e-20)
(1.22504 0.386395 -1.3944e-21)
(1.2132 0.370527 1.50853e-21)
(1.20028 0.353602 9.35556e-21)
(1.1883 0.336848 -3.30931e-21)
(1.17778 0.320683 3.57115e-20)
(1.16869 0.305211 5.7531e-21)
(1.16089 0.290436 -9.79771e-21)
(1.15423 0.276342 8.90494e-21)
(1.14857 0.26291 7.15444e-21)
(1.14373 0.250097 6.37688e-21)
(1.13952 0.237775 2.08058e-21)
(1.13565 0.226109 5.16448e-21)
(1.13177 0.215436 -4.18182e-21)
(0.205511 0.0472044 -1.14864e-19)
(0.576811 0.163234 1.01326e-19)