/*--------------------------------*- C++ -*----------------------------------*\
  =========                 |
  \\      /  F ield         | OpenFOAM: The Open Source CFD Toolbox
   \\    /   O peration     | Website:  https://openfoam.org
    \\  /    A nd           | Version:  7
     \\/     M anipulation  |
\*---------------------------------------------------------------------------*/
FoamFile
{
    version     2.0;
    format      ascii;
    class       volScalarField;
    location    "80";
    object      p;
}
// * * * * * * * * * * * * * * * * * * * * * * * * * * * * * * * * * * * * * //

dimensions      [0 2 -2 0 0 0 0];

internalField   nonuniform List<scalar> 
3500
(
-0.177434
-0.171615
-0.165956
-0.160113
-0.154457
-0.148989
-0.143757
-0.138772
-0.134035
-0.129546
-0.125305
-0.12131
-0.11756
-0.114049
-0.110777
-0.107737
-0.104926
-0.10234
-0.0999733
-0.0978221
-0.0958818
-0.0941484
-0.0926179
-0.0912869
-0.0901522
-0.089211
-0.0884609
-0.0878999
-0.0875268
-0.0873405
-0.175474
-0.169803
-0.164275
-0.158573
-0.153052
-0.147716
-0.142611
-0.137747
-0.133124
-0.128742
-0.124602
-0.1207
-0.117036
-0.113606
-0.110406
-0.107433
-0.104683
-0.102152
-0.0998348
-0.0977277
-0.0958265
-0.0941275
-0.092627
-0.0913217
-0.0902086
-0.0892851
-0.088549
-0.0879985
-0.0876323
-0.0874494
-0.173485
-0.167951
-0.162547
-0.156983
-0.151592
-0.146385
-0.141405
-0.136659
-0.132149
-0.127873
-0.123832
-0.120024
-0.116447
-0.113096
-0.10997
-0.107065
-0.104376
-0.1019
-0.0996326
-0.0975702
-0.0957088
-0.0940449
-0.0925749
-0.0912958
-0.0902049
-0.0892995
-0.0885778
-0.088038
-0.0876788
-0.0874995
-0.171463
-0.166057
-0.160774
-0.155343
-0.150079
-0.144998
-0.140139
-0.135511
-0.131111
-0.126941
-0.123
-0.119284
-0.115793
-0.112523
-0.10947
-0.106632
-0.104005
-0.101585
-0.0993685
-0.0973514
-0.0955303
-0.093902
-0.092463
-0.0912106
-0.0901422
-0.0892554
-0.0885483
-0.0880194
-0.0876675
-0.0874917
-0.169408
-0.164121
-0.158955
-0.153653
-0.148513
-0.143555
-0.138816
-0.134303
-0.130014
-0.125949
-0.122105
-0.118483
-0.115077
-0.111887
-0.108909
-0.106138
-0.103573
-0.10121
-0.099044
-0.0970727
-0.0952925
-0.0937001
-0.0922927
-0.0910675
-0.0900219
-0.0891539
-0.0884618
-0.0879441
-0.0875995
-0.0874274
-0.167316
-0.162142
-0.15709
-0.151912
-0.146893
-0.142057
-0.137437
-0.133037
-0.128858
-0.124896
-0.121151
-0.11762
-0.114301
-0.111191
-0.108287
-0.105585
-0.103082
-0.100775
-0.0986608
-0.0967357
-0.0949967
-0.0934409
-0.0920653
-0.0908676
-0.0898453
-0.0889965
-0.0883196
-0.0878131
-0.087476
-0.0873077
-0.165185
-0.160118
-0.155176
-0.15012
-0.145221
-0.140505
-0.136002
-0.131715
-0.127644
-0.123786
-0.120139
-0.1167
-0.113467
-0.110437
-0.107606
-0.104973
-0.102533
-0.100283
-0.0982203
-0.0963419
-0.0946445
-0.0931256
-0.0917823
-0.0906124
-0.0896137
-0.0887843
-0.0881228
-0.0876278
-0.0872984
-0.0871338
-0.163012
-0.158048
-0.153214
-0.148277
-0.143497
-0.138899
-0.134512
-0.130338
-0.126374
-0.122619
-0.119069
-0.115722
-0.112575
-0.109625
-0.106869
-0.104304
-0.101927
-0.0997348
-0.0977243
-0.0958928
-0.0942375
-0.0927557
-0.091445
-0.0903033
-0.0893284
-0.0885188
-0.0878728
-0.0873894
-0.0870677
-0.086907
-0.160793
-0.155928
-0.151202
-0.146383
-0.141721
-0.137241
-0.132969
-0.128907
-0.12505
-0.121398
-0.117945
-0.11469
-0.111629
-0.108759
-0.106077
-0.103581
-0.101267
-0.0991325
-0.0971744
-0.0953901
-0.0937771
-0.0923328
-0.091055
-0.0899416
-0.0889909
-0.0882011
-0.0875709
-0.0870993
-0.0867853
-0.0866285
-0.158525
-0.153758
-0.149138
-0.144437
-0.139892
-0.135529
-0.131373
-0.127422
-0.123673
-0.120123
-0.116768
-0.113604
-0.110629
-0.10784
-0.105232
-0.102805
-0.100554
-0.0984776
-0.0965721
-0.0948353
-0.0932648
-0.0918583
-0.0906136
-0.0895289
-0.0886024
-0.0878327
-0.0872184
-0.0867587
-0.0864526
-0.0862997
-0.156205
-0.151535
-0.147022
-0.142438
-0.138011
-0.133766
-0.129725
-0.125886
-0.122244
-0.118797
-0.115539
-0.112467
-0.109578
-0.106868
-0.104336
-0.101978
-0.0997904
-0.0977717
-0.0959191
-0.09423
-0.0927022
-0.0913337
-0.0901223
-0.0890664
-0.0881644
-0.0874149
-0.0868167
-0.0863689
-0.0860707
-0.0859218
-0.15383
-0.149256
-0.144853
-0.140386
-0.136078
-0.131952
-0.128027
-0.124299
-0.120765
-0.11742
-0.114259
-0.111279
-0.108476
-0.105848
-0.10339
-0.101101
-0.098977
-0.0970166
-0.0952169
-0.0935757
-0.0920909
-0.0907605
-0.0895826
-0.0885557
-0.0876783
-0.0869491
-0.0863671
-0.0859313
-0.0856411
-0.0854962
-0.151397
-0.146921
-0.142628
-0.138282
-0.134093
-0.130087
-0.126278
-0.122663
-0.119237
-0.115995
-0.112932
-0.110043
-0.107327
-0.104779
-0.102396
-0.100176
-0.0981159
-0.0962139
-0.0944673
-0.0928741
-0.0914324
-0.0901402
-0.088996
-0.0879983
-0.0871456
-0.0864368
-0.085871
-0.0854473
-0.0851652
-0.0850242
-0.148904
-0.144528
-0.140349
-0.136124
-0.132058
-0.128172
-0.124481
-0.120979
-0.117661
-0.114522
-0.111557
-0.108761
-0.106131
-0.103663
-0.101356
-0.0992048
-0.0972088
-0.0953652
-0.0936718
-0.0921268
-0.0907282
-0.0894745
-0.088364
-0.0873954
-0.0865675
-0.0858793
-0.0853297
-0.0849182
-0.0846442
-0.0845072
-0.146347
-0.142075
-0.138013
-0.133913
-0.129971
-0.126208
-0.122636
-0.119248
-0.11604
-0.113004
-0.110137
-0.107434
-0.10489
-0.102503
-0.100271
-0.0981894
-0.0962573
-0.0944722
-0.0928321
-0.0913352
-0.0899799
-0.0887646
-0.087688
-0.0867487
-0.0859457
-0.085278
-0.0847448
-0.0843455
-0.0840795
-0.0839466
-0.143727
-0.139562
-0.135622
-0.13165
-0.127835
-0.124197
-0.120744
-0.117472
-0.114374
-0.111443
-0.108674
-0.106063
-0.103606
-0.101301
-0.0991431
-0.0971313
-0.0952631
-0.0935365
-0.0919498
-0.0905012
-0.0891891
-0.0880123
-0.0869695
-0.0860596
-0.0852814
-0.0846343
-0.0841175
-0.0837304
-0.0834726
-0.0833438
-0.141041
-0.136989
-0.133175
-0.129334
-0.12565
-0.122138
-0.118808
-0.115652
-0.112665
-0.109839
-0.107169
-0.104651
-0.102282
-0.100057
-0.0979744
-0.0960322
-0.094228
-0.09256
-0.0910265
-0.0896261
-0.0883574
-0.0872191
-0.0862101
-0.0853295
-0.0845763
-0.0839498
-0.0834494
-0.0830745
-0.0828248
-0.0827
-0.138289
-0.134355
-0.130673
-0.126968
-0.123417
-0.120035
-0.116828
-0.113791
-0.110915
-0.108195
-0.105625
-0.1032
-0.100917
-0.0987737
-0.0967666
-0.0948939
-0.0931536
-0.0915441
-0.0900639
-0.0887117
-0.0874862
-0.0863864
-0.0854113
-0.0845599
-0.0838316
-0.0832257
-0.0827417
-0.082379
-0.0821375
-0.0820167
-0.135471
-0.131662
-0.128117
-0.124552
-0.121138
-0.117888
-0.114807
-0.111889
-0.109126
-0.106513
-0.104042
-0.101711
-0.0995157
-0.0974532
-0.0955214
-0.0937181
-0.0920417
-0.0904906
-0.0890637
-0.0877596
-0.0865773
-0.0855158
-0.0845745
-0.0837524
-0.083049
-0.0824636
-0.0819959
-0.0816455
-0.081412
-0.0812953
-0.132589
-0.128912
-0.125509
-0.122088
-0.118814
-0.115699
-0.112747
-0.109949
-0.107301
-0.104794
-0.102424
-0.100186
-0.0980784
-0.0960971
-0.0942405
-0.0925066
-0.090894
-0.0894013
-0.0880274
-0.0867712
-0.085632
-0.0846089
-0.0837012
-0.0829084
-0.0822297
-0.0816649
-0.0812135
-0.0808753
-0.0806499
-0.0805372
-0.129643
-0.126105
-0.12285
-0.119578
-0.116449
-0.113471
-0.110648
-0.107973
-0.10544
-0.10304
-0.100771
-0.0986278
-0.0966073
-0.0947073
-0.0929258
-0.0912612
-0.0897122
-0.0882777
-0.0869567
-0.0857484
-0.0846521
-0.0836672
-0.0827931
-0.0820293
-0.0813754
-0.080831
-0.0803958
-0.0800697
-0.0798524
-0.0797438
-0.126637
-0.123245
-0.120144
-0.117025
-0.114044
-0.111206
-0.108515
-0.105964
-0.103546
-0.101255
-0.0990866
-0.0970374
-0.0951045
-0.0932856
-0.0915791
-0.0899836
-0.088498
-0.0871215
-0.0858532
-0.0846926
-0.0836391
-0.0826921
-0.0818514
-0.0811166
-0.0804873
-0.0799633
-0.0795443
-0.0792303
-0.0790209
-0.0789163
-0.123574
-0.120334
-0.117393
-0.114432
-0.111601
-0.108906
-0.106349
-0.103922
-0.101621
-0.0994389
-0.0973721
-0.0954172
-0.0935718
-0.091834
-0.0902023
-0.0886757
-0.0872533
-0.0859345
-0.0847187
-0.0836055
-0.0825944
-0.0816853
-0.0808779
-0.0801718
-0.079567
-0.0790632
-0.0786603
-0.0783583
-0.0781569
-0.0780563
-0.120457
-0.117377
-0.114601
-0.111802
-0.109125
-0.106575
-0.104153
-0.101852
-0.099668
-0.0975953
-0.09563
-0.0937694
-0.0920113
-0.0903543
-0.0887972
-0.0873392
-0.0859797
-0.0847183
-0.0835547
-0.0824886
-0.0815198
-0.0806483
-0.0798738
-0.0791963
-0.0786158
-0.0781321
-0.0777452
-0.0774551
-0.0772617
-0.077165
-0.117292
-0.114378
-0.111771
-0.109137
-0.106618
-0.104215
-0.101929
-0.0997554
-0.0976892
-0.095726
-0.0938624
-0.092096
-0.0904251
-0.0888486
-0.0873657
-0.085976
-0.084679
-0.0834746
-0.0823628
-0.0813435
-0.0804167
-0.0795824
-0.0788407
-0.0781917
-0.0776352
-0.0771715
-0.0768005
-0.0765222
-0.0763367
-0.0762439
-0.114082
-0.111341
-0.108908
-0.106443
-0.104083
-0.101829
-0.0996807
-0.097635
-0.0956872
-0.0938336
-0.0920716
-0.0903991
-0.0888151
-0.0873188
-0.0859097
-0.0845878
-0.0833529
-0.0822052
-0.0811448
-0.0801719
-0.0792867
-0.0784894
-0.0777802
-0.0771592
-0.0766267
-0.0761827
-0.0758274
-0.0755609
-0.0753831
-0.0752943
-0.110834
-0.108271
-0.106017
-0.103723
-0.101525
-0.0994205
-0.0974113
-0.0954938
-0.0936645
-0.0919206
-0.0902598
-0.088681
-0.0871835
-0.0857668
-0.0844311
-0.0831765
-0.0820032
-0.0809116
-0.0799021
-0.0789752
-0.0781312
-0.0773705
-0.0766935
-0.0761004
-0.0755915
-0.0751671
-0.0748274
-0.0745725
-0.0744024
-0.0743174
-0.107555
-0.105175
-0.103101
-0.100982
-0.0989468
-0.0969937
-0.0951238
-0.0933347
-0.091624
-0.0899894
-0.0884296
-0.0869439
-0.0855323
-0.0841947
-0.0829317
-0.0817438
-0.0806315
-0.0795955
-0.0786365
-0.0777551
-0.0769519
-0.0762274
-0.0755822
-0.0750166
-0.0745312
-0.0741261
-0.0738018
-0.0735583
-0.0733959
-0.0733147
-0.104251
-0.102058
-0.100168
-0.0982238
-0.0963533
-0.0945518
-0.0928214
-0.0911608
-0.0895682
-0.0880425
-0.0865831
-0.08519
-0.0838636
-0.0826045
-0.0814135
-0.0802916
-0.0792397
-0.0782587
-0.0773495
-0.0765131
-0.0757501
-0.0750614
-0.0744476
-0.0739093
-0.0734469
-0.073061
-0.0727518
-0.0725197
-0.0723649
-0.0722874
-0.100928
-0.0989269
-0.097221
-0.0954539
-0.0937484
-0.0920987
-0.0905077
-0.088975
-0.0875001
-0.0860826
-0.0847229
-0.0834215
-0.0821795
-0.080998
-0.0798783
-0.0788216
-0.0778293
-0.0769026
-0.0760427
-0.0752506
-0.0745274
-0.073874
-0.0732912
-0.0727797
-0.0723402
-0.0719731
-0.0716789
-0.071458
-0.0713106
-0.0712368
-0.097595
-0.0957872
-0.094267
-0.0926771
-0.0911364
-0.0896382
-0.088186
-0.0867805
-0.0854224
-0.0841123
-0.0828512
-0.0816406
-0.0804821
-0.0793773
-0.0783279
-0.0773356
-0.0764022
-0.075529
-0.0747176
-0.0739693
-0.0732853
-0.0726667
-0.0721144
-0.0716294
-0.0712123
-0.0708638
-0.0705844
-0.0703745
-0.0702343
-0.0701642
-0.0942588
-0.0926458
-0.0913113
-0.0898982
-0.0885219
-0.0871742
-0.0858598
-0.0845805
-0.0833381
-0.0821342
-0.0809706
-0.0798497
-0.0787735
-0.0777443
-0.0767642
-0.0758354
-0.0749599
-0.0741395
-0.0733758
-0.0726706
-0.0720251
-0.0714407
-0.0709185
-0.0704595
-0.0700645
-0.0697342
-0.0694694
-0.0692703
-0.0691374
-0.0690709
-0.0909271
-0.0895096
-0.0883598
-0.0871226
-0.0859092
-0.0847107
-0.0835326
-0.0823781
-0.08125
-0.0801508
-0.0790835
-0.0780508
-0.0770557
-0.0761009
-0.0751891
-0.0743227
-0.0735041
-0.0727355
-0.0720188
-0.0713559
-0.0707483
-0.0701975
-0.0697048
-0.0692714
-0.0688981
-0.0685858
-0.0683352
-0.0681468
-0.068021
-0.067958
-0.0876076
-0.0863851
-0.0854183
-0.0843551
-0.0833028
-0.0822516
-0.081208
-0.0801765
-0.0791608
-0.0781648
-0.0771921
-0.0762462
-0.0753308
-0.0744491
-0.0736043
-0.0727992
-0.0720365
-0.0713187
-0.0706481
-0.0700267
-0.0694562
-0.0689385
-0.0684747
-0.0680664
-0.0677144
-0.0674197
-0.0671831
-0.0670051
-0.0668862
-0.0668267
-0.084308
-0.083279
-0.0824926
-0.081601
-0.0807071
-0.0798008
-0.0788894
-0.0779787
-0.0770736
-0.0761787
-0.0752988
-0.0744381
-0.0736009
-0.0727908
-0.0720116
-0.0712665
-0.0705586
-0.0698906
-0.0692651
-0.0686843
-0.0681503
-0.0676648
-0.0672295
-0.0668457
-0.0665146
-0.0662371
-0.0660142
-0.0658465
-0.0657344
-0.0656783
-0.0810357
-0.0801978
-0.0795884
-0.0788651
-0.0781265
-0.0773621
-0.0765803
-0.0757878
-0.0749909
-0.0741951
-0.073406
-0.0726286
-0.0718677
-0.0711278
-0.0704127
-0.0697263
-0.069072
-0.0684527
-0.0678713
-0.0673303
-0.0668318
-0.066378
-0.0659704
-0.0656106
-0.0652999
-0.0650393
-0.0648298
-0.0646721
-0.0645667
-0.0645139
-0.0777981
-0.0771479
-0.0767113
-0.0761523
-0.0755653
-0.0749393
-0.0742839
-0.0736069
-0.0729155
-0.0722163
-0.0715158
-0.0708197
-0.0701334
-0.0694618
-0.0688094
-0.0681802
-0.0675781
-0.0670064
-0.066468
-0.0659658
-0.0655021
-0.0650791
-0.0646986
-0.0643622
-0.0640714
-0.0638274
-0.063631
-0.063483
-0.0633841
-0.0633345
-0.0746022
-0.0741353
-0.0738666
-0.0734673
-0.0730276
-0.0725362
-0.0720036
-0.0714388
-0.07085
-0.0702449
-0.0696305
-0.0690135
-0.0683997
-0.0677946
-0.0672032
-0.0666298
-0.0660785
-0.0655531
-0.0650567
-0.0645922
-0.0641624
-0.0637694
-0.0634153
-0.0631018
-0.0628304
-0.0626024
-0.0624188
-0.0622804
-0.0621878
-0.0621414
-0.0714548
-0.071166
-0.0710594
-0.0708147
-0.0705173
-0.0701561
-0.0697424
-0.0692863
-0.068797
-0.068283
-0.0677522
-0.0672119
-0.0666685
-0.066128
-0.0655957
-0.0650765
-0.0645746
-0.0640941
-0.0636385
-0.0632108
-0.0628139
-0.0624501
-0.0621217
-0.0618305
-0.061578
-0.0613656
-0.0611944
-0.0610653
-0.0609789
-0.0609356
-0.0683623
-0.0682454
-0.0682947
-0.0681986
-0.0680383
-0.0678024
-0.0675034
-0.0671522
-0.0667589
-0.0663329
-0.0658829
-0.0654168
-0.0649415
-0.0644635
-0.0639885
-0.0635217
-0.0630678
-0.0626309
-0.0622148
-0.0618228
-0.0614578
-0.0611224
-0.0608189
-0.0605493
-0.0603152
-0.060118
-0.0599589
-0.0598388
-0.0597583
-0.059718
-0.0653305
-0.0653788
-0.065577
-0.0656232
-0.065594
-0.0654784
-0.0652894
-0.0650389
-0.0647379
-0.0643967
-0.0640246
-0.06363
-0.0632204
-0.0628027
-0.0623831
-0.061967
-0.0615594
-0.0611647
-0.0607868
-0.0604293
-0.0600952
-0.0597873
-0.059508
-0.0592593
-0.059043
-0.0588606
-0.0587132
-0.0586018
-0.0585272
-0.0584898
-0.0623651
-0.0625709
-0.0629105
-0.0630921
-0.063188
-0.0631869
-0.0631031
-0.062949
-0.0627364
-0.0624765
-0.0621791
-0.0618531
-0.0615068
-0.0611472
-0.0607808
-0.0604136
-0.0600506
-0.0596966
-0.0593557
-0.0590315
-0.0587273
-0.058446
-0.0581901
-0.0579616
-0.0577625
-0.0575943
-0.0574583
-0.0573554
-0.0572864
-0.0572518
-0.0594709
-0.0598261
-0.0602992
-0.060609
-0.0608231
-0.0609309
-0.060947
-0.0608846
-0.0607564
-0.060574
-0.060348
-0.0600879
-0.0598021
-0.0594982
-0.0591831
-0.0588628
-0.0585428
-0.0582279
-0.0579226
-0.0576305
-0.0573552
-0.0570995
-0.0568661
-0.0566572
-0.0564747
-0.0563203
-0.0561952
-0.0561005
-0.056037
-0.056005
-0.0566525
-0.0571484
-0.0577465
-0.0581768
-0.0585023
-0.0587127
-0.0588233
-0.0588479
-0.0587997
-0.0586912
-0.0585332
-0.0583358
-0.0581078
-0.0578572
-0.0575911
-0.0573158
-0.057037
-0.0567597
-0.0564885
-0.0562274
-0.0559797
-0.0557487
-0.055537
-0.055347
-0.0551805
-0.0550394
-0.0549248
-0.054838
-0.0547797
-0.0547504
-0.0539138
-0.0545412
-0.0552557
-0.0557985
-0.0562281
-0.0565348
-0.0567342
-0.0568407
-0.0568682
-0.0568295
-0.0567361
-0.0565983
-0.0564253
-0.0562254
-0.0560061
-0.0557737
-0.0555343
-0.055293
-0.0550546
-0.054823
-0.054602
-0.0543946
-0.0542038
-0.0540318
-0.0538808
-0.0537524
-0.0536481
-0.0535688
-0.0535156
-0.0534888
-0.0512581
-0.0520076
-0.0528295
-0.0534765
-0.0540028
-0.0543991
-0.0546816
-0.0548649
-0.0549635
-0.0549905
-0.054958
-0.0548765
-0.0547557
-0.0546041
-0.0544291
-0.0542377
-0.0540358
-0.0538289
-0.0536217
-0.0534184
-0.0532228
-0.0530382
-0.0528673
-0.0527127
-0.0525765
-0.0524603
-0.0523657
-0.0522938
-0.0522454
-0.052221
-0.0486884
-0.0495501
-0.0504702
-0.0512129
-0.0518284
-0.0523076
-0.0526671
-0.0529219
-0.0530869
-0.0531756
-0.0532002
-0.0531719
-0.0531003
-0.0529941
-0.0528613
-0.0527087
-0.0525425
-0.0523682
-0.0521908
-0.0520145
-0.0518432
-0.0516802
-0.0515284
-0.0513904
-0.0512683
-0.0511639
-0.0510786
-0.0510137
-0.0509699
-0.0509479
-0.0462069
-0.0471707
-0.0481798
-0.0490096
-0.0497064
-0.0502617
-0.0506922
-0.0510132
-0.0512398
-0.0513859
-0.051464
-0.0514854
-0.0514599
-0.0513967
-0.0513035
-0.0511876
-0.0510551
-0.0509118
-0.0507627
-0.050612
-0.0504638
-0.0503215
-0.0501879
-0.0500657
-0.0499571
-0.0498639
-0.0497876
-0.0497293
-0.04969
-0.0496702
-0.0438154
-0.0448712
-0.0459599
-0.0468681
-0.0476384
-0.0482628
-0.0487582
-0.0491399
-0.0494232
-0.0496225
-0.0497502
-0.0498179
-0.0498357
-0.0498126
-0.0497567
-0.0496753
-0.0495747
-0.0494607
-0.0493382
-0.0492119
-0.0490856
-0.0489628
-0.0488465
-0.0487394
-0.0486436
-0.0485611
-0.0484932
-0.0484413
-0.0484062
-0.0483886
-0.0415151
-0.0426527
-0.0438114
-0.0447894
-0.0456253
-0.0463119
-0.0468659
-0.0473029
-0.0476382
-0.0478863
-0.0480598
-0.0481705
-0.0482284
-0.0482427
-0.0482217
-0.0481726
-0.0481019
-0.0480154
-0.0479181
-0.0478147
-0.0477091
-0.0476049
-0.047505
-0.0474122
-0.0473286
-0.0472561
-0.0471964
-0.0471505
-0.0471195
-0.0471038
-0.0393067
-0.0405158
-0.0417353
-0.0427742
-0.043668
-0.0444098
-0.0450163
-0.045503
-0.0458855
-0.046178
-0.0463936
-0.0465437
-0.0466387
-0.0466877
-0.0466991
-0.0466802
-0.0466374
-0.0465767
-0.0465031
-0.0464213
-0.0463352
-0.0462484
-0.046164
-0.0460847
-0.0460126
-0.0459498
-0.0458977
-0.0458575
-0.0458303
-0.0458165
-0.0371904
-0.0384609
-0.0397319
-0.0408231
-0.0417669
-0.042557
-0.0432099
-0.0437409
-0.0441656
-0.0444984
-0.0447521
-0.0449382
-0.0450672
-0.0451483
-0.0451896
-0.0451987
-0.0451819
-0.0451452
-0.0450938
-0.0450321
-0.0449644
-0.044894
-0.0448242
-0.0447575
-0.0446964
-0.0446425
-0.0445977
-0.0445629
-0.0445393
-0.0445273
-0.0351659
-0.0364878
-0.0378011
-0.0389361
-0.0399223
-0.0407539
-0.041447
-0.0420169
-0.0424791
-0.0428478
-0.0431358
-0.0433546
-0.0435146
-0.0436249
-0.0436938
-0.0437286
-0.0437359
-0.0437216
-0.0436907
-0.0436479
-0.0435972
-0.0435422
-0.0434861
-0.0434314
-0.0433804
-0.0433351
-0.043297
-0.0432674
-0.0432471
-0.0432369
-0.0332325
-0.034596
-0.0359426
-0.0371131
-0.0381341
-0.0390004
-0.0397277
-0.0403313
-0.0408262
-0.0412266
-0.0415451
-0.0417932
-0.0419811
-0.042118
-0.0422121
-0.0422705
-0.0423
-0.0423062
-0.0422944
-0.042269
-0.0422343
-0.0421937
-0.0421502
-0.0421067
-0.0420653
-0.0420279
-0.0419962
-0.0419714
-0.0419543
-0.0419456
-0.0313889
-0.0327845
-0.0341557
-0.0353535
-0.0364019
-0.0372964
-0.0380521
-0.0386841
-0.039207
-0.0396349
-0.0399803
-0.0402544
-0.0404673
-0.040628
-0.0407448
-0.0408248
-0.0408745
-0.0408996
-0.0409053
-0.0408961
-0.0408761
-0.0408487
-0.0408171
-0.040784
-0.0407515
-0.0407216
-0.0406958
-0.0406755
-0.0406614
-0.0406542
-0.0296338
-0.031052
-0.0324393
-0.0336565
-0.0347253
-0.0356414
-0.0364199
-0.0370751
-0.0376215
-0.0380729
-0.0384414
-0.0387382
-0.0389731
-0.0391552
-0.0392924
-0.0393917
-0.0394598
-0.0395021
-0.0395238
-0.0395295
-0.039523
-0.0395079
-0.0394873
-0.0394637
-0.0394395
-0.0394165
-0.0393963
-0.0393801
-0.0393688
-0.039363
-0.0279649
-0.0293969
-0.0307922
-0.0320212
-0.0331033
-0.034035
-0.0348306
-0.035504
-0.0360696
-0.0365404
-0.0369285
-0.0372448
-0.0374989
-0.0376997
-0.037855
-0.0379717
-0.0380562
-0.0381141
-0.0381504
-0.0381695
-0.0381754
-0.0381716
-0.038161
-0.0381463
-0.0381298
-0.0381132
-0.0380981
-0.0380857
-0.038077
-0.0380725
-0.0263801
-0.0278173
-0.0292128
-0.0304461
-0.031535
-0.0324762
-0.0332836
-0.0339705
-0.0345508
-0.0350372
-0.0354415
-0.0357742
-0.0360447
-0.0362617
-0.0364327
-0.0365648
-0.0366639
-0.0367358
-0.0367852
-0.0368165
-0.0368337
-0.0368401
-0.0368388
-0.0368322
-0.0368227
-0.0368119
-0.0368016
-0.0367928
-0.0367864
-0.0367831
-0.0248768
-0.0263108
-0.0276991
-0.0289298
-0.0300191
-0.0309641
-0.0317781
-0.0324739
-0.0330647
-0.0335631
-0.0339801
-0.0343262
-0.0346104
-0.0348411
-0.0350258
-0.0351711
-0.0352832
-0.0353674
-0.0354285
-0.0354708
-0.0354982
-0.0355139
-0.0355209
-0.0355217
-0.0355185
-0.0355132
-0.0355072
-0.0355016
-0.0354974
-0.0354952
-0.0234519
-0.0248751
-0.026249
-0.0274705
-0.0285542
-0.0294976
-0.0303132
-0.0310134
-0.0316109
-0.0321175
-0.0325441
-0.0329006
-0.0331959
-0.033438
-0.0336341
-0.0337909
-0.0339142
-0.0340091
-0.0340806
-0.0341326
-0.034169
-0.034193
-0.0342076
-0.0342151
-0.0342177
-0.0342173
-0.0342152
-0.0342126
-0.0342104
-0.0342092
-0.0221023
-0.0235073
-0.0248602
-0.0260662
-0.0271386
-0.0280752
-0.0288878
-0.0295882
-0.0301885
-0.0307
-0.0311331
-0.0314972
-0.031801
-0.0320522
-0.0322578
-0.0324241
-0.0325568
-0.0326611
-0.0327415
-0.0328021
-0.0328465
-0.0328779
-0.0328991
-0.0329127
-0.0329205
-0.0329244
-0.0329259
-0.032926
-0.0329256
-0.0329253
-0.0208246
-0.0222044
-0.0235302
-0.0247149
-0.0257706
-0.0266955
-0.0275007
-0.0281974
-0.0287968
-0.0293099
-0.0297465
-0.0301156
-0.0304254
-0.0306835
-0.0308965
-0.0310706
-0.0312112
-0.0313234
-0.0314114
-0.0314794
-0.0315307
-0.0315686
-0.0315958
-0.0316146
-0.0316271
-0.031635
-0.0316396
-0.0316421
-0.0316433
-0.0316438
-0.0196151
-0.0209634
-0.0222563
-0.0234141
-0.0244482
-0.0253568
-0.0261506
-0.0268397
-0.0274349
-0.0279465
-0.0283837
-0.0287553
-0.0290689
-0.0293317
-0.0295503
-0.0297304
-0.0298773
-0.0299959
-0.0300904
-0.0301645
-0.0302219
-0.0302654
-0.0302977
-0.0303212
-0.0303378
-0.0303491
-0.0303565
-0.0303612
-0.0303639
-0.0303651
-0.0184701
-0.0197809
-0.0210356
-0.0221616
-0.0231694
-0.0240576
-0.024836
-0.025514
-0.0261019
-0.026609
-0.0270443
-0.0274158
-0.0277309
-0.0279966
-0.0282188
-0.0284033
-0.0285551
-0.0286787
-0.0287784
-0.0288577
-0.0289201
-0.0289683
-0.0290051
-0.0290326
-0.0290527
-0.029067
-0.0290769
-0.0290835
-0.0290874
-0.0290892
-0.0173855
-0.0186535
-0.0198652
-0.0209547
-0.021932
-0.0227959
-0.0235554
-0.0242191
-0.0247966
-0.0252965
-0.0257273
-0.0260965
-0.0264112
-0.0266777
-0.0269019
-0.0270891
-0.0272443
-0.0273717
-0.0274754
-0.0275589
-0.0276253
-0.0276775
-0.027718
-0.0277488
-0.027772
-0.0277889
-0.027801
-0.0278091
-0.0278141
-0.0278165
-0.0163574
-0.0175775
-0.0187418
-0.0197908
-0.0207338
-0.0215699
-0.0223071
-0.0229536
-0.0235179
-0.0240082
-0.0244321
-0.0247969
-0.025109
-0.0253746
-0.0255991
-0.0257877
-0.0259448
-0.0260748
-0.0261814
-0.026268
-0.0263376
-0.026393
-0.0264365
-0.0264701
-0.0264958
-0.0265149
-0.0265288
-0.0265383
-0.0265443
-0.0265471
-0.0153814
-0.0165493
-0.0176624
-0.0186671
-0.0195725
-0.0203775
-0.0210896
-0.0217161
-0.0222647
-0.0227429
-0.0231579
-0.0235162
-0.023824
-0.0240869
-0.0243102
-0.0244986
-0.0246565
-0.0247879
-0.0248963
-0.024985
-0.025057
-0.0251148
-0.0251606
-0.0251965
-0.0252242
-0.0252451
-0.0252605
-0.0252712
-0.0252779
-0.0252811
-0.0144535
-0.0155652
-0.0166237
-0.0175809
-0.0184456
-0.0192167
-0.0199011
-0.0205051
-0.0210357
-0.0214997
-0.0219037
-0.0222537
-0.0225554
-0.0228142
-0.0230347
-0.0232216
-0.023379
-0.0235107
-0.0236199
-0.0237099
-0.0237834
-0.0238429
-0.0238905
-0.0239281
-0.0239573
-0.0239797
-0.0239962
-0.0240078
-0.0240151
-0.0240187
-0.0135692
-0.0146214
-0.0156223
-0.0165293
-0.0173506
-0.0180855
-0.0187398
-0.0193191
-0.0198296
-0.0202775
-0.0206687
-0.0210087
-0.0213028
-0.0215558
-0.0217723
-0.0219565
-0.0221122
-0.0222431
-0.0223522
-0.0224426
-0.0225169
-0.0225773
-0.022626
-0.0226648
-0.0226952
-0.0227186
-0.022736
-0.0227483
-0.0227561
-0.02276
-0.0127243
-0.0137141
-0.014655
-0.0155093
-0.0162852
-0.0169817
-0.0176039
-0.0181565
-0.0186452
-0.0190752
-0.0194519
-0.0197804
-0.0200653
-0.0203112
-0.0205224
-0.0207027
-0.0208557
-0.0209847
-0.0210929
-0.0211828
-0.0212571
-0.0213179
-0.0213672
-0.0214066
-0.0214378
-0.0214619
-0.0214799
-0.0214927
-0.0215009
-0.0215049
-0.0119145
-0.0128394
-0.0137184
-0.0145183
-0.0152469
-0.0159033
-0.0164916
-0.017016
-0.0174811
-0.0178917
-0.0182525
-0.0185679
-0.0188424
-0.01908
-0.0192846
-0.0194599
-0.0196092
-0.0197355
-0.0198418
-0.0199306
-0.0200042
-0.0200647
-0.020114
-0.0201537
-0.0201852
-0.0202096
-0.020228
-0.0202411
-0.0202496
-0.0202537
-0.0111352
-0.0119934
-0.0128091
-0.0135532
-0.0142332
-0.014848
-0.0154011
-0.0158958
-0.016336
-0.0167258
-0.0170693
-0.0173704
-0.0176332
-0.0178614
-0.0180584
-0.0182276
-0.0183722
-0.018495
-0.0185986
-0.0186855
-0.0187578
-0.0188175
-0.0188663
-0.0189058
-0.0189372
-0.0189617
-0.0189802
-0.0189935
-0.019002
-0.0190062
-0.0103823
-0.0111726
-0.011924
-0.0126112
-0.0132416
-0.0138139
-0.0143307
-0.0147945
-0.0152087
-0.0155765
-0.0159015
-0.0161872
-0.0164372
-0.0166549
-0.0168433
-0.0170056
-0.0171446
-0.017263
-0.0173633
-0.0174476
-0.017518
-0.0175763
-0.0176242
-0.017663
-0.017694
-0.0177183
-0.0177367
-0.0177499
-0.0177584
-0.0177626
-0.00965148
-0.0103729
-0.0110596
-0.0116895
-0.0122697
-0.0127987
-0.0132784
-0.0137105
-0.0140975
-0.0144423
-0.0147479
-0.0150172
-0.0152535
-0.0154596
-0.0156386
-0.0157931
-0.0159258
-0.0160391
-0.0161352
-0.0162164
-0.0162843
-0.0163407
-0.0163872
-0.016425
-0.0164553
-0.0164791
-0.0164972
-0.0165102
-0.0165186
-0.0165227
-0.00893847
-0.00959088
-0.010213
-0.0107856
-0.0113155
-0.0118008
-0.0122428
-0.0126425
-0.0130017
-0.0133227
-0.0136079
-0.01386
-0.0140816
-0.0142754
-0.0144441
-0.01459
-0.0147156
-0.0148231
-0.0149146
-0.014992
-0.0150569
-0.015111
-0.0151557
-0.0151921
-0.0152214
-0.0152444
-0.015262
-0.0152746
-0.0152828
-0.0152868
-0.00823904
-0.00882266
-0.00938065
-0.00989631
-0.010376
-0.0108176
-0.0112217
-0.0115885
-0.0119193
-0.0122158
-0.01248
-0.012714
-0.0129202
-0.013101
-0.0132586
-0.0133952
-0.0135131
-0.0136143
-0.0137005
-0.0137735
-0.013835
-0.0138864
-0.0139288
-0.0139636
-0.0139916
-0.0140136
-0.0140305
-0.0140426
-0.0140505
-0.0140543
-0.00754923
-0.00806519
-0.00856032
-0.00901998
-0.00945011
-0.00984828
-0.0102143
-0.010548
-0.0108501
-0.0111215
-0.011364
-0.0115794
-0.0117696
-0.0119366
-0.0120825
-0.0122093
-0.0123189
-0.012413
-0.0124935
-0.0125618
-0.0126193
-0.0126675
-0.0127075
-0.0127402
-0.0127666
-0.0127875
-0.0128034
-0.012815
-0.0128224
-0.0128261
-0.00686486
-0.00731439
-0.00774808
-0.00815292
-0.00853433
-0.00888956
-0.00921781
-0.00951835
-0.0097913
-0.0100374
-0.0102578
-0.0104539
-0.0106275
-0.0107802
-0.0109138
-0.0110302
-0.0111309
-0.0112176
-0.0112918
-0.0113549
-0.0114082
-0.0114529
-0.01149
-0.0115204
-0.011545
-0.0115645
-0.0115794
-0.0115902
-0.0115972
-0.0116007
-0.00618237
-0.00656818
-0.00694292
-0.00729486
-0.0076289
-0.00794201
-0.00823288
-0.00850035
-0.00874413
-0.00896455
-0.00916243
-0.00933893
-0.00949541
-0.00963333
-0.00975424
-0.00985964
-0.00995102
-0.0100298
-0.0100973
-0.0101548
-0.0102035
-0.0102444
-0.0102783
-0.0103063
-0.0103289
-0.0103468
-0.0103605
-0.0103704
-0.0103769
-0.0103801
-0.00549769
-0.00582192
-0.00613993
-0.00644081
-0.00672887
-0.00700078
-0.00725482
-0.00748946
-0.00770406
-0.00789865
-0.00807375
-0.00823025
-0.00836923
-0.00849193
-0.00859965
-0.00869369
-0.00877534
-0.00884582
-0.00890631
-0.00895791
-0.00900162
-0.00903836
-0.00906896
-0.00909414
-0.00911456
-0.00913074
-0.00914315
-0.00915215
-0.00915801
-0.00916092
-0.00480793
-0.00507542
-0.00534071
-0.00559347
-0.00583756
-0.00606955
-0.0062875
-0.00648968
-0.00667524
-0.00684395
-0.0069961
-0.00713233
-0.00725352
-0.00736066
-0.00745485
-0.00753717
-0.00760872
-0.00767057
-0.00772371
-0.00776908
-0.00780756
-0.00783994
-0.00786694
-0.00788919
-0.00790724
-0.00792156
-0.00793255
-0.00794052
-0.00794572
-0.00794824
-0.00410918
-0.00432245
-0.00453758
-0.00474442
-0.00494618
-0.00513939
-0.00532197
-0.00549209
-0.00564873
-0.00579152
-0.00592056
-0.0060363
-0.0061394
-0.00623067
-0.00631099
-0.00638127
-0.00644243
-0.00649534
-0.00654084
-0.00657974
-0.00661275
-0.00664056
-0.00666377
-0.00668291
-0.00669845
-0.00671079
-0.00672027
-0.00672715
-0.00673164
-0.00673394
-0.00339972
-0.00356677
-0.00373781
-0.00390275
-0.00406475
-0.00422077
-0.00436896
-0.00450758
-0.00463561
-0.00475261
-0.00485854
-0.00495369
-0.00503856
-0.00511378
-0.00518004
-0.00523807
-0.0052886
-0.00533235
-0.00537001
-0.00540222
-0.00542958
-0.00545264
-0.0054719
-0.0054878
-0.00550071
-0.00551097
-0.00551885
-0.00552457
-0.0055283
-0.00553007
-0.0026757
-0.00279782
-0.00292665
-0.00305139
-0.003175
-0.00329482
-0.00340925
-0.00351669
-0.00361622
-0.00370736
-0.00379002
-0.00386437
-0.00393076
-0.00398965
-0.00404157
-0.00408707
-0.00412672
-0.00416108
-0.00419067
-0.00421599
-0.00423752
-0.00425567
-0.00427084
-0.00428336
-0.00429355
-0.00430164
-0.00430786
-0.00431237
-0.00431532
-0.00431698
-0.00193727
-0.00202767
-0.00212326
-0.0022129
-0.00230115
-0.0023866
-0.00246837
-0.00254535
-0.00261685
-0.00268246
-0.00274207
-0.00279575
-0.00284373
-0.00288632
-0.00292389
-0.00295684
-0.00298556
-0.00301045
-0.00303189
-0.00305025
-0.00306586
-0.00307902
-0.00309003
-0.00309911
-0.0031065
-0.00311238
-0.00311689
-0.00312015
-0.00312225
-0.00312306
-0.00117972
-0.00123394
-0.00129418
-0.00134782
-0.00140081
-0.00145204
-0.00150116
-0.00154752
-0.00159068
-0.00163036
-0.00166646
-0.001699
-0.0017281
-0.00175395
-0.00177677
-0.00179678
-0.00181423
-0.00182935
-0.00184239
-0.00185354
-0.00186303
-0.00187104
-0.00187773
-0.00188326
-0.00188775
-0.00189132
-0.00189407
-0.00189605
-0.00189731
-0.00189827
-0.00040585
-0.00044468
-0.000480026
-0.000503582
-0.000524718
-0.00054355
-0.000561209
-0.000577806
-0.000593321
-0.000607658
-0.000620751
-0.000632584
-0.00064318
-0.000652595
-0.000660901
-0.000668183
-0.000674527
-0.000680021
-0.00068475
-0.000688793
-0.000692226
-0.000695118
-0.000697532
-0.000699522
-0.000701137
-0.000702419
-0.000703405
-0.000704117
-0.000704463
-0.000703871
-0.180316
-0.178279
-0.176216
-0.174125
-0.172005
-0.169851
-0.167661
-0.165431
-0.163158
-0.160837
-0.158464
-0.156035
-0.153548
-0.150999
-0.148384
-0.145702
-0.142952
-0.140132
-0.137242
-0.134282
-0.131256
-0.128164
-0.125009
-0.121796
-0.11853
-0.115216
-0.111859
-0.108467
-0.105046
-0.101605
-0.0981509
-0.0946921
-0.0912371
-0.0877942
-0.0843717
-0.0809779
-0.0776207
-0.0743077
-0.0710463
-0.0678435
-0.0647059
-0.0616396
-0.0586498
-0.0557417
-0.0529194
-0.0501867
-0.0475466
-0.0450018
-0.042554
-0.0402046
-0.0379544
-0.0358035
-0.0337515
-0.0317978
-0.0299409
-0.0281791
-0.0265102
-0.0249318
-0.0234408
-0.0220342
-0.0207084
-0.0194597
-0.0182842
-0.0171777
-0.0161359
-0.0151544
-0.0142287
-0.0133543
-0.0125264
-0.0117404
-0.0109915
-0.0102751
-0.00958647
-0.0089209
-0.0082737
-0.0076403
-0.00701597
-0.00639644
-0.00577669
-0.0051533
-0.00452037
-0.00387678
-0.00321389
-0.00253684
-0.00182942
-0.00111302
-0.000352816