/*--------------------------------*- C++ -*----------------------------------*\
  =========                 |
  \\      /  F ield         | OpenFOAM: The Open Source CFD Toolbox
   \\    /   O peration     | Website:  https://openfoam.org
    \\  /    A nd           | Version:  7
     \\/     M anipulation  |
\*---------------------------------------------------------------------------*/
FoamFile
{
    version     2.0;
    format      ascii;
    class       surfaceScalarField;
    location    "80";
    object      phi;
}
// * * * * * * * * * * * * * * * * * * * * * * * * * * * * * * * * * * * * * //

dimensions      [0 3 -1 0 0 0 0];

internalField   nonuniform List<scalar> 
6869
(
-0.000165003
0.0146647
0.000193395
-0.00013599
0.0157226
-0.000112165
0.0162045
-9.33612e-05
0.0163622
-7.79415e-05
0.0163703
-6.47504e-05
0.0163201
-5.31591e-05
0.0162514
-4.28612e-05
0.0161789
-3.37083e-05
0.0161076
-2.56211e-05
0.0160385
-1.8543e-05
0.0159717
-1.24189e-05
0.015907
-7.1949e-06
0.0158446
-2.80836e-06
0.0157845
8.01325e-07
0.015727
3.70385e-06
0.0156724
5.95315e-06
0.0156207
7.61008e-06
0.0155723
8.73198e-06
0.0155272
9.374e-06
0.0154856
9.59002e-06
0.0154475
9.43005e-06
0.015413
8.9424e-06
0.0153823
8.17327e-06
0.0153553
7.16554e-06
0.0153321
5.96281e-06
0.0153127
4.6057e-06
0.0152972
3.13358e-06
0.0152855
1.5853e-06
0.0152777
0.0152738
-0.000184215
0.0146382
0.000210755
-0.000155921
0.0156943
-0.000132024
0.0161806
-0.00011271
0.0163429
-9.66207e-05
0.0163542
-8.26906e-05
0.0163062
-7.03283e-05
0.016239
-5.92418e-05
0.0161678
-4.92901e-05
0.0160977
-4.03984e-05
0.0160296
-3.25133e-05
0.0159638
-2.55839e-05
0.0159001
-1.95555e-05
0.0158385
-1.43703e-05
0.0157793
-9.96677e-06
0.0157226
-6.28727e-06
0.0156687
-3.26839e-06
0.0156177
-8.52683e-07
0.0155699
1.01949e-06
0.0155253
2.40379e-06
0.0154842
3.35054e-06
0.0154465
3.91116e-06
0.0154125
4.13468e-06
0.0153821
4.06926e-06
0.0153553
3.75657e-06
0.0153324
3.24351e-06
0.0153132
2.57075e-06
0.0152978
1.77913e-06
0.0152863
9.08755e-07
0.0152786
0.0152747
-0.000203103
0.0146134
0.000227883
-0.000175494
0.0156667
-0.000151503
0.0161566
-0.000131683
0.0163231
-0.000114924
0.0163374
-0.000100258
0.0162915
-8.71316e-05
0.0162259
-7.52673e-05
0.016156
-6.45311e-05
0.0160869
-5.48513e-05
0.01602
-4.61771e-05
0.0159551
-3.84604e-05
0.0158924
-3.16478e-05
0.0158317
-2.56845e-05
0.0157733
-2.05111e-05
0.0157174
-1.6068e-05
0.0156642
-1.22956e-05
0.0156139
-9.13487e-06
0.0155667
-6.52924e-06
0.0155227
-4.42391e-06
0.0154821
-2.76455e-06
0.0154449
-1.50011e-06
0.0154112
-5.8156e-07
0.0153811
3.75192e-08
0.0153547
4.10667e-07
0.015332
5.74478e-07
0.015313
5.7339e-07
0.0152978
4.49618e-07
0.0152864
2.44727e-07
0.0152788
0.015275
-0.000221699
0.0145903
0.000244825
-0.000194729
0.0156397
-0.000170622
0.0161325
-0.00015029
0.0163028
-0.000132858
0.01632
-0.000117458
0.0162761
-0.000103573
0.016212
-9.09408e-05
0.0161433
-7.94326e-05
0.0160754
-6.89799e-05
0.0160095
-5.95335e-05
0.0159457
-5.10471e-05
0.0158839
-4.34697e-05
0.0158241
-3.67474e-05
0.0157666
-3.08227e-05
0.0157115
-2.56359e-05
0.0156591
-2.1129e-05
0.0156094
-1.72432e-05
0.0155628
-1.39218e-05
0.0155194
-1.11095e-05
0.0154793
-8.75244e-06
0.0154425
-6.79859e-06
0.0154093
-5.19786e-06
0.0153795
-3.9014e-06
0.0153534
-2.86452e-06
0.015331
-2.03982e-06
0.0153122
-1.38366e-06
0.0152972
-8.53249e-07
0.0152859
-4.06186e-07
0.0152783
0.0152746
-0.000240032
0.0145687
0.000261616
-0.000213644
0.0156133
-0.000189396
0.0161082
-0.000168541
0.0162819
-0.000150431
0.0163019
-0.000134296
0.01626
-0.000119656
0.0161973
-0.000106264
0.0161299
-9.39955e-05
0.0160632
-8.2784e-05
0.0159983
-7.25815e-05
0.0159355
-6.33428e-05
0.0158746
-5.50189e-05
0.0158158
-4.75565e-05
0.0157591
-4.08989e-05
0.0157049
-3.49877e-05
0.0156531
-2.97648e-05
0.0156042
-2.5172e-05
0.0155583
-2.11525e-05
0.0155154
-1.76506e-05
0.0154758
-1.46124e-05
0.0154395
-1.19854e-05
0.0154066
-9.71898e-06
0.0153773
-7.7642e-06
0.0153515
-6.07353e-06
0.0153293
-4.6008e-06
0.0153107
-3.30076e-06
0.0152959
-2.12957e-06
0.0152847
-1.04381e-06
0.0152773
0.0152735
-0.000258123
0.0145485
0.000278285
-0.000232253
0.0155875
-0.000207834
0.0160838
-0.000186442
0.0162605
-0.000167645
0.0162831
-0.000150773
0.0162431
-0.000135383
0.016182
-0.000121238
0.0161158
-0.00010822
0.0160501
-9.62628e-05
0.0159863
-8.53198e-05
0.0159245
-7.5346e-05
0.0158647
-6.62935e-05
0.0158068
-5.81093e-05
0.015751
-5.07376e-05
0.0156975
-4.41206e-05
0.0156465
-3.82002e-05
0.0155983
-3.29184e-05
0.015553
-2.82183e-05
0.0155107
-2.40441e-05
0.0154716
-2.03414e-05
0.0154358
-1.70575e-05
0.0154033
-1.41411e-05
0.0153744
-1.15425e-05
0.0153489
-9.21342e-06
0.015327
-7.10687e-06
0.0153086
-5.17692e-06
0.0152939
-3.37873e-06
0.0152829
-1.66788e-06
0.0152755
0.0152719
-0.000275987
0.0145297
0.000294854
-0.000250568
0.015562
-0.000225943
0.0160592
-0.000203996
0.0162386
-0.000184503
0.0162636
-0.000166891
0.0162255
-0.000150751
0.0161658
-0.000135861
0.0161009
-0.000122104
0.0160364
-0.000109415
0.0159737
-9.77467e-05
0.0159129
-8.70546e-05
0.015854
-7.7291e-05
0.015797
-6.84035e-05
0.0157421
-6.03362e-05
0.0156894
-5.3032e-05
0.0156392
-4.64325e-05
0.0155917
-4.04798e-05
0.015547
-3.51168e-05
0.0155053
-3.02876e-05
0.0154668
-2.59373e-05
0.0154314
-2.20127e-05
0.0153994
-1.8462e-05
0.0153708
-1.52349e-05
0.0153456
-1.22825e-05
0.015324
-9.55675e-06
0.0153059
-7.01119e-06
0.0152914
-4.60006e-06
0.0152805
-2.27808e-06
0.0152732
0.0152696
-0.000293633
0.014512
0.000311338
-0.000268591
0.015537
-0.000243723
0.0160343
-0.000221202
0.016216
-0.000201004
0.0162434
-0.000182647
0.0162072
-0.000165761
0.0161489
-0.000150132
0.0160853
-0.000135646
0.0160219
-0.000122238
0.0159602
-0.00010986
0.0159005
-9.84661e-05
0.0158426
-8.80092e-05
0.0157865
-7.84365e-05
0.0157325
-6.96924e-05
0.0156807
-6.17194e-05
0.0156312
-5.44592e-05
0.0155844
-4.78538e-05
0.0155404
-4.18457e-05
0.0154993
-3.63788e-05
0.0154613
-3.13978e-05
0.0154264
-2.6849e-05
0.0153949
-2.268e-05
0.0153666
-1.884e-05
0.0153418
-1.52793e-05
0.0153204
-1.19493e-05
0.0153026
-8.80274e-06
0.0152883
-5.79304e-06
0.0152775
-2.87414e-06
0.0152703
0.0152667
-0.000311065
0.0144953
0.000327742
-0.000286322
0.0155123
-0.000261172
0.0160092
-0.000238056
0.0161929
-0.000217142
0.0162225
-0.000198039
0.0161881
-0.000180408
0.0161313
-0.000164047
0.0160689
-0.000148843
0.0160067
-0.00013473
0.0159461
-0.000121656
0.0158874
-0.000109578
0.0158305
-9.84454e-05
0.0157754
-8.82059e-05
0.0157223
-7.88034e-05
0.0156713
-7.01803e-05
0.0156226
-6.2278e-05
0.0155765
-5.50381e-05
0.0155332
-4.84029e-05
0.0154927
-4.23157e-05
0.0154552
-3.6721e-05
0.0154209
-3.15646e-05
0.0153897
-2.67935e-05
0.0153619
-2.23563e-05
0.0153374
-1.82028e-05
0.0153163
-1.42836e-05
0.0152987
-1.05508e-05
0.0152845
-6.95717e-06
0.0152739
-3.4558e-06
0.0152668
0.0152633
-0.000328278
0.0144795
0.000344065
-0.000303755
0.0154877
-0.000278282
0.0159837
-0.000254552
0.0161692
-0.000232913
0.0162009
-0.00021306
0.0161682
-0.000194688
0.0161129
-0.000177603
0.0160518
-0.000161692
0.0159908
-0.000146886
0.0159313
-0.000133133
0.0158737
-0.000120387
0.0158178
-0.000108597
0.0157636
-9.77088e-05
0.0157114
-8.76668e-05
0.0156612
-7.84124e-05
0.0156134
-6.98865e-05
0.015568
-6.20305e-05
0.0155253
-5.47862e-05
0.0154854
-4.80964e-05
0.0154485
-4.19052e-05
0.0154147
-3.61579e-05
0.015384
-3.08011e-05
0.0153565
-2.57827e-05
0.0153324
-2.10518e-05
0.0153116
-1.65588e-05
0.0152942
-1.22548e-05
0.0152802
-8.09199e-06
0.0152697
-4.02285e-06
0.0152627
0.0152592
-0.000345261
0.0144645
0.000360297
-0.000320878
0.0154633
-0.000295042
0.0159579
-0.000270679
0.0161448
-0.000248306
0.0161785
-0.000227703
0.0161476
-0.000208594
0.0160938
-0.000190793
0.016034
-0.000174186
0.0159742
-0.000158702
0.0159158
-0.000144287
0.0158593
-0.00013089
0.0158044
-0.00011846
0.0157512
-0.000106943
0.0156999
-9.628e-05
0.0156506
-8.64131e-05
0.0156035
-7.72825e-05
0.0155589
-6.88289e-05
0.0155169
-6.09936e-05
0.0154776
-5.37191e-05
0.0154412
-4.69488e-05
0.0154079
-4.06275e-05
0.0153776
-3.47014e-05
0.0153506
-2.91179e-05
0.0153268
-2.38255e-05
0.0153063
-1.8774e-05
0.0152891
-1.3914e-05
0.0152754
-9.19711e-06
0.015265
-4.57508e-06
0.0152581
0.0152547
-0.000361996
0.01445
0.000376421
-0.000337674
0.015439
-0.000311437
0.0159316
-0.000286423
0.0161198
-0.000263311
0.0161554
-0.000241959
0.0161263
-0.000222119
0.016074
-0.000203611
0.0160155
-0.000186322
0.0159569
-0.000170175
0.0158997
-0.000155113
0.0158442
-0.000141083
0.0157903
-0.000128033
0.0157381
-0.000115904
0.0156877
-0.00010464
0.0156393
-9.41802e-05
0.015593
-8.44639e-05
0.0155492
-7.54314e-05
0.0155078
-6.70235e-05
0.0154692
-5.9182e-05
0.0154334
-5.18501e-05
0.0154006
-4.49719e-05
0.0153708
-3.84932e-05
0.0153441
-3.23609e-05
0.0153206
-2.65229e-05
0.0153004
-2.09286e-05
0.0152835
-1.5528e-05
0.01527
-1.02722e-05
0.0152598
-5.11231e-06
0.015253
0.0152496
-0.00037846
0.0144361
0.000392411
-0.000354122
0.0154147
-0.000327446
0.015905
-0.000301767
0.0160941
-0.000277913
0.0161315
-0.000255815
0.0161042
-0.000235252
0.0160534
-0.000216049
0.0159963
-0.000198091
0.0159389
-0.000181298
0.0158829
-0.000165607
0.0158285
-0.000150963
0.0157757
-0.000137311
0.0157245
-0.000124591
0.015675
-0.000112745
0.0156275
-0.000101711
0.015582
-9.14285e-05
0.0155389
-8.1836e-05
0.0154982
-7.28739e-05
0.0154602
-6.44837e-05
0.015425
-5.66078e-05
0.0153927
-4.919e-05
0.0153633
-4.21755e-05
0.0153371
-3.55107e-05
0.015314
-2.91433e-05
0.0152941
-2.30219e-05
0.0152774
-1.70963e-05
0.015264
-1.13168e-05
0.015254
-5.63438e-06
0.0152473
0.0152439
-0.000394622
0.0144225
0.000408233
-0.000370194
0.0153903
-0.000343047
0.0158778
-0.000316693
0.0160678
-0.000292097
0.0161069
-0.000269259
0.0160813
-0.000247983
0.0160321
-0.000228099
0.0159764
-0.000209488
0.0159203
-0.000192065
0.0158655
-0.000175764
0.0158122
-0.000160525
0.0157605
-0.000146291
0.0157103
-0.000133
0.0156617
-0.000120592
0.015615
-0.000109004
0.0155704
-9.81744e-05
0.015528
-8.8041e-05
0.0154881
-7.85435e-05
0.0154507
-6.96227e-05
0.0154161
-6.12206e-05
0.0153843
-5.32805e-05
0.0153554
-4.57472e-05
0.0153296
-3.85666e-05
0.0153068
-3.16859e-05
0.0152872
-2.50534e-05
0.0152708
-1.86184e-05
0.0152576
-1.23308e-05
0.0152477
-6.14115e-06
0.0152411
0.0152378
-0.000410449
0.0144091
0.000423847
-0.000385861
0.0153657
-0.000358215
0.0158502
-0.000331179
0.0160408
-0.000305844
0.0160816
-0.000282276
0.0160578
-0.000260301
0.0160102
-0.000239752
0.0159559
-0.000220505
0.0159011
-0.000202471
0.0158474
-0.000185579
0.0157953
-0.000169766
0.0157446
-0.00015497
0.0156955
-0.000141129
0.0156479
-0.000128179
0.0156021
-0.000116057
0.0155583
-0.0001047
0.0155167
-9.40447e-05
0.0154774
-8.40307e-05
0.0154407
-7.45978e-05
0.0154067
-6.56875e-05
0.0153754
-5.72426e-05
0.015347
-4.92075e-05
0.0153215
-4.15277e-05
0.0152991
-3.41501e-05
0.0152798
-2.70225e-05
0.0152636
-2.00939e-05
0.0152507
-1.33139e-05
0.0152409
-6.6325e-06
0.0152344
0.0152311
-0.000425899
0.0143958
0.000439206
-0.000401088
0.0153409
-0.00037292
0.015822
-0.000345201
0.016013
-0.000319136
0.0160555
-0.000294851
0.0160335
-0.000272192
0.0159875
-0.000250996
0.0159347
-0.000231133
0.0158812
-0.000212509
0.0158288
-0.000195047
0.0157779
-0.00017868
0.0157283
-0.000163344
0.0156801
-0.000148973
0.0156335
-0.000135502
0.0155886
-0.000122867
0.0155457
-0.000111003
0.0155048
-9.98457e-05
0.0154663
-8.93343e-05
0.0154302
-7.94078e-05
0.0153967
-7.00074e-05
0.015366
-6.10754e-05
0.015338
-5.25557e-05
0.015313
-4.43936e-05
0.015291
-3.65355e-05
0.0152719
-2.8929e-05
0.015256
-2.15227e-05
0.0152433
-1.42659e-05
0.0152337
-7.10833e-06
0.0152272
0.015224
-0.000440929
0.0143825
0.000454258
-0.000415839
0.0153158
-0.000387131
0.0157933
-0.000358733
0.0159846
-0.000331952
0.0160287
-0.000306967
0.0160085
-0.000283645
0.0159642
-0.000261822
0.0159129
-0.000241364
0.0158607
-0.000222172
0.0158096
-0.000204162
0.0157598
-0.000187264
0.0157114
-0.000171409
0.0156643
-0.000156531
0.0156186
-0.000142561
0.0155747
-0.000129433
0.0155325
-0.000117082
0.0154925
-0.000105443
0.0154547
-9.4453e-05
0.0154192
-8.40518e-05
0.0153863
-7.41795e-05
0.0153561
-6.47781e-05
0.0153286
-5.57912e-05
0.015304
-4.71636e-05
0.0152823
-3.88415e-05
0.0152636
-3.07724e-05
0.015248
-2.29044e-05
0.0152354
-1.51866e-05
0.0152259
-7.56855e-06
0.0152196
0.0152165
-0.00045549
0.014369
0.000468946
-0.000430074
0.0152904
-0.000400817
0.015764
-0.000371749
0.0159556
-0.00034427
0.0160013
-0.000318608
0.0159828
-0.000294645
0.0159402
-0.000272219
0.0158904
-0.00025119
0.0158397
-0.000231453
0.0157899
-0.000212919
0.0157413
-0.000195513
0.015694
-0.000179163
0.0156479
-0.000163799
0.0156033
-0.000149352
0.0155602
-0.000135753
0.0155189
-0.000122935
0.0154797
-0.000110834
0.0154426
-9.9386e-05
0.0154078
-8.8529e-05
0.0153755
-7.82032e-05
0.0153458
-6.83503e-05
0.0153188
-5.89135e-05
0.0152946
-4.98374e-05
0.0152732
-4.1068e-05
0.0152549
-3.25524e-05
0.0152395
-2.42388e-05
0.0152271
-1.60759e-05
0.0152178
-8.0131e-06
0.0152116
0.0152085
-0.000469535
0.0143553
0.00048321
-0.000443752
0.0152646
-0.000413943
0.0157342
-0.000384222
0.0159258
-0.000356069
0.0159731
-0.000329755
0.0159565
-0.000305178
0.0159156
-0.000282175
0.0158674
-0.000260602
0.0158181
-0.000240346
0.0157696
-0.000221313
0.0157223
-0.000203424
0.0156761
-0.000186602
0.0156311
-0.000170776
0.0155874
-0.000155873
0.0155453
-0.000141825
0.0155049
-0.000128562
0.0154664
-0.000116019
0.01543
-0.000104132
0.0153959
-9.28386e-05
0.0153642
-8.20778e-05
0.015335
-7.17914e-05
0.0153085
-6.19222e-05
0.0152847
-5.24147e-05
0.0152637
-4.32146e-05
0.0152457
-3.4269e-05
0.0152305
-2.55258e-05
0.0152183
-1.69337e-05
0.0152092
-8.44194e-06
0.0152031
0.0152
-0.00048301
0.0143413
0.000496987
-0.000456831
0.0152384
-0.000426476
0.0157039
-0.000396124
0.0158955
-0.000367326
0.0159443
-0.000340392
0.0159296
-0.000315231
0.0158905
-0.000291681
0.0158439
-0.000269592
0.0157961
-0.000248844
0.0157489
-0.000229339
0.0157028
-0.000210991
0.0156577
-0.000193723
0.0156138
-0.000177459
0.0155712
-0.000162124
0.01553
-0.000147648
0.0154904
-0.000133962
0.0154527
-0.000120998
0.015417
-0.000108692
0.0153836
-9.69803e-05
0.0153525
-8.58031e-05
0.0153238
-7.51012e-05
0.0152978
-6.48171e-05
0.0152744
-5.48953e-05
0.0152538
-4.52813e-05
0.015236
-3.5922e-05
0.0152211
-2.67654e-05
0.0152092
-1.776e-05
0.0152002
-8.85505e-06
0.0151942
0.0151912
-0.000495865
0.014327
0.000510214
-0.000469269
0.0152118
-0.000438381
0.015673
-0.000407428
0.0158645
-0.00037802
0.0159149
-0.0003505
0.0159021
-0.00032479
0.0158648
-0.000300725
0.0158198
-0.000278151
0.0157735
-0.00025694
0.0157277
-0.000236991
0.0156828
-0.000218213
0.015639
-0.000200524
0.0155961
-0.000183845
0.0155545
-0.000168102
0.0155142
-0.000153221
0.0154755
-0.000139132
0.0154386
-0.000125768
0.0154037
-0.000113063
0.0153709
-0.000100954
0.0153404
-8.93789e-05
0.0153123
-7.82795e-05
0.0152867
-6.75982e-05
0.0152637
-5.72791e-05
0.0152435
-4.72679e-05
0.015226
-3.75114e-05
0.0152114
-2.79575e-05
0.0151996
-1.85548e-05
0.0151908
-9.25243e-06
0.0151849
0.0151819
-0.000508048
0.0143122
0.000522825
-0.000481026
0.0151848
-0.000449625
0.0156416
-0.000418107
0.015833
-0.00038813
0.0158849
-0.000360064
0.015874
-0.000333843
0.0158386
-0.000309298
0.0157953
-0.000286271
0.0157505
-0.00026463
0.015706
-0.000244266
0.0156625
-0.000225084
0.0156198
-0.000207001
0.0155781
-0.000189933
0.0155374
-0.000173805
0.0154981
-0.000158543
0.0154603
-0.000144074
0.0154242
-0.000130331
0.0153899
-0.000117247
0.0153578
-0.000104759
0.0153279
-9.28051e-05
0.0153003
-8.13265e-05
0.0152752
-7.02655e-05
0.0152527
-5.95664e-05
0.0152328
-4.91747e-05
0.0152156
-3.90373e-05
0.0152013
-2.91022e-05
0.0151897
-1.9318e-05
0.015181
-9.6341e-06
0.0151752
0.0151723
-0.000519508
0.014297
0.000534758
-0.00049206
0.0151573
-0.000460176
0.0156097
-0.000428137
0.015801
-0.000397635
0.0158544
-0.000369069
0.0158454
-0.000342376
0.0158119
-0.00031739
0.0157703
-0.000293947
0.015727
-0.000271908
0.015684
-0.000251159
0.0156417
-0.000231604
0.0156002
-0.000213152
0.0155596
-0.000195722
0.01552
-0.000179234
0.0154816
-0.000163613
0.0154446
-0.000148787
0.0154093
-0.000134686
0.0153758
-0.000121243
0.0153444
-0.000108396
0.015315
-9.6082e-05
0.015288
-8.42423e-05
0.0152634
-7.28193e-05
0.0152413
-6.17572e-05
0.0152217
-5.10017e-05
0.0152049
-4.04998e-05
0.0151908
-3.01995e-05
0.0151794
-2.00499e-05
0.0151708
-1.00001e-05
0.0151651
0.0151623
-0.000530198
0.0142812
0.000545951
-0.000502334
0.0151295
-0.000470005
0.0155774
-0.000437492
0.0157685
-0.000406518
0.0158235
-0.000377498
0.0158164
-0.00035038
0.0157847
-0.000324994
0.0157449
-0.00030117
0.0157032
-0.000278768
0.0156616
-0.000257668
0.0156206
-0.000237768
0.0155803
-0.000218978
0.0155408
-0.000201211
0.0155022
-0.000184388
0.0154648
-0.000168432
0.0154287
-0.00015327
0.0153942
-0.000138832
0.0153614
-0.000125052
0.0153306
-0.000111865
0.0153018
-9.921e-05
0.0152753
-8.70273e-05
0.0152512
-7.52598e-05
0.0152295
-6.38518e-05
0.0152103
-5.27492e-05
0.0151938
-4.18991e-05
0.0151799
-3.12498e-05
0.0151687
-2.07504e-05
0.0151603
-1.03505e-05
0.0151547
0.0151519
-0.000540073
0.0142649
0.000556345
-0.000511813
0.0151012
-0.000479084
0.0155446
-0.000446153
0.0157355
-0.000414761
0.0157921
-0.00038534
0.015787
-0.000357844
0.0157572
-0.0003321
0.0157192
-0.000307937
0.015679
-0.000285208
0.0156389
-0.000263789
0.0155992
-0.000243576
0.0155601
-0.000224475
0.0155217
-0.000206399
0.0154842
-0.000189267
0.0154477
-0.000173
0.0154124
-0.000157525
0.0153787
-0.000142772
0.0153466
-0.000128674
0.0153165
-0.000115167
0.0152883
-0.00010219
0.0152624
-8.96822e-05
0.0152387
-7.75877e-05
0.0152174
-6.58509e-05
0.0151986
-5.44177e-05
0.0151823
-4.32356e-05
0.0151687
-3.22532e-05
0.0151578
-2.14198e-05
0.0151495
-1.06853e-05
0.015144
0.0151412
-0.00054909
0.0142481
0.000565886
-0.000520466
0.0150726
-0.000487388
0.0155116
-0.000454099
0.0157023
-0.00042235
0.0157603
-0.000392584
0.0157572
-0.000364759
0.0157294
-0.000338705
0.0156931
-0.000314243
0.0156546
-0.000291224
0.0156158
-0.000269521
0.0155775
-0.000249027
0.0155396
-0.000229645
0.0155023
-0.000211287
0.0154658
-0.00019387
0.0154302
-0.000177316
0.0153959
-0.000161552
0.0153629
-0.000146505
0.0153316
-0.00013211
0.0153021
-0.000118303
0.0152745
-0.000105022
0.0152491
-9.22075e-05
0.0152259
-7.98037e-05
0.015205
-6.77549e-05
0.0151865
-5.60077e-05
0.0151706
-4.45098e-05
0.0151572
-3.32101e-05
0.0151465
-2.20583e-05
0.0151384
-1.10047e-05
0.0151329
0.0151302
-0.000557214
0.0142308
0.000574524
-0.000528264
0.0150436
-0.000494896
0.0154782
-0.000461315
0.0156687
-0.000429272
0.0157283
-0.00039922
0.0157272
-0.000371121
0.0157013
-0.000344802
0.0156668
-0.000320085
0.0156298
-0.000296814
0.0155926
-0.000274863
0.0155555
-0.000254119
0.0155189
-0.000234487
0.0154827
-0.000215875
0.0154472
-0.0001982
0.0154126
-0.000181383
0.0153791
-0.000165351
0.0153469
-0.000150033
0.0153163
-0.000135362
0.0152874
-0.000121273
0.0152604
-0.000107707
0.0152355
-9.46044e-05
0.0152128
-8.19084e-05
0.0151923
-6.95646e-05
0.0151742
-5.75197e-05
0.0151586
-4.5722e-05
0.0151454
-3.41208e-05
0.0151349
-2.26662e-05
0.0151269
-1.13089e-05
0.0151216
0.0151189
-0.000564411
0.014213
0.000582215
-0.000535184
0.0150144
-0.000501591
0.0154446
-0.000467788
0.0156349
-0.000435518
0.015696
-0.000405241
0.0156969
-0.000376922
0.015673
-0.000350389
0.0156403
-0.00032546
0.0156049
-0.000301979
0.0155691
-0.000279815
0.0155334
-0.000258855
0.0154979
-0.000239002
0.0154628
-0.000220164
0.0154283
-0.000202257
0.0153947
-0.000185202
0.015362
-0.000168926
0.0153306
-0.000153357
0.0153007
-0.00013843
0.0152725
-0.00012408
0.0152461
-0.000110248
0.0152217
-9.6874e-05
0.0151994
-8.39031e-05
0.0151793
-7.12809e-05
0.0151616
-5.89546e-05
0.0151462
-4.68729e-05
0.0151333
-3.49857e-05
0.015123
-2.32436e-05
0.0151152
-1.15979e-05
0.0151099
0.0151073
-0.000570657
0.0141948
0.000588921
-0.000541207
0.0149849
-0.00050746
0.0154109
-0.000473508
0.0156009
-0.000441082
0.0156636
-0.000410644
0.0156665
-0.000382162
0.0156445
-0.000355464
0.0156136
-0.000330369
0.0155798
-0.000306718
0.0155454
-0.000284377
0.015511
-0.000263236
0.0154768
-0.000243192
0.0154428
-0.000224156
0.0154093
-0.000206043
0.0153765
-0.000188775
0.0153447
-0.000172277
0.0153141
-0.000156479
0.0152849
-0.000141316
0.0152573
-0.000126725
0.0152315
-0.000112644
0.0152076
-9.90175e-05
0.0151858
-8.57889e-05
0.0151661
-7.29048e-05
0.0151487
-6.03131e-05
0.0151336
-4.79632e-05
0.015121
-3.58055e-05
0.0151108
-2.37911e-05
0.0151031
-1.18719e-05
0.015098
0.0150955
-0.00057593
0.0141761
0.000594613
-0.00054632
0.0149553
-0.000512493
0.015377
-0.000478469
0.0155669
-0.000445959
0.0156311
-0.000415425
0.0156359
-0.000386838
0.0156159
-0.000360029
0.0155868
-0.000334813
0.0155546
-0.000311032
0.0155217
-0.000288553
0.0154886
-0.000267262
0.0154555
-0.00024706
0.0154226
-0.000227854
0.0153901
-0.000209561
0.0153582
-0.000192104
0.0153273
-0.000175407
0.0152974
-0.000159402
0.0152689
-0.000144023
0.0152419
-0.000129209
0.0152167
-0.000114899
0.0151933
-0.000101037
0.0151719
-8.75671e-05
0.0151526
-7.44375e-05
0.0151356
-6.15964e-05
0.0151208
-4.89937e-05
0.0151084
-3.65806e-05
0.0150984
-2.43089e-05
0.0150909
-1.21311e-05
0.0150858
0.0150833
-0.000580217
0.014157
0.000599268
-0.000550517
0.0149256
-0.000516687
0.0153432
-0.000482669
0.0155329
-0.000450149
0.0155985
-0.000419586
0.0156054
-0.000390954
0.0155873
-0.000364084
0.0155599
-0.000338794
0.0155293
-0.000314926
0.0154978
-0.000292345
0.015466
-0.000270939
0.0154341
-0.000250608
0.0154023
-0.000231261
0.0153708
-0.000212815
0.0153398
-0.000195192
0.0153097
-0.000178319
0.0152805
-0.000162128
0.0152527
-0.000146554
0.0152264
-0.000131535
0.0152017
-0.000117014
0.0151788
-0.000102933
0.0151578
-8.92394e-05
0.0151389
-7.58803e-05
0.0151222
-6.28053e-05
0.0151077
-4.99652e-05
0.0150955
-3.73117e-05
0.0150857
-2.47975e-05
0.0150784
-1.23757e-05
0.0150734
0.0150709
-0.000583512
0.0141377
0.000602869
-0.000553793
0.0148959
-0.000520042
0.0153095
-0.000486112
0.0154989
-0.000453655
0.0155661
-0.00042313
0.0155748
-0.000394512
0.0155587
-0.000367635
0.015533
-0.000342317
0.015504
-0.000318403
0.0154739
-0.000295758
0.0154433
-0.000274271
0.0154126
-0.000253842
0.0153818
-0.000234381
0.0153513
-0.000215807
0.0153212
-0.000198043
0.0152919
-0.000181016
0.0152635
-0.000164659
0.0152364
-0.00014891
0.0152106
-0.000133706
0.0151865
-0.000118991
0.0151641
-0.000104709
0.0151435
-9.08073e-05
0.015125
-7.72347e-05
0.0151086
-6.39412e-05
0.0150944
-5.08787e-05
0.0150825
-3.79996e-05
0.0150729
-2.52574e-05
0.0150656
-1.26061e-05
0.0150608
0.0150583
-0.000585814
0.0141181
0.000605412
-0.000556154
0.0148663
-0.000522565
0.0152759
-0.000488801
0.0154652
-0.000456484
0.0155338
-0.000426064
0.0155444
-0.000397519
0.0155301
-0.000370687
0.0155062
-0.000345388
0.0154787
-0.000321469
0.01545
-0.000298797
0.0154207
-0.000277262
0.015391
-0.000256765
0.0153613
-0.000237219
0.0153318
-0.000218543
0.0153026
-0.00020066
0.015274
-0.000183502
0.0152464
-0.000167001
0.0152199
-0.000151095
0.0151947
-0.000135724
0.0151711
-0.000120833
0.0151492
-0.000106366
0.0151291
-9.22729e-05
0.0151109
-7.85022e-05
0.0150949
-6.50054e-05
0.0150809
-5.17352e-05
0.0150692
-3.8645e-05
0.0150598
-2.56891e-05
0.0150527
-1.28223e-05
0.0150479
0.0150455
-0.00058713
0.0140983
0.000606896
-0.000557609
0.0148367
-0.000524264
0.0152425
-0.000490749
0.0154317
-0.000458646
0.0155017
-0.000428397
0.0155142
-0.000399984
0.0155017
-0.000373248
0.0154794
-0.000348015
0.0154535
-0.000324131
0.0154261
-0.000301469
0.015398
-0.000279919
0.0153695
-0.000259384
0.0153408
-0.00023978
0.0153121
-0.000221026
0.0152838
-0.00020305
0.015256
-0.000185781
0.0152291
-0.000169155
0.0152032
-0.000153112
0.0151787
-0.000137592
0.0151556
-0.000122542
0.0151341
-0.000107907
0.0151144
-9.3638e-05
0.0150967
-7.96846e-05
0.0150809
-6.59994e-05
0.0150672
-5.25359e-05
0.0150558
-3.92488e-05
0.0150465
-2.60931e-05
0.0150395
-1.30248e-05
0.0150348
0.0150325
-0.000587475
0.0140785
0.000607333
-0.000558174
0.0148074
-0.000525157
0.0152095
-0.00049197
0.0153985
-0.000460153
0.0154698
-0.000430141
0.0154841
-0.000401918
0.0154735
-0.00037533
0.0154528
-0.000350206
0.0154283
-0.000326399
0.0154023
-0.000303782
0.0153754
-0.000282249
0.015348
-0.000261706
0.0153203
-0.00024207
0.0152925
-0.000223264
0.015265
-0.000205215
0.015238
-0.000187857
0.0152117
-0.000171127
0.0151865
-0.000154965
0.0151625
-0.000139314
0.0151399
-0.000124122
0.0151189
-0.000109335
0.0150997
-9.49051e-05
0.0150822
-8.07838e-05
0.0150668
-6.69246e-05
0.0150534
-5.3282e-05
0.0150421
-3.98118e-05
0.015033
-2.64701e-05
0.0150262
-1.32138e-05
0.0150216
0.0150193
-0.000586869
0.0140586
0.000606739
-0.000557869
0.0147784
-0.000525262
0.0151769
-0.000492481
0.0153657
-0.000461021
0.0154384
-0.000431311
0.0154544
-0.000403334
0.0154455
-0.000376943
0.0154265
-0.000351974
0.0154034
-0.000328281
0.0153786
-0.000305744
0.0153528
-0.00028426
0.0153265
-0.000263738
0.0152997
-0.000244097
0.0152729
-0.000225262
0.0152462
-0.000207163
0.0152199
-0.000189737
0.0151943
-0.000172921
0.0151697
-0.000156658
0.0151462
-0.000140894
0.0151242
-0.000125575
0.0151036
-0.000110652
0.0150847
-9.60764e-05
0.0150677
-8.18018e-05
0.0150525
-6.77827e-05
0.0150394
-5.39749e-05
0.0150283
-4.03351e-05
0.0150194
-2.68208e-05
0.0150126
-1.33896e-05
0.0150081
0.0150059
-0.000585339
0.0140388
0.000605139
-0.000556722
0.0147498
-0.000524604
0.0151448
-0.000492305
0.0153334
-0.000461272
0.0154074
-0.000431923
0.0154251
-0.000404247
0.0154179
-0.000378102
0.0154003
-0.000353329
0.0153786
-0.00032979
0.015355
-0.000307367
0.0153304
-0.000285962
0.0153051
-0.000265488
0.0152793
-0.000245866
0.0152532
-0.000227026
0.0152273
-0.000208899
0.0152018
-0.000191424
0.0151768
-0.000174542
0.0151528
-0.000158196
0.0151299
-0.000142334
0.0151083
-0.000126905
0.0150882
-0.000111861
0.0150697
-9.71546e-05
0.015053
-8.27408e-05
0.0150381
-6.85755e-05
0.0150252
-5.46159e-05
0.0150143
-4.08198e-05
0.0150056
-2.71457e-05
0.014999
-1.35527e-05
0.0149946
0.0149923
-0.000582918
0.0140191
0.000602567
-0.000554764
0.0147217
-0.000523213
0.0151132
-0.000491467
0.0153017
-0.000460927
0.0153768
-0.000431999
0.0153962
-0.000404676
0.0153905
-0.000378822
0.0153745
-0.000354287
0.0153541
-0.000330937
0.0153317
-0.000308661
0.0153081
-0.000287365
0.0152838
-0.000266965
0.0152589
-0.000247388
0.0152337
-0.000228564
0.0152085
-0.00021043
0.0151836
-0.000192926
0.0151593
-0.000175995
0.0151359
-0.000159583
0.0151135
-0.00014364
0.0150923
-0.000128116
0.0150726
-0.000112965
0.0150545
-9.81422e-05
0.0150381
-8.36029e-05
0.0150236
-6.93049e-05
0.0150109
-5.52064e-05
0.0150002
-4.12668e-05
0.0149916
-2.74456e-05
0.0149852
-1.37032e-05
0.0149808
0.0149786
-0.000579646
0.0139997
0.000599061
-0.000552032
0.0146941
-0.000521121
0.0150823
-0.000489997
0.0152705
-0.000460012
0.0153468
-0.000431561
0.0153677
-0.000404641
0.0153636
-0.000379122
0.0153489
-0.000354863
0.0153298
-0.000331737
0.0153086
-0.000309639
0.015286
-0.000288479
0.0152626
-0.00026818
0.0152386
-0.00024867
0.0152142
-0.000229885
0.0151897
-0.000211763
0.0151655
-0.000194248
0.0151418
-0.000177285
0.0151189
-0.000160824
0.015097
-0.000144815
0.0150763
-0.000129211
0.015057
-0.000113968
0.0150393
-9.90422e-05
0.0150232
-8.43907e-05
0.0150089
-6.99728e-05
0.0149965
-5.57482e-05
0.014986
-4.16773e-05
0.0149776
-2.77214e-05
0.0149712
-1.38417e-05
0.0149669
0.0149648
-0.000575567
0.0139806
0.000594668
-0.000548565
0.0146671
-0.000518364
0.0150521
-0.000487927
0.0152401
-0.000458556
0.0153175
-0.000430634
0.0153398
-0.000404162
0.0153371
-0.00037902
0.0153238
-0.000355073
0.0153059
-0.000332204
0.0152857
-0.000310313
0.0152642
-0.000289317
0.0152416
-0.000269142
0.0152184
-0.000249722
0.0151947
-0.000230996
0.015171
-0.000212905
0.0151474
-0.000195397
0.0151243
-0.00017842
0.0151019
-0.000161924
0.0150805
-0.000145864
0.0150603
-0.000130195
0.0150414
-0.000114873
0.015024
-9.98575e-05
0.0150082
-8.51066e-05
0.0149942
-7.05812e-05
0.014982
-5.62426e-05
0.0149717
-4.20526e-05
0.0149634
-2.79737e-05
0.0149571
-1.39685e-05
0.0149529
0.0149508
-0.000570729
0.0139619
0.000589439
-0.000544411
0.0146407
-0.000514984
0.0150227
-0.000485293
0.0152104
-0.000456589
0.0152888
-0.000429244
0.0153124
-0.000403264
0.0153112
-0.000378536
0.0152991
-0.000354937
0.0152823
-0.000332355
0.0152631
-0.000310699
0.0152425
-0.000289891
0.0152208
-0.000269863
0.0151984
-0.000250554
0.0151754
-0.000231906
0.0151523
-0.000213865
0.0151294
-0.00019638
0.0151068
-0.000179404
0.015085
-0.00016289
0.015064
-0.000146793
0.0150442
-0.000131072
0.0150257
-0.000115684
0.0150086
-0.000100591
0.0149931
-8.57532e-05
0.0149793
-7.11324e-05
0.0149673
-5.66915e-05
0.0149572
-4.23939e-05
0.0149491
-2.82034e-05
0.0149429
-1.4084e-05
0.0149388
0.0149367
-0.000565187
0.0139437
0.000583431
-0.000539617
0.0146152
-0.000511024
0.0149941
-0.000482132
0.0151815
-0.000454144
0.0152608
-0.000427421
0.0152857
-0.000401971
0.0152857
-0.000377694
0.0152748
-0.000354473
0.015259
-0.000332207
0.0152408
-0.000310811
0.0152211
-0.000290215
0.0152002
-0.000270356
0.0151785
-0.000251176
0.0151563
-0.000232624
0.0151338
-0.00021465
0.0151114
-0.000197205
0.0150894
-0.000180244
0.015068
-0.000163725
0.0150475
-0.000147606
0.0150281
-0.000131845
0.0150099
-0.000116405
0.0149931
-0.000101247
0.0149779
-8.63332e-05
0.0149644
-7.16284e-05
0.0149526
-5.70966e-05
0.0149427
-4.27025e-05
0.0149347
-2.84114e-05
0.0149286
-1.41886e-05
0.0149246
0.0149225
-0.000558998
0.013926
0.000576705
-0.000534234
0.0145904
-0.000506528
0.0149664
-0.000478485
0.0151535
-0.000451256
0.0152335
-0.000425194
0.0152597
-0.000400311
0.0152608
-0.000376516
0.015251
-0.000353702
0.0152362
-0.000331777
0.0152189
-0.000310666
0.0152
-0.000290302
0.0151799
-0.000270631
0.0151588
-0.0002516
0.0151372
-0.000233161
0.0151153
-0.000215269
0.0150935
-0.000197878
0.015072
-0.000180948
0.0150511
-0.000164437
0.015031
-0.000148308
0.0150119
-0.00013252
0.0149941
-0.000117039
0.0149777
-0.000101827
0.0149627
-8.68494e-05
0.0149494
-7.20717e-05
0.0149379
-5.74597e-05
0.0149281
-4.29797e-05
0.0149202
-2.85985e-05
0.0149143
-1.42829e-05
0.0149103