/*--------------------------------*- C++ -*----------------------------------*\
  =========                 |
  \\      /  F ield         | OpenFOAM: The Open Source CFD Toolbox
   \\    /   O peration     | Website:  https://openfoam.org
    \\  /    A nd           | Version:  7
     \\/     M anipulation  |
\*---------------------------------------------------------------------------*/
FoamFile
{
    version     2.0;
    format      ascii;
    class       surfaceScalarField;
    location    "20";
    object      phi;
}
// * * * * * * * * * * * * * * * * * * * * * * * * * * * * * * * * * * * * * //

dimensions      [0 3 -1 0 0 0 0];

internalField   nonuniform List<scalar> 
2638
(
-9.59491e-06
0.0179457
-6.26601e-06
0.0178989
-3.88963e-06
0.0178607
-2.21201e-06
0.0178317
-9.92582e-07
0.0178122
0.0178025
-0.000461587
0.0140313
0.000508777
-0.000399984
0.0153862
-0.00033361
0.0164561
-0.000270403
0.0172327
-0.000214962
0.0177489
-0.000168858
0.0180586
-0.000131741
0.0182187
-0.000102381
0.0182782
-7.93201e-05
0.0182751
-6.12165e-05
0.0182363
-4.69662e-05
0.0181796
-3.572e-05
0.0181162
-2.68423e-05
0.0180529
-1.98545e-05
0.0179935
-1.43829e-05
0.0179403
-1.01189e-05
0.0178946
-6.79174e-06
0.0178574
-4.15244e-06
0.0178291
-1.96452e-06
0.0178101
0.0178005
-0.000464822
0.0139864
0.000509692
-0.000405707
0.0153271
-0.000341435
0.0163918
-0.000279645
0.0171709
-0.000224939
0.0176942
-0.000179036
0.0180127
-0.000141757
0.0181814
-0.000112
0.0182484
-8.8396e-05
0.0182515
-6.9653e-05
0.0182175
-5.46979e-05
0.0181646
-4.2698e-05
0.0181042
-3.30272e-05
0.0180432
-2.52134e-05
0.0179856
-1.88883e-05
0.0179339
-1.37485e-05
0.0178895
-9.52828e-06
0.0178532
-5.98329e-06
0.0178255
-2.88194e-06
0.017807
0.0177976
-0.00046725
0.0139437
0.000509929
-0.000410504
0.0152703
-0.000348269
0.0163296
-0.000287899
0.0171105
-0.000233972
0.0176403
-0.000188336
0.0179671
-0.000150967
0.018144
-0.000120887
0.0182183
-9.68106e-05
0.0182274
-7.7498e-05
0.0181982
-6.19055e-05
0.0181491
-4.92171e-05
0.0180915
-3.88164e-05
0.0180328
-3.02376e-05
0.0179771
-2.31182e-05
0.0179268
-1.71603e-05
0.0178835
-1.21028e-05
0.0178481
-7.70695e-06
0.0178212
-3.74577e-06
0.017803
0.0177939
-0.00046893
0.0139031
0.000509538
-0.000414441
0.0152158
-0.000354181
0.0162693
-0.000295225
0.0170516
-0.000242114
0.0175872
-0.000196803
0.0179218
-0.000159409
0.0181066
-0.000129074
0.018188
-0.000104592
0.0182029
-8.47747e-05
0.0181784
-6.86082e-05
0.0181329
-5.5293e-05
0.0180782
-4.42223e-05
0.0180217
-3.49372e-05
0.0179678
-2.70808e-05
0.017919
-2.03599e-05
0.0178768
-1.45195e-05
0.0178423
-9.32603e-06
0.017816
-4.55763e-06
0.0177982
0.0177893
-0.000469919
0.0138645
0.000508567
-0.00041758
0.0151635
-0.000359234
0.016211
-0.000301681
0.016994
-0.000249416
0.0175349
-0.000204482
0.0178769
-0.000167123
0.0180693
-0.000136593
0.0181575
-0.000111768
0.0181781
-9.15065e-05
0.0181582
-7.48254e-05
0.0181162
-6.09417e-05
0.0180643
-4.92581e-05
0.01801
-3.93226e-05
0.0179578
-3.07836e-05
0.0179104
-2.33536e-05
0.0178694
-1.6783e-05
0.0178357
-1.08433e-05
0.01781
-5.31865e-06
0.0177927
0.017784
-0.000470271
0.0138277
0.000507061
-0.000419983
0.0151132
-0.000363486
0.0161545
-0.000307324
0.0169379
-0.000255929
0.0174835
-0.000211415
0.0178323
-0.000174145
0.018032
-0.000143478
0.0181268
-0.000118365
0.018153
-9.77166e-05
0.0181375
-8.05768e-05
0.0180991
-6.61794e-05
0.0180499
-5.39372e-05
0.0179978
-4.34045e-05
0.0179473
-3.42354e-05
0.0179013
-2.61476e-05
0.0178613
-1.88972e-05
0.0178285
-1.22618e-05
0.0178034
-6.03064e-06
0.0177865
0.017778
-0.000470035
0.0137927
0.000505065
-0.000421703
0.0150649
-0.000366995
0.0160998
-0.000312207
0.0168831
-0.000261698
0.017433
-0.000217643
0.0177883
-0.000180511
0.0179949
-0.000149758
0.018096
-0.000124411
0.0181276
-0.000103428
0.0181165
-8.58818e-05
0.0180815
-7.10225e-05
0.0180351
-5.82728e-05
0.017985
-4.71937e-05
0.0179362
-3.74445e-05
0.0178915
-2.87486e-05
0.0178526
-2.08677e-05
0.0178206
-1.35846e-05
0.0177961
-6.69488e-06
0.0177796
0.0177713
-0.00046926
0.0137593
0.000502619
-0.000422795
0.0150184
-0.000369815
0.0160468
-0.000316379
0.0168296
-0.00026677
0.0173834
-0.000223208
0.0177447
-0.000186256
0.0179579
-0.000155465
0.0180653
-0.000129933
0.0181021
-0.000108664
0.0180953
-9.07598e-05
0.0180636
-7.54874e-05
0.0180198
-6.22788e-05
0.0179718
-5.07013e-05
0.0179247
-4.04199e-05
0.0178812
-3.11634e-05
0.0178433
-2.26987e-05
0.0178121
-1.48148e-05
0.0177882
-7.31268e-06
0.0177721
0.0177639
-0.00046799
0.0137275
0.000499764
-0.000423307
0.0149737
-0.000371996
0.0159955
-0.000319889
0.0167775
-0.000271188
0.0173347
-0.000228147
0.0177017
-0.000191414
0.0179212
-0.000160628
0.0180345
-0.000134955
0.0180764
-0.000113446
0.0180737
-9.52302e-05
0.0180454
-7.95904e-05
0.0180042
-6.59686e-05
0.0179582
-5.39386e-05
0.0179126
-4.31707e-05
0.0178705
-3.33988e-05
0.0178336
-2.43956e-05
0.0178031
-1.59557e-05
0.0177798
-7.8859e-06
0.017764
0.0177561
-0.000466267
0.0136973
0.000496537
-0.000423285
0.0149307
-0.000373586
0.0159458
-0.000322783
0.0167267
-0.000274995
0.0172869
-0.000232498
0.0176592
-0.000196019
0.0178847
-0.000165277
0.0180037
-0.000139505
0.0180507
-0.000117798
0.018052
-9.93121e-05
0.0180269
-8.33477e-05
0.0179882
-6.93559e-05
0.0179442
-5.69166e-05
0.0179002
-4.57056e-05
0.0178592
-3.54619e-05
0.0178233
-2.59633e-05
0.0177936
-1.70106e-05
0.0177708
-8.41641e-06
0.0177554
0.0177476
-0.000464132
0.0136684
0.000492973
-0.000422775
0.0148894
-0.000374629
0.0158976
-0.000325104
0.0166772
-0.000278229
0.01724
-0.000236297
0.0176173
-0.000200102
0.0178485
-0.00016944
0.0179731
-0.000143606
0.0180248
-0.000121739
0.0180302
-0.000103024
0.0180082
-8.67753e-05
0.0179719
-7.2454e-05
0.0179299
-5.96466e-05
0.0178874
-4.80339e-05
0.0178476
-3.73594e-05
0.0178127
-2.74072e-05
0.0177837
-1.7983e-05
0.0177614
-8.90563e-06
0.0177463
0.0177387
-0.000461622
0.0136409
0.000489105
-0.000421816
0.0148496
-0.000375169
0.015851
-0.000326893
0.0166289
-0.000280929
0.0171941
-0.000239578
0.0175759
-0.000203694
0.0178126
-0.000173144
0.0179425
-0.000147283
0.017999
-0.000125293
0.0180082
-0.000106385
0.0179893
-8.9889e-05
0.0179555
-7.52765e-05
0.0179153
-6.21397e-05
0.0178742
-5.0164e-05
0.0178357
-3.90986e-05
0.0178016
-2.8732e-05
0.0177733
-1.88761e-05
0.0177515
-9.355e-06
0.0177368
0.0177294
-0.000458771
0.0136147
0.000484966
-0.000420448
0.0148112
-0.000375246
0.0158058
-0.00032819
0.0165819
-0.000283132
0.017149
-0.000242375
0.0175352
-0.000206824
0.0177771
-0.000176416
0.0179121
-0.000150559
0.0179731
-0.000128479
0.0179861
-0.000109412
0.0179702
-9.27044e-05
0.0179387
-7.78365e-05
0.0179004
-6.44067e-05
0.0178608
-5.21053e-05
0.0178234
-4.06863e-05
0.0177902
-2.99432e-05
0.0177625
-1.96932e-05
0.0177413
-9.76652e-06
0.0177269
0.0177196
-0.000455614
0.0135898
0.000480583
-0.000418708
0.0147743
-0.000374897
0.015762
-0.000329031
0.016536
-0.000284873
0.0171049
-0.000244719
0.017495
-0.000209522
0.0177419
-0.00017928
0.0178819
-0.000153458
0.0179473
-0.000131317
0.017964
-0.000112123
0.017951
-9.52366e-05
0.0179219
-8.0147e-05
0.0178853
-6.64586e-05
0.0178471
-5.38666e-05
0.0178108
-4.21295e-05
0.0177784
-3.10457e-05
0.0177515
-2.04379e-05
0.0177307
-1.01416e-05
0.0177166
0.0177095
-0.00045218
0.013566
0.000475985
-0.000416628
0.0147388
-0.000374159
0.0157195
-0.000329452
0.0164913
-0.000286183
0.0170616
-0.00024664
0.0174555
-0.000211815
0.017707
-0.000181763
0.0178518
-0.000156
0.0179215
-0.000133827
0.0179418
-0.000114535
0.0179317
-9.75005e-05
0.0179048
-8.22206e-05
0.0178701
-6.8306e-05
0.0178332
-5.54566e-05
0.0177979
-4.34349e-05
0.0177664
-3.20447e-05
0.0177401
-2.11133e-05
0.0177198
-1.04825e-05
0.017706
0.017699
-0.0004485
0.0135433
0.000471198
-0.000414241
0.0147045
-0.000373063
0.0156783
-0.000329486
0.0164477
-0.000287096
0.0170192
-0.000248168
0.0174165
-0.000213729
0.0176726
-0.000183887
0.017822
-0.000158207
0.0178958
-0.000136029
0.0179196
-0.000116666
0.0179124
-9.95106e-05
0.0178877
-8.40697e-05
0.0178546
-6.99593e-05
0.0178191
-5.68835e-05
0.0177848
-4.46093e-05
0.0177541
-3.29449e-05
0.0177284
-2.17229e-05
0.0177085
-1.07899e-05
0.017695
0.0176882
-0.0004446
0.0135216
0.000466245
-0.000411577
0.0146715
-0.000371643
0.0156384
-0.000329164
0.0164053
-0.00028764
0.0169777
-0.000249329
0.0173782
-0.000215289
0.0176386
-0.000185675
0.0177924
-0.0001601
0.0178703
-0.000137939
0.0178974
-0.00011853
0.017893
-0.000101281
0.0178704
-8.57067e-05
0.017839
-7.14289e-05
0.0178048
-5.8156e-05
0.0177716
-4.56594e-05
0.0177416
-3.37514e-05
0.0177165
-2.22697e-05
0.017697
-1.10661e-05
0.0176838
0.0176771
-0.000440505
0.013501
0.00046115
-0.000408664
0.0146397
-0.000369927
0.0155997
-0.000328516
0.0163638
-0.000287844
0.016937
-0.000250151
0.0173405
-0.00021652
0.0176049
-0.00018715
0.017763
-0.000161699
0.0178448
-0.000139576
0.0178753
-0.000120145
0.0178735
-0.000102826
0.0178531
-8.71432e-05
0.0178234
-7.27246e-05
0.0177904
-5.92822e-05
0.0177581
-4.65916e-05
0.0177289
-3.44689e-05
0.0177044
-2.2757e-05
0.0176853
-1.13124e-05
0.0176724
0.0176658
-0.000436239
0.0134813
0.000455932
-0.000405528
0.014609
-0.000367943
0.0155621
-0.000327569
0.0163235
-0.000287735
0.0168972
-0.000250659
0.0173034
-0.000217444
0.0175717
-0.000188332
0.0177339
-0.000163022
0.0178195
-0.000140958
0.0178533
-0.000121524
0.0178541
-0.000104157
0.0178357
-8.83907e-05
0.0178076
-7.38561e-05
0.0177759
-6.02703e-05
0.0177445
-4.74122e-05
0.0177161
-3.51025e-05
0.0176921
-2.3188e-05
0.0176734
-1.15306e-05
0.0176607
0.0176543
-0.000431824
0.0134625
0.000450611
-0.000402193
0.0145793
-0.000365717
0.0155256
-0.000326349
0.0162841
-0.000287338
0.0168582
-0.000250875
0.017267
-0.000218083
0.0175389
-0.000189241
0.017705
-0.000164088
0.0177944
-0.000142099
0.0178313
-0.000122683
0.0178347
-0.00010529
0.0178183
-8.94605e-05
0.0177918
-7.4833e-05
0.0177612
-6.11279e-05
0.0177308
-4.81274e-05
0.0177031
-3.56563e-05
0.0176796
-2.35656e-05
0.0176613
-1.1722e-05
0.0176489
0.0176426
-0.000427281
0.0134446
0.000445206
-0.000398682
0.0145507
-0.000363274
0.0154902
-0.000324882
0.0162457
-0.000286677
0.01682
-0.000250824
0.0172311
-0.000218459
0.0175066
-0.000189897
0.0176765
-0.000164914
0.0177694
-0.000143017
0.0178094
-0.000123635
0.0178153
-0.000106234
0.0178009
-9.03632e-05
0.0177759
-7.56644e-05
0.0177465
-6.18627e-05
0.017717
-4.87432e-05
0.01769
-3.61349e-05
0.017667
-2.38928e-05
0.0176491
-1.18879e-05
0.0176369
0.0176307
-0.000422627
0.0134275
0.000439732
-0.000395016
0.0145231
-0.000360635
0.0154558
-0.000323191
0.0162083
-0.000285775
0.0167825
-0.000250525
0.0171959
-0.000218591
0.0174746
-0.000190318
0.0176482
-0.000165517
0.0177446
-0.000143726
0.0177876
-0.000124395
0.017796
-0.000107004
0.0177836
-9.11091e-05
0.01776
-7.63592e-05
0.0177318
-6.24815e-05
0.0177032
-4.92656e-05
0.0176768
-3.65428e-05
0.0176543
-2.41726e-05
0.0176367
-1.20304e-05
0.0176247
0.0176187
-0.000417881
0.0134111
0.000434205
-0.000391215
0.0144964
-0.000357823
0.0154224
-0.000321296
0.0161717
-0.000284652
0.0167459
-0.00025
0.0171612
-0.000218499
0.0174431
-0.000190521
0.0176202
-0.000165913
0.01772
-0.00014424
0.0177659
-0.000124975
0.0177767
-0.000107609
0.0177662
-9.17085e-05
0.0177441
-7.69259e-05
0.017717
-6.29923e-05
0.0176892
-4.97e-05
0.0176635
-3.68843e-05
0.0176415
-2.44077e-05
0.0176242
-1.21501e-05
0.0176125
0.0176065
-0.000413059
0.0133956
0.00042864
-0.000387298
0.0144707
-0.000354856
0.01539
-0.000319219
0.0161361
-0.000283329
0.01671
-0.000249268
0.0171272
-0.000218199
0.017412
-0.000190523
0.0175925
-0.000166117
0.0176956
-0.000144574
0.0177444
-0.000125387
0.0177575
-0.000108062
0.0177489
-9.21711e-05
0.0177282
-7.73728e-05
0.0177022
-6.34014e-05
0.0176752
-5.00521e-05
0.0176501
-3.71629e-05
0.0176286
-2.46008e-05
0.0176117
-1.22487e-05
0.0176001
0.0175943
-0.000408175
0.0133807
0.000423048
-0.00038328
0.0144458
-0.000351754
0.0153584
-0.000316978
0.0161013
-0.000281826
0.0166749
-0.000248347
0.0170937
-0.00021771
0.0173814
-0.00019034
0.0175652
-0.000166143
0.0176714
-0.000144741
0.017723
-0.000125644
0.0177384
-0.000108372
0.0177316
-9.2506e-05
0.0177123
-7.77079e-05
0.0176874
-6.37156e-05
0.0176613
-5.0327e-05
0.0176367
-3.73835e-05
0.0176156
-2.47546e-05
0.0175991
-1.23279e-05
0.0175877
0.0175819
-0.000403245
0.0133665
0.000417442
-0.000379179
0.0144217
-0.000348533
0.0153278
-0.000314592
0.0160674
-0.000280159
0.0166404
-0.000247253
0.0170608
-0.000217047
0.0173512
-0.000189987
0.0175381
-0.000166007
0.0176474
-0.000144753
0.0177017
-0.000125758
0.0177194
-0.000108551
0.0177144
-9.27222e-05
0.0176965
-7.79387e-05
0.0176726
-6.39413e-05
0.0176473
-5.05299e-05
0.0176233
-3.75491e-05
0.0176026
-2.48717e-05
0.0175864
-1.23885e-05
0.0175752
0.0175695
-0.000398279
0.0133529
0.000411833
-0.000375008
0.0143985
-0.000345209
0.015298
-0.000312076
0.0160342
-0.000278345
0.0166067
-0.000246004
0.0170284
-0.000216226
0.0173214
-0.000189477
0.0175114
-0.00016572
0.0176236
-0.000144623
0.0176806
-0.000125738
0.0177005
-0.000108607
0.0176973
-9.28282e-05
0.0176807
-7.80728e-05
0.0176579
-6.40842e-05
0.0176333
-5.06658e-05
0.0176099
-3.76638e-05
0.0175896
-2.49544e-05
0.0175737
-1.24317e-05
0.0175627
0.0175571
-0.000393291
0.01334
0.000406232
-0.00037078
0.0143759
-0.000341798
0.015269
-0.000309447
0.0160019
-0.000276399
0.0165736
-0.000244613
0.0169967
-0.000215261
0.0172921
-0.000188826
0.0174849
-0.000165295
0.0176001
-0.000144362
0.0176597
-0.000125595
0.0176818
-0.00010855
0.0176802
-9.28325e-05
0.017665
-7.81171e-05
0.0176432
-6.41509e-05
0.0176193
-5.07392e-05
0.0175965
-3.77311e-05
0.0175766
-2.50052e-05
0.0175609
-1.24588e-05
0.0175501
0.0175447
-0.000388291
0.0133276
0.000400646
-0.000366509
0.0143542
-0.000338313
0.0152408
-0.000306719
0.0159703
-0.000274338
0.0165413
-0.000243096
0.0169654
-0.000214165
0.0172631
-0.000188045
0.0174588
-0.000164744
0.0175768
-0.000143981
0.0176389
-0.00012534
0.0176631
-0.00010839
0.0176633
-9.27426e-05
0.0176494
-7.80784e-05
0.0176285
-6.41466e-05
0.0176054
-5.07548e-05
0.0175831
-3.77544e-05
0.0175636
-2.50262e-05
0.0175482
-1.24711e-05
0.0175376
0.0175322
-0.000383288
0.0133159
0.000395084
-0.000362206
0.0143331
-0.000334766
0.0152134
-0.000303906
0.0159394
-0.000272173
0.0165095
-0.000241467
0.0169347
-0.000212953
0.0172346
-0.000187146
0.017433
-0.000164079
0.0175537
-0.00014349
0.0176183
-0.000124982
0.0176446
-0.000108134
0.0176464
-9.25662e-05
0.0176338
-7.79632e-05
0.0176139
-6.40769e-05
0.0175915
-5.07169e-05
0.0175697
-3.77366e-05
0.0175506
-2.50198e-05
0.0175355
-1.24695e-05
0.017525
0.0175197
-0.000378292
0.0133046
0.000389554
-0.000357881
0.0143127
-0.00033117
0.0151867
-0.000301019
0.0159093
-0.000269919
0.0164784
-0.000239736
0.0169045
-0.000211634
0.0172065
-0.000186141
0.0174075
-0.00016331
0.0175309
-0.000142899
0.0175979
-0.000124529
0.0176263
-0.00010779
0.0176297
-9.23102e-05
0.0176183
-7.77776e-05
0.0175994
-6.39469e-05
0.0175777
-5.06296e-05
0.0175564
-3.76813e-05
0.0175377
-2.49879e-05
0.0175228
-1.24551e-05
0.0175125
0.0175073
-0.000373311
0.0132938
0.000384063
-0.000353543
0.0142929
-0.000327535
0.0151607
-0.000298071
0.0158798
-0.000267586
0.0164479
-0.000237917
0.0168749
-0.000210222
0.0171788
-0.000185041
0.0173823
-0.000162447
0.0175083
-0.000142218
0.0175777
-0.00012399
0.017608
-0.000107367
0.017613
-9.19817e-05
0.0176029
-7.75275e-05
0.0175849
-6.37613e-05
0.0175639
-5.0497e-05
0.0175431
-3.75913e-05
0.0175248
-2.49326e-05
0.0175101
-1.24289e-05
0.0175
0.0174948
-0.000368352
0.0132836
0.000378616
-0.000349203
0.0142738
-0.000323872
0.0151353
-0.000295073
0.015851
-0.000265186
0.0164181
-0.00023602
0.0168457
-0.000208726
0.0171515
-0.000183856
0.0173575
-0.0001615
0.0174859
-0.000141455
0.0175576
-0.000123374
0.0175899
-0.000106871
0.0175965
-9.1587e-05
0.0175876
-7.72185e-05
0.0175705
-6.35254e-05
0.0175502
-5.03228e-05
0.0175299
-3.74697e-05
0.0175119
-2.48558e-05
0.0174975
-1.23917e-05
0.0174875
0.0174824
-0.000363423
0.0132738
0.000373219
-0.000344867
0.0142552
-0.000320189
0.0151107
-0.000292034
0.0158229
-0.00026273
0.0163888
-0.000234056
0.016817
-0.000207157
0.0171246
-0.000182595
0.0173329
-0.000160477
0.0174638
-0.000140619
0.0175378
-0.000122688
0.017572
-0.00010631
0.0175802
-9.11322e-05
0.0175725
-7.6856e-05
0.0175563
-6.32432e-05
0.0175366
-5.01106e-05
0.0175168
-3.73186e-05
0.0174991
-2.47593e-05
0.017485
-1.23448e-05
0.0174751
0.0174701
-0.000358528
0.0132644
0.000367878
-0.000340544
0.0142372
-0.000316495
0.0150866
-0.000288964
0.0157953
-0.000260227
0.01636
-0.000232034
0.0167888
-0.000205525
0.0170981
-0.000181267
0.0173086
-0.000159387
0.0174419
-0.000139717
0.0175181
-0.000121939
0.0175542
-0.00010569
0.0175639
-9.06234e-05
0.0175574
-7.64451e-05
0.0175421
-6.29192e-05
0.0175231
-4.9864e-05
0.0175038
-3.71415e-05
0.0174864
-2.46449e-05
0.0174725
-1.22888e-05
0.0174628
0.0174578
-0.000353675
0.0132555
0.000362597
-0.00033624
0.0142198
-0.000312799
0.0150632
-0.000285871
0.0157684
-0.000257685
0.0163318
-0.000229964
0.0167611
-0.000203837
0.017072
-0.000179882
0.0172847
-0.000158239
0.0174203
-0.000138757
0.0174986
-0.000121135
0.0175366
-0.000105017
0.0175478
-9.0066e-05
0.0175424
-7.59906e-05
0.017528
-6.25574e-05
0.0175096
-4.95861e-05
0.0174908
-3.69401e-05
0.0174738
-2.45142e-05
0.01746
-1.22246e-05
0.0174505
0.0174456
-0.000348868
0.013247
0.000357379
-0.000331961
0.0142029
-0.000309106
0.0150403
-0.000282764
0.0157421
-0.000255115
0.0163042
-0.000227853
0.0167338
-0.000202102
0.0170463
-0.000178446
0.017261
-0.000157038
0.0173989
-0.000137746
0.0174793
-0.00012028
0.0175192
-0.000104297
0.0175318
-8.94652e-05
0.0175276
-7.5497e-05
0.017514
-6.21614e-05
0.0174963
-4.92802e-05
0.0174779
-3.67172e-05
0.0174612
-2.43688e-05
0.0174477
-1.21528e-05
0.0174383
0.0174334
-0.000344111
0.0132389
0.000352228
-0.000327713
0.0141865
-0.000305425
0.015018
-0.000279649
0.0157163
-0.000252522
0.0162771
-0.00022571
0.016707
-0.000200328
0.0170209
-0.000176967
0.0172377
-0.000155794
0.0173777
-0.000136691
0.0174602
-0.000119383
0.0175018
-0.000103536
0.017516
-8.88259e-05
0.0175129
-7.49687e-05
0.0175002
-6.17355e-05
0.0174831
-4.89491e-05
0.0174651
-3.64749e-05
0.0174487
-2.42102e-05
0.0174354
-1.20744e-05
0.0174261
0.0174213
-0.000339409
0.0132311
0.000347147
-0.000323501
0.0141706
-0.00030176
0.0149963
-0.000276534
0.0156911
-0.000249914
0.0162504
-0.000223541
0.0166807
-0.000198523
0.0169959
-0.000175453
0.0172146
-0.000154512
0.0173568
-0.000135598
0.0174413
-0.000118448
0.0174847
-0.00010274
0.0175003
-8.81531e-05
0.0174983
-7.44098e-05
0.0174864
-6.12827e-05
0.0174699
-4.85957e-05
0.0174524
-3.62152e-05
0.0174364
-2.40398e-05
0.0174233
-1.19899e-05
0.0174141
0.0174094
-0.000334765
0.0132238
0.00034214
-0.000319329
0.0141551
-0.000298118
0.0149751
-0.000273424
0.0156664
-0.000247298
0.0162243
-0.000221355
0.0166547
-0.000196692
0.0169712
-0.000173909
0.0171918
-0.000153198
0.0173361
-0.000134473
0.0174226
-0.000117482
0.0174677
-0.000101912
0.0174847
-8.7451e-05
0.0174839
-7.38242e-05
0.0174728
-6.08064e-05
0.0174569
-4.82227e-05
0.0174398
-3.59403e-05
0.0174241
-2.3859e-05
0.0174112
-1.19006e-05
0.0174021
0.0173975
-0.000330182
0.0132167
0.000337207
-0.000315203
0.0141402
-0.000294503
0.0149544
-0.000270326
0.0156422
-0.00024468
0.0161987
-0.000219156
0.0166292
-0.000194842
0.0169469
-0.000172341
0.0171693
-0.000151859
0.0173156
-0.00013332
0.0174041
-0.000116487
0.0174509
-0.000101057
0.0174693
-8.67238e-05
0.0174695
-7.32155e-05
0.0174593
-6.03098e-05
0.017444
-4.78325e-05
0.0174274
-3.56523e-05
0.0174119
-2.36692e-05
0.0173992
-1.18061e-05
0.0173903
0.0173857
-0.000325663
0.0132101
0.000332352
-0.000311125
0.0141256
-0.000290919
0.0149342
-0.000267244
0.0156185
-0.000242066
0.0161735
-0.000216951
0.0166041
-0.000192979
0.0169229
-0.000170757
0.0171471
-0.0001505
0.0172953
-0.000132146
0.0173857
-0.000115471
0.0174342
-0.000100181
0.017454
-8.59755e-05
0.0174553
-7.25873e-05
0.0174459
-5.97955e-05
0.0174312
-4.74277e-05
0.017415
-3.53526e-05
0.0173998
-2.34714e-05
0.0173873
-1.17079e-05
0.0173785
0.0173739
-0.000321212
0.0132037
0.000327576
-0.000307098
0.0141115
-0.000287373
0.0149144
-0.000264183
0.0155953
-0.00023946
0.0161488
-0.000214745
0.0165794
-0.000191108
0.0168993
-0.00016916
0.0171251
-0.000149125
0.0172753
-0.000130955
0.0173675
-0.000114438
0.0174177
-9.92869e-05
0.0174388
-8.521e-05
0.0174412
-7.19428e-05
0.0174326
-5.92668e-05
0.0174185
-4.70103e-05
0.0174027
-3.50431e-05
0.0173879
-2.32668e-05
0.0173755
-1.16062e-05
0.0173668
0.0173623
-0.000316828
0.0131976
0.00032288
-0.000303126
0.0140978
-0.000283865
0.0148952
-0.000261148
0.0155726
-0.000236868
0.0161245
-0.000212543
0.016555
-0.000189235
0.016876
-0.000167555
0.0171035
-0.00014774
0.0172555
-0.000129752
0.0173496
-0.00011339
0.0174013
-9.83788e-05
0.0174238
-8.44304e-05
0.0174273
-7.1285e-05
0.0174195
-5.8726e-05
0.017406
-4.65827e-05
0.0173906
-3.47254e-05
0.017376
-2.30566e-05
0.0173639
-1.15017e-05
0.0173553
0.0173508
-0.000312516
0.0131919
0.000318266
-0.000299212
0.0140845
-0.000280401
0.0148764
-0.000258142
0.0155504
-0.000234294
0.0161006
-0.00021035
0.0165311
-0.000187363
0.016853
-0.000165948
0.017082
-0.000146349
0.0172359
-0.000128541
0.0173317
-0.000112334
0.0173851
-9.74604e-05
0.0174089
-8.36403e-05
0.0174135
-7.06169e-05
0.0174065
-5.81757e-05
0.0173935
-4.61467e-05
0.0173786
-3.44013e-05
0.0173643
-2.28418e-05
0.0173523
-1.13945e-05
0.0173438
0.0173394
-0.000308276
0.0131864
0.000313734
-0.000295358
0.0140716
-0.000276983
0.014858
-0.00025517
0.0155285
-0.000231742
0.0160772
-0.00020817
0.0165075
-0.000185498
0.0168303
-0.000164342
0.0170609
-0.000144956
0.0172165
-0.000127325
0.0173141
-0.000111271
0.0173691
-9.65351e-05
0.0173942
-8.28427e-05
0.0173998
-6.99412e-05
0.0173936
-5.7618e-05
0.0173812
-4.57043e-05
0.0173667
-3.40715e-05
0.0173526
-2.26233e-05
0.0173409
-1.12858e-05
0.0173325
0.0173282
-0.00030411
0.0131813
0.000309286
-0.000291565
0.014059
-0.000273614
0.01484
-0.000252234
0.0155072
-0.000229215
0.0160542
-0.000206007
0.0164843
-0.000183643
0.0168079
-0.000162742
0.01704
-0.000143565
0.0171973
-0.000126109
0.0172967
-0.000110206
0.0173532
-9.56061e-05
0.0173796
-8.20406e-05
0.0173862
-6.92605e-05
0.0173808
-5.70552e-05
0.017369
-4.52573e-05
0.0173549
-3.37384e-05
0.0173411
-2.24021e-05
0.0173295
-1.11754e-05
0.0173213
0.017317
-0.000300019
-0.000287836
-0.000270296
-0.000249338
-0.000226717
-0.000203864
-0.000181802
-0.000161151
-0.00014218
-0.000124896
-0.000109142
-9.46765e-05
-8.12366e-05
-6.85772e-05
-5.64896e-05
-4.48073e-05
-3.34025e-05
-2.2179e-05
-1.1064e-05
0.00918128
0.00050691
0.00918356
0.000506496
0.00918776
0.000505492
0.00919374
0.000503945
0.00920139
0.000501895
0.00921057
0.000499385
0.00922118
0.000496452
0.00923311
0.000493135
0.00924626
0.000489469
0.00926053
0.000485487
0.00927585
0.00048122
0.00929212
0.0004767
0.00930928
0.000471954
0.00932723
0.000467007
0.00934593
0.000461886
0.0093653
0.000456613
0.00938529
0.000451209
0.00940584
0.000445695
0.0094269
0.000440089
0.00944843
0.000434408
0.00947037
0.000428669
0.00949269
0.000422885
0.00951535
0.00041707
0.00953832
0.000411237
0.00956156
0.000405398
0.00958505
0.000399562
0.00960875
0.000393739
0.00963265
0.000387937
0.00965671
0.000382166
0.00968093
0.000376431
0.00970527
0.00037074
0.00972973
0.000365097
0.00975428
0.000359509
0.00977892
0.00035398
0.00980363
0.000348514
0.00982839
0.000343114
0.0098532
0.000337785
0.00987805
0.000332529
0.00990293
0.000327348
0.00992783
0.000322245
0.00995275
0.000317221
0.00997768
0.000312278
0.0100026
0.000307417
0.0100276
0.000302639
0.0100525
0.000297945
0.0100774
0.000293336
0.0101023
0.000288812
0.000284374
0.00847944
0.000491729
0.00849571
0.000490648
0.00851318
0.000489023
0.00853177
0.000486897
0.00855141
0.000484312
0.00857199
0.000481306
0.00859346
0.000477917
0.00861573
0.000474181
0.00863874
0.00047013
0.00866241
0.000465798
0.00868668
0.000461213
0.0087115
0.000456405
0.0087368
0.000451399
0.00876253
0.000446221
0.00878865
0.000440892
0.0088151
0.000435436
0.00884184
0.000429871
0.00886883
0.000424216
0.00889604
0.000418488
0.00892343
0.000412703
0.00895096
0.000406876
0.00897861
0.00040102
0.00900634
0.000395148
0.00903414
0.00038927
0.00906198
0.000383397
0.00908984
0.000377538
0.0091177
0.000371702
0.00914554
0.000365897
0.00917335
0.000360129
0.00920111
0.000354406
0.00922881
0.000348732
0.00925644
0.000343113
0.00928398
0.000337553
0.00931143
0.000332057
0.00933879
0.000326628
0.00936603
0.000321268
0.00939316
0.000315982
0.00942018
0.000310771
0.00944707
0.000305637
0.00947384
0.000300582
0.00950047
0.000295607
0.00952698
0.000290714
0.00955335
0.000285904
0.00957959
0.000281177
0.0096057
0.000276533
0.00963167
0.000271974
0.00965751
0.0002675
0.00968321
0.000263109
0.00747316
0.000456947
0.00750903
0.000455853
0.00754545
0.000454234
0.00758234
0.000452133
0.00761964
0.00044959
0.00765731
0.000446645
0.00769528
0.000443333
0.00773351
0.000439691
0.00777194
0.000435751
0.00781053
0.000431544
0.00784922
0.0004271
0.00788799
0.000422446
0.00792679
0.000417608
0.00796558
0.000412609
0.00800433
0.000407472
0.008043
0.000402217
0.00808157
0.000396864
0.00812001
0.00039143
0.0081583
0.000385931
0.0081964
0.000380382
0.00823431
0.000374798
0.008272
0.00036919
0.00830945
0.00036357
0.00834665
0.000357949
0.00838358
0.000352337
0.00842023
0.000346742
0.0084566
0.000341171
0.00849267
0.000335633
0.00852843
0.000330134
0.00856388
0.000324679
0.00859901
0.000319274
0.00863382
0.000313923
0.0086683
0.000308631
0.00870246
0.000303401
0.00873628
0.000298236
0.00876977
0.000293139
0.00880292
0.000288112
0.00883575
0.000283158
0.00886824
0.000278279
0.0089004
0.000273475
0.00893223
0.000268748
0.00896374
0.0002641
0.00899493
0.00025953
0.00902579
0.000255039
0.00905634
0.000250629
0.00908657
0.000246298
0.0091165
0.000242047
0.00914613
0.000237876
0.000233785
0.00626838
0.000399618
0.00632637
0.000398955
0.00638443
0.000397795
0.00644248
0.000396176
0.00650048
0.000394135
0.00655837
0.000391708
0.00661608
0.00038893
0.00667358
0.000385834
0.00673082
0.000382453
0.00678775
0.000378814
0.00684435
0.000374947
0.00690057
0.000370878
0.00695639
0.000366631
0.00701177
0.000362228
0.00706668
0.000357692
0.00712112
0.000353041
0.00717504
0.000348294
0.00722844
0.000343468
0.00728129
0.000338578
0.00733358
0.000333637
0.0073853
0.00032866
0.00743644
0.000323658
0.00748699
0.000318642
0.00753694
0.000313622
0.00758628
0.000308607
0.00763501
0.000303605
0.00768313
0.000298623
0.00773063
0.000293669
0.00777752
0.000288748
0.00782379
0.000283865
0.00786944
0.000279026
0.00791448
0.000274234
0.00795891
0.000269494
0.00800273
0.000264808
0.00804595
0.000260181
0.00808858
0.000255614
0.0081306
0.000251109
0.00817205
0.000246669
0.00821291
0.000242295
0.0082532
0.000237989
0.00829292
0.000233751
0.00833209
0.000229583
0.0083707
0.000225485
0.00840878
0.000221457
0.00844632
0.000217501
0.00848333
0.000213615
0.00851983
0.000209801
0.00855581
0.000206058
0.0085913
0.000202387
0.000198785
0.00508776
0.000320515
0.00516674
0.000319971
0.00524551
0.000319023
0.00532399
0.000317701
0.00540209
0.000316035
0.00547974
0.000314053
0.00555689
0.000311784
0.00563347
0.000309255
0.00570943
0.000306491
0.00578473
0.000303518
0.00585932
0.000300357
0.00593316
0.000297032
0.00600623
0.000293561
0.0060785
0.000289965
0.00614993
0.000286259
0.00622051
0.000282462
0.00629021
0.000278587
0.00635903
0.000274649
0.00642695
0.000270659
0.00649396
0.000266631
0.00656004
0.000262574
0.00662521
0.000258498
0.00668944
0.000254412
0.00675273
0.000250324
0.0068151
0.000246242
0.00687653
0.000242171
0.00693704
0.000238119
0.00699662
0.00023409
0.00705528
0.000230089
0.00711302
0.000226121
0.00716986
0.000222189
0.00722579
0.000218298
0.00728084
0.000214449
0.007335
0.000210645
0.00738829
0.00020689
0.00744072
0.000203184
0.0074923
0.00019953
0.00754304
0.000195929
0.00759295
0.000192383
0.00764205
0.000188891
0.00769035
0.000185456
0.00773785
0.000182078
0.00778458
0.000178757
0.00783054
0.000175494
0.00787575
0.000172289
0.00792023
0.000169142
0.00796398
0.000166052
0.00800701
0.000163021
0.00804935
0.000160047
0.000157131
0.00394561
0.000224047
0.00404212
0.000224001
0.00413844
0.000223651
0.00423445
0.000223015
0.00433004
0.000222115
0.0044251
0.00022097
0.00451956
0.000219599
0.00461332
0.000218023
0.00470631
0.000216261
0.00479847
0.00021433
0.00488974
0.000212248
0.00498007
0.000210033
0.0050694
0.000207698
0.0051577
0.000205259
0.00524494
0.000202729
0.00533108
0.000200121
0.00541609
0.000197447
0.00549996
0.000194717
0.00558267
0.00019194
0.0056642
0.000189128
0.00574455
0.000186287
0.0058237
0.000183425
0.00590164
0.000180549
0.00597839
0.000177667
0.00605393
0.000174782
0.00612827
0.000171902
0.00620141
0.000169029
0.00627336
0.00016617
0.00634412
0.000163327
0.00641371
0.000160504
0.00648213
0.000157704
0.00654938
0.00015493
0.0066155
0.000152184
0.00668048
0.000149469
0.00674434
0.000146786
0.00680709
0.000144137
0.00686875
0.000141523
0.00692934
0.000138945
0.00698886
0.000136405
0.00704734
0.000133904
0.00710479
0.000131442
0.00716123
0.00012902
0.00721667
0.000126637
0.00727113
0.000124296
0.00732463
0.000121995
0.00737718
0.000119735
0.00742881
0.000117515
0.00747952
0.000115337
0.00752934
0.0001132
0.00757829
0.000111103
0.00315313
0.00011519
0.00326195
0.000115182
0.00337058
0.000115018
0.00347889
0.000114706
0.00358675
0.000114257
0.00369404
0.000113681
0.00380065
0.000112986
0.00390649
0.000112185
0.00401147
0.000111286
0.0041155
0.000110298
0.00421851
0.000109232
0.00432045
0.000108095
0.00442126
0.000106895
0.00452087
0.00010564
0.00461926
0.000104338
0.00471639
0.000102994
0.00481222
0.000101615
0.00490673
0.000100207
0.0049999
9.87744e-05
0.0050917
9.73223e-05
0.00518214
9.58551e-05
0.00527118
9.43768e-05
0.00535884
9.2891e-05
0.00544511
9.14012e-05
0.00552998
8.99103e-05
0.00561346
8.84212e-05
0.00569555
8.69362e-05
0.00577627
8.54576e-05
0.00585561
8.39875e-05
0.00593358
8.25276e-05
0.00601021
8.10796e-05
0.00608549
7.96448e-05
0.00615945
7.82246e-05
0.0062321
7.68201e-05
0.00630345
7.54322e-05
0.00637353
7.40619e-05
0.00644234
7.27098e-05
0.00650991
7.13766e-05
0.00657625
7.00628e-05
0.00664139
6.87689e-05