/*--------------------------------*- C++ -*----------------------------------*\
  =========                 |
  \\      /  F ield         | OpenFOAM: The Open Source CFD Toolbox
   \\    /   O peration     | Website:  https://openfoam.org
    \\  /    A nd           | Version:  7
     \\/     M anipulation  |
\*---------------------------------------------------------------------------*/
FoamFile
{
    version     2.0;
    format      ascii;
    class       volVectorField;
    location    "30";
    object      U;
}
// * * * * * * * * * * * * * * * * * * * * * * * * * * * * * * * * * * * * * //

dimensions      [0 1 -1 0 0 0 0];

internalField   nonuniform List<vector> 
1360
(
(0.0888706 -0.0440509 -6.37124e-20)
(0.151029 -0.0505834 8.30335e-20)
(0.216591 -0.0533641 -5.40789e-20)
(0.281835 -0.0535246 9.68168e-21)
(0.344518 -0.0519717 -5.55879e-20)
(0.403309 -0.0494027 1.1042e-20)
(0.457602 -0.046321 8.65712e-20)
(0.507277 -0.0430661 -2.25961e-19)
(0.552498 -0.0398499 -2.60887e-20)
(0.593574 -0.0367907 4.91299e-20)
(0.630875 -0.0339446 9.39302e-20)
(0.664775 -0.0313286 -9.9186e-21)
(0.695629 -0.0289386 -8.86881e-20)
(0.723757 -0.0267599 7.56735e-20)
(0.74945 -0.0247745 -1.13014e-19)
(0.772966 -0.0229614 8.68207e-20)
(0.794525 -0.0212972 9.01765e-20)
(0.814268 -0.0197721 -1.06576e-19)
(0.104629 -0.130057 -4.07348e-19)
(0.168662 -0.149532 -1.94867e-19)
(0.234793 -0.157934 -2.09998e-19)
(0.299757 -0.158572 4.21939e-19)
(0.361647 -0.154109 1.14705e-19)
(0.419374 -0.146602 -9.52153e-20)
(0.472493 -0.137541 4.07777e-19)
(0.520985 -0.127939 -2.6127e-20)
(0.565073 -0.11843 -4.07205e-19)
(0.605095 -0.109371 5.69895e-20)
(0.641431 -0.100933 7.25991e-20)
(0.674456 -0.0931707 7.73625e-22)
(0.704516 -0.0860746 -7.84979e-20)
(0.731925 -0.0796033 -2.07373e-19)
(0.756968 -0.073703 -6.9982e-20)
(0.779907 -0.0683106 7.59261e-21)
(0.800944 -0.0633586 3.74355e-19)
(0.820097 -0.0588345 2.42694e-19)
(0.135142 -0.209895 3.36735e-19)
(0.202897 -0.24194 3.52937e-19)
(0.270222 -0.256128 -3.38799e-19)
(0.334724 -0.257699 -3.66482e-19)
(0.395138 -0.2509 -1.17803e-19)
(0.45084 -0.239042 1.87393e-19)
(0.501702 -0.22455 1.41911e-20)
(0.547906 -0.209083 -2.41065e-19)
(0.589793 -0.193693 2.1162e-19)
(0.627761 -0.178984 -1.54056e-19)
(0.662213 -0.165252 6.02359e-20)
(0.693526 -0.152599 -5.61866e-19)
(0.722036 -0.141016 8.10494e-19)
(0.748038 -0.130443 1.98298e-19)
(0.771807 -0.120794 -7.3236e-19)
(0.793616 -0.111961 6.49951e-19)
(0.813633 -0.103839 1.39393e-21)
(0.831642 -0.0964638 1.07689e-19)
(0.25172 -0.323821 9.25302e-20)
(0.320971 -0.344028 3.95633e-20)
(0.385014 -0.347239 -5.88458e-20)
(0.443479 -0.339016 -3.80095e-19)
(0.496399 -0.323754 4.4939e-19)
(0.544102 -0.304714 4.75967e-21)
(0.587068 -0.284164 7.40025e-19)
(0.625813 -0.263567 9.21468e-20)
(0.660834 -0.243781 -1.04806e-19)
(0.692575 -0.225241 -3.91858e-19)
(0.721418 -0.208112 2.09536e-19)
(0.747688 -0.192401 -6.62808e-19)
(0.771658 -0.178037 9.29653e-19)
(0.793588 -0.164907 -1.12521e-18)
(0.813762 -0.152857 7.75613e-19)
(0.832308 -0.141754 -4.82339e-19)
(0.848687 -0.131753 -2.2748e-19)
(0.384278 -0.418196 1.42702e-19)
(0.448124 -0.423936 -7.82927e-19)
(0.504466 -0.415475 1.29425e-18)
(0.554141 -0.398058 -1.02902e-18)
(0.598046 -0.375653 -4.66483e-19)
(0.637046 -0.351074 9.76253e-19)
(0.6719 -0.326181 -2.36704e-19)
(0.703238 -0.302093 -8.80113e-20)
(0.731571 -0.279403 -1.10419e-18)
(0.757301 -0.258359 1.18499e-18)
(0.780745 -0.239001 3.29844e-19)
(0.80215 -0.221263 -9.1537e-19)
(0.821761 -0.20501 7.56616e-19)
(0.839873 -0.190041 -5.15896e-19)
(0.856575 -0.176194 -4.56319e-19)
(0.870947 -0.163838 1.51793e-18)
(0.456649 -0.475846 -3.81436e-19)
(0.520862 -0.485089 1.03802e-18)
(0.575275 -0.477759 -9.18198e-19)
(0.62161 -0.459669 8.44619e-19)
(0.661417 -0.435324 -8.47347e-19)
(0.696019 -0.408003 7.85716e-19)
(0.726475 -0.379932 -4.3735e-19)
(0.753602 -0.3525 1.07992e-18)
(0.778006 -0.326476 -1.33114e-18)
(0.800134 -0.302214 -1.19267e-19)
(0.820301 -0.279808 3.16304e-19)
(0.838739 -0.259214 6.66341e-19)
(0.855671 -0.240291 3.88452e-20)
(0.871417 -0.22278 -7.59009e-19)
(0.886035 -0.206485 -3.93176e-19)
(0.898171 -0.192066 8.13823e-19)
(0.599467 -0.528671 -2.5936e-19)
(0.652552 -0.523918 2.82989e-20)
(0.695874 -0.506776 2.83316e-20)
(0.731677 -0.482089 3.91178e-19)
(0.761791 -0.453489 6.72316e-20)
(0.787637 -0.423526 1.27155e-19)
(0.810263 -0.393854 7.09737e-19)
(0.830418 -0.365439 -6.61712e-19)
(0.848619 -0.338763 5.9241e-19)
(0.865209 -0.314001 -3.76062e-19)
(0.88041 -0.291151 3.33854e-19)
(0.894429 -0.270075 -6.07716e-19)
(0.907627 -0.250444 4.69297e-19)
(0.920122 -0.231963 -1.74091e-19)
(0.930112 -0.21561 -8.61021e-19)
(0.773629 -0.53811 -4.27219e-19)
(0.805965 -0.514765 -3.21174e-19)
(0.831908 -0.486467 2.97785e-19)
(0.853282 -0.456027 -3.07062e-19)
(0.871425 -0.425345 7.69806e-19)
(0.887272 -0.395598 4.62689e-19)
(0.901459 -0.367423 -9.90649e-19)
(0.914396 -0.341095 3.96046e-19)
(0.926327 -0.316673 2.7679e-19)
(0.937444 -0.294029 -3.59064e-19)
(0.948159 -0.272766 -8.17778e-19)
(0.958947 -0.252531 4.74722e-19)
(0.968025 -0.234908 1.47069e-19)
(0.903574 -0.506304 -3.4952e-19)
(0.920937 -0.476885 -4.69269e-19)
(0.934841 -0.446534 5.90717e-19)
(0.946455 -0.416646 3.87778e-20)
(0.956561 -0.388053 -1.51807e-19)
(0.965668 -0.361186 -4.73682e-20)
(0.974092 -0.336213 7.07378e-20)
(0.982028 -0.313151 -1.49186e-19)
(0.989625 -0.292019 1.18908e-19)
(0.99717 -0.273041 5.51487e-19)
(1.00553 -0.255878 -5.1674e-19)
(0.998465 -0.456919 -8.55213e-20)
(1.00627 -0.427939 -1.57414e-19)
(1.01257 -0.39976 -2.66592e-19)
(1.01799 -0.372958 2.14366e-19)
(1.02295 -0.347801 9.34823e-21)
(1.02764 -0.324395 4.71621e-20)
(1.03207 -0.302916 3.54871e-19)
(1.03623 -0.283507 -2.63448e-19)
(1.04128 -0.264547 9.00971e-20)
(1.07019 -0.377016 -1.13278e-19)
(1.07197 -0.352412 -9.54353e-20)
(1.07363 -0.329311 2.13148e-19)
(1.07516 -0.307977 1.6696e-19)
(1.07639 -0.288568 -1.62489e-19)
(1.07824 -0.269281 -4.31808e-20)
(1.11745 -0.307517 -3.21555e-20)
(1.11607 -0.288484 2.24134e-20)
(1.11505 -0.269516 1.32241e-19)
(0.831038 -0.0185207 1.44837e-19)
(0.84582 -0.0169371 -6.10675e-20)
(0.859283 -0.0153779 5.32136e-20)
(0.871526 -0.0139505 -6.92937e-20)
(0.882673 -0.0126711 6.13132e-20)
(0.892838 -0.0115296 -6.63394e-20)
(0.902125 -0.0105107 -3.19191e-20)
(0.910626 -0.00959907 4.70382e-20)
(0.918421 -0.00878098 -1.84713e-21)
(0.92558 -0.00804466 2.16673e-20)
(0.932163 -0.00737997 3.66907e-20)
(0.938225 -0.00677818 -2.41049e-20)
(0.943814 -0.00623176 -4.98786e-20)
(0.94897 -0.00573423 5.37011e-20)
(0.953731 -0.00527995 -5.11787e-20)
(0.958131 -0.00486402 5.43295e-20)
(0.962197 -0.00448219 1.66282e-20)
(0.965957 -0.00413073 3.10469e-21)
(0.969433 -0.00380638 -6.02342e-20)
(0.972646 -0.00350625 -1.56426e-20)
(0.975615 -0.00322796 -4.03996e-21)
(0.97836 -0.00296982 3.88523e-20)
(0.980894 -0.00273011 -1.38857e-20)
(0.983225 -0.00250462 -1.94977e-20)
(0.985366 -0.00229264 4.61172e-20)
(0.987329 -0.00209322 -1.71629e-20)
(0.989124 -0.00190508 -2.71301e-20)
(0.990759 -0.00172705 3.73749e-20)
(0.992243 -0.00155802 -9.93643e-22)
(0.993582 -0.00139704 -3.45039e-20)
(0.994782 -0.00124319 1.58418e-20)
(0.995849 -0.00109566 1.02004e-20)
(0.996787 -0.000953677 5.08382e-22)
(0.9976 -0.000816538 -2.4963e-22)
(0.998291 -0.000683573 -5.51367e-21)
(0.998863 -0.00055415 -2.50211e-22)
(0.99932 -0.000427675 3.43754e-21)
(0.99966 -0.000303597 -6.84386e-21)
(0.999881 -0.00018136 3.41658e-21)
(0.999985 -6.02907e-05 -5.21655e-22)
(0.836117 -0.0551579 -2.48858e-19)
(0.850238 -0.0504704 -1.17144e-19)
(0.863092 -0.0458504 1.16918e-19)
(0.874808 -0.0416153 -1.96421e-19)
(0.885503 -0.0378147 3.02421e-19)
(0.895283 -0.0344211 1.91411e-19)
(0.904242 -0.0313894 -2.75325e-19)
(0.912462 -0.0286748 1.92963e-20)
(0.920016 -0.0262374 6.25181e-20)
(0.926966 -0.0240425 -6.86437e-20)
(0.933371 -0.0220602 1.60267e-19)
(0.939277 -0.0202647 -2.17806e-19)
(0.944731 -0.0186339 2.55472e-19)
(0.94977 -0.0171484 -2.9226e-19)
(0.954429 -0.0157917 1.82331e-19)
(0.958739 -0.0145491 -1.36279e-20)
(0.962726 -0.0134082 -8.32343e-20)
(0.966417 -0.0123576 1.27697e-20)
(0.969832 -0.0113878 3.86496e-20)
(0.972991 -0.0104901 -4.12841e-20)
(0.975911 -0.00965696 7.18365e-20)
(0.97861 -0.00888237 5.15729e-21)
(0.981108 -0.00816186 1.78905e-20)
(0.983411 -0.00749101 -6.37417e-20)
(0.985524 -0.0068594 1.14407e-19)
(0.987462 -0.00626406 -1.87309e-19)
(0.989234 -0.00570173 7.32352e-20)
(0.99085 -0.00516936 -2.76256e-20)
(0.992317 -0.00466383 3.54286e-20)
(0.993641 -0.00418226 -2.003e-20)
(0.994828 -0.00372198 4.81584e-20)
(0.995884 -0.00328054 -4.72756e-20)
(0.996813 -0.00285566 2.15216e-20)
(0.997618 -0.00244522 1.55852e-21)
(0.998302 -0.00204722 1.81913e-20)
(0.99887 -0.00165977 -1.02724e-20)
(0.999322 -0.00128108 -1.03565e-20)
(0.99966 -0.000909507 1.46945e-20)
(0.99988 -0.000543362 -9.02361e-21)
(0.999984 -0.00018064 -2.37138e-21)
(0.846209 -0.090588 -3.37837e-21)
(0.859022 -0.0829855 -5.52884e-19)
(0.870672 -0.075477 -1.44664e-19)
(0.881343 -0.068575 2.98452e-19)
(0.891142 -0.062367 -7.50896e-19)
(0.900157 -0.056813 1.83702e-19)
(0.908462 -0.0518431 1.80372e-19)
(0.916123 -0.0473868 3.00779e-20)
(0.923197 -0.0433806 2.54609e-19)
(0.929734 -0.0397691 7.9652e-20)
(0.935781 -0.0365042 -4.52332e-19)
(0.941379 -0.0335445 1.55121e-19)
(0.946564 -0.0308542 1.74966e-19)
(0.951369 -0.0284022 2.59554e-21)
(0.955824 -0.0261614 7.30352e-20)
(0.959956 -0.0241082 -1.94403e-19)
(0.963787 -0.022222 -1.31647e-20)
(0.96734 -0.0204846 5.29734e-20)
(0.970635 -0.0188803 -1.81254e-19)
(0.973688 -0.0173947 6.98382e-20)
(0.976514 -0.0160156 1.40515e-19)
(0.979127 -0.0147319 8.07018e-20)
(0.981538 -0.013535 -1.53811e-19)
(0.983771 -0.0124188 -7.37288e-20)
(0.985835 -0.0113751 9.57818e-20)
(0.987726 -0.0103923 -2.66311e-20)
(0.989456 -0.00946029 3.33541e-20)
(0.991033 -0.00857769 9.92965e-20)
(0.992466 -0.00773955 -1.19538e-19)
(0.99376 -0.00694112 -6.28261e-20)
(0.994922 -0.00617797 8.31535e-20)
(0.995955 -0.00544597 -1.77175e-20)
(0.996865 -0.00474134 8.35806e-20)
(0.997654 -0.00406052 -7.10199e-20)
(0.998326 -0.00340018 -3.71394e-20)
(0.998884 -0.00275716 4.91302e-20)
(0.999328 -0.00212851 2.48964e-20)
(0.999661 -0.00151144 -1.16527e-20)
(0.999878 -0.000903128 -6.45411e-21)
(0.999983 -0.000300266 -2.9702e-21)
(0.861187 -0.124031 3.02964e-19)
(0.87208 -0.113822 4.74396e-19)
(0.881955 -0.103709 -5.71203e-19)
(0.89108 -0.0943714 1.03046e-19)
(0.899551 -0.0859425 4.51449e-19)
(0.907431 -0.0783788 -1.59308e-19)
(0.914767 -0.0715934 -2.87466e-19)
(0.921596 -0.0654959 9.8644e-20)
(0.927955 -0.0600038 -7.13827e-20)
(0.933877 -0.0550445 3.61662e-19)
(0.939392 -0.0505546 6.41576e-20)
(0.944528 -0.0464793 1.45961e-19)
(0.949313 -0.0427707 -7.40711e-19)
(0.953769 -0.0393873 -3.97055e-20)
(0.957919 -0.0362927 5.23749e-19)
(0.961783 -0.0334551 -5.71729e-19)
(0.965381 -0.0308467 4.88975e-19)
(0.968728 -0.0284429 -1.33349e-19)
(0.971841 -0.026222 9.45568e-20)
(0.974734 -0.024165 -4.23702e-20)
(0.977421 -0.0222548 8.80241e-20)
(0.979911 -0.0204762 -1.19748e-19)
(0.982213 -0.0188153 1.06808e-20)
(0.984334 -0.0172599 2.19259e-19)
(0.986298 -0.0158028 -6.38976e-20)
(0.988123 -0.0144325 8.33648e-20)
(0.989796 -0.0131445 -2.83645e-19)
(0.991314 -0.0119249 2.30204e-19)
(0.992695 -0.0107627 -2.18701e-19)
(0.993944 -0.0096545 3.44061e-20)
(0.995066 -0.0085949 7.80524e-20)
(0.996066 -0.00757818 1.6379e-21)
(0.996947 -0.00659914 -4.78105e-20)
(0.997712 -0.00565287 -6.11662e-21)
(0.998364 -0.00473474 3.96214e-20)
(0.998906 -0.00384035 6.2974e-22)
(0.999339 -0.00296554 -6.39628e-21)
(0.999663 -0.0021064 -6.81509e-21)
(0.999876 -0.00125895 1.43393e-20)
(0.999981 -0.00041861 -5.37953e-21)
(0.880895 -0.154717 -1.732e-19)
(0.889307 -0.142321 -7.54338e-19)
(0.896871 -0.129993 -5.79051e-19)
(0.903975 -0.118543 3.48554e-19)
(0.910705 -0.108154 -1.31769e-20)
(0.917091 -0.0987946 -2.51148e-19)
(0.923146 -0.0903682 4.00952e-19)
(0.928877 -0.0827732 -2.50851e-19)
(0.934291 -0.0759138 4.63518e-21)
(0.939397 -0.0697049 6.66174e-19)
(0.944207 -0.0640719 -3.39384e-19)
(0.948733 -0.0589492 -3.88001e-19)
(0.952985 -0.0542797 2.19851e-19)
(0.956978 -0.0500132 1.48851e-19)
(0.960723 -0.0461058 2.70317e-19)
(0.964233 -0.0425189 -3.52855e-19)
(0.967519 -0.0392184 -1.23913e-19)
(0.970593 -0.0361743 6.16099e-19)
(0.973465 -0.0333599 -3.81069e-19)
(0.976145 -0.0307517 -2.7648e-19)
(0.978643 -0.0283285 2.48252e-19)
(0.980968 -0.0260716 -2.31286e-19)
(0.983127 -0.0239639 1.3289e-19)
(0.985127 -0.0219887 1.19294e-19)
(0.986973 -0.0201316 -1.74936e-19)
(0.988668 -0.0183862 9.56772e-20)
(0.990233 -0.0167426 1.88022e-19)
(0.991684 -0.0151849 -3.22625e-19)
(0.993005 -0.0137085 2.94743e-19)
(0.994195 -0.0123024 -2.42374e-19)
(0.995265 -0.0109567 2.06708e-19)
(0.996219 -0.00966342 -7.22858e-20)
(0.997061 -0.00841721 -1.85649e-20)
(0.997793 -0.00721228 -2.15433e-20)
(0.998418 -0.0060427 7.62298e-20)
(0.998938 -0.00490276 -5.74035e-20)
(0.999355 -0.00378717 -1.90036e-20)
(0.999668 -0.00269088 1.81245e-20)
(0.999875 -0.00160873 1.20796e-20)
(0.99998 -0.000534969 -8.98359e-21)
(0.905213 -0.182037 -5.58221e-19)
(0.910629 -0.167969 1.86021e-19)
(0.915377 -0.153921 4.55229e-19)
(0.920005 -0.140762 -6.51815e-20)
(0.924592 -0.12874 5.71728e-20)
(0.929135 -0.117844 1.55894e-19)
(0.933608 -0.107985 2.39395e-19)
(0.93798 -0.0990596 -3.55179e-19)
(0.942224 -0.0909675 -1.93585e-19)
(0.94632 -0.0836187 -2.57066e-19)
(0.950256 -0.0769323 5.68825e-19)
(0.954023 -0.0708369 -3.0659e-19)
(0.957615 -0.0652691 1.79836e-19)
(0.961032 -0.0601729 -5.86554e-19)
(0.964273 -0.0554986 6.12239e-19)
(0.96734 -0.0512023 -1.84432e-19)
(0.970236 -0.0472449 2.16373e-19)
(0.972967 -0.0435918 -6.83245e-20)
(0.975535 -0.040212 7.47084e-20)
(0.977947 -0.0370779 -2.58136e-19)
(0.980208 -0.0341649 -1.66861e-19)
(0.982322 -0.031451 -1.51641e-19)
(0.984294 -0.0289163 1.3304e-19)
(0.98613 -0.0265426 2.48936e-19)
(0.987834 -0.0243133 -1.49079e-19)
(0.989409 -0.0222124 3.32307e-19)
(0.99086 -0.0202243 -3.26455e-19)
(0.992188 -0.0183439 -2.69528e-21)
(0.993404 -0.0165615 -1.89204e-20)
(0.994516 -0.0148621 6.92305e-20)
(0.995523 -0.0132365 -1.06239e-19)
(0.996422 -0.0116774 1.12849e-19)
(0.997214 -0.0101756 -3.14521e-21)
(0.997903 -0.00872261 1.95014e-20)
(0.998493 -0.00731112 1.05843e-20)
(0.998985 -0.00593409 4.95137e-20)
(0.99938 -0.0045855 -9.29374e-20)
(0.999677 -0.00325933 4.26653e-20)
(0.999877 -0.00194917 -2.80662e-20)
(0.999979 -0.000648205 1.57364e-20)
(0.93415 -0.204992 1.66538e-18)
(0.936094 -0.189697 -8.53179e-19)
(0.937551 -0.174385 -8.17286e-20)
(0.939281 -0.159926 -9.99324e-19)
(0.94135 -0.146642 9.83902e-19)
(0.943719 -0.134547 4.71705e-19)
(0.946318 -0.123555 -1.62949e-18)
(0.949073 -0.113565 1.75966e-18)
(0.951918 -0.104475 -1.56175e-19)
(0.954802 -0.0961905 -1.4408e-18)
(0.957684 -0.0886286 7.13684e-19)
(0.960533 -0.0817141 6.24753e-19)
(0.963324 -0.0753802 -2.69122e-19)
(0.966039 -0.0695678 -1.38145e-19)
(0.968664 -0.064224 2.11247e-19)
(0.97119 -0.0593016 4.82009e-20)
(0.97361 -0.0547586 -2.37177e-20)
(0.97592 -0.0505575 -3.4035e-20)
(0.978116 -0.0466647 -5.66424e-19)
(0.980199 -0.0430498 4.36081e-19)
(0.982166 -0.0396859 4.51425e-20)
(0.98402 -0.0365483 -1.88935e-19)
(0.985761 -0.0336152 -1.31902e-19)
(0.987391 -0.0308665 1.80992e-20)
(0.988912 -0.028284 1.35614e-19)
(0.990326 -0.0258509 -6.98897e-20)
(0.991635 -0.0235516 1.02727e-19)
(0.992841 -0.0213723 7.92007e-20)
(0.993946 -0.0192979 -1.04747e-19)
(0.994955 -0.01732 -1.3627e-19)
(0.995866 -0.0154291 1.90577e-19)
(0.996683 -0.0136151 -1.31774e-19)
(0.997409 -0.0118668 9.57642e-21)
(0.998046 -0.010175 1.62988e-19)
(0.998592 -0.00853123 -2.54123e-20)
(0.999048 -0.00692782 5.12236e-20)
(0.999414 -0.0053566 -1.11553e-19)
(0.999692 -0.00380964 2.17847e-20)
(0.999881 -0.00227932 1.12907e-20)
(0.99998 -0.000758123 3.03972e-21)
(0.968968 -0.224781 2.9449e-19)
(0.966608 -0.209505 2.24774e-19)
(0.964019 -0.193896 -9.14895e-20)
(0.962213 -0.1789 1.81554e-19)
(0.961236 -0.164907 1.18667e-19)
(0.960997 -0.151975 -1.54465e-18)
(0.961363 -0.140066 5.71676e-19)
(0.962202 -0.129116 -2.54479e-19)
(0.963398 -0.119055 -4.53824e-19)
(0.964859 -0.109812 1.44475e-18)
(0.966507 -0.101317 -3.81164e-19)
(0.968284 -0.0935072 -1.01735e-18)
(0.970139 -0.0863209 8.69907e-19)
(0.972035 -0.0797021 -2.22781e-19)
(0.973942 -0.0735995 4.76997e-19)
(0.975835 -0.0679656 -2.24042e-19)
(0.977697 -0.0627572 -4.38963e-19)
(0.979513 -0.0579348 3.72128e-19)
(0.981271 -0.0534625 2.13078e-19)
(0.982963 -0.0493076 4.36014e-20)
(0.984584 -0.0454402 6.0774e-20)
(0.986128 -0.0418332 -6.72654e-20)
(0.987592 -0.0384619 -4.75773e-19)
(0.988975 -0.0353036 1.1971e-19)
(0.990275 -0.0323378 5.26233e-19)
(0.991492 -0.0295454 3.4892e-20)
(0.992624 -0.0269093 -5.48442e-19)
(0.993673 -0.0244131 2.38343e-19)
(0.99464 -0.0220417 7.04511e-20)
(0.995524 -0.019782 -1.63782e-19)
(0.996326 -0.0176212 -3.92672e-20)
(0.997047 -0.0155467 -2.04516e-20)
(0.997688 -0.0135483 -1.32475e-19)
(0.998251 -0.0116159 -1.20534e-10)
(0.998733 -0.00973949 1.20055e-10)
(0.999137 -0.00790967 7.25822e-20)
(0.999466 -0.00611647 2.47556e-20)
(0.999717 -0.00435061 -1.0773e-20)
(0.99989 -0.00260353 -7.44887e-21)
(0.999983 -0.000867034 1.52655e-20)
(1.00293 -0.226988 -2.46379e-27)
(0.99641 -0.212956 9.54255e-28)
(0.990322 -0.197863 0)
(0.985725 -0.183378 0)
(0.98238 -0.169778 0)
(0.980034 -0.157101 1.34244e-27)
(0.978493 -0.145331 -4.64726e-28)
(0.977601 -0.134427 0)
(0.977228 -0.124342 -1.12441e-27)
(0.977268 -0.11502 -3.7573e-27)
(0.977632 -0.106408 6.83231e-27)
(0.978248 -0.0984516 0)
(0.979056 -0.0910988 -1.13709e-27)
(0.980007 -0.0842999 0)
(0.981062 -0.0780083 5.03607e-27)
(0.982187 -0.0721804 0)
(0.983356 -0.0667757 0)
(0.984545 -0.0617568 0)
(0.985738 -0.0570893 0)
(0.986921 -0.0527415 0)
(0.98808 -0.0486842 0)
(0.989208 -0.0448908 6.57113e-27)
(0.990296 -0.0413368 -6.5713e-27)
(0.991339 -0.0379995 0)
(0.992332 -0.0348583 0)
(0.993271 -0.031894 -1.09442e-27)
(0.994154 -0.0290889 -1.4245e-27)
(0.994979 -0.0264269 0)
(0.995743 -0.0238926 0)
(0.996447 -0.0214722 -6.38005e-27)
(0.997088 -0.0191524 7.78972e-27)
(0.997667 -0.0169208 4.78139e-27)
(0.998183 -0.0147658 0)
(0.998636 -0.0126764 -2.35496e-10)
(0.999024 -0.0106421 2.35505e-10)
(0.999349 -0.0086524 0)
(0.999609 -0.00669789 0)
(0.999805 -0.00476926 -4.89727e-29)
(0.999932 -0.0028574 1.44539e-27)
(0.999992 -0.000953448 9.45855e-28)
(1.0244 -0.203229 2.46764e-27)
(1.01716 -0.193112 -9.5646e-28)
(1.01035 -0.181755 0)
(1.0048 -0.170458 0)
(1.00033 -0.159537 0)
(0.996792 -0.1491 9.83229e-27)
(0.994039 -0.139195 -1.07119e-26)
(0.991952 -0.129837 0)
(0.990422 -0.121029 1.12665e-27)
(0.989356 -0.112757 -9.8776e-27)
(0.988674 -0.105003 6.79678e-27)
(0.988307 -0.0977437 0)
(0.988197 -0.0909525 1.13922e-27)
(0.988294 -0.0846016 0)
(0.988556 -0.0786627 -5.04523e-27)
(0.988948 -0.0731078 0)
(0.989438 -0.0679096 0)
(0.990003 -0.0630417 0)
(0.990622 -0.058479 0)
(0.991275 -0.0541976 0)
(0.991949 -0.050175 0)
(0.992631 -0.04639 0)
(0.993311 -0.0428227 0)
(0.99398 -0.0394543 0)
(0.994632 -0.0362674 0)
(0.99526 -0.0332455 1.09611e-27)
(0.995859 -0.0303733 1.42666e-27)
(0.996427 -0.0276361 0)
(0.996959 -0.0250206 0)
(0.997454 -0.0225138 0)
(0.997908 -0.0201035 -1.41142e-27)
(0.99832 -0.0177784 -4.78788e-27)
(0.99869 -0.0155274 0)
(0.999015 -0.01334 -2.31211e-10)
(0.999295 -0.0112061 2.31211e-10)
(0.999529 -0.00911588 0)
(0.999717 -0.00705986 0)
(0.999858 -0.00502891 -9.09113e-27)
(0.99995 -0.00301384 7.69321e-27)
(0.999994 -0.00100524 -9.46728e-28)
(1.04008 -0.186473 -1.78387e-27)
(1.03275 -0.178339 -2.55695e-27)
(1.02588 -0.169184 3.21132e-27)
(1.02002 -0.159951 0)
(1.01505 -0.150876 0)
(1.01087 -0.142055 3.08308e-27)
(1.00737 -0.133547 -2.25789e-27)
(1.0045 -0.125388 0)
(1.00215 -0.117598 4.015e-27)
(1.00026 -0.110188 -1.63506e-27)
(0.998772 -0.103158 4.12002e-27)
(0.997618 -0.0965023 0)
(0.996749 -0.0902112 6.55345e-28)
(0.996122 -0.0842711 -1.42917e-27)
(0.995696 -0.0786666 0)
(0.995439 -0.0733806 6.65152e-28)
(0.995319 -0.0683955 0)
(0.995313 -0.0636933 5.75041e-27)
(0.995397 -0.0592561 -5.75041e-27)
(0.995553 -0.055066 0)
(0.995766 -0.0511058 0)
(0.99602 -0.0473589 5.86666e-27)
(0.996305 -0.0438092 -6.53723e-27)
(0.996609 -0.0404412 6.70274e-28)
(0.996925 -0.0372402 7.20069e-28)
(0.997246 -0.0341923 0)
(0.997564 -0.0312839 1.4501e-27)
(0.997875 -0.0285023 7.18582e-28)
(0.998175 -0.0258353 0)
(0.99846 -0.0232714 -4.23834e-27)
(0.998726 -0.0207993 5.01809e-27)
(0.998971 -0.0184085 0)
(0.999194 -0.0160887 6.66125e-28)
(0.999391 -0.01383 -2.26374e-10)
(0.999563 -0.0116229 2.26374e-10)
(0.999708 -0.00945811 -6.65117e-28)
(0.999824 -0.00732663 0)
(0.999912 -0.00521969 -7.14479e-28)
(0.999969 -0.0031284 -1.44056e-27)
(0.999996 -0.00104349 0)
(1.05203 -0.170829 1.78265e-27)
(1.04492 -0.16418 1.50439e-27)
(1.03821 -0.156663 -2.15875e-27)
(1.03229 -0.14902 0)
(1.02709 -0.141422 0)
(1.02255 -0.133949 -9.62808e-11)
(1.0186 -0.126652 9.62808e-11)
(1.01519 -0.119572 0)
(1.01227 -0.112734 -4.015e-27)
(1.00978 -0.106158 1.63506e-27)
(1.00767 -0.0998538 -4.12002e-27)
(1.0059 -0.0938268 0)
(1.00442 -0.0880766 -6.55345e-28)
(1.0032 -0.0825996 5.43496e-27)
(1.0022 -0.0773891 -4.00579e-27)
(1.00139 -0.0724366 -6.65152e-28)
(1.00074 -0.0677317 0)
(1.00023 -0.0632632 0)
(0.999844 -0.0590191 0)
(0.999555 -0.054987 0)
(0.999349 -0.0511543 0)
(0.999212 -0.0475084 -4.87516e-27)
(0.999133 -0.044037 5.54572e-27)
(0.999099 -0.0407277 -6.70274e-28)
(0.999102 -0.0375685 -7.20069e-28)
(0.999134 -0.0345479 0)
(0.999188 -0.0316545 -1.4501e-27)
(0.999256 -0.0288773 -7.18582e-28)
(0.999336 -0.0262058 0)
(0.999421 -0.0236297 4.8694e-27)
(0.999508 -0.0211392 -5.64915e-27)
(0.999594 -0.0187244 0)
(0.999676 -0.0163763 -6.66125e-28)
(0.999752 -0.0140856 -1.1071e-10)
(0.99982 -0.0118435 1.1071e-10)
(0.999879 -0.00964135 6.65117e-28)
(0.999927 -0.00747076 0)
(0.999963 -0.00532343 -6.48522e-28)
(0.999987 -0.00319089 2.80356e-27)
(0.999999 -0.00106431 0)
(1.06117 -0.155809 0)
(1.05431 -0.150357 -3.55437e-11)
(1.04782 -0.144162 -3.75222e-11)
(1.04197 -0.137818 0)
(1.0367 -0.131454 0)
(1.03198 -0.125133 -8.92652e-11)
(1.02777 -0.118898 8.92652e-11)
(1.02403 -0.112787 0)
(1.02072 -0.106827 0)
(1.01781 -0.101039 0)
(1.01525 -0.0954393 0)
(1.01302 -0.0900378 0)
(1.01107 -0.0848406 9.072e-28)
(1.00938 -0.0798502 -6.76271e-29)
(1.00791 -0.0750662 1.26619e-27)
(1.00665 -0.0704857 0)
(1.00557 -0.0661043 0)
(1.00464 -0.0619157 -6.0157e-27)
(1.00384 -0.0579128 6.0157e-27)
(1.00317 -0.0540877 0)
(1.0026 -0.0504317 0)
(1.00212 -0.0469358 0)
(1.00172 -0.0435909 0)
(1.00138 -0.0403875 0)
(1.0011 -0.0373163 0)
(1.00087 -0.0343679 0)
(1.00069 -0.0315331 0)
(1.00053 -0.0288026 0)
(1.00041 -0.0261676 0)
(1.00031 -0.0236192 0)
(1.00023 -0.0211487 0)
(1.00017 -0.0187476 0)
(1.00012 -0.0164077 0)
(1.00009 -0.0141207 -6.16587e-27)
(1.00006 -0.0118786 6.16587e-27)
(1.00004 -0.0096736 0)
(1.00002 -0.00749783 0)
(1.00001 -0.00534366 0)
(1 -0.00320324 0)
(1 -0.00106837 0)
(1.06802 -0.141644 0)
(1.06143 -0.137163 3.55437e-11)
(1.05519 -0.132037 3.75222e-11)
(1.04948 -0.12675 0)
(1.04425 -0.121405 0)
(1.03947 -0.11605 5.0162e-27)
(1.03513 -0.110725 -5.0162e-27)
(1.0312 -0.10546 0)
(1.02764 -0.100281 0)
(1.02445 -0.0952108 0)
(1.02157 -0.0902651 0)
(1.019 -0.0854571 0)
(1.0167 -0.080796 -9.072e-28)
(1.01465 -0.0762877 -1.19857e-27)
(1.01282 -0.0719358 0)
(1.0112 -0.0677414 0)
(1.00976 -0.0637036 0)
(1.00849 -0.0598203 0)
(1.00736 -0.0560879 0)
(1.00636 -0.0525016 0)
(1.00548 -0.0490562 0)
(1.00471 -0.0457456 -5.55808e-27)
(1.00403 -0.0425632 5.55808e-27)
(1.00343 -0.0395022 0)
(1.0029 -0.0365554 0)
(1.00244 -0.0337156 1.04692e-10)
(1.00204 -0.0309753 -1.04692e-10)
(1.00169 -0.028327 0)
(1.00139 -0.0257634 0)
(1.00112 -0.0232769 0)
(1.0009 -0.0208602 0)
(1.0007 -0.018506 0)
(1.00053 -0.0162068 0)
(1.00039 -0.0139556 -1.05743e-10)
(1.00028 -0.0117451 1.05743e-10)
(1.00018 -0.00956832 0)
(1.00011 -0.00741819 0)
(1.00005 -0.00528777 -7.06713e-27)
(1.00002 -0.00316993 7.06713e-27)
(1 -0.0010572 0)
(1.07299 -0.128276 1.08277e-27)
(1.0667 -0.124589 -3.28285e-27)
(1.06073 -0.120336 2.0715e-27)
(1.0552 -0.11592 0)
(1.05006 -0.111423 0)
(1.04531 -0.106886 1.47211e-27)
(1.04093 -0.102339 -1.47211e-27)
(1.0369 -0.0978109 1.47622e-27)
(1.0332 -0.0933241 -2.20626e-28)
(1.02982 -0.0888989 0)
(1.02674 -0.0845519 0)
(1.02393 -0.0802967 0)
(1.02138 -0.0761436 2.40074e-28)
(1.01906 -0.0721007 5.60946e-28)
(1.01696 -0.0681734 0)
(1.01505 -0.0643654 0)
(1.01334 -0.0606785 0)
(1.01178 -0.0571129 -4.55697e-27)
(1.01038 -0.0536676 4.55697e-27)
(1.00912 -0.0503406 2.60517e-28)
(1.00799 -0.0471288 -3.34808e-27)
(1.00696 -0.0440285 4.68089e-27)
(1.00605 -0.0410354 -4.68089e-27)
(1.00523 -0.0381446 0)
(1.00449 -0.0353509 0)
(1.00383 -0.0326487 2.03459e-10)
(1.00324 -0.0300324 -2.03459e-10)
(1.00272 -0.0274959 0)
(1.00226 -0.0250332 0)
(1.00185 -0.0226381 4.80713e-27)
(1.00149 -0.0203044 -4.80713e-27)
(1.00117 -0.0180259 3.4941e-27)
(1.0009 -0.0157964 -2.74316e-28)
(1.00067 -0.0136094 -1.03322e-10)
(1.00047 -0.0114588 1.03322e-10)
(1.00031 -0.00933831 0)
(1.00019 -0.00724171 0)
(1.00009 -0.0051628 -4.46708e-27)
(1.00003 -0.0030952 3.83336e-27)
(1 -0.00103221 -2.43835e-28)
(1.07646 -0.115668 -1.08228e-27)
(1.07047 -0.112631 -2.88944e-27)
(1.06478 -0.109097 4.1008e-27)
(1.05945 -0.105404 0)
(1.05445 -0.101619 0)
(1.04977 -0.0977741 -7.38321e-11)
(1.04541 -0.093896 7.38321e-11)
(1.04135 -0.0900081 -1.47622e-27)
(1.03759 -0.0861309 2.20626e-28)
(1.03411 -0.0822826 0)
(1.03089 -0.0784785 0)
(1.02792 -0.0747318 0)
(1.02519 -0.0710531 -2.40074e-28)
(1.02268 -0.0674512 -5.60946e-28)
(1.02038 -0.0639325 0)
(1.01827 -0.0605021 0)
(1.01633 -0.0571633 0)
(1.01456 -0.0539181 0)
(1.01294 -0.0507672 0)
(1.01147 -0.0477102 -2.60517e-28)
(1.01013 -0.044746 3.34808e-27)
(1.0089 -0.0418726 0)
(1.00779 -0.0390874 0)
(1.00678 -0.0363871 0)
(1.00586 -0.033768 0)
(1.00504 -0.0312261 9.89217e-11)
(1.00429 -0.028757 -9.89217e-11)
(1.00362 -0.0263561 0)
(1.00302 -0.0240186 0)
(1.00248 -0.0217395 0)
(1.00201 -0.0195136 0)
(1.00159 -0.0173357 -3.4941e-27)
(1.00122 -0.0152005 2.74316e-28)
(1.00091 -0.0131026 0)
(1.00065 -0.0110367 0)
(1.00043 -0.00899727 0)
(1.00026 -0.00697892 0)
(1.00013 -0.00497621 6.33718e-28)
(1.00004 -0.00298351 0)
(1.00001 -0.000994914 2.43835e-28)
(1.07874 -0.103779 0)
(1.07306 -0.101276 0)
(1.06763 -0.0983373 2.23866e-28)
(1.06251 -0.0952475 0)
(1.05767 -0.0920614 -3.23224e-11)
(1.0531 -0.0888059 -1.03797e-10)
(1.0488 -0.0855029 7.01391e-11)
(1.04477 -0.0821721 1.80603e-27)
(1.04099 -0.0788315 -6.84474e-28)
(1.03747 -0.0754968 0)
(1.03417 -0.0721822 -3.91968e-11)
(1.03111 -0.0688997 -4.00946e-11)
(1.02826 -0.0656596 7.53106e-28)
(1.02562 -0.0624706 3.17274e-27)
(1.02317 -0.0593396 4.24221e-11)
(1.0209 -0.0562722 4.30865e-11)
(1.0188 -0.0532725 -8.04095e-28)
(1.01686 -0.0503435 3.61543e-27)
(1.01508 -0.0474871 0)
(1.01344 -0.0447041 0)
(1.01193 -0.0419946 0)
(1.01054 -0.0393579 -4.61141e-11)
(1.00927 -0.0367926 -9.29681e-11)
(1.0081 -0.0342968 -4.68219e-11)
(1.00704 -0.0318679 -4.71296e-11)
(1.00607 -0.0295032 -4.74091e-11)
(1.00519 -0.0271994 4.76621e-11)
(1.00439 -0.024953 9.57805e-11)
(1.00368 -0.0227602 9.61898e-11)
(1.00303 -0.0206171 -4.9558e-11)
(1.00246 -0.0185195 9.78354e-11)
(1.00195 -0.016463 -3.96773e-27)
(1.00151 -0.0144432 8.96141e-28)
(1.00112 -0.0124558 -2.39389e-27)
(1.0008 -0.0104959 4.88938e-11)
(1.00053 -0.00855904 4.89635e-11)
(1.00032 -0.0066405 4.90168e-11)
(1.00016 -0.00473557 4.90535e-11)
(1.00006 -0.00283939 -2.78981e-27)
(1.00001 -0.000946809 0)
(1.08012 -0.0925587 0)
(1.07472 -0.0904953 0)
(1.06956 -0.0880521 -2.23866e-28)
(1.06465 -0.0854682 0)
(1.05997 -0.0827893 3.23224e-11)
(1.05553 -0.0800371 3.36576e-11)
(1.05132 -0.0772301 3.49338e-27)
(1.04734 -0.0743848 -1.80603e-27)
(1.04358 -0.0715164 6.84474e-28)
(1.04005 -0.0686388 0)
(1.03672 -0.0657643 3.91968e-11)
(1.03361 -0.0629039 4.00946e-11)
(1.03068 -0.0600671 -7.53106e-28)
(1.02795 -0.057262 0)
(1.0254 -0.0544955 -4.24221e-11)
(1.02302 -0.0517733 -4.30865e-11)
(1.02081 -0.0490999 8.04095e-28)
(1.01875 -0.0464788 -3.61543e-27)
(1.01683 -0.0439124 0)
(1.01506 -0.0414024 0)
(1.01342 -0.0389497 0)
(1.0119 -0.0365544 4.61141e-11)
(1.0105 -0.0342162 9.29681e-11)
(1.00921 -0.0319339 4.68219e-11)
(1.00803 -0.029706 4.71296e-11)
(1.00694 -0.0275308 4.74091e-11)
(1.00595 -0.0254057 -4.76621e-11)
(1.00505 -0.0233284 -9.57805e-11)
(1.00423 -0.0212958 -9.61898e-11)
(1.0035 -0.0193048 -1.43875e-10)
(1.00284 -0.0173521 9.55972e-11)
(1.00226 -0.0154343 3.96773e-27)
(1.00175 -0.0135477 -8.96141e-28)
(1.0013 -0.0116885 -9.66497e-11)
(1.00093 -0.0098529 4.77559e-11)
(1.00062 -0.00803698 -4.89635e-11)
(1.00037 -0.00623676 -4.90168e-11)
(1.00018 -0.00444824 -4.90535e-11)
(1.00006 -0.00266724 0)
(1.00001 -0.000889368 0)
(1.08082 -0.0819492 -1.21873e-27)
(1.07569 -0.0802502 8.14005e-28)
(1.07076 -0.0782215 5.43202e-28)
(1.06606 -0.0760646 -5.24092e-28)
(1.06154 -0.0738172 1.49026e-27)
(1.05724 -0.0714973 0)
(1.05313 -0.0691199 -1.61151e-27)
(1.04922 -0.0666989 0)
(1.04551 -0.0642473 6.32876e-28)
(1.04199 -0.0617768 -2.69467e-28)
(1.03867 -0.0592981 6.68966e-28)
(1.03553 -0.0568211 0)
(1.03257 -0.0543541 0)
(1.02979 -0.0519047 -1.30964e-27)
(1.02717 -0.0494794 5.48198e-27)
(1.02471 -0.0470835 -7.42315e-28)
(1.02241 -0.0447217 7.54354e-28)
(1.02026 -0.0423975 -4.25059e-27)
(1.01825 -0.0401137 4.25059e-27)
(1.01638 -0.0378725 -7.85831e-28)
(1.01464 -0.0356751 3.52831e-27)
(1.01302 -0.0335224 1.04887e-27)
(1.01152 -0.0314145 8.11054e-28)
(1.01013 -0.029351 0)
(1.00885 -0.0273313 -3.6611e-27)
(1.00767 -0.0253539 9.16186e-11)
(1.00659 -0.0234175 -9.16186e-11)
(1.0056 -0.0215202 0)
(1.0047 -0.0196596 0)
(1.00389 -0.0178336 -4.67987e-27)
(1.00316 -0.0160394 3.82627e-27)
(1.00252 -0.0142742 0)
(1.00195 -0.0125352 0)
(1.00146 -0.0108193 -1.89389e-10)
(1.00104 -0.00912315 1.89389e-10)
(1.00069 -0.00744366 0)
(1.00041 -0.00577744 -8.66772e-28)
(1.00021 -0.00412114 -2.67888e-27)
(1.00007 -0.00247122 2.67888e-27)
(1.00001 -0.000823973 7.6798e-28)
(1.08102 -0.0718899 1.21841e-27)
(1.07614 -0.0704946 9.55466e-28)
(1.07144 -0.0688152 -2.31267e-27)
(1.06692 -0.0670212 5.24092e-28)
(1.06257 -0.0651436 -1.49026e-27)
(1.05839 -0.063197 -6.21115e-11)