/*--------------------------------*- C++ -*----------------------------------*\
  =========                 |
  \\      /  F ield         | OpenFOAM: The Open Source CFD Toolbox
   \\    /   O peration     | Website:  https://openfoam.org
    \\  /    A nd           | Version:  7
     \\/     M anipulation  |
\*---------------------------------------------------------------------------*/
FoamFile
{
    version     2.0;
    format      ascii;
    class       volScalarField;
    location    "39.999";
    object      p;
}
// * * * * * * * * * * * * * * * * * * * * * * * * * * * * * * * * * * * * * //

dimensions      [0 2 -2 0 0 0 0];

internalField   nonuniform List<scalar> 
11400
(
-0.0816007
-0.080677
-0.0797946
-0.0789526
-0.07815
-0.077386
-0.0766596
-0.0759703
-0.075317
-0.0746993
-0.0741163
-0.0735676
-0.0730524
-0.0725702
-0.0721206
-0.071703
-0.0713171
-0.0709623
-0.0706384
-0.0703449
-0.0700817
-0.0698483
-0.0696447
-0.0694705
-0.0693255
-0.0692098
-0.069123
-0.0690652
-0.0690364
-0.218943
-0.214612
-0.210018
-0.205434
-0.200896
-0.196414
-0.192004
-0.187681
-0.183451
-0.179318
-0.175283
-0.171349
-0.167517
-0.163786
-0.160158
-0.156632
-0.153206
-0.149881
-0.146654
-0.143524
-0.14049
-0.13755
-0.134701
-0.131943
-0.129272
-0.126688
-0.124188
-0.121771
-0.119434
-0.117175
-0.114992
-0.112884
-0.110848
-0.108882
-0.106986
-0.105156
-0.10339
-0.101688
-0.100048
-0.098467
-0.0969442
-0.095478
-0.0940668
-0.092709
-0.0914034
-0.0901485
-0.088943
-0.0877855
-0.086675
-0.0856102
-0.08459
-0.0836133
-0.082679
-0.0817863
-0.0809341
-0.0801215
-0.0793478
-0.078612
-0.0779135
-0.0772514
-0.0766252
-0.0760341
-0.0754775
-0.0749549
-0.0744658
-0.0740096
-0.0735858
-0.073194
-0.0728339
-0.072505
-0.0722071
-0.0719398
-0.0717028
-0.071496
-0.0713191
-0.0711719
-0.0710544
-0.0709663
-0.0709076
-0.0708783
-0.219084
-0.214894
-0.210437
-0.205982
-0.201563
-0.197192
-0.192889
-0.188666
-0.184531
-0.180488
-0.176539
-0.172685
-0.168927
-0.165267
-0.161703
-0.158236
-0.154866
-0.15159
-0.148409
-0.14532
-0.142323
-0.139415
-0.136596
-0.133863
-0.131216
-0.128651
-0.126168
-0.123764
-0.121438
-0.119188
-0.117013
-0.11491
-0.112877
-0.110914
-0.109017
-0.107186
-0.105419
-0.103714
-0.102069
-0.100483
-0.098955
-0.0974825
-0.0960645
-0.0946996
-0.0933864
-0.0921236
-0.0909099
-0.0897441
-0.0886251
-0.0875517
-0.0865228
-0.0855375
-0.0845946
-0.0836934
-0.0828328
-0.082012
-0.0812301
-0.0804865
-0.0797802
-0.0791107
-0.0784773
-0.0778793
-0.0773161
-0.0767872
-0.076292
-0.0758301
-0.075401
-0.0750042
-0.0746395
-0.0743063
-0.0740045
-0.0737337
-0.0734936
-0.073284
-0.0731047
-0.0729556
-0.0728365
-0.0727472
-0.0726878
-0.0726581
-0.219092
-0.215041
-0.21072
-0.206392
-0.20209
-0.197827
-0.193625
-0.189498
-0.185455
-0.181499
-0.177632
-0.173855
-0.170171
-0.166579
-0.163079
-0.159671
-0.156355
-0.153131
-0.149996
-0.146949
-0.143991
-0.141118
-0.13833
-0.135626
-0.133003
-0.13046
-0.127996
-0.125609
-0.123298
-0.12106
-0.118894
-0.116799
-0.114773
-0.112814
-0.110921
-0.109092
-0.107326
-0.10562
-0.103974
-0.102387
-0.100855
-0.0993791
-0.0979568
-0.0965871
-0.0952685
-0.0940001
-0.0927804
-0.0916083
-0.0904828
-0.0894028
-0.0883672
-0.087375
-0.0864253
-0.0855172
-0.0846497
-0.0838221
-0.0830336
-0.0822834
-0.0815708
-0.080895
-0.0802556
-0.0796517
-0.0790829
-0.0785486
-0.0780483
-0.0775816
-0.0771479
-0.0767468
-0.0763781
-0.0760413
-0.0757361
-0.0754622
-0.0752194
-0.0750075
-0.0748262
-0.0746753
-0.0745548
-0.0744645
-0.0744044
-0.0743744
-0.218978
-0.215062
-0.210874
-0.206671
-0.202482
-0.198325
-0.194221
-0.190188
-0.186233
-0.182361
-0.178574
-0.174873
-0.171259
-0.167734
-0.164297
-0.160948
-0.157687
-0.154513
-0.151425
-0.148422
-0.145503
-0.142667
-0.139912
-0.137237
-0.134641
-0.132123
-0.12968
-0.127312
-0.125018
-0.122795
-0.120642
-0.118557
-0.11654
-0.114589
-0.112702
-0.110877
-0.109114
-0.107411
-0.105766
-0.104178
-0.102646
-0.101169
-0.0997447
-0.0983724
-0.0970507
-0.0957787
-0.094555
-0.0933787
-0.0922486
-0.0911637
-0.0901231
-0.0891258
-0.0881708
-0.0872574
-0.0863846
-0.0855517
-0.0847578
-0.0840023
-0.0832845
-0.0826037
-0.0819593
-0.0813506
-0.0807772
-0.0802384
-0.0797339
-0.0792631
-0.0788256
-0.0784209
-0.0780488
-0.0777089
-0.0774009
-0.0771244
-0.0768793
-0.0766654
-0.0764823
-0.07633
-0.0762083
-0.0761172
-0.0760565
-0.0760261
-0.218748
-0.214959
-0.2109
-0.206816
-0.202738
-0.198683
-0.194676
-0.190734
-0.186865
-0.183074
-0.179365
-0.175738
-0.172195
-0.168735
-0.165361
-0.16207
-0.158864
-0.15574
-0.1527
-0.149741
-0.146863
-0.144064
-0.141344
-0.1387
-0.136133
-0.133641
-0.131222
-0.128876
-0.1266
-0.124394
-0.122256
-0.120185
-0.118179
-0.116238
-0.114359
-0.112541
-0.110784
-0.109085
-0.107444
-0.105859
-0.104329
-0.102852
-0.101428
-0.100055
-0.0987328
-0.0974591
-0.0962335
-0.0950547
-0.0939219
-0.092834
-0.09179
-0.0907892
-0.0898306
-0.0889133
-0.0880366
-0.0871997
-0.0864019
-0.0856424
-0.0849206
-0.0842359
-0.0835876
-0.0829751
-0.082398
-0.0818557
-0.0813478
-0.0808737
-0.0804331
-0.0800255
-0.0796507
-0.0793083
-0.0789979
-0.0787193
-0.0784724
-0.0782567
-0.0780722
-0.0779187
-0.0777961
-0.0777042
-0.077643
-0.0776124
-0.218408
-0.214738
-0.2108
-0.206831
-0.202859
-0.198904
-0.19499
-0.191137
-0.187352
-0.183641
-0.180008
-0.176454
-0.172979
-0.169585
-0.166272
-0.16304
-0.159888
-0.156816
-0.153824
-0.15091
-0.148073
-0.145313
-0.142629
-0.140019
-0.137483
-0.135018
-0.132625
-0.130302
-0.128047
-0.12586
-0.12374
-0.121684
-0.119692
-0.117763
-0.115895
-0.114086
-0.112337
-0.110645
-0.10901
-0.10743
-0.105903
-0.10443
-0.103008
-0.101637
-0.100315
-0.0990416
-0.0978158
-0.0966364
-0.0955026
-0.0944133
-0.0933677
-0.092365
-0.0914042
-0.0904846
-0.0896054
-0.0887659
-0.0879653
-0.0872031
-0.0864785
-0.0857909
-0.0851398
-0.0845246
-0.0839447
-0.0833998
-0.0828892
-0.0824126
-0.0819696
-0.0815598
-0.0811829
-0.0808385
-0.0805263
-0.0802461
-0.0799976
-0.0797806
-0.079595
-0.0794405
-0.0793171
-0.0792247
-0.079163
-0.0791323
-0.217964
-0.214404
-0.210581
-0.206722
-0.202852
-0.198993
-0.19517
-0.191403
-0.1877
-0.184068
-0.180509
-0.177026
-0.173619
-0.17029
-0.167038
-0.163864
-0.160767
-0.157747
-0.154803
-0.151934
-0.149141
-0.146421
-0.143773
-0.141198
-0.138694
-0.136259
-0.133893
-0.131595
-0.129364
-0.127198
-0.125096
-0.123058
-0.121082
-0.119167
-0.117311
-0.115515
-0.113775
-0.112092
-0.110465
-0.108891
-0.107371
-0.105902
-0.104485
-0.103117
-0.101798
-0.100527
-0.0993026
-0.0981243
-0.0969911
-0.0959021
-0.0948564
-0.0938532
-0.0928917
-0.0919712
-0.0910908
-0.09025
-0.0894479
-0.0886841
-0.0879578
-0.0872684
-0.0866155
-0.0859985
-0.0854168
-0.08487
-0.0843576
-0.0838793
-0.0834346
-0.0830232
-0.0826447
-0.0822989
-0.0819853
-0.0817039
-0.0814543
-0.0812364
-0.0810499
-0.0808947
-0.0807707
-0.0806778
-0.0806159
-0.080585
-0.217418
-0.213962
-0.210248
-0.206494
-0.202723
-0.198957
-0.195223
-0.191539
-0.187916
-0.18436
-0.180875
-0.177461
-0.174122
-0.170856
-0.167665
-0.164549
-0.161506
-0.158538
-0.155643
-0.152821
-0.15007
-0.147391
-0.144782
-0.142242
-0.139771
-0.137368
-0.135031
-0.132759
-0.130553
-0.128409
-0.126329
-0.12431
-0.122351
-0.120452
-0.118612
-0.116828
-0.115101
-0.113429
-0.111811
-0.110246
-0.108733
-0.107272
-0.10586
-0.104497
-0.103183
-0.101916
-0.100695
-0.0995191
-0.0983881
-0.0973008
-0.0962565
-0.0952542
-0.0942934
-0.0933732
-0.0924929
-0.091652
-0.0908496
-0.0900853
-0.0893583
-0.0886682
-0.0880145
-0.0873965
-0.0868138
-0.086266
-0.0857526
-0.0852733
-0.0848276
-0.0844151
-0.0840357
-0.0836889
-0.0833745
-0.0830923
-0.0828419
-0.0826233
-0.0824363
-0.0822806
-0.0821562
-0.082063
-0.0820009
-0.0819699
-0.216775
-0.213415
-0.209805
-0.206152
-0.202477
-0.198801
-0.195152
-0.19155
-0.188005
-0.184524
-0.18111
-0.177766
-0.174492
-0.17129
-0.168159
-0.1651
-0.162112
-0.159196
-0.15635
-0.153574
-0.150867
-0.14823
-0.14566
-0.143157
-0.14072
-0.138349
-0.136042
-0.133798
-0.131618
-0.129499
-0.127441
-0.125443
-0.123504
-0.121623
-0.119798
-0.11803
-0.116316
-0.114657
-0.11305
-0.111496
-0.109992
-0.108539
-0.107135
-0.105779
-0.104471
-0.103209
-0.101993
-0.100821
-0.0996941
-0.09861
-0.0975684
-0.0965685
-0.0956095
-0.0946909
-0.093812
-0.092972
-0.0921704
-0.0914066
-0.0906801
-0.0899902
-0.0893365
-0.0887185
-0.0881356
-0.0875876
-0.0870739
-0.0865942
-0.0861481
-0.0857353
-0.0853554
-0.0850082
-0.0846934
-0.0844107
-0.08416
-0.083941
-0.0837537
-0.0835978
-0.0834732
-0.0833798
-0.0833176
-0.0832865
-0.216036
-0.212766
-0.209254
-0.205698
-0.202115
-0.198527
-0.194962
-0.19144
-0.187971
-0.184564
-0.181221
-0.177944
-0.174735
-0.171595
-0.168524
-0.165522
-0.162589
-0.159724
-0.156928
-0.154199
-0.151537
-0.148941
-0.14641
-0.143945
-0.141544
-0.139206
-0.13693
-0.134716
-0.132563
-0.13047
-0.128436
-0.12646
-0.124542
-0.12268
-0.120873
-0.119121
-0.117423
-0.115778
-0.114184
-0.112642
-0.111149
-0.109706
-0.108311
-0.106964
-0.105663
-0.104408
-0.103198
-0.102032
-0.10091
-0.0998304
-0.0987927
-0.0977963
-0.0968406
-0.0959247
-0.0950482
-0.0942103
-0.0934106
-0.0926484
-0.0919231
-0.0912344
-0.0905816
-0.0899643
-0.0893821
-0.0888346
-0.0883213
-0.0878419
-0.087396
-0.0869833
-0.0866035
-0.0862563
-0.0859415
-0.0856589
-0.0854081
-0.0851891
-0.0850017
-0.0848458
-0.0847211
-0.0846277
-0.0845655
-0.0845344
-0.215203
-0.212015
-0.208598
-0.205136
-0.201643
-0.19814
-0.194656
-0.191212
-0.187819
-0.184484
-0.18121
-0.178
-0.174856
-0.171777
-0.168765
-0.16582
-0.162941
-0.160128
-0.157381
-0.154699
-0.152082
-0.149529
-0.147039
-0.144612
-0.142246
-0.139943
-0.137699
-0.135516
-0.133391
-0.131325
-0.129316
-0.127364
-0.125468
-0.123627
-0.121839
-0.120106
-0.118424
-0.116794
-0.115215
-0.113686
-0.112206
-0.110775
-0.10939
-0.108052
-0.106761
-0.105514
-0.104311
-0.103152
-0.102036
-0.100963
-0.0999301
-0.0989385
-0.097987
-0.097075
-0.096202
-0.0953672
-0.0945703
-0.0938106
-0.0930876
-0.0924008
-0.0917498
-0.0911341
-0.0905533
-0.090007
-0.0894947
-0.0890162
-0.0885711
-0.0881591
-0.0877799
-0.0874332
-0.0871189
-0.0868365
-0.0865861
-0.0863674
-0.0861801
-0.0860243
-0.0858998
-0.0858065
-0.0857443
-0.0857133
-0.214278
-0.211165
-0.207838
-0.204467
-0.201061
-0.197641
-0.194238
-0.190871
-0.187552
-0.184288
-0.181083
-0.177939
-0.174858
-0.17184
-0.168887
-0.165998
-0.163173
-0.160412
-0.157714
-0.15508
-0.152507
-0.149997
-0.147548
-0.14516
-0.142832
-0.140563
-0.138353
-0.136201
-0.134106
-0.132068
-0.130085
-0.128158
-0.126285
-0.124466
-0.122699
-0.120985
-0.119321
-0.117708
-0.116145
-0.114631
-0.113165
-0.111746
-0.110373
-0.109046
-0.107765
-0.106527
-0.105334
-0.104183
-0.103074
-0.102007
-0.100981
-0.0999956
-0.0990494
-0.0981424
-0.0972738
-0.0964432
-0.09565
-0.0948937
-0.0941738
-0.0934898
-0.0928414
-0.092228
-0.0916492
-0.0911048
-0.0905942
-0.0901172
-0.0896735
-0.0892626
-0.0888845
-0.0885388
-0.0882252
-0.0879436
-0.0876938
-0.0874755
-0.0872888
-0.0871333
-0.0870091
-0.086916
-0.0868539
-0.086823
-0.213263
-0.210215
-0.206975
-0.203692
-0.200372
-0.197035
-0.193711
-0.19042
-0.187174
-0.18398
-0.180842
-0.177763
-0.174745
-0.171789
-0.168894
-0.16606
-0.163289
-0.16058
-0.157932
-0.155344
-0.152817
-0.15035
-0.147943
-0.145594
-0.143303
-0.14107
-0.138894
-0.136774
-0.13471
-0.1327
-0.130746
-0.128844
-0.126996
-0.1252
-0.123455
-0.121761
-0.120117
-0.118522
-0.116976
-0.115477
-0.114026
-0.112621
-0.111262
-0.109947
-0.108677
-0.10745
-0.106266
-0.105125
-0.104025
-0.102966
-0.101947
-0.100968
-0.100029
-0.0991274
-0.0982643
-0.0974387
-0.0966501
-0.0958981
-0.0951821
-0.0945017
-0.0938566
-0.0932462
-0.0926702
-0.0921282
-0.0916199
-0.091145
-0.0907031
-0.090294
-0.0899173
-0.089573
-0.0892606
-0.08898
-0.0887311
-0.0885137
-0.0883276
-0.0881727
-0.0880489
-0.0879561
-0.0878942
-0.0878634
-0.21216
-0.209165
-0.206008
-0.202814
-0.199579
-0.196324
-0.193078
-0.189862
-0.186688
-0.183563
-0.180492
-0.177478
-0.174522
-0.171625
-0.168788
-0.166011
-0.163293
-0.160635
-0.158036
-0.155497
-0.153015
-0.150592
-0.148226
-0.145917
-0.143664
-0.141468
-0.139326
-0.137239
-0.135206
-0.133227
-0.1313
-0.129426
-0.127603
-0.125831
-0.124109
-0.122436
-0.120812
-0.119237
-0.117709
-0.116227
-0.114792
-0.113402
-0.112057
-0.110756
-0.109498
-0.108283
-0.107111
-0.105979
-0.104889
-0.103839
-0.102829
-0.101858
-0.100925
-0.100031
-0.0991741
-0.0983544
-0.0975712
-0.0968243
-0.096113
-0.0954369
-0.0947958
-0.094189
-0.0936164
-0.0930776
-0.0925721
-0.0920998
-0.0916603
-0.0912533
-0.0908786
-0.0905359
-0.0902251
-0.0899459
-0.0896982
-0.0894818
-0.0892966
-0.0891424
-0.0890191
-0.0889268
-0.0888652
-0.0888345
-0.210974
-0.208008
-0.204935
-0.201833
-0.198685
-0.195511
-0.192343
-0.189201
-0.186098
-0.183042
-0.180037
-0.177087
-0.174192
-0.171355
-0.168575
-0.165853
-0.163189
-0.160582
-0.158033
-0.155541
-0.153105
-0.150725
-0.148401
-0.146133
-0.143919
-0.141759
-0.139652
-0.137599
-0.135598
-0.133649
-0.131752
-0.129905
-0.128108
-0.126361
-0.124663
-0.123013
-0.121411
-0.119856
-0.118347
-0.116883
-0.115465
-0.114091
-0.112762
-0.111475
-0.110231
-0.109029
-0.107868
-0.106748
-0.105668
-0.104628
-0.103627
-0.102665
-0.10174
-0.100854
-0.100004
-0.099191
-0.0984141
-0.0976729
-0.096967
-0.096296
-0.0956594
-0.095057
-0.0944884
-0.0939532
-0.0934512
-0.0929819
-0.0925452
-0.0921408
-0.0917685
-0.0914279
-0.091119
-0.0908415
-0.0905952
-0.0903801
-0.0901959
-0.0900426
-0.0899201
-0.0898283
-0.0897671
-0.0897365
-0.209698
-0.206737
-0.203761
-0.200758
-0.197696
-0.194601
-0.191509
-0.188441
-0.185408
-0.18242
-0.17948
-0.176593
-0.173759
-0.170981
-0.168258
-0.165591
-0.16298
-0.160424
-0.157924
-0.155479
-0.153089
-0.150754
-0.148472
-0.146244
-0.144069
-0.141946
-0.139876
-0.137857
-0.135888
-0.133971
-0.132103
-0.130285
-0.128515
-0.126794
-0.125121
-0.123494
-0.121914
-0.12038
-0.118891
-0.117447
-0.116047
-0.11469
-0.113376
-0.112105
-0.110875
-0.109687
-0.108539
-0.107431
-0.106363
-0.105334
-0.104343
-0.10339
-0.102475
-0.101597
-0.100755
-0.0999493
-0.0991793
-0.0984446
-0.0977448
-0.0970794
-0.0964482
-0.0958507
-0.0952866
-0.0947556
-0.0942575
-0.0937918
-0.0933584
-0.092957
-0.0925873
-0.0922492
-0.0919425
-0.0916669
-0.0914224
-0.0912088
-0.0910259
-0.0908736
-0.0907519
-0.0906607
-0.0905999
-0.0905696
-0.208318
-0.205339
-0.2025
-0.199599
-0.196616
-0.193598
-0.190581
-0.187586
-0.184622
-0.181701
-0.178825
-0.176
-0.173227
-0.170507
-0.16784
-0.165228
-0.162669
-0.160164
-0.157714
-0.155316
-0.152972
-0.150681
-0.148441
-0.146254
-0.144118
-0.142033
-0.139999
-0.138015
-0.13608
-0.134194
-0.132357
-0.130568
-0.128826
-0.127132
-0.125483
-0.123881
-0.122324
-0.120812
-0.119344
-0.11792
-0.116539
-0.1152
-0.113903
-0.112648
-0.111434
-0.11026
-0.109126
-0.108031
-0.106975
-0.105957
-0.104978
-0.104035
-0.10313
-0.102261
-0.101428
-0.10063
-0.0998678
-0.0991403
-0.0984471
-0.097788
-0.0971627
-0.0965706
-0.0960116
-0.0954853
-0.0949915
-0.0945299
-0.0941001
-0.0937021
-0.0933355
-0.0930002
-0.092696
-0.0924227
-0.0921801
-0.0919682
-0.0917868
-0.0916357
-0.091515
-0.0914245
-0.0913642
-0.0913341
-0.206717
-0.203903
-0.20119
-0.198362
-0.19545
-0.192508
-0.189565
-0.18664
-0.183744
-0.180888
-0.178076
-0.175312
-0.172598
-0.169935
-0.167325
-0.164766
-0.16226
-0.159806
-0.157404
-0.155054
-0.152756
-0.150509
-0.148312
-0.146166
-0.14407
-0.142023
-0.140025
-0.138076
-0.136175
-0.134322
-0.132516
-0.130756
-0.129043
-0.127376
-0.125754
-0.124177
-0.122643
-0.121154
-0.119708
-0.118304
-0.116943
-0.115623
-0.114344
-0.113106
-0.111908
-0.110749
-0.109629
-0.108549
-0.107506
-0.1065
-0.105532
-0.104601
-0.103706
-0.102847
-0.102023
-0.101234
-0.10048
-0.0997606
-0.0990748
-0.0984225
-0.0978036
-0.0972175
-0.0966641
-0.096143
-0.0956539
-0.0951967
-0.0947711
-0.0943768
-0.0940137
-0.0936815
-0.09338
-0.0931092
-0.0928688
-0.0926588
-0.092479
-0.0923293
-0.0922096
-0.0921199
-0.0920601
-0.0920303
-0.205113
-0.202497
-0.199822
-0.19705
-0.194208
-0.191337
-0.188465
-0.185607
-0.182777
-0.179985
-0.177235
-0.174531
-0.171876
-0.16927
-0.166715
-0.16421
-0.161756
-0.159353
-0.157
-0.154697
-0.152444
-0.150241
-0.148087
-0.145982
-0.143926
-0.141918
-0.139957
-0.138043
-0.136176
-0.134356
-0.132582
-0.130853
-0.129169
-0.127529
-0.125934
-0.124382
-0.122874
-0.121408
-0.119984
-0.118602
-0.117261
-0.11596
-0.1147
-0.11348
-0.112298
-0.111156
-0.110052
-0.108985
-0.107956
-0.106964
-0.106008
-0.105089
-0.104205
-0.103356
-0.102542
-0.101763
-0.101018
-0.100307
-0.0996286
-0.0989838
-0.0983717
-0.0977921
-0.0972447
-0.0967292
-0.0962454
-0.095793
-0.0953719
-0.0949817
-0.0946223
-0.0942935
-0.0939951
-0.093727
-0.093489
-0.0932811
-0.093103
-0.0929548
-0.0928363
-0.0927475
-0.0926883
-0.0926588
-0.203523
-0.201012
-0.19838
-0.195666
-0.192892
-0.190089
-0.187283
-0.184491
-0.181725
-0.178994
-0.176306
-0.173661
-0.171064
-0.168514
-0.166014
-0.163562
-0.16116
-0.158806
-0.156502
-0.154247
-0.15204
-0.149881
-0.14777
-0.145706
-0.14369
-0.14172
-0.139797
-0.137919
-0.136087
-0.1343
-0.132558
-0.130859
-0.129205
-0.127594
-0.126026
-0.124501
-0.123017
-0.121576
-0.120175
-0.118815
-0.117495
-0.116215
-0.114974
-0.113772
-0.112608
-0.111482
-0.110394
-0.109342
-0.108328
-0.107349
-0.106407
-0.1055
-0.104628
-0.10379
-0.102987
-0.102217
-0.101482
-0.100779
-0.10011
-0.0994726
-0.0988679
-0.0982952
-0.0977543
-0.0972449
-0.0967667
-0.0963195
-0.0959031
-0.0955174
-0.095162
-0.0948368
-0.0945418
-0.0942766
-0.0940413
-0.0938356
-0.0936595
-0.0935129
-0.0933957
-0.0933078
-0.0932493
-0.09322
-0.201874
-0.199437
-0.196855
-0.194204
-0.191498
-0.188762
-0.186021
-0.183292
-0.180588
-0.177919
-0.17529
-0.172704
-0.170164
-0.16767
-0.165223
-0.162825
-0.160474
-0.15817
-0.155915
-0.153706
-0.151545
-0.149431
-0.147363
-0.145341
-0.143364
-0.141433
-0.139547
-0.137706
-0.135909
-0.134156
-0.132446
-0.130779
-0.129155
-0.127573
-0.126033
-0.124534
-0.123076
-0.121659
-0.120282
-0.118945
-0.117646
-0.116387
-0.115166
-0.113983
-0.112837
-0.111729
-0.110657
-0.109622
-0.108622
-0.107658
-0.106729
-0.105835
-0.104975
-0.104149
-0.103357
-0.102598
-0.101873
-0.101179
-0.100519
-0.09989
-0.0992932
-0.0987278
-0.0981938
-0.0976908
-0.0972186
-0.0967769
-0.0963657
-0.0959846
-0.0956335
-0.0953123
-0.0950208
-0.0947588
-0.0945263
-0.094323
-0.094149
-0.0940041
-0.0938883
-0.0938014
-0.0937436
-0.0937147
-0.200143
-0.197778
-0.195252
-0.192664
-0.190024
-0.187353
-0.184676
-0.18201
-0.179369
-0.17676
-0.17419
-0.171662
-0.169178
-0.16674
-0.164347
-0.162001
-0.159701
-0.157447
-0.15524
-0.153078
-0.150963
-0.148893
-0.146868
-0.144887
-0.142951
-0.14106
-0.139211
-0.137407
-0.135645
-0.133926
-0.132249
-0.130614
-0.12902
-0.127468
-0.125956
-0.124484
-0.123053
-0.121661
-0.120308
-0.118994
-0.117718
-0.11648
-0.115279
-0.114116
-0.112989
-0.111898
-0.110844
-0.109825
-0.108841
-0.107892
-0.106977
-0.106096
-0.105249
-0.104436
-0.103655
-0.102907
-0.102192
-0.101508
-0.100857
-0.100237
-0.0996484
-0.0990908
-0.098564
-0.0980678
-0.0976019
-0.0971661
-0.0967603
-0.0963842
-0.0960377
-0.0957207
-0.0954329
-0.0951743
-0.0949447
-0.0947441
-0.0945722
-0.0944292
-0.0943148
-0.0942291
-0.094172
-0.0941434
-0.198337
-0.19604
-0.193573
-0.191048
-0.188472
-0.185865
-0.183251
-0.180648
-0.178068
-0.17552
-0.173008
-0.170537
-0.168109
-0.165726
-0.163386
-0.161092
-0.158843
-0.156639
-0.15448
-0.152366
-0.150296
-0.14827
-0.146288
-0.144349
-0.142454
-0.140601
-0.138791
-0.137023
-0.135297
-0.133612
-0.131968
-0.130365
-0.128803
-0.12728
-0.125797
-0.124354
-0.122949
-0.121582
-0.120254
-0.118964
-0.11771
-0.116494
-0.115315
-0.114171
-0.113064
-0.111992
-0.110955
-0.109953
-0.108985
-0.108051
-0.107151
-0.106284
-0.105451
-0.10465
-0.103881
-0.103145
-0.10244
-0.101767
-0.101125
-0.100515
-0.0999347
-0.0993852
-0.098866
-0.0983769
-0.0979176
-0.097488
-0.0970879
-0.0967171
-0.0963754
-0.0960628
-0.095779
-0.0955239
-0.0952974
-0.0950995
-0.09493
-0.0947889
-0.0946761
-0.0945915
-0.0945351
-0.094507
-0.196459
-0.194228
-0.19182
-0.189356
-0.186843
-0.1843
-0.181749
-0.179207
-0.176688
-0.174199
-0.171746
-0.169332
-0.16696
-0.16463
-0.162344
-0.160102
-0.157903
-0.155749
-0.153638
-0.151571
-0.149546
-0.147565
-0.145626
-0.143729
-0.141874
-0.140061
-0.138289
-0.136558
-0.134868
-0.133218
-0.131608
-0.130037
-0.128506
-0.127013
-0.125559
-0.124144
-0.122766
-0.121426
-0.120123
-0.118856
-0.117627
-0.116433
-0.115275
-0.114152
-0.113064
-0.112011
-0.110992
-0.110007
-0.109056
-0.108138
-0.107253
-0.106401
-0.105581
-0.104793
-0.104037
-0.103313
-0.102619
-0.101957
-0.101325
-0.100724
-0.100153
-0.0996121
-0.0991008
-0.0986191
-0.0981668
-0.0977436
-0.0973495
-0.0969841
-0.0966475
-0.0963394
-0.0960598
-0.0958084
-0.0955853
-0.0953902
-0.0952232
-0.0950841
-0.0949729
-0.0948895
-0.094834
-0.0948062
-0.194512
-0.192343
-0.189993
-0.18759
-0.18514
-0.182659
-0.180169
-0.177689
-0.17523
-0.1728
-0.170405
-0.168047
-0.165731
-0.163455
-0.161222
-0.159032
-0.156884
-0.154779
-0.152716
-0.150695
-0.148716
-0.146779
-0.144884
-0.143029
-0.141215
-0.139441
-0.137708
-0.136014
-0.13436
-0.132744
-0.131168
-0.12963
-0.128131
-0.126669
-0.125244
-0.123857
-0.122507
-0.121193
-0.119916
-0.118674
-0.117468
-0.116297
-0.11516
-0.114059
-0.112991
-0.111957
-0.110957
-0.10999
-0.109056
-0.108154
-0.107285
-0.106448
-0.105642
-0.104868
-0.104124
-0.103412
-0.10273
-0.102079
-0.101458
-0.100867
-0.100305
-0.0997725
-0.0992695
-0.0987955
-0.0983503
-0.0979339
-0.0975459
-0.0971863
-0.096855
-0.0965517
-0.0962763
-0.0960289
-0.0958091
-0.0956171
-0.0954526
-0.0953156
-0.0952061
-0.095124
-0.0950693
-0.095042
-0.192494
-0.190386
-0.188093
-0.185751
-0.183362
-0.180943
-0.178515
-0.176096
-0.173696
-0.171325
-0.168987
-0.166686
-0.164425
-0.162203
-0.160023
-0.157884
-0.155787
-0.153731
-0.151716
-0.149742
-0.147809
-0.145916
-0.144064
-0.142251
-0.140478
-0.138744
-0.137049
-0.135393
-0.133775
-0.132195
-0.130652
-0.129148
-0.12768
-0.126249
-0.124854
-0.123496
-0.122174
-0.120887
-0.119635
-0.118418
-0.117236
-0.116088
-0.114974
-0.113894
-0.112847
-0.111833
-0.110852
-0.109903
-0.108986
-0.108101
-0.107248
-0.106426
-0.105634
-0.104874
-0.104144
-0.103444
-0.102775
-0.102135
-0.101524
-0.100943
-0.100391
-0.0998677
-0.0993732
-0.0989071
-0.0984694
-0.0980599
-0.0976784
-0.0973247
-0.0969988
-0.0967004
-0.0964296
-0.0961861
-0.09597
-0.095781
-0.0956192
-0.0954844
-0.0953767
-0.0952959
-0.0952421
-0.0952152
-0.190409
-0.188359
-0.186123
-0.18384
-0.181512
-0.179154
-0.176788
-0.174429
-0.172089
-0.169776
-0.167495
-0.165251
-0.163044
-0.160876
-0.158749
-0.156661
-0.154614
-0.152607
-0.150641
-0.148714
-0.146826
-0.144978
-0.143169
-0.141398
-0.139666
-0.137972
-0.136316
-0.134697
-0.133115
-0.131571
-0.130063
-0.128591
-0.127155
-0.125756
-0.124391
-0.123062
-0.121768
-0.120508
-0.119283
-0.118091
-0.116933
-0.115809
-0.114718
-0.113659
-0.112633
-0.111639
-0.110677
-0.109747
-0.108848
-0.10798
-0.107143
-0.106337
-0.10556
-0.104814
-0.104098
-0.103411
-0.102753
-0.102125
-0.101526
-0.100955
-0.100413
-0.0998988
-0.099413
-0.0989552
-0.0985251
-0.0981227
-0.0977479
-0.0974003
-0.09708
-0.0967868
-0.0965206
-0.0962813
-0.0960688
-0.0958831
-0.095724
-0.0955915
-0.0954856
-0.0954062
-0.0953533
-0.0953268
-0.188255
-0.186262
-0.184083
-0.181858
-0.179591
-0.177294
-0.174988
-0.172689
-0.170409
-0.168154
-0.165931
-0.163742
-0.16159
-0.159477
-0.157402
-0.155366
-0.153369
-0.151411
-0.149492
-0.147612
-0.14577
-0.143966
-0.1422
-0.140472
-0.138781
-0.137127
-0.135509
-0.133928
-0.132383
-0.130874
-0.129401
-0.127963
-0.126559
-0.125191
-0.123857
-0.122557
-0.121291
-0.120059
-0.11886
-0.117694
-0.116561
-0.115461
-0.114392
-0.113356
-0.112351
-0.111378
-0.110435
-0.109524
-0.108643
-0.107792
-0.106972
-0.106182
-0.105421
-0.104689
-0.103986
-0.103313
-0.102668
-0.102052
-0.101463
-0.100903
-0.100371
-0.099867
-0.0993902
-0.0989408
-0.0985187
-0.0981236
-0.0977555
-0.0974143
-0.0970998
-0.0968119
-0.0965504
-0.0963154
-0.0961067
-0.0959243
-0.095768
-0.0956379
-0.0955339
-0.0954559
-0.0954039
-0.0953779
-0.186036
-0.184098
-0.181975
-0.179808
-0.177601
-0.175364
-0.173119
-0.17088
-0.168658
-0.166462
-0.164296
-0.162163
-0.160066
-0.158006
-0.155983
-0.153999
-0.152052
-0.150143
-0.148272
-0.146439
-0.144643
-0.142884
-0.141161
-0.139475
-0.137825
-0.136211
-0.134633
-0.133089
-0.131581
-0.130108
-0.128669
-0.127265
-0.125894
-0.124557
-0.123254
-0.121984
-0.120747
-0.119542
-0.11837
-0.11723
-0.116122
-0.115046
-0.114
-0.112986
-0.112003
-0.11105
-0.110128
-0.109236
-0.108373
-0.10754
-0.106737
-0.105962
-0.105217
-0.1045
-0.103812
-0.103152
-0.10252
-0.101915
-0.101339
-0.10079
-0.100268
-0.0997736
-0.099306
-0.0988653
-0.0984512
-0.0980637
-0.0977026
-0.0973678
-0.0970592
-0.0967767
-0.0965202
-0.0962896
-0.0960848
-0.0959057
-0.0957524
-0.0956247
-0.0955226
-0.095446
-0.095395
-0.0953695
-0.18375
-0.181867
-0.179799
-0.177691
-0.175543
-0.173367
-0.171181
-0.169002
-0.16684
-0.164701
-0.162592
-0.160515
-0.158473
-0.156466
-0.154496
-0.152563
-0.150667
-0.148807
-0.146984
-0.145198
-0.143447
-0.141732
-0.140053
-0.13841
-0.136801
-0.135227
-0.133688
-0.132183
-0.130711
-0.129274
-0.12787
-0.126499
-0.125162
-0.123857
-0.122584
-0.121344
-0.120136
-0.118959
-0.117814
-0.1167
-0.115617
-0.114565
-0.113543
-0.112552
-0.111591
-0.110659
-0.109757
-0.108884
-0.10804
-0.107225
-0.106439
-0.105681
-0.104951
-0.104249
-0.103575
-0.102929
-0.10231
-0.101718
-0.101154
-0.100616
-0.100105
-0.0996199
-0.0991618
-0.0987298
-0.098324
-0.0979442
-0.0975902
-0.0972621
-0.0969595
-0.0966826
-0.0964311
-0.0962049
-0.0960041
-0.0958286
-0.0956782
-0.095553
-0.0954528
-0.0953778
-0.0953277
-0.0953027
-0.181401
-0.179572
-0.177559
-0.175508
-0.173419
-0.171303
-0.169177
-0.167058
-0.164954
-0.162874
-0.160821
-0.1588
-0.156813
-0.15486
-0.152942
-0.151061
-0.149215
-0.147404
-0.145629
-0.143889
-0.142185
-0.140515
-0.138879
-0.137278
-0.135711
-0.134177
-0.132677
-0.13121
-0.129776
-0.128374
-0.127005
-0.125669
-0.124364
-0.123091
-0.121849
-0.120639
-0.11946
-0.118312
-0.117194
-0.116106
-0.115049
-0.114021
-0.113023
-0.112055
-0.111115
-0.110205
-0.109323
-0.10847
-0.107645
-0.106848
-0.106079
-0.105338
-0.104624
-0.103938
-0.103279
-0.102646
-0.10204
-0.101461
-0.100909
-0.100382
-0.0998817
-0.0994073
-0.0989587
-0.0985357
-0.0981383
-0.0977664
-0.0974197
-0.0970983
-0.0968019
-0.0965306
-0.0962842
-0.0960627
-0.095866
-0.0956939
-0.0955466
-0.0954239
-0.0953258
-0.0952522
-0.0952032
-0.0951787
-0.178988
-0.177212
-0.175254
-0.17326
-0.17123
-0.169174
-0.167109
-0.165049
-0.163004
-0.160981
-0.158986
-0.157021
-0.155088
-0.153189
-0.151324
-0.149494
-0.147698
-0.145937
-0.14421
-0.142517
-0.140858
-0.139233
-0.137641
-0.136082
-0.134556
-0.133063
-0.131602
-0.130173
-0.128776
-0.127411
-0.126077
-0.124775
-0.123503
-0.122262
-0.121052
-0.119872
-0.118722
-0.117602
-0.116512
-0.115451
-0.114419
-0.113416
-0.112442
-0.111496
-0.110579
-0.10969
-0.108829
-0.107996
-0.10719
-0.106412
-0.10566
-0.104936
-0.104239
-0.103568
-0.102923
-0.102305
-0.101712
-0.101146
-0.100606
-0.100091
-0.0996012
-0.0991371
-0.0986982
-0.0982843
-0.0978955
-0.0975315
-0.0971922
-0.0968777
-0.0965876
-0.096322
-0.0960809
-0.095864
-0.0956714
-0.095503
-0.0953588
-0.0952387
-0.0951426
-0.0950706
-0.0950226
-0.0949986
-0.176514
-0.17479
-0.172888
-0.170951
-0.16898
-0.166983
-0.164978
-0.162977
-0.160991
-0.159027
-0.157088
-0.155179
-0.153301
-0.151456
-0.149644
-0.147865
-0.146119
-0.144407
-0.142728
-0.141082
-0.139469
-0.137889
-0.136341
-0.134825
-0.13334
-0.131887
-0.130466
-0.129075
-0.127716
-0.126387
-0.125088
-0.12382
-0.122581
-0.121373
-0.120194
-0.119044
-0.117924
-0.116832
-0.115769
-0.114735
-0.113729
-0.112751
-0.111801
-0.110879
-0.109984
-0.109117
-0.108277
-0.107463
-0.106677
-0.105917
-0.105183
-0.104476
-0.103795
-0.10314
-0.10251
-0.101906
-0.101327
-0.100774
-0.100246
-0.0997426
-0.0992642
-0.0988106
-0.0983815
-0.097977
-0.0975968
-0.0972409
-0.0969092
-0.0966015
-0.0963179
-0.0960582
-0.0958223
-0.0956102
-0.0954218
-0.0952571
-0.095116
-0.0949985
-0.0949045
-0.0948341
-0.0947871
-0.0947636
-0.173979
-0.172308
-0.17046
-0.16858
-0.166668
-0.164731
-0.162786
-0.160845
-0.158918
-0.157011
-0.15513
-0.153277
-0.151454
-0.149662
-0.147903
-0.146175
-0.14448
-0.142817
-0.141187
-0.139588
-0.138021
-0.136485
-0.134981
-0.133507
-0.132064
-0.130652
-0.12927
-0.127918
-0.126595
-0.125303
-0.12404
-0.122806
-0.121601
-0.120424
-0.119277
-0.118158
-0.117067
-0.116004
-0.114968
-0.113961
-0.112981
-0.112028
-0.111103
-0.110204
-0.109332
-0.108486
-0.107667
-0.106874
-0.106107
-0.105366
-0.10465
-0.10396
-0.103295
-0.102656
-0.102041
-0.101452
-0.100887
-0.100347
-0.0998309
-0.0993395
-0.0988723
-0.0984293
-0.0980102
-0.097615
-0.0972436
-0.0968959
-0.0965718
-0.0962712
-0.0959941
-0.0957403
-0.0955098
-0.0953025
-0.0951184
-0.0949574
-0.0948195
-0.0947046
-0.0946128
-0.0945439
-0.094498
-0.0944751
-0.171386
-0.169767
-0.167974
-0.166151
-0.164298
-0.162421
-0.160535
-0.158654
-0.156786
-0.154938
-0.153113
-0.151316
-0.149549
-0.147811
-0.146104
-0.144428
-0.142783
-0.14117
-0.139587
-0.138036
-0.136515
-0.135024
-0.133563
-0.132132
-0.130731
-0.129359
-0.128017
-0.126703
-0.125418
-0.124162
-0.122934
-0.121734
-0.120563
-0.119419
-0.118303
-0.117214
-0.116153
-0.115119
-0.114112
-0.113131
-0.112177
-0.111249
-0.110348
-0.109473
-0.108624
-0.1078
-0.107002
-0.106229
-0.105482
-0.104759
-0.104062
-0.103389
-0.102741
-0.102117
-0.101518
-0.100943
-0.100392
-0.0998653
-0.0993622
-0.0988827
-0.0984269
-0.0979945
-0.0975855
-0.0971998
-0.0968373
-0.0964979
-0.0961815
-0.0958881
-0.0956175
-0.0953697
-0.0951446
-0.0949422
-0.0947624
-0.0946052
-0.0944705
-0.0943583
-0.0942686
-0.0942014
-0.0941565
-0.0941341
-0.168736
-0.167169
-0.165431
-0.163666
-0.161871
-0.160054
-0.158228
-0.156407
-0.154598
-0.152808
-0.151041
-0.1493
-0.147587
-0.145903
-0.144249
-0.142625
-0.141031
-0.139467
-0.137933
-0.136428
-0.134953
-0.133507
-0.13209
-0.130702
-0.129342
-0.128011
-0.126708
-0.125433
-0.124186
-0.122966
-0.121774
-0.120608
-0.11947
-0.118359
-0.117275
-0.116217
-0.115185
-0.11418
-0.1132
-0.112247
-0.111319
-0.110417
-0.10954
-0.108688