/*--------------------------------*- C++ -*----------------------------------*\
  =========                 |
  \\      /  F ield         | OpenFOAM: The Open Source CFD Toolbox
   \\    /   O peration     | Website:  https://openfoam.org
    \\  /    A nd           | Version:  7
     \\/     M anipulation  |
\*---------------------------------------------------------------------------*/
FoamFile
{
    version     2.0;
    format      ascii;
    class       surfaceScalarField;
    location    "39.999";
    object      phi;
}
// * * * * * * * * * * * * * * * * * * * * * * * * * * * * * * * * * * * * * //

dimensions      [0 3 -1 0 0 0 0];

internalField   nonuniform List<scalar> 
22580
(
0.000235073
0.00569626
0.000226122
0.00569003
0.000217228
0.00568404
0.000208391
0.00567828
0.000199607
0.00567275
0.000190876
0.00566746
0.000182197
0.0056624
0.000173566
0.00565756
0.000164983
0.00565296
0.000156446
0.00564858
0.000147952
0.00564443
0.0001395
0.0056405
0.000131087
0.0056368
0.000122711
0.00563332
0.000114371
0.00563006
0.000106063
0.00562702
9.77859e-05
0.00562421
8.95372e-05
0.00562161
8.13146e-05
0.00561923
7.31157e-05
0.00561707
6.49382e-05
0.00561512
5.67797e-05
0.00561339
4.86376e-05
0.00561188
4.05094e-05
0.00561059
3.23926e-05
0.00560951
2.4285e-05
0.00560865
1.61848e-05
0.00560801
8.09057e-06
0.00560759
0.00560738
0.000576902
0.00593461
-0.000544692
0.000599963
0.0060864
0.000614159
0.00617969
0.000621072
0.00622943
0.000622821
0.0062504
0.000621243
0.00625404
0.00061761
0.00624792
0.000612699
0.00623654
0.000606954
0.0062224
0.000600623
0.00620682
0.000593838
0.00619047
0.000586671
0.00617366
0.000579163
0.00615658
0.000571348
0.0061394
0.00056326
0.00612224
0.000554935
0.00610526
0.000546408
0.00608856
0.000537714
0.00607224
0.000528881
0.00605636
0.000519931
0.00604092
0.000510883
0.00602592
0.00050175
0.00601132
0.000492543
0.00599709
0.000483273
0.00598321
0.000473948
0.00596965
0.000464578
0.00595639
0.000455173
0.00594341
0.000445741
0.00593071
0.000436292
0.00591829
0.000426833
0.00590614
0.000417373
0.00589426
0.000407919
0.00588265
0.000398477
0.0058713
0.000389054
0.00586023
0.000379654
0.00584942
0.000370282
0.00583887
0.000360943
0.00582858
0.00035164
0.00581856
0.000342377
0.0058088
0.000333155
0.0057993
0.000323979
0.00579005
0.000314849
0.00578106
0.000305767
0.00577232
0.000296735
0.00576384
0.000287754
0.00575561
0.000278824
0.00574763
0.000269946
0.00573989
0.000261119
0.0057324
0.000252345
0.00572516
0.000243623
0.00571816
0.000234951
0.0057114
0.000226331
0.00570488
0.000217761
0.0056986
0.00020924
0.00569256
0.000200768
0.00568675
0.000192342
0.00568118
0.000183963
0.00567584
0.000175628
0.00567073
0.000167336
0.00566586
0.000159086
0.00566121
0.000150875
0.00565679
0.000142704
0.0056526
0.000134569
0.00564864
0.000126468
0.0056449
0.000118401
0.00564139
0.000110365
0.0056381
0.000102358
0.00563503
9.43788e-05
0.00563218
8.64245e-05
0.00562956
7.84935e-05
0.00562716
7.05838e-05
0.00562498
6.26931e-05
0.00562301
5.48193e-05
0.00562127
4.69603e-05
0.00561974
3.91138e-05
0.00561843
3.12775e-05
0.00561735
2.34496e-05
0.00561648
1.56285e-05
0.00561583
7.81261e-06
0.00561541
0.0056152
0.000532353
0.00590241
-0.000500151
0.000556044
0.00606271
0.0005714
0.00616433
0.000579689
0.00622114
0.000582759
0.00624733
0.000582344
0.00625445
0.00057973
0.00625053
0.00057574
0.00624053
0.000570861
0.00622728
0.000565369
0.00621232
0.000559412
0.00619642
0.00055307
0.00618
0.000546388
0.00616327
0.000539402
0.00614639
0.000532141
0.0061295
0.000524639
0.00611276
0.00051693
0.00609627
0.000509043
0.00608013
0.000501008
0.0060644
0.000492845
0.00604908
0.000484571
0.00603419
0.000476201
0.00601969
0.000467745
0.00600555
0.000459212
0.00599175
0.000450612
0.00597825
0.000441954
0.00596504
0.000433246
0.00595212
0.000424497
0.00593946
0.000415717
0.00592707
0.000406912
0.00591495
0.000398091
0.00590308
0.000389262
0.00589148
0.00038043
0.00588014
0.000371602
0.00586906
0.000362783
0.00585823
0.000353979
0.00584767
0.000345194
0.00583737
0.000336432
0.00582732
0.000327696
0.00581753
0.000318989
0.005808
0.000310315
0.00579872
0.000301676
0.0057897
0.000293073
0.00578093
0.000284508
0.00577241
0.000275983
0.00576413
0.000267499
0.00575611
0.000259056
0.00574833
0.000250656
0.0057408
0.000242298
0.00573352
0.000233983
0.00572647
0.000225711
0.00571967
0.000217481
0.00571311
0.000209294
0.00570679
0.000201148
0.0057007
0.000193043
0.00569485
0.000184978
0.00568924
0.000176952
0.00568386
0.000168965
0.00567872
0.000161015
0.00567381
0.000153101
0.00566912
0.000145222
0.00566467
0.000137376
0.00566045
0.000129562
0.00565645
0.000121778
0.00565268
0.000114024
0.00564914
0.000106296
0.00564582
9.85948e-05
0.00564273
9.09171e-05
0.00563986
8.32617e-05
0.00563722
7.56268e-05
0.00563479
6.80106e-05
0.00563259
6.04112e-05
0.00563061
5.28269e-05
0.00562885
4.52556e-05
0.00562731
3.76953e-05
0.005626
3.01442e-05
0.0056249
2.26006e-05
0.00562402
1.5063e-05
0.00562337
7.53011e-06
0.00562294
0.00562273
0.000489305
0.00587044
-0.00045733
0.000513419
0.0060386
0.000529723
0.00614803
0.000539225
0.00621164
0.000543523
0.00624303
0.000544227
0.00625375
0.000542604
0.00625216
0.00053951
0.00624362
0.000535469
0.00623132
0.000530782
0.006217
0.000525616
0.00620159
0.00052006
0.00618555
0.000514165
0.00616916
0.000507965
0.00615259
0.000501491
0.00613598
0.000494772
0.00611948
0.000487841
0.0061032
0.000480726
0.00608725
0.000473452
0.00607167
0.000466042
0.0060565
0.000458511
0.00604172
0.000450874
0.00602733
0.000443139
0.00601328
0.000435317
0.00599957
0.000427416
0.00598615
0.000419445
0.00597302
0.000411412
0.00596015
0.000403326
0.00594755
0.000395195
0.0059352
0.000387027
0.00592311
0.000378829
0.00591128
0.000370609
0.0058997
0.000362374
0.00588837
0.00035413
0.0058773
0.000345882
0.00586648
0.000337636
0.00585592
0.000329396
0.00584561
0.000321166
0.00583555
0.000312951
0.00582575
0.000304753
0.0058162
0.000296577
0.0058069
0.000288423
0.00579785
0.000280295
0.00578905
0.000272195
0.00578051
0.000264124
0.0057722
0.000256084
0.00576415
0.000248076
0.00575634
0.000240101
0.00574878
0.000232159
0.00574146
0.000224252
0.00573438
0.000216379
0.00572754
0.00020854
0.00572095
0.000200736
0.00571459
0.000192967
0.00570847
0.000185231
0.00570259
0.000177529
0.00569694
0.00016986
0.00569153
0.000162223
0.00568636
0.000154617
0.00568141
0.000147042
0.0056767
0.000139497
0.00567222
0.00013198
0.00566796
0.00012449
0.00566394
0.000117026
0.00566015
0.000109588
0.00565658
0.000102173
0.00565324
9.47798e-05
0.00565012
8.74077e-05
0.00564723
8.00549e-05
0.00564457
7.27199e-05
0.00564213
6.54012e-05
0.00563991
5.80971e-05
0.00563792
5.08062e-05
0.00563614
4.35266e-05
0.00563459
3.62566e-05
0.00563326
2.89947e-05
0.00563216
2.17394e-05
0.00563128
1.44894e-05
0.00563062
7.24351e-06
0.00563019
0.00562997
0.000447744
0.00583888
-0.000416188
0.000472091
0.00601425
0.000489148
0.00613097
0.0004997
0.00620109
0.000505119
0.00623761
0.000506881
0.00625199
0.000506214
0.00625282
0.000503987
0.00624585
0.000500754
0.00623456
0.000496842
0.00622092
0.000492433
0.006206
0.000487628
0.00619036
0.000482483
0.00617431
0.000477033
0.00615804
0.000471309
0.0061417
0.000465338
0.00612545
0.00045915
0.00610939
0.000452772
0.00609362
0.000446228
0.00607821
0.000439539
0.00606318
0.000432721
0.00604854
0.000425787
0.00603426
0.000418747
0.00602032
0.00041161
0.0060067
0.000404384
0.00599338
0.000397078
0.00598032
0.000389698
0.00596753
0.000382255
0.00595499
0.000374754
0.0059427
0.000367205
0.00593066
0.000359615
0.00591887
0.000351991
0.00590732
0.000344339
0.00589602
0.000336666
0.00588497
0.000328978
0.00587417
0.000321279
0.00586362
0.000313575
0.00585331
0.00030587
0.00584326
0.000298168
0.00583345
0.000290473
0.00582389
0.000282788
0.00581459
0.000275115
0.00580553
0.000267458
0.00579671
0.000259819
0.00578814
0.000252199
0.00577982
0.000244601
0.00577175
0.000237025
0.00576392
0.000229474
0.00575633
0.000221947
0.00574898
0.000214447
0.00574188
0.000206973
0.00573502
0.000199525
0.00572839
0.000192105
0.00572201
0.000184713
0.00571586
0.000177347
0.00570996
0.000170009
0.00570428
0.000162698
0.00569884
0.000155413
0.00569364
0.000148153
0.00568867
0.000140919
0.00568393
0.00013371
0.00567943
0.000126524
0.00567515
0.000119362
0.0056711
0.000112221
0.00566729
0.000105101
0.0056637
9.80014e-05
0.00566034
9.09203e-05
0.00565721
8.38569e-05
0.0056543
7.68099e-05
0.00565162
6.97781e-05
0.00564916
6.27603e-05
0.00564693
5.57549e-05
0.00564492
4.87608e-05
0.00564314
4.17764e-05
0.00564158
3.48002e-05
0.00564024
2.7831e-05
0.00563913
2.08675e-05
0.00563824
1.39086e-05
0.00563758
6.95331e-06
0.00563714
0.00563692
0.000407617
0.00580791
-0.000376644
0.000432031
0.00598984
0.000449667
0.00611334
0.000461117
0.00618964
0.00046755
0.00623118
0.000470302
0.00624923
0.000470547
0.00625258
0.000469157
0.00624724
0.000466703
0.00623701
0.000463536
0.00622408
0.000459853
0.00620968
0.000455767
0.00619445
0.000451338
0.00617874
0.000446605
0.00616277
0.000441597
0.00614671
0.000436341
0.0061307
0.000430864
0.00611487
0.000425192
0.0060993
0.000419348
0.00608406
0.000413352
0.00606918
0.000407219
0.00605467
0.000400962
0.00604052
0.000394591
0.0060267
0.000388114
0.00601318
0.00038154
0.00599995
0.000374876
0.00598699
0.000368129
0.00597428
0.000361308
0.00596181
0.000354421
0.00594959
0.000347474
0.00593761
0.000340475
0.00592587
0.000333432
0.00591437
0.00032635
0.00590311
0.000319236
0.00589209
0.000312096
0.00588131
0.000304934
0.00587078
0.000297757
0.00586049
0.000290568
0.00585045
0.000283372
0.00584065
0.000276172
0.00583109
0.000268972
0.00582179
0.000261775
0.00581272
0.000254584
0.0058039
0.000247401
0.00579533
0.000240228
0.005787
0.000233068
0.00577891
0.000225923
0.00577106
0.000218793
0.00576346
0.00021168
0.0057561
0.000204585
0.00574898
0.000197509
0.00574209
0.000190453
0.00573545
0.000183416
0.00572905
0.000176401
0.00572288
0.000169406
0.00571695
0.000162432
0.00571126
0.00015548
0.0057058
0.000148548
0.00570057
0.000141636
0.00569558
0.000134745
0.00569082
0.000127873
0.0056863
0.000121021
0.005682
0.000114187
0.00567794
0.000107371
0.0056741
0.000100572
0.0056705
9.37901e-05
0.00566712
8.70233e-05
0.00566397
8.02712e-05
0.00566105
7.35327e-05
0.00565836
6.68068e-05
0.00565589
6.00926e-05
0.00565364
5.33888e-05
0.00565163
4.66944e-05
0.00564983
4.00081e-05
0.00564826
3.33287e-05
0.00564692
2.66552e-05
0.0056458
1.99865e-05
0.00564491
1.33218e-05
0.00564425
6.66003e-06
0.0056438
0.00564358
0.000368858
0.00577765
-0.000338603
0.00039319
0.00596551
0.000411252
0.00609527
0.000423463
0.00617743
0.000430806
0.00622383
0.00043448
0.00624556
0.000435595
0.00625146
0.000435009
0.00624783
0.000433306
0.00623871
0.000430855
0.00622653
0.000427871
0.00621266
0.000424473
0.00619784
0.00042073
0.00618248
0.000416683
0.00616682
0.00041236
0.00615103
0.000407788
0.00613527
0.000402992
0.00611966
0.000397997
0.00610429
0.000392825
0.00608923
0.000387494
0.00607451
0.00038202
0.00606015
0.000376415
0.00604612
0.000370688
0.00603242
0.000364849
0.00601902
0.000358904
0.00600589
0.000352862
0.00599303
0.000346728
0.00598041
0.000340512
0.00596803
0.000334219
0.00595588
0.000327858
0.00594397
0.000321435
0.00593229
0.000314958
0.00592084
0.000308432
0.00590963
0.000301865
0.00589865
0.000295261
0.00588791
0.000288626
0.00587741
0.000281966
0.00586715
0.000275284
0.00585713
0.000268585
0.00584735
0.000261873
0.00583781
0.000255152
0.00582851
0.000248424
0.00581945
0.000241693
0.00581063
0.000234962
0.00580206
0.000228233
0.00579373
0.000221507
0.00578563
0.000214788
0.00577778
0.000208077
0.00577017
0.000201375
0.0057628
0.000194684
0.00575567
0.000188004
0.00574877
0.000181338
0.00574212
0.000174684
0.0057357
0.000168045
0.00572952
0.000161421
0.00572357
0.000154812
0.00571787
0.000148218
0.00571239
0.000141639
0.00570715
0.000135076
0.00570214
0.000128529
0.00569737
0.000121996
0.00569283
0.000115478
0.00568852
0.000108974
0.00568444
0.000102485
0.00568059
9.60091e-05
0.00567697
8.95462e-05
0.00567358
8.30956e-05
0.00567042
7.66568e-05
0.00566749
7.02288e-05
0.00566478
6.38111e-05
0.0056623
5.74027e-05
0.00566005
5.10028e-05
0.00565803
4.46105e-05
0.00565622
3.82247e-05
0.00565465
3.18446e-05
0.0056533
2.54693e-05
0.00565218
1.90979e-05
0.00565128
1.27298e-05
0.00565061
6.3642e-06
0.00565017
0.00564995
0.000331401
0.00574823
-0.000301975
0.000355523
0.00594138
0.000373876
0.00607692
0.000386723
0.00616458
0.000394877
0.00621568
0.000399406
0.00624103
0.000401346
0.00624952
0.000401531
0.00624764
0.000400553
0.00623969
0.000398792
0.0062283
0.000396478
0.00621498
0.000393742
0.00620058
0.000390657
0.00618556
0.000387266
0.00617021
0.0003836
0.0061547
0.000379684
0.00613919
0.000375542
0.0061238
0.000371197
0.00610864
0.00036667
0.00609376
0.000361979
0.0060792
0.000357139
0.00606499
0.000352162
0.0060511
0.000347058
0.00603753
0.000341834
0.00602424
0.000336497
0.00601123
0.000331056
0.00599847
0.000325516
0.00598595
0.000319886
0.00597366
0.000314171
0.0059616
0.000308379
0.00594976
0.000302517
0.00593815
0.000296591
0.00592677
0.000290609
0.00591561
0.000284575
0.00590469
0.000278496
0.00589399
0.000272377
0.00588353
0.000266223
0.0058733
0.000260039
0.00586331
0.00025383
0.00585356
0.000247598
0.00584404
0.000241348
0.00583476
0.000235083
0.00582571
0.000228807
0.00581691
0.000222522
0.00580834
0.000216231
0.00580002
0.000209936
0.00579193
0.000203639
0.00578408
0.000197344
0.00577647
0.00019105
0.00576909
0.00018476
0.00576196
0.000178474
0.00575506
0.000172195
0.0057484
0.000165924
0.00574197
0.00015966
0.00573578
0.000153406
0.00572983
0.00014716
0.00572411
0.000140925
0.00571863
0.0001347
0.00571338
0.000128485
0.00570836
0.000122281
0.00570357
0.000116088
0.00569902
0.000109905
0.0056947
0.000103733
0.00569061
9.75709e-05
0.00568675
9.1419e-05
0.00568313
8.52767e-05
0.00567973
7.91438e-05
0.00567656
7.30197e-05
0.00567361
6.6904e-05
0.0056709
6.0796e-05
0.00566841
5.46952e-05
0.00566615
4.8601e-05
0.00566412
4.25126e-05
0.00566231
3.64293e-05
0.00566073
3.03504e-05
0.00565938
2.42752e-05
0.00565825
1.82032e-05
0.00565735
1.21338e-05
0.00565668
6.06631e-06
0.00565624
0.00565601
0.000295183
0.00571972
-0.000266675
0.000318984
0.00591758
0.000337509
0.0060584
0.000350877
0.00615121
0.000359749
0.00620681
0.000365067
0.00623571
0.000367786
0.0062468
0.000368711
0.00624672
0.000368431
0.00623997
0.000367337
0.00622939
0.00036567
0.00621665
0.00036357
0.00620268
0.000361116
0.00618802
0.000358356
0.00617297
0.000355319
0.00615774
0.000352033
0.00614248
0.000348519
0.00612732
0.000344798
0.00611236
0.000340892
0.00609766
0.000336818
0.00608328
0.000332589
0.00606921
0.000328218
0.00605547
0.000323713
0.00604203
0.000319083
0.00602887
0.000314336
0.00601598
0.000309476
0.00600333
0.000304512
0.00599091
0.000299449
0.00597872
0.000294295
0.00596675
0.000289057
0.005955
0.000283741
0.00594347
0.000278353
0.00593216
0.0002729
0.00592107
0.000267388
0.0059102
0.000261822
0.00589956
0.000256208
0.00588915
0.000250551
0.00587896
0.000244855
0.00586901
0.000239125
0.00585929
0.000233365
0.0058498
0.000227579
0.00584054
0.000221771
0.00583152
0.000215942
0.00582274
0.000210098
0.00581419
0.00020424
0.00580587
0.000198371
0.0057978
0.000192493
0.00578996
0.000186609
0.00578235
0.000180719
0.00577498
0.000174827
0.00576785
0.000168934
0.00576095
0.000163041
0.00575429
0.000157149
0.00574786
0.000151259
0.00574167
0.000145372
0.00573572
0.00013949
0.00572999
0.000133612
0.0057245
0.00012774
0.00571925
0.000121873
0.00571423
0.000116013
0.00570944
0.000110159
0.00570488
0.000104311
0.00570055
9.84708e-05
0.00569645
9.26368e-05
0.00569259
8.68095e-05
0.00568895
8.09887e-05
0.00568555
7.51742e-05
0.00568237
6.93659e-05
0.00567942
6.35634e-05
0.0056767
5.77664e-05
0.00567421
5.19745e-05
0.00567194
4.61872e-05
0.00566991
4.04042e-05
0.0056681
3.46248e-05
0.00566651
2.88485e-05
0.00566516
2.3075e-05
0.00566403
1.73038e-05
0.00566313
1.15345e-05
0.00566245
5.76683e-06
0.005662
0.00566178
0.000260145
0.00569219
-0.000232621
0.000283533
0.00589419
0.000302123
0.00603981
0.00031591
0.00613743
0.000325413
0.0061973
0.000331453
0.00622967
0.000334907
0.00624335
0.00033654
0.00624509
0.000336933
0.00623958
0.000336482
0.00622984
0.000335438
0.00621769
0.000333951
0.00620417
0.000332105
0.00618986
0.00032995
0.00617512
0.00032752
0.00616017
0.000324838
0.00614516
0.000321927
0.00613023
0.000318808
0.00611548
0.0003155
0.00610097
0.000312019
0.00608676
0.00030838
0.00607285
0.000304593
0.00605926
0.000300668
0.00604596
0.000296613
0.00603293
0.000292434
0.00602016
0.000288138
0.00600763
0.000283731
0.00599532
0.00027922
0.00598323
0.000274611
0.00597136
0.00026991
0.0059597
0.000265125
0.00594825
0.000260261
0.00593702
0.000255325
0.005926
0.000250321
0.0059152
0.000245257
0.00590462
0.000240137
0.00589427
0.000234966
0.00588413
0.000229749
0.00587423
0.00022449
0.00586455
0.000219194
0.00585509
0.000213864
0.00584587
0.000208504
0.00583688
0.000203118
0.00582812
0.000197708
0.0058196
0.000192277
0.00581131
0.000186829
0.00580325
0.000181365
0.00579542
0.000175887
0.00578783
0.000170399
0.00578047
0.000164902
0.00577335
0.000159397
0.00576646
0.000153886
0.0057598
0.000148371
0.00575338
0.000142853
0.00574719
0.000137333
0.00574124
0.000131812
0.00573551
0.00012629
0.00573003
0.00012077
0.00572477
0.00011525
0.00571975
0.000109733
0.00571495
0.000104218
0.00571039
9.87055e-05
0.00570606
9.31962e-05
0.00570196
8.76902e-05
0.00569809
8.21876e-05
0.00569446
7.66885e-05
0.00569105
7.1193e-05
0.00568787
6.57009e-05
0.00568491
6.02122e-05
0.00568219
5.47269e-05
0.00567969
4.92446e-05
0.00567743
4.37652e-05
0.00567539
3.82884e-05
0.00567357
3.28138e-05
0.00567199
2.73412e-05
0.00567063
2.18704e-05
0.0056695
1.64011e-05
0.0056686
1.09331e-05
0.00566792
5.46624e-06
0.00566747
0.00566725
0.000226226
0.0056657
-0.000199735
0.000249124
0.0058713
0.000267688
0.00602124
0.000281801
0.00612331
0.000291856
0.00618725
0.000298557
0.00622297
0.0003027
0.00623921
0.000305009
0.00624278
0.000306049
0.00623854
0.000306219
0.00622967
0.000305778
0.00621813
0.000304881
0.00620506
0.00030362
0.00619112
0.000302049
0.00617669
0.000300201
0.00616201
0.000298102
0.00614726
0.000295772
0.00613256
0.000293232
0.00611802
0.0002905
0.0061037
0.000287591
0.00608967
0.00028452
0.00607592
0.000281298
0.00606248
0.000277933
0.00604932
0.000274434
0.00603643
0.000270805
0.00602379
0.000267055
0.00601138
0.000263189
0.00599919
0.000259212
0.00598721
0.000255133
0.00597544
0.000250955
0.00596388
0.000246686
0.00595252
0.000242333
0.00594137
0.0002379
0.00593044
0.000233393
0.00591971
0.000228819
0.0059092
0.000224182
0.0058989
0.000219487
0.00588883
0.000214739
0.00587897
0.000209942
0.00586934
0.000205101
0.00585994
0.000200219
0.00585076
0.000195301
0.0058418
0.000190349
0.00583308
0.000185367
0.00582458
0.000180358
0.00581631
0.000175324
0.00580828
0.000170269
0.00580048
0.000165194
0.0057929
0.000160103
0.00578556
0.000154996
0.00577845
0.000149876
0.00577158
0.000144745
0.00576493
0.000139604
0.00575852
0.000134455
0.00575234
0.000129299
0.00574639
0.000124137
0.00574068
0.00011897
0.00573519
0.0001138
0.00572994
0.000108626
0.00572492
0.000103451
0.00572013
9.82734e-05
0.00571557
9.30954e-05
0.00571124
8.79169e-05
0.00570714
8.27384e-05
0.00570327
7.75602e-05
0.00569963
7.23826e-05
0.00569622
6.72059e-05
0.00569304
6.20301e-05
0.00569009
5.68554e-05
0.00568736
5.16819e-05
0.00568487
4.65096e-05
0.0056826
4.13385e-05
0.00568056
3.61683e-05
0.00567874
3.09991e-05
0.00567716
2.58308e-05
0.0056758
2.06631e-05
0.00567467
1.54964e-05
0.00567376
1.03303e-05
0.00567309
5.16496e-06
0.00567264
0.00567241
0.000193375
0.00564028
-0.000167949
0.00021572
0.00584895
0.000234181
0.00600278
0.000248538
0.00610896
0.000259069
0.00617672
0.00026637
0.00621567
0.000271158
0.00623442
0.00027411
0.00623983
0.000275772
0.00623687
0.000276542
0.0062289
0.000276682
0.00621799
0.000276356
0.00620539
0.00027566
0.00619182
0.00027465
0.0061777
0.000273364
0.0061633
0.000271825
0.0061488
0.000270055
0.00613433
0.000268073
0.00612
0.000265897
0.00610588
0.000263541
0.00609202
0.000261019
0.00607845
0.000258342
0.00606516
0.000255519
0.00605214
0.000252557
0.00603939
0.000249462
0.00602688
0.00024624
0.0060146
0.000242898
0.00600253
0.000239441
0.00599067
0.000235875
0.00597901
0.000232206
0.00596755
0.00022844
0.00595629
0.000224583
0.00594523
0.000220641
0.00593438
0.000216619
0.00592373
0.000212523
0.00591329
0.000208358
0.00590307
0.000204129
0.00589306
0.00019984
0.00588326
0.000195496
0.00587369
0.000191102
0.00586433
0.00018666
0.0058552
0.000182175
0.00584629
0.000177651
0.0058376
0.00017309
0.00582914
0.000168496
0.00582091
0.000163872
0.0058129
0.00015922
0.00580513
0.000154543
0.00579758
0.000149843
0.00579026
0.000145123
0.00578317
0.000140385
0.00577631
0.000135629
0.00576969
0.000130859
0.00576329
0.000126076
0.00575712
0.000121281
0.00575119
0.000116476
0.00574548
0.000111662
0.00574001
0.000106839
0.00573476
0.00010201
0.00572975
9.71744e-05
0.00572496
9.23338e-05
0.00572041
8.74888e-05
0.00571609
8.264e-05
0.00571199
7.77881e-05
0.00570812
7.29336e-05
0.00570449
6.80769e-05
0.00570108
6.32185e-05
0.0056979
5.83587e-05
0.00569495
5.34977e-05
0.00569223
4.86359e-05
0.00568973
4.37734e-05
0.00568746
3.89104e-05
0.00568542
3.4047e-05
0.00568361
2.91832e-05
0.00568202
2.43192e-05
0.00568066
1.94552e-05
0.00567953
1.4591e-05
0.00567863
9.72709e-06
0.00567795
4.86344e-06
0.0056775
0.00567728
0.000161528
0.00561594
-0.000137189
0.000183274
0.00582721
0.000201567
0.00598449
0.000216099
0.00609442
0.00022704
0.00616578
0.000234887
0.00620782
0.000240276
0.00622903
0.000243839
0.00623626
0.000246098
0.00623461
0.000247446
0.00622755
0.000248148
0.00621729
0.000248373
0.00620517
0.000248221
0.00619197
0.000247754
0.00617817
0.000247008
0.00616405
0.00024601
0.0061498
0.00024478
0.00613556
0.000243337
0.00612144
0.000241696
0.00610752
0.000239875
0.00609384
0.000237883
0.00608044
0.000235733
0.00606731
0.000233434
0.00605444
0.000230992
0.00604183
0.000228413
0.00602946
0.000225704
0.00601731
0.00022287
0.00600536
0.000219917
0.00599362
0.00021685
0.00598207
0.000213675
0.00597072
0.000210398
0.00595957
0.000207025
0.0059486
0.000203561
0.00593784
0.000200012
0.00592728
0.000196384
0.00591692
0.00019268
0.00590677
0.000188906
0.00589683
0.000185067
0.0058871
0.000181167
0.00587759
0.00017721
0.00586829
0.0001732
0.00585921
0.000169141
0.00585035
0.000165037
0.00584171
0.000160891
0.00583329
0.000156706
0.00582509
0.000152485
0.00581712
0.000148231
0.00580938
0.000143946
0.00580186
0.000139633
0.00579457
0.000135295
0.00578751
0.000130933
0.00578068
0.00012655
0.00577407
0.000122147
0.00576769
0.000117727
0.00576154
0.00011329
0.00575562
0.000108838
0.00574993
0.000104374
0.00574447
9.98971e-05
0.00573924
9.54097e-05
0.00573424
9.09125e-05
0.00572946
8.64067e-05
0.00572492
8.18932e-05
0.0057206
7.73727e-05
0.00571651
7.28461e-05
0.00571265
6.83141e-05
0.00570902
6.37772e-05
0.00570562
5.92362e-05
0.00570244
5.46914e-05
0.00569949
5.01436e-05
0.00569677
4.55928e-05
0.00569428
4.10397e-05
0.00569201
3.64844e-05
0.00568998
3.19273e-05
0.00568816
2.73686e-05
0.00568658
2.28087e-05
0.00568522
1.82477e-05
0.00568409
1.36861e-05
0.00568319
9.12416e-06
0.00568251
4.56208e-06
0.00568206
0.00568184
0.000130653
0.00559269
-0.000107405
0.000151764
0.00580609
0.000169837
0.00596642
0.000184481
0.00607978
0.000195768
0.00615449
0.000204103
0.00619949
0.000210051
0.00622308
0.000214191
0.00623212
0.000217022
0.00623178
0.000218927
0.00622565
0.000220171
0.00621604
0.000220928
0.00620441
0.000221302
0.0061916
0.000221358
0.00617811
0.000221135
0.00616427
0.000220658
0.00615027
0.000219949
0.00613627
0.000219025
0.00612236
0.000217903
0.00610864
0.000216596
0.00609515
0.000215118
0.00608192
0.000213478
0.00606895
0.000211686
0.00605624
0.000209747
0.00604377
0.000207669
0.00603154
0.000205457
0.00601952
0.000203116
0.0060077
0.000200651
0.00599608
0.000198069
0.00598466
0.000195375
0.00597342
0.000192574
0.00596237
0.000189672
0.00595151
0.000186675
0.00594084
0.000183587
0.00593037
0.000180414
0.0059201
0.000177161
0.00591003
0.000173832
0.00590016
0.000170433
0.0058905
0.000166967
0.00588105
0.000163439
0.00587182
0.000159853
0.00586279
0.000156213
0.00585399
0.000152521
0.0058454
0.000148782
0.00583703
0.000144999
0.00582888
0.000141175
0.00582095
0.000137313
0.00581324
0.000133415
0.00580576
0.000129484
0.0057985
0.000125523
0.00579147
0.000121533
0.00578467
0.000117518
0.00577809
0.000113478
0.00577173
0.000109417
0.00576561
0.000105335
0.00575971
0.000101234
0.00575403
9.71159e-05
0.00574859
9.29822e-05
0.00574337
8.88341e-05
0.00573838
8.46728e-05
0.00573362
8.04996e-05
0.00572909
7.63155e-05
0.00572478
7.21215e-05
0.0057207
6.79185e-05
0.00571685
6.37074e-05
0.00571323
5.9489e-05
0.00570984
5.52641e-05
0.00570667
5.10333e-05
0.00570372
4.67973e-05
0.00570101
4.25566e-05
0.00569852
3.83119e-05
0.00569626
3.40635e-05
0.00569422
2.98119e-05
0.00569242
2.55576e-05
0.00569083
2.13011e-05
0.00568948
1.70427e-05
0.00568835
1.2783e-05
0.00568745
8.52236e-06
0.00568677
4.26127e-06
0.00568632
0.0056861
0.000100662
0.00557055
-7.85215e-05
0.000121137
0.00578562
0.000138964
0.00594859
0.000153669
0.00606508
0.000165245
0.00614291
0.000174017
0.00619072
0.000180481
0.00621662
0.000185165
0.00622744
0.000188542
0.00622841
0.000190981
0.00622321
0.000192749
0.00621428
0.000194019
0.00620314
0.000194901
0.00619071
0.000195462
0.00617755
0.000195742
0.00616399
0.000195769
0.00615025
0.000195562
0.00613647
0.000195141
0.00612279
0.000194519
0.00610926
0.000193711
0.00609596
0.000192729
0.0060829
0.000191583
0.00607009
0.000190281
0.00605754
0.00018883
0.00604522
0.000187237
0.00603313
0.000185507
0.00602125
0.000183644
0.00600957
0.000181655
0.00599807
0.000179544
0.00598677
0.000177317
0.00597564
0.000174979
0.0059647
0.000172536
0.00595395
0.000169993
0.00594338
0.000167354
0.00593301
0.000164626
0.00592282
0.000161813
0.00591284
0.00015892
0.00590305
0.000155951
0.00589347
0.00015291
0.00588409
0.000149802
0.00587492
0.000146631
0.00586596
0.000143401
0.00585722
0.000140114
0.00584868
0.000136776
0.00584037
0.000133388
0.00583226
0.000129954
0.00582438
0.000126478
0.00581672
0.000122961
0.00580928
0.000119406
0.00580206
0.000115817
0.00579506
0.000112195
0.00578829
0.000108543
0.00578174
0.000104862
0.00577541
0.000101155
0.00576931
9.74243e-05
0.00576344
9.36707e-05
0.00575779
8.98961e-05
0.00575236
8.61023e-05
0.00574717
8.22907e-05
0.0057422
7.84625e-05
0.00573745
7.46195e-05
0.00573293
7.07624e-05
0.00572864
6.68927e-05
0.00572457
6.30112e-05
0.00572074
5.91192e-05
0.00571712
5.52175e-05
0.00571374
5.1307e-05
0.00571058
4.73887e-05
0.00570764
4.3463e-05
0.00570494
3.95311e-05
0.00570245
3.55934e-05
0.0057002
3.16507e-05
0.00569817
2.77035e-05
0.00569636
2.37525e-05
0.00569478
1.97983e-05
0.00569343
1.58414e-05
0.00569231
1.18826e-05
0.00569141
7.92241e-06
0.00569073
3.96139e-06
0.00569028
0.00569006
7.15972e-05
0.00554946
-5.05117e-05
9.14306e-05
0.00576579
0.000108973
0.00593104
0.000123672
0.00605038
0.000135472
0.00613111
0.000144629
0.00618156
0.000151565
0.00620968
0.000156759
0.00622224
0.000160654
0.00622451
0.000163606
0.00622026
0.000165877
0.00621201
0.000167643
0.00620137
0.000169016
0.00618934
0.000170064
0.0061765
0.000170831
0.00616322
0.000171343
0.00614973
0.000171623
0.00613619
0.000171686
0.00612272
0.000171548
0.0061094
0.000171222
0.00609628
0.00017072
0.0060834
0.000170052
0.00607076
0.000169226
0.00605836
0.000168248
0.0060462
0.000167125
0.00603425
0.000165862
0.00602251
0.000164464
0.00601096
0.000162935
0.0059996
0.000161283
0.00598842
0.00015951
0.00597742
0.000157623
0.00596659
0.000155626
0.00595595
0.000153525
0.00594548
0.000151325
0.00593521
0.000149031
0.00592512
0.000146648
0.00591522
0.000144179
0.00590552
0.000141631
0.00589602
0.000139006
0.00588672
0.00013631
0.00587762
0.000133545
0.00586873
0.000130717
0.00586004
0.000127828
0.00585157
0.000124883
0.00584331
0.000121883
0.00583526
0.000118833
0.00582743
0.000115736
0.00581982
0.000112594
0.00581242
0.000109411
0.00580524
0.000106188
0.00579828
0.000102928
0.00579155
9.9634e-05
0.00578503
9.6308e-05
0.00577874
9.29518e-05
0.00577267
8.95675e-05
0.00576682
8.61572e-05
0.0057612
8.27225e-05
0.0057558
7.92651e-05
0.00575062
7.57867e-05
0.00574567
7.2289e-05
0.00574095
6.87729e-05
0.00573645
6.52403e-05
0.00573217
6.16922e-05
0.00572812
5.813e-05
0.0057243
5.45547e-05
0.0057207
5.09675e-05
0.00571732
4.73695e-05
0.00571418
4.37615e-05
0.00571125
4.01446e-05
0.00570855
3.65196e-05
0.00570608
3.28874e-05
0.00570383
2.92488e-05
0.00570181
2.56046e-05
0.00570001
2.19554e-05
0.00569843
1.83021e-05
0.00569708
1.46454e-05
0.00569596
1.09861e-05
0.00569507
7.32504e-06
0.00569439
3.66278e-06
0.00569395
0.00569372
4.32964e-05
0.00552939
-2.32235e-05
6.26695e-05
0.00574641
7.98657e-05
0.00591385
9.44815e-05
0.00603576
0.00010645
0.00611914
0.000115939
0.00617207
0.000123304
0.00620231
0.000128972
0.00621658
0.000133357
0.00622013
0.000136799
0.00621681
0.000139554
0.00620925
0.000141797
0.00619913
0.000143643
0.0061875
0.000145163
0.00617499
0.000146399
0.00616199
0.000147381
0.00614875
0.00014813
0.00613545
0.000148662
0.00612219
0.000148992
0.00610907
0.000149133
0.00609614
0.000149096
0.00608344
0.000148891
0.00607097
0.000148525
0.00605873
0.000148006
0.00604672
0.000147339
0.00603492
0.000146529
0.00602332
0.000145582
0.00601191
0.000144502
0.00600068
0.000143294
0.00598963
0.000141963
0.00597875
0.000140514
0.00596804
0.000138952
0.00595751
0.000137282
0.00594715
0.00013551
0.00593698
0.000133639
0.00592699
0.000131675
0.00591719
0.000129622
0.00590757
0.000127484
0.00589816
0.000125266
0.00588893
0.000122972
0.00587991
0.000120606
0.00587109
0.000118172
0.00586248
0.000115673
0.00585407
0.000113113
0.00584587
0.000110494
0.00583788
0.000107822
0.00583011
0.000105097
0.00582254
0.000102324
0.00581519
9.95057e-05
0.00580806
9.66437e-05
0.00580115
9.37412e-05
0.00579445
9.08006e-05
0.00578797
8.78241e-05
0.00578172
8.48139e-05
0.00577568
8.17723e-05
0.00576986
7.87011e-05
0.00576427
7.56023e-05