/*--------------------------------*- C++ -*----------------------------------*\
  =========                 |
  \\      /  F ield         | OpenFOAM: The Open Source CFD Toolbox
   \\    /   O peration     | Website:  https://openfoam.org
    \\  /    A nd           | Version:  7
     \\/     M anipulation  |
\*---------------------------------------------------------------------------*/
FoamFile
{
    version     2.0;
    format      ascii;
    class       volVectorField;
    location    "39.999";
    object      U;
}
// * * * * * * * * * * * * * * * * * * * * * * * * * * * * * * * * * * * * * //

dimensions      [0 1 -1 0 0 0 0];

internalField   nonuniform List<vector> 
11400
(
(1.1559 -0.0321579 0)
(1.15464 -0.0309525 0)
(1.15343 -0.0297549 0)
(1.15226 -0.0285649 -1.51985e-11)
(1.15115 -0.0273822 -1.50431e-11)
(1.15008 -0.0262068 0)
(1.14905 -0.0250383 0)
(1.14808 -0.0238765 -7.58918e-29)
(1.14715 -0.0227213 1.06368e-27)
(1.14626 -0.0215723 -1.22184e-27)
(1.14542 -0.0204292 0)
(1.14463 -0.0192919 0)
(1.14388 -0.01816 0)
(1.14318 -0.0170332 -1.39634e-11)
(1.14252 -0.0159114 -1.38765e-11)
(1.14191 -0.014794 0)
(1.14134 -0.013681 0)
(1.14081 -0.0125719 0)
(1.14033 -0.0114664 0)
(1.13989 -0.0103643 1.35331e-11)
(1.1395 -0.00926525 1.34822e-11)
(1.13915 -0.00816889 0)
(1.13885 -0.0070749 0)
(1.13858 -0.00598296 -1.33641e-11)
(1.13837 -0.00489271 -1.33361e-11)
(1.13819 -0.00380382 0)
(1.13806 -0.00271603 -6.90181e-29)
(1.13798 -0.00162918 6.89601e-29)
(1.13794 -0.000543004 0)
(1.20849 -0.0757895 0)
(1.23842 -0.0795176 0)
(1.25649 -0.0818038 0)
(1.26587 -0.083117 0)
(1.2696 -0.083635 0)
(1.26999 -0.083594 0)
(1.26853 -0.0832075 0)
(1.26609 -0.0826126 0)
(1.26313 -0.0818858 0)
(1.2599 -0.0810691 0)
(1.25653 -0.0801854 0)
(1.25308 -0.079247 0)
(1.24958 -0.0782606 0)
(1.24605 -0.0772308 0)
(1.24254 -0.0761621 0)
(1.23907 -0.0750591 0)
(1.23565 -0.0739267 0)
(1.23232 -0.0727697 0)
(1.22908 -0.0715923 0)
(1.22593 -0.070398 0)
(1.22287 -0.0691895 0)
(1.2199 -0.0679688 0)
(1.217 -0.0667374 0)
(1.21418 -0.0654969 0)
(1.21141 -0.0642485 0)
(1.20871 -0.0629934 0)
(1.20607 -0.0617329 0)
(1.20349 -0.0604683 0)
(1.20097 -0.0592007 0)
(1.1985 -0.0579314 0)
(1.19608 -0.0566613 0)
(1.19372 -0.0553916 0)
(1.19142 -0.0541232 0)
(1.18917 -0.0528567 0)
(1.18698 -0.0515932 0)
(1.18484 -0.0503331 0)
(1.18275 -0.0490771 0)
(1.18072 -0.0478258 0)
(1.17874 -0.0465796 0)
(1.17681 -0.0453388 0)
(1.17494 -0.044104 0)
(1.17312 -0.0428752 0)
(1.17135 -0.0416529 0)
(1.16963 -0.0404371 0)
(1.16796 -0.039228 0)
(1.16634 -0.0380258 0)
(1.16478 -0.0368306 0)
(1.16326 -0.0356423 0)
(1.16179 -0.034461 0)
(1.16038 -0.0332866 0)
(1.15901 -0.0321192 0)
(1.15769 -0.0309587 0)
(1.15642 -0.0298049 0)
(1.1552 -0.0286579 0)
(1.15402 -0.0275173 0)
(1.1529 -0.0263832 0)
(1.15182 -0.0252553 0)
(1.15078 -0.0241335 0)
(1.1498 -0.0230176 0)
(1.14886 -0.0219074 3.18549e-28)
(1.14796 -0.0208027 -3.18549e-28)
(1.14712 -0.0197032 0)
(1.14631 -0.0186088 0)
(1.14556 -0.0175192 0)
(1.14485 -0.0164341 0)
(1.14418 -0.0153533 0)
(1.14356 -0.0142766 0)
(1.14299 -0.0132037 0)
(1.14246 -0.0121344 0)
(1.14197 -0.0110682 0)
(1.14153 -0.0100051 0)
(1.14113 -0.00894469 0)
(1.14078 -0.00788668 0)
(1.14047 -0.00683081 0)
(1.14021 -0.00577676 0)
(1.13999 -0.00472423 0)
(1.13981 -0.00367294 0)
(1.13968 -0.00262265 0)
(1.1396 -0.0015732 0)
(1.13955 -0.000524346 0)
(1.20193 -0.0698027 0)
(1.23365 -0.0735554 0)
(1.25347 -0.0759708 0)
(1.2643 -0.077469 0)
(1.26909 -0.0781744 0)
(1.27017 -0.0783003 0)
(1.26915 -0.0780584 0)
(1.26697 -0.0775919 0)
(1.26419 -0.0769839 0)
(1.26109 -0.0762809 0)
(1.25781 -0.0755086 0)
(1.25444 -0.074681 0)
(1.251 -0.0738055 0)
(1.24754 -0.0728869 0)
(1.24409 -0.0719294 0)
(1.24066 -0.0709373 0)
(1.23729 -0.069915 0)
(1.234 -0.0688672 0)
(1.23078 -0.0677976 0)
(1.22766 -0.0667097 2.34277e-27)
(1.22462 -0.065606 -2.34277e-27)
(1.22167 -0.0644884 0)
(1.21879 -0.0633587 0)
(1.21598 -0.0622181 0)
(1.21323 -0.0610679 0)
(1.21054 -0.0599092 0)
(1.20791 -0.0587433 0)
(1.20533 -0.0575713 0)
(1.20281 -0.0563944 0)
(1.20035 -0.0552139 0)
(1.19793 -0.0540306 0)
(1.19558 -0.0528457 0)
(1.19327 -0.0516601 0)
(1.19102 -0.0504746 0)
(1.18882 -0.04929 0)
(1.18668 -0.0481071 0)
(1.18459 -0.0469264 0)
(1.18255 -0.0457485 0)
(1.18056 -0.0445739 0)
(1.17863 -0.0434031 0)
(1.17675 -0.0422365 0)
(1.17492 -0.0410744 0)
(1.17314 -0.039917 0)
(1.17141 -0.0387647 -2.23005e-28)
(1.16974 -0.0376177 2.23005e-28)
(1.16811 -0.036476 0)
(1.16654 -0.0353399 0)
(1.16501 -0.0342094 0)
(1.16353 -0.0330847 0)
(1.16211 -0.0319656 0)
(1.16073 -0.0308523 0)
(1.1594 -0.0297448 0)
(1.15812 -0.0286429 0)
(1.15689 -0.0275466 0)
(1.15571 -0.0264559 0)
(1.15457 -0.0253707 0)
(1.15348 -0.0242907 0)
(1.15244 -0.023216 0)
(1.15144 -0.0221464 0)
(1.1505 -0.0210817 -2.32506e-11)
(1.1496 -0.0200217 2.32506e-11)
(1.14874 -0.0189663 0)
(1.14793 -0.0179153 0)
(1.14717 -0.0168685 0)
(1.14645 -0.0158257 0)
(1.14578 -0.0147866 0)
(1.14516 -0.0137511 0)
(1.14458 -0.0127189 0)
(1.14404 -0.0116898 0)
(1.14355 -0.0106636 0)
(1.14311 -0.00964007 0)
(1.14271 -0.0086189 0)
(1.14235 -0.00759986 0)
(1.14204 -0.00658271 0)
(1.14177 -0.00556717 0)
(1.14155 -0.00455299 0)
(1.14137 -0.00353991 0)
(1.14124 -0.00252773 0)
(1.14115 -0.00151631 0)
(1.14111 -0.000505388 0)
(1.1954 -0.0640269 0)
(1.22878 -0.0677795 0)
(1.25024 -0.0702962 0)
(1.26248 -0.0719529 0)
(1.26833 -0.0728291 0)
(1.27013 -0.0731137 0)
(1.26957 -0.0730123 0)
(1.26768 -0.0726711 0)
(1.26509 -0.0721782 0)
(1.26211 -0.0715847 0)
(1.25893 -0.0709191 0)
(1.25564 -0.0701971 0)
(1.25227 -0.069427 0)
(1.24888 -0.0686141 0)
(1.24547 -0.0677622 0)
(1.2421 -0.0668756 0)
(1.23877 -0.0659583 0)
(1.23551 -0.0650145 0)
(1.23233 -0.0640479 0)
(1.22924 -0.0630616 0)
(1.22622 -0.0620583 0)
(1.22329 -0.0610398 0)
(1.22043 -0.0600077 0)
(1.21763 -0.0589632 0)
(1.2149 -0.0579076 0)
(1.21222 -0.056842 0)
(1.2096 -0.0557675 0)
(1.20704 -0.0546853 0)
(1.20453 -0.0535966 0)
(1.20207 -0.0525023 0)
(1.19966 -0.0514036 0)
(1.19731 -0.0503015 0)
(1.195 -0.0491968 0)
(1.19275 -0.0480906 0)
(1.19055 -0.0469835 0)
(1.18841 -0.0458762 0)
(1.18632 -0.0447695 0)
(1.18427 -0.043664 0)
(1.18228 -0.0425601 0)
(1.18035 -0.0414584 0)
(1.17846 -0.0403593 0)
(1.17662 -0.0392632 0)
(1.17484 -0.0381703 0)
(1.1731 -0.0370811 4.2059e-28)
(1.17142 -0.0359956 -4.2059e-28)
(1.16979 -0.0349143 0)
(1.1682 -0.0338371 0)
(1.16667 -0.0327643 0)
(1.16519 -0.031696 0)
(1.16375 -0.0306323 0)
(1.16237 -0.0295731 0)
(1.16103 -0.0285186 0)
(1.15974 -0.0274687 0)
(1.1585 -0.0264234 0)
(1.15731 -0.0253828 0)
(1.15617 -0.0243466 0)
(1.15507 -0.0233149 0)
(1.15403 -0.0222876 0)
(1.15302 -0.0212646 0)
(1.15207 -0.0202458 -2.37763e-11)
(1.15116 -0.0192309 2.37763e-11)
(1.1503 -0.01822 0)
(1.14949 -0.0172128 0)
(1.14872 -0.0162093 0)
(1.148 -0.0152091 0)
(1.14732 -0.0142122 0)
(1.14669 -0.0132184 0)
(1.14611 -0.0122274 0)
(1.14557 -0.0112391 0)
(1.14507 -0.0102534 0)
(1.14462 -0.0092699 0)
(1.14422 -0.00828851 0)
(1.14386 -0.00730898 0)
(1.14355 -0.00633109 0)
(1.14328 -0.0053546 0)
(1.14305 -0.0043793 0)
(1.14288 -0.00340497 0)
(1.14274 -0.00243144 0)
(1.14266 -0.00145859 0)
(1.14261 -0.000486157 0)
(1.18894 -0.058461 0)
(1.22385 -0.0621902 0)
(1.24684 -0.0647822 0)
(1.26044 -0.0665719 0)
(1.26734 -0.0676006 0)
(1.26988 -0.0680335 0)
(1.2698 -0.068067 0)
(1.26822 -0.067847 0)
(1.26582 -0.0674655 0)
(1.26298 -0.0669774 0)
(1.2599 -0.0664142 0)
(1.25669 -0.0657932 0)
(1.25339 -0.0651238 0)
(1.25006 -0.0644115 0)
(1.24671 -0.0636604 0)
(1.24339 -0.0628744 0)
(1.2401 -0.0620572 0)
(1.23688 -0.0612128 0)
(1.23373 -0.0603447 0)
(1.23067 -0.0594559 -3.74727e-27)
(1.22768 -0.0585488 3.74727e-27)
(1.22477 -0.0576254 0)
(1.22193 -0.0566872 0)
(1.21915 -0.0557353 0)
(1.21643 -0.054771 0)
(1.21377 -0.0537953 0)
(1.21117 -0.0528093 0)
(1.20861 -0.0518141 0)
(1.20611 -0.0508108 0)
(1.20366 -0.0498004 0)
(1.20126 -0.048784 0)
(1.19891 -0.0477626 0)
(1.19662 -0.0467371 0)
(1.19437 -0.0457083 0)
(1.19217 -0.0446771 0)
(1.19003 -0.0436442 2.80468e-27)
(1.18793 -0.0426102 -2.80468e-27)
(1.18589 -0.0415759 0)
(1.1839 -0.0405417 0)
(1.18196 -0.0395081 0)
(1.18007 -0.0384757 0)
(1.17823 -0.0374449 0)
(1.17644 -0.0364159 0)
(1.1747 -0.0353891 0)
(1.17301 -0.0343649 0)
(1.17138 -0.0333434 0)
(1.16979 -0.032325 0)
(1.16825 -0.0313096 0)
(1.16676 -0.0302976 0)
(1.16532 -0.029289 0)
(1.16393 -0.0282839 0)
(1.16258 -0.0272824 2.26036e-27)
(1.16129 -0.0262846 -2.26036e-27)
(1.16004 -0.0252904 0)
(1.15885 -0.0242999 0)
(1.1577 -0.023313 0)
(1.1566 -0.0223297 0)
(1.15554 -0.0213501 0)
(1.15453 -0.0203739 0)
(1.15357 -0.0194012 0)
(1.15266 -0.0184318 0)
(1.15179 -0.0174657 0)
(1.15098 -0.0165027 0)
(1.1502 -0.0155427 0)
(1.14948 -0.0145856 0)
(1.14879 -0.0136312 0)
(1.14816 -0.0126795 0)
(1.14757 -0.0117301 0)
(1.14703 -0.0107831 0)
(1.14653 -0.00983822 0)
(1.14608 -0.00889528 0)
(1.14567 -0.00795412 0)
(1.14531 -0.00701455 0)
(1.145 -0.00607638 0)
(1.14472 -0.00513942 0)
(1.1445 -0.00420348 0)
(1.14432 -0.00326838 0)
(1.14419 -0.00233397 0)
(1.1441 -0.00140015 0)
(1.14405 -0.000466686 0)
(1.18258 -0.0530983 0)
(1.21889 -0.0567824 0)
(1.24331 -0.0594266 0)
(1.2582 -0.0613261 0)
(1.26613 -0.0624894 0)
(1.26942 -0.0630596 0)
(1.26984 -0.0632212 0)
(1.26859 -0.0631179 0)
(1.2664 -0.0628439 0)
(1.2637 -0.0624574 0)
(1.26072 -0.0619924 0)
(1.25759 -0.0614682 0)
(1.25436 -0.060895 0)
(1.25109 -0.0602788 0)
(1.2478 -0.059624 0)
(1.24452 -0.058934 0)
(1.24129 -0.0582126 0)
(1.2381 -0.0574634 0)
(1.23499 -0.0566897 0)
(1.23195 -0.0558943 0)
(1.22899 -0.0550797 0)
(1.22611 -0.0542477 0)
(1.22329 -0.0533998 0)
(1.22053 -0.0525372 0)
(1.21783 -0.051661 0)
(1.21519 -0.0507722 0)
(1.2126 -0.0498718 0)
(1.21006 -0.0489609 0)
(1.20757 -0.0480405 0)
(1.20513 -0.0471117 0)
(1.20274 -0.0461755 0)
(1.2004 -0.0452327 0)
(1.19811 -0.0442844 0)
(1.19587 -0.0433314 0)
(1.19368 -0.0423745 0)
(1.19154 -0.0414145 -1.36777e-27)
(1.18944 -0.0404519 1.36777e-27)
(1.1874 -0.0394875 0)
(1.18541 -0.0385219 0)
(1.18347 -0.0375555 0)
(1.18158 -0.0365889 0)
(1.17974 -0.0356225 0)
(1.17795 -0.0346567 0)
(1.17621 -0.0336919 0)
(1.17452 -0.0327283 0)
(1.17287 -0.0317663 0)
(1.17128 -0.0308061 0)
(1.16974 -0.0298479 0)
(1.16825 -0.0288919 0)
(1.1668 -0.0279382 0)
(1.1654 -0.0269871 0)
(1.16406 -0.0260385 -1.10621e-27)
(1.16276 -0.0250927 1.10621e-27)
(1.16151 -0.0241495 0)
(1.16031 -0.0232092 0)
(1.15915 -0.0222717 0)
(1.15804 -0.0213369 0)
(1.15698 -0.020405 0)
(1.15597 -0.0194759 0)
(1.15501 -0.0185495 1.02784e-27)
(1.15409 -0.0176257 -1.02784e-27)
(1.15322 -0.0167046 0)
(1.1524 -0.0157861 0)
(1.15162 -0.01487 0)
(1.15089 -0.0139562 0)
(1.1502 -0.0130447 0)
(1.14957 -0.0121353 0)
(1.14897 -0.011228 0)
(1.14843 -0.0103226 0)
(1.14793 -0.00941891 0)
(1.14747 -0.00851687 0)
(1.14706 -0.00761632 0)
(1.1467 -0.0067171 0)
(1.14638 -0.00581905 0)
(1.14611 -0.00492201 0)
(1.14589 -0.00402583 0)
(1.1457 -0.00313035 0)
(1.14557 -0.00223547 0)
(1.14548 -0.00134109 0)
(1.14544 -0.000447008 0)
(1.17636 -0.0479288 0)
(1.21394 -0.0515485 0)
(1.23968 -0.0542243 0)
(1.25579 -0.0562131 0)
(1.26473 -0.0574945 0)
(1.26877 -0.0581907 0)
(1.2697 -0.0584736 0)
(1.26879 -0.0584823 0)
(1.26682 -0.058312 0)
(1.26427 -0.0580233 0)
(1.2614 -0.0576528 0)
(1.25835 -0.0572213 0)
(1.25519 -0.0567402 0)
(1.25198 -0.0562161 0)
(1.24875 -0.0556532 0)
(1.24552 -0.0550553 0)
(1.24233 -0.0544256 0)
(1.23919 -0.0537676 0)
(1.23611 -0.0530844 0)
(1.2331 -0.0523788 0)
(1.23017 -0.0516531 0)
(1.22731 -0.0509091 0)
(1.22451 -0.0501483 0)
(1.22178 -0.0493717 0)
(1.2191 -0.0485805 0)
(1.21648 -0.0477757 0)
(1.21391 -0.0469582 0)
(1.21139 -0.046129 0)
(1.20891 -0.0452891 0)
(1.20648 -0.0444396 0)
(1.20411 -0.0435813 0)
(1.20177 -0.0427152 0)
(1.19949 -0.0418422 0)
(1.19726 -0.0409633 0)
(1.19507 -0.040079 0)
(1.19294 -0.0391903 1.38674e-27)
(1.19085 -0.0382978 -1.38674e-27)
(1.18881 -0.0374021 0)
(1.18682 -0.0365039 0)
(1.18488 -0.0356037 0)
(1.18299 -0.0347019 0)
(1.18115 -0.0337992 0)
(1.17936 -0.0328958 0)
(1.17762 -0.0319921 -1.37254e-27)
(1.17593 -0.0310886 1.37254e-27)
(1.17428 -0.0301855 0)
(1.17269 -0.0292831 0)
(1.17114 -0.0283816 0)
(1.16965 -0.0274813 0)
(1.1682 -0.0265823 0)
(1.1668 -0.0256848 0)
(1.16545 -0.024789 0)
(1.16415 -0.023895 0)
(1.16289 -0.0230029 0)
(1.16169 -0.0221126 0)
(1.16053 -0.0212244 0)
(1.15942 -0.0203383 0)
(1.15836 -0.0194541 0)
(1.15734 -0.0185721 0)
(1.15637 -0.0176921 -1.04687e-27)
(1.15545 -0.0168142 1.04687e-27)
(1.15458 -0.0159383 0)
(1.15375 -0.0150643 0)
(1.15297 -0.0141923 0)
(1.15224 -0.0133221 0)
(1.15155 -0.0124537 0)
(1.15091 -0.011587 0)
(1.15031 -0.0107219 0)
(1.14977 -0.00985832 0)
(1.14926 -0.00899617 0)
(1.14881 -0.00813534 0)
(1.1484 -0.0072757 0)
(1.14803 -0.00641714 0)
(1.14771 -0.00555954 0)
(1.14744 -0.00470275 0)
(1.14721 -0.00384665 0)
(1.14703 -0.00299114 0)
(1.14689 -0.00213612 0)
(1.1468 -0.00128152 0)
(1.14676 -0.000427157 0)
(1.17029 -0.042943 0)
(1.20901 -0.046481 0)
(1.23598 -0.0491705 0)
(1.25324 -0.0512302 0)
(1.26315 -0.0526144 0)
(1.26793 -0.0534257 0)
(1.26939 -0.0538226 0)
(1.26883 -0.0539385 0)
(1.26709 -0.0538681 0)
(1.2647 -0.0536738 0)
(1.26194 -0.0533942 0)
(1.25897 -0.0530519 0)
(1.25588 -0.0526591 0)
(1.25273 -0.0522232 0)
(1.24956 -0.0517485 0)
(1.24638 -0.0512387 0)
(1.24323 -0.0506969 0)
(1.24013 -0.0501265 0)
(1.23709 -0.0495303 0)
(1.23412 -0.048911 3.83842e-27)
(1.23122 -0.0482708 -3.83842e-27)
(1.22838 -0.0476116 0)
(1.22561 -0.0469346 0)
(1.2229 -0.0462411 0)
(1.22025 -0.0455321 0)
(1.21765 -0.0448085 0)
(1.21509 -0.0440712 0)
(1.21259 -0.0433212 0)
(1.21013 -0.0425594 0)
(1.20772 -0.0417869 0)
(1.20535 -0.0410044 0)
(1.20303 -0.040213 0)
(1.20076 -0.0394136 0)
(1.19854 -0.0386069 0)
(1.19636 -0.0377937 0)
(1.19423 -0.0369748 -2.92323e-27)
(1.19215 -0.0361509 2.92323e-27)
(1.19012 -0.0353227 0)
(1.18813 -0.0344907 0)
(1.1862 -0.0336555 0)
(1.18431 -0.0328176 0)
(1.18247 -0.0319775 0)
(1.18068 -0.0311357 0)
(1.17894 -0.0302925 1.92221e-27)
(1.17725 -0.0294483 -1.92221e-27)
(1.17561 -0.0286035 0)
(1.17401 -0.0277584 0)
(1.17247 -0.0269131 0)
(1.17097 -0.0260681 0)
(1.16952 -0.0252234 0)
(1.16812 -0.0243794 0)
(1.16676 -0.023536 -2.75525e-11)
(1.16546 -0.0226936 2.75525e-11)
(1.1642 -0.0218523 0)
(1.163 -0.0210121 0)
(1.16184 -0.0201731 0)
(1.16072 -0.0193354 0)
(1.15966 -0.018499 0)
(1.15864 -0.0176641 0)
(1.15767 -0.0168306 0)
(1.15674 -0.0159985 0)
(1.15587 -0.0151678 0)
(1.15504 -0.0143386 0)
(1.15426 -0.0135108 0)
(1.15352 -0.0126843 0)
(1.15283 -0.0118592 0)
(1.15219 -0.0110353 0)
(1.15159 -0.0102126 0)
(1.15104 -0.00939113 0)
(1.15053 -0.00857072 0)
(1.15008 -0.00775132 0)
(1.14966 -0.00693284 0)
(1.1493 -0.00611519 0)
(1.14898 -0.00529827 0)
(1.1487 -0.004482 0)
(1.14847 -0.00366626 0)
(1.14829 -0.00285097 0)
(1.14816 -0.00203608 0)
(1.14807 -0.00122153 0)
(1.14802 -0.000407168 0)
(1.16441 -0.0381313 0)
(1.20414 -0.0415726 0)
(1.23223 -0.04426 0)
(1.25057 -0.0463744 0)
(1.26141 -0.0478471 0)
(1.26693 -0.0487628 0)
(1.26891 -0.0492667 0)
(1.26871 -0.049485 0)
(1.26722 -0.0495107 0)
(1.26499 -0.0494075 0)
(1.26234 -0.0492157 0)
(1.25946 -0.0489591 0)
(1.25644 -0.0486513 0)
(1.25336 -0.0483 0)
(1.25024 -0.0479099 0)
(1.24711 -0.0474847 0)
(1.24401 -0.0470274 0)
(1.24095 -0.046541 0)
(1.23795 -0.0460285 0)
(1.23501 -0.0454922 -1.85507e-27)
(1.23214 -0.0449345 1.85507e-27)
(1.22933 -0.0443569 0)
(1.22659 -0.0437609 0)
(1.2239 -0.0431475 0)
(1.22127 -0.0425179 0)
(1.21869 -0.0418728 0)
(1.21616 -0.0412132 0)
(1.21367 -0.04054 0)
(1.21123 -0.0398541 0)
(1.20884 -0.0391563 0)
(1.20649 -0.0384476 0)
(1.20418 -0.037729 0)
(1.20192 -0.0370011 0)
(1.19971 -0.036265 0)
(1.19754 -0.0355213 0)
(1.19542 -0.0347707 0)
(1.19335 -0.034014 0)
(1.19132 -0.0332519 0)
(1.18935 -0.0324849 0)
(1.18741 -0.0317136 0)
(1.18553 -0.0309385 0)
(1.1837 -0.0301602 0)
(1.18191 -0.029379 0)
(1.18017 -0.0285955 0)
(1.17848 -0.0278099 0)
(1.17684 -0.0270228 0)
(1.17525 -0.0262342 0)
(1.1737 -0.0254447 0)
(1.1722 -0.0246544 0)
(1.17076 -0.0238637 0)
(1.16935 -0.0230726 0)
(1.168 -0.0222815 -2.7966e-11)
(1.1667 -0.0214904 2.7966e-11)
(1.16544 -0.0206996 0)
(1.16423 -0.0199091 0)
(1.16307 -0.0191192 0)
(1.16195 -0.0183299 0)
(1.16088 -0.0175412 0)
(1.15987 -0.0167533 0)
(1.15889 -0.0159662 0)
(1.15797 -0.01518 0)
(1.15709 -0.0143946 0)
(1.15626 -0.0136101 0)
(1.15547 -0.0128265 0)
(1.15474 -0.0120439 0)
(1.15404 -0.0112621 0)
(1.1534 -0.0104811 0)
(1.1528 -0.00970105 0)
(1.15225 -0.00892176 0)
(1.15174 -0.00814324 0)
(1.15128 -0.00736543 0)
(1.15087 -0.00658827 0)
(1.1505 -0.00581172 0)
(1.15018 -0.00503568 0)
(1.14991 -0.00426011 0)
(1.14968 -0.00348492 0)
(1.1495 -0.00271007 0)
(1.14936 -0.00193551 0)
(1.14927 -0.00116122 0)
(1.14922 -0.000387073 0)
(1.15871 -0.0334849 0)
(1.19934 -0.0368166 0)
(1.22845 -0.0394885 0)
(1.24781 -0.0416431 0)
(1.25954 -0.043191 0)
(1.26577 -0.044201 0)
(1.26829 -0.0448046 0)
(1.26845 -0.0451203 0)
(1.26721 -0.0452386 0)
(1.26514 -0.0452233 0)
(1.26261 -0.0451161 0)
(1.25982 -0.0449423 0)
(1.25688 -0.0447162 0)
(1.25385 -0.0444463 0)
(1.25079 -0.0441375 0)
(1.24772 -0.0437935 0)
(1.24466 -0.0434174 0)
(1.24164 -0.043012 0)
(1.23868 -0.0425799 0)
(1.23577 -0.0421237 0)
(1.23293 -0.0416453 0)
(1.23016 -0.0411465 0)
(1.22744 -0.0406286 0)
(1.22478 -0.0400928 0)
(1.22218 -0.0395399 0)
(1.21962 -0.0389708 0)
(1.21711 -0.0383865 0)
(1.21464 -0.0377877 0)
(1.21222 -0.0371753 0)
(1.20985 -0.0365503 0)
(1.20751 -0.0359134 0)
(1.20522 -0.0352655 0)
(1.20298 -0.0346075 0)
(1.20078 -0.0339402 0)
(1.19862 -0.0332643 0)
(1.19651 -0.0325805 0)
(1.19445 -0.0318896 0)
(1.19243 -0.0311923 0)
(1.19046 -0.030489 0)
(1.18854 -0.0297804 0)
(1.18666 -0.0290671 0)
(1.18483 -0.0283495 0)
(1.18305 -0.0276281 0)
(1.18132 -0.0269034 0)
(1.17963 -0.0261757 0)
(1.17799 -0.0254454 0)
(1.1764 -0.0247129 0)
(1.17486 -0.0239784 0)
(1.17336 -0.0232424 0)
(1.17191 -0.022505 0)
(1.17051 -0.0217665 0)
(1.16916 -0.0210271 -2.83541e-11)
(1.16785 -0.020287 2.83541e-11)
(1.1666 -0.0195465 0)
(1.16539 -0.0188056 0)
(1.16422 -0.0180645 0)
(1.16311 -0.0173233 0)
(1.16204 -0.0165821 0)
(1.16102 -0.0158411 0)
(1.16005 -0.0151004 2.28625e-27)
(1.15912 -0.0143599 -2.28625e-27)
(1.15824 -0.0136197 0)
(1.15741 -0.01288 0)
(1.15662 -0.0121406 0)
(1.15589 -0.0114017 0)
(1.15519 -0.0106633 0)
(1.15455 -0.00992539 0)
(1.15395 -0.00918793 0)
(1.1534 -0.00845093 0)
(1.15289 -0.00771438 0)
(1.15243 -0.00697826 0)
(1.15201 -0.00624254 0)
(1.15165 -0.00550719 0)
(1.15132 -0.00477217 0)
(1.15105 -0.00403743 0)
(1.15082 -0.00330293 0)
(1.15064 -0.00256865 0)
(1.1505 -0.00183457 0)
(1.15041 -0.00110069 0)
(1.15036 -0.000366901 0)
(1.15323 -0.0289946 0)
(1.19464 -0.0322055 0)
(1.22467 -0.0348507 0)
(1.24497 -0.037033 0)
(1.25755 -0.0386443 0)
(1.26447 -0.0397388 0)
(1.26751 -0.0404351 0)
(1.26805 -0.0408432 0)
(1.26706 -0.0410504 0)
(1.26517 -0.04112 0)
(1.26276 -0.0410946 0)
(1.26006 -0.0410006 0)
(1.25719 -0.0408533 0)
(1.25423 -0.0406618 0)
(1.25122 -0.0404312 0)
(1.2482 -0.0401655 0)
(1.24519 -0.0398674 0)
(1.24222 -0.0395399 0)
(1.23929 -0.0391854 0)
(1.23642 -0.0388063 0)
(1.23361 -0.0384045 0)
(1.23087 -0.0379818 0)
(1.22818 -0.0375394 0)
(1.22555 -0.0370784 0)
(1.22297 -0.0365998 0)
(1.22044 -0.0361043 0)
(1.21795 -0.0355929 0)
(1.21551 -0.0350663 0)
(1.2131 -0.0345253 0)
(1.21075 -0.0339709 0)
(1.20843 -0.0334038 0)
(1.20616 -0.0328248 0)
(1.20393 -0.0322349 0)
(1.20174 -0.0316347 0)
(1.1996 -0.031025 0)
(1.1975 -0.0304066 0)
(1.19545 -0.02978 0)
(1.19344 -0.0291461 0)
(1.19148 -0.0285053 0)
(1.18957 -0.0278583 0)
(1.1877 -0.0272056 0)
(1.18587 -0.0265477 0)
(1.1841 -0.0258851 0)
(1.18237 -0.0252183 0)
(1.18069 -0.0245476 0)
(1.17905 -0.0238734 0)
(1.17747 -0.0231962 0)
(1.17593 -0.0225162 0)
(1.17443 -0.0218338 0)
(1.17299 -0.0211493 0)
(1.17159 -0.0204628 0)
(1.17024 -0.0197748 -2.87169e-11)
(1.16894 -0.0190853 2.87169e-11)
(1.16768 -0.0183946 0)
(1.16647 -0.0177029 0)
(1.16531 -0.0170103 0)
(1.16419 -0.016317 0)
(1.16313 -0.0156231 0)
(1.16211 -0.0149289 0)
(1.16113 -0.0142342 -1.11354e-27)
(1.16021 -0.0135393 1.11354e-27)
(1.15933 -0.0128443 0)
(1.1585 -0.0121492 0)
(1.15771 -0.011454 0)
(1.15697 -0.0107589 0)
(1.15628 -0.0100638 0)
(1.15563 -0.00936887 0)
(1.15503 -0.00867402 0)
(1.15448 -0.00797932 0)
(1.15397 -0.00728477 0)
(1.15351 -0.00659038 0)
(1.1531 -0.00589615 0)
(1.15273 -0.00520207 0)
(1.15241 -0.00450811 0)
(1.15213 -0.00381428 0)
(1.1519 -0.00312055 1.03852e-27)
(1.15172 -0.00242693 -1.03852e-27)
(1.15158 -0.00173341 0)
(1.15149 -0.00104003 0)
(1.15144 -0.000346684 0)
(1.14795 -0.0246529 0)
(1.19004 -0.0277334 0)
(1.22091 -0.0303427 0)
(1.24207 -0.0325416 0)
(1.25546 -0.0342054 0)
(1.26305 -0.0353753 0)
(1.2666 -0.0361574 0)
(1.26751 -0.036653 0)
(1.26678 -0.0369453 0)
(1.26507 -0.0370968 0)
(1.26279 -0.0371504 0)
(1.26019 -0.0371334 0)
(1.25739 -0.0370622 0)
(1.25449 -0.0369462 0)
(1.25154 -0.036791 0)
(1.24857 -0.0366006 0)
(1.24561 -0.0363778 0)
(1.24268 -0.0361253 0)
(1.23979 -0.0358456 0)
(1.23696 -0.0355409 1.87889e-27)
(1.23418 -0.0352131 -1.87889e-27)
(1.23147 -0.0348638 0)
(1.22881 -0.0344943 0)
(1.22621 -0.0341058 0)
(1.22365 -0.033699 0)
(1.22114 -0.0332748 0)
(1.21868 -0.0328341 0)
(1.21626 -0.0323775 0)
(1.21388 -0.0319059 0)
(1.21154 -0.0314201 0)
(1.20925 -0.0309208 0)
(1.20699 -0.030409 0)
(1.20478 -0.0298853 0)
(1.20261 -0.0293506 0)
(1.20048 -0.0288056 0)
(1.19839 -0.028251 1.46089e-27)
(1.19635 -0.0276874 -1.46089e-27)
(1.19436 -0.0271155 0)
(1.19241 -0.026536 0)
(1.1905 -0.0259493 0)
(1.18864 -0.0253561 0)
(1.18683 -0.0247569 0)
(1.18506 -0.0241521 0)
(1.18334 -0.0235422 -1.45995e-27)
(1.18166 -0.0229277 1.45995e-27)
(1.18003 -0.0223089 0)
(1.17845 -0.0216862 0)
(1.17692 -0.0210599 0)
(1.17543 -0.0204305 0)
(1.17399 -0.0197982 0)
(1.17259 -0.0191633 0)
(1.17124 -0.018526 0)
(1.16994 -0.0178867 0)
(1.16869 -0.0172454 0)
(1.16748 -0.0166025 0)
(1.16632 -0.0159581 0)
(1.16521 -0.0153124 0)
(1.16414 -0.0146656 0)
(1.16312 -0.0140177 0)
(1.16215 -0.013369 0)
(1.16122 -0.0127196 0)
(1.16035 -0.0120695 0)
(1.15951 -0.0114188 0)
(1.15873 -0.0107677 0)
(1.15799 -0.0101162 0)
(1.1573 -0.00946441 0)
(1.15665 -0.00881233 0)
(1.15605 -0.00816005 0)
(1.1555 -0.0075076 0)
(1.15499 -0.00685503 0)
(1.15453 -0.00620235 0)
(1.15412 -0.00554959 0)
(1.15375 -0.00489677 0)
(1.15342 -0.0042439 0)
(1.15315 -0.00359098 0)
(1.15292 -0.00293804 -1.05296e-27)
(1.15274 -0.0022851 1.05296e-27)
(1.1526 -0.00163217 0)
(1.15251 -0.00097931 0)
(1.15246 -0.00032645 0)
(1.1429 -0.0204509 0)
(1.18556 -0.0233921 0)
(1.21718 -0.025959 0)
(1.23914 -0.0281657 0)
(1.25327 -0.0298724 0)
(1.26151 -0.0311095 0)
(1.26557 -0.0319707 0)
(1.26685 -0.0325488 0)
(1.26638 -0.0329226 0)
(1.26486 -0.0331529 0)
(1.26271 -0.0332828 0)
(1.26019 -0.0333403 0)
(1.25748 -0.0333425 0)
(1.25464 -0.0332993 0)
(1.25175 -0.0332168 0)
(1.24883 -0.033099 0)
(1.24591 -0.0329487 0)
(1.24302 -0.0327686 0)
(1.24017 -0.0325611 0)
(1.23738 -0.0323282 -3.92145e-27)
(1.23464 -0.0320718 3.92145e-27)
(1.23196 -0.0317936 0)
(1.22933 -0.0314947 0)
(1.22675 -0.0311762 0)
(1.22423 -0.030839 0)
(1.22174 -0.0304839 0)
(1.21931 -0.0301116 0)
(1.21691 -0.029723 0)
(1.21455 -0.0293187 0)
(1.21224 -0.0288996 0)
(1.20996 -0.0284664 0)
(1.20772 -0.0280198 0)
(1.20553 -0.0275608 0)
(1.20337 -0.0270899 0)
(1.20126 -0.026608 0)
(1.19919 -0.0261156 -3.06367e-27)
(1.19717 -0.0256136 3.06367e-27)
(1.19518 -0.0251025 0)
(1.19325 -0.0245829 0)
(1.19135 -0.0240554 0)
(1.1895 -0.0235205 0)
(1.1877 -0.0229789 0)
(1.18594 -0.0224309 0)
(1.18422 -0.021877 0)
(1.18255 -0.0213177 0)
(1.18093 -0.0207534 0)
(1.17936 -0.0201845 0)
(1.17783 -0.0196113 0)
(1.17634 -0.0190342 0)
(1.17491 -0.0184535 0)
(1.17351 -0.0178695 0)
(1.17217 -0.0172824 0)
(1.17087 -0.0166927 0)
(1.16962 -0.0161004 0)
(1.16842 -0.0155059 0)
(1.16726 -0.0149093 0)
(1.16615 -0.0143108 0)
(1.16509 -0.0137106 0)
(1.16407 -0.0131089 0)
(1.1631 -0.0125059 0)
(1.16217 -0.0119016 0)
(1.1613 -0.0112962 0)
(1.16047 -0.0106898 0)
(1.15968 -0.0100826 0)
(1.15894 -0.00947455 0)
(1.15825 -0.00886585 0)
(1.15761 -0.00825654 0)
(1.15701 -0.00764671 2.27121e-27)
(1.15645 -0.00703641 -2.27121e-27)
(1.15595 -0.00642572 0)
(1.15549 -0.00581467 0)
(1.15507 -0.00520332 0)
(1.1547 -0.00459171 0)
(1.15438 -0.00397987 0)
(1.15411 -0.00336784 0)
(1.15388 -0.00275565 0)
(1.15369 -0.00214335 0)
(1.15355 -0.00153099 0)
(1.15346 -0.000918626 0)
(1.15342 -0.000306227 0)
(1.13807 -0.0163849 0)
(1.18121 -0.0191773 0)
(1.21348 -0.0216972 0)
(1.23617 -0.0239039 0)
(1.25101 -0.0256449 0)
(1.25986 -0.0269409 0)
(1.26441 -0.0278746 0)
(1.26607 -0.0285303 0)
(1.26587 -0.0289817 0)
(1.26452 -0.0292877 0)
(1.26251 -0.0294913 0)
(1.26009 -0.0296208 0)
(1.25745 -0.0296938 0)
(1.25468 -0.029721 0)
(1.25184 -0.0297086 0)
(1.24897 -0.0296607 0)
(1.24611 -0.0295804 0)
(1.24326 -0.0294702 0)
(1.24045 -0.0293323 0)
(1.2377 -0.0291689 0)
(1.23499 -0.0289816 0)
(1.23234 -0.028772 0)
(1.22974 -0.0285413 0)
(1.2272 -0.0282907 0)
(1.2247 -0.0280209 0)
(1.22224 -0.0277327 0)
(1.21983 -0.0274269 0)
(1.21746 -0.0271042 0)
(1.21513 -0.0267653 0)
(1.21283 -0.026411 0)
(1.21058 -0.026042 0)
(1.20836 -0.025659 0)
(1.20618 -0.0252629 0)
(1.20405 -0.0248542 0)
(1.20195 -0.0244338 0)
(1.1999 -0.0240024 1.48139e-27)
(1.19789 -0.0235604 -1.48139e-27)
(1.19592 -0.0231087 0)
(1.19399 -0.0226478 0)
(1.19211 -0.0221783 0)
(1.19027 -0.0217006 0)
(1.18848 -0.0212155 0)
(1.18673 -0.0207232 0)
(1.18502 -0.0202244 0)
(1.18336 -0.0197195 0)
(1.18175 -0.0192088 0)
(1.18018 -0.0186928 0)
(1.17866 -0.0181718 0)
(1.17718 -0.0176463 0)
(1.17575 -0.0171165 0)
(1.17436 -0.0165828 0)
(1.17302 -0.0160455 0)
(1.17173 -0.0155048 0)
(1.17048 -0.014961 0)
(1.16928 -0.0144143 0)
(1.16813 -0.013865 0)
(1.16702 -0.0133134 0)
(1.16596 -0.0127595 0)
(1.16495 -0.0122036 0)
(1.16398 -0.0116458 0)
(1.16305 -0.0110864 0)
(1.16218 -0.0105254 0)
(1.16135 -0.00996309 0)
(1.16057 -0.00939948 0)
(1.15983 -0.00883471 0)
(1.15914 -0.00826892 0)
(1.1585 -0.0077022 0)
(1.1579 -0.00713465 0)
(1.15735 -0.00656635 0)
(1.15684 -0.0059974 0)
(1.15638 -0.00542786 0)
(1.15597 -0.0048578 0)
(1.1556 -0.00428728 0)
(1.15528 -0.00371638 0)
(1.155 -0.00314513 0)
(1.15477 -0.00257361 0)
(1.15459 -0.00200187 0)
(1.15445 -0.00142999 0)
(1.15436 -0.000858053 0)
(1.15431 -0.00028604 0)
(1.13346 -0.0124428 0)
(1.17699 -0.0150773 0)
(1.20983 -0.0175513 0)
(1.23319 -0.0197539 0)
(1.24869 -0.0215219 0)
(1.25812 -0.0228693 0)
(1.26315 -0.0238691 0)
(1.26517 -0.0245972 0)
(1.26523 -0.0251223 0)
(1.26408 -0.025501 0)
(1.2622 -0.0257755 0)
(1.25989 -0.0259744 -4.48767e-27)
(1.25732 -0.0261159 4.48767e-27)
(1.25462 -0.0262109 0)
(1.25184 -0.0262662 0)
(1.24902 -0.0262859 0)
(1.2462 -0.0262732 0)
(1.2434 -0.0262304 0)
(1.24063 -0.0261598 0)
(1.23791 -0.0260634 3.93324e-27)
(1.23524 -0.0259429 -3.93324e-27)
(1.23262 -0.0257997 0)
(1.23006 -0.0256352 0)
(1.22754 -0.0254502 0)
(1.22507 -0.0252457 0)
(1.22264 -0.0250224 0)
(1.22026 -0.0247811 0)
(1.21791 -0.0245224 0)
(1.2156 -0.024247 0)
(1.21333 -0.0239557 0)
(1.2111 -0.0236491 0)
(1.2089 -0.023328 0)
(1.20675 -0.0229932 0)
(1.20463 -0.0226452 0)
(1.20255 -0.0222848 0)
(1.20051 -0.0219128 0)
(1.19852 -0.0215296 0)
(1.19656 -0.0211359 0)
(1.19465 -0.0207324 0)
(1.19278 -0.0203196 0)
(1.19096 -0.0198981 0)
(1.18917 -0.0194683 0)
(1.18744 -0.0190308 0)
(1.18574 -0.018586 0)
(1.18409 -0.0181344 0)
(1.18249 -0.0176765 0)
(1.18092 -0.0172126 0)
(1.17941 -0.0167431 0)
(1.17794 -0.0162684 0)
(1.17651 -0.0157888 0)
(1.17513 -0.0153048 0)
(1.1738 -0.0148164 0)
(1.17251 -0.0143242 0)
(1.17127 -0.0138283 0)
(1.17008 -0.013329 0)
(1.16893 -0.0128266 0)
(1.16782 -0.0123213 0)
(1.16677 -0.0118133 0)
(1.16575 -0.0113028 0)
(1.16479 -0.0107899 2.42529e-27)
(1.16387 -0.010275 -2.42529e-27)
(1.163 -0.00975817 0)
(1.16217 -0.00923953 0)
(1.16139 -0.00871925 0)
(1.16065 -0.00819748 0)
(1.15996 -0.00767435 0)
(1.15932 -0.00714998 0)
(1.15872 -0.00662449 -2.32201e-27)
(1.15817 -0.00609799 2.32201e-27)
(1.15767 -0.00557059 0)
(1.15721 -0.00504238 0)
(1.1568 -0.00451344 0)
(1.15643 -0.00398387 0)
(1.15611 -0.00345374 0)
(1.15583 -0.00292314 0)
(1.15561 -0.00239214 0)
(1.15542 -0.00186083 0)
(1.15529 -0.00132931 0)
(1.15519 -0.000797667 0)
(1.15515 -0.000265915 0)
(1.12907 -0.0086365 0)
(1.17289 -0.0110901 0)
(1.20624 -0.013523 0)
(1.2302 -0.015718 0)
(1.24631 -0.0175046 0)
(1.2563 -0.0188949 0)
(1.26179 -0.0199539 0)
(1.26417 -0.0207493 0)
(1.26449 -0.0213441 0)
(1.26353 -0.0217922 0)
(1.26179 -0.0221349 0)
(1.25958 -0.0224008 2.15143e-27)
(1.25709 -0.0226083 -2.15143e-27)
(1.25445 -0.0227689 0)
(1.25173 -0.0228895 0)
(1.24896 -0.0229745 0)
(1.24619 -0.023027 0)
(1.24343 -0.0230494 0)
(1.24071 -0.0230438 0)
(1.23802 -0.0230123 0)
(1.23539 -0.0229564 0)
(1.23281 -0.0228775 0)
(1.23027 -0.0227769 0)
(1.22779 -0.0226556 0)
(1.22535 -0.0225144 0)
(1.22295 -0.0223541 0)
(1.22059 -0.0221753 0)
(1.21827 -0.0219787 1.67321e-27)
(1.21598 -0.021765 -1.67321e-27)
(1.21374 -0.0215349 0)
(1.21153 -0.0212891 0)
(1.20935 -0.0210283 0)
(1.20722 -0.0207531 0)
(1.20512 -0.0204642 0)
(1.20306 -0.0201624 0)
(1.20104 -0.0198483 0)
(1.19906 -0.0195225 0)
(1.19712 -0.0191856 0)
(1.19523 -0.0188383 0)
(1.19337 -0.018481 0)
(1.19156 -0.0181143 0)
(1.18979 -0.0177388 0)
(1.18806 -0.017355 0)
(1.18638 -0.0169633 0)
(1.18474 -0.0165641 0)
(1.18314 -0.016158 0)
(1.18159 -0.0157453 0)
(1.18008 -0.0153265 0)
(1.17862 -0.0149018 0)
(1.17721 -0.0144718 0)
(1.17583 -0.0140366 0)
(1.17451 -0.0135967 -3.01581e-11)
(1.17323 -0.0131523 3.01581e-11)
(1.17199 -0.0127037 0)
(1.1708 -0.0122512 0)
(1.16965 -0.0117951 0)
(1.16855 -0.0113356 0)
(1.1675 -0.010873 0)
(1.16649 -0.0104074 0)
(1.16553 -0.00993914 -1.17564e-27)
(1.16462 -0.00946834 1.17564e-27)
(1.16375 -0.00899521 0)
(1.16292 -0.00851993 0)
(1.16214 -0.00804266 0)
(1.16141 -0.00756357 0)
(1.16072 -0.00708281 0)
(1.16008 -0.00660052 0)
(1.15949 -0.00611683 0)
(1.15894 -0.00563188 0)
(1.15844 -0.00514579 0)
(1.15798 -0.00465868 0)
(1.15757 -0.00417065 0)
(1.1572 -0.00368182 0)
(1.15688 -0.00319227 0)
(1.15661 -0.00270212 0)
(1.15638 -0.00221146 0)
(1.1562 -0.00172041 0)
(1.15606 -0.00122906 0)
(1.15597 -0.000737538 0)
(1.15592 -0.000245876 0)
(1.12489 -0.00491501 0)
(1.16893 -0.00720002 0)