/*--------------------------------*- C++ -*----------------------------------*\
  =========                 |
  \\      /  F ield         | OpenFOAM: The Open Source CFD Toolbox
   \\    /   O peration     | Website:  https://openfoam.org
    \\  /    A nd           | Version:  7
     \\/     M anipulation  |
\*---------------------------------------------------------------------------*/
FoamFile
{
    version     2.0;
    format      ascii;
    class       surfaceScalarField;
    location    "110.001";
    object      phi;
}
// * * * * * * * * * * * * * * * * * * * * * * * * * * * * * * * * * * * * * //

dimensions      [0 3 -1 0 0 0 0];

internalField   nonuniform List<scalar> 
7273
(
-0.00216184
0.0130488
0.00237668
-0.00195863
0.0128085
-0.00177376
0.0125927
-0.00160485
0.0123955
-0.00145111
0.0122192
-0.00131141
0.0120632
-0.00118444
0.0119252
-0.00106894
0.0118036
-0.000963841
0.0116961
-0.00086816
0.011601
-0.000781038
0.0115164
-0.000701702
0.0114409
-0.000629452
0.0113733
-0.000563641
0.0113128
-0.00050367
0.0112586
-0.000448981
0.01121
-0.000399055
0.0111665
-0.00035341
0.0111276
-0.000311595
0.0110929
-0.000273188
0.0110622
-0.000237796
0.011035
-0.00020505
0.0110112
-0.000174601
0.0109905
-0.000146122
0.0109728
-0.0001193
0.0109578
-9.3838e-05
0.0109455
-6.94499e-05
0.0109358
-4.58603e-05
0.0109286
-2.28002e-05
0.0109238
0.0109214
-0.00251384
0.0127735
0.00278916
-0.00225999
0.0125547
-0.00203318
0.0123659
-0.00182901
0.0121913
-0.00164568
0.0120359
-0.00148088
0.0118984
-0.00133244
0.0117768
-0.00119853
0.0116696
-0.00107756
0.0115752
-0.000968118
0.0114916
-0.000869018
0.0114173
-0.000779211
0.0113511
-0.00069777
0.0112919
-0.000623863
0.0112389
-0.000556734
0.0111914
-0.000495696
0.0111489
-0.000440119
0.0111109
-0.000389425
0.0110769
-0.000343078
0.0110466
-0.000300587
0.0110197
-0.000261494
0.0109959
-0.000225374
0.0109751
-0.000191829
0.010957
-0.000160486
0.0109414
-0.000130992
0.0109283
-0.000103013
0.0109175
-7.62284e-05
0.010909
-5.03311e-05
0.0109027
-2.50211e-05
0.0108985
0.0108963
-0.00281874
0.0124494
0.00314278
-0.00252191
0.0122579
-0.00225897
0.012103
-0.00202434
0.0119567
-0.00181533
0.0118269
-0.00162856
0.0117116
-0.00146123
0.0116095
-0.00131105
0.0115195
-0.00117601
0.0114401
-0.00105438
0.0113699
-0.00094467
0.0113076
-0.000845614
0.011252
-0.000756081
0.0112023
-0.000675075
0.0111579
-0.000601699
0.011118
-0.000535146
0.0110824
-0.000474684
0.0110504
-0.000419646
0.0110219
-0.000369422
0.0109964
-0.000323453
0.0109737
-0.000281224
0.0109537
-0.000242259
0.0109361
-0.000206114
0.0109208
-0.000172377
0.0109077
-0.000140657
0.0108966
-0.000110589
0.0108875
-8.18203e-05
0.0108802
-5.40166e-05
0.0108749
-2.68509e-05
0.0108713
0.0108695
-0.00306504
0.01209
0.00342448
-0.00273501
0.0119278
-0.0024436
0.0118115
-0.00218469
0.0116978
-0.00195487
0.0115971
-0.00175005
0.0115068
-0.0015671
0.0114265
-0.00140338
0.0113557
-0.00125658
0.0112933
-0.00112472
0.0112381
-0.00100613
0.011189
-0.000899324
0.0111452
-0.000803036
0.011106
-0.000716124
0.011071
-0.000637576
0.0110395
-0.000566482
0.0110113
-0.00050202
0.010986
-0.000443449
0.0109633
-0.00039009
0.010943
-0.000341329
0.010925
-0.000296598
0.010909
-0.000255376
0.0108949
-0.000217183
0.0108826
-0.000181569
0.0108721
-0.000148114
0.0108631
-0.000116424
0.0108558
-8.61224e-05
0.0108499
-5.68494e-05
0.0108456
-2.82565e-05
0.0108427
0.0108412
-0.00324603
0.0117076
0.00362838
-0.00289344
0.0115752
-0.00258215
0.0115002
-0.00230589
0.0114216
-0.00206065
0.0113519
-0.0018422
0.0112883
-0.00164731
0.0112316
-0.00147314
0.0111816
-0.00131721
0.0111374
-0.00117739
0.0110983
-0.00105187
0.0110635
-0.000939045
0.0110324
-0.000837521
0.0110045
-0.000746058
0.0109795
-0.000663549
0.010957
-0.000589004
0.0109367
-0.00052153
0.0109185
-0.000460321
0.0109021
-0.000404647
0.0108873
-0.000353843
0.0108742
-0.000307301
0.0108624
-0.000264463
0.0108521
-0.000224816
0.010843
-0.000187883
0.0108351
-0.00015322
0.0108285
-0.000120409
0.010823
-8.90535e-05
0.0108186
-5.87766e-05
0.0108153
-2.92118e-05
0.0108131
0.010812
-0.00335949
0.011313
0.00375419
-0.00299478
0.0112105
-0.00267223
0.0111777
-0.00238553
0.0111349
-0.00213043
0.0110968
-0.00190296
0.0110608
-0.0017
0.0110287
-0.00151866
0.0110002
-0.00135641
0.0109751
-0.00121107
0.0109529
-0.00108075
0.0109331
-0.000963775
0.0109154
-0.00085867
0.0108994
-0.000764127
0.010885
-0.000678974
0.0108718
-0.000602161
0.0108599
-0.000532741
0.0108491
-0.000469863
0.0108392
-0.000412752
0.0108302
-0.000360708
0.0108221
-0.000313091
0.0108148
-0.000269317
0.0108083
-0.000228847
0.0108025
-0.000191184
0.0107975
-0.000155866
0.0107932
-0.000122459
0.0107896
-9.05534e-05
0.0107867
-5.97588e-05
0.0107845
-2.96974e-05
0.0107831
0.0107823
-0.00340702
0.0109144
0.00380554
-0.00303968
0.0108432
-0.00271364
0.0108517
-0.00242284
0.0108441
-0.00216318
0.0108371
-0.00193124
0.0108289
-0.00172408
0.0108215
-0.00153889
0.0108151
-0.00137321
0.0108095
-0.00122487
0.0108046
-0.00109197
0.0108002
-0.000972802
0.0107962
-0.000865859
0.0107925
-0.00076979
0.0107889
-0.000683384
0.0107854
-0.000605552
0.0107821
-0.000535314
0.0107788
-0.000471784
0.0107757
-0.000414161
0.0107726
-0.000361721
0.0107697
-0.000313801
0.0107669
-0.000269799
0.0107643
-0.000229163
0.0107619
-0.000191381
0.0107597
-0.000155981
0.0107578
-0.000122521
0.0107561
-9.0583e-05
0.0107547
-5.97706e-05
0.0107537
-2.97009e-05
0.010753
0.0107526
-0.00339291
0.0105188
0.00378849
-0.00303101
0.0104813
-0.00270782
0.0105285
-0.00241837
0.0105546
-0.00215896
0.0105777
-0.00192681
0.0105968
-0.00171914
0.0106138
-0.00153335
0.0106293
-0.0013671
0.0106432
-0.0012183
0.0106558
-0.00108506
0.010667
-0.0009657
0.0106769
-0.000858706
0.0106855
-0.000762712
0.0106929
-0.00067649
0.0106992
-0.000598933
0.0107045
-0.000529042
0.0107089
-0.000465915
0.0107125
-0.000408737
0.0107154
-0.000356769
0.0107177
-0.00030934
0.0107195
-0.00026584
0.0107208
-0.000225708
0.0107218
-0.000188431
0.0107224
-0.000153534
0.0107229
-0.000120571
0.0107231
-8.91256e-05
0.0107233
-5.88017e-05
0.0107234
-2.92172e-05
0.0107234
0.0107234
-0.00332328
0.0101319
0.00371023
-0.00297282
0.0101308
-0.0026573
0.010213
-0.00237367
0.010271
-0.0021187
0.0103227
-0.00189012
0.0103682
-0.00168536
0.0104091
-0.00150205
0.0104459
-0.00133799
0.0104792
-0.00119121
0.010509
-0.00105986
0.0105357
-0.000942318
0.0105593
-0.000837074
0.0105802
-0.000742775
0.0105986
-0.000658196
0.0106146
-0.000582228
0.0106286
-0.000513869
0.0106406
-0.000452217
0.0106509
-0.000396453
0.0106597
-0.000345838
0.0106671
-0.000299704
0.0106733
-0.000257439
0.0106785
-0.000218489
0.0106828
-0.000182344
0.0106863
-0.000148533
0.0106891
-0.000116618
0.0106912
-8.61897e-05
0.0106929
-5.6858e-05
0.0106941
-2.82493e-05
0.0106948
0.0106952
-0.00320437
0.00975807
0.00357819
-0.0028692
0.00979566
-0.00256498
0.00990874
-0.00229081
0.00999679
-0.00204384
0.0100757
-0.00182215
0.0101465
-0.0016234
0.0102103
-0.00144542
0.010268
-0.00128619
0.0103199
-0.00114381
0.0103666
-0.00101654
0.0104084
-0.000902777
0.0104456
-0.000801067
0.0104785
-0.000710074
0.0105076
-0.000628592
0.0105331
-0.000555525
0.0105555
-0.000489885
0.0105749
-0.000430778
0.0105918
-0.000377398
0.0106063
-0.000329017
0.0106187
-0.000284975
0.0106293
-0.000244677
0.0106382
-0.000207578
0.0106457
-0.000173183
0.0106519
-0.000141034
0.0106569
-0.000110708
0.0106609
-8.18094e-05
0.010664
-5.39626e-05
0.0106662
-2.68089e-05
0.0106677
0.0106684
-0.0030413
0.0094005
0.00339887
-0.00272395
0.0094783
-0.00243374
0.00961854
-0.00217196
0.00973501
-0.00193603
0.00983981
-0.00172415
0.0099346
-0.00153422
0.0100204
-0.00136423
0.010098
-0.00121229
0.010168
-0.00107661
0.0102309
-0.000955505
0.0102873
-0.000847445
0.0103375
-0.000751012
0.0103821
-0.000664908
0.0104215
-0.000587955
0.0104562
-0.000519085
0.0104866
-0.000457333
0.0105132
-0.000401826
0.0105363
-0.000351782
0.0105562
-0.000306496
0.0105734
-0.00026533
0.0105881
-0.00022771
0.0106006
-0.000193114
0.0106111
-0.000161068
0.0106198
-0.000131138
0.010627
-0.000102922
0.0106327
-7.60457e-05
0.0106371
-5.01563e-05
0.0106403
-2.49165e-05
0.0106424
0.0106434
-0.00283788
0.00906089
0.00317749
-0.00254005
0.00918048
-0.00226621
0.0093447
-0.00201926
0.00948806
-0.00179696
0.00961751
-0.00159753
0.00973517
-0.00141898
0.00984185
-0.00125946
0.00993846
-0.00111715
0.0100257
-0.000990334
0.0101041
-0.000877418
0.0101744
-0.000776915
0.010237
-0.000687452
0.0102926
-0.000607776
0.0103418
-0.000536747
0.0103852
-0.000473331
0.0104232
-0.0004166
0.0104564
-0.000365717
0.0104854
-0.000319933
0.0105105
-0.000278574
0.0105321
-0.000241035
0.0105506
-0.000206774
0.0105663
-0.000175302
0.0105796
-0.000146177
0.0105907
-0.000118992
0.0105998
-9.33767e-05
0.0106071
-6.89864e-05
0.0106127
-4.54975e-05
0.0106168
-2.26013e-05
0.0106195
0.0106208
-0.00259712
0.00873984
0.00291816
-0.00231944
0.00890281
-0.00206435
0.00908961
-0.00183457
0.00925828
-0.0016283
0.00941124
-0.00144372
0.00955059
-0.00127897
0.0096771
-0.00113225
0.00979173
-0.00100179
0.00989522
-0.000885941
0.00998827
-0.000783154
0.0100716
-0.000691989
0.0101458
-0.000611127
0.0102118
-0.000539361
0.0102701
-0.000475598
0.0103214
-0.000418846
0.0103665
-0.000368225
0.0104058
-0.000322944
0.0104401
-0.000282296
0.0104698
-0.00024565
0.0104954
-0.000212446
0.0105174
-0.000182186
0.0105361
-0.000154419
0.0105519
-0.000128741
0.010565
-0.000104788
0.0105758
-8.22257e-05
0.0105845
-6.07462e-05
0.0105912
-4.00625e-05
0.0105961
-1.99012e-05
0.0105994
0.0106009
-0.00232207
0.00843922
0.00262269
-0.00206432
0.00864506
-0.0018298
0.00885509
-0.0016194
0.00904788
-0.00143151
0.00922335
-0.00126416
0.00938324
-0.00111556
0.0095285
-0.00098389
0.00966006
-0.000867426
0.00977876
-0.000764556
0.0098854
-0.000673765
0.00998079
-0.000593658
0.0100657
-0.000522964
0.0101411
-0.000460527
0.0102076
-0.000405304
0.0102662
-0.000356371
0.0103175
-0.000312889
0.0103623
-0.000274126
0.0104013
-0.000239427
0.0104351
-0.000208229
0.0104642
-0.000180014
0.0104892
-0.000154337
0.0105104
-0.000130801
0.0105283
-0.000109049
0.0105433
-8.87635e-05
0.0105556
-6.96565e-05
0.0105654
-5.14655e-05
0.010573
-3.39444e-05
0.0105786
-1.6863e-05
0.0105823
0.0105841
-0.00201383
0.00816196
0.00229109
-0.00177717
0.0084084
-0.00156453
0.00864245
-0.0013754
0.00885875
-0.00120807
0.00905603
-0.00106031
0.00923547
-0.000930157
0.00939835
-0.000815768
0.00954567
-0.000715416
0.00967841
-0.000627488
0.00979747
-0.0005505
0.0099038
-0.000483108
0.00999834
-0.000424083
0.010082
-0.000372323
0.0101559
-0.00032685
0.0102207
-0.000286792
0.0102775
-0.000251401
0.010327
-0.000219999
0.0103699
-0.00019201
0.0104071
-0.000166908
0.0104391
-0.000144268
0.0104665
-0.000123696
0.0104898
-0.000104853
0.0105095
-8.74415e-05
0.0105259
-7.1201e-05
0.0105393
-5.58944e-05
0.0105501
-4.13097e-05
0.0105585
-2.72531e-05
0.0105646
-1.35403e-05
0.0105686
0.0105705
-0.00167136
0.00790384
0.00192948
-0.00145841
0.00819545
-0.00126996
0.008454
-0.00110428
0.00869307
-0.000959591
0.00891133
-0.000833695
0.00910958
-0.000724283
0.00928894
-0.000629425
0.00945081
-0.000547292
0.00959627
-0.00047623
0.00972641
-0.000414802
0.00984237
-0.000361718
0.00994526
-0.000315781
0.0100361
-0.000275964
0.010116
-0.000241359
0.0101861
-0.000211184
0.0102473
-0.000184743
0.0103005
-0.000161455
0.0103467
-0.000140815
0.0103865
-0.000122399
0.0104207
-0.000105834
0.01045
-9.08027e-05
0.0104748
-7.70362e-05
0.0104957
-6.43087e-05
0.0105131
-5.24179e-05
0.0105274
-4.11899e-05
0.0105389
-3.04691e-05
0.0105477
-2.01126e-05
0.0105542
-9.99689e-06
0.0105584
0.0105605
-0.00129978
0.00764576
0.00155786
-0.00110744
0.00800311
-0.000945477
0.00829204
-0.000806854
0.00855445
-0.000687557
0.00879204
-0.000585955
0.00900797
-0.000499711
0.0092027
-0.000426639
0.00937774
-0.000364757
0.00953439
-0.000312484
0.00967414
-0.000268365
0.00979825
-0.000231082
0.00990797
-0.000199569
0.0100046
-0.000172865
0.0100893
-0.000150153
0.0101634
-0.000130728
0.0102279
-0.000113997
0.0102838
-9.94757e-05
0.0103321
-8.67542e-05
0.0103738
-7.54866e-05
0.0104094
-6.54019e-05
0.0104399
-5.62552e-05
0.0104657
-4.78764e-05
0.0104873
-4.0096e-05
0.0105054
-3.27847e-05
0.0105201
-2.58324e-05
0.0105319
-1.91498e-05
0.0105411
-1.26651e-05
0.0105477
-6.30153e-06
0.0105521
0.0105542
-0.000918585
0.0073646
0.00119975
-0.000730468
0.007815
-0.000591892
0.00815346
-0.000482793
0.00844535
-0.000392704
0.00870195
-0.000318546
0.00893382
-0.000258227
0.00914238
-0.000209251
0.00932877
-0.000169812
0.00949495
-0.000138212
0.00964254
-0.000112999
0.00977304
-9.29974e-05
0.00988797
-7.71669e-05
0.00998877
-6.46477e-05
0.0100768
-5.4717e-05
0.0101535
-4.67917e-05
0.0102199
-4.04101e-05
0.0102774
-3.51812e-05
0.0103269
-3.08018e-05
0.0103694
-2.70592e-05
0.0104057
-2.37443e-05
0.0104366
-2.07522e-05
0.0104627
-1.79536e-05
0.0104845
-1.52804e-05
0.0105027
-1.26813e-05
0.0105175
-1.0126e-05
0.0105294
-7.59087e-06
0.0105385
-5.05822e-06
0.0105452
-2.52864e-06
0.0105496
0.0105517
-0.000552465
0.00706141
0.000855649
-0.000345349
0.00760788
-0.000218229
0.00802634
-0.000134469
0.00836159
-7.62899e-05
0.00864377
-3.32254e-05
0.00889075
-1.43897e-06
0.00911059
2.08382e-05
0.00930649
3.56045e-05
0.00948019
4.45829e-05
0.00963356
4.91689e-05
0.00976845
5.05065e-05
0.00988663
4.95076e-05
0.00998976
4.69065e-05
0.0100794
4.32766e-05
0.0101571
3.90641e-05
0.0102241
3.46083e-05
0.0102819
3.01505e-05
0.0103314
2.58622e-05
0.0103737
2.18641e-05
0.0104097
1.82139e-05
0.0104402
1.49553e-05
0.0104659
1.20838e-05
0.0104874
9.58446e-06
0.0105052
7.42575e-06
0.0105197
5.56589e-06
0.0105312
3.95325e-06
0.0105401
2.52865e-06
0.0105466
1.23284e-06
0.0105509
0.0105529
-0.000208725
0.00677789
0.000492245
2.54049e-05
0.00737375
0.000161746
0.00789
0.000229719
0.00829362
0.000259149
0.00861434
0.00026914
0.00888076
0.000268434
0.0091113
0.000260912
0.00931401
0.000248611
0.00949249
0.00023307
0.0096491
0.000215539
0.00978598
0.000197002
0.00990517
0.000178215
0.0100086
0.00015974
0.0100979
0.000141981
0.0101748
0.000125211
0.0102409
0.000109602
0.0102975
9.52427e-05
0.0103457
8.21571e-05
0.0103868
7.03234e-05
0.0104215
5.96826e-05
0.0104509
5.01511e-05
0.0104755
4.16274e-05
0.0104959
3.3998e-05
0.0105128
2.7142e-05
0.0105265
2.0934e-05
0.0105374
1.52457e-05
0.0105458
9.94747e-06
0.0105519
4.90947e-06
0.0105559
0.0105578
0.000147063
0.00657389
5.69403e-05
0.000370925
0.00714989
0.000523856
0.00773707
0.000591944
0.00822553
0.000601538
0.00860474
0.000580771
0.00890153
0.000546778
0.00914529
0.000507401
0.00935339
0.000465979
0.00953391
0.000424218
0.00969086
0.000383229
0.00982697
0.000343797
0.0099446
0.000306467
0.0100459
0.000271583
0.0101328
0.000239333
0.0102071
0.000209785
0.0102705
0.000182914
0.0103243
0.000158624
0.01037
0.000136773
0.0104086
0.000117186
0.0104411
9.96641e-05
0.0104684
8.39986e-05
0.0104911
6.99747e-05
0.01051
5.73765e-05
0.0105254
4.59902e-05
0.0105379
3.56054e-05
0.0105478
2.60152e-05
0.0105554
1.7017e-05
0.0105609
8.41145e-06
0.0105645
0.0105663
0.000544465
0.00648448
-0.000455058
0.000711488
0.00698287
0.000862537
0.00758602
0.000937852
0.00815021
0.000939138
0.00860346
0.000894139
0.00894653
0.000828267
0.00921116
0.000756033
0.00942562
0.000683896
0.00960605
0.00061448
0.00976028
0.000548938
0.00989252
0.000487849
0.0100057
0.00043149
0.0101022
0.000379932
0.0101843
0.000333097
0.0102539
0.000290803
0.0103128
0.000252793
0.0103623
0.000218764
0.010404
0.000188381
0.010439
0.000161301
0.0104682
0.000137175
0.0104925
0.00011566
0.0105126
9.64217e-05
0.0105292
7.91387e-05
0.0105427
6.35021e-05
0.0105535
4.92155e-05
0.0105621
3.59938e-05
0.0105686
2.35617e-05
0.0105733
1.16517e-05
0.0105764
0.0105779
0.000997741
0.00653785
-0.00105111
0.00106808
0.00691253
0.00118591
0.00746819
0.00126156
0.00807457
0.0012613
0.00860371
0.00119977
0.00900806
0.00110583
0.00930511
0.00100135
0.0095301
0.000897747
0.00970965
0.000799722
0.0098583
0.000708906
0.00998333
0.000625749
0.0100888
0.000550224
0.0101778
0.000482063
0.0102525
0.000420867
0.0103151
0.000366157
0.0103675
0.000317406
0.0104111
0.000274072
0.0104474
0.000235613
0.0104775
0.000201499
0.0105023
0.000171221
0.0105228
0.000144296
0.0105396
0.000120269
0.0105532
9.87105e-05
0.0105643
7.92166e-05
0.010573
6.14067e-05
0.0105799
4.49195e-05
0.0105851
2.94099e-05
0.0105889
1.45454e-05
0.0105913
0.0105925
0.00150505
0.00671454
-0.00168174
0.00146151
0.00695608
0.00151334
0.00741636
0.00156913
0.00801877
0.00156411
0.00860874
0.00149025
0.00908191
0.00137222
0.00942313
0.00123716
0.00966517
0.00110221
0.0098446
0.000975231
0.00998528
0.000858909
0.0100997
0.000753725
0.010194
0.000659326
0.0102722
0.000575047
0.0103368
0.000500099
0.0103901
0.000433647
0.0104339
0.000374862
0.0104699
0.000322934
0.0104993
0.000277092
0.0105233
0.000236613
0.0105428
0.000200819
0.0105586
0.000169087
0.0105713
0.000140838
0.0105815
0.000115537
0.0105896
9.26909e-05
0.0105959
7.18371e-05
0.0106008
5.2543e-05
0.0106044
3.43989e-05
0.010607
1.70121e-05
0.0106087
0.0106095
0.00204271
0.00697472
-0.00230289
0.00189604
0.00710276
0.0018628
0.00744959
0.00187398
0.00800759
0.00185078
0.00863194
0.00176189
0.0091708
0.00162117
0.00956385
0.00145695
0.00982938
0.0012913
0.0100102
0.00113566
0.0101409
0.000994216
0.0102411
0.000867629
0.0103206
0.000755201
0.0103846
0.00065579
0.0104362
0.000568145
0.0104777
0.000491027
0.010511
0.000423261
0.0105377
0.000363748
0.0105588
0.000311475
0.0105756
0.000265517
0.0105888
0.000225033
0.0105991
0.000189255
0.0106071
0.00015749
0.0106132
0.000129103
0.0106179
0.000103515
0.0106215
8.01914e-05
0.0106241
5.86352e-05
0.010626
3.83793e-05
0.0106273
1.89782e-05
0.0106281
0.0106284
0.00258479
0.00727589
-0.00288596
0.00236225
0.00732529
0.00224243
0.00756941
0.00218842
0.0080616
0.00212754
0.00869281
0.00201349
0.00928486
0.00184708
0.00973026
0.00165373
0.0100227
0.00145818
0.0102058
0.00127489
0.0103242
0.00110952
0.0104065
0.000962931
0.0104672
0.000834019
0.0105135
0.00072108
0.0105491
0.000622327
0.0105765
0.000536068
0.0105973
0.000460754
0.010613
0.000394982
0.0106246
0.000337495
0.0106331
0.000287169
0.0106391
0.000243002
0.0106432
0.000204098
0.010646
0.000169654
0.0106477
0.000138948
0.0106486
0.000111327
0.0106491
8.61928e-05
0.0106492
6.29961e-05
0.0106492
4.12211e-05
0.010649
2.03797e-05
0.0106489
0.0106488
0.00311461
0.00758611
-0.00342484
0.00284457
0.00759533
0.00264748
0.00776651
0.00251565
0.00819343
0.00239679
0.00881167
0.0022425
0.00943915
0.00204338
0.00992938
0.00181933
0.0102468
0.00159485
0.0104303
0.00138587
0.0105332
0.00119891
0.0105934
0.00103476
0.0106313
0.00089181
0.0106565
0.000767689
0.0106732
0.000660029
0.0106841
0.000566652
0.0106907
0.000485623
0.010694
0.000415244
0.010695
0.000354021
0.0106943
0.000300651
0.0106924
0.000253985
0.0106899
0.000213015
0.0106869
0.000176848
0.0106839
0.000144689
0.0106808
0.000115827
0.010678
8.96154e-05
0.0106754
6.54625e-05
0.0106733
4.28189e-05
0.0106717
2.11647e-05
0.0106706
0.01067
0.00362471
0.00789078
-0.00392938
0.00332457
0.00789547
0.00306015
0.00803092
0.00284452
0.00840907
0.00265107
0.00900512
0.0024409
0.00964932
0.00220048
0.0101698
0.0019437
0.0105036
0.00169207
0.0106819
0.00146078
0.0107645
0.00125604
0.0107982
0.00107812
0.0108093
0.000924641
0.0108099
0.000792542
0.0108053
0.000678838
0.0107978
0.000580882
0.0107886
0.000496378
0.0107785
0.000423357
0.010768
0.000360125
0.0107575
0.000305224
0.0107473
0.000257396
0.0107377
0.000215544
0.0107288
0.000178707
0.0107207
0.000146042
0.0107135
0.000116796
0.0107072
9.02928e-05
0.0107019
6.59166e-05
0.0106977
4.30967e-05
0.0106945
2.12963e-05
0.0106924
0.0106913
0.00410556
0.00819394
-0.00440872
0.0037769
0.00822413
0.00344941
0.00835842
0.00314849
0.00870999
0.00287073
0.00928288
0.00259335
0.0099267
0.00230511
0.010458
0.00201503
0.0107937
0.00173977
0.0109572
0.00149149
0.0110128
0.00127463
0.011015
0.00108822
0.0109957
0.000928939
0.0109692
0.000792968
0.0109413
0.000676763
0.010914
0.000577263
0.0108881
0.000491889
0.0108639
0.000418462
0.0108414
0.000355152
0.0108208
0.000300394
0.0108021
0.000252857
0.0107853
0.000211392
0.0107703
0.000175008
0.0107571
0.000142833
0.0107456
0.000114105
0.0107359
8.81325e-05
0.0107279
6.42935e-05
0.0107215
4.20137e-05
0.0107168
2.07543e-05
0.0107136
0.010712
0.00453007
0.00851437
-0.0048505
0.00416283
0.00859137
0.0037727
0.00874854
0.00338981
0.00909288
0.00302669
0.00964599
0.00267838
0.010275
0.00234085
0.0107956
0.00202043
0.0111141
0.00172789
0.0112497
0.00147043
0.0112702
0.00124916
0.0112363
0.00106116
0.0111837
0.000901953
0.0111284
0.000767024
0.0110762
0.000652426
0.0110286
0.000554832
0.0109857
0.000471486
0.0109472
0.000400106
0.0109128
0.000338788
0.0108821
0.000285944
0.0108549
0.00024022
0.010831
0.000200463
0.01081
0.000165686
0.0107919
0.00013503
0.0107763
0.000107732
0.0107632
8.31213e-05
0.0107525
6.05859e-05
0.0107441
3.95661e-05
0.0107378
1.95378e-05
0.0107336
0.0107316
0.00484616
0.00887422
-0.00520601
0.00443156
0.00900597
0.00398275
0.00919736
0.00352671
0.00954891
0.00308514
0.0100876
0.00267056
0.0106896
0.00228934
0.0111768
0.00194689
0.0114565
0.00164756
0.011549
0.0013917
0.0115261
0.00117583
0.0114522
0.000994534
0.011365
0.000842203
0.0112808
0.000713873
0.0112046
0.000605394
0.0111371
0.000513394
0.0110777
0.000435115
0.0110255
0.000368312
0.0109796
0.000311122
0.0109393
0.000261983
0.0109041
0.000219605
0.0108734
0.000182885
0.0108467
0.000150869
0.0108239
0.000122735
0.0108044
9.77693e-05
0.0107882
7.53321e-05
0.010775
5.48484e-05
0.0107645
3.57907e-05
0.0107568
1.76647e-05
0.0107518
0.0107492
0.00499047
0.00928066
-0.00539691
0.00453272
0.00946372
0.00403522
0.00969486
0.00351743
0.0100667
0.00300968
0.0105953
0.00254218
0.0111571
0.00213192
0.011587
0.00178335
0.0118051
0.00149283
0.0118396
0.00125252
0.0117664
0.00105359
0.0116511
0.000888186
0.0115304
0.000750017
0.0114189
0.00063403
0.0113206
0.000536281
0.0112349
0.00045358
0.0111604
0.000383402
0.0110957
0.000323669
0.0110393
0.000272665
0.0109903
0.000228989
0.0109478
0.000191439
0.0109109
0.000159008
0.0108792
0.000130845
0.010852
0.000106195
0.0108291
8.44158e-05
0.01081
6.49244e-05
0.0107945
4.72002e-05
0.0107823
3.07655e-05
0.0107733
1.5174e-05
0.0107674
0.0107644
0.00491167
0.00971859
-0.0053496
0.00442259
0.0099528
0.00388533
0.0102321
0.00331747
0.0106346
0.00276291
0.0111499
0.00226742
0.0116526
0.00185476
0.0119997
0.00152499
0.0121349
0.00126399
0.0121005
0.00105519
0.0119752
0.000885234
0.0118211
0.000744886
0.0116707
0.000627833
0.011536
0.000529669
0.0114187
0.000446921
0.0113176
0.000376986
0.0112304
0.000317717
0.0111549
0.000267329
0.0110897
0.000224426
0.0110332
0.000187785
0.0109844
0.000156396
0.0109423
0.000129416
0.0109062
0.000106091
0.0108754
8.58073e-05
0.0108494
6.79886e-05
0.0108278
5.21412e-05
0.0108103
3.78171e-05
0.0107966
2.46062e-05
0.0107865
1.21235e-05
0.0107798
0.0107765
0.00456685
0.0101744
-0.00502261
0.00405222
0.0104674
0.00348196
0.0108024
0.00288367
0.0112328
0.00231682
0.0117167
0.00183463
0.0121348
0.00145895
0.0123754
0.00117912
0.0124147
0.00097005
0.0123096
0.000808121
0.0121371
0.000677841
0.0119513
0.000570275
0.0117783
0.000480294
0.011626
0.000404454
0.0114946
0.000340355
0.0113817
0.000286073
0.0112846
0.000240022
0.011201
0.000200965
0.0111288
0.000167752
0.0110664
0.000139495
0.0110127
0.000115441
0.0109664
9.48881e-05
0.0109267
7.7278e-05
0.010893
6.20968e-05
0.0108646
4.89029e-05
0.010841
3.73019e-05
0.0108219
2.69343e-05
0.010807
1.74661e-05
0.010796
8.5859e-06
0.0107887
0.0107851
0.00390173
0.0106543
-0.00438165
0.00336978
0.0109994
0.00278787
0.0113843
0.00220121
0.0118195
0.00167655
0.0122414
0.00126281
0.0125485
0.000968365
0.0126698
0.000768562
0.0126145
0.000629325
0.0124489
0.000525427
0.012241
0.000442209
0.0120346
0.000372796
0.0118477
0.000313807
0.0116849
0.000263493
0.0115449
0.000220636
0.0114246
0.000184075
0.0113212
0.000153031
0.011232
0.000126688
0.0111551
0.000104415
0.0110887
8.56097e-05
0.0110315
6.97432e-05
0.0109822
5.63963e-05
0.0109401
4.51672e-05
0.0109042
3.56876e-05
0.010874
2.76608e-05
0.010849
2.07958e-05
0.0108288
1.48314e-05
0.0108129
9.52719e-06
0.0108013
4.65614e-06
0.0107936
0.0107898
0.00288433
0.011148
-0.00337804
0.00236686
0.0115168
0.00182286
0.0119283
0.00131421
0.0123281
0.000898473
0.0126571
0.000606642
0.0128404
0.000428077
0.0128484
0.000326509
0.0127161
0.000266433
0.0125089
0.000224776
0.0122827
0.000191255
0.0120681
0.00016197
0.011877
0.00013586
0.0117111
0.000112651
0.0115681
9.22506e-05
0.011445
7.46968e-05
0.0113388
5.96601e-05
0.0112471
4.69748e-05
0.0111678
3.63999e-05
0.0110993
2.77058e-05
0.0110402
2.06637e-05
0.0109893
1.50477e-05
0.0109457
1.06541e-05
0.0109086
7.31839e-06
0.0108774
4.83951e-06
0.0108515
3.06004e-06
0.0108305
1.82718e-06
0.0108142
9.97152e-07
0.0108021
4.32114e-07
0.0107942
0.0107902
0.00157928
0.011593
-0.00202435
0.00112918
0.011967
0.000697491
0.01236
0.000332383
0.0126933
7.80136e-05
0.0129115
-5.97364e-05
0.0129781
-0.000108882
0.0128975
-0.000109576
0.0127168
-9.27764e-05
0.0124921
-7.44462e-05
0.0122644
-6.02665e-05
0.0120539
-5.07619e-05
0.0118675
-4.4865e-05
0.0117052
-4.13286e-05
0.0115646
-3.91728e-05
0.0114428
-3.7764e-05
0.0113373
-3.65961e-05
0.0112459
-3.53967e-05
0.0111666
-3.40004e-05
0.0110979
-3.23108e-05
0.0110385
-3.02832e-05
0.0109872
-2.79094e-05
0.0109433
-2.52008e-05
0.0109059
-2.21938e-05
0.0108744
-1.89153e-05
0.0108482
-1.54088e-05
0.010827
-1.17183e-05
0.0108105
-7.88941e-06
0.0107983
-3.96828e-06
0.0107902
0.0107862
0.000164843
0.0118975
-0.000469289
-0.000167308
0.0122991
-0.000437378
0.0126301
-0.00061444
0.0128703
-0.000686662
0.0129837
-0.000670219
0.0129617
-0.000600812
0.0128281
-0.000513516
0.0126295
-0.000430198
0.0124088
-0.000359627
0.0121938
-0.000302878
0.0119971
-0.000257954
0.0118226
-0.000222247
0.0116695
-0.000193464
0.0115358
-0.000169824
0.0114192
-0.000150003
0.0113175
-0.000133024
0.0112289
-0.000118177
0.0111518
-0.000104935
0.0110847
-9.29089e-05
0.0110264
-8.18103e-05
0.0109761
-7.14202e-05
0.0109329
-6.15746e-05
0.010896
-5.21476e-05
0.0108649
-4.30399e-05
0.0108391
-3.41738e-05
0.0108182
-2.54862e-05
0.0108018
-1.69245e-05
0.0107897
-8.44313e-06
0.0107818
0.0107778
-0.00121136
0.012085
0.0010238
-0.00135531
0.0124431
-0.00142981
0.0127045
-0.00141743
0.0128579
-0.00132648
0.0128928
-0.0011835
0.0128187
-0.00102193
0.0126666
-0.000867328
0.0124749
-0.000732286
0.0122738
-0.000619667
0.0120812
-0.000527459
0.0119049
-0.000452119
0.0117472
-0.000390157
0.0116075
-0.000338663
0.0114843
-0.000295354
0.0113759
-0.00025847
0.0112806
-0.000226653
0.0111971
-0.000198869
0.011124
-0.000174307
0.0110601
-0.000152337
0.0110045
-0.000132457
0.0109563
-0.000114267
0.0109147
-9.74459e-05
0.0108792
-8.1726e-05
0.0108492
-6.68857e-05
0.0108243
-5.2736e-05
0.010804
-3.91128e-05
0.0107882
-2.58703e-05
0.0107765
-1.28747e-05
0.0107688
0.0107649
-0.00232384
0.0121146
0.0022943
-0.00229636
0.0124156
-0.00219624
0.0126044
-0.00202965
0.0126914
-0.00181751
0.0126806
-0.00158691
0.0125881
-0.00136372
0.0124434
-0.00116353
0.0122747
-0.000991856
0.0121021
-0.000847838
0.0119371
-0.000727872
0.011785
-0.000627798
0.0116471
-0.00054383
0.0115235
-0.000472828
0.0114133
-0.000412275
0.0113153
-0.000360174
0.0112285
-0.000314941
0.0111519
-0.000275317
0.0110844
-0.00024029
0.0110251
-0.000209046
0.0109732
-0.000180919
0.0109281
-0.000155359
0.0108892
-0.000131911
0.0108558
-0.000110187
0.0108275
-8.98579e-05
0.0108039
-7.06347e-05
0.0107848
-5.22614e-05
0.0107698
-3.45062e-05
0.0107587
-1.7154e-05
0.0107514
0.0107478
-0.00312665
0.0120068
0.0032344
-0.00295323
0.0122422
-0.0027232
0.0123744
-0.00245397
0.0124221
-0.0021678
0.0123944
-0.00188714
0.0123074
-0.00162922
0.0121854
-0.00140207
0.0120475
-0.00120691
0.0119069
-0.00104115
0.0117714
-0.000900744
0.0116446
-0.000781594
0.011528
-0.000680032
0.011422
-0.000592979
0.0113262
-0.000517902
0.0112402
-0.000452735
0.0111634
-0.000395791
0.0110949
-0.000345691
0.0110342
-0.000301298
0.0109807
-0.000261672
0.0109336
-0.000226028
0.0108925
-0.000193704
0.0108568
-0.000164137
0.0108262
-0.000136844
0.0108002
-0.000111403
0.0107785
-8.74382e-05
0.0107608
-6.46148e-05
0.010747
-4.26241e-05
0.0107367
-2.11778e-05
0.01073
0.0107266
-0.00362635
0.011794
0.00383919
-0.00335309
0.0119689
-0.00304571
0.012067
-0.00272237
0.0120988
-0.00240155
0.0120736
-0.00209974
0.0120056
-0.00182706
0.0119128
-0.00158697
0.0118074
-0.0013787
0.0116987
-0.00119923
0.0115919
-0.00104481
0.0114902
-0.000911785
0.011395
-0.00079685
0.011307
-0.000697173
0.0112265
-0.000610359
0.0111534
-0.000534395
0.0110874
-0.000467596
0.0110281
-0.000408542
0.0109752
-0.000356041
0.0109282
-0.000309079
0.0108866
-0.000266796
0.0108502
-0.000228452
0.0108185
-0.000193406
0.0107912
-0.000161097
0.0107679
-0.000131031
0.0107484
-0.000102764
0.0107326
-7.58906e-05
0.0107201
-5.00378e-05
0.0107109
-2.48537e-05
0.0107048
0.0107017
-0.00388161
0.011514
0.00416159
-0.00355573
0.011643
-0.00321541
0.0117267
-0.00287407
0.0117574
-0.00254575
0.0117453
-0.00224169
0.0117015
-0.00196735
0.0116384
-0.00172397
0.0115641
-0.00151021
0.0114849
-0.00132335
0.011405
-0.00116026
0.0113271
-0.00101787
0.0112526
-0.000893378
0.0111825
-0.000784288
0.0111175
-0.00068843
0.0110576
-0.000603929
0.0110029
-0.000529168
0.0109534
-0.000462756
0.0109088
-0.000403494
0.0108689
-0.000350342
0.0108335
-0.000302401
0.0108023
-0.000258882
0.010775
-0.000219094
0.0107514
-0.000182422
0.0107312
-0.000148314
0.0107143
-0.000116272
0.0107005
-8.58369e-05
0.0106897
-5.6581e-05
0.0106816
-2.8099e-05
0.0106763
0.0106736
-0.00396554
0.0112016
0.00427797
-0.00362412
0.0113016
-0.00328057
0.0113832
-0.00294356
0.0114204
-0.00262358
0.0114253
-0.00232798
0.0114059
-0.00205971
0.0113702
-0.00181923
0.0113236
-0.0016053
0.011271
-0.00141578
0.0112155
-0.00124826
0.0111595
-0.00110029
0.0111046
-0.000969546
0.0110518
-0.000853923
0.0110018
-0.000751514
0.0109552
-0.000660623
0.010912
-0.00057975
0.0108725
-0.000507573
0.0108366
-0.000442924
0.0108043
-0.000384775
0.0107753
-0.000332214
0.0107497
-0.000284434
0.0107272
-0.000240712
0.0107076
-0.000200397
0.0106909
-0.000162902
0.0106768
-0.000127685
0.0106653