/*--------------------------------*- C++ -*----------------------------------*\
  =========                 |
  \\      /  F ield         | OpenFOAM: The Open Source CFD Toolbox
   \\    /   O peration     | Website:  https://openfoam.org
    \\  /    A nd           | Version:  7
     \\/     M anipulation  |
\*---------------------------------------------------------------------------*/
FoamFile
{
    version     2.0;
    format      ascii;
    class       volVectorField;
    location    "110.001";
    object      U;
}
// * * * * * * * * * * * * * * * * * * * * * * * * * * * * * * * * * * * * * //

dimensions      [0 1 -1 0 0 0 0];

internalField   nonuniform List<vector> 
3700
(
(1.34503 0.19366 0)
(1.31949 0.187013 0)
(1.29614 0.166704 0)
(1.27491 0.15105 0)
(1.25592 0.136725 0)
(1.23911 0.123559 0)
(1.22426 0.111592 0)
(1.21116 0.100733 0)
(1.19959 0.0908586 0)
(1.18934 0.0818719 0)
(1.18021 0.0736925 0)
(1.17206 0.0662467 0)
(1.16477 0.0594679 0)
(1.15823 0.0532954 0)
(1.15237 0.0476728 0)
(1.14712 0.0425483 0)
(1.14242 0.0378735 0)
(1.13821 0.0336034 0)
(1.13447 0.0296961 0)
(1.13114 0.0261125 0)
(1.1282 0.0228162 0)
(1.12563 0.0197731 0)
(1.12339 0.0169509 0)
(1.12147 0.0143194 0)
(1.11985 0.0118501 0)
(1.11852 0.00951566 0)
(1.11747 0.00728988 0)
(1.11669 0.00514783 0)
(1.11617 0.00306552 0)
(1.11592 0.0010172 0)
(1.31997 0.226846 0)
(1.29617 0.21669 0)
(1.27519 0.191311 0)
(1.25597 0.172542 0)
(1.23882 0.155358 0)
(1.22366 0.139738 0)
(1.21028 0.125708 0)
(1.19849 0.113085 0)
(1.1881 0.101688 0)
(1.17891 0.0913846 0)
(1.17074 0.0820613 0)
(1.16345 0.0736172 0)
(1.15694 0.0659635 0)
(1.15112 0.0590215 0)
(1.14589 0.0527198 0)
(1.14122 0.0469939 0)
(1.13703 0.0417847 0)
(1.1333 0.0370379 0)
(1.12997 0.0327038 0)
(1.12701 0.0287365 0)
(1.1244 0.0250934 0)
(1.12211 0.021735 0)
(1.12012 0.0186245 0)
(1.11841 0.0157275 0)
(1.11697 0.0130114 0)
(1.11579 0.0104457 0)
(1.11485 0.00800098 0)
(1.11416 0.00564927 0)
(1.1137 0.0033637 0)
(1.11347 0.00111643 0)
(1.28903 0.255919 0)
(1.26778 0.242448 0)
(1.24998 0.21261 0)
(1.23342 0.191309 0)
(1.21868 0.171591 0)
(1.20564 0.15383 0)
(1.1941 0.137997 0)
(1.18394 0.123817 0)
(1.17499 0.111072 0)
(1.16708 0.0996027 0)
(1.16005 0.0892666 0)
(1.15378 0.0799401 0)
(1.14819 0.0715154 0)
(1.14318 0.0638977 0)
(1.1387 0.0570023 0)
(1.13469 0.0507529 0)
(1.13109 0.0450807 0)
(1.12788 0.0399232 0)
(1.12502 0.0352231 0)
(1.12248 0.0309283 0)
(1.12023 0.0269907 0)
(1.11826 0.023366 0)
(1.11655 0.020013 0)
(1.11508 0.0168936 0)
(1.11384 0.0139717 0)
(1.11282 0.0112138 0)
(1.11201 0.00858764 0)
(1.11141 0.00606262 0)
(1.11101 0.00360937 0)
(1.11081 0.00119811 0)
(1.2537 0.279858 0)
(1.23541 0.263242 0)
(1.22139 0.229929 0)
(1.20798 0.206744 0)
(1.19609 0.184907 0)
(1.18549 0.165414 0)
(1.1761 0.148103 0)
(1.16782 0.132629 0)
(1.16052 0.118759 0)
(1.15407 0.106313 0)
(1.14834 0.0951285 0)
(1.14323 0.0850628 0)
(1.13866 0.0759936 0)
(1.13457 0.0678131 0)
(1.13091 0.0604251 0)
(1.12763 0.0537438 0)
(1.12469 0.0476918 0)
(1.12206 0.0421992 0)
(1.11971 0.0372025 0)
(1.11762 0.032644 0)
(1.11578 0.0284707 0)
(1.11415 0.0246342 0)
(1.11274 0.0210897 0)
(1.11153 0.0177955 0)
(1.1105 0.014713 0)
(1.10965 0.0118056 0)
(1.10898 0.00903902 0)
(1.10849 0.00638032 0)
(1.10815 0.00379805 0)
(1.10799 0.00126079 0)
(1.21542 0.298026 0)
(1.20022 0.278432 0)
(1.19034 0.24287 0)
(1.18042 0.21842 0)
(1.17165 0.194959 0)
(1.16373 0.174196 0)
(1.15669 0.155765 0)
(1.15047 0.139293 0)
(1.14499 0.124552 0)
(1.14013 0.111348 0)
(1.13581 0.0995021 0)
(1.13196 0.0888611 0)
(1.12852 0.0792917 0)
(1.12543 0.0706763 0)
(1.12265 0.0629101 0)
(1.12016 0.0558994 0)
(1.11793 0.0495602 0)
(1.11592 0.0438165 0)
(1.11412 0.0385997 0)
(1.11252 0.0338475 0)
(1.1111 0.029503 0)
(1.10985 0.0255141 0)
(1.10875 0.0218331 0)
(1.10781 0.0184157 0)
(1.10701 0.0152208 0)
(1.10635 0.0122099 0)
(1.10583 0.00934658 0)
(1.10543 0.0065964 0)
(1.10517 0.00392621 0)
(1.10505 0.00130333 0)
(1.17539 0.310146 0)
(1.1633 0.287799 0)
(1.15774 0.251272 0)
(1.15149 0.22609 0)
(1.14595 0.201549 0)
(1.14084 0.179992 0)
(1.13627 0.160807 0)
(1.13223 0.143652 0)
(1.12867 0.128312 0)
(1.12551 0.114583 0)
(1.1227 0.102278 0)
(1.12018 0.0912395 0)
(1.11793 0.0813267 0)
(1.1159 0.0724156 0)
(1.11406 0.0643954 0)
(1.11241 0.0571667 0)
(1.11091 0.0506406 0)
(1.10956 0.0447365 0)
(1.10835 0.039382 0)
(1.10725 0.0345111 0)
(1.10628 0.030064 0)
(1.10541 0.025986 0)
(1.10465 0.022227 0)
(1.10399 0.0187408 0)
(1.10342 0.0154845 0)
(1.10296 0.0124181 0)
(1.10258 0.00950398 0)
(1.10231 0.00670644 0)
(1.10212 0.00399126 0)
(1.10203 0.0013249 0)
(1.13459 0.316267 0)
(1.12564 0.291491 0)
(1.12442 0.255158 0)
(1.12184 0.229674 0)
(1.11954 0.204614 0)
(1.11727 0.182707 0)
(1.11523 0.16313 0)
(1.11344 0.145612 0)
(1.11185 0.129949 0)
(1.11045 0.115934 0)
(1.1092 0.103381 0)
(1.10808 0.0921307 0)
(1.10706 0.0820393 0)
(1.10613 0.0729793 0)
(1.10527 0.0648362 0)
(1.10448 0.0575072 0)
(1.10376 0.0509001 0)
(1.10308 0.0449313 0)
(1.10247 0.0395256 0)
(1.1019 0.0346149 0)
(1.10138 0.0301373 0)
(1.10091 0.0260362 0)
(1.10049 0.0222601 0)
(1.10012 0.0187616 0)
(1.0998 0.0154967 0)
(1.09953 0.0124247 0)
(1.09931 0.00950707 0)
(1.09915 0.00670761 0)
(1.09904 0.00399152 0)
(1.09898 0.00132494 0)
(1.0938 0.31668 0)
(1.08816 0.289907 0)
(1.09108 0.25468 0)
(1.09206 0.229244 0)
(1.09291 0.204191 0)
(1.09347 0.182327 0)
(1.09396 0.162702 0)
(1.09442 0.145131 0)
(1.09484 0.129418 0)
(1.09522 0.115356 0)
(1.09556 0.102768 0)
(1.09585 0.0914949 0)
(1.09609 0.0813936 0)
(1.09628 0.0723356 0)
(1.09642 0.064205 0)
(1.09652 0.0568974 0)
(1.09657 0.0503188 0)
(1.09659 0.0443843 0)
(1.09658 0.0390172 0)
(1.09655 0.034148 0)
(1.09649 0.0297139 0)
(1.09643 0.0256577 0)
(1.09635 0.021927 0)
(1.09627 0.0184739 0)
(1.0962 0.0152544 0)
(1.09613 0.0122272 0)
(1.09606 0.00935412 0)
(1.09602 0.00659872 0)
(1.09598 0.00392632 0)
(1.09596 0.00130325 0)
(1.05365 0.311788 0)
(1.05161 0.283529 0)
(1.05833 0.250081 0)
(1.06267 0.224982 0)
(1.06653 0.20039 0)
(1.06984 0.178903 0)
(1.07281 0.159551 0)
(1.07549 0.14222 0)
(1.0779 0.126714 0)
(1.08007 0.11284 0)
(1.082 0.100426 0)
(1.08371 0.0893185 0)
(1.08521 0.0793767 0)
(1.08653 0.070473 0)
(1.08767 0.062492 0)
(1.08865 0.0553294 0)
(1.08949 0.0488909 0)
(1.0902 0.0430913 0)
(1.09079 0.0378537 0)
(1.09129 0.0331086 0)
(1.0917 0.0287932 0)
(1.09203 0.0248503 0)
(1.0923 0.0212279 0)
(1.09251 0.0178785 0)
(1.09268 0.0147582 0)
(1.0928 0.0118267 0)
(1.09289 0.00904596 0)
(1.09296 0.00638044 0)
(1.093 0.00379608 0)
(1.09302 0.00125997 0)
(1.01467 0.302071 0)
(1.01651 0.272851 0)
(1.02658 0.241629 0)
(1.03409 0.217118 0)
(1.0408 0.193362 0)
(1.04676 0.172537 0)
(1.05213 0.153747 0)
(1.05697 0.136923 0)
(1.06133 0.121869 0)
(1.06524 0.108405 0)
(1.06874 0.0963697 0)
(1.07185 0.0856132 0)
(1.0746 0.0759983 0)
(1.07703 0.0674004 0)
(1.07915 0.0597058 0)
(1.08101 0.0528116 0)
(1.08262 0.0466244 0)
(1.08401 0.0410603 0)
(1.0852 0.0360433 0)
(1.08621 0.0315048 0)
(1.08707 0.0273829 0)
(1.0878 0.0236216 0)
(1.0884 0.0201699 0)
(1.08889 0.0169815 0)
(1.08929 0.0140138 0)
(1.08961 0.0112275 0)
(1.08985 0.00858617 0)
(1.09003 0.00605535 0)
(1.09014 0.00360235 0)
(1.0902 0.00119563 0)
(0.977239 0.288025 0)
(0.983125 0.258361 0)
(0.996161 0.229578 0)
(1.00665 0.205889 0)
(1.01606 0.183264 0)
(1.02454 0.163353 0)
(1.03221 0.14539 0)
(1.03913 0.129316 0)
(1.04537 0.114943 0)
(1.05098 0.102102 0)
(1.056 0.0906405 0)
(1.06048 0.0804139 0)
(1.06444 0.0712894 0)
(1.06795 0.0631457 0)
(1.07103 0.055872 0)
(1.07373 0.0493677 0)
(1.07608 0.043542 0)
(1.07813 0.0383126 0)
(1.07989 0.0336056 0)
(1.08141 0.0293545 0)
(1.0827 0.0254995 0)
(1.0838 0.0219863 0)
(1.08472 0.0187661 0)
(1.08549 0.0157945 0)
(1.08611 0.0130308 0)
(1.08661 0.0104379 0)
(1.08699 0.0079811 0)
(1.08727 0.00562803 0)
(1.08745 0.0033479 0)
(1.08754 0.00111114 0)
(0.941633 0.270049 0)
(0.951679 0.240419 0)
(0.967299 0.214149 0)
(0.98061 0.191523 0)
(0.992602 0.170259 0)
(1.00348 0.15149 0)
(1.01333 0.134592 0)
(1.02224 0.119493 0)
(1.03029 0.106015 0)
(1.03753 0.0939998 0)
(1.044 0.0833001 0)
(1.04978 0.0737763 0)
(1.05491 0.0653005 0)
(1.05944 0.0577553 0)
(1.06344 0.0510334 0)
(1.06694 0.0450375 0)
(1.07001 0.0396797 0)
(1.07267 0.0348813 0)
(1.07498 0.0305712 0)
(1.07697 0.0266859 0)
(1.07867 0.0231682 0)
(1.08012 0.0199671 0)
(1.08133 0.0170364 0)
(1.08235 0.0143347 0)
(1.08318 0.0118239 0)
(1.08385 0.00946968 0)
(1.08436 0.00723997 0)
(1.08474 0.00510502 0)
(1.08499 0.00303663 0)
(1.08511 0.0010078 0)
(0.907912 0.248501 -5.89263e-13)
(0.92231 0.219243 -1.39082e-13)
(0.94024 0.195502 0)
(0.956214 0.174197 4.81782e-13)
(0.970662 0.154496 6.46546e-13)
(0.983813 0.137086 2.16022e-29)
(0.995743 0.121472 -8.01979e-13)
(1.00655 0.10756 -8.18457e-13)
(1.01631 0.0951824 0)
(1.02508 0.0841869 0)
(1.03294 0.0744289 0)
(1.03995 0.0657745 0)
(1.04617 0.0581001 0)
(1.05167 0.0512925 0)
(1.05652 0.0452485 0)
(1.06078 0.039875 0)
(1.0645 0.035088 0)
(1.06774 0.0308126 0)
(1.07054 0.026982 0)
(1.07296 0.0235365 0)
(1.07504 0.0204229 -3.93726e-13)
(1.07681 0.0175939 -7.55646e-13)
(1.0783 0.0150072 -3.64954e-13)
(1.07954 0.0126247 0)
(1.08056 0.0104121 3.46743e-13)
(1.08138 0.0083383 3.40671e-13)
(1.08201 0.00637475 0)
(1.08247 0.00449486 3.33072e-13)
(1.08278 0.00267366 3.31097e-13)
(1.08293 0.000887344 9.52494e-30)
(0.876104 0.223661 5.89173e-13)
(0.895 0.195087 1.39082e-13)
(0.91522 0.173777 0)
(0.933696 0.154053 -4.81782e-13)
(0.950485 0.136108 -6.46546e-13)
(0.965789 0.120273 -2.16022e-29)
(0.979688 0.106154 8.01979e-13)
(0.992282 0.0936355 8.18457e-13)
(1.00365 0.0825564 0)
(1.01387 0.0727667 0)
(1.02301 0.0641247 0)
(1.03116 0.0565003 0)
(1.03839 0.0497742 0)
(1.04479 0.0438377 0)
(1.05041 0.0385922 0)
(1.05535 0.0339491 0)
(1.05967 0.0298299 0)
(1.06342 0.0261644 0)
(1.06668 0.0228907 0)
(1.06948 0.019954 0)
(1.07189 0.0173062 3.93726e-13)
(1.07393 0.0149045 7.55646e-13)
(1.07566 0.0127111 3.64954e-13)
(1.07711 0.0106926 0)
(1.07829 0.00881885 -3.46743e-13)
(1.07924 0.00706289 -3.40671e-13)
(1.07998 0.00540013 0)
(1.08052 0.00380799 -3.33072e-13)
(1.08087 0.00226525 -3.31097e-13)
(1.08104 0.000751815 -9.52494e-30)
(0.846562 0.195463 0)
(0.86972 0.168195 0)
(0.892374 0.149172 0)
(0.91327 0.131252 0)
(0.932308 0.115225 0)
(0.949649 0.10118 0)
(0.965402 0.0887643 0)
(0.979666 0.0778442 0)
(0.992527 0.06826 0)
(1.00408 0.0598588 0)
(1.0144 0.0525014 0)
(1.02359 0.0460622 0)
(1.03173 0.0404256 0)
(1.03892 0.0354873 0)
(1.04524 0.0311542 0)
(1.05078 0.0273435 0)
(1.05562 0.0239824 0)
(1.05982 0.0210068 0)
(1.06346 0.0183607 0)
(1.06659 0.0159956 0)
(1.06928 0.0138689 0)
(1.07156 0.0119435 0)
(1.07349 0.0101872 0)
(1.0751 0.00857166 0)
(1.07642 0.00707195 0)
(1.07747 0.00566589 0)
(1.0783 0.00433356 0)
(1.0789 0.00305674 0)
(1.07929 0.0018187 0)
(1.07948 0.000603679 0)
(0.819567 0.163796 0)
(0.846748 0.138515 0)
(0.871846 0.121786 0)
(0.895106 0.105944 0)
(0.916337 0.0919951 0)
(0.935627 0.079942 0)
(0.953121 0.0694377 0)
(0.968928 0.0603244 0)
(0.983158 0.0524287 0)
(0.995911 0.0455967 0)
(1.00729 0.0396912 0)
(1.0174 0.0345871 0)
(1.02634 0.0301742 0)
(1.03421 0.0263544 0)
(1.04113 0.0230403 0)
(1.04717 0.0201559 0)
(1.05244 0.0176351 0)
(1.05701 0.0154216 0)
(1.06096 0.0134665 0)
(1.06435 0.0117278 0)
(1.06726 0.01017 0)
(1.06973 0.0087627 0)
(1.07181 0.00748025 0)
(1.07355 0.00630029 0)
(1.07497 0.00520345 0)
(1.07611 0.00417318 0)
(1.077 0.00319473 0)
(1.07764 0.00225512 0)
(1.07807 0.00134249 0)
(1.07828 0.000445726 0)
(0.793971 0.129698 0)
(0.826324 0.105978 0)
(0.853956 0.0915349 0)
(0.879484 0.0781322 0)
(0.902786 0.0665283 0)
(0.923954 0.0567015 0)
(0.943075 0.0483228 0)
(0.960301 0.0412247 0)
(0.975756 0.0352162 0)
(0.989567 0.0301361 0)
(1.00186 0.025843 0)
(1.01275 0.0222191 0)
(1.02235 0.0191593 0)
(1.03079 0.0165701 0)
(1.03817 0.0143725 0)
(1.04461 0.0124987 0)
(1.05021 0.0108914 0)
(1.05506 0.00950267 0)
(1.05924 0.00829232 0)
(1.06283 0.00722596 0)
(1.06589 0.0062761 0)
(1.06849 0.00542101 0)
(1.07067 0.00464123 0)
(1.07249 0.00392123 0)
(1.07399 0.00324891 0)
(1.07518 0.0026134 0)
(1.0761 0.00200589 0)
(1.07678 0.00141889 0)
(1.07722 0.000845816 0)
(1.07744 0.000281014 0)
(0.766957 0.0958077 0)
(0.807518 0.0714568 0)
(0.838836 0.0586158 0)
(0.866828 0.047728 0)
(0.892003 0.0388575 0)
(0.914897 0.031565 0)
(0.935519 0.0255766 0)
(0.954009 0.020716 0)
(0.970528 0.0168008 0)
(0.985235 0.0136508 0)
(0.998273 0.01113 0)
(1.00978 0.00912636 0)
(1.0199 0.00753879 0)
(1.02876 0.00628254 0)
(1.03648 0.00528864 0)
(1.0432 0.00449979 0)
(1.04902 0.00386815 0)
(1.05404 0.00335521 0)
(1.05835 0.00293277 0)
(1.06205 0.00257399 0)
(1.0652 0.00226177 0)
(1.06786 0.00198312 0)
(1.0701 0.00172506 0)
(1.07196 0.00148177 0)
(1.07348 0.00124765 0)
(1.07469 0.00101827 0)
(1.07563 0.000791072 0)
(1.07632 0.000564955 0)
(1.07677 0.000338971 0)
(1.07699 0.000112954 0)
(0.736553 0.0644141 0)
(0.787844 0.0369972 0)
(0.82575 0.0242428 0)
(0.857183 0.015068 0)
(0.88441 0.00911194 0)
(0.90882 0.00463461 0)
(0.930729 0.00135771 0)
(0.950296 -0.000998363 0)
(0.967696 -0.00261865 0)
(0.98311 -0.00365923 0)
(0.996708 -0.00425072 0)
(1.00865 -0.00450323 0)
(1.01911 -0.00450854 0)
(1.02822 -0.00433978 0)
(1.03614 -0.00405446 0)
(1.04299 -0.00369795 0)
(1.0489 -0.00330542 0)
(1.05399 -0.00290314 0)
(1.05834 -0.00250856 0)
(1.06206 -0.00213584 0)
(1.06521 -0.00179233 0)
(1.06787 -0.00148189 0)
(1.0701 -0.00120727 0)
(1.07195 -0.000966789 0)
(1.07345 -0.000758321 0)
(1.07465 -0.000578763 0)
(1.07558 -0.000423842 0)
(1.07626 -0.000288438 0)
(1.0767 -0.000167342 0)
(1.07692 -5.48542e-05 0)
(0.704999 0.0347468 0)
(0.764988 0.00433092 0)
(0.812701 -0.00955526 0)
(0.8498 -0.0184918 0)
(0.880083 -0.0222426 0)
(0.906092 -0.0237874 0)
(0.92907 -0.0241175 0)
(0.949467 -0.0237223 0)
(0.967508 -0.022818 0)
(0.983394 -0.0215599 0)
(0.997327 -0.0200711 0)
(1.0095 -0.0184507 0)
(1.02009 -0.0167761 0)
(1.02928 -0.0151057 0)
(1.03722 -0.0134821 0)
(1.04405 -0.0119357 0)
(1.04992 -0.0104862 0)
(1.05494 -0.00914526 0)
(1.05922 -0.00791756 0)
(1.06286 -0.0068035 0)
(1.06594 -0.00579919 0)
(1.06852 -0.00489797 0)
(1.07068 -0.00409187 0)
(1.07246 -0.00337093 0)
(1.07391 -0.00272465 0)
(1.07507 -0.00214207 0)
(1.07596 -0.00161179 0)
(1.0766 -0.0011222 0)
(1.07703 -0.000661741 0)
(1.07724 -0.000218669 0)
(0.678474 0.0025838 0)
(0.740345 -0.0262438 0)
(0.79778 -0.0415653 0)
(0.843173 -0.0512526 0)
(0.878384 -0.0540773 0)
(0.906756 -0.0531407 0)
(0.930832 -0.0504857 0)
(0.95181 -0.0471341 0)
(0.970196 -0.0434972 0)
(0.986273 -0.0397676 0)
(1.00028 -0.0360623 0)
(1.01243 -0.0324639 0)
(1.02294 -0.0290307 0)
(1.03199 -0.0258019 0)
(1.03976 -0.022801 0)
(1.04641 -0.0200394 0)
(1.05208 -0.0175187 0)
(1.05691 -0.0152335 0)
(1.06101 -0.0131731 0)
(1.06447 -0.0113232 0)
(1.06738 -0.00966701 0)
(1.06981 -0.00818619 0)
(1.07183 -0.00686186 0)
(1.0735 -0.00567467 0)
(1.07485 -0.00460536 0)
(1.07592 -0.00363499 0)
(1.07674 -0.00274489 0)
(1.07734 -0.00191673 0)
(1.07773 -0.00113258 0)
(1.07792 -0.000374637 0)
(0.662653 -0.0374116 0)
(0.719022 -0.056626 0)
(0.781531 -0.0715455 0)
(0.835871 -0.0820619 0)
(0.8781 -0.0850412 0)
(0.910318 -0.0824981 0)
(0.936002 -0.0771581 0)
(0.957497 -0.0708117 0)
(0.975955 -0.0642971 0)
(0.99191 -0.0579522 0)
(1.00569 -0.0519168 0)
(1.01754 -0.0462584 0)
(1.0277 -0.041012 0)
(1.03639 -0.0361925 0)
(1.04379 -0.0317993 0)
(1.05007 -0.0278206 0)
(1.0554 -0.0242364 0)
(1.05989 -0.0210216 0)
(1.06368 -0.0181478 0)
(1.06685 -0.0155845 0)
(1.06951 -0.0133008 0)
(1.07172 -0.0112656 0)
(1.07354 -0.00944878 0)
(1.07503 -0.00782092 0)
(1.07623 -0.00635386 0)
(1.07718 -0.00502057 0)
(1.07791 -0.00379509 0)
(1.07844 -0.00265238 0)
(1.07878 -0.00156822 0)
(1.07895 -0.000518897 0)
(0.660925 -0.0842908 0)
(0.706116 -0.0906394 0)
(0.766864 -0.100967 0)
(0.827777 -0.110766 0)
(0.878111 -0.114194 0)
(0.915935 -0.110894 0)
(0.944273 -0.103405 0)
(0.966548 -0.0942167 0)
(0.984912 -0.0847797 0)
(1.00043 -0.0757264 0)
(1.01365 -0.0672819 0)
(1.02489 -0.0595133 0)
(1.03443 -0.0524307 0)
(1.0425 -0.046019 0)
(1.04931 -0.0402479 0)
(1.05503 -0.0350777 0)
(1.05983 -0.0304633 0)
(1.06385 -0.0263569 0)
(1.0672 -0.0227099 0)
(1.06999 -0.0194745 0)
(1.0723 -0.0166042 0)
(1.0742 -0.0140547 0)
(1.07576 -0.0117842 0)
(1.07702 -0.00975302 0)
(1.07803 -0.0079241 0)
(1.07883 -0.00626241 0)
(1.07944 -0.00473483 0)
(1.07987 -0.00330987 0)
(1.08015 -0.00195727 0)
(1.08029 -0.000647675 0)
(0.673557 -0.136081 0)
(0.704749 -0.129643 0)
(0.757491 -0.132116 0)
(0.820432 -0.138527 0)
(0.878155 -0.141475 0)
(0.922879 -0.137699 0)
(0.955173 -0.128534 0)
(0.978816 -0.116751 0)
(0.997092 -0.104438 0)
(1.01191 -0.0926455 0)
(1.02421 -0.081759 0)
(1.0345 -0.071871 0)
(1.04311 -0.0629685 0)
(1.05029 -0.0550012 0)
(1.05627 -0.0479025 0)
(1.06123 -0.0415994 0)
(1.06534 -0.0360174 0)
(1.06873 -0.0310832 0)
(1.07152 -0.0267263 0)
(1.07381 -0.0228799 0)
(1.07568 -0.0194816 0)
(1.07721 -0.0164733 0)
(1.07844 -0.0138013 0)
(1.07943 -0.0114161 0)
(1.08021 -0.00927175 0)
(1.08082 -0.00732562 0)
(1.08127 -0.00553785 0)
(1.0816 -0.00387087 0)
(1.08181 -0.0022889 0)
(1.08191 -0.000757393 0)
(0.697036 -0.189308 0)
(0.71508 -0.172806 0)
(0.756313 -0.16648 0)
(0.816394 -0.167019 0)
(0.879141 -0.167611 0)
(0.931009 -0.162782 0)
(0.968354 -0.152024 0)
(0.994103 -0.137815 0)
(1.01244 -0.122709 0)
(1.02633 -0.108203 0)
(1.03737 -0.0948979 0)
(1.04634 -0.0829348 0)
(1.05369 -0.0722798 0)
(1.05969 -0.0628407 0)
(1.0646 -0.0545073 0)
(1.06859 -0.0471677 0)
(1.07182 -0.0407141 0)
(1.07444 -0.0350449 0)
(1.07655 -0.030066 0)
(1.07824 -0.025691 0)
(1.0796 -0.0218413 0)
(1.08067 -0.0184451 0)
(1.08152 -0.0154374 0)
(1.08218 -0.0127589 0)
(1.08269 -0.0103557 0)
(1.08308 -0.00817798 0)
(1.08337 -0.00617995 0)
(1.08357 -0.00431858 0)
(1.0837 -0.00255321 0)
(1.08376 -0.000844782 0)
(0.726728 -0.241088 0)
(0.734767 -0.218264 0)
(0.764314 -0.2042 0)
(0.818153 -0.197475 0)
(0.882877 -0.193558 0)
(0.941002 -0.186322 0)
(0.98387 -0.173494 0)
(1.01231 -0.156799 0)
(1.03088 -0.138953 0)
(1.04365 -0.121814 0)
(1.05306 -0.106187 0)
(1.06032 -0.0922657 0)
(1.06604 -0.0799921 0)
(1.07057 -0.0692241 0)
(1.07415 -0.0598005 0)
(1.07696 -0.0515648 0)
(1.07916 -0.0443724 0)
(1.08087 -0.0380919 0)
(1.08218 -0.0326048 0)
(1.08319 -0.0278054 0)
(1.08394 -0.0235989 0)
(1.0845 -0.0199009 0)
(1.08492 -0.0166358 0)
(1.08522 -0.0137357 0)
(1.08543 -0.0111393 0)
(1.08557 -0.00879115 0)
(1.08567 -0.00663997 0)
(1.08573 -0.00463834 0)
(1.08577 -0.00274159 0)
(1.08578 -0.000906996 0)
(0.758598 -0.290175 0)
(0.760586 -0.264232 0)
(0.780818 -0.244279 0)
(0.827411 -0.230006 0)
(0.891524 -0.219744 0)
(0.954235 -0.208342 0)
(1.00227 -0.192487 0)
(1.03352 -0.17299 0)
(1.05231 -0.152419 0)
(1.06371 -0.132796 0)
(1.0711 -0.115047 0)
(1.07624 -0.0993842 0)
(1.07998 -0.0857133 0)
(1.08273 -0.0738326 0)
(1.08474 -0.0635233 0)
(1.08618 -0.054581 0)
(1.08719 -0.0468226 0)
(1.08786 -0.0400866 0)
(1.08828 -0.0342313 0)
(1.08851 -0.0291324 0)
(1.08861 -0.024681 0)
(1.08861 -0.0207813 0)
(1.08855 -0.0173486 0)
(1.08845 -0.014308 0)
(1.08833 -0.0115926 0)
(1.08821 -0.00914184 0)
(1.0881 -0.00690064 0)
(1.08801 -0.00481825 0)
(1.08795 -0.00284707 0)
(1.08792 -0.000941746 0)
(0.790158 -0.336634 0)
(0.789952 -0.309301 0)
(0.804567 -0.284861 0)
(0.845028 -0.26329 0)
(0.907058 -0.245457 0)
(0.972403 -0.228222 0)
(1.02442 -0.208206 0)
(1.05796 -0.185474 0)
(1.07663 -0.162221 0)
(1.08626 -0.14038 0)
(1.09119 -0.120845 0)
(1.0938 -0.103787 0)
(1.0952 -0.0890486 0)
(1.09589 -0.0763572 0)
(1.09611 -0.065434 0)
(1.09601 -0.0560267 0)
(1.09569 -0.0479155 0)
(1.09523 -0.0409116 0)
(1.09467 -0.0348525 0)
(1.09407 -0.0295986 0)
(1.09346 -0.0250293 0)
(1.09286 -0.0210399 0)
(1.0923 -0.0175394 0)
(1.09178 -0.0144475 0)
(1.09132 -0.0116932 0)
(1.09092 -0.00921301 0)
(1.0906 -0.00694945 0)
(1.09035 -0.00484976 0)
(1.09019 -0.00286466 0)
(1.0901 -0.000947392 0)
(0.820845 -0.380505 0)
(0.821824 -0.351762 0)
(0.834729 -0.323171 0)
(0.871328 -0.29459 0)
(0.930885 -0.268659 0)
(0.996999 -0.244478 0)
(1.05122 -0.219397 0)
(1.08584 -0.193119 0)
(1.1036 -0.167371 0)
(1.11087 -0.143751 0)
(1.11285 -0.122943 0)
(1.11253 -0.104989 0)
(1.11129 -0.0896326 0)
(1.10968 -0.0765247 0)
(1.10794 -0.0653282 0)
(1.10617 -0.0557486 0)
(1.10443 -0.0475358 0)
(1.10276 -0.0404794 0)
(1.10118 -0.034402 0)
(1.09971 -0.0291533 0)
(1.09837 -0.0246052 0)
(1.09715 -0.0206474 0)
(1.09606 -0.0171855 0)
(1.09511 -0.0141366 0)
(1.0943 -0.011428 0)
(1.09362 -0.00899499 0)
(1.09308 -0.00677947 0)
(1.09267 -0.00472821 0)
(1.0924 -0.00279169 0)
(1.09227 -0.000923064 0)
(0.851932 -0.420057 0)
(0.856823 -0.388555 0)
(0.871199 -0.355393 0)
(0.906248 -0.320152 0)
(0.963562 -0.286339 0)
(1.02884 -0.254911 0)
(1.08312 -0.224404 0)
(1.11707 -0.194624 0)
(1.13275 -0.166847 0)
(1.13689 -0.142127 0)
(1.13541 -0.120765 0)
(1.13182 -0.102578 0)
(1.12769 -0.0871755 0)
(1.12363 -0.0741314 0)
(1.11982 -0.0630632 0)
(1.11632 -0.0536468 0)
(1.11311 -0.0456138 0)
(1.11021 -0.0387418 0)
(1.10759 -0.0328468 0)
(1.10525 -0.027774 0)
(1.10316 -0.023393 0)
(1.10133 -0.0195935 0)
(1.09972 -0.0162803 0)
(1.09834 -0.0133712 0)
(1.09718 -0.0107944 0)
(1.09622 -0.0084863 0)
(1.09546 -0.00638988 0)
(1.0949 -0.00445319 0)
(1.09452 -0.00262799 0)
(1.09434 -0.000868716 0)
(0.885892 -0.450661 0)
(0.896336 -0.415042 0)
(0.913969 -0.377141 0)
(0.949167 -0.335928 0)
(1.00474 -0.295079 0)
(1.06789 -0.256878 0)
(1.11997 -0.221287 0)
(1.15115 -0.188614 0)
(1.16325 -0.159695 0)
(1.16338 -0.13487 0)
(1.15799 -0.113897 0)
(1.15089 -0.0962902 0)
(1.14377 -0.0815136 0)
(1.13721 -0.0690805 0)
(1.13132 -0.0585848 0)
(1.12609 -0.0496944 0)
(1.12144 -0.042139 0)
(1.11733 -0.0356991 0)
(1.1137 -0.030193 0)
(1.1105 -0.02547 0)
(1.1077 -0.0214044 0)
(1.10526 -0.0178897 0)
(1.10316 -0.0148348 0)
(1.10137 -0.0121615 0)
(1.09987 -0.00980134 0)
(1.09864 -0.00769427 0)
(1.09768 -0.00578644 0)
(1.09696 -0.00402885 0)
(1.09649 -0.00237603 0)
(1.09625 -0.000785152 0)
(0.924814 -0.465867 0)
(0.940841 -0.426334 0)
(0.962308 -0.384316 0)
(0.998954 -0.338043 0)
(1.0534 -0.291306 0)
(1.11327 -0.247444 0)
(1.16082 -0.207965 0)
(1.1869 -0.173803 0)
(1.19381 -0.14521 0)
(1.18909 -0.121633 0)
(1.17947 -0.102196 0)
(1.16882 -0.0860894 0)
(1.15878 -0.0726641 0)
(1.14982 -0.0614156 0)
(1.14196 -0.0519484 0)
(1.13509 -0.04395 0)
(1.12909 -0.0371705 0)
(1.12385 -0.0314062 0)
(1.11927 -0.0264903 0)
(1.11528 -0.0222863 0)
(1.11182 -0.0186788 0)
(1.10882 -0.0155702 0)
(1.10626 -0.0128781 0)
(1.10409 -0.0105317 0)
(1.10228 -0.008469 0)
(1.1008 -0.00663513 0)
(1.09964 -0.00498157 0)
(1.09879 -0.00346391 0)
(1.09823 -0.00204099 0)
(1.09794 -0.000674126 0)
(0.968236 -0.46038 0)
(0.989167 -0.418526 0)
(1.01507 -0.372966 0)
(1.0545 -0.322406 0)
(1.10814 -0.271224 0)
(1.16321 -0.223675 0)
(1.20368 -0.1827 0)
(1.22229 -0.149455 0)
(1.22256 -0.123272 0)
(1.21245 -0.102583 0)
(1.19861 -0.0859115 0)
(1.18466 -0.0722304 0)
(1.17198 -0.0608629 0)
(1.16089 -0.0513436 0)
(1.15128 -0.0433324 0)
(1.14297 -0.0365679 0)
(1.13577 -0.0308387 0)
(1.12953 -0.0259741 0)
(1.12411 -0.0218346 0)
(1.11942 -0.0183032 0)
(1.11537 -0.0152833 0)
(1.11188 -0.0126917 0)
(1.10891 -0.0104579 0)
(1.1064 -0.00852146 0)
(1.10432 -0.00682889 0)
(1.10262 -0.00533373 0)
(1.1013 -0.00399406 0)
(1.10032 -0.00277152 0)
(1.09967 -0.00163064 0)
(1.09935 -0.000538176 0)
(1.01369 -0.430827 0)
(1.04026 -0.387413 0)
(1.07173 -0.338293 0)
(1.1147 -0.284716 0)
(1.16659 -0.231528 0)
(1.21449 -0.183771 0)
(1.24515 -0.145143 0)
(1.25432 -0.116094 0)
(1.24716 -0.0947057 0)
(1.23176 -0.0785314 0)
(1.21419 -0.0657469 0)
(1.1975 -0.055289 0)
(1.18269 -0.0465697 0)
(1.16988 -0.0392335 0)
(1.15887 -0.0330381 0)
(1.14938 -0.0277918 0)
(1.1412 -0.0233435 0)
(1.13414 -0.0195682 0)
(1.12803 -0.0163606 0)
(1.12276 -0.0136342 0)
(1.11823 -0.0113123 0)
(1.11433 -0.00933164 0)
(1.11102 -0.00763805 0)
(1.10823 -0.00618236 0)
(1.10592 -0.00492291 0)
(1.10404 -0.00382304 0)
(1.10257 -0.00284853 0)
(1.10149 -0.00196873 0)
(1.10078 -0.00115514 0)
(1.10042 -0.000380731 0)
(1.06097 -0.372985 0)
(1.0943 -0.327629 0)
(1.1316 -0.275999 0)
(1.17688 -0.222597 0)
(1.22423 -0.171756 0)
(1.26196 -0.129013 0)
(1.28062 -0.097421 0)
(1.27958 -0.075908 0)
(1.26537 -0.0613791 0)
(1.24559 -0.0509415 0)
(1.22526 -0.042809 0)
(1.20665 -0.0361046 0)
(1.19039 -0.0304286 0)
(1.17639 -0.0255946 0)
(1.16439 -0.0214658 0)
(1.15407 -0.0179401 0)
(1.14518 -0.0149434 0)
(1.13751 -0.0123987 0)
(1.1309 -0.0102415 0)
(1.12519 -0.00841895 0)
(1.12028 -0.006881 0)
(1.11608 -0.00558599 0)
(1.11251 -0.00449603 0)
(1.1095 -0.00357765 0)
(1.10701 -0.0028021 0)
(1.10499 -0.00214247 0)
(1.10342 -0.00157461 0)
(1.10225 -0.00107626 0)
(1.10149 -0.000626593 0)
(1.10111 -0.000205698 0)
(1.11194 -0.283208 0)
(1.14967 -0.23673 0)
(1.19128 -0.187004 0)
(1.23518 -0.139146 0)
(1.27431 -0.0966499 0)
(1.29946 -0.0646441 0)
(1.3056 -0.0441224 0)
(1.29535 -0.032412 0)
(1.27571 -0.0258229 0)
(1.25308 -0.0216283 0)
(1.23126 -0.0184326 0)
(1.21173 -0.0156747 0)
(1.19477 -0.0132065 0)
(1.18018 -0.0110123 0)
(1.16764 -0.00907841 0)
(1.15686 -0.00738676 0)
(1.14755 -0.00593421 0)
(1.13952 -0.00470521 0)
(1.13259 -0.00367282 0)
(1.12661 -0.00281849 0)
(1.12147 -0.00212121 0)
(1.11706 -0.00156147 0)
(1.11332 -0.00112042 0)
(1.11017 -0.000779533 0)
(1.10756 -0.00052306 0)
(1.10544 -0.000336732 0)
(1.10379 -0.00020591 0)
(1.10257 -0.000117443 0)
(1.10177 -5.86852e-05 0)
(1.10137 -1.75983e-05 0)
(1.16304 -0.165802 0)
(1.2013 -0.120976 0)
(1.24363 -0.0807091 0)
(1.28184 -0.0441018 0)
(1.30988 -0.0158099 0)
(1.32202 0.00155173 0)
(1.31737 0.00916927 0)
(1.3005 0.010637 0)
(1.2778 0.00940962 0)
(1.25418 0.00760163 0)
(1.23218 0.00606513 0)
(1.21269 0.00499243 0)
(1.19577 0.00430993 0)
(1.18117 0.00389201 0)
(1.16857 0.0036392 0)
(1.15768 0.00348176 0)
(1.14827 0.00336506 0)
(1.14012 0.0032558 0)
(1.13307 0.00313682 0)
(1.12698 0.0029952 0)
(1.12173 0.0028255 0)
(1.11724 0.00262514 0)
(1.11341 0.00239454 0)
(1.11019 0.00213592 0)
(1.10752 0.00185193 0)
(1.10536 0.00154577 0)
(1.10367 0.00122136 0)
(1.10243 0.000882646 0)
(1.10161 0.000533749 0)
(1.1012 0.000178633 0)
(1.20363 -0.0350093 0)
(1.24332 0.00429659 0)
(1.28106 0.0280612 0)
(1.3104 0.0489267 0)
(1.32667 0.0603164 0)
(1.32786 0.0623393 0)
(1.31585 0.0577788 0)
(1.29565 0.0501848 0)
(1.27237 0.0422271 0)
(1.24943 0.0352292 0)
(1.22842 0.0295215 0)
(1.20982 0.0249964 0)
(1.19359 0.0214176 0)
(1.17948 0.0185543 0)
(1.16723 0.0162248 0)
(1.15658 0.0142921 0)
(1.14733 0.012653 0)
(1.13929 0.0112339 0)
(1.13231 0.00998036 0)
(1.12627 0.00885166 0)
(1.12106 0.00781823 0)
(1.11659 0.00685734 0)
(1.11277 0.00595217 0)
(1.10956 0.0050899 0)
(1.10689 0.00426049 0)
(1.10473 0.00345608 0)
(1.10304 0.00267041 0)
(1.10179 0.00189834 0)
(1.10097 0.00113552 0)
(1.10057 0.000377963 0)
(1.22916 0.091881 0)
(1.26861 0.118683 0)
(1.29878 0.125602 0)
(1.31829 0.128996 0)
(1.32479 0.124242 0)
(1.31875 0.113123 0)
(1.30325 0.0989282 0)
(1.28273 0.0844068 0)
(1.26084 0.0712871 0)
(1.23982 0.0601913 0)
(1.22063 0.0510672 0)
(1.20356 0.043623 0)
(1.18851 0.0375272 0)
(1.17532 0.0324878 0)
(1.16376 0.0282743 0)
(1.15365 0.0247076 0)
(1.14481 0.0216495 0)
(1.1371 0.0189948 0)
(1.13037 0.0166619 0)
(1.12453 0.0145869 0)
(1.11947 0.0127199 0)
(1.11512 0.011021 0)
(1.11141 0.00945801 0)
(1.10827 0.00800492 0)
(1.10567 0.00663999 0)
(1.10355 0.00534497 0)
(1.1019 0.00410417 0)
(1.10068 0.00290378 0)
(1.09988 0.0017314 0)
(1.09948 0.000575362 0)
(1.23992 0.198744 0)
(1.27393 0.211199 0)
(1.29639 0.201454 0)
(1.30773 0.190265 0)
(1.30794 0.172868 0)
(1.29856 0.152459 0)
(1.28281 0.131802 0)
(1.26407 0.112655 0)
(1.24481 0.0959752 0)
(1.22646 0.0818945 0)
(1.20962 0.0701507 0)
(1.19446 0.0603726 0)
(1.18096 0.0521953 0)
(1.16899 0.0453069 0)
(1.1584 0.0394565 0)
(1.14906 0.0344442 0)
(1.14084 0.0301111 0)
(1.13363 0.0263317 0)
(1.12731 0.0230056 0)
(1.1218 0.0200517 0)
(1.11701 0.0174044 0)
(1.11288 0.0150099 0)
(1.10934 0.0128235 0)
(1.10635 0.0108079 0)
(1.10387 0.00893106 0)
(1.10185 0.00716557 0)
(1.10026 0.00548718 0)
(1.09909 0.00387418 0)
(1.09832 0.00230671 0)
(1.09794 0.000765985 0)
(1.23503 0.277953 0)
(1.26219 0.276597 0)
(1.27786 0.253645 0)
(1.2839 0.232448 0)
(1.28121 0.206882 0)
(1.27151 0.18113 0)
(1.2576 0.156849 0)
(1.24182 0.135056 0)
(1.22578 0.116187 0)
(1.21041 0.100107 0)
(1.19615 0.086484 0)
(1.18314 0.0749412 0)
(1.17138 0.0651253 0)
(1.16083 0.0567346 0)
(1.15141 0.0495196 0)
(1.14302 0.0432764 0)
(1.13559 0.0378385 0)
(1.12901 0.03307 0)
(1.12323 0.0288594 0)
(1.11816 0.0251145 0)
(1.11373 0.0217588 0)
(1.10991 0.018728 0)
(1.10662 0.0159676 0)
(1.10384 0.0134312 0)
(1.10152 0.0110785 0)
(1.09963 0.008874 0)
(1.09815 0.00678612 0)
(1.09706 0.00478618 0)
(1.09634 0.00284762 0)
(1.09598 0.000945241 0)
(1.21728 0.329188 0)
(1.23778 0.316215 0)
(1.24887 0.285396 0)
(1.25237 0.25859 0)
(1.24926 0.228909 0)
(1.24111 0.200902 0)
(1.23006 0.175103 0)
(1.21765 0.152137 0)
(1.20495 0.13213 0)
(1.1926 0.114852 0)
(1.18095 0.0999855 0)
(1.17014 0.0871902 0)
(1.16023 0.0761519 0)
(1.15122 0.0665967 0)
(1.14308 0.0582919 0)
(1.13577 0.0510415 0)
(1.12923 0.0446813 0)
(1.12341 0.0390732 0)
(1.11825 0.0341013 0)
(1.11371 0.0296676 0)
(1.10974 0.0256886 0)
(1.10628 0.0220934 0)
(1.10331 0.0188203 0)
(1.10079 0.0158161 0)
(1.09868 0.0130338 0)
(1.09696 0.0104314 0)
(1.09561 0.00797136 0)
(1.09461 0.00561888 0)
(1.09395 0.0033417 0)
(1.09362 0.00110901 0)
(1.19082 0.356846 0)
(1.20584 0.335663 0)
(1.21469 0.301867 0)
(1.2176 0.272742 0)
(1.21553 0.241931 0)
(1.20978 0.213665 0)
(1.20186 0.187721 0)
(1.19275 0.164568 0)
(1.18323 0.14417 0)
(1.17376 0.126306 0)
(1.16462 0.11071 0)
(1.15597 0.0970989 0)
(1.14792 0.0852079 0)
(1.14049 0.0747999 0)
(1.13369 0.0656672 0)
(1.12752 0.0576293 0)
(1.12195 0.0505309 0)
(1.11696 0.044238 0)
(1.11251 0.0386354 0)
(1.10857 0.0336233 0)
(1.10511 0.0291156 0)
(1.10208 0.025037 0)
(1.09947 0.0213217 0)
(1.09725 0.0179114 0)
(1.09539 0.0147543 0)
(1.09386 0.0118036 0)
(1.09267 0.0090165 0)
(1.09178 0.00635363 0)
(1.0912 0.00377785 0)
(1.09091 0.00125361 0)
(1.15961 0.367236 0)
(1.1709 0.341435 0)
(1.17914 0.307948 0)
(1.18251 0.278591 0)
(1.18212 0.248479 0)
(1.17896 0.221048 0)