/*--------------------------------*- C++ -*----------------------------------*\
  =========                 |
  \\      /  F ield         | OpenFOAM: The Open Source CFD Toolbox
   \\    /   O peration     | Website:  https://openfoam.org
    \\  /    A nd           | Version:  7
     \\/     M anipulation  |
\*---------------------------------------------------------------------------*/
FoamFile
{
    version     2.0;
    format      ascii;
    class       surfaceScalarField;
    location    "114.999";
    object      phi;
}
// * * * * * * * * * * * * * * * * * * * * * * * * * * * * * * * * * * * * * //

dimensions      [0 3 -1 0 0 0 0];

internalField   nonuniform List<scalar> 
7273
(
0.000796388
-0.000376479
0.00123179
0.00131384
0.00164942
0.00297325
0.00203707
0.00444689
0.00237435
0.00561981
0.002643
0.0064387
0.00283371
0.00691897
0.00294394
0.00712768
0.00296879
0.0071705
0.00290547
0.00717031
0.00277656
0.0071934
0.00264236
0.00716559
0.00257815
0.00688407
0.00263154
0.00614973
0.00280077
0.00490575
0.00305165
0.00325397
0.0033459
0.00137317
0.00365201
-0.000544411
0.00394634
-0.0023234
0.00420878
-0.00381059
0.00442313
-0.00491218
0.00458087
-0.00561653
0.00468264
-0.00598285
0.00473555
-0.00610662
0.00474919
-0.00608553
0.00473313
-0.00599651
0.00469526
-0.00588638
0.00463895
-0.00578044
0.00456108
-0.00570314
0.00445541
-0.00568513
0.00432086
-0.00573795
0.00416793
-0.00581515
0.0040173
-0.00580238
0.00389147
-0.00555733
0.00380667
-0.00497508
0.00377065
-0.00403209
0.00378479
-0.00278625
0.00384653
-0.00135017
0.00394841
0.000138489
0.00407869
0.00154577
0.00422263
0.00276092
0.00436468
0.00371962
0.00449185
0.00440845
0.00459566
0.00485587
0.00467244
0.00511457
0.00472241
0.00524246
0.00474833
0.0052889
0.00475334
0.00529088
0.00473893
0.00527857
0.00470427
0.00528128
0.00464771
0.00532279
0.00456942
0.00540542
0.00447304
0.00549515
0.00436521
0.00552355
0.00425348
0.00540952
0.00414456
0.00508864
0.00404404
0.00453184
0.0039572
0.00374828
0.00388934
0.00277687
0.00384529
0.0016779
0.00382827
0.000524177
0.0038382
-0.000604878
0.00387225
-0.00163813
0.00392437
-0.00251941
0.00398631
-0.00321675
0.00404965
-0.00372714
0.0041068
-0.0040643
0.00415262
-0.00426382
0.00418282
-0.00434809
0.00419466
-0.0043747
0.00418465
-0.004334
0.00415179
-0.00433521
0.0040968
-0.00423616
0.00402364
-0.00429056
0.00394105
-0.00399595
0.00385127
-0.00405639
-0.00326611
0.000354765
-0.000860614
0.000838406
0.000830201
0.00130587
0.00250579
0.00174387
0.00400889
0.0021329
0.00523078
0.00245326
0.00611834
0.00269267
0.00667956
0.00284378
0.00697657
0.00289997
0.00711431
0.00286613
0.00720415
0.00277814
0.0072814
0.00270283
0.00724089
0.00270731
0.00687959
0.00282188
0.00603516
0.00303144
0.00469619
0.00329802
0.0029874
0.00358683
0.00108436
0.00387221
-0.000829795
0.00413665
-0.00258784
0.00436416
-0.0040381
0.0045419
-0.00508992
0.00466422
-0.00573885
0.00473402
-0.00605265
0.00475979
-0.00613239
0.00475125
-0.006077
0.00471706
-0.00596232
0.00466404
-0.00583336
0.00459519
-0.00571159
0.00450728
-0.00561523
0.0043931
-0.00557094
0.00424959
-0.00559445
0.00408587
-0.00565142
0.00392324
-0.00563976
0.00378688
-0.00542096
0.00369592
-0.00488412
0.00365951
-0.00399568
0.00367882
-0.00280556
0.00374974
-0.0014211
0.00386379
2.44412e-05
0.00400724
0.00140232
0.00416476
0.0026034
0.00432025
0.00356413
0.0044604
0.0042683
0.00457651
0.00473976
0.00466478
0.0050263
0.00472551
0.00518174
0.0047615
0.0052529
0.00477592
0.00527646
0.00477027
0.00528423
0.00474392
0.00530762
0.00469564
0.00537107
0.00462588
0.00547518
0.0045381
0.00558293
0.00443812
0.00562353
0.00433235
0.00551529
0.0042266
0.00519439
0.00412614
0.00463229
0.00403645
0.00383797
0.00396336
0.00284997
0.00391232
0.00172895
0.00388743
0.000549058
0.00388921
-0.000606652
0.00391558
-0.0016645
0.00396099
-0.00256482
0.00401735
-0.00327312
0.00407615
-0.00378594
0.00412951
-0.00411765
0.00417212
-0.00430643
0.0041996
-0.00437558
0.00420948
-0.00438457
0.00419807
-0.0043226
0.00416451
-0.00430165
0.00410886
-0.0041805
0.00403555
-0.00421725
0.00395322
-0.00391363
0.00386481
-0.00396799
-0.00318905
-5.35033e-05
-0.00134518
0.000473131
0.000303567
0.000985222
0.00199369
0.00146842
0.00352569
0.00190549
0.0047937
0.00227413
0.00574971
0.00255867
0.00639501
0.00274797
0.00678727
0.00283682
0.00702547
0.00283964
0.00720133
0.00280297
0.00731807
0.00279419
0.00724967
0.00286825
0.00680554
0.00303895
0.00586446
0.00328101
0.00445413
0.00355557
0.00271284
0.00383301
0.000806926
0.00409374
-0.00109053
0.00432588
-0.00281998
0.00451699
-0.00422921
0.00465733
-0.00523025
0.00474408
-0.0058256
0.00478232
-0.00609089
0.00478175
-0.00613182
0.00475213
-0.00604738
0.00470112
-0.00591131
0.00463431
-0.00576654
0.00455422
-0.0056315
0.00445778
-0.00551879
0.00433716
-0.00545033
0.0041874
-0.00544469
0.00401552
-0.00547955
0.00384265
-0.00546688
0.00369618
-0.0052745
0.00359842
-0.00478636
0.00356042
-0.00395768
0.00358328
-0.00282842
0.00366165
-0.00149947
0.00378634
-0.000100241
0.00394123
0.00124743
0.00411088
0.00243374
0.00427863
0.00339638
0.00443087
0.00411606
0.00455868
0.00461195
0.00465814
0.00492685
0.00472954
0.00511034
0.00477573
0.00520671
0.00479984
0.00525235
0.00480341
0.00528066
0.00478608
0.00532495
0.00474703
0.00541012
0.00468693
0.00553529
0.00460889
0.00566097
0.00451782
0.00571461
0.00441898
0.00561413
0.00431731
0.00529606
0.00421774
0.00473186
0.00412585
0.00392986
0.00404796
0.00292786
0.00399009
0.00178682
0.00395694
0.000582206
0.00395008
-0.000599799
0.00396802
-0.00168244
0.00400585
-0.00260265
0.00405579
-0.00332305
0.00410931
-0.00383946
0.00415828
-0.00416662
0.00419722
-0.00434537
0.00422165
-0.00440001
0.00422934
-0.00439226
0.00421651
-0.00430977
0.0041824
-0.00426754
0.00412639
-0.0041245
0.00405319
-0.00414405
0.00397131
-0.00383174
0.00388419
-0.00388087
-0.00311575
-0.000384082
-0.00183053
0.000144362
-0.000224876
0.000695379
0.00144268
0.00121485
0.00300622
0.00169374
0.00431481
0.00210494
0.00533851
0.00242983
0.00607013
0.00265538
0.00656172
0.00278031
0.00690054
0.00282831
0.00715333
0.00285212
0.00729425
0.00291447
0.00718732
0.00305593
0.00666407
0.00327587
0.00564453
0.0035424
0.00418759
0.00381842
0.00243682
0.00407917
0.000546182
0.00431298
-0.00132435
0.00451149
-0.00301849
0.00466552
-0.00438324
0.00476824
-0.00533298
0.0048197
-0.00587706
0.00482712
-0.00609832
0.00480124
-0.00610593
0.00475177
-0.00599791
0.00468533
-0.00584487
0.00460616
-0.00568736
0.00451616
-0.00554151
0.00441259
-0.00541521
0.00428748
-0.00532522
0.00413411
-0.00529132
0.00395692
-0.00530235
0.00377586
-0.00528582
0.0036199
-0.00511854
0.00351459
-0.00468104
0.00347351
-0.00391661
0.00349823
-0.00285313
0.00358238
-0.00158362
0.00371513
-0.000232994
0.00388011
0.00108245
0.00406049
0.00225336
0.00423933
0.00321754
0.00440278
0.00395262
0.00454169
0.00447304
0.00465203
0.00481651
0.00473404
0.00502832
0.00479053
0.00515023
0.00482456
0.00521831
0.00483778
0.00526744
0.00483014
0.00533259
0.00480123
0.00543904
0.00475184
0.00558467
0.00468466
0.00572815
0.00460357
0.00579569
0.0045127
0.00570499
0.00441612
0.00539265
0.0043184
0.00482959
0.00422519
0.00402307
0.00414299
0.00301005
0.00407849
0.00185132
0.00403703
0.000623675
0.00402102
-0.000583793
0.00402979
-0.00169121
0.00405917
-0.00263203
0.0041018
-0.00336568
0.00414927
-0.00388693
0.00419321
-0.00421056
0.00422797
-0.00438013
0.00424896
-0.00442099
0.00425418
-0.00439748
0.00423982
-0.00429541
0.00420522
-0.00423294
0.00414912
-0.0040684
0.00407625
-0.00407118
0.00399496
-0.00375046
0.00390902
-0.00379493
-0.00304581
-0.000644328
-0.000131439
-0.000737765
0.000438378
0.00087286
0.000984249
0.00246034
0.00149678
0.00380228
0.00194355
0.00489173
0.00230406
0.00570962
0.0025654
0.00630037
0.0027315
0.00673444
0.00283335
0.00705148
0.00292481
0.00720279
0.00305977
0.00705236
0.0032641
0.00645974
0.00352547
0.00538316
0.00380869
0.00390437
0.00408005
0.00216546
0.00432145
0.000304781
0.00452674
-0.00152963
0.00469118
-0.00318292
0.00480807
-0.00450013
0.00487343
-0.00539833
0.00489024
-0.00589388
0.00486787
-0.00607594
0.00481796
-0.00605602
0.00475001
-0.00592996
0.00466958
-0.00576444
0.0045795
-0.00559729
0.00448096
-0.00544297
0.00437156
-0.00530581
0.00424368
-0.00519735
0.0040892
-0.00513683
0.00390963
-0.00512278
0.00372276
-0.00509895
0.00355823
-0.00495402
0.00344468
-0.00456749
0.00339877
-0.0038707
0.00342323
-0.00287759
0.00351135
-0.00167175
0.00364998
-0.000371626
0.00382338
0.000909056
0.00401301
0.00206372
0.00420176
0.00302879
0.00437553
0.00377885
0.00452497
0.0043236
0.00464589
0.00469559
0.00473843
0.00493578
0.00480528
0.00508337
0.00484946
0.00517413
0.00487272
0.00524418
0.00487538
0.00532993
0.00485743
0.00545699
0.00481973
0.00562236
0.00476444
0.00578344
0.0046944
0.00586573
0.00461259
0.0057868
0.00452222
0.00548301
0.00442744
0.00492437
0.00433383
0.00411668
0.00424811
0.00309577
0.00417728
0.00192216
0.00412751
0.000673437
0.00410196
-0.00055824
0.00410091
-0.00169016
0.00412102
-0.00265214
0.00415547
-0.00340013
0.00419606
-0.00392753
0.0042343
-0.0042488
0.00426435
-0.00441018
0.00428145
-0.00443809
0.00428387
-0.0043999
0.00426781
-0.00427935
0.00423272
-0.00419785
0.00417672
-0.0040124
0.00410436
-0.00399882
0.00402381
-0.0036699
0.00393887
-0.00370999
-0.00297881
-0.00033485
-0.00121662
0.000216891
0.000321119
0.000778305
0.00189893
0.00131333
0.00326726
0.0017885
0.00441655
0.00218115
0.00531698
0.00247963
0.00600189
0.00269295
0.00652112
0.00285599
0.00688845
0.00301917
0.00703961
0.00322504
0.0068465
0.00348588
0.0061989
0.00378075
0.00508829
0.00407353
0.00361159
0.00433569
0.0019033
0.00455572
8.47535e-05
0.00473221
-0.00170612
0.00486289
-0.00331361
0.00494307
-0.00458032
0.00497165
-0.00542691
0.00495474
-0.00587696
0.00490392
-0.00602513
0.0048315
-0.00598359
0.00474654
-0.00584501
0.00465359
-0.00567148
0.0045541
-0.0054978
0.00444837
-0.00533725
0.00433436
-0.0051918
0.00420516
-0.00506816
0.00405178
-0.00498345
0.00387275
-0.00494375
0.00368276
-0.00490896
0.00351097
-0.00478222
0.00338866
-0.00444518
0.00333613
-0.00381817
0.00335813
-0.00289959
0.00344742
-0.00176104
0.0035907
-0.0005149
0.00377041
0.000729349
0.00396779
0.00186634
0.00416526
0.00283132
0.00434848
0.00359563
0.00450789
0.00416419
0.00463909
0.00456439
0.00474206
0.00483281
0.00481933
0.0050061
0.00487383
0.00511963
0.00490747
0.00521055
0.00492096
0.00531644
0.00491469
0.00546327
0.00488954
0.00564751
0.00484709
0.0058259
0.00478913
0.00592369
0.0047175
0.00585843
0.00463453
0.00556598
0.00454388
0.00501502
0.00445095
0.00420962
0.00436256
0.00318415
0.00428595
0.00199877
0.00422792
0.000731464
0.00419261
-0.000522931
0.00418119
-0.00167874
0.00419126
-0.00266221
0.00421669
-0.00342555
0.00424961
-0.00396045
0.00428145
-0.00428064
0.00430622
-0.00443495
0.00431899
-0.00445087
0.00431825
-0.00439915
0.00430024
-0.00426134
0.00426459
-0.0041622
0.00420881
-0.00395662
0.00413713
-0.00392713
0.00405743
-0.00359021
0.00397335
-0.00362591
-0.00291428
-0.000453156
-0.00162048
4.53236e-05
-0.000177361
0.000605056
0.0013392
0.00114764
0.00272467
0.00164342
0.00392078
0.0020655
0.0048949
0.00240332
0.00566407
0.00266931
0.00625512
0.00289814
0.00665962
0.00313326
0.00680449
0.00340498
0.00657478
0.00371409
0.00588979
0.00403426
0.00476812
0.00433093
0.00331492
0.00458134
0.00165288
0.00477868
-0.000112584
0.00492719
-0.00185463
0.0050248
-0.00341121
0.00506887
-0.00462439
0.00506146
-0.0054195
0.00501216
-0.00582767
0.00493459
-0.00594756
0.00484139
-0.00589039
0.00474103
-0.00574465
0.00463702
-0.00556747
0.00452957
-0.00539035
0.00441802
-0.0052257
0.00430054
-0.00507431
0.00417118
-0.0049388
0.00402074
-0.004833
0.00384498
-0.00476799
0.00365478
-0.00471877
0.00347753
-0.00460496
0.00334636
-0.00431402
0.00328545
-0.00375726
0.00330244
-0.00291658
0.00339091
-0.0018495
0.00353597
-0.000659965
0.00372047
0.000544848
0.00392411
0.0016627
0.00412914
0.00262629
0.00432097
0.0034038
0.00448979
0.00399538
0.00463097
0.00442321
0.00474425
0.00471953
0.00483195
0.00491841
0.0048969
0.00505468
0.00494119
0.00516625
0.00496596
0.00529167
0.00497196
0.00545726
0.00496009
0.00565938
0.00493131
0.00585468
0.00488639
0.00596861
0.00482605
0.00591878
0.00475171
0.00564032
0.00466645
0.00510028
0.00457542
0.00430065
0.00448528
0.0032743
0.00440362
0.00208043
0.00433753
0.000797551
0.0042924
-0.000477801
0.0042702
-0.00165654
0.0042696
-0.00266162
0.00428523
-0.00344118
0.00430969
-0.00398492
0.00433446
-0.00430541
0.0043534
-0.00445389
0.00436138
-0.00445885
0.00435708
-0.00439485
0.00433686
-0.00424112
0.0043005
-0.00412584
0.00424502
-0.00390114
0.00417412
-0.00385624
0.00409541
-0.0035115
0.00401204
-0.00354254
-0.00285179
-0.000447313
-0.00190967
-3.4847e-05
-0.000589826
0.000485586
0.000818766
0.00101607
0.00219419
0.00152128
0.00341557
0.00196835
0.00444783
0.00234624
0.00528619
0.00266742
0.00593393
0.00296246
0.00636458
0.00326547
0.00650148
0.00359494
0.0062453
0.00394269
0.00554205
0.00427967
0.00443114
0.00457466
0.00301993
0.00481102
0.00141652
0.00498764
-0.000289195
0.00510901
-0.001976
0.00517448
-0.00347668
0.00518337
-0.00463328
0.00514138
-0.00537751
0.00506149
-0.00574778
0.00495915
-0.00584521
0.00484711
-0.00577836
0.00473305
-0.00563059
0.00461946
-0.00545388
0.00450546
-0.00527634
0.00438941
-0.00510965
0.00426951
-0.0049544
0.00414093
-0.00481023
0.00399482
-0.00468689
0.00382473
-0.0045979
0.00363733
-0.00453137
0.00345692
-0.00442455
0.00331734
-0.00417444
0.00324654
-0.00368646
0.00325596
-0.002926
0.00334067
-0.00193421
0.00348575
-0.000805051
0.00367294
0.000357662
0.00388129
0.00145435
0.0040927
0.00241487
0.0042923
0.00320421
0.00446998
0.0038177
0.00462083
0.00427236
0.00474428
0.00459607
0.00484236
0.00482033
0.00491785
0.00497919
0.004973
0.0051111
0.00500937
0.0052553
0.00502811
0.00543852
0.00503009
0.0056574
0.00501569
0.00586908
0.00498469
0.00599961
0.0049367
0.00596677
0.0048722
0.00570482
0.00479367
0.0051788
0.00470575
0.00438857
0.00461499
0.00336506
0.00452909
0.00216633
0.00445537
0.000871269
0.00440051
-0.000422946
0.00436728
-0.0016233
0.00435551
-0.00264985
0.00436069
-0.00344636
0.004376
-0.00400022
0.00439303
-0.00432243
0.0044056
-0.00446646
0.00440835
-0.00446161
0.0044001
-0.0043866
0.00437735
-0.00421836
0.00434008
-0.00408858
0.00428492
-0.00384597
0.00421491
-0.00378624
0.00413731
-0.00343389
0.00405455
-0.00345978
-0.00279088
-0.000289163
-0.00205189
5.4348e-06
-0.000884424
0.000455277
0.000368924
0.000948164
0.0017013
0.0014452
0.00291854
0.00190795
0.00398507
0.00232204
0.00487211
0.00269569
0.00556029
0.00305204
0.00600822
0.0034146
0.00613892
0.00379121
0.0058687
0.00416708
0.00516618
0.00451268
0.00408553
0.00480136
0.00273125
0.00502243
0.00119545
0.00517898
-0.000445744
0.00527482
-0.00207184
0.00530959
-0.00351145
0.00528482
-0.00460851
0.00521009
-0.00530278
0.00510178
-0.00563946
0.00497692
-0.00572035
0.00484816
-0.00564961
0.00472218
-0.0055046
0.00460046
-0.00533217
0.00448122
-0.0051571
0.00436194
-0.00499037
0.00424062
-0.00483309
0.00411352
-0.00468313
0.00397271
-0.00454609
0.00381023
-0.00443542
0.00362853
-0.00434967
0.00344772
-0.00424374
0.00330087
-0.00402758
0.00321918
-0.00360478
0.00321855
-0.00292537
0.00329681
-0.00201247
0.00343905
-0.000947286
0.00362714
0.000169574
0.0038386
0.00124288
0.00405524
0.00219823
0.00426177
0.00299768
0.00444777
0.00363171
0.00460796
0.00411217
0.0047414
0.00446263
0.00484981
0.00471192
0.00493584
0.00489316
0.00500197
0.00504498
0.00505016
0.0052071
0.00508194
0.00540675
0.00509817
0.00564118
0.00509871
0.00586854
0.00508237
0.00601594
0.00504772
0.00600142
0.00499427
0.00575827
0.00492375
0.00524932
0.00484029
0.00447204
0.00475011
0.00345523
0.00466078
0.00225566
0.00458022
0.000951829
0.00451586
-0.000358585
0.00447155
-0.00157899
0.0044483
-0.0026266
0.00444252
-0.00344058
0.00444806
-0.00400576
0.00445676
-0.00433114
0.00446245
-0.00447215
0.00445956
-0.00445872
0.00444699
-0.00437403
0.00442138
-0.00419275
0.00438297
-0.00405017
0.00432809
-0.00379109
0.00425903
-0.00371719
0.00418267
-0.00335753
0.00410046
-0.00337757
-0.00273117
4.07393e-05
-0.00204184
0.000227577
-0.00107126
0.000555304
4.11973e-05
0.000978717
0.00127789
0.00144375
0.00245351
0.00190652
0.0035223
0.00234609
0.00443253
0.0027628
0.00514357
0.0031699
0.00560113
0.00357976
0.00572905
0.0039909
0.00545756
0.0043839
0.00477318
0.00473038
0.00373906
0.00500894
0.00245268
0.00521417
0.000990219
0.00535155
-0.000583119
0.0054232
-0.0021435
0.00542857
-0.00351682
0.00537174
-0.00455168
0.0052664
-0.00519745
0.00513215
-0.00550521
0.00498729
-0.00557549
0.00484404
-0.00550635
0.00470795
-0.00536852
0.00457954
-0.00520375
0.00445629
-0.00503385
0.00433495
-0.00486903
0.00421318
-0.00471132
0.00408811
-0.00455806
0.00395315
-0.00441113
0.00379967
-0.00428194
0.00362627
-0.00417628
0.00344811
-0.00406558
0.00329589
-0.00387537
0.00320302
-0.0035119
0.00319016
-0.00291251
0.00325886
-0.00208117
0.00339578
-0.0010842
0.00358258
-1.72266e-05
0.00379547
0.00102999
0.00401615
0.00197756
0.00422876
0.00278507
0.0044225
0.00343797
0.00459167
0.00394299
0.00473489
0.00431942
0.00485351
0.00459329
0.00495006
0.00479661
0.00502719
0.00496785
0.00508728
0.00514701
0.00513223
0.0053618
0.00516292
0.00561048
0.00517877
0.00585269
0.00517771
0.006017
0.00515727
0.00602186
0.00511601
0.00579953
0.00505479
0.00531054
0.00497713
0.00454969
0.00488883
0.00354354
0.00479701
0.00234748
0.00471053
0.00103832
0.00463712
-0.000285179
0.0045819
-0.00152377
0.00454705
-0.00259176
0.00452998
-0.00342351
0.00452529
-0.00400106
0.00452516
-0.00433101
0.00452352
-0.0044705
0.00451461
-0.00444981
0.00449737
-0.00435679
0.00446859
-0.00416397
0.00442878
-0.00401036
0.00437409
-0.0037364
0.00430602
-0.00364912
0.00423105
-0.00328255
0.00414937
-0.00329589
-0.0026723
0.000584632
0.000614588
-0.00110122
0.000808693
-0.000152907
0.00113503
0.000951546
0.00154248
0.00204606
0.00198432
0.00308047
0.00243199
0.00398486
0.00287598
0.00469958
0.00331822
0.00515889
0.00376004
0.00528723
0.00419175
0.00502585
0.0045908
0.00437413
0.004931
0.00339886
0.00519641
0.00218727
0.00538568
0.000800948
0.00550467
-0.000702111
0.00555304
-0.00219186
0.00553002
-0.0034938
0.00544281
-0.00446446
0.00530928
-0.00506391
0.00515188
-0.00534782
0.0049897
-0.00541331
0.00483427
-0.00535092
0.00468992
-0.00522416
0.00455621
-0.00507005
0.00443008
-0.00490772
0.00430775
-0.0047467
0.00418644
-0.00459001
0.00406387
-0.00443548
0.00393495
-0.00428221
0.00379127
-0.00413826
0.00362832
-0.00401333
0.00345591
-0.00389317
0.00330095
-0.00372041
0.00319751
-0.00340845
0.0031708
-0.0028858
0.00322728
-0.00213765
0.00335614
-0.00121306
0.00353849
-0.000199581
0.00375139
0.000817088
0.00397486
0.00175409
0.00419267
0.00256726
0.00439355
0.00323709
0.00457132
0.00376523
0.00472406
0.00416667
0.00485274
0.00446461
0.00495971
0.00468964
0.00504777
0.00487979
0.00511971
0.00507507
0.0051778
0.00530371
0.00522299
0.00556529
0.00525431
0.00582137
0.00526894
0.00600237
0.00526343
0.00602737
0.00523537
0.00582759
0.00518471
0.0053612
0.00511419
0.00462021
0.00502897
0.00362876
0.00493631
0.00244014
0.0048443
0.00113033
0.00476278
-0.000203658
0.00469702
-0.00145801
0.0046507
-0.00254544
0.00462222
-0.00339503
0.00460697
-0.00398582
0.00459762
-0.00432166
0.00458827
-0.00446115
0.00457303
-0.00443457
0.00455083
-0.00433459
0.00451859
-0.00413172
0.00447709
-0.00396886
0.00442248
-0.00368179
0.00435542
-0.00358205
0.00428197
-0.00320911
0.0042009
-0.00321482
-0.00261399
0.00114663
-0.0010083
0.00121
-0.000216269
0.0014255
0.000736041
0.00175447
0.00171709
0.00215314
0.0026818
0.00258765
0.00355035
0.00303882
0.00424841
0.0034973
0.00470041
0.00395389
0.00483065
0.0043917
0.00458803
0.0047861
0.00397973
0.0051138
0.00307116
0.00536382
0.00193725
0.005537
0.000627775
0.00563798
-0.000803098
0.00566334
-0.00221722
0.0056127
-0.00344317
0.00549688
-0.00434864
0.00533786
-0.00490489
0.00516038
-0.00517034
0.00498373
-0.00523666
0.00481846
-0.00518565
0.00466767
-0.00507337
0.00453001
-0.00493239
0.00440204
-0.00477975
0.00427966
-0.00462431
0.00415967
-0.00447002
0.00404002
-0.00431584
0.0039171
-0.00415928
0.00378344
-0.0040046
0.00363245
-0.00386234
0.00346873
-0.00372945
0.00331417
-0.00356585
0.00320179
-0.00329608
0.00316049
-0.00284451
0.00320219
-0.00217935
0.00331999
-0.00133086
0.00349522
-0.00037481
0.00370613
0.000606183
0.00393098
0.00152924
0.00415302
0.00234521
0.00436039
0.00302971
0.00454631
0.00357931
0.00470828
0.0040047
0.00484682
0.00432608
0.00496404
0.00457242
0.0050629
0.00478094
0.00514652
0.00499145
0.00521755
0.00523268
0.00527707
0.00550577
0.00532383
0.00577461
0.00535436
0.00597184
0.00536431
0.00601742
0.0053503
0.0058416
0.00531132
0.00540017
0.00524929
0.00468225
0.00516859
0.00370945
0.00507592
0.00253281
0.00498009
0.00122615
0.00489114
-0.000114709
0.00481548
-0.00138234
0.00475802
-0.00248798
0.00471822
-0.00335523
0.00469231
-0.0039599
0.00467348
-0.00430284
0.00465614
-0.00444381
0.00463431
-0.00441274
0.00460692
-0.0043072
0.00457097
-0.00409577
0.00452751
-0.0039254
0.00447284
-0.00362713
0.00440675
-0.00351596
0.00433498
-0.00313734
0.00425464
-0.00313448
-0.00255604
0.00177012
-0.00084023
0.00173086
-0.000177006
0.00183715
0.00062975
0.00207558
0.00147866
0.00241221
0.00234516
0.0028124
0.00315016
0.00324964
0.00381117
0.00370454
0.0042455
0.00415849
0.00437671
0.00458847
0.00415805
0.00496862
0.00359958
0.00527875
0.00276102
0.00551176
0.00170424
0.00566864
0.000470886
0.00575116
-0.000885614
0.00575313
-0.00221919
0.00567544
-0.00336548
0.00553299
-0.00420619
0.00535149
-0.00472338
0.00515721
-0.00497607
0.00496904
-0.00504849
0.00479627
-0.00501288
0.00464079
-0.00491789
0.00450047
-0.00479207
0.0043716
-0.00465088
0.00424999
-0.0045027
0.00413208
-0.00435211
0.00401581
-0.00419957
0.00389872
-0.00404219
0.00377485
-0.00388073
0.00363662
-0.00372411
0.00348405
-0.00357689
0.0033333
-0.00341509
0.00321457
-0.00317736
0.00315903
-0.00278896
0.00318404
-0.00220436
0.00328762
-0.00143444
0.00345319
-0.00054038
0.00365969
0.000399684
0.00388428
0.00130465
0.00410946
0.00212003
0.00432259
0.00281658
0.00451614
0.00338575
0.004687
0.00383384
0.00483512
0.00417795
0.0049624
0.00444514
0.00507182
0.00467151
0.00516684
0.00489643
0.00525047
0.00514905
0.00532398
0.00543226
0.00538595
0.00571264
0.00543237
0.00592542
0.0054581
0.0059917
0.00545879
0.00584091
0.0054325
0.00542646
0.00538015
0.0047346
0.0053053
0.00378431
0.00521428
0.00262383
0.00511549
0.00132495
0.00502043
-1.96487e-05
0.00493567
-0.00129759
0.00486769
-0.00242
0.00481689
-0.00330443
0.00478038
-0.00392339
0.00475198
-0.00427444
0.00472647
-0.0044183
0.0046979
-0.00438418
0.00466514
-0.00427444
0.00462529
-0.00405592
0.00457961
-0.00387972
0.00452473
-0.00357224
0.00445957
-0.0034508
0.00438962
-0.00306739
0.00431019
-0.00305506
-0.00249833
0.00241252
-0.000654473
0.00231565
-8.01353e-05
0.00233509
0.000610307
0.00248512
0.00132863
0.00274876
0.00208153
0.00309734
0.00280158
0.00350144
0.00340707
0.00393435
0.00381259
0.00436971
0.00394135
0.00477963
0.00374813
0.00513773
0.00324148
0.00542661
0.00247214
0.00564134
0.00148952
0.00578086
0.000331361
0.00584359
-0.000948337
0.00582125
-0.00219685
0.00571712
-0.00326135
0.00555036
-0.00403944
0.00534973
-0.00452275
0.00514214
-0.00476848
0.00494542
-0.00485177
0.00476742
-0.00483489
0.00460892
-0.00475939
0.00446716
-0.0046503
0.00433826
-0.00452198
0.0042181
-0.00438254
0.00410294
-0.00423696
0.0039905
-0.00408713
0.0038791
-0.00393079
0.00376444
-0.00376607
0.00363909
-0.00359875
0.00349949
-0.00343729
0.00335585
-0.00327144
0.00323408
-0.00305559
0.0031658
-0.00272069
0.00317315
-0.00221171
0.00325989
-0.00152117
0.00341292
-0.000693408
0.00361239
0.000200207
0.0038348
0.00108225
0.00406182
0.00189302
0.00427982
0.00259858
0.00448042
0.00318515
0.00465974
0.00365453
0.00481714
0.00402055
0.0049542
0.00430809
0.00507389
0.00455182
0.00517994
0.00479037
0.00527571
0.00505329
0.00536269
0.00534528
0.00543943
0.0056359
0.00550152
0.00586333
0.00554312
0.0059501
0.00555898
0.00582505
0.00554618
0.00543926
0.0055046
0.00477619
0.00543694
0.00385196
0.00534895
0.00271182
0.00524868
0.00142521
0.00514872
8.0313e-05
0.00505596
-0.00120483
0.00497828
-0.00234233
0.00491703
-0.00324318
0.00487022
-0.00387658
0.00483231
-0.00423654
0.00479858
-0.00438456
0.00476319
-0.0043488
0.00472498
-0.00423622
0.00468111
-0.00401206
0.004633
-0.00383161
0.00457775
-0.00351699
0.00451344
-0.00338649
0.00444544
-0.00299939
0.00436716
-0.00297677
-0.00244083
0.00299701
0.00288895
2.7923e-05
0.00286517
0.000634095
0.00294754
0.00124626
0.00314033
0.00188873
0.00342788
0.00251403
0.00378425
0.0030507
0.00417984
0.00341701
0.00458329
0.0035379
0.00496336
0.00336805
0.0052936
0.00291124
0.00555843
0.0022073
0.00575326
0.00129469
0.00587351
0.000211114
0.00591421
-0.000989039
0.00586643
-0.00214907
0.00573678
-0.0031317
0.00554852
-0.00385118
0.00533247
-0.00430669
0.00511517
-0.00455118
0.00491284
-0.00464944
0.0047318
-0.00465384
0.00457184
-0.00459943
0.00442976
-0.00450822
0.00430162
-0.00439384
0.00418349
-0.00426441
0.00407164
-0.00412511
0.00396345
-0.00397894
0.00385762
-0.00382496
0.00375146
-0.00365991
0.00363852
-0.00348581
0.00351294
-0.00331171
0.00337929
-0.00313779
0.00325812
-0.00293441
0.00317971
-0.00264228
0.00316973
-0.00220173
0.00323766
-0.00158911
0.00337535
-0.000831104
0.00356494
1.0623e-05
0.00378287
0.000864317
0.00401015
0.00166573
0.00423196
0.00237677
0.00443888
0.00297823
0.00462615
0.00346726
0.00479245
0.00385424
0.00493896
0.00416158
0.00506858
0.0044222
0.00518521
0.00467374
0.00529253
0.00494596
0.00539234
0.00524547
0.00548324
0.00554501
0.00556057
0.005786
0.00561791
0.00589276
0.00564918
0.00579377
0.00565049
0.00543795
0.00562064
0.00480603
0.00556138
0.00391123
0.0054777
0.0027955
0.00537803
0.00152489
0.00527381
0.000184535
0.00517468
-0.0011057
0.00508838
-0.00225602
0.00501744
-0.00317224
0.0049608
-0.00381994
0.00491364
-0.00418938
0.00487176
-0.00434267
0.00482958
-0.00430662
0.0047859
-0.00419253
0.00473798
-0.00396414
0.00468726
-0.0037809
0.00463148
-0.00346121
0.00456794
-0.00332295
0.00450202
-0.00293346
0.00442515
-0.00289991
-0.00238359
0.00339768
0.00011096
0.0033682
0.000663567
0.00341471
0.00119975
0.00355459
0.00174886
0.00378399
0.00228463
0.0040859
0.00274879
0.00443383
0.00306908
0.00479554
0.00317619
0.00513856
0.00302503
0.00543661
0.00261319
0.00567474
0.00196917
0.005847
0.00112243
0.00594551
0.000112601
0.00596135
-0.00100488
0.00588723
-0.00207495
0.00573365
-0.00297811
0.00552732
-0.00364485
0.0052999
-0.00407927
0.00507657
-0.00432786
0.00487151
-0.00444438
0.00468946
-0.00447179
0.00452946
-0.00443944
0.00438807
-0.00436684
0.0042614
-0.00426717
0.00414578
-0.00414879
0.00403763
-0.00401696
0.00393407
-0.00387538
0.00383379
-0.00372468
0.00373537
-0.00356149
0.00363395
-0.00338439
0.00352265
-0.00320041
0.00340124
-0.00301639
0.00328429
-0.00281746
0.0031991
-0.00255709
0.00317333
-0.00217596
0.00322182
-0.00163759
0.00334163
-0.000950921
0.00351831
-0.00016605
0.00372919
0.000653432
0.00395483
0.0014401
0.00417909
0.0021525
0.00439141
0.00276591
0.004586
0.00327268
0.00476075
0.00367949
0.00491632
0.00400601
0.00505546
0.00428307
0.00518216
0.00454704
0.0053004
0.00482773
0.00541227
0.00513361
0.00551655
0.00544072
0.00560849
0.00569406
0.00568122
0.00582004
0.00572794
0.00574705
0.00574377
0.00542212
0.00572647
0.00482333
0.00567663
0.00396107
0.00559865
0.00287348
0.00550094
0.00162259
0.00539441
0.000291063
0.00529025
-0.00100154
0.00519653
-0.0021623
0.00511686
-0.00309257
0.00505108
-0.00375416
0.0049951
-0.0041334
0.00494527
-0.00429285
0.00489642
-0.00425777
0.00484733
-0.00414344
0.0047954
-0.0039122
0.00474198
-0.00372748
0.00468556
-0.00340479
0.00462268
-0.00326007
0.00455892
-0.00286971
0.00448377
-0.00282475
-0.00232678
0.00380259
0.000144259
0.00379989
0.000666269
0.0038429
0.00115674
0.00395249
0.00163927
0.00413718
0.00209994
0.00438871
0.00249726
0.00468625
0.00277154
0.00500127
0.00286117
0.00530286
0.00272344
0.0055656
0.00235045
0.00577453
0.00176024
0.00592085
0.000976113
0.00599434
3.91143e-05
0.00598259
-0.000993134
0.00588193
-0.00197429
0.00570687
-0.00280305
0.00548652
-0.0034245
0.00525202
-0.00384477
0.00502628
-0.00410212
0.00482113
-0.00423924
0.00463989
-0.00429054
0.00448109
-0.00428064
0.0043413
-0.00422704
0.00421675
-0.00414262
0.00410406
-0.0040361
0.00399995
-0.00391285
0.00390138
-0.00377681
0.00380675
-0.00363006
0.00371545
-0.00347019
0.00362444
-0.00329338
0.00352706
-0.00310303
0.00341942
-0.00290875
0.00330999
-0.00270804
0.00322178
-0.00246887
0.0031828
-0.00213698
0.00321233
-0.00166712
0.00331323
-0.00105182
0.00347363
-0.000326453
0.00367495
0.000452113
0.00389661
0.00121844
0.00412163
0.00192749
0.00433815
0.00254938
0.00453924
0.00307159
0.00472185
0.00349688
0.00488603
0.00384182
0.00503423
0.00413486
0.00517046
0.00441081
0.00529891
0.00469928
0.00542199
0.00501052
0.00553879
0.00532393
0.00564456
0.00558829
0.00573213
0.00573247
0.0057941
0.00568507
0.00582467
0.00539156
0.00582048
0.00482752
0.00578102
0.00400053
0.00571005
0.00294444
0.00561572
0.00171693
0.00550887
0.000397913
0.00540113
-0.000893799
0.00530133
-0.0020625
0.00521404
-0.00300529
0.00513998
-0.00368009
0.00507576
-0.00406918
0.00501834
-0.00423544
0.00496304
-0.00420247
0.0049087
-0.0040891
0.00485289
-0.00385639
0.00479673
-0.00367132
0.00473959
-0.00334765
0.00467725
-0.00319773
0.00461576
-0.00280822
0.00454261
-0.0027516
-0.00227064
0.00407645
0.000131738
0.00411712
0.000625601
0.0041846
0.00108926
0.00429315
0.00153072
0.00445357
0.00193952
0.00466717
0.00228366
0.00492004
0.00251867
0.00518962
0.00259158
0.00544933
0.00246373
0.0056756
0.00212419
0.00585281
0.00158303
0.00597096
0.000857964
0.00601754
-7.46087e-06
0.00597617
-0.000951768
0.00584947
-0.00184758
0.00565609
-0.00260967
0.00542605
-0.00319446
0.00518858
-0.0036073
0.0049636
-0.00387714
0.00476058
-0.00403623
0.00458167
-0.00411163
0.00442518
-0.00412415
0.00428787
-0.00408973
0.00416617
-0.00402092
0.00405694
-0.00392687
0.00395725
-0.00381316
0.00386407