/*--------------------------------*- C++ -*----------------------------------*\
  =========                 |
  \\      /  F ield         | OpenFOAM: The Open Source CFD Toolbox
   \\    /   O peration     | Website:  https://openfoam.org
    \\  /    A nd           | Version:  7
     \\/     M anipulation  |
\*---------------------------------------------------------------------------*/
FoamFile
{
    version     2.0;
    format      ascii;
    class       volVectorField;
    location    "114.999";
    object      U;
}
// * * * * * * * * * * * * * * * * * * * * * * * * * * * * * * * * * * * * * //

dimensions      [0 1 -1 0 0 0 0];

internalField   nonuniform List<vector> 
3700
(
(0.0971642 -0.0133919 3.89217e-22)
(0.170422 0.145035 -4.60006e-21)
(0.242216 0.300112 4.90884e-21)
(0.310286 0.437217 -5.19363e-21)
(0.371708 0.545126 2.81132e-21)
(0.423121 0.618913 -6.09781e-22)
(0.462245 0.660417 2.93761e-21)
(0.488465 0.676192 -1.51639e-21)
(0.501322 0.676091 1.13196e-21)
(0.499007 0.671987 -5.42754e-22)
(0.4815 0.671474 -8.46099e-22)
(0.455895 0.669195 -4.97288e-22)
(0.436185 0.64639 4.55835e-22)
(0.435639 0.582719 -5.22228e-22)
(0.458721 0.470562 7.39133e-22)
(0.500818 0.31826 -2.91841e-22)
(0.554075 0.142659 -1.17461e-21)
(0.611691 -0.0378761 2.50531e-21)
(0.668625 -0.206267 -2.89022e-21)
(0.72084 -0.347927 -3.71784e-22)
(0.765001 -0.453894 2.2381e-21)
(0.799024 -0.522752 -3.84623e-22)
(0.822531 -0.559685 -3.15304e-22)
(0.836567 -0.573421 2.33533e-22)
(0.842819 -0.573076 -1.01393e-21)
(0.843029 -0.56592 7.0951e-22)
(0.838815 -0.556439 3.54222e-23)
(0.831344 -0.54721 -1.87515e-22)
(0.820661 -0.540832 -8.18382e-22)
(0.805607 -0.540354 7.03272e-22)
(0.785022 -0.546634 4.69203e-22)
(0.759481 -0.554742 -8.15266e-22)
(0.731958 -0.553399 -4.43303e-23)
(0.706749 -0.529099 -4.35001e-22)
(0.687598 -0.472273 1.25767e-21)
(0.676647 -0.381142 -8.74003e-22)
(0.67463 -0.261481 3.02779e-22)
(0.681461 -0.1241 -5.92537e-22)
(0.6963 0.0178934 -1.59288e-22)
(0.717484 0.151637 3.74067e-22)
(0.74268 0.266603 -1.71511e-22)
(0.769145 0.356712 7.56663e-23)
(0.794253 0.42082 -1.51259e-22)
(0.816032 0.461815 1.33153e-22)
(0.833349 0.484878 -6.64982e-23)
(0.845851 0.495646 -1.58464e-22)
(0.853801 0.49888 1.03354e-23)
(0.857778 0.498079 -3.82983e-22)
(0.85824 0.496002 3.76987e-22)
(0.855188 0.495302 -1.23234e-22)
(0.848231 0.498188 -2.31268e-22)
(0.837068 0.504959 1.50585e-22)
(0.822008 0.512565 -1.64578e-22)
(0.80412 0.514689 -3.10097e-23)
(0.784891 0.503733 -1.78682e-22)
(0.765739 0.473594 4.06626e-23)
(0.747774 0.421501 4.11446e-23)
(0.731932 0.348318 -1.58481e-22)
(0.71913 0.257715 2.00393e-23)
(0.710301 0.155356 -7.02152e-26)
(0.706177 0.0480251 -6.16828e-23)
(0.707062 -0.0569985 -1.34026e-22)
(0.712649 -0.153098 6.85748e-23)
(0.722142 -0.235163 1.21531e-22)
(0.734172 -0.3003 -1.65199e-23)
(0.747157 -0.348239 -2.09582e-22)
(0.759616 -0.380239 -3.2793e-23)
(0.770307 -0.399529 1.77312e-23)
(0.778517 -0.408176 -1.0103e-23)
(0.783518 -0.411521 1.90437e-23)
(0.784707 -0.4087 2.06268e-23)
(0.781959 -0.409866 -2.625e-23)
(0.773854 -0.401578 -1.66904e-23)
(0.764051 -0.407533 -1.81125e-24)
(0.746836 -0.380229 -2.1469e-24)
(0.737098 -0.386223 -1.48182e-24)
(0.710947 -0.31136 -1.93644e-24)
(0.0203832 -0.0578903 -2.71193e-21)
(0.0940207 0.100577 7.40802e-21)
(0.167949 0.256705 -7.11368e-21)
(0.239658 0.396288 -4.00704e-21)
(0.306468 0.508833 -1.75151e-21)
(0.364736 0.589281 3.15902e-21)
(0.411626 0.638594 -3.29736e-21)
(0.445544 0.662723 8.99966e-21)
(0.464751 0.671608 -3.87503e-21)
(0.467378 0.676436 -6.34539e-22)
(0.455549 0.682007 1.2911e-21)
(0.439089 0.67963 -2.03418e-21)
(0.432666 0.6498 2.69702e-21)
(0.447278 0.575266 -1.99515e-21)
(0.484052 0.452929 -4.002e-21)
(0.536304 0.293745 -2.04793e-21)
(0.595829 0.114716 5.80225e-21)
(0.656364 -0.066641 -1.48208e-21)
(0.713528 -0.233797 9.17907e-21)
(0.763735 -0.37238 -9.12625e-21)
(0.804069 -0.473755 -5.42421e-22)
(0.833056 -0.537243 4.03443e-21)
(0.851032 -0.568915 -3.04188e-22)
(0.859683 -0.578108 9.21346e-22)
(0.861118 -0.574137 -2.27653e-21)
(0.857191 -0.564231 2.72229e-21)
(0.849406 -0.552713 -1.63172e-21)
(0.838835 -0.541764 8.80483e-22)
(0.82558 -0.533374 -2.71817e-22)
(0.808499 -0.530245 1.10335e-21)
(0.786174 -0.533682 5.41768e-23)
(0.758693 -0.539889 -7.21775e-22)
(0.728675 -0.538661 -1.18018e-21)
(0.700475 -0.51677 3.08861e-21)
(0.678244 -0.464074 -1.84293e-21)
(0.664552 -0.377921 1.10535e-22)
(0.660375 -0.263388 7.1527e-22)
(0.665711 -0.130823 -2.36141e-21)
(0.679766 0.00705946 2.45129e-21)
(0.700818 0.137941 -1.29485e-21)
(0.726462 0.251524 -2.44595e-22)
(0.753927 0.341784 1.29014e-21)
(0.780499 0.407316 6.94936e-22)
(0.804071 0.450565 -1.94253e-21)
(0.823361 0.476247 1.3712e-21)
(0.837906 0.489613 -1.22755e-21)
(0.847907 0.495183 2.29021e-21)
(0.853892 0.496421 -1.07366e-21)
(0.856263 0.496243 -7.29124e-22)
(0.854984 0.497512 8.23805e-22)
(0.849699 0.502503 -2.73202e-22)
(0.840197 0.511348 1.66706e-22)
(0.826866 0.52069 -1.62237e-24)
(0.810764 0.523956 -1.10224e-22)
(0.793259 0.513472 1.2398e-21)
(0.775604 0.483208 -4.10703e-22)
(0.758783 0.430463 6.34535e-22)
(0.743683 0.356115 -2.0854e-22)
(0.731223 0.263816 -1.16121e-21)
(0.722364 0.159282 -7.13113e-22)
(0.717897 0.0494655 1.29423e-21)
(0.718185 -0.0581305 -3.71776e-22)
(0.722999 -0.156527 -1.28531e-22)
(0.731637 -0.240331 6.6644e-22)
(0.742804 -0.306429 3.38377e-23)
(0.754953 -0.354529 4.47002e-23)
(0.7666 -0.385962 1.15128e-22)
(0.776491 -0.404197 -1.74476e-22)
(0.783938 -0.411384 2.75853e-22)
(0.788238 -0.413022 1.18937e-22)
(0.788884 -0.408158 -2.53789e-22)
(0.785652 -0.407191 4.70752e-23)
(0.777273 -0.396808 1.12114e-22)
(0.766993 -0.401064 -1.38505e-23)
(0.749784 -0.372885 2.35946e-24)
(0.739514 -0.378248 3.74655e-24)
(0.714262 -0.304334 3.67154e-24)
(-0.044533 -0.10415 1.27333e-20)
(0.0285042 0.0523662 -2.32929e-20)
(0.102867 0.209668 1.74053e-20)
(0.17667 0.35168 -7.02742e-22)
(0.247426 0.468573 -8.74074e-21)
(0.311224 0.555516 1.13997e-20)
(0.364587 0.612772 2.63513e-22)
(0.404859 0.645852 3.23352e-21)
(0.429419 0.664382 -3.04859e-21)
(0.437129 0.677956 -1.61218e-21)
(0.43247 0.688262 8.99707e-21)
(0.4272 0.684109 -1.23683e-20)
(0.435472 0.646581 9.99297e-21)
(0.465396 0.562157 3.53215e-21)
(0.515051 0.431737 -1.90582e-20)
(0.576289 0.267996 1.32672e-20)
(0.641006 0.0875821 -1.12828e-21)
(0.703638 -0.0932413 -3.11279e-21)
(0.76043 -0.258317 -8.05627e-22)
(0.808135 -0.393365 -7.69117e-21)
(0.844206 -0.490013 3.81003e-21)
(0.867812 -0.548275 -1.47404e-21)
(0.880042 -0.575043 4.82959e-21)
(0.883216 -0.580178 -1.70209e-21)
(0.87984 -0.573076 2.85534e-21)
(0.871868 -0.560822 -2.49346e-21)
(0.860659 -0.547559 2.03921e-21)
(0.847135 -0.535139 -2.89316e-21)
(0.831436 -0.524987 -1.5832e-21)
(0.8125 -0.519389 2.01906e-21)
(0.788719 -0.519979 9.40823e-22)
(0.759698 -0.524112 -1.52594e-21)
(0.727593 -0.522841 -8.03547e-22)
(0.696697 -0.503429 3.63212e-21)
(0.671532 -0.455213 -2.39584e-21)
(0.655145 -0.37454 1.16811e-21)
(0.648788 -0.265624 -4.56674e-21)
(0.652521 -0.138227 4.58474e-21)
(0.66564 -0.00461749 -3.18424e-21)
(0.686367 0.123182 2.60498e-21)
(0.712211 0.235299 -1.47064e-21)
(0.740422 0.325681 -3.85042e-22)
(0.768206 0.392636 -6.0667e-22)
(0.793342 0.438164 -1.84097e-21)
(0.814419 0.466505 2.99397e-21)
(0.830877 0.482511 2.27374e-22)
(0.842847 0.49046 -9.89182e-22)
(0.850797 0.493784 5.91662e-22)
(0.855065 0.495552 -1.18598e-22)
(0.855592 0.498815 3.07737e-22)
(0.852059 0.505897 1.13219e-22)
(0.844344 0.516779 8.74718e-23)
(0.832897 0.527844 -2.33521e-21)
(0.818743 0.532323 6.07568e-22)
(0.803118 0.522497 -6.30766e-22)
(0.78711 0.492377 1.24758e-21)
(0.771586 0.439289 -1.39414e-21)
(0.757373 0.364067 5.2796e-23)
(0.745377 0.270331 -1.74629e-21)
(0.736574 0.16382 2.75163e-21)
(0.731775 0.0516368 -5.40685e-22)
(0.731414 -0.0584667 -1.24231e-22)
(0.735359 -0.15917 -1.45362e-22)
(0.743001 -0.244775 3.76741e-22)
(0.753139 -0.311924 2.48709e-22)
(0.764288 -0.360272 5.95413e-22)
(0.774978 -0.391205 -3.09487e-22)
(0.783946 -0.408438 -3.07271e-22)
(0.790524 -0.414212 4.33377e-22)
(0.79404 -0.414218 -5.78587e-23)
(0.794087 -0.407374 2.47955e-22)
(0.790362 -0.404348 -5.96427e-23)
(0.781726 -0.391884 2.47863e-23)
(0.771029 -0.394485 1.15076e-23)
(0.753837 -0.365474 -3.26235e-23)
(0.743084 -0.370297 2.5716e-23)
(0.718619 -0.297594 -1.18302e-24)
(-0.0955397 -0.150683 1.26937e-20)
(-0.0252758 0.00274026 -1.80004e-20)
(0.0485509 0.159217 2.01086e-20)
(0.12241 0.303759 -2.09884e-21)
(0.195334 0.42458 4.97095e-21)
(0.263049 0.517883 4.06276e-21)
(0.321252 0.583251 -8.39065e-21)
(0.366395 0.625764 3.61121e-21)
(0.395574 0.65415 -7.07734e-21)
(0.408949 0.67571 -5.88855e-22)
(0.413134 0.689189 1.70517e-20)
(0.420809 0.681929 -1.57981e-20)
(0.444583 0.636678 -3.50915e-21)
(0.48943 0.543847 1.32443e-20)
(0.550856 0.407664 -7.54462e-22)
(0.619857 0.241714 -4.62503e-21)
(0.688696 0.0616675 2.69801e-21)
(0.752687 -0.117394 3.61566e-21)
(0.808663 -0.279642 2.71716e-21)
(0.85349 -0.410759 -1.13543e-21)
(0.884958 -0.502588 -8.98987e-21)
(0.902927 -0.555815 5.50309e-21)
(0.909284 -0.578089 4.78228e-21)
(0.906975 -0.579684 2.99849e-21)
(0.898863 -0.569975 -8.92569e-21)
(0.886977 -0.555799 6.39743e-21)
(0.87252 -0.541092 -2.76317e-21)
(0.85622 -0.527451 1.54604e-21)
(0.838218 -0.515805 -2.87233e-21)
(0.81758 -0.507971 3.31016e-21)
(0.792607 -0.505772 -1.04882e-21)
(0.762445 -0.507664 5.35792e-22)
(0.728695 -0.506115 1.48034e-21)
(0.695445 -0.489121 1.75789e-21)
(0.667515 -0.445623 -1.21446e-21)
(0.64846 -0.37087 4.715e-23)
(0.639884 -0.268047 1.1154e-21)
(0.641942 -0.1462 -4.40583e-21)
(0.65391 -0.0170594 -7.65787e-22)
(0.67406 0.107498 3.62847e-21)
(0.699895 0.218065 -2.16256e-21)
(0.728598 0.308518 3.85391e-21)
(0.757343 0.376871 1.20599e-21)
(0.783814 0.424675 -2.69352e-21)
(0.806494 0.455689 1.91044e-21)
(0.824732 0.474357 -3.45621e-22)
(0.838586 0.484711 1.10377e-21)
(0.848451 0.490153 -5.61539e-22)
(0.854603 0.493893 -2.62858e-22)
(0.856959 0.499148 -1.89326e-22)
(0.855252 0.508282 3.32288e-22)
(0.849441 0.521145 1.50403e-21)
(0.840024 0.533916 -2.35469e-21)
(0.827971 0.539685 1.36847e-21)
(0.81438 0.530705 8.05714e-22)
(0.800179 0.501005 6.66666e-22)
(0.786118 0.447888 -9.1072e-22)
(0.772957 0.372102 3.63558e-21)
(0.761567 0.277206 -1.65335e-21)
(0.752906 0.168951 -2.67467e-21)
(0.747809 0.054553 1.35894e-22)
(0.746775 -0.0579535 3.74604e-21)
(0.749756 -0.160946 1.19765e-21)
(0.756261 -0.248404 -1.95651e-21)
(0.765206 -0.316692 1.35581e-22)
(0.775185 -0.365388 -1.99172e-22)
(0.784764 -0.395898 -9.79731e-24)
(0.792677 -0.412196 4.63364e-22)
(0.798275 -0.416617 -8.42299e-22)
(0.800915 -0.415077 5.37837e-22)
(0.800296 -0.406336 -1.31832e-22)
(0.79605 -0.401343 -9.57281e-23)
(0.787165 -0.38683 -5.09384e-23)
(0.7761 -0.387818 -7.51558e-23)
(0.758932 -0.358012 4.66794e-23)
(0.747739 -0.362361 -1.40366e-23)
(0.72393 -0.291107 5.34402e-24)
(-0.12862 -0.196061 1.48036e-21)
(-0.0658353 -0.0462112 -1.34542e-20)
(0.00493738 0.106067 2.33512e-20)
(0.0773619 0.253164 -2.20153e-20)
(0.150314 0.377302 1.99293e-20)
(0.220201 0.476846 -7.6034e-21)
(0.281505 0.550437 -2.12749e-21)
(0.330222 0.602565 -1.72913e-20)
(0.363752 0.640438 2.66628e-20)
(0.383776 0.66879 -2.67247e-20)
(0.398462 0.683935 2.07926e-20)
(0.420359 0.672745 -4.21221e-21)
(0.459803 0.620378 4.81221e-22)
(0.518704 0.52103 -4.71517e-21)
(0.59054 0.381484 -1.76846e-21)
(0.665952 0.21549 1.42294e-20)
(0.737966 0.0373283 -6.76325e-21)
(0.802806 -0.13889 -4.47755e-21)
(0.85761 -0.297667 -6.6216e-21)
(0.899264 -0.424502 -8.89376e-21)
(0.92587 -0.511451 1.37113e-20)
(0.938031 -0.559877 -1.38993e-20)
(0.938477 -0.578103 8.08766e-21)
(0.930763 -0.576709 1.47815e-21)
(0.918051 -0.564931 -5.6906e-21)
(0.902423 -0.549274 4.31043e-21)
(0.884917 -0.533431 -3.05189e-21)
(0.86604 -0.518813 2.2815e-21)
(0.845894 -0.505951 -1.93518e-21)
(0.823693 -0.49616 -2.63775e-21)
(0.797755 -0.491301 -3.31196e-21)
(0.76683 -0.490818 5.57012e-21)
(0.731901 -0.488691 8.33333e-22)
(0.696688 -0.473918 1.26519e-21)
(0.666194 -0.435234 -4.889e-21)
(0.644493 -0.366762 1.57146e-22)
(0.633616 -0.270471 4.55065e-21)
(0.633886 -0.154547 -6.75079e-21)
(0.644534 -0.030254 4.50275e-21)
(0.663877 0.0910228 -2.9985e-21)
(0.689462 0.199956 -2.56148e-21)
(0.718403 0.29041 -2.1295e-21)
(0.747858 0.360114 5.21111e-21)
(0.77544 0.410167 -1.37588e-21)
(0.799542 0.443842 -1.63855e-21)
(0.819427 0.465169 1.04811e-21)
(0.835076 0.477937 -3.47456e-23)
(0.846802 0.485513 -1.60152e-21)
(0.854814 0.491233 2.54743e-21)
(0.85902 0.498457 -2.94693e-21)
(0.859203 0.509581 -5.9214e-22)
(0.855402 0.524353 2.3093e-21)
(0.848143 0.538804 -3.57399e-21)
(0.838332 0.545939 1.95432e-21)
(0.826926 0.537993 2.29474e-21)
(0.814696 0.508989 -4.70745e-21)
(0.802274 0.45616 9.51115e-22)
(0.790341 0.380139 -2.06096e-21)
(0.779712 0.284381 -1.95327e-21)
(0.771303 0.174646 2.45818e-21)
(0.76596 0.0582588 -2.0421e-21)
(0.764236 -0.0565366 -1.6014e-21)
(0.766174 -0.161782 1.66812e-21)
(0.771415 -0.25113 9.40766e-22)
(0.779006 -0.320642 -1.24504e-21)
(0.787644 -0.369789 -1.49496e-21)
(0.795953 -0.39997 -4.24502e-22)
(0.802673 -0.415412 4.13989e-22)
(0.807177 -0.418552 3.30031e-22)
(0.808841 -0.415563 -5.87407e-22)
(0.80748 -0.405025 -1.56183e-22)
(0.802673 -0.398174 2.24837e-22)
(0.793533 -0.381665 -1.66155e-22)
(0.782141 -0.381081 -4.04322e-23)
(0.764995 -0.350513 -6.80621e-23)
(0.753409 -0.354426 -1.06667e-23)
(0.73011 -0.284833 -1.09859e-23)
(-0.0907966 -0.0944028 2.2714e-20)
(-0.026755 0.0528296 -2.72339e-20)
(0.0419866 0.200869 3.43597e-21)
(0.112328 0.327599 9.74161e-21)
(0.182558 0.433086 -9.73909e-21)
(0.245374 0.514749 -1.32856e-20)
(0.296814 0.576188 9.44158e-21)
(0.334946 0.622625 1.20207e-20)
(0.362837 0.656368 -2.50519e-21)
(0.389418 0.67193 1.53145e-20)
(0.426189 0.656567 -2.12458e-20)
(0.480823 0.598226 -1.1094e-20)
(0.552463 0.494493 3.03093e-20)
(0.633132 0.353934 -7.74194e-21)
(0.713617 0.189861 1.13546e-20)
(0.787982 0.0150421 -4.42163e-20)
(0.853271 -0.157591 4.52611e-20)
(0.906673 -0.312356 -3.22331e-20)
(0.944937 -0.434583 4.12096e-21)
(0.96649 -0.516615 2.58948e-20)
(0.972755 -0.560507 -1.32469e-20)
(0.967338 -0.575175 1.04048e-21)
(0.954374 -0.571361 8.98467e-22)
(0.937267 -0.558058 -9.2552e-21)
(0.918104 -0.541365 2.78577e-21)
(0.897764 -0.524699 1.60561e-21)
(0.876527 -0.509338 1.09311e-21)
(0.85441 -0.495531 1.98445e-21)
(0.830778 -0.484102 -3.53915e-22)
(0.804058 -0.476785 1.92019e-21)
(0.772709 -0.473847 -1.05449e-21)
(0.737068 -0.470808 1.2466e-21)
(0.700332 -0.457923 -4.56452e-21)
(0.66752 -0.423988 4.81641e-21)
(0.643205 -0.36205 -5.16225e-21)
(0.629937 -0.27268 5.17613e-21)
(0.628241 -0.163053 1.3028e-21)
(0.637402 -0.0438308 6.26502e-21)
(0.655763 0.0739553 -8.19014e-21)
(0.680835 0.181125 -5.44629e-22)
(0.709761 0.271482 1.65903e-21)
(0.739682 0.342458 3.35402e-21)
(0.768159 0.394705 5.50813e-21)
(0.793507 0.431004 -3.28282e-22)
(0.814908 0.454971 -5.24019e-21)
(0.832258 0.470146 2.95218e-21)
(0.845783 0.479858 2.14474e-21)
(0.855628 0.487548 -2.25872e-21)
(0.861693 0.496695 -5.72866e-23)
(0.863819 0.509724 -2.84816e-23)
(0.862115 0.526317 2.37183e-21)
(0.857126 0.542417 5.6949e-22)
(0.849685 0.550986 -1.90745e-21)
(0.840605 0.544257 1.18813e-21)
(0.83051 0.516218 8.43176e-22)
(0.819909 0.463997 -7.00792e-22)
(0.809386 0.388074 5.84098e-21)
(0.799685 0.291793 2.65904e-21)
(0.791658 0.180871 -3.37495e-21)
(0.786133 0.0627474 -2.8313e-21)
(0.783717 -0.0541829 5.17776e-21)
(0.784557 -0.161612 -2.79845e-22)
(0.788422 -0.252866 -2.04922e-22)
(0.794509 -0.323681 2.92699e-21)
(0.80164 -0.373389 5.25876e-22)
(0.80852 -0.403346 2.71306e-22)
(0.813908 -0.418025 1.34059e-21)
(0.817202 -0.419966 1.78106e-22)
(0.817788 -0.415637 1.16705e-21)
(0.815601 -0.403415 2.56912e-23)
(0.810182 -0.394832 1.30494e-22)
(0.800766 -0.376401 -3.48703e-23)
(0.789082 -0.374289 3.41702e-22)
(0.771952 -0.342986 5.24739e-23)
(0.760021 -0.346476 2.17693e-23)
(0.737076 -0.278726 1.612e-23)
(-0.0950052 -0.137621 -1.46595e-20)
(-0.0433896 0.00411231 1.85954e-20)
(0.0176 0.148065 -1.0945e-20)
(0.0823288 0.276669 -1.73188e-21)
(0.150783 0.387312 7.85985e-21)
(0.213729 0.476478 9.70483e-21)
(0.267459 0.546362 -1.05178e-20)
(0.310761 0.600089 -1.10485e-20)
(0.347661 0.637838 2.39468e-20)
(0.386995 0.652958 -2.49213e-20)
(0.438553 0.633723 5.5948e-22)
(0.507272 0.570927 3.28638e-20)
(0.589964 0.465015 2.28842e-21)
(0.67776 0.32565 -2.93966e-20)
(0.762057 0.165201 -8.84353e-21)
(0.838038 -0.0052689 4.63766e-21)
(0.903461 -0.173506 2.0343e-20)
(0.955328 -0.323728 -4.45097e-20)
(0.990022 -0.441024 4.05792e-20)
(1.00638 -0.518119 -2.46848e-20)
(1.00674 -0.557791 -2.91797e-21)
(0.995587 -0.56943 1.6186e-20)
(0.97761 -0.56378 1.16231e-22)
(0.956371 -0.549486 1.28337e-20)
(0.933914 -0.532194 -1.00549e-20)
(0.910971 -0.515016 -5.36846e-21)
(0.887598 -0.499137 1.06402e-20)
(0.863697 -0.484638 -6.11072e-21)
(0.838761 -0.47191 -1.15961e-21)
(0.8114 -0.462413 -4.38216e-21)
(0.779906 -0.457016 5.71219e-22)
(0.744002 -0.452731 -5.47237e-22)
(0.706219 -0.441282 -1.74932e-21)
(0.671401 -0.411855 2.42649e-21)
(0.644537 -0.356559 2.93892e-22)
(0.628761 -0.274445 -7.00857e-22)
(0.624954 -0.171495 3.71896e-21)
(0.632423 -0.0576172 -5.21396e-21)
(0.649552 0.0564587 5.81212e-21)
(0.673902 0.16172 -8.44995e-21)
(0.702578 0.251855 5.13566e-21)
(0.732734 0.324001 -5.29757e-21)
(0.761897 0.378359 2.09978e-21)
(0.78832 0.417221 2.83854e-22)
(0.811107 0.443786 8.3925e-22)
(0.830063 0.461347 1.53129e-21)
(0.845322 0.473183 -3.56688e-21)
(0.856963 0.482817 -1.9957e-21)
(0.864888 0.493825 5.37341e-21)
(0.868994 0.508659 4.86822e-23)
(0.869456 0.526972 5.45424e-22)
(0.866826 0.544676 -4.13569e-21)
(0.861862 0.554736 -3.25789e-22)
(0.855241 0.549392 -4.23935e-21)
(0.847437 0.522579 4.45694e-21)
(0.838834 0.471283 5.87385e-22)
(0.829911 0.395805 -7.05375e-21)
(0.821312 0.299352 7.82207e-21)
(0.813807 0.187574 -7.56907e-21)
(0.808185 0.0679876 1.09702e-21)
(0.805096 -0.0508747 9.05838e-23)
(0.804803 -0.160385 -4.56912e-21)
(0.807202 -0.25354 6.98296e-21)
(0.811656 -0.325723 -2.81336e-23)
(0.817125 -0.376103 -1.04278e-21)
(0.822422 -0.405951 -1.6709e-21)
(0.82634 -0.419974 -3.37774e-22)
(0.828308 -0.42081 -6.46366e-23)
(0.827714 -0.415253 -9.08803e-23)
(0.824613 -0.401475 -6.91459e-23)
(0.818521 -0.391303 -4.60411e-22)
(0.808798 -0.371043 -2.30169e-23)
(0.796844 -0.367451 -1.05306e-23)
(0.779721 -0.335442 7.57194e-24)
(0.767499 -0.338497 -4.44318e-23)
(0.744752 -0.272743 -8.02728e-24)
(-0.0718924 -0.171467 1.56672e-20)
(-0.0401446 -0.0388096 -1.47218e-20)
(0.00740574 0.0969249 1.23835e-20)
(0.0634694 0.226061 -1.33285e-20)
(0.127309 0.340333 7.81286e-21)
(0.18892 0.435845 1.12819e-20)
(0.244549 0.512802 -1.66903e-20)
(0.293477 0.572389 2.20685e-20)
(0.340022 0.612936 -1.8061e-20)
(0.39218 0.627204 -1.22137e-20)
(0.457642 0.604851 -4.52492e-22)
(0.538768 0.539349 2.99647e-20)
(0.630536 0.433406 -3.82869e-20)
(0.723696 0.297171 4.0762e-20)
(0.81057 0.141716 -1.321e-21)
(0.887665 -0.0235481 7.99013e-21)
(0.953046 -0.186688 -2.01087e-20)
(1.00314 -0.331841 1.40023e-20)
(1.03406 -0.443878 -2.99523e-21)
(1.04512 -0.516051 -1.12486e-20)
(1.03962 -0.551865 1.80259e-20)
(1.02296 -0.561031 -1.7693e-20)
(1.00028 -0.554128 1.30647e-20)
(0.975225 -0.53936 -3.33965e-21)
(0.949751 -0.521888 -9.87421e-21)
(0.92444 -0.504504 -4.37755e-21)
(0.899159 -0.488319 5.13888e-21)
(0.873669 -0.473355 -4.27641e-21)
(0.847556 -0.459662 -4.45014e-21)
(0.819658 -0.44833 1.04139e-20)
(0.788233 -0.440567 -4.55255e-21)
(0.752468 -0.434736 -2.90752e-21)
(0.714138 -0.42419 -2.95872e-21)
(0.677695 -0.398851 1.16495e-20)
(0.6484 -0.350133 -7.89909e-21)
(0.630016 -0.275536 -1.35103e-21)
(0.623877 -0.179596 4.48097e-21)
(0.629459 -0.0714066 3.6401e-21)
(0.64517 0.0387304 -6.16395e-21)
(0.66856 0.141901 1.3818e-21)
(0.696749 0.231657 -4.39961e-21)
(0.726919 0.304837 5.79664e-21)
(0.756571 0.361197 -3.05042e-21)
(0.783906 0.402537 7.09121e-23)
(0.807951 0.431642 3.33829e-21)
(0.828415 0.451557 -5.40486e-21)
(0.845335 0.465494 3.83154e-21)
(0.85873 0.477033 -4.88266e-21)
(0.868504 0.489822 5.64262e-21)
(0.87461 0.506347 -3.35622e-21)
(0.877282 0.526266 -2.61403e-21)
(0.877078 0.545517 -1.93998e-21)
(0.874677 0.55711 2.03175e-21)
(0.870626 0.553304 -2.2812e-21)
(0.86526 0.527961 1.64499e-21)
(0.858827 0.477898 6.57875e-21)
(0.85169 0.403221 -3.15614e-21)
(0.844367 0.306957 -6.18307e-22)
(0.837538 0.194697 -2.2518e-21)
(0.83192 0.0739404 -6.30672e-21)
(0.828204 -0.0466085 7.93644e-21)
(0.82677 -0.158061 -5.05102e-21)
(0.827639 -0.253088 -8.59447e-21)
(0.830351 -0.326693 2.56002e-21)
(0.834022 -0.377852 8.35244e-22)
(0.837593 -0.407713 -1.76984e-21)
(0.839909 -0.421199 2.82428e-22)
(0.840441 -0.421032 -3.42934e-22)
(0.838567 -0.41437 -1.34755e-21)
(0.834463 -0.399171 5.84689e-22)
(0.827628 -0.387565 -7.14649e-22)
(0.817556 -0.365591 -1.87718e-22)
(0.805349 -0.360575 -2.26443e-23)
(0.788218 -0.327891 -8.14938e-23)
(0.775764 -0.330476 7.35581e-24)
(0.753065 -0.266836 -1.21748e-23)
(-0.0171712 -0.192693 -2.52261e-20)
(-0.0108696 -0.0733515 -2.03073e-21)
(0.0178065 0.050915 1.27447e-20)
(0.0609522 0.177767 -2.6429e-21)
(0.116603 0.29335 7.16886e-21)
(0.174879 0.393253 -5.96479e-21)
(0.231519 0.475535 -1.18756e-22)
(0.285876 0.539483 6.12645e-21)
(0.341808 0.581864 -1.79029e-21)
(0.405902 0.595273 -1.32895e-20)
(0.483592 0.570876 1.55173e-20)
(0.574952 0.504489 1.52051e-21)
(0.673605 0.400504 -7.90861e-21)
(0.770379 0.269019 -4.76333e-23)
(0.85879 0.119621 4.36765e-20)
(0.936532 -0.0396677 -2.45806e-20)
(1.00163 -0.197254 -3.50328e-20)
(1.0497 -0.336801 1.48789e-21)
(1.0766 -0.44325 4.1042e-20)
(1.08227 -0.510557 -2.36657e-20)
(1.07106 -0.542908 1.74718e-20)
(1.04919 -0.550173 -2.13818e-20)
(1.02219 -0.542592 2.32374e-21)
(0.993701 -0.527837 1.93227e-20)
(0.965513 -0.510576 -1.08579e-20)
(0.938078 -0.493282 -6.98821e-22)
(0.911112 -0.476996 1.22592e-21)
(0.884231 -0.461763 3.38241e-21)
(0.857068 -0.447412 -7.81508e-21)
(0.828708 -0.434627 1.59325e-22)
(0.797498 -0.424699 -3.64794e-22)
(0.762207 -0.417104 4.65034e-21)
(0.723825 -0.406887 5.05603e-21)
(0.686209 -0.385052 -2.00965e-21)
(0.654685 -0.342656 4.16549e-21)
(0.633626 -0.275709 -7.52939e-21)
(0.62496 -0.187111 2.92397e-21)
(0.628398 -0.0849284 -6.92925e-21)
(0.642448 0.0209645 8.11607e-21)
(0.664672 0.121826 -1.68314e-22)
(0.69216 0.211012 -4.67155e-21)
(0.722137 0.285064 1.54386e-21)
(0.752093 0.343288 -8.77592e-22)
(0.780183 0.387 2.30715e-21)
(0.805359 0.418572 1.49204e-21)
(0.82723 0.440794 -5.01358e-21)
(0.845735 0.4568 3.99192e-21)
(0.860834 0.470194 -5.34188e-22)
(0.872432 0.484675 1.30266e-22)
(0.880539 0.502766 -2.40602e-21)
(0.885443 0.524167 -1.89229e-21)
(0.887704 0.544893 3.27608e-21)
(0.887927 0.558042 3.20055e-21)
(0.886539 0.555904 -3.23722e-21)
(0.883735 0.532259 2.91088e-21)
(0.87963 0.483727 -4.42434e-22)
(0.874457 0.410204 -1.24428e-20)
(0.868591 0.314507 8.91231e-21)
(0.86259 0.20216 5.98282e-21)
(0.857091 0.0805726 -1.6514e-21)
(0.852829 -0.041392 2.54047e-21)
(0.85027 -0.154621 6.44536e-21)
(0.849576 -0.251464 -3.16896e-21)
(0.85047 -0.326526 -5.15783e-21)
(0.852229 -0.378564 4.59939e-21)
(0.853948 -0.408564 5.41248e-24)
(0.854538 -0.421641 2.3428e-21)
(0.853529 -0.420585 -1.13529e-21)
(0.850282 -0.412944 1.141e-21)
(0.84509 -0.396468 8.37592e-22)
(0.83744 -0.383592 -2.43453e-22)
(0.826966 -0.36004 1.3407e-22)
(0.814513 -0.353667 2.18588e-22)
(0.797357 -0.320342 -6.78862e-24)
(0.784736 -0.322402 8.10456e-23)
(0.761945 -0.260962 -8.35077e-24)
(0.0709108 -0.199533 -2.63171e-21)
(0.0488933 -0.0975075 -7.00803e-21)
(0.0541896 0.0142958 4.457e-21)
(0.0808197 0.134429 2.56334e-21)
(0.124236 0.248119 -2.5661e-21)
(0.17642 0.349682 -1.82378e-21)
(0.232324 0.435173 -8.15375e-21)
(0.290853 0.501913 1.71452e-20)
(0.354795 0.545361 -2.68134e-21)
(0.428938 0.558174 -1.09516e-20)
(0.516463 0.532941 5.20898e-21)
(0.615484 0.467416 -2.59813e-22)
(0.718694 0.367115 -1.36703e-20)
(0.817387 0.241646 1.54271e-20)
(0.906432 0.0990213 1.20772e-21)
(0.984429 -0.0538295 -1.88849e-20)
(1.04894 -0.205323 3.02073e-20)
(1.09463 -0.338721 -2.42013e-20)
(1.11721 -0.439283 -2.12933e-20)
(1.11745 -0.50182 3.54919e-20)
(1.10075 -0.53114 -9.79321e-21)
(1.07408 -0.53708 1.48635e-20)
(1.04321 -0.529374 -2.44091e-20)
(1.01168 -0.515084 1.32945e-20)
(0.981105 -0.49839 3.98294e-21)
(0.951794 -0.481461 -8.80561e-21)
(0.923356 -0.465272 3.18058e-21)
(0.895282 -0.449941 -1.19738e-21)
(0.867202 -0.435199 -5.67116e-21)
(0.838432 -0.421345 6.02829e-22)
(0.807515 -0.409548 3.89338e-21)
(0.772953 -0.400091 -1.02718e-21)
(0.734979 -0.389649 -4.1724e-22)
(0.696695 -0.370603 -1.87783e-21)
(0.663246 -0.334067 8.98934e-21)
(0.639508 -0.274739 -6.00539e-21)
(0.6281 -0.193786 3.74321e-22)
(0.629132 -0.0979765 5.89917e-21)
(0.641296 0.00345678 -3.32051e-21)
(0.662129 0.101664 4.49879e-21)
(0.688697 0.190045 -5.63381e-21)
(0.718285 0.264776 1.82402e-21)
(0.748369 0.324703 -2.93557e-21)
(0.777064 0.37066 3.13688e-21)
(0.803246 0.40461 1.2288e-21)
(0.826423 0.429086 9.33262e-23)
(0.846433 0.44712 -3.21098e-21)
(0.863176 0.462313 6.99169e-22)
(0.876562 0.47839 -1.62627e-21)
(0.886652 0.497913 1.03014e-21)
(0.893783 0.520663 3.96701e-21)
(0.898518 0.542778 -4.29576e-21)
(0.901399 0.557486 5.03997e-21)
(0.902738 0.557119 -4.85683e-21)
(0.902601 0.535374 -2.91558e-21)
(0.900964 0.48866 5.36242e-21)
(0.897915 0.416633 1.24494e-20)
(0.893684 0.32191 4.56628e-21)
(0.888664 0.209848 -1.67925e-20)
(0.883418 0.0878651 3.31767e-21)
(0.878708 -0.0352361 4.93853e-22)
(0.875075 -0.150058 -2.92523e-21)
(0.872819 -0.248639 -3.33191e-22)
(0.871852 -0.325175 1.00215e-20)
(0.871617 -0.378182 -8.82017e-22)
(0.871378 -0.408445 -3.57529e-21)
(0.870133 -0.421248 3.14967e-21)
(0.86749 -0.419425 -2.3054e-21)
(0.862786 -0.410936 -1.572e-21)
(0.856425 -0.39333 3.79873e-22)
(0.847887 -0.379355 6.02515e-22)
(0.836952 -0.35438 1.25682e-22)
(0.824253 -0.346725 1.3156e-22)
(0.807051 -0.312804 -1.63457e-23)
(0.794333 -0.31427 -2.7374e-24)
(0.771328 -0.255082 2.20679e-23)
(0.18686 -0.192539 1.02304e-21)
(0.140134 -0.10864 -3.17717e-22)
(0.120842 -0.0097355 -3.67762e-21)
(0.127099 0.098757 1.09789e-22)
(0.155047 0.206848 4.17111e-21)
(0.197974 0.306826 -4.15459e-22)
(0.250541 0.393026 -8.37313e-22)
(0.310885 0.460868 -2.04379e-21)
(0.380366 0.504689 5.52753e-21)
(0.461787 0.517248 -2.36527e-20)
(0.556184 0.492347 4.51063e-21)
(0.660013 0.429221 -2.59444e-21)
(0.76541 0.333987 8.85198e-21)
(0.86445 0.215414 3.27547e-20)
(0.953365 0.0799945 -2.08289e-20)
(1.03124 -0.0660925 -8.80443e-21)
(1.09475 -0.210986 -7.81856e-21)
(1.13756 -0.337701 4.90853e-20)
(1.15549 -0.432122 1.36237e-22)
(1.15028 -0.490054 -9.3575e-21)
(1.12841 -0.516811 -1.77266e-20)
(1.09743 -0.522 1.63719e-20)
(1.06319 -0.514689 -2.44811e-20)
(1.02906 -0.501272 1.48246e-20)
(0.996438 -0.485458 -1.09527e-20)
(0.965501 -0.469148 8.58775e-21)
(0.935794 -0.453246 -5.73677e-21)
(0.906718 -0.43797 5.56504e-21)
(0.87786 -0.423055 -6.50571e-21)
(0.848723 -0.408495 2.69953e-21)
(0.818118 -0.395185 -3.63313e-21)
(0.784448 -0.383902 4.67122e-21)
(0.747281 -0.372764 -4.16529e-21)
(0.708856 -0.35572 1.89983e-21)
(0.673892 -0.324383 1.35802e-21)
(0.647574 -0.272449 1.07138e-21)
(0.633268 -0.199325 -4.84581e-21)
(0.631659 -0.110238 3.40836e-22)
(0.641605 -0.013642 6.3897e-21)
(0.660766 0.0815689 -7.51022e-21)
(0.686247 0.168888 3.42592e-21)
(0.715263 0.244074 -4.15591e-21)
(0.745309 0.305517 5.23438e-21)
(0.774464 0.353573 -6.32064e-21)
(0.801528 0.389799 2.31976e-21)
(0.825906 0.416466 2.56332e-21)
(0.847336 0.436482 -3.70154e-21)
(0.865658 0.453412 5.04663e-21)
(0.880782 0.470985 -2.8513e-21)
(0.892816 0.491806 -1.42584e-21)
(0.902145 0.515765 -3.08326e-21)
(0.909336 0.539168 4.33881e-21)
(0.914876 0.555413 -3.65799e-21)
(0.918978 0.556894 -3.00279e-21)
(0.921583 0.537221 7.81507e-22)
(0.922529 0.49259 5.23331e-21)
(0.92175 0.422397 5.1451e-21)
(0.919306 0.329045 -1.20119e-20)
(0.915445 0.217692 -7.65354e-21)
(0.910599 0.0956789 1.64014e-20)
(0.905534 -0.0282212 -2.46427e-21)
(0.900919 -0.144397 -2.84133e-21)
(0.897144 -0.244608 5.04167e-21)
(0.894312 -0.322611 -8.94673e-22)
(0.892033 -0.376659 -3.78489e-21)
(0.889757 -0.407307 2.03518e-21)
(0.886587 -0.419974 1.61135e-21)
(0.882228 -0.417513 -2.28938e-21)
(0.875995 -0.408308 -7.48901e-22)
(0.868394 -0.389722 1.02724e-21)
(0.858898 -0.374823 -1.89935e-23)
(0.847436 -0.348597 -3.37957e-22)
(0.834486 -0.339749 9.36166e-23)
(0.817211 -0.305287 -4.19091e-24)
(0.80447 -0.30608 -5.90511e-23)
(0.78115 -0.249162 7.51128e-24)
(0.257133 -0.105355 1.98749e-21)
(0.215675 -0.022017 5.53011e-22)
(0.200757 0.072809 3.68916e-21)
(0.211322 0.171792 -1.37081e-20)
(0.242151 0.266802 9.84634e-21)
(0.28838 0.350963 4.80824e-23)
(0.347434 0.418085 -4.38966e-21)
(0.419197 0.461519 1.54291e-21)
(0.504512 0.474077 5.84982e-21)
(0.602457 0.450485 2.77729e-20)
(0.70812 0.390982 -7.1445e-20)
(0.813423 0.3018 6.10428e-20)
(0.911451 0.190605 -3.61539e-20)
(0.999601 0.0625469 9.16954e-23)
(1.0769 -0.0765131 1.99684e-20)
(1.13881 -0.214288 5.3167e-20)
(1.1781 -0.333815 -1.14483e-19)
(1.19101 -0.421928 7.61289e-20)
(1.18044 -0.475503 -2.17212e-20)
(1.15382 -0.500204 -2.01375e-21)
(1.11909 -0.505198 2.05683e-20)
(1.08202 -0.498759 -1.1287e-21)
(1.04575 -0.486572 -1.83069e-20)
(1.01143 -0.471907 6.79403e-21)
(0.979119 -0.456438 -2.46372e-22)
(0.948336 -0.441007 -8.21953e-22)
(0.918435 -0.425924 5.8691e-23)
(0.888943 -0.411014 -6.3318e-22)
(0.859486 -0.396068 -8.97221e-23)
(0.829167 -0.38163 3.24169e-21)
(0.796456 -0.368675 -2.03865e-21)
(0.760405 -0.356499 -1.57265e-23)
(0.722357 -0.340675 -1.2244e-21)
(0.686377 -0.313712 7.76367e-22)
(0.657715 -0.26873 -3.65444e-21)
(0.640417 -0.203461 5.20503e-21)
(0.635899 -0.121476 -4.24478e-22)
(0.643326 -0.0302346 -1.17435e-21)
(0.660547 0.0617196 1.56565e-22)
(0.68472 0.14768 2.46451e-22)
(0.712979 0.223064 2.14863e-21)
(0.742824 0.285808 -1.77088e-21)
(0.772298 0.335797 -1.66913e-22)
(0.800121 0.374186 1.92445e-21)
(0.825595 0.402973 -2.96443e-22)
(0.848356 0.42492 -2.98188e-21)
(0.868182 0.443522 -1.17881e-21)
(0.884982 0.462494 1.90284e-21)
(0.898903 0.484479 3.69794e-21)
(0.910375 0.509504 -2.0712e-21)
(0.919973 0.534083 -1.66858e-21)
(0.928143 0.551819 2.88847e-21)