/*--------------------------------*- C++ -*----------------------------------*\
  =========                 |
  \\      /  F ield         | OpenFOAM: The Open Source CFD Toolbox
   \\    /   O peration     | Website:  https://openfoam.org
    \\  /    A nd           | Version:  7
     \\/     M anipulation  |
\*---------------------------------------------------------------------------*/
FoamFile
{
    version     2.0;
    format      ascii;
    class       volScalarField;
    location    "15";
    object      p;
}
// * * * * * * * * * * * * * * * * * * * * * * * * * * * * * * * * * * * * * //

dimensions      [0 2 -2 0 0 0 0];

internalField   nonuniform List<scalar> 
3313
(
-0.256727
-0.257965
-0.258842
-0.259488
-0.260042
-0.260536
-0.260993
-0.261432
-0.261871
-0.257069
-0.258277
-0.259132
-0.259761
-0.260298
-0.260777
-0.261217
-0.26164
-0.262061
-0.257739
-0.258888
-0.259701
-0.260296
-0.260801
-0.261247
-0.261655
-0.262043
-0.262427
-0.258713
-0.25978
-0.260532
-0.261077
-0.261533
-0.261929
-0.262285
-0.262619
-0.262944
-0.259957
-0.260925
-0.261601
-0.262081
-0.262471
-0.262798
-0.263082
-0.263339
-0.26358
-0.261437
-0.262296
-0.262884
-0.263284
-0.26359
-0.263829
-0.264018
-0.264173
-0.264303
-0.263122
-0.263867
-0.264358
-0.264663
-0.264868
-0.264997
-0.265069
-0.265096
-0.265086
-0.26504
-0.264989
-0.26562
-0.266005
-0.266203
-0.266288
-0.266287
-0.266217
-0.266092
-0.265914
-0.265681
-0.267029
-0.267548
-0.26782
-0.267894
-0.267842
-0.26769
-0.267457
-0.267156
-0.266787
-0.266341
-0.265808
-0.269248
-0.269655
-0.269804
-0.269739
-0.269529
-0.269205
-0.268788
-0.268293
-0.267717
-0.267043
-0.266246
-0.271669
-0.271961
-0.271973
-0.27175
-0.271359
-0.27084
-0.27022
-0.269515
-0.268721
-0.267813
-0.266749
-0.265499
-0.274334
-0.274499
-0.274355
-0.273948
-0.273351
-0.272611
-0.271765
-0.270834
-0.269815
-0.268675
-0.267352
-0.265784
-0.263873
-0.2773
-0.277318
-0.276992
-0.276369
-0.275533
-0.274541
-0.273442
-0.272263
-0.271006
-0.269631
-0.268059
-0.266188
-0.263879
-0.280643
-0.280483
-0.279937
-0.279062
-0.277947
-0.276666
-0.27528
-0.273825
-0.272308
-0.27069
-0.268877
-0.266735
-0.264031
-0.2597
-0.284453
-0.284071
-0.283262
-0.28209
-0.280651
-0.279039
-0.277328
-0.275566
-0.273766
-0.271898
-0.269879
-0.267591
-0.26475
-0.259947
-0.254194
-0.28884
-0.288177
-0.287051
-0.28553
-0.283722
-0.281737
-0.279663
-0.277559
-0.275448
-0.273313
-0.271105
-0.268774
-0.266251
-0.263161
-0.267966
-0.29392
-0.292905
-0.2914
-0.289478
-0.287253
-0.284854
-0.282382
-0.279904
-0.277446
-0.275
-0.272531
-0.270031
-0.267556
-0.265233
-0.267488
-0.29982
-0.298367
-0.296414
-0.294038
-0.291352
-0.288503
-0.285602
-0.282716
-0.279868
-0.277039
-0.274194
-0.271325
-0.268453
-0.265982
-0.264968
-0.306661
-0.304673
-0.302201
-0.299318
-0.296132
-0.2928
-0.289437
-0.2861
-0.282791
-0.279468
-0.276068
-0.272557
-0.268887
-0.265465
-0.261956
-0.314553
-0.311926
-0.308863
-0.305427
-0.301703
-0.297854
-0.293986
-0.290128
-0.286244
-0.282254
-0.27806
-0.273597
-0.268787
-0.263945
-0.258309
-0.323584
-0.320212
-0.316492
-0.31246
-0.308163
-0.303754
-0.299311
-0.294817
-0.290186
-0.285296
-0.280028
-0.274314
-0.268107
-0.261647
-0.254362
-0.333808
-0.329593
-0.325157
-0.320493
-0.315583
-0.310549
-0.30542
-0.300117
-0.294501
-0.288426
-0.281788
-0.274569
-0.266797
-0.258716
-0.24998
-0.345232
-0.340089
-0.334891
-0.329563
-0.323987
-0.318227
-0.312243
-0.305888
-0.298989
-0.291417
-0.283138
-0.274226
-0.264814
-0.255189
-0.245182
-0.3578
-0.351666
-0.345677
-0.339651
-0.33333
-0.326691
-0.319613
-0.311897
-0.303379
-0.294008
-0.283868
-0.273157
-0.262107
-0.251047
-0.239864
-0.371381
-0.364221
-0.357423
-0.350654
-0.343469
-0.335733
-0.327253
-0.31782
-0.307346
-0.295918
-0.283777
-0.27124
-0.258617
-0.246237
-0.233973
-0.385747
-0.377559
-0.369945
-0.362366
-0.354145
-0.345027
-0.334782
-0.323263
-0.310534
-0.296872
-0.282678
-0.268363
-0.25427
-0.24069
-0.227433
-0.400563
-0.391382
-0.38295
-0.37446
-0.364972
-0.35413
-0.341734
-0.327792
-0.312588
-0.296611
-0.280399
-0.264409
-0.248976
-0.234315
-0.220175
-0.415385
-0.40528
-0.396021
-0.38648
-0.37544
-0.3625
-0.34759
-0.33096
-0.313166
-0.294894
-0.27677
-0.259251
-0.242628
-0.227011
-0.212116
-0.429653
-0.418726
-0.408624
-0.397849
-0.384939
-0.369535
-0.351809
-0.332337
-0.311952
-0.291496
-0.271624
-0.252753
-0.235099
-0.218661
-0.203162
-0.442713
-0.43109
-0.420113
-0.407891
-0.392786
-0.374603
-0.353868
-0.331526
-0.308662
-0.286207
-0.264797
-0.244768
-0.226255
-0.209141
-0.193203
-0.453833
-0.441657
-0.429759
-0.415864
-0.398273
-0.37709
-0.353285
-0.328175
-0.303039
-0.278834
-0.256124
-0.235152
-0.215958
-0.198328
-0.18213
-0.462235
-0.449659
-0.436787
-0.421007
-0.40071
-0.376432
-0.349637
-0.32198
-0.29486
-0.269197
-0.245452
-0.223764
-0.204085
-0.186118
-0.169838
-0.467133
-0.454312
-0.440414
-0.422581
-0.399463
-0.372138
-0.342573
-0.312692
-0.283936
-0.257138
-0.232635
-0.210469
-0.190514
-0.172408
-0.156213
-0.467771
-0.454858
-0.4399
-0.419918
-0.393989
-0.363813
-0.331819
-0.300119
-0.270122
-0.242534
-0.217563
-0.195157
-0.175127
-0.157051
-0.141058
-0.463464
-0.450605
-0.434585
-0.41245
-0.38386
-0.351165
-0.317186
-0.284132
-0.253322
-0.225311
-0.200176
-0.177781
-0.157858
-0.139884
-0.124058
-0.453631
-0.440968
-0.42393
-0.399743
-0.368775
-0.334007
-0.298564
-0.264666
-0.233494
-0.205445
-0.180478
-0.158381
-0.138781
-0.120983
-0.105198
-0.437829
-0.425498
-0.40754
-0.381509
-0.348565
-0.312263
-0.275927
-0.241714
-0.210641
-0.182952
-0.158507
-0.137021
-0.118032
-0.100767
-0.0858992
-0.415769
-0.403905
-0.385183
-0.357615
-0.323193
-0.28596
-0.24933
-0.215333
-0.184814
-0.157879
-0.134323
-0.113764
-0.0956594
-0.07933
-0.0659006
-0.387337
-0.376071
-0.356796
-0.328083
-0.292754
-0.25523
-0.218899
-0.185636
-0.156123
-0.130339
-0.107991
-0.0886705
-0.0717742
-0.056726
-0.0448768
-0.352597
-0.342055
-0.322495
-0.293108
-0.257489
-0.220266
-0.184813
-0.152794
-0.12471
-0.10044
-0.079631
-0.0618436
-0.0464484
-0.0329577
-0.0228506
-0.311787
-0.302095
-0.282575
-0.253037
-0.217739
-0.181289
-0.147327
-0.117037
-0.0907808
-0.0683649
-0.0494024
-0.0334204
-0.0197861
-0.00813485
-8.51286e-05
-0.26529
-0.256603
-0.237469
-0.208221
-0.173633
-0.138902
-0.106839
-0.0786666
-0.0545842
-0.0343291
-0.0174895
-0.00356689
0.00802694
0.0174414
0.0229725
-0.213588
-0.206155
-0.187622
-0.159063
-0.126128
-0.0934531
-0.0637383
-0.038025
-0.0163942
0.00146225
0.0159715
0.0276229
0.0368317
0.0434122
0.0460027
-0.157284
-0.151448
-0.133707
-0.10657
-0.0756661
-0.0454894
-0.0184905
0.00448729
0.0234669
0.0387965
0.0509216
0.060269
0.0669008
0.0701874
0.0696816
-0.0975189
-0.0930715
-0.0766546
-0.0513467
-0.0229123
0.00437742
0.0283548
0.0483721
0.0645541
0.077309
0.0871334
0.094394
0.0987876
0.0994753
0.0970232
-0.0350685
-0.0320028
-0.0172444
0.00583428
0.0314075
0.0554837
0.0761864
0.0930495
0.106292
0.116387
0.123888
0.129123
0.131589
0.130938
0.133234
0.0292015
0.0307618
0.0436284
0.0641413
0.086533
0.107141
0.124376
0.137935
0.148111
0.155408
0.160348
0.163159
0.163555
0.162432
0.165671
0.0942815
0.0942528
0.105034
0.122717
0.14169
0.158652
0.172294
0.182458
0.1895
0.193933
0.196244
0.196632
0.195033
0.192677
0.194148
0.159151
0.157491
0.166038
0.180705
0.196104
0.209322
0.21931
0.226038
0.229904
0.231417
0.231036
0.228979
0.225336
0.221326
0.220476
0.222799
0.219499
0.22572
0.237262
0.249024
0.258479
0.264827
0.268144
0.268858
0.267469
0.264411
0.259905
0.254103
0.248146
0.2449
0.28424
0.279325
0.283185
0.291575
0.29972
0.305474
0.308262
0.308254
0.305896
0.301678
0.29601
0.289116
0.281174
0.273229
0.267622
0.342532
0.336054
0.337581
0.342874
0.347504
0.349693
0.34907
0.345883
0.340591
0.333668
0.325505
0.31632
0.306311
0.296423
0.288555
0.396783
0.388828
0.388107
0.390434
0.39173
0.390561
0.386741
0.380578
0.372541
0.363089
0.352593
0.34127
0.329328
0.317597
0.307595
0.446174
0.436853
0.434029
0.433591
0.431806
0.427552
0.420803
0.41192
0.401375
0.389612
0.376985
0.363714
0.350009
0.336577
0.324608
0.489959
0.479413
0.474681
0.471746
0.467197
0.460189
0.450831
0.43953
0.426755
0.412939
0.398421
0.383424
0.368156
0.353198
0.339462
0.527486
0.515878
0.50948
0.504374
0.497433
0.488051
0.476451
0.463072
0.448384
0.432805
0.416665
0.400191
0.383584
0.367303
0.352035
0.558195
0.545712
0.537931
0.531027
0.522115
0.510782
0.497342
0.48226
0.466004
0.448981
0.431515
0.413833
0.396131
0.378758
0.362222
0.581632
0.568476
0.559628
0.551341
0.540916
0.52809
0.513244
0.49686
0.479406
0.461281
0.442802
0.4242
0.405662
0.38745
0.369939
0.597451
0.583839
0.574265
0.565038
0.553589
0.539753
0.523957
0.506695
0.488432
0.469562
0.450399
0.431177
0.412075
0.393293
0.375119
0.605419
0.591576
0.581635
0.571934
0.559967
0.545623
0.529347
0.511642
0.492971
0.473727
0.454219
0.434685
0.415299
0.396229
0.37772
-0.262075
-0.193356
-0.169655
-0.137326
-0.113854
-0.0960622
-0.0814421
-0.069812
-0.0602408
-0.0523331
-0.0457269
-0.0401556
-0.0354233
-0.0313758
-0.0278937
-0.0248822
-0.0222661
-0.0199838
-0.017986
-0.0162323
-0.0146878
-0.0133238
-0.0121166
-0.0110456
-0.010094
-0.00924714
-0.00849243
-0.00781911
-0.00721787
-0.00668063
-0.00620033
-0.00577085
-0.00538677
-0.00504342
-0.00473661
-0.00446273
-0.00421871
-0.00400177
-0.00380948
-0.00363975
-0.00349069
-0.00336069
-0.00324837
-0.00315252
-0.00307214
-0.00300639
-0.00295457
-0.00291616
-0.00289077
-0.00287808
-0.262746
-0.183359
-0.162951
-0.131825
-0.109093
-0.0923858
-0.0783702
-0.0673009
-0.058165
-0.0506021
-0.0442764
-0.0389319
-0.0343852
-0.0304909
-0.0271358
-0.0242306
-0.0217038
-0.0194971
-0.0175637
-0.0158652
-0.014368
-0.0130448
-0.0118728
-0.0108325
-0.00990751
-0.00908385
-0.00834947
-0.00769397
-0.00710837
-0.00658488
-0.00611668
-0.00569785
-0.00532316
-0.00498807
-0.00468854
-0.00442106
-0.00418267
-0.00397067
-0.00378272
-0.00361677
-0.003471
-0.00334385
-0.00323396
-0.00314018
-0.00306151
-0.00299715
-0.00294643
-0.00290882
-0.00288395
-0.0028715
-0.262727
-0.177306
-0.156041
-0.127191
-0.104636
-0.0889316
-0.0754854
-0.0649066
-0.0561812
-0.0489386
-0.042877
-0.0377479
-0.0333783
-0.0296308
-0.0263981
-0.0235955
-0.0211554
-0.0190222
-0.0171515
-0.0155067
-0.0140557
-0.0127723
-0.0116348
-0.0106244
-0.00972546
-0.00892451
-0.00820999
-0.00757189
-0.00700156
-0.00649146
-0.00603506
-0.0056266
-0.00526103
-0.00493399
-0.00464152
-0.00438024
-0.00414731
-0.0039401
-0.00375635
-0.00359406
-0.00345146
-0.00332706
-0.00321952
-0.00312772
-0.0030507
-0.00298769
-0.00293801
-0.00290117
-0.00287681
-0.0028646
-0.256602
-0.172619
-0.148736
-0.122855
-0.100435
-0.0855954
-0.072745
-0.0626108
-0.0542797
-0.0473427
-0.0415324
-0.0366092
-0.0324089
-0.0288019
-0.0256865
-0.0229823
-0.0206253
-0.0185626
-0.0167521
-0.0151591
-0.0137526
-0.0125076
-0.0114033
-0.0104218
-0.00954803
-0.00876905
-0.00807376
-0.00745251
-0.00689698
-0.0063999
-0.00595495
-0.00555658
-0.0051999
-0.00488068
-0.00459509
-0.00433987
-0.00411226
-0.00390973
-0.00373006
-0.00357135
-0.00343186
-0.00331014
-0.0032049
-0.00311505
-0.00303965
-0.00297795
-0.00292929
-0.00289321
-0.00286934
-0.00285736
-0.248176
-0.169313
-0.141676
-0.118526
-0.0964515
-0.0822978
-0.0700753
-0.060362
-0.0524117
-0.045774
-0.0402079
-0.0354861
-0.0314515
-0.0279824
-0.0249822
-0.0223748
-0.0200997
-0.0181066
-0.0163556
-0.0148138
-0.0134513
-0.0122443
-0.011173
-0.0102201
-0.00937131
-0.00861414
-0.00793793
-0.00733343
-0.0067926
-0.00630846
-0.00587489
-0.00548655
-0.00513871
-0.00482727
-0.00454853
-0.00429932
-0.00407701
-0.00387913
-0.00370354
-0.00354839
-0.00341199
-0.00329294
-0.00318998
-0.00310206
-0.00302827
-0.00296788
-0.00292025
-0.00288491
-0.00286154
-0.00284979
-0.237842
-0.165815
-0.134958
-0.114041
-0.0926499
-0.0790473
-0.0674636
-0.0581649
-0.0505804
-0.044237
-0.0389085
-0.0343833
-0.0305108
-0.0271763
-0.0242888
-0.0217763
-0.0195814
-0.0176565
-0.015964
-0.0144725
-0.0131533
-0.0119837
-0.0109448
-0.0100201
-0.00919594
-0.00846029
-0.00780293
-0.00721498
-0.00668869
-0.00621735
-0.00579505
-0.00541664
-0.00507756
-0.00477385
-0.0045019
-0.00425866
-0.0040416
-0.00384834
-0.0036768
-0.00352518
-0.00339186
-0.00327546
-0.00317478
-0.00308878
-0.00301659
-0.0029575
-0.00291088
-0.0028763
-0.00285341
-0.0028419
-0.227388
-0.162094
-0.12878
-0.109421
-0.0889719
-0.0758455
-0.0648852
-0.0560053
-0.0487736
-0.0427206
-0.0376255
-0.0332934
-0.0295803
-0.0263784
-0.023602
-0.021183
-0.0190672
-0.0172097
-0.015575
-0.0141333
-0.012857
-0.0117244
-0.0107177
-0.00982095
-0.00902119
-0.00830689
-0.00766825
-0.00709673
-0.0065849
-0.00612627
-0.00571519
-0.00534666
-0.0050163
-0.00472027
-0.00445508
-0.00421779
-0.00400596
-0.00381731
-0.0036498
-0.0035017
-0.00337144
-0.00325769
-0.00315927
-0.00307519
-0.0030046
-0.0029468
-0.0029012
-0.00286736
-0.00284496
-0.00283369
-0.216997
-0.157711
-0.122987
-0.104704
-0.0853634
-0.0727036
-0.0623361
-0.053882
-0.0469927
-0.0412255
-0.0363599
-0.0322174
-0.0286611
-0.0255897
-0.0229226
-0.0205957
-0.018558
-0.0167669
-0.0151891
-0.0137966
-0.0125627
-0.0114667
-0.0104919
-0.00962281
-0.00884722
-0.00815409
-0.00753401
-0.00697879
-0.0064813
-0.00603531
-0.00563536
-0.00527666
-0.00495496
-0.00466658
-0.00440811
-0.00417672
-0.00397011
-0.00378603
-0.00362254
-0.00347795
-0.00335074
-0.00323963
-0.00314347
-0.0030613
-0.00299229
-0.00293579
-0.0028912
-0.00285811
-0.00283619
-0.00282517
-0.207018
-0.152823
-0.117514
-0.0999651
-0.0817852
-0.0696192
-0.0598102
-0.0517872
-0.0452334
-0.0397474
-0.0351086
-0.0311528
-0.0277511
-0.0248084
-0.0222492
-0.0200132
-0.0180526
-0.0163272
-0.0148058
-0.013462
-0.0122701
-0.0112104
-0.0102671
-0.00942547
-0.00867387
-0.00800174
-0.00740008
-0.00686105
-0.00637781
-0.00594437
-0.0055555
-0.00520657
-0.0048935
-0.00461273
-0.00436095
-0.00413545
-0.00393402
-0.00375451
-0.00359502
-0.00345393
-0.00332976
-0.00322128
-0.00312736
-0.0030471
-0.00297968
-0.00292447
-0.00288088
-0.00284854
-0.00282712
-0.00281634
-0.197304
-0.147396
-0.112203
-0.0952418
-0.0782131
-0.0665867
-0.0573076
-0.0497169
-0.0434948
-0.0382855
-0.0338707
-0.0300991
-0.02685
-0.0240344
-0.0215817
-0.0194356
-0.0175511
-0.0158906
-0.0144251
-0.0131295
-0.0119791
-0.0109554
-0.0100433
-0.00922895
-0.00850113
-0.00784984
-0.00726647
-0.00674353
-0.00627444
-0.00585349
-0.00547562
-0.00513641
-0.00483193
-0.00455873
-0.00431361
-0.00409397
-0.00389771
-0.00372274
-0.00356724
-0.00342964
-0.00330851
-0.00320264
-0.00311097
-0.00303261
-0.00296677
-0.00291285
-0.00287027
-0.00283867
-0.00281774
-0.0028072
-0.187797
-0.141556
-0.10698
-0.0905612
-0.0746366
-0.0635953
-0.0548267
-0.0476662
-0.0417738
-0.0368373
-0.0326445
-0.0290549
-0.0259568
-0.0232668
-0.0209195
-0.0188622
-0.0170531
-0.0154568
-0.0140465
-0.0127988
-0.0116897
-0.0107015
-0.00982048
-0.00903313
-0.00832893
-0.00769833
-0.00713313
-0.00662617
-0.00617116
-0.00576261
-0.00539571
-0.00506617
-0.00477023
-0.00450458
-0.0042661
-0.00405229
-0.00386117
-0.00369073
-0.0035392
-0.00340508
-0.00328697
-0.00318372
-0.00309429
-0.00301782
-0.00295357
-0.00290092
-0.00285935
-0.0028285
-0.00280806
-0.00279777
-0.178344
-0.135326
-0.101763
-0.085922
-0.0710506
-0.0606333
-0.0523664
-0.0456316
-0.040068
-0.0354014
-0.0314287
-0.0280193
-0.0250706
-0.0225051
-0.0202621
-0.0182929
-0.0165584
-0.0150256
-0.0136701
-0.0124698
-0.0114016
-0.0104488
-0.00959853
-0.00883799
-0.00815724
-0.00754719
-0.00700005
-0.00650897
-0.00606796
-0.00567175
-0.00531574
-0.00499584
-0.00470841
-0.00445027
-0.0042184
-0.00401039
-0.0038244
-0.00365848
-0.00351091
-0.00338025
-0.00326516
-0.00316451
-0.00307732
-0.00300275
-0.00294007
-0.00288871
-0.00284814
-0.00281804
-0.00279809
-0.00278805
-0.16884
-0.128772
-0.0965098
-0.0813175
-0.0674526
-0.0576884
-0.049923
-0.0436095
-0.0383743
-0.0339757
-0.0302218
-0.0269913
-0.0241908
-0.0217486
-0.019609
-0.0177271
-0.0160666
-0.0145968
-0.0132955
-0.0121424
-0.0111148
-0.0101972
-0.00937739
-0.00864349
-0.00798602
-0.0073964
-0.0068672
-0.00639191
-0.00596481
-0.00558089
-0.00523572
-0.00492541
-0.00464646
-0.0043958
-0.00417051
-0.00396829
-0.0037874
-0.00362598
-0.00348237
-0.00335517
-0.00324309
-0.00314504
-0.00306008
-0.00298739
-0.00292629
-0.00287621
-0.00283665
-0.00280729
-0.00278783
-0.00277803
-0.159145
-0.121927
-0.0911717
-0.0767331
-0.063839
-0.0547492
-0.0474919
-0.0415975
-0.036691
-0.0325591
-0.0290228
-0.0259702
-0.0233168
-0.0209971
-0.0189602
-0.0171648
-0.0155776
-0.0141703
-0.0129229
-0.0118165
-0.0108294
-0.00994652
-0.00915707
-0.00844961
-0.00781527
-0.00724594
-0.00673458
-0.00627499
-0.00586173
-0.00549003
-0.00515566
-0.00485489
-0.00458438
-0.00434119
-0.00412245
-0.00392598
-0.00375018
-0.00359326
-0.00345358
-0.00332983
-0.00322075
-0.0031253
-0.00304256
-0.00297176
-0.00291223
-0.00286343
-0.00282487
-0.00279626
-0.00277729
-0.00276774
-0.149119
-0.114823
-0.085699
-0.072158
-0.0602067
-0.0518088
-0.0450679
-0.0395935
-0.0350178
-0.0311511
-0.0278312
-0.0249555
-0.0224482
-0.0202502
-0.0183152
-0.0166057
-0.0150912
-0.0137463
-0.0125521
-0.0114922
-0.0105452
-0.0096969
-0.00893754
-0.00825634
-0.00764499
-0.00709583
-0.00660219
-0.00615821
-0.00575872
-0.00539917
-0.00507555
-0.00478428
-0.00452218
-0.00428643
-0.00407422
-0.00388349
-0.00371275
-0.0035603
-0.00342456
-0.00330424
-0.00319816
-0.0031053
-0.00302478
-0.00295587
-0.0028979
-0.00285038
-0.00281282
-0.00278496
-0.00276648
-0.00275718
-0.138578
-0.107471
-0.0800301
-0.0675885
-0.0565575
-0.0488688
-0.042648
-0.0375975
-0.0333556
-0.0297515
-0.0266464
-0.0239468
-0.0215848
-0.0195077
-0.0176739
-0.0160497
-0.0146072
-0.0133243
-0.0121832
-0.0111693
-0.0102621
-0.00944824
-0.00871876
-0.00806366
-0.00747514
-0.00694603
-0.00647002
-0.00604156
-0.00565577
-0.00530831
-0.00499538
-0.00471358
-0.00445987
-0.00423152
-0.00402582
-0.00384079
-0.0036751
-0.00352712
-0.0033953
-0.00327842
-0.00317532
-0.00308504
-0.00300675
-0.00293971
-0.00288331
-0.00283706
-0.00280051
-0.00277339
-0.00275541
-0.00274634
-0.127309
-0.0999144
-0.0741355
-0.0630292
-0.0529069
-0.0459353
-0.0402335
-0.0356085
-0.0317025
-0.0283589
-0.0254672
-0.0229427
-0.0207253
-0.0187686
-0.0170356
-0.0154962
-0.0141256
-0.0129038
-0.0118154
-0.0108474
-0.00998
-0.0092003
-0.00850054
-0.0078714
-0.0073056
-0.00679643
-0.00633796
-0.00592496
-0.00555281
-0.00521739
-0.00491511
-0.00464274
-0.00439739
-0.00417644
-0.00397723
-0.00379789
-0.00363723
-0.0034937
-0.00336579
-0.00325234
-0.00315223
-0.00306453
-0.00298845
-0.00292329
-0.00286845
-0.00282348
-0.00278794
-0.00276156
-0.00274407
-0.00273524
-0.115082
-0.0922257
-0.0680753
-0.0584747
-0.0492725
-0.0430069
-0.0378292
-0.0336208
-0.0300465
-0.0269673
-0.0242897
-0.0219405
-0.0198677
-0.0180312
-0.0163988
-0.0149441
-0.0136451
-0.0124841
-0.0114481
-0.010526
-0.00969831
-0.00895271
-0.00828258
-0.00767931
-0.00713615
-0.00664686
-0.00620587
-0.00580829
-0.00544973
-0.00512633
-0.00483467
-0.00457171
-0.00433471
-0.00412114
-0.00392841
-0.00375474
-0.0035991
-0.00346001
-0.00333602
-0.00322599
-0.00312886
-0.00304375
-0.00296988
-0.0029066
-0.00285333
-0.00280964
-0.00277509
-0.00274946
-0.00273246
-0.00272386
-0.101775
-0.0844424
-0.0620085
-0.0538818
-0.0456171
-0.0400566
-0.035419
-0.0316278
-0.0283864
-0.0255739
-0.0231115
-0.0209382
-0.0190103
-0.0172941
-0.0157624
-0.0143924
-0.0131651
-0.0120647
-0.0110811
-0.0102048
-0.00941685
-0.00870534
-0.00806476
-0.0074873
-0.00696673
-0.00649727
-0.00607373
-0.00569152
-0.00534652
-0.00503511
-0.00475406
-0.00450049
-0.00427182
-0.00406564
-0.00387938
-0.00371136
-0.00356072
-0.00342608
-0.00330599
-0.00319939
-0.00310524
-0.00302271
-0.00295105
-0.00288964
-0.00283794
-0.00279553
-0.00276198
-0.0027371
-0.0027206
-0.00271222
-0.0876249
-0.0764151
-0.0559127
-0.0491681
-0.0419251
-0.0370735
-0.0329928
-0.0296259
-0.0267219
-0.0241791
-0.0219338
-0.0199374
-0.0181549
-0.0165593
-0.0151283
-0.0138429
-0.0126871
-0.011647
-0.0107155
-0.00988492
-0.00913661
-0.00845904
-0.00784784
-0.00729602
-0.0067979
-0.00634816
-0.00594196
-0.00557503
-0.00524352
-0.00494402
-0.00467351
-0.00442929
-0.00420892
-0.00401009
-0.00383027
-0.00366787
-0.00352221
-0.00339199
-0.0032758
-0.0031726
-0.00308143
-0.00300147
-0.00293202
-0.00287249
-0.00282235
-0.0027812
-0.00274866
-0.00272453
-0.00270851
-0.00270035
-0.0730309
-0.0677202
-0.049678
-0.0442808
-0.0381507
-0.0340405
-0.0305446
-0.0276182
-0.0250603
-0.0227918
-0.0207658
-0.0189469
-0.0173097
-0.0158341
-0.014503
-0.0133015
-0.0122161
-0.0112355
-0.0103551
-0.00956952
-0.00886031
-0.00821612
-0.00763377
-0.00710715
-0.0066311
-0.00620073
-0.00581159
-0.0054597
-0.00514146
-0.0048537
-0.00459358
-0.00435857
-0.0041464
-0.00395484
-0.00378139
-0.00362454
-0.0034838
-0.00335795
-0.00324562
-0.00314581
-0.00305758
-0.00298018
-0.00291292
-0.00285524
-0.00280665
-0.00276677
-0.00273522
-0.00271183
-0.0026963
-0.00268835
-0.0577928
-0.0582142
-0.0431174
-0.0391445
-0.0342507
-0.0309514
-0.0280822
-0.0256188
-0.0234174
-0.0214273
-0.0196214
-0.0179792
-0.0164856
-0.0151279
-0.0138946
-0.0127747
-0.0117579
-0.0108349
-0.0100039
-0.00926192
-0.00859058
-0.00797874
-0.00742434
-0.00692218
-0.00646755
-0.00605601
-0.00568347
-0.00534622
-0.00504094
-0.00476464
-0.00451468
-0.00428869
-0.00408455
-0.00390014
-0.00373295
-0.00358155
-0.00344564
-0.00332411
-0.00321559
-0.00311911
-0.0030338
-0.00295891
-0.00289382
-0.00283798
-0.00279093
-0.0027523
-0.00272173
-0.00269908
-0.00268402
-0.0026763
-0.0418353
-0.0477675
-0.0361317
-0.0337679
-0.030251
-0.0278365
-0.0256262
-0.0236395
-0.0217986
-0.020087
-0.0184995
-0.0170317
-0.015679
-0.0144366
-0.0132987
-0.0122584
-0.0113084
-0.0104414
-0.00965855
-0.00895885
-0.00832445
-0.00774426
-0.00721722
-0.00673899
-0.00630538
-0.00591235
-0.00555613
-0.00523332
-0.00494081
-0.00467584
-0.00443593
-0.00421887
-0.0040227
-0.00384539
-0.00368442
-0.00353845
-0.00340734
-0.00329011
-0.00318538
-0.00309223
-0.00300982
-0.00293745
-0.00287452
-0.00282052
-0.00277499
-0.00273761
-0.00270803
-0.00268612
-0.00267153
-0.00266402
-0.0251635
-0.0365944
-0.0289763
-0.0283882
-0.0262939
-0.0247572
-0.0231829
-0.0216559
-0.020165
-0.0187259
-0.0173545
-0.0160603
-0.0148491
-0.0137233
-0.0126824
-0.0117235
-0.0108422
-0.0100329
-0.00929949
-0.00864345
-0.00804759
-0.00750046
-0.00700191
-0.0065486
-0.00613686
-0.00576309
-0.00542388
-0.00511609
-0.00483688
-0.00458367
-0.0043542
-0.00414642
-0.00395851
-0.00378857
-0.00363406
-0.00349368
-0.00336753
-0.00325473
-0.00315392
-0.00306421
-0.0029848
-0.00291502
-0.00285431
-0.0028022
-0.00275826
-0.00272216
-0.00269359
-0.00267243
-0.00265832
-0.00265096
-0.00819412
-0.0255205
-0.0222725
-0.023394
-0.0225406
-0.0217342
-0.0207023
-0.0195881
-0.0184266
-0.0172547
-0.0161019
-0.0149883
-0.0139276
-0.012928
-0.0119937
-0.0111253
-0.0103209
-0.00957651
-0.00889848
-0.00829213
-0.0077405
-0.00723105
-0.00676466
-0.00633933
-0.00595212
-0.00559991
-0.00527965
-0.00498856
-0.00472405
-0.00448382
-0.0042658
-0.00406816
-0.00388929
-0.00372739
-0.00357988
-0.00344549
-0.00332463
-0.00321658
-0.00311998
-0.00303395
-0.00295774
-0.00289073
-0.00283239
-0.00278229
-0.00274002
-0.00270528
-0.00267777
-0.00265741
-0.00264382
-0.00263649
0.00826361
-0.0152478
-0.016229
-0.0187969
-0.0188975
-0.0186647
-0.0181034
-0.0173786
-0.0165443
-0.0156472
-0.0147254
-0.0138066
-0.0129104
-0.0120504
-0.0112347
-0.0104677
-0.00974937
-0.00907712
-0.00846063
-0.00791059
-0.00740909
-0.00694168
-0.00651072
-0.00611607
-0.00575566
-0.0054269
-0.00512718
-0.00485407
-0.00460534
-0.00437897
-0.00417313
-0.00398624
-0.00381695
-0.00366358
-0.00352342
-0.00339521
-0.0032798
-0.0031767
-0.00308449
-0.00300229
-0.00292939
-0.00286525
-0.00280936
-0.00276133
-0.00272079
-0.00268744
-0.00266105
-0.0026415
-0.00262845
-0.00262103
0.024325
-0.0043801
-0.0094157
-0.0136172
-0.0148456
-0.0153786
-0.0154263
-0.0151779
-0.0147206
-0.0141251
-0.0134469
-0.0127266
-0.0119936
-0.0112684
-0.0105652
-0.00989228
-0.00925248
-0.00864465
-0.00808237
-0.00758225
-0.00712487
-0.006694
-0.00629354
-0.00592513
-0.00558755
-0.00527872
-0.00499642
-0.00473855
-0.0045032
-0.00428857
-0.00409307
-0.00391533
-0.00375423
-0.00360821
-0.00347438
-0.00335144
-0.00324071
-0.00314188
-0.00305348
-0.00297461
-0.00290461
-0.00284297
-0.00278924
-0.00274303
-0.00270401
-0.0026719
-0.00264649
-0.00262769
-0.00261508
-0.00260775
0.0425331
0.0109864
0.000838206
-0.00634443
-0.00982788
-0.0118682
-0.0129372
-0.013377
-0.0133931
-0.0131296
-0.0126879
-0.0121386
-0.0115306
-0.010898
-0.0102641
-0.00964378
-0.00904452
-0.00846722
-0.00792811
-0.00744656
-0.00700556
-0.00658892
-0.00620019
-0.00584163
-0.00551251
-0.00521109
-0.00493538
-0.00468342
-0.00445341
-0.00424361
-0.00405252
-0.00387877
-0.00372135
-0.00357877
-0.00344807
-0.00332796
-0.00321968
-0.00312309
-0.00303673
-0.00295969
-0.00289133
-0.00283113
-0.00277865
-0.00273352
-0.00269542
-0.00266408
-0.00263925
-0.00262101
-0.0026085
-0.00260202
0.0645206
0.0315462
0.0145277
0.00285601
-0.00410969
-0.00834301
-0.0107797
-0.012074
-0.0126311
-0.0127112
-0.0124863
-0.0120712
-0.0115436
-0.0109561
-0.0103446
-0.00973229
-0.00913422
-0.00855387
-0.00800689
-0.00750832
-0.00705301
-0.0066275
-0.00623154
-0.00586627
-0.00553112
-0.00522453
-0.00494455
-0.00468918
-0.0044565
-0.00424467
-0.00405207
-0.00387715
-0.00371883
-0.00357565
-0.00344491
-0.0033255
-0.00321763
-0.00312127
-0.00303519
-0.0029585
-0.0028905
-0.00283067
-0.00277856
-0.00273378
-0.00269597
-0.00266494
-0.00264029
-0.00262242
-0.00260959
-0.00260504
0.0825878
0.0472438
0.0252886
0.0104014
0.000985801
-0.00479844
-0.00825601
-0.0102387
-0.0112715
-0.0116863
-0.0117002
-0.0114577
-0.0110565
-0.0105625
-0.0100215
-0.00946277
-0.00890801
-0.00836449
-0.00784685
-0.00736167
-0.00691811
-0.0065067
-0.00612406
-0.00577034
-0.00544518
-0.00514739
-0.00487528
-0.00462701
-0.00440076
-0.00419475
-0.00400742
-0.00383718
-0.00368295
-0.00354334
-0.00341616
-0.00330082
-0.00319626
-0.00310257
-0.0030188
-0.00294417
-0.00287801
-0.00281979
-0.00276908
-0.00272551
-0.00268871
-0.00265854
-0.0026345
-0.00261724
-0.00260442
-0.00260151
0.117721
0.0747704
0.0465049
0.0274676
0.015155
0.0071136
0.00180849
-0.00169337
-0.00397884
-0.0054327
-0.0063144
-0.00680182
-0.0070184
-0.0070506
-0.00695945
-0.00678786
-0.0065667
-0.00631729
-0.00606005
-0.00578618
-0.00552283
-0.0052721
-0.00503272
-0.00480574
-0.00459222
-0.00439269
-0.00420711
-0.00403513
-0.00387616
-0.00372954
-0.00359457
-0.00347053
-0.00335688
-0.00325255
-0.00315676
-0.00307058
-0.00299159
-0.00291986
-0.00285517
-0.00279713
-0.00274537
-0.00269959
-0.00265951
-0.00262492
-0.00259562
-0.00257147
-0.0025523
-0.00253816
-0.00252847
-0.00252594
0.151104
0.100921
0.0708239
0.0497435
0.0348101
0.0242189
0.0166362
0.0111562
0.00716987
0.00425799
0.00212611
0.000564511
-0.000577588
-0.00140965
-0.00201162
-0.00244257
-0.00274677
-0.00296144
-0.00310901
-0.00318319
-0.00321782
-0.00323113
-0.00322671
-0.00320769
-0.00317782
-0.0031404
-0.00309796
-0.00305239
-0.00300512
-0.00295721
-0.00290946
-0.00286247
-0.00281635
-0.00277118
-0.00272905
-0.00269051
-0.0026536
-0.00261847
-0.00258565
-0.00255538
-0.00252775
-0.00250278
-0.00248052
-0.002461
-0.00244424
-0.00243027
-0.00241914
-0.00241057
-0.00240571
-0.00240255
0.151195
0.114397
0.0862659
0.065226
0.0493381
0.0374206
0.0284602
0.0216673
0.0164744
0.0124759
0.00937707
0.00696053
0.00506502
0.00357001
0.00238484
0.0014405
0.000683405
7.18032e-05
-0.000420314
-0.000808138
-0.00111736
-0.00136968
-0.00157636
-0.00174465
-0.00188085
-0.00199055
-0.00207844
-0.00214834
-0.00220338
-0.00224613
-0.0022787
-0.00230274
-0.00231956
-0.00233065
-0.00233803
-0.00234257
-0.00234413
-0.00234303
-0.00234003
-0.00233576
-0.00233073
-0.0023253
-0.00231978
-0.00231443
-0.00230947
-0.00230508
-0.00230142
-0.0022986
-0.00229693
-0.00229532
0.146365
0.117056
0.0929125
0.0738227
0.0587198
0.0467826
0.037368
0.0299287
0.0240227
0.0193085
0.0155246
0.0124698
0.00998925
0.00796351
0.00629989
0.00492603
0.00378504
0.00283317
0.00203847
0.00137534
0.000820176
0.000351536
-4.64256e-05
-0.000384876
-0.000672622
-0.000917188
-0.00112502
-0.00130158
-0.00145144
-0.00157846
-0.00168586
-0.00177637
-0.0018524
-0.00191625
-0.00197
-0.00201514
-0.00205271
-0.00208358
-0.00210871
-0.00212905
-0.00214544
-0.00215853
-0.0021689
-0.00217702
-0.00218328
-0.00218802
-0.00219152
-0.00219398
-0.00219546
-0.00219584
0.135336
0.11462
0.0955895
0.0790883
0.0651871
0.0536912
0.0442727
0.036577
0.030279
0.0251071
0.0208429
0.0173116
0.0143737
0.0119183
0.00985668
0.00811779
0.00664496
0.00539349
0.00432794
0.0034187
0.00264101
0.00197347
0.00139844
0.000902025
0.000473115
0.000102418
-0.000218021
-0.000495022
-0.000734416
-0.000941188
-0.00111961
-0.00127337
-0.00140574
-0.00151966
-0.00161763
-0.00170174
-0.00177373
-0.00183505
-0.00188705
-0.00193096
-0.00196786
-0.00199872
-0.00202433
-0.00204536
-0.0020624
-0.0020759
-0.00208626
-0.00209376
-0.00209852
-0.00210074
0.126009
0.110257
0.0948846
0.0809438
0.0687008
0.0581535
0.0491805
0.0416009
0.0352139
0.0298296
0.0252827
0.0214338
0.0181667
0.015385
0.0130089
0.0109731
0.00922389
0.00771732
0.00641709
0.00529279
0.00431901
0.00347406
0.00273937
0.00209952
0.00154179
0.00105548
0.000631412
0.000261629
-6.07379e-05
-0.000341638
-0.000586235
-0.000799053
-0.000984079
-0.0011448
-0.00128425
-0.00140504
-0.00150945
-0.00159944
-0.00167672
-0.00174281
-0.00179907
-0.00184669
-0.00188669
-0.00191993
-0.00194714
-0.00196893
-0.00198578
-0.00199805
-0.002006
-0.0020099
0.116218
0.104799
0.0929207
0.0814292
0.070795
0.0612481
0.0528387
0.0455231
0.0391983
0.0337429
0.0290393
0.0249816
0.0214773
0.0184463
0.0158201
0.0135406
0.0115587
0.00983305
0.00832847
0.007015
0.00586713
0.00486299
0.00398375
0.0032132
0.00253755
0.001945
0.00142535
0.000969731
0.000570406
0.000220593
-8.56467e-05
-0.000353538
-0.000587682
-0.000792122
-0.000970398
-0.00112561
-0.00126046
-0.00137734
-0.00147832
-0.00156522
-0.00163965
-0.00170302
-0.00175654
-0.00180125
-0.00183803
-0.00186761
-0.00189056
-0.00190735
-0.00191832
-0.00192374
0.108731
0.0997886
0.0901526
0.080556
0.0714118
0.0629386