/*--------------------------------*- C++ -*----------------------------------*\
  =========                 |
  \\      /  F ield         | OpenFOAM: The Open Source CFD Toolbox
   \\    /   O peration     | Website:  https://openfoam.org
    \\  /    A nd           | Version:  7
     \\/     M anipulation  |
\*---------------------------------------------------------------------------*/
FoamFile
{
    version     2.0;
    format      ascii;
    class       surfaceScalarField;
    location    "35";
    object      phi;
}
// * * * * * * * * * * * * * * * * * * * * * * * * * * * * * * * * * * * * * //

dimensions      [0 3 -1 0 0 0 0];

internalField   nonuniform List<scalar> 
26215
(
-3.75131e-06
3.75231e-06
-9.92981e-10
-1.39245e-05
1.0176e-05
-2.81314e-09
-2.98479e-05
1.5928e-05
-4.56587e-09
-5.08546e-05
2.10129e-05
-6.23996e-09
-7.62941e-05
2.54473e-05
-7.82836e-09
-0.000105559
2.92737e-05
-9.33492e-09
-0.000138112
3.25638e-05
-1.07774e-08
-0.00017352
3.54211e-05
-1.21846e-08
-0.000211491
3.79844e-05
-1.35976e-08
-0.000251907
4.04305e-05
-1.50655e-08
-0.000294864
4.2974e-05
-1.66365e-08
-0.000340705
4.58594e-05
-1.83611e-08
-0.000390027
4.93418e-05
-2.02895e-08
-0.000443679
5.36749e-05
-2.247e-08
5.91043e-05
-2.49544e-08
-0.000502758
-3.68188e-06
7.43419e-06
-1.36721e-05
2.01662e-05
-2.93066e-05
3.15625e-05
-4.99183e-05
4.16246e-05
-7.48498e-05
5.03788e-05
-0.000103479
5.79028e-05
-0.000135247
6.43317e-05
-0.000169689
6.98638e-05
-0.000206473
7.47676e-05
-0.000245432
7.93895e-05
-0.000286614
8.41562e-05
-0.000330318
8.9563e-05
-0.000377114
9.61386e-05
-0.00042786
0.000104421
0.000114945
-0.000483701
-3.54903e-06
1.09832e-05
-1.31867e-05
2.98038e-05
-2.82619e-05
4.66377e-05
-4.8106e-05
6.14687e-05
-7.20474e-05
7.43202e-05
-9.94357e-05
8.52911e-05
-0.000129668
9.45641e-05
-0.000162218
0.000102414
-0.00019667
0.00010922
-0.000232761
0.000115481
-0.000270434
0.000121829
-0.000309892
0.000129021
-0.000351648
0.000137894
-0.000396566
0.000149338
0.000164289
-0.00044591
-3.36381e-06
1.4347e-05
-1.25039e-05
3.89439e-05
-2.6783e-05
6.09168e-05
-4.55274e-05
8.02131e-05
-6.80435e-05
9.68364e-05
-9.36397e-05
0.000110887
-0.000121648
0.000122573
-0.000151451
0.000132217
-0.00018251
0.000140278
-0.00021441
0.000147381
-0.000246921
0.00015434
-0.000280083
0.000162183
-0.000314296
0.000172107
-0.000350415
0.000185457
0.000203794
-0.00038992
-3.1405e-06
1.74875e-05
-1.16695e-05
4.74729e-05
-2.49584e-05
7.42056e-05
-4.23217e-05
9.75765e-05
-6.30354e-05
0.00011755
-8.63544e-05
0.000134206
-0.000111529
0.000147748
-0.000137823
0.00015851
-0.000164534
0.00016699
-0.000191038
0.000173884
-0.000216852
0.000180155
-0.000241757
0.000187088
-0.000265947
0.000196297
-0.000290203
0.000209714
0.000229902
-0.000316311
-2.89434e-06
2.03819e-05
-1.07316e-05
5.53102e-05
-2.28794e-05
8.63534e-05
-3.86301e-05
0.000113327
-5.72188e-05
0.000136139
-7.78365e-05
0.000154824
-9.96376e-05
0.000169549
-0.000121745
0.000180618
-0.00014326
0.000188505
-0.000163288
0.000193912
-0.000181008
0.000197874
-0.000195811
0.000201891
-0.000207548
0.000208034
-0.000216789
0.000218955
0.000238587
-0.000225475
-2.63886e-06
2.30207e-05
-9.73155e-06
6.24029e-05
-2.06217e-05
9.72435e-05
-3.45632e-05
0.000127269
-5.07374e-05
0.000152313
-6.826e-05
0.000172347
-8.61778e-05
0.000187466
-0.000103458
0.000197898
-0.000118979
0.000204026
-0.00013153
0.000206463
-0.00013986
0.000206204
-0.000142829
0.00020486
-0.000139762
0.000204967
-0.000131025
0.000210218
0.000225083
-0.00011752
-2.38363e-06
2.54043e-05
-8.69608e-06
6.87154e-05
-1.82277e-05
0.000106775
-3.01703e-05
0.000139211
-4.36317e-05
0.000165774
-5.76363e-05
0.000186351
-7.11103e-05
0.00020094
-8.2853e-05
0.000209641
-9.14994e-05
0.000212672
-9.54872e-05
0.000210451
-9.30643e-05
0.000203781
-8.24012e-05
0.000194197
-6.19306e-05
0.000184497
-3.15104e-05
0.000179798
0.000190616
2.95616e-06
-2.13276e-06
2.75371e-05
-7.6317e-06
7.42143e-05
-1.56946e-05
0.000114838
-2.54162e-05
0.000148933
-3.57996e-05
0.000176158
-4.57497e-05
0.000196301
-5.40471e-05
0.000209238
-5.9301e-05
0.000214895
-5.98832e-05
0.000213254
-5.38474e-05
0.000204415
-3.88618e-05
0.000188796
-1.22342e-05
0.000167569
2.87865e-05
0.000143476
8.59409e-05
0.000122644
0.000118956
0.0001576
-1.8846e-06
2.94217e-05
-6.52308e-06
7.88528e-05
-1.29695e-05
0.000121285
-2.01721e-05
0.000156135
-2.69797e-05
0.000182965
-3.21272e-05
0.000201449
-3.41991e-05
0.00021131
-3.15677e-05
0.000212264
-2.23039e-05
0.00020399
-4.05595e-06
0.000186167
2.60959e-05
0.000158644
7.17412e-05
0.000121924
0.000136992
7.82253e-05
0.000225659
3.39768e-05
7.50501e-06
0.00033711
-1.6325e-06
3.10542e-05
-5.33492e-06
8.25552e-05
-9.95342e-06
0.000125903
-1.42223e-05
0.000160404
-1.67619e-05
0.000185505
-1.60544e-05
0.000200741
-1.03955e-05
0.000205651
2.17672e-06
0.000199691
2.39827e-05
0.000182184
5.78366e-05
0.000152313
0.000107236
0.000109244
0.000176585
5.25758e-05
0.000271288
-1.64777e-05
0.000397276
-9.20119e-05
-0.000151865
0.000556647
-1.36576e-06
3.242e-05
-4.01512e-06
8.52046e-05
-6.5084e-06
0.000128396
-7.27974e-06
0.000161176
-4.61945e-06
0.000182845
3.36391e-06
0.000192758
1.88083e-05
0.000190206
4.41768e-05
0.000174323
8.2353e-05
0.000144008
0.000136759
9.79072e-05
0.000211515
3.4488e-05
0.000311684
-4.75935e-05
0.000443564
-0.000148357
0.000614536
-0.000262984
-0.000366566
0.000829237
-1.06983e-06
3.34898e-05
-2.49569e-06
8.66304e-05
-2.46078e-06
0.000128361
1.00317e-06
0.000157712
1.00585e-05
0.000173789
2.713e-05
0.000175686
5.49798e-05
0.000162357
9.67986e-05
0.000132504
0.000156286
8.45206e-05
0.00023771
1.64832e-05
0.00034594
-7.37414e-05
0.00048653
-0.000188184
0.000666036
-0.000327863
0.000892052
-0.000489
-0.000641819
0.0011673
-7.24539e-07
3.42143e-05
-6.87036e-07
8.65929e-05
2.40179e-06
0.000125273
1.10302e-05
0.000149083
2.79603e-05
0.000156859
5.63181e-05
0.000147329
9.9704e-05
0.000118971
0.000162288
6.992e-05
0.000248864
-2.05508e-06
0.000364824
-9.94774e-05
0.000515991
-0.000224908
0.00070831
-0.000380503
0.000947604
-0.000567157
0.00123958
-0.000780972
-0.000977087
0.00157484
-3.01572e-07
3.45159e-05
1.52551e-06
8.47658e-05
8.35063e-06
0.000118448
2.33003e-05
0.000134134
4.98749e-05
0.000130285
9.20765e-05
0.000105127
0.000154533
5.65146e-05
0.000242587
-1.8134e-05
0.000362312
-0.00012178
0.000520385
-0.000257551
0.000723789
-0.000428311
0.000979248
-0.000635962
0.00129195
-0.000879857
0.00166158
-0.0011506
-0.00134983
0.00203432
2.41885e-07
3.4274e-05
4.30128e-06
8.07064e-05
1.57296e-05
0.000107019
3.84059e-05
0.000111457
7.67011e-05
9.19895e-05
0.000135622
4.62062e-05
0.000220922
-2.87851e-05
0.00033913
-0.000136342
0.000497446
-0.000280096
0.000703451
-0.000463557
0.000964649
-0.000689509
0.00128793
-0.000959244
0.00167953
-0.00127145
0.0021502
-0.00162127
-0.00196117
0.00276154
9.56962e-07
3.33171e-05
7.83042e-06
7.3833e-05
2.49409e-05
8.99088e-05
5.70218e-05
7.93763e-05
0.00010941
3.96014e-05
0.00018817
-3.25536e-05
0.000300121
-0.000140737
0.000452703
-0.000288924
0.0006536
-0.000480993
0.000910087
-0.000720044
0.00122814
-0.00100756
0.00161148
-0.00134258
0.00206137
-0.00172134
0.00257612
-0.00213603
-0.00256454
0.00317949
1.90545e-06
3.14116e-05
1.23214e-05
6.34171e-05
3.6408e-05
6.58221e-05
7.98225e-05
3.59619e-05
0.000148901
-2.94772e-05
0.000250698
-0.00013435
0.000392827
-0.000282866
0.000583031
-0.000479128
0.000828388
-0.000726349
0.00113419
-0.00102585
0.00150265
-0.00137602
0.00193172
-0.00177165
0.00241445
-0.00220408
0.002939
-0.00266057
-0.00312917
0.00350364
3.14627e-06
2.82653e-05
1.79689e-05
4.85944e-05
5.05024e-05
3.32886e-05
0.000107342
-2.08774e-05
0.000195753
-0.000117889
0.00032353
-0.000262127
0.000498529
-0.000457865
0.000727803
-0.000708403
0.00101633
-0.00101488
0.00136553
-0.00137504
0.00177185
-0.00178234
0.00222609
-0.0022259
0.00271354
-0.00269152
0.00321555
-0.00316258
-0.0036327
0.00371907
4.72827e-06
2.35371e-05
2.49191e-05
2.84036e-05
6.74628e-05
-9.25516e-06
0.000139817
-9.32321e-05
0.000249955
-0.000228026
0.000405917
-0.000418088
0.00061491
-0.000666859
0.00088195
-0.000975442
0.0012082
-0.00134113
0.00158948
-0.00175632
0.00201547
-0.00220832
0.00247023
-0.00268066
0.00293399
-0.00315529
0.00338675
-0.00361534
-0.00405685
0.0038109
6.68297e-06
1.68541e-05
3.3242e-05
1.84458e-06
8.73297e-05
-6.33428e-05
0.000177067
-0.000182969
0.000310708
-0.000361667
0.000495762
-0.000603143
0.000737586
-0.000908682
0.0010376
-0.00127546
0.00139163
-0.00169516
0.00178901
-0.0021537
0.00221319
-0.0026325
0.00264402
-0.00311148
0.00306116
-0.00357243
0.0034482
-0.00400238
-0.00440092
0.00379227
9.02099e-06
7.8331e-06
4.29139e-05
-3.20484e-05
0.000109902
-0.000130331
0.000218412
-0.000291479
0.000376321
-0.000519577
0.000589567
-0.000816388
0.000860266
-0.00117938
0.00118484
-0.00160003
0.00155293
-0.00206325
0.00194792
-0.00254868
0.00234938
-0.00303397
0.00273687
-0.00349898
0.00309389
-0.00392945
0.00341094
-0.00431943
-0.00467326
0.00368329
1.17296e-05
-3.89651e-06
5.38081e-05
-7.41268e-05
0.000134718
-0.000211241
0.000262651
-0.000419412
0.000444236
-0.000701162
0.00068262
-0.00105477
0.000975372
-0.00147213
0.00131307
-0.00193773
0.00167955
-0.00242973
0.00205432
-0.00292345
0.00241655
-0.0033962
0.00274941
-0.00383184
0.00304303
-0.00422307
0.00329546
-0.00457186
-0.00488713
0.00350933
1.47712e-05
-1.86677e-05
6.56886e-05
-0.000125044
0.000161047
-0.000306599
0.000308092
-0.000566457
0.000511166
-0.000904237
0.000769431
-0.00131304
0.00107503
-0.00177773
0.00141282
-0.00227553
0.00176254
-0.00277945
0.00210284
-0.00326375
0.00241601
-0.00370937
0.00269127
-0.0041071
0.00292584
-0.00445765
0.00312373
-0.00476975
-0.00505544
0.00329204
1.80826e-05
-3.67503e-05
7.82103e-05
-0.000185172
0.000187913
-0.000416301
0.000352637
-0.00073118
0.000573375
-0.00112497
0.000844381
-0.00158404
0.00115223
-0.00208558
0.00147732
-0.00260062
0.00179785
-0.00309998
0.0020948
-0.0035607
0.00235582
-0.00397038
0.00257672
-0.004328
0.0027605
-0.00464143
0.00291468
-0.00492393
-0.00518875
0.00304799
2.15713e-05
-5.83216e-05
9.09246e-05
-0.000254525
0.000214136
-0.000539513
0.000393941
-0.000910986
0.000627068
-0.0013581
0.000902471
-0.00185945
0.00120191
-0.00238502
0.00150343
-0.00290213
0.00178648
-0.00338303
0.00203656
-0.00381078
0.00224744
-0.00418127
0.00242057
-0.00450112
0.0025626
-0.00478346
0.00268236
-0.00504369
-0.00529467
0.00278829
2.5118e-05
-8.34396e-05
0.000103299
-0.000332706
0.000238413
-0.000674627
0.000429635
-0.00110221
0.000668842
-0.00159731
0.000939989
-0.00213059
0.00122157
-0.0026666
0.00149166
-0.00317222
0.00173318
-0.00362456
0.00193716
-0.00401477
0.00210289
-0.004347
0.00223573
-0.00463396
0.00234405
-0.00489178
0.00243641
-0.00513605
-0.00537825
0.00251999
2.85816e-05
-0.000112021
0.00011475
-0.000418874
0.000259431
-0.000819309
0.000457567
-0.00130034
0.000696096
-0.00183584
0.000954936
-0.00238943
0.00121129
-0.00292295
0.00144539
-0.00340633
0.00164491
-0.00382407
0.00180622
-0.00417608
0.00193283
-0.00447361
0.0020323
-0.00473343
0.00211321
-0.00497269
0.00218301
-0.00520585
-0.00544258
0.00224734
3.18073e-05
-0.000143828
0.000124692
-0.000511759
0.000275987
-0.000970604
0.000476044
-0.0015004
0.000707297
-0.00206709
0.000947088
-0.00262922
0.00117328
-0.00314915
0.00136977
-0.00360282
0.00152923
-0.00398353
0.00165251
-0.00429936
0.00174587
-0.00456697
0.00181764
-0.0048052
0.00187567
-0.00503072
0.001926
-0.00525617
-0.00548943
0.00197285
3.46382e-05
-0.000178467
0.000132581
-0.000609702
0.000287105
-0.00112513
0.000483987
-0.00169728
0.000702063
-0.00228517
0.000917751
-0.00284491
0.00111118
-0.00334258
0.00127061
-0.00376224
0.00139328
-0.0041062
0.00148337
-0.00438945
0.00154853
-0.00463213
0.00159687
-0.00485354
0.00163508
-0.00506893
0.00166777
-0.00528887
-0.00551968
0.00169803
3.69275e-05
-0.000215394
0.000137969
-0.000710743
0.00029212
-0.00127928
0.000480993
-0.00188616
0.000681046
-0.00248522
0.000869327
-0.00303319
0.00102929
-0.00350255
0.00115359
-0.00388654
0.00124325
-0.00419587
0.00130455
-0.00445074
0.00134553
-0.00467311
0.00137348
-0.00488148
0.00139378
-0.00508923
0.00140984
-0.00530494
-0.00553367
0.00142384
3.85495e-05
-0.000253944
0.00014053
-0.000812723
0.000290721
-0.00142947
0.000467305
-0.00206274
0.000645693
-0.00266361
0.000804828
-0.00319233
0.000931984
-0.0036297
0.00102382
-0.00397838
0.00108416
-0.00425621
0.00112039
-0.00448697
0.00114022
-0.00469294
0.00114983
-0.0048911
0.00115338
-0.00509277
0.00115328
-0.00530483
-0.00553142
0.00115102
3.94086e-05
-0.000293352
0.000140087
-0.000913401
0.00028294
-0.00157232
0.000443688
-0.00222349
0.000597965
-0.00281789
0.00072747
-0.00332183
0.000823349
-0.00372558
0.000885609
-0.00404064
0.000919951
-0.00429055
0.000934066
-0.00450109
0.000934926
-0.0046938
0.000927552
-0.00488373
0.000915002
-0.00508022
0.000898923
-0.00528875
-0.00551275
0.00088025
3.94443e-05
-0.000332797
0.000136607
-0.00101056
0.00026911
-0.00170483
0.000411284
-0.00236566
0.000540056
-0.00294666
0.000640367
-0.00342214
0.000706959
-0.00379217
0.000742446
-0.00407613
0.000753608
-0.00430171
0.000747901
-0.00449538
0.000731331
-0.00467723
0.000707816
-0.00486021
0.000679529
-0.00505194
0.000647543
-0.00525677
-0.00547762
0.000612417
3.86323e-05
-0.000371429
0.000130193
-0.00110212
0.000249793
-0.00182443
0.000371446
-0.00248732
0.000474182
-0.00304939
0.00054634
-0.0034943
0.000585801
-0.00383163
0.000597069
-0.0040874
0.000587375
-0.00429202
0.000563595
-0.0044716
0.000530713
-0.00464435
0.00049165
-0.00482115
0.000447811
-0.0050081
0.000399771
-0.00520873
-0.00542641
0.000348557
3.69826e-05
-0.000408411
0.000121055
-0.0011862
0.000225706
-0.00192908
0.000325602
-0.00258721
0.000402429
-0.00312622
0.000447828
-0.0035397
0.000462285
-0.00384609
0.000451559
-0.00407667
0.000422877
-0.00426334
0.000382361
-0.00443108
0.00033405
-0.00459603
0.000280047
-0.00476715
0.000221042
-0.00494909
0.00015691
-0.0051446
-0.00535567
8.61698e-05
3.45353e-05
-0.000442947
0.000109484
-0.00126115
0.000197643
-0.00201724
0.000275153
-0.00266472
0.000326665
-0.00317773
0.000346868
-0.0035599
0.000338302
-0.00383752
0.000307458
-0.00404583
0.000261248
-0.00421713
0.000204989
-0.00437483
0.000141892
-0.00453294
7.35006e-05
-0.00469876
3.87224e-07
-0.00487598
-7.8076e-05
-0.00506613
-0.00527119
-0.000162547
3.13542e-05
-0.000474301
9.5825e-05
-0.00132562
0.000166421
-0.00208783
0.000221408
-0.00271971
0.00024851
-0.00320483
0.000245111
-0.00355651
0.000215307
-0.00380772
0.0001659
-0.00399642
0.000103282
-0.00415451
3.1955e-05
-0.0043035
-4.55262e-05
-0.00445546
-0.000128097
-0.00461618
-0.000215722
-0.00478836
-0.000308233
-0.00497362
-0.00517498
-0.000404445
2.75228e-05
-0.000501824
8.04482e-05
-0.00137854
0.000132836
-0.00214022
0.000165546
-0.00275242
0.000169324
-0.00320861
0.000143879
-0.00353106
9.4417e-05
-0.00375826
2.7721e-05
-0.00392972
-5.0427e-05
-0.00407636
-0.00013624
-0.00421769
-0.000227794
-0.0043639
-0.000324404
-0.00451957
-0.000426028
-0.00468673
-0.000532507
-0.00486714
-0.00506432
-0.000643172
2.31436e-05
-0.000524967
6.37433e-05
-0.00141914
9.76433e-05
-0.00217412
0.0001086
-0.00276337
9.02142e-05
-0.00319023
4.42753e-05
-0.00348512
-2.34806e-05
-0.0036905
-0.000106424
-0.00384678
-0.000199437
-0.00398335
-0.000299426
-0.0041177
-0.000404909
-0.00425842
-0.00051542
-0.00440906
-0.000630983
-0.00457117
-0.000751528
-0.0047466
-0.00493927
-0.000876579
1.83462e-05
-0.000543314
4.61232e-05
-0.00144692
6.15672e-05
-0.00218956
5.14377e-05
-0.00275325
1.25072e-05
-0.0031513
-5.28254e-05
-0.00341979
-0.000137742
-0.00360559
-0.000236077
-0.00374845
-0.000343429
-0.00387599
-0.000457312
-0.00400381
-0.000576616
-0.00413911
-0.000701041
-0.00428464
-0.000830686
-0.00444152
-0.000965464
-0.00461182
-0.0047999
-0.00110483
1.32602e-05
-0.000556574
2.795e-05
-0.00146161
2.5377e-05
-0.00218699
-4.23988e-06
-0.00272363
-6.37116e-05
-0.00309182
-0.000146975
-0.00333652
-0.000247893
-0.00350467
-0.000360846
-0.00363549
-0.000482079
-0.00375476
-0.000609634
-0.00387626
-0.000742714
-0.00400603
-0.000881162
-0.00414619
-0.00102517
-0.00429751
-0.00117466
-0.00446233
-0.00464561
-0.00132895
7.942e-06
-0.000564516
9.47295e-06
-0.00146314
-1.07313e-05
-0.00216679
-6.05104e-05
-0.00267385
-0.000137705
-0.00301463
-0.000237518
-0.00323671
-0.000353439
-0.00338875
-0.000480317
-0.00350861
-0.000615036
-0.00362004
-0.000756126
-0.00373517
-0.000903067
-0.00385909
-0.00105579
-0.00399346
-0.00121447
-0.00413884
-0.0013791
-0.0042977
-0.00447449
-0.00155022
2.10974e-06
-0.000566625
-9.23349e-06
-0.0014518
-4.68675e-05
-0.00212915
-0.000114222
-0.00260649
-0.000208574
-0.00292028
-0.00032385
-0.00312144
-0.000453831
-0.00325877
-0.000593956
-0.00336849
-0.000741736
-0.00347226
-0.00089623
-0.00358068
-0.0010573
-0.00369802
-0.00122503
-0.00382574
-0.00139924
-0.00396463
-0.00157913
-0.0041178
-0.00428269
-0.00177094
-3.51997e-06
-0.000563106
-2.77546e-05
-0.00142756
-8.1491e-05
-0.00207542
-0.000165694
-0.00252229
-0.000275903
-0.00281007
-0.000405519
-0.00299182
-0.000548577
-0.00311571
-0.000701105
-0.00321596
-0.000861212
-0.00331216
-0.00102851
-0.00341338
-0.00120346
-0.00352307
-0.00138684
-0.00364236
-0.00157974
-0.00377172
-0.00178494
-0.00391261
-0.00408883
-0.00197879
-8.94894e-06
-0.000554157
-4.5573e-05
-0.00139094
-0.000114667
-0.00200632
-0.000214569
-0.00242239
-0.000339398
-0.00268524
-0.000482205
-0.00284901
-0.000637316
-0.0029606
-0.000801252
-0.00305203
-0.00097255
-0.00314086
-0.00115115
-0.00323477
-0.00133794
-0.00333628
-0.00153437
-0.00344594
-0.00174149
-0.0035646
-0.00196053
-0.00369356
-0.00382031
-0.00222905
-1.43775e-05
-0.000539779
-6.26968e-05
-0.00134262
-0.000146172
-0.00192285
-0.000260594
-0.00230797
-0.000398846
-0.00254699
-0.000553754
-0.0026941
-0.000719952
-0.0027944
-0.000894384
-0.00287759
-0.00107586
-0.00295938
-0.00126433
-0.00304631
-0.00146014
-0.00314047
-0.00166359
-0.00324249
-0.0018754
-0.00335279
-0.00209966
-0.0034693
-0.00358247
-0.0023375
-1.9616e-05
-0.000520163
-7.89853e-05
-0.00128325
-0.00017582
-0.00182601
-0.000303586
-0.0021802
-0.000454105
-0.00239647
-0.000620078
-0.00252813
-0.000796463
-0.00261801
-0.000980609
-0.00269345
-0.00117163
-0.00276836
-0.00136962
-0.00284832
-0.00157502
-0.00293507
-0.00178841
-0.0030291
-0.00201084
-0.00313036
-0.00224325
-0.00323689
-0.00334547
-0.00248025
-2.46033e-05
-0.00049556
-9.43115e-05
-0.00121354
-0.000203468
-0.00171685
-0.000343423
-0.00204025
-0.0005051
-0.00223479
-0.00068114
-0.00235209
-0.000866808
-0.00243235
-0.00105978
-0.00250047
-0.00125936
-0.00256877
-0.00146566
-0.00264202
-0.00167908
-0.00272165
-0.00190014
-0.00280804
-0.00212947
-0.00290102
-0.00236701
-0.00299935
-0.00310206
-0.00261043
-2.92951e-05
-0.000466265
-0.000108579
-0.00113426
-0.000229012
-0.00159642
-0.000380033
-0.00188923
-0.000551816
-0.00206301
-0.000736998
-0.00216691
-0.000931152
-0.00223819
-0.00113226
-0.00229936
-0.00133982
-0.00236122
-0.00155401
-0.00242783
-0.00177527
-0.0025004
-0.00200408
-0.00257923
-0.00224085
-0.00266424
-0.00248546
-0.00275474
-0.00285086
-0.00273666
-3.36547e-05
-0.00043261
-0.000121713
-0.0010462
-0.000252375
-0.00146576
-0.000413367
-0.00172823
-0.000594237
-0.00188214
-0.000787659
-0.00197349
-0.000989492
-0.00203636
-0.00119799
-0.00209086
-0.0014128
-0.00214641
-0.00163418
-0.00220645
-0.00186258
-0.002272
-0.00209847
-0.00234334
-0.00234226
-0.00242045
-0.00259406
-0.00250294
-0.00259147
-0.00285345
-3.76517e-05
-0.000394958
-0.000133659
-0.000950191
-0.000273504
-0.00132591
-0.000443404
-0.00155833
-0.000632384
-0.00169316
-0.000833184
-0.00177269
-0.00104193
-0.00182761
-0.00125712
-0.00187567
-0.00147854
-0.00192499
-0.00170651
-0.00197848
-0.00194152
-0.00203699
-0.00218407
-0.00210078
-0.00243463
-0.0021699
-0.00269349
-0.00224408
-0.00232433
-0.00296062
-4.1261e-05
-0.000353697
-0.000144369
-0.000847083
-0.000292361
-0.00117792
-0.000470126
-0.00138057
-0.000666265
-0.00149702
-0.0008736
-0.00156535
-0.0010885
-0.00161271
-0.00130967
-0.0016545
-0.00153703
-0.00169764
-0.00177094
-0.00174457
-0.00201195
-0.00179598
-0.00226059
-0.00185214
-0.00251741
-0.00191308
-0.00278284
-0.00197865
-0.00205003
-0.00305714
-4.44615e-05
-0.000309236
-0.00015381
-0.000737734
-0.000308915
-0.00102282
-0.000493526
-0.00119596
-0.000695895
-0.00129465
-0.000908936
-0.00135231
-0.00112924
-0.00139241
-0.00135568
-0.00142806
-0.00158828
-0.00146504
-0.00182748
-0.00150537
-0.00207383
-0.00154963
-0.00232794
-0.00159803
-0.00259041
-0.00165061
-0.00286177
-0.00170729
-0.00176932
-0.00314248
-4.72358e-05
-0.000262
-0.000161952
-0.000623018
-0.000323143
-0.000861628
-0.000513596
-0.0010055
-0.000721284
-0.00108696
-0.00093921
-0.00113439
-0.00116415
-0.00116747
-0.00139514
-0.00119706
-0.00163229
-0.0012279
-0.00187606
-0.00126159
-0.00212708
-0.00129861
-0.00238597
-0.00133914
-0.00265337
-0.0013832
-0.00292989
-0.00143077
-0.00148304
-0.00321618
-4.95691e-05
-0.000212431
-0.000168771
-0.000503816
-0.000335028
-0.000695371
-0.000530331
-0.000810201
-0.000742438
-0.000874855
-0.000964433
-0.000912392
-0.00119325
-0.000938646
-0.00142806
-0.000962259
-0.00166902
-0.000986947
-0.00191665
-0.00101396
-0.0021716
-0.00104367
-0.00243452
-0.00107622
-0.00270609
-0.00111163
-0.00298697
-0.00114989
-0.00119208
-0.00327794
-5.14498e-05
-0.000160981
-0.000174249
-0.000381017
-0.000344553
-0.000525067
-0.000543726
-0.000611028
-0.00075936
-0.000659221
-0.00098461
-0.000687143
-0.00121654
-0.000706715
-0.00145441
-0.00072439
-0.00169844
-0.000742916
-0.00194919
-0.000763212
-0.00220731
-0.00078555
-0.00247349
-0.000810037
-0.00274843
-0.000836684
-0.00303282
-0.000865502
-0.000897355
-0.00332754
-5.28685e-05
-0.000108112
-0.00017837
-0.000255515
-0.000351708
-0.000351729
-0.000553777
-0.000408959
-0.000772052
-0.000440946
-0.000999743
-0.000459452
-0.00123401
-0.000472445
-0.00147419
-0.000484213
-0.00172054
-0.00049657
-0.00197363
-0.000510118
-0.00223414
-0.000525037
-0.00250278
-0.000541397
-0.00278026
-0.000559205
-0.00306729
-0.000578472
-0.000599807
-0.00336484
-5.38181e-05
-5.42943e-05
-0.000181124
-0.000128209
-0.000356483
-0.00017637
-0.00056048
-0.000204962
-0.000780514
-0.000220913
-0.00100983
-0.000230133
-0.00124566
-0.000236613
-0.00148738
-0.000242493
-0.00173528
-0.000248674
-0.00198994
-0.000255453
-0.00225206
-0.000262921
-0.00252235
-0.000271112
-0.00280152
-0.000280028
-0.00309032
-0.000289678
-0.000300375
-0.00338975
-5.42941e-05
-2.08809e-10
-0.000182503
-5.08935e-10
-0.000358872
-7.09808e-10
-0.000563833
-8.27568e-10
-0.000784744
-8.87016e-10
-0.00101488
-9.12845e-10
-0.00125149
-9.23083e-10
-0.00149398
-9.27973e-10
-0.00174265
-9.31908e-10
-0.00199811
-9.36147e-10
-0.00226103
-9.40894e-10
-0.00253214
-9.46069e-10
-0.00281216
-9.51276e-10
-0.00310184
-9.56121e-10
-9.60264e-10
-0.00340221
-5.42941e-05
5.42939e-05
-0.000182503
0.000128208
-0.000358872
0.000176369
-0.000563833
0.00020496
-0.000784744
0.000220911
-0.00101488
0.000230132
-0.00125149
0.000236612
-0.00149398
0.000242491
-0.00174265
0.000248672
-0.00199811
0.000255451
-0.00226103
0.000262919
-0.00253214
0.00027111
-0.00281216
0.000280026
-0.00310184
0.000289676
0.000300373
-0.00340221
-5.38181e-05
0.000108112
-0.000181124
0.000255514
-0.000356483
0.000351728
-0.00056048
0.000408957
-0.000780514
0.000440944
-0.00100983
0.00045945
-0.00124566
0.000472443
-0.00148738
0.000484211
-0.00173528
0.000496568
-0.00198994
0.000510116
-0.00225206
0.000525035
-0.00252235
0.000541395
-0.00280152
0.000559203
-0.00309032
0.00057847
0.000599805
-0.00338975
-5.28685e-05
0.00016098
-0.00017837
0.000381016
-0.000351708
0.000525065
-0.000553777
0.000611027
-0.000772052
0.000659219
-0.000999743
0.000687141
-0.00123401
0.000706713
-0.00147419
0.000724388
-0.00172054
0.000742915
-0.00197363
0.00076321
-0.00223414
0.000785548
-0.00250278
0.000810035
-0.00278026
0.000836683
-0.00306729
0.0008655
0.000897353
-0.00336484
-5.14498e-05
0.00021243
-0.000174249
0.000503815
-0.000344554
0.00069537
-0.000543726
0.000810199
-0.00075936
0.000874853
-0.00098461
0.00091239
-0.00121654
0.000938644
-0.00145441
0.000962257
-0.00169844
0.000986945
-0.00194919
0.00101396
-0.00220731
0.00104367
-0.00247349
0.00107621
-0.00274843
0.00111162
-0.00303282
0.00114989
0.00119208
-0.00332754
-4.95691e-05
0.000261999
-0.000168771
0.000623017
-0.000335028
0.000861627
-0.000530331
0.0010055
-0.000742438
0.00108696
-0.000964433
0.00113438
-0.00119325
0.00116746
-0.00142806
0.00119706
-0.00166902
0.0012279
-0.00191665
0.00126159
-0.0021716
0.00129861
-0.00243452
0.00133914
-0.00270609
0.0013832
-0.00298697
0.00143077
0.00148304
-0.00327794
-4.72358e-05
0.000309235
-0.000161952
0.000737733
-0.000323143
0.00102282
-0.000513596
0.00119596
-0.000721284
0.00129465
-0.00093921
0.00135231
-0.00116415
0.00139241
-0.00139514
0.00142805
-0.00163229
0.00146504
-0.00187606
0.00150537
-0.00212708
0.00154963
-0.00238597
0.00159803
-0.00265337
0.00165061
-0.00292989
0.00170729
0.00176932
-0.00321618
-4.44615e-05
0.000353697
-0.00015381
0.000847082
-0.000308915
0.00117792
-0.000493526
0.00138057
-0.000695895
0.00149702
-0.000908936
0.00156535
-0.00112924
0.00161271
-0.00135568
0.0016545
-0.00158828
0.00169764
-0.00182748
0.00174457
-0.00207383
0.00179598
-0.00232794
0.00185214
-0.00259041
0.00191307
-0.00286177
0.00197865
0.00205003
-0.00314248
-4.1261e-05
0.000394958
-0.000144369
0.00095019
-0.000292361
0.00132591
-0.000470126
0.00155833
-0.000666265
0.00169316
-0.0008736
0.00177269
-0.0010885
0.00182761
-0.00130967
0.00187567
-0.00153703
0.00192499
-0.00177094
0.00197848
-0.00201195
0.00203699
-0.00226059
0.00210078
-0.00251741
0.00216989
-0.00278284
0.00224408
0.00232433
-0.00305714
-3.76517e-05
0.00043261
-0.000133659
0.0010462
-0.000273504
0.00146576
-0.000443404
0.00172823
-0.000632384
0.00188214
-0.000833184
0.00197349
-0.00104193
0.00203636
-0.00125712
0.00209086
-0.00147854
0.00214641
-0.00170651
0.00220645
-0.00194152
0.002272
-0.00218407
0.00234333
-0.00243463
0.00242045
-0.00269349
0.00250294
0.00259146
-0.00296062
-3.36547e-05
0.000466264
-0.000121713
0.00113426
-0.000252375
0.00159642
-0.000413368
0.00188922
-0.000594237
0.00206301
-0.000787659
0.00216691
-0.000989492
0.00223819
-0.00119799
0.00229936
-0.0014128
0.00236122
-0.00163418
0.00242783
-0.00186258
0.00250039
-0.00209847
0.00257923
-0.00234226
0.00266424
-0.00259406
0.00275474
0.00285086
-0.00285345
-2.92951e-05
0.000495559
-0.000108579
0.00121354
-0.000229012
0.00171685
-0.000380033
0.00204025
-0.000551816
0.00223479
-0.000736998
0.00235209
-0.000931152
0.00243234
-0.00113226
0.00250047
-0.00133982
0.00256877
-0.00155401
0.00264202
-0.00177527
0.00272165
-0.00200408
0.00280804
-0.00224085
0.00290102
-0.00248546
0.00299935
0.00310206
-0.00273666
-2.46033e-05
0.000520163
-9.43116e-05
0.00128325
-0.000203468
0.00182601
-0.000343423
0.0021802
-0.000505101
0.00239647
-0.00068114
0.00252813
-0.000866808
0.00261801
-0.00105978
0.00269344
-0.00125936
0.00276835
-0.00146566
0.00284832
-0.00167908
0.00293507
-0.00190014
0.0030291
-0.00212948
0.00313035
-0.00236701
0.00323689
0.00334547
-0.00261043
-1.9616e-05
0.000539779
-7.89854e-05
0.00134262
-0.00017582
0.00192285
-0.000303586
0.00230797
-0.000454106
0.00254699
-0.000620078
0.0026941
-0.000796463
0.0027944
-0.000980609
0.00287759
-0.00117163
0.00295938
-0.00136962
0.00304631
-0.00157502
0.00314047
-0.00178841
0.00324249
-0.00201084
0.00335279
-0.00224325
0.0034693
0.00358247
-0.00248025
-1.43775e-05
0.000554156
-6.26969e-05
0.00139094
-0.000146172
0.00200632
-0.000260594
0.00242239
-0.000398846
0.00268524
-0.000553754
0.00284901
-0.000719952
0.0029606
-0.000894385
0.00305202
-0.00107586
0.00314086
-0.00126433
0.00323477
-0.00146014
0.00333628
-0.00166359
0.00344594
-0.0018754
0.0035646
-0.00209966
0.00369356
0.0038203
-0.0023375
-8.94896e-06
0.000563105
-4.55731e-05
0.00142756
-0.000114667
0.00207541
-0.000214569
0.00252229
-0.000339398
0.00281007
-0.000482206
0.00299182
-0.000637316
0.00311571
-0.000801252
0.00321596
-0.00097255
0.00331215
-0.00115116
0.00341337
-0.00133794
0.00352307
-0.00153437
0.00364236
-0.00174149
0.00377172
-0.00196053
0.0039126
0.00408883
-0.00222905
-3.51999e-06
0.000566625
-2.77546e-05
0.0014518
-8.14912e-05
0.00212915
-0.000165694
0.00260649
-0.000275903
0.00292028
-0.000405519
0.00312143
-0.000548577
0.00325876
-0.000701106
0.00336849
-0.000861212
0.00347226
-0.00102851
0.00358067
-0.00120346
0.00369802
-0.00138684
0.00382573
-0.00157974
0.00396463
-0.00178494
0.0041178
0.00428268
-0.00197879
2.1097e-06
0.000564516
-9.23359e-06
0.00146314
-4.68677e-05
0.00216678
-0.000114223
0.00267385
-0.000208574
0.00301463
-0.00032385
0.00323671
-0.000453831
0.00338875
-0.000593956
0.00350861
-0.000741737
0.00362004
-0.00089623
0.00373517
-0.0010573
0.00385909
-0.00122503
0.00399346
-0.00139924
0.00413884
-0.00157913
0.00429769
0.00447449
-0.00177094
7.94196e-06
0.000556574
9.47283e-06
0.00146161
-1.07315e-05
0.00218699
-6.05107e-05
0.00272363
-0.000137705
0.00309182
-0.000237518
0.00333652
-0.000353439
0.00350467
-0.000480318
0.00363549
-0.000615036
0.00375476
-0.000756126
0.00387626
-0.000903068
0.00400603
-0.00105579
0.00414619
-0.00121447
0.00429751
-0.0013791
0.00446232
0.00464561
-0.00155022
1.32601e-05
0.000543313
2.79498e-05
0.00144692
2.53768e-05
0.00218956
-4.24021e-06
0.00275324
-6.37119e-05
0.00315129
-0.000146976
0.00341979
-0.000247894
0.00360558
-0.000360847
0.00374844
-0.000482079
0.00387599
-0.000609635
0.00400381
-0.000742715
0.00413911
-0.000881162
0.00428464
-0.00102517
0.00444152
-0.00117467
0.00461182
0.0047999
-0.00132895
1.83462e-05
0.000524967
4.61231e-05
0.00141914
6.15669e-05
0.00217412
5.14373e-05
0.00276337
1.25068e-05
0.00319022
-5.28259e-05
0.00348512
-0.000137742
0.0036905
-0.000236077
0.00384678
-0.00034343
0.00398334
-0.000457312
0.00411769
-0.000576616
0.00425842
-0.000701041
0.00440906
-0.000830686
0.00457117
-0.000965465
0.00474659
0.00493926
-0.00110483
2.31436e-05
0.000501824
6.37432e-05
0.00137854
9.7643e-05
0.00214022
0.0001086
0.00275242
9.02138e-05
0.00320861
4.42748e-05
0.00353106
-2.34811e-05
0.00375826
-0.000106425
0.00392972
-0.000199438
0.00407636
-0.000299427
0.00421768
-0.00040491
0.0043639
-0.00051542
0.00451957