/*--------------------------------*- C++ -*----------------------------------*\
  =========                 |
  \\      /  F ield         | OpenFOAM: The Open Source CFD Toolbox
   \\    /   O peration     | Website:  https://openfoam.org
    \\  /    A nd           | Version:  7
     \\/     M anipulation  |
\*---------------------------------------------------------------------------*/
FoamFile
{
    version     2.0;
    format      ascii;
    class       volVectorField;
    location    "35";
    object      U;
}
// * * * * * * * * * * * * * * * * * * * * * * * * * * * * * * * * * * * * * //

dimensions      [0 1 -1 0 0 0 0];

internalField   nonuniform List<vector> 
13250
(
(-0.000514192 0.000804893 -1.24753e-21)
(-0.00275791 0.00204018 1.48635e-20)
(-0.00719024 0.00295855 -2.94781e-20)
(-0.013038 0.0036098 -1.94505e-20)
(-0.0197917 0.00403641 1.36481e-21)
(-0.0271206 0.00427768 1.18978e-20)
(-0.0347452 0.00437279 -1.78879e-21)
(-0.0424415 0.0043603 -2.6293e-21)
(-0.0500512 0.0042776 -3.57476e-21)
(-0.0574804 0.00416046 -1.56876e-20)
(-0.0646974 0.00404234 -3.11889e-20)
(-0.0717282 0.00395284 1.67662e-20)
(-0.0786406 0.00391559 -4.80672e-22)
(-0.0855332 0.00394767 -2.03703e-20)
(-0.0926204 0.0040575 2.08974e-20)
(-0.000673461 0.00239257 -4.30516e-20)
(-0.00313986 0.00606662 -5.36941e-20)
(-0.00769604 0.00879933 8.55291e-21)
(-0.013588 0.010737 1.70633e-21)
(-0.0203182 0.0120052 8.2213e-20)
(-0.0275635 0.01272 -1.05542e-20)
(-0.0350504 0.0129978 5.24112e-21)
(-0.0425593 0.0129532 1.74455e-20)
(-0.0499346 0.0126977 -1.97676e-20)
(-0.0570845 0.0123384 1.78458e-20)
(-0.063979 0.0119764 6.88774e-20)
(-0.070648 0.0117018 -3.78018e-20)
(-0.0771632 0.0115881 -1.74487e-20)
(-0.0836254 0.0116899 1.43278e-20)
(-0.0902797 0.012034 1.1564e-20)
(-0.000985889 0.00391819 1.17e-19)
(-0.00389054 0.00994174 -7.76705e-20)
(-0.00869201 0.0144261 -3.82551e-20)
(-0.0146724 0.0176056 -3.20801e-20)
(-0.0213571 0.0196827 6.79915e-21)
(-0.0284373 0.0208463 6.64364e-21)
(-0.0356512 0.021286 -3.03198e-20)
(-0.0427876 0.0211893 -1.1158e-20)
(-0.0496964 0.0207398 -7.52395e-20)
(-0.0562886 0.0201155 -1.43611e-19)
(-0.0625375 0.0194863 1.36741e-20)
(-0.0684793 0.019008 -1.03455e-19)
(-0.0741939 0.0188115 1.91403e-19)
(-0.0797846 0.0190002 -2.75965e-20)
(-0.0855626 0.0196259 2.13869e-21)
(-0.00144001 0.00534563 2.10727e-20)
(-0.00498473 0.0135755 5.82641e-20)
(-0.0101476 0.0197094 1.38076e-19)
(-0.0162599 0.0240568 -1.79042e-19)
(-0.0228785 0.0268885 -9.31335e-20)
(-0.0297151 0.0284593 1.76284e-19)
(-0.0365242 0.029026 -8.50504e-20)
(-0.0431068 0.0288438 -7.34935e-20)
(-0.0493197 0.0281643 1.11788e-19)
(-0.0550772 0.0272346 3.78994e-20)
(-0.060355 0.0262961 4.31716e-20)
(-0.0651969 0.025577 -7.2516e-20)
(-0.0696931 0.0252802 9.43763e-20)
(-0.0739485 0.0255798 -2.01713e-20)
(-0.0783782 0.0265698 7.95126e-20)
(-0.00202026 0.0066458 6.92645e-20)
(-0.00638708 0.0168924 -2.94602e-20)
(-0.0120183 0.0245373 -9.52384e-21)
(-0.0183023 0.0299506 4.38814e-20)
(-0.0248336 0.0334612 -3.06369e-19)
(-0.0313491 0.0353812 2.07836e-19)
(-0.0376236 0.0360264 6.60858e-20)
(-0.0434729 0.0357124 -3.50488e-20)
(-0.0487619 0.0347522 4.43852e-20)
(-0.0534065 0.0334584 -5.3894e-20)
(-0.0573823 0.032145 5.36488e-20)
(-0.0607387 0.0311217 -5.53385e-20)
(-0.0635763 0.030684 -2.1952e-19)
(-0.065994 0.0311117 1.10167e-21)
(-0.068544 0.0325803 1.56797e-19)
(-0.00270846 0.00779781 -1.07816e-19)
(-0.00805433 0.0198341 1.06275e-19)
(-0.0142463 0.0288195 -1.49936e-20)
(-0.020733 0.0351705 8.21071e-20)
(-0.0271497 0.0392636 -1.17466e-20)
(-0.0332615 0.0414594 6.32902e-20)
(-0.0388671 0.0421234 -4.99339e-20)
(-0.043799 0.0416213 -1.41015e-20)
(-0.0479302 0.0403184 2.02203e-20)
(-0.0511762 0.0385854 1.83972e-20)
(-0.053506 0.0368064 -2.32319e-19)
(-0.054969 0.0353807 2.01665e-19)
(-0.0556764 0.0347203 -1.91974e-19)
(-0.055705 0.0352573 2.49383e-19)
(-0.0557246 0.0373192 -1.34506e-19)
(-0.0034853 0.00878897 1.24513e-19)
(-0.00993724 0.0223598 -2.72218e-19)
(-0.0167608 0.0324877 1.86048e-19)
(-0.0234633 0.0396242 3.47921e-20)
(-0.0297217 0.0441853 -2.17228e-19)
(-0.0353311 0.0465711 -6.1676e-20)
(-0.0401161 0.0471869 2.44206e-19)
(-0.0439275 0.0464373 -1.76266e-19)
(-0.0466462 0.0447272 7.57059e-21)
(-0.0481832 0.0424732 2.71132e-19)
(-0.0484937 0.0401211 3.37625e-19)
(-0.047617 0.0381616 -2.04049e-19)
(-0.045681 0.0371441 4.27909e-19)
(-0.0427373 0.0377156 -4.7872e-19)
(-0.039387 0.0404902 -1.38726e-19)
(-0.00433133 0.00961351 -2.19138e-19)
(-0.0119815 0.0244437 2.99547e-21)
(-0.0194768 0.0354932 2.22763e-19)
(-0.0263783 0.0432426 -1.38851e-19)
(-0.0324029 0.0481414 4.08425e-19)
(-0.0373765 0.0506232 1.5713e-19)
(-0.0411505 0.0511238 2.28695e-20)
(-0.0435942 0.0500751 9.14495e-20)
(-0.0445951 0.0479066 -5.07744e-19)
(-0.0440556 0.0450636 4.1251e-19)
(-0.0419073 0.0420377 -4.06025e-19)
(-0.0381656 0.0394021 5.15392e-19)
(-0.032975 0.037858 -3.71035e-19)
(-0.0264278 0.0383918 3.50744e-19)
(-0.0188704 0.0423659 -3.62602e-19)
(-0.00522731 0.0102706 -7.35024e-20)
(-0.0141278 0.0260711 5.52908e-19)
(-0.0222925 0.0378026 9.26567e-20)
(-0.0293299 0.0459744 -9.6232e-20)
(-0.0349936 0.0510685 -5.50864e-19)
(-0.0391384 0.0535488 9.17547e-20)
(-0.041641 0.0538756 4.47981e-19)
(-0.0423878 0.0524974 -2.76043e-19)
(-0.0412691 0.0498536 5.80027e-20)
(-0.0381722 0.046397 -4.79922e-19)
(-0.0329932 0.0426379 1.33539e-19)
(-0.0257007 0.039203 2.36118e-19)
(-0.0163792 0.0369516 -9.41136e-20)
(-0.00497887 0.0373632 -1.21771e-19)
(0.0076234 0.0425942 -7.44645e-21)
(-0.00615396 0.0107617 -4.9323e-19)
(-0.0163097 0.0272333 -9.38943e-20)
(-0.0250861 0.0393915 -8.20153e-19)
(-0.0321311 0.0477801 5.68251e-19)
(-0.0372297 0.0529179 1.29441e-20)
(-0.0402615 0.0553002 -9.12843e-20)
(-0.0411236 0.0554103 -6.20395e-19)
(-0.0397136 0.0537076 3.57723e-19)
(-0.0359182 0.05063 -8.12026e-20)
(-0.0296018 0.0466178 -2.14216e-19)
(-0.0206149 0.0421648 1.89034e-20)
(-0.00886747 0.0378979 -2.31975e-19)
(0.00563449 0.0347731 1.79191e-19)
(0.023172 0.034738 -2.39237e-20)
(0.0426203 0.0409941 -1.76685e-19)
(-0.00709115 0.0110889 -3.37722e-19)
(-0.0184522 0.0279235 3.64197e-19)
(-0.0277112 0.0402395 -3.46251e-20)
(-0.0345483 0.0486265 2.21335e-21)
(-0.0387729 0.053649 1.03776e-19)
(-0.0402805 0.0558408 -1.66655e-19)
(-0.0389786 0.055712 7.91071e-20)
(-0.034764 0.0537353 3.28815e-19)
(-0.0275079 0.0503458 -5.68775e-19)
(-0.0170409 0.045962 9.37765e-19)
(-0.00315937 0.0410365 -1.85629e-20)
(0.0142909 0.0361398 -6.48419e-19)
(0.0353525 0.0322095 -2.48388e-19)
(0.0605502 0.0315599 6.74757e-20)
(0.0891062 0.0389274 -3.75081e-19)
(-0.00801674 0.0112533 -2.82395e-20)
(-0.0204673 0.0281335 7.49966e-19)
(-0.0299914 0.0403267 -3.87044e-20)
(-0.0362948 0.0484837 2.05654e-19)
(-0.0392014 0.0532273 4.0003e-20)
(-0.0386099 0.0551416 4.42229e-20)
(-0.0344209 0.0547735 4.74853e-20)
(-0.0265105 0.0526201 -3.04233e-19)
(-0.0147137 0.0491261 9.92673e-20)
(0.00118687 0.0446997 -7.20386e-19)
(0.0214544 0.0397538 -1.08781e-19)
(0.0463006 0.0347692 2.39271e-19)
(0.0757594 0.0305252 -4.11316e-19)
(0.110506 0.0294762 -3.42042e-19)
(0.150864 0.0384032 2.33539e-19)
(-0.008905 0.0112542 3.27285e-19)
(-0.02225 0.0278536 -3.1873e-19)
(-0.0317132 0.0396349 -3.53179e-19)
(-0.0370214 0.0473287 4.32457e-22)
(-0.0380017 0.0516316 -4.24268e-20)
(-0.0345377 0.053191 1.94192e-19)
(-0.0264997 0.0526056 -3.05294e-19)
(-0.0137153 0.0504155 3.43683e-19)
(0.00404145 0.0470998 9.43828e-20)
(0.0270509 0.04309 2.15809e-19)
(0.055626 0.0387982 6.3256e-19)
(0.0899923 0.0346378 -7.46028e-19)
(0.130075 0.0311423 2.34259e-19)
(0.176495 0.0306695 -3.13242e-19)
(0.231068 0.0426467 6.87422e-19)
(-0.00972438 0.0110891 -3.28741e-20)
(-0.0236716 0.0270727 9.82996e-20)
(-0.0326168 0.0381527 3.15615e-19)
(-0.0363057 0.045157 2.40503e-21)
(-0.0345571 0.048871 -1.6794e-19)
(-0.0272181 0.0500206 1.83368e-19)
(-0.0141009 0.0492727 2.57295e-19)
(0.00504407 0.0472304 -3.18148e-19)
(0.0305276 0.0444374 7.06401e-20)
(0.0626973 0.0413945 -2.67693e-19)
(0.101878 0.0385807 1.65941e-21)
(0.148197 0.0364273 2.08713e-19)
(0.201269 0.0353097 -4.77716e-19)
(0.261423 0.0377306 3.87037e-19)
(0.329501 0.0557542 -1.2168e-19)
(-0.0104341 0.0107534 1.81613e-19)
(-0.0245705 0.0257816 8.52917e-20)
(-0.0323827 0.0358826 1.38312e-19)
(-0.0336383 0.0419966 -1.91793e-19)
(-0.0281361 0.0450118 4.01921e-19)
(-0.0156663 0.0457469 1.18791e-19)
(0.00404081 0.0449497 7.71568e-21)
(0.0313316 0.0433024 -3.41853e-19)
(0.066607 0.0414347 -4.25287e-19)
(0.110262 0.039946 6.46585e-20)
(0.162576 0.0394283 2.26513e-19)
(0.223474 0.0404237 3.48147e-19)
(0.292136 0.0434222 -7.77895e-19)
(0.368858 0.0522256 5.50405e-19)
(0.442529 0.0764562 -4.96184e-19)
(-0.0109788 0.0102397 -5.56829e-19)
(-0.0247425 0.0239746 -2.688e-20)
(-0.0306194 0.0328488 -2.3451e-19)
(-0.0284098 0.0379257 -3.1514e-19)
(-0.0178854 0.0402069 3.09215e-19)
(0.00123329 0.0406144 -1.85659e-19)
(0.0293039 0.0399861 1.00565e-20)
(0.0667539 0.0390881 -6.70503e-20)
(0.114021 0.0386316 1.44415e-19)
(0.17144 0.0392927 4.83529e-19)
(0.239095 0.0417293 -5.23882e-19)
(0.316591 0.0465636 8.28509e-19)
(0.402889 0.0545306 -5.68799e-19)
(0.500168 0.0713374 4.6533e-19)
(0.571297 0.0876409 -1.09162e-20)
(-0.0112827 0.00953807 9.0968e-20)
(-0.0239283 0.0216529 -1.18225e-19)
(-0.0268527 0.029107 -1.82413e-19)
(-0.0199067 0.0330886 3.51372e-19)
(-0.00283828 0.0347179 -1.42899e-19)
(0.0246945 0.0350288 -1.21972e-19)
(0.0631039 0.034953 6.70515e-19)
(0.112814 0.0353328 2.26911e-20)
(0.174136 0.036931 1.61939e-19)
(0.24708 0.040428 4.21448e-20)
(0.331142 0.0464048 2.98418e-19)
(0.425091 0.0552879 -4.38368e-19)
(0.526867 0.0673293 4.21441e-19)
(0.635784 0.0851981 -2.40285e-19)
(0.731936 0.098125 -3.19372e-20)
(-0.0112452 0.00863768 4.40717e-19)
(-0.0218075 0.0188311 4.65735e-19)
(-0.0205237 0.0247533 1.95013e-20)
(-0.00732305 0.0277052 -2.77661e-19)
(0.0180492 0.0289248 2.62996e-19)
(0.0559543 0.0295614 -5.03568e-19)
(0.106762 0.0306353 -4.49258e-19)
(0.170711 0.033042 1.80173e-19)
(0.247686 0.0375406 -1.59128e-19)
(0.336952 0.0447156 -4.30172e-19)
(0.436892 0.0549167 -3.88672e-19)
(0.54484 0.0681513 -4.897e-19)
(0.657333 0.0842184 6.28091e-19)
(0.769903 0.102624 -3.01432e-19)
(0.875574 0.119701 6.57698e-19)
(-0.0107376 0.00753107 -1.23263e-19)
(-0.0179995 0.0155473 1.59781e-19)
(-0.0110032 0.0199354 -3.39235e-19)
(0.010203 0.0220802 4.01819e-20)
(0.0458243 0.0233249 -1.38512e-20)
(0.0961405 0.024926 -1.5931e-19)
(0.16129 0.0279676 -2.74014e-19)
(0.241019 0.0333413 -2.22681e-19)
(0.334358 0.0417005 8.38089e-21)
(0.439302 0.0533793 4.94554e-19)
(0.55262 0.0683071 5.86945e-19)
(0.669868 0.085884 -2.65802e-19)
(0.786063 0.10538 -6.63771e-19)
(0.894807 0.124421 1.71012e-19)
(0.994572 0.14345 5.62739e-19)
(-0.00960474 0.00622133 5.0705e-20)
(-0.012074 0.0118782 -2.84104e-19)
(0.00237957 0.0148694 9.35978e-20)
(0.0335283 0.0166132 -1.60928e-19)
(0.0814279 0.0185282 -1.31346e-19)
(0.146093 0.0219464 8.36766e-20)
(0.227128 0.0279528 9.82887e-21)
(0.323353 0.0373233 5.11135e-19)
(0.432419 0.0504366 -3.97531e-19)
(0.550564 0.0671657 -5.76919e-20)
(0.672661 0.0868149 -9.01138e-20)
(0.792645 0.10808 -4.69051e-20)
(0.904567 0.129633 7.30525e-20)
(1.00209 0.148421 6.54486e-19)
(1.08672 0.166697 -5.64848e-19)
(-0.00767055 0.00473058 3.4506e-19)
(-0.00357224 0.00795685 -3.25692e-19)
(0.0202912 0.00985761 9.58256e-20)
(0.0634231 0.0118097 7.20014e-19)
(0.125562 0.01525 2.15365e-20)
(0.206171 0.0215149 -9.37084e-20)
(0.303896 0.0315702 -4.05413e-19)
(0.416108 0.0458936 2.89558e-19)
(0.538589 0.0643569 -2.25265e-19)
(0.665551 0.0861437 2.83857e-19)
(0.790165 0.109795 -2.97194e-19)
(0.905516 0.133367 4.82091e-20)
(1.0059 0.155114 4.28911e-20)
(1.08694 0.172287 1.65943e-19)
(1.15114 0.187509 1.57613e-19)
(-0.00474716 0.00310827 -2.59081e-20)
(0.00796271 0.00398937 3.54657e-19)
(0.043336 0.00530449 -1.46082e-19)
(0.100475 0.00828515 -1.50319e-19)
(0.17855 0.0142899 1.46835e-19)
(0.276074 0.0245322 1.16202e-19)
(0.390223 0.0396663 -1.91431e-19)
(0.516417 0.0596215 3.29141e-19)
(0.648281 0.083509 -6.81051e-20)
(0.778193 0.109663 -3.52784e-20)
(0.898415 0.135898 2.6277e-19)
(1.00246 0.159905 3.70908e-20)
(1.0863 0.179969 -4.10406e-19)
(1.14844 0.194155 1.22637e-19)
(1.19284 0.205231 -1.04196e-19)
(-0.000646697 0.00143756 -1.26052e-20)
(0.0229484 0.000265924 6.35359e-20)
(0.0719882 0.00172225 -6.6534e-20)
(0.144988 0.00675315 2.89398e-19)
(0.240204 0.0164895 4.968e-20)
(0.354717 0.0318238 -7.56279e-20)
(0.48372 0.0528353 1.60966e-19)
(0.620353 0.0786243 -5.79964e-19)
(0.756222 0.107349 1.76355e-20)
(0.882635 0.136508 2.04513e-19)
(0.992218 0.163463 3.64045e-19)
(1.08029 0.185996 -3.40147e-19)
(1.14552 0.202917 6.23531e-20)
(1.18942 0.213325 -6.74502e-20)
(1.217 0.220182 -2.8856e-19)
(0.00480511 -0.00016138 -1.23779e-19)
(0.0417202 -0.00283726 -4.53337e-19)
(0.10652 -0.000279488 3.62383e-19)
(0.196884 0.007991 1.02062e-19)
(0.309732 0.0226635 -4.07998e-19)
(0.440204 0.0440382 -4.24082e-19)
(0.581131 0.0713147 3.23768e-19)
(0.723416 0.102528 -1.29946e-19)
(0.85732 0.134856 2.88083e-19)
(0.974314 0.165216 -3.38831e-19)
(1.06877 0.19098 -4.94475e-19)
(1.1388 0.210512 3.8814e-19)
(1.18599 0.223467 -4.32759e-20)
(1.21422 0.229925 -6.28886e-20)
(1.22918 0.233102 -1.69797e-19)
(0.0117529 -0.00153096 5.66126e-20)
(0.0644862 -0.00486631 1.77809e-20)
(0.146932 -2.17218e-05 -3.32834e-20)
(0.25563 0.0127827 -2.33298e-19)
(0.385701 0.0335121 3.62568e-19)
(0.529925 0.0615504 1.94463e-19)
(0.678688 0.0949339 2.04092e-19)
(0.82119 0.130541 2.2867e-19)
(0.947493 0.164775 -2.73051e-20)
(1.05061 0.194431 1.42466e-19)
(1.1277 0.217407 3.60949e-20)
(1.17994 0.23299 -7.71021e-21)
(1.21137 0.241754 -8.29212e-21)
(1.2273 0.244553 2.41088e-19)
(1.23334 0.244774 2.07141e-19)
(0.0202944 -0.00248058 1.38284e-19)
(0.0912839 -0.00531071 -1.52792e-19)
(0.1929 0.00319868 -1.38415e-19)
(0.320202 0.0218456 -1.67955e-20)
(0.466096 0.0495326 -3.76044e-19)
(0.620796 0.0843988 2.11725e-19)
(0.772591 0.123144 -9.677e-20)
(0.909976 0.16162 9.29243e-20)
(1.02418 0.195884 9.40506e-20)
(1.11088 0.223147 -3.79085e-19)
(1.17043 0.242237 2.00439e-19)
(1.20672 0.253486 -1.45187e-19)
(1.2254 0.258242 -3.93776e-20)
(1.23227 0.257875 -2.49587e-20)
(1.23241 0.255806 1.33934e-19)
(0.0304642 -0.00279434 8.74769e-20)
(0.121944 -0.00363367 -2.25504e-19)
(0.243742 0.0100521 -5.62956e-20)
(0.389112 0.035754 2.22114e-19)
(0.548468 0.0709515 -1.30615e-19)
(0.709597 0.11228 -1.28547e-20)
(0.859482 0.155125 4.9049e-20)
(0.98721 0.194675 -4.74645e-20)
(1.08639 0.227195 3.23805e-20)
(1.15598 0.250783 4.56558e-19)
(1.19933 0.265397 -3.59083e-19)
(1.22228 0.272331 1.20267e-19)
(1.23123 0.273467 1.13986e-19)
(1.23177 0.270461 -1.26891e-20)
(1.22813 0.266596 -1.69371e-19)
(0.0422194 -0.00224282 1.13908e-19)
(0.156071 0.000689145 -4.10783e-20)
(0.298428 0.0211145 9.3012e-20)
(0.460493 0.0548722 -1.41519e-20)
(0.630157 0.0976941 5.95986e-20)
(0.793317 0.144605 -5.38291e-20)
(0.936797 0.189931 -6.07254e-20)
(1.05156 0.228734 -1.01097e-19)
(1.13443 0.25803 1.40022e-19)
(1.18764 0.277111 -1.13791e-19)
(1.21696 0.287063 -1.45296e-20)
(1.22935 0.289937 -3.09156e-20)
(1.23122 0.287894 8.77696e-20)
(1.22752 0.282699 7.53992e-20)
(1.22155 0.277351 -9.98175e-20)
(0.0554296 -0.000598253 9.55515e-20)
(0.193037 0.00812644 -1.59895e-19)
(0.355622 0.0368092 1.86424e-19)
(0.532237 0.0793109 -1.93619e-20)
(0.708541 0.129398 -5.09366e-20)
(0.869447 0.18059 -4.66415e-21)
(1.0029 0.226621 -2.66725e-21)
(1.10277 0.263025 8.36356e-22)
(1.16938 0.287996 1.08074e-20)
(1.20789 0.302131 -1.9971e-20)
(1.22567 0.307506 1.16666e-19)
(1.23006 0.306672 -6.2093e-20)
(1.22698 0.301854 -9.99026e-20)
(1.22057 0.294811 -8.0677e-21)
(1.21325 0.288134 5.29879e-20)
(0.0698737 0.00234818 1.40563e-20)
(0.232004 0.0190485 4.6998e-20)
(0.413759 0.0573607 -2.46069e-20)
(0.602158 0.108912 2.01226e-20)
(0.781257 0.165461 2.76552e-20)
(0.936133 0.219356 -1.75791e-20)
(1.05702 0.264344 -3.10382e-20)
(1.14133 0.29698 4.7028e-21)
(1.19275 0.316898 -3.67646e-20)
(1.21869 0.325952 3.4734e-20)
(1.22738 0.326987 -1.98856e-20)
(1.22596 0.322805 3.82219e-20)
(1.21958 0.31554 1.58369e-20)
(1.21151 0.306872 -1.75044e-20)
(1.20347 0.298908 -2.34632e-21)
(0.085245 0.00676865 -6.15968e-20)
(0.271964 0.0336895 3.85257e-20)
(0.47115 0.082766 5.16967e-20)
(0.668163 0.143264 -2.06108e-20)
(0.846363 0.205108 -1.53649e-21)
(0.9922 0.26001 -5.79331e-20)
(1.09911 0.302371 4.44041e-21)
(1.16821 0.3302 4.6414e-21)
(1.20612 0.344659 4.8346e-21)
(1.22176 0.348704 5.69971e-21)
(1.22357 0.345698 3.01156e-20)
(1.21808 0.33849 -1.56039e-20)
(1.20962 0.329021 2.69673e-20)
(1.20064 0.318852 -6.89577e-21)
(1.19233 0.309576 -3.13815e-20)
(0.101163 0.0127824 -1.58267e-20)
(0.311792 0.05212 9.74303e-20)
(0.526095 0.112786 -1.35604e-19)
(0.728385 0.181734 5.20921e-20)
(0.90241 0.247458 -3.67303e-20)
(1.03709 0.301694 1.60014e-20)
(1.12959 0.340094 2.74911e-20)
(1.18457 0.362394 3.59139e-20)
(1.21095 0.371242 -8.02724e-20)
(1.21846 0.370474 8.38748e-20)
(1.21527 0.36374 -6.82144e-20)
(1.20711 0.353771 -2.37637e-20)
(1.19746 0.342266 3.72903e-20)
(1.1881 0.330648 -3.16009e-20)
(1.17985 0.320011 4.25878e-20)
(0.117191 0.0204428 -9.21631e-20)
(0.350315 0.0742316 1.30818e-20)
(0.576984 0.146958 -4.93196e-20)
(0.781277 0.223516 -4.78728e-20)
(0.948446 0.291576 9.06985e-20)
(1.07072 0.343608 1.57463e-19)
(1.14918 0.376995 -9.92651e-20)
(1.19159 0.39333 -1.03462e-19)
(1.20849 0.396602 1.30508e-19)
(1.20984 0.39129 -2.53571e-20)
(1.20321 0.381119 -8.4192e-20)
(1.19345 0.368599 7.98319e-20)
(1.18328 0.355167 4.35532e-20)
(1.17394 0.342107 -9.20308e-20)
(1.16599 0.330078 3.06221e-20)
(0.13286 0.0297282 -1.69802e-19)
(0.386378 0.0997354 3.14839e-20)
(0.622388 0.18462 2.37264e-19)
(0.825663 0.267685 8.54778e-20)
(0.983966 0.336521 4.98012e-20)
(1.09337 0.38501 -9.90519e-20)
(1.15875 0.412622 1.07777e-19)
(1.19038 0.422797 1.88823e-19)
(1.19979 0.420663 4.83515e-20)
(1.1967 0.411103 -9.79959e-20)
(1.18789 0.39776 9.25043e-20)
(1.17735 0.382853 3.79944e-20)
(1.16715 0.367559 -6.98439e-20)
(1.15812 0.353049 7.9769e-20)
(1.15065 0.339656 1.26291e-20)
(0.147695 0.0405391 -1.30707e-19)
(0.418905 0.128173 5.5418e-20)
(0.661118 0.22495 1.21751e-20)
(0.860739 0.313237 -2.88759e-19)
(1.00885 0.381362 2.73612e-19)
(1.10558 0.425218 -4.53171e-19)
(1.15921 0.446558 4.80868e-20)
(1.18194 0.450572 1.36056e-19)
(1.18568 0.443294 -2.18359e-19)
(1.17962 0.429801 5.58493e-20)
(1.16965 0.41353 -1.47231e-19)
(1.15897 0.396373 1.20565e-19)
(1.14911 0.379267 -1.04766e-19)
(1.14057 0.3633 -4.70228e-23)
(1.13365 0.348612 -5.67821e-20)
(0.161234 0.0526989 -5.87993e-20)
(0.446952 0.158939 6.97025e-20)
(0.692262 0.267006 2.47495e-20)
(0.886057 0.359134 2.63574e-19)
(1.02326 0.425207 -1.72025e-19)
(1.10801 0.463592 6.34883e-19)
(1.15147 0.478405 -1.96509e-19)
(1.16712 0.476411 -1.81614e-19)
(1.16684 0.464313 3.03491e-19)
(1.15905 0.447207 -4.09026e-20)
(1.14875 0.428242 1.5842e-19)
(1.13845 0.408985 -1.17616e-19)
(1.12924 0.390164 1.48856e-19)
(1.12129 0.372792 -8.17408e-21)
(1.11487 0.356785 -2.3301e-20)
(0.173056 0.0659601 -2.154e-19)
(0.469745 0.191307 4.5746e-19)
(0.715201 0.309772 -3.15066e-19)
(0.901486 0.404339 -5.41098e-20)
(1.02761 0.467202 -3.52153e-20)
(1.10142 0.499533 -2.31189e-19)
(1.13638 0.507771 -2.68273e-19)
(1.1467 0.500038 -1.99415e-20)
(1.14384 0.483483 -2.7391e-19)
(1.13537 0.46308 -1.12859e-19)
(1.12543 0.441649 3.40725e-19)
(1.11596 0.420458 -3.05563e-19)
(1.10768 0.400114 4.02349e-20)
(1.10048 0.381571 6.66588e-20)
(1.09484 0.36413 3.30282e-20)
(0.182797 0.0800139 1.32615e-19)
(0.486701 0.224467 -2.65419e-21)
(0.729593 0.352196 -3.28476e-19)
(0.90716 0.44784 2.10769e-19)
(1.02247 0.506546 4.13027e-19)
(1.08661 0.532478 -1.60852e-19)
(1.11475 0.534266 -1.55405e-20)
(1.12132 0.521152 2.2858e-19)
(1.11713 0.500527 5.15688e-20)
(1.10885 0.477137 -1.45727e-19)
(1.09987 0.453451 -1.36927e-19)
(1.09164 0.430475 5.02055e-20)
(1.08456 0.408759 -5.68636e-20)
(1.07843 0.389164 -7.51543e-20)
(1.07412 0.370348 6.71627e-20)
(0.190164 0.0945031 -3.15906e-19)
(0.497443 0.257555 -1.56978e-19)
(0.735362 0.393229 2.65094e-19)
(0.903441 0.488675 -5.15483e-19)
(1.00855 0.542496 8.61685e-20)
(1.06442 0.561899 1.71996e-19)
(1.08734 0.557507 1.57136e-19)
(1.09158 0.539436 -6.78937e-20)
(1.08715 0.515145 -1.07104e-19)
(1.0798 0.489074 3.55869e-19)
(1.07227 0.463352 -5.97995e-20)
(1.06562 0.438769 4.2788e-20)
(1.06002 0.415788 -3.28834e-20)
(1.05526 0.395134 -3.71767e-20)
(1.05258 0.375121 1.76346e-20)
(0.194949 0.109038 9.7625e-20)
(0.501795 0.289694 2.88743e-19)
(0.73267 0.431858 2.75489e-19)
(0.89088 0.525945 -3.21721e-19)
(0.986627 0.574371 -3.0761e-21)
(1.03566 0.58731 2.71288e-19)
(1.05486 0.577124 1.08179e-19)
(1.05803 0.554565 -2.04447e-19)
(1.05425 0.527018 4.44686e-20)
(1.04846 0.498576 -7.60627e-20)
(1.04282 0.471044 -7.0365e-20)
(1.03807 0.445024 7.39371e-20)
(1.03422 0.420901 2.85757e-20)
(1.03109 0.39926 1.10118e-20)
(1.03017 0.378271 -3.34858e-21)
(0.197031 0.123221 3.95103e-19)
(0.499778 0.320029 -4.23622e-19)
(0.7219 0.467139 -2.79879e-19)
(0.870198 0.558839 2.65197e-19)
(0.95756 0.601564 8.11717e-20)
(1.00111 0.608262 -6.75899e-20)
(1.01797 0.59276 5.772e-20)
(1.02117 0.566216 -1.15072e-19)
(1.01882 0.535836 2.43628e-19)
(1.01511 0.505338 -1.79725e-19)
(1.01174 0.47623 2.19732e-20)
(1.00918 0.448961 -1.99463e-20)
(1.00732 0.423822 -3.73762e-20)
(1.00607 0.401267 3.06933e-20)
(1.00717 0.379543 1.67897e-20)
(0.196386 0.136665 -1.27422e-19)
(0.491599 0.347746 -3.73671e-19)
(0.703648 0.498205 3.46219e-20)
(0.842222 0.586666 4.98607e-20)
(0.922091 0.623533 -1.7047e-19)
(0.961554 0.624371 -4.88548e-21)
(0.977364 0.604063 1.5065e-21)
(0.981511 0.574076 4.11687e-20)
(0.98122 0.541299 -4.99235e-20)
(0.980019 0.509067 -6.59504e-21)
(0.979241 0.478633 1.99184e-20)
(0.979149 0.450325 -5.22163e-20)
(0.97955 0.424313 -1.17998e-20)
(0.980521 0.40088 -3.38733e-21)
(0.984054 0.378588 7.74423e-21)
(0.19305 0.148994 -2.50943e-19)
(0.477636 0.372072 2.51432e-19)
(0.678606 0.524237 2.19651e-19)
(0.807633 0.608862 -1.52879e-19)
(0.881185 0.639926 -1.53826e-19)
(0.917945 0.635227 5.91011e-20)
(0.933704 0.610755 7.33679e-20)
(0.939539 0.577886 -3.89063e-20)
(0.941804 0.543135 9.45173e-22)
(0.943457 0.509479 7.66058e-20)
(0.945536 0.47796 7.68775e-21)
(0.948154 0.448822 -6.73018e-20)
(0.951148 0.422085 6.21081e-20)
(0.95489 0.397797 -5.7875e-20)
(0.961306 0.375091 6.51809e-20)
(0.187096 0.159787 -2.01921e-21)
(0.458392 0.392355 -3.31749e-19)
(0.647429 0.544663 1.98835e-19)
(0.767461 0.624819 -7.99733e-20)
(0.835952 0.650263 5.49006e-20)
(0.87102 0.64066 3.89715e-20)
(0.8876 0.612647 2.62536e-20)
(0.895724 0.57744 -1.7109e-19)
(0.900915 0.541129 1.04815e-19)
(0.905645 0.506333 -4.93449e-20)
(0.910724 0.473907 1.11071e-20)
(0.916208 0.444022 -1.46927e-19)
(0.922142 0.416531 2.33408e-19)
(0.929276 0.391368 -3.59325e-20)
(0.938733 0.368802 9.36658e-20)
(0.178776 0.168584 -2.84295e-20)
(0.434477 0.407931 1.14806e-19)
(0.611074 0.558909 -1.05192e-19)
(0.722846 0.634205 1.7451e-20)
(0.787215 0.654326 2.50521e-20)
(0.821562 0.640458 -8.24036e-20)
(0.839696 0.609581 -2.65304e-20)
(0.850565 0.572616 -6.16854e-20)
(0.858923 0.535197 -1.31491e-20)
(0.866813 0.499581 1.95905e-19)
(0.874859 0.466416 -2.50228e-20)
(0.883143 0.435716 1.70681e-19)
(0.8921 0.406997 -4.3111e-19)
(0.902785 0.380078 3.24387e-19)
(0.914652 0.35788 -1.76483e-19)
(0.168424 0.175166 3.14351e-20)
(0.406597 0.418313 2.22421e-20)
(0.570555 0.566584 1.48628e-20)
(0.674739 0.636729 -4.24519e-20)
(0.735922 0.651935 9.06674e-20)
(0.770383 0.6345 1.38292e-20)
(0.790658 0.60147 1.23668e-20)
(0.804614 0.563366 1.5561e-19)
(0.816292 0.525363 -1.13821e-19)
(0.827344 0.489396 8.9521e-20)
(0.838215 0.455918 -1.17814e-19)
(0.84904 0.424744 5.43829e-19)
(0.860662 0.394855 -3.95526e-19)
(0.874379 0.364506 3.35243e-19)
(0.885694 0.335738 -8.37972e-21)
(0.156321 0.179362 1.7412e-21)
(0.375525 0.423219 -4.99917e-20)
(0.526879 0.567394 3.47663e-20)
(0.624177 0.63222 4.42933e-20)
(0.683018 0.643002 -4.29481e-20)
(0.71829 0.622721 1.90996e-19)
(0.741167 0.588254 -5.59548e-21)
(0.758465 0.549633 4.72068e-20)
(0.773581 0.511591 -1.43419e-19)
(0.787832 0.475806 5.90338e-20)
(0.801537 0.442635 2.47521e-19)
(0.814876 0.411897 1.17637e-19)
(0.828611 0.382897 -5.41547e-19)
(0.842866 0.354959 2.13002e-19)
(0.852264 0.330098 -4.00645e-19)
(0.142803 0.180971 2.00473e-19)
(0.342093 0.422421 2.38644e-19)
(0.481071 0.56119 -1.59514e-19)
(0.572187 0.620617 2.043e-19)
(0.629429 0.627516 1.97163e-19)
(0.666076 0.605127 -1.77254e-19)
(0.691892 0.569929 1.83978e-19)
(0.712699 0.531389 -1.97912e-19)
(0.731326 0.493798 -1.49011e-19)
(0.748847 0.458582 -7.2215e-19)
(0.76554 0.425966 2.4804e-19)
(0.781629 0.395671 -4.6465e-19)
(0.797671 0.366999 6.04097e-19)
(0.813205 0.339556 -4.20623e-20)
(0.823629 0.315698 2.27617e-19)
(0.128258 0.179867 -1.96198e-19)
(0.307153 0.415795 -1.18415e-19)
(0.434152 0.547945 -2.56992e-19)
(0.519778 0.601968 -1.73593e-19)
(0.57606 0.605555 2.4383e-19)
(0.614514 0.581794 -1.45881e-19)
(0.643492 0.546561 -2.57929e-19)
(0.667876 0.508703 -2.42891e-19)
(0.690001 0.472088 8.30979e-19)
(0.710739 0.437936 1.40396e-19)
(0.730342 0.406404 6.39093e-19)
(0.749046 0.377234 -6.13757e-19)
(0.767272 0.349876 -7.25541e-19)
(0.784412 0.32414 -6.92464e-20)
(0.796716 0.301901 4.00149e-19)
(0.113095 0.175992 -2.6794e-19)
(0.271554 0.403334 1.02526e-20)
(0.387122 0.527746 -2.55357e-19)
(0.467928 0.576417 1.44062e-19)
(0.523779 0.577276 1.81523e-19)
(0.564353 0.552858 -2.05487e-19)
(0.596614 0.51825 -2.81261e-19)
(0.624585 0.48163 5.95893e-19)
(0.650174 0.446453 -9.14922e-19)
(0.6741 0.413749 -7.98602e-20)
(0.696595 0.383603 -9.43656e-20)
(0.717897 0.355756 -4.36426e-19)
(0.73836 0.329761 7.24739e-19)
(0.757382 0.30558 -6.87965e-19)
(0.771855 0.284826 4.03813e-19)
(0.0977203 0.169347 -1.9881e-19)
(0.236129 0.38514 6.18528e-19)
(0.340948 0.500791 1.03815e-19)
(0.417563 0.544206 4.68021e-19)
(0.473409 0.542917 -6.54666e-19)
(0.516296 0.51853 2.07712e-19)
(0.55186 0.485176 9.00551e-20)
(0.58334 0.450327 3.73735e-19)
(0.612281 0.417045 -2.85021e-19)
(0.639283 0.386194 8.48238e-19)
(0.664573 0.357817 5.82642e-20)
(0.6884 0.331673 4.5814e-19)
(0.711084 0.307389 4.24198e-20)
(0.732064 0.284961 -1.11854e-19)
(0.748765 0.265652 -6.89663e-19)
(0.0825384 0.159993 -4.76206e-19)
(0.201683 0.361419 6.94127e-19)
(0.296546 0.467382 -5.93899e-19)
(0.369561 0.505667 6.51936e-19)
(0.425723 0.502792 2.13885e-19)
(0.47101 0.479086 5.49148e-19)
(0.509809 0.447571 8.74135e-20)
(0.544657 0.414985 -1.70826e-19)
(0.576788 0.38401 2.07145e-19)
(0.606713 0.355364 -5.64471e-19)
(0.63466 0.329056 -1.01527e-19)
(0.660892 0.304867 -3.68056e-19)
(0.68571 0.282486 -2.16684e-19)
(0.70862 0.261916 5.21918e-19)
(0.727525 0.244131 -1.67723e-19)
(0.0679366 0.148049 -1.22756e-20)
(0.168974 0.332474 9.18538e-20)
(0.25477 0.427919 4.04162e-19)
(0.324731 0.461219 -9.76708e-19)
(0.381435 0.457293 -3.60772e-19)
(0.429111 0.434868 -1.01452e-19)
(0.470995 0.40573 2.41698e-19)
(0.509002 0.37586 -1.9255e-19)
(0.544109 0.347576 -5.97864e-19)
(0.576757 0.321471 2.95354e-20)
(0.607183 0.29753 3.06437e-19)
(0.635657 0.275556 3.92314e-19)
(0.662468 0.255288 8.67428e-20)
(0.687207 0.236707 -1.11437e-19)
(0.708221 0.220543 -4.92492e-19)
(0.0542801 0.133684 -1.78296e-19)
(0.138705 0.298697 -6.71349e-19)
(0.216407 0.382894 5.40002e-19)
(0.283814 0.41136 1.54416e-19)
(0.341197 0.406877 -1.66688e-19)
(0.391161 0.38628 -2.14755e-19)
(0.435905 0.360006 5.15642e-19)
(0.476806 0.333259 1.7248e-19)
(0.514625 0.308012 -1.86772e-19)
(0.549753 0.284747 6.86874e-19)
(0.582435 0.263434 -5.40471e-19)
(0.612949 0.243901 6.22626e-19)
(0.641571 0.225927 -5.10879e-19)
(0.667997 0.209473 2.78228e-19)
(0.690978 0.195067 -3.13891e-19)
(0.0419042 0.117117 -2.32362e-19)
(0.111513 0.260561 3.51645e-19)
(0.182161 0.332876 -6.66107e-19)
(0.24747 0.35666 1.8348e-19)
(0.30559 0.352066 -2.0792e-19)
(0.357662 0.333784 7.67941e-20)
(0.404978 0.310802 -1.05962e-19)
(0.448456 0.287539 3.7577e-21)
(0.488681 0.265637 -3.86496e-19)
(0.526007 0.245479 2.51067e-19)
(0.560689 0.227029 6.62374e-20)
(0.593006 0.210141 -1.9341e-20)
(0.623228 0.194629 -2.54864e-19)
(0.651162 0.180435 2.94223e-20)
(0.675921 0.16793 3.73396e-20)
(0.0311082 0.0986088 2.20618e-19)
(0.0879602 0.218613 -2.43874e-19)
(0.152649 0.278508 4.07628e-19)
(0.216277 0.297751 -3.31092e-19)
(0.275121 0.293438 -3.58057e-19)
(0.329055 0.27789 6.04515e-19)
(0.378599 0.258571 -4.00166e-19)
(0.424293 0.239103 -3.98197e-20)
(0.46658 0.220811 -2.09136e-19)
(0.505789 0.203992 3.45248e-19)
(0.542182 0.188609 6.13277e-20)
(0.57604 0.174541 -1.17354e-20)
(0.607625 0.161638 1.54653e-19)
(0.636861 0.149831 -4.60649e-20)
(0.663171 0.139369 2.92513e-19)
(0.0221498 0.0784598 -3.10527e-20)
(0.0685261 0.173457 -1.82704e-19)
(0.128397 0.220497 2.43595e-19)
(0.190725 0.235323 5.11044e-20)
(0.25022 0.231618 -7.35193e-20)
(0.305712 0.219155 2.39145e-19)
(0.357095 0.203805 6.94186e-20)
(0.404605 0.188391 -7.41647e-19)
(0.44858 0.17393 4.33512e-19)
(0.489328 0.160643 -4.93555e-20)
(0.527121 0.148497 -6.70713e-19)
(0.562235 0.137398 2.21287e-19)
(0.594931 0.127228 2.20787e-19)
(0.625237 0.117919 1.90228e-19)
(0.652834 0.10963 -1.87235e-19)
(0.0152408 0.0570005 5.69395e-22)
(0.0536017 0.125754 1.20419e-19)
(0.109829 0.159596 -2.07282e-20)
(0.17121 0.170109 -1.8043e-19)
(0.231237 0.167272 -3.86658e-20)
(0.287937 0.158171 1.8514e-19)
(0.34073 0.147032 1.3883e-19)
(0.389628 0.135875 4.11404e-20)
(0.434892 0.12542 -4.05064e-20)
(0.476815 0.115818 1.46116e-19)
(0.515674 0.107044 1.29002e-19)
(0.551743 0.0990305 2.16116e-19)
(0.585283 0.0916939 -8.4331e-20)
(0.61641 0.0849747 -3.88253e-19)
(0.645 0.0789703 8.21404e-20)
(0.0105433 0.0345871 -8.73239e-20)
(0.0434849 0.0762004 -6.05422e-20)
(0.09727 0.0966028 1.24281e-19)
(0.158031 0.102879 -1.1222e-19)
(0.218433 0.101101 6.93923e-20)
(0.275958 0.0955595 -8.28793e-21)
(0.329707 0.0888063 -6.89451e-20)
(0.379543 0.082053 1.11731e-19)
(0.425676 0.0757289 1.80044e-20)
(0.468391 0.069923 -3.92368e-20)
(0.507969 0.064619 7.31728e-20)
(0.544682 0.0597766 -2.67217e-19)
(0.57879 0.0553453 -2.42598e-20)
(0.610473 0.0512853 3.75441e-20)
(0.639738 0.047648 -2.86301e-20)
(0.00816694 0.0115939 7.01998e-20)