/*--------------------------------*- C++ -*----------------------------------*\
  =========                 |
  \\      /  F ield         | OpenFOAM: The Open Source CFD Toolbox
   \\    /   O peration     | Website:  https://openfoam.org
    \\  /    A nd           | Version:  7
     \\/     M anipulation  |
\*---------------------------------------------------------------------------*/
FoamFile
{
    version     2.0;
    format      ascii;
    class       volScalarField;
    location    "5";
    object      p;
}
// * * * * * * * * * * * * * * * * * * * * * * * * * * * * * * * * * * * * * //

dimensions      [0 2 -2 0 0 0 0];

internalField   nonuniform List<scalar> 
1360
(
-0.0853157
-0.0773295
-0.06963
-0.0622393
-0.0551762
-0.0484564
-0.0420921
-0.0360923
-0.0304625
-0.0252053
-0.02032
-0.0158033
-0.0116494
-0.00785006
-0.00439522
-0.00127306
0.00152963
0.00402725
0.00623508
0.00816904
0.00984555
0.0112812
0.0124928
0.013497
0.0143101
0.0149484
0.0154275
0.0157625
0.015968
0.016058
0.0160456
0.0159434
0.0157631
0.0155156
0.015211
0.0148588
0.0144675
0.0140448
0.0135979
0.013133
0.0126558
0.0121712
0.0116835
0.0111965
0.0107134
0.010237
0.00976932
0.00931237
0.0088676
0.00843615
-0.0883148
-0.080279
-0.0725232
-0.0650701
-0.0579392
-0.0511466
-0.0447052
-0.0386247
-0.0329112
-0.0275677
-0.0225943
-0.017988
-0.0137436
-0.0098533
-0.00630747
-0.0030947
-0.000202135
0.00238425
0.00467941
0.006699
0.00845913
0.00997621
0.0112668
0.0123472
0.0132339
0.0139427
0.0144894
0.0148888
0.0151556
0.0153037
0.0153462
0.0152957
0.015164
0.014962
0.0147001
0.0143875
0.0140331
0.0136447
0.0132295
0.012794
0.0123438
0.0118842
0.0114195
0.0109536
0.0104899
0.0100312
0.00957992
0.00913793
0.00870686
0.00828796
-0.0937873
-0.0856768
-0.0778334
-0.0702805
-0.0630387
-0.0561251
-0.0495539
-0.0433355
-0.0374773
-0.0319834
-0.0268548
-0.0220897
-0.0176836
-0.0136299
-0.0099196
-0.00654222
-0.00348566
-0.000736603
0.00171924
0.00389691
0.00581197
0.00748031
0.00891799
0.0101411
0.0111655
0.012007
0.0126808
0.0132019
0.0135846
0.0138428
0.0139897
0.0140378
0.0139988
0.013884
0.0137036
0.0134673
0.0131839
0.0128615
0.0125077
0.0121289
0.0117313
0.0113201
0.0109
0.0104753
0.0100495
0.00962553
0.00920613
0.00879344
0.00838925
0.00799499
0.00761181
-0.0927094
-0.0847856
-0.0771346
-0.069778
-0.0627341
-0.0560181
-0.049642
-0.0436144
-0.037941
-0.0326241
-0.0276632
-0.0230555
-0.0187955
-0.0148756
-0.0112866
-0.0080175
-0.00505608
-0.0023891
-2.48414e-06
0.00211846
0.00398884
0.00562399
0.00703933
0.00825024
0.00927192
0.0101193
0.010807
0.0113491
0.0117593
0.0120505
0.0122354
0.0123258
0.0123328
0.0122668
0.0121378
0.0119547
0.0117259
0.011459
0.0111611
0.0108384
0.0104966
0.0101408
0.00977522
0.00940392
0.00903025
0.0086571
0.00828693
0.00792181
0.00756345
0.00721324
-0.1005
-0.0925418
-0.084834
-0.0773983
-0.070254
-0.0634177
-0.0569024
-0.0507184
-0.0448729
-0.0393701
-0.0342111
-0.0293948
-0.0249175
-0.0207735
-0.0169549
-0.0134524
-0.0102554
-0.007352
-0.00472941
-0.00237415
-0.000272237
0.00159066
0.00322908
0.00465758
0.00589069
0.00694273
0.00782778
0.00855958
0.00915143
0.0096162
0.00996621
0.0102132
0.0103684
0.0104423
0.0104449
0.0103853
0.0102722
0.0101134
0.00991632
0.00968745
0.00943279
0.00915774
0.00886707
0.00856503
0.00825535
0.00794126
0.00762557
0.00731065
0.00699854
0.0066909
-0.100319
-0.0926219
-0.0851701
-0.077983
-0.071078
-0.0644696
-0.0581695
-0.0521866
-0.0465271
-0.0411941
-0.0361885
-0.0315088
-0.0271511
-0.0231097
-0.0193774
-0.0159451
-0.0128028
-0.0099394
-0.00734285
-0.00500058
-0.00289951
-0.00102626
0.000632748
0.00209112
0.0033624
0.00446001
0.00539711
0.00618656
0.00684085
0.00737204
0.00779172
0.00811096
0.00834028
0.00848964
0.0085684
0.00858531
0.00854849
0.00846547
0.00834313
0.00818778
0.00800512
0.00780027
0.00757785
0.00734193
0.0070961
0.00684352
0.0065869
0.00632859
0.0060706
-0.100361
-0.0929528
-0.0857793
-0.078858
-0.0722045
-0.0658318
-0.0597505
-0.0539684
-0.048491
-0.0433214
-0.0384602
-0.0339059
-0.0296552
-0.0257029
-0.0220423
-0.0186653
-0.0155627
-0.0127243
-0.0101392
-0.00779569
-0.00568184
-0.00378527
-0.00209344
-0.000593739
0.000726429
0.00187954
0.00287787
0.00373345
0.00445797
0.00506277
0.00555874
0.00595631
0.0062654
0.0064954
0.00665515
0.00675294
0.00679646
0.00679286
0.00674867
0.0066699
0.006562
0.00642988
0.00627794
0.00611013
0.00592993
0.00574039
0.00554419
0.00534365
0.00514077
-0.100368
-0.0933546
-0.0865541
-0.0799824
-0.0736535
-0.0675797
-0.0617707
-0.0562344
-0.0509762
-0.0459995
-0.0413055
-0.0368938
-0.0327618
-0.0289058
-0.0253201
-0.0219983
-0.0189324
-0.0161138
-0.0135329
-0.0111797
-0.00904354
-0.00711329
-0.00537766
-0.00382519
-0.00244435
-0.00122365
-0.00015173
0.000782596
0.00159025
0.00228182
0.00286756
0.00335726
0.00376027
0.00408545
0.00434113
0.00453512
0.00467466
0.00476645
0.00481666
0.00483091
0.0048143
0.00477143
0.00470645
0.00462304
0.00452449
0.00441368
0.00429317
0.00416516
-0.0965961
-0.0898497
-0.0833119
-0.076998
-0.070921
-0.0650921
-0.0595199
-0.0542113
-0.0491705
-0.0444002
-0.0399009
-0.0356713
-0.0317087
-0.0280087
-0.0245658
-0.0213732
-0.0184234
-0.0157079
-0.0132176
-0.0109428
-0.0088738
-0.00700018
-0.00531156
-0.00379742
-0.00244722
-0.00125047
-0.000196802
0.000723995
0.00152191
0.00220668
0.00278773
0.00327418
0.00367474
0.00399777
0.00425119
0.00444248
0.00457869
0.00466639
0.0047117
0.00472024
0.0046972
0.0046473
0.00457482
0.00448362
0.00437715
0.00425846
0.00413026
0.00399493
-0.0934615
-0.0874022
-0.0815159
-0.075816
-0.0703141
-0.0650201
-0.059942
-0.0550862
-0.0504575
-0.0460588
-0.0418914
-0.0379553
-0.0342492
-0.0307703
-0.0275148
-0.0244779
-0.0216539
-0.0190364
-0.0166183
-0.0143921
-0.0123496
-0.0104826
-0.00878248
-0.00724052
-0.00584788
-0.00459569
-0.00347517
-0.00247757
-0.00159431
-0.000817005
-0.000137468
0.000452215
0.000959672
0.00139221
0.0017568
0.00206005
0.0023082
0.00250708
0.00266218
0.00277854
0.00286087
0.00291345
0.00294022
0.00294475
0.00293027
0.00289969
0.00285561
0.00280035
-0.0910667
-0.0855542
-0.0801822
-0.0749633
-0.0699087
-0.0650282
-0.06033
-0.0558207
-0.0515056
-0.0473883
-0.0434713
-0.0397556
-0.0362409
-0.0329261
-0.0298085
-0.0268851
-0.0241516
-0.0216033
-0.0192346
-0.0170395
-0.0150116
-0.013144
-0.0114298
-0.00986156
-0.00843188
-0.00713323
-0.00595808
-0.0048989
-0.00394823
-0.00309874
-0.00234324
-0.00167471
-0.00108637
-0.000571667
-0.000124319
0.000261669
0.000591989
0.000872019
0.00110681
0.00130109
0.00145926
0.00158538
0.0016832
0.00175616
0.0018074
0.00183976
0.00185582
0.0018579
-0.0880194
-0.0830557
-0.0782026
-0.0734721
-0.0688747
-0.06442
-0.060116
-0.0559695
-0.0519861
-0.04817
-0.0445242
-0.0410507
-0.0377504
-0.0346229
-0.0316673
-0.0288815
-0.0262627
-0.0238077
-0.0215123
-0.0193719
-0.0173817
-0.0155362
-0.0138297
-0.0122563
-0.0108098
-0.00948414
-0.00827286
-0.00716963
-0.00616811
-0.005262
-0.00444507
-0.00371124
-0.00305455
-0.00246924
-0.00194973
-0.00149066
-0.00108693
-0.00073366
-0.000426251
-0.000160368
6.80531e-05
0.000262801
0.000427396
0.000565089
0.000678874
0.000771494
0.000845452
0.000903024
-0.0847909
-0.0803438
-0.0759803
-0.0717116
-0.0675481
-0.0634989
-0.059572
-0.0557743
-0.0521115
-0.0485885
-0.0452087
-0.041975
-0.0388889
-0.0359512
-0.0331619
-0.0305201
-0.0280242
-0.025672
-0.0234608
-0.0213872
-0.0194475
-0.0176376
-0.015953
-0.014389
-0.0129406
-0.0116028
-0.0103703
-0.00923778
-0.00819993
-0.00725139
-0.00638683
-0.00560101
-0.00488876
-0.00424505
-0.00366497
-0.00314378
-0.00267693
-0.00226006
-0.00188901
-0.00155983
-0.00126882
-0.00101248
-0.000787548
-0.000590974
-0.000419939
-0.000271837
-0.000144267
-3.50293e-05
-0.0815293
-0.0775565
-0.0736437
-0.0698017
-0.0660404
-0.0623686
-0.0587942
-0.0553241
-0.0519643
-0.0487198
-0.0455947
-0.0425921
-0.0397144
-0.0369632
-0.0343392
-0.0318425
-0.0294724
-0.0272279
-0.025107
-0.0231077
-0.0212272
-0.0194624
-0.0178101
-0.0162665
-0.0148276
-0.0134895
-0.0122477
-0.0110981
-0.0100361
-0.00905714
-0.00815685
-0.00733069
-0.00657424
-0.00588313
-0.00525307
-0.00467993
-0.00415966
-0.0036884
-0.00326241
-0.00287815
-0.00253224
-0.00222148
-0.00194289
-0.00169362
-0.00147105
-0.00127273
-0.00109637
-0.000939867
-0.0783336
-0.0747907
-0.0712876
-0.0678346
-0.0644411
-0.0611157
-0.0578662
-0.0546993
-0.0516212
-0.048637
-0.0457512
-0.0429674
-0.0402885
-0.0377165
-0.0352528
-0.0328984
-0.0306534
-0.0285173
-0.0264895
-0.0245684
-0.0227523
-0.0210391
-0.0194262
-0.017911
-0.0164904
-0.0151611
-0.0139198
-0.0127628
-0.0116866
-0.0106875
-0.00976154
-0.00890507
-0.00811427
-0.0073854
-0.00671476
-0.00609873
-0.00553378
-0.00501647
-0.00454351
-0.00411171
-0.00371803
-0.00335958
-0.00303361
-0.00273753
-0.00246889
-0.00222541
-0.00200495
-0.00180551
-0.0752728
-0.0721153
-0.0689804
-0.0658779
-0.0628169
-0.0598056
-0.0568516
-0.0539617
-0.051142
-0.0483978
-0.0457338
-0.0431537
-0.040661
-0.0382581
-0.0359471
-0.0337292
-0.0316054
-0.0295759
-0.0276406
-0.0257988
-0.0240496
-0.0223914
-0.0208227
-0.0193413
-0.0179451
-0.0166315
-0.015398
-0.0142415
-0.0131592
-0.0121481
-0.0112049
-0.0103266
-0.00950991
-0.00875165
-0.00804865
-0.00739778
-0.00679596
-0.00624018
-0.00572752
-0.00525515
-0.00482035
-0.00442052
-0.00405315
-0.00371589
-0.00340648
-0.00312281
-0.00286287
-0.00262481
-0.072388
-0.0695731
-0.0667664
-0.0639771
-0.0612139
-0.058485
-0.0557975
-0.0531582
-0.0505732
-0.0480478
-0.0455869
-0.0431944
-0.040874
-0.0386286
-0.0364605
-0.0343717
-0.0323633
-0.0304362
-0.0285909
-0.0268273
-0.0251451
-0.0235433
-0.0220211
-0.0205769
-0.0192093
-0.0179163
-0.0166958
-0.0155458
-0.0144637
-0.0134472
-0.0124937
-0.0116005
-0.0107649
-0.00998439
-0.00925611
-0.00857739
-0.00794557
-0.00735803
-0.0068122
-0.00630557
-0.00583573
-0.00540034
-0.00499714
-0.00462399
-0.00427883
-0.0039597
-0.00366477
-0.00339228
-0.0697049
-0.0671925
-0.0646761
-0.0621647
-0.0596665
-0.0571893
-0.0547402
-0.0523258
-0.0499521
-0.0476244
-0.0453477
-0.0431261
-0.0409634
-0.0388628
-0.036827
-0.0348582
-0.032958
-0.0311277
-0.0293683
-0.0276801
-0.0260633
-0.0245176
-0.0230424
-0.021637
-0.0203003
-0.0190309
-0.0178274
-0.0166879
-0.0156108
-0.0145941
-0.0136355
-0.0127331
-0.0118846
-0.0110877
-0.0103401
-0.00963947
-0.0089836
-0.00837016
-0.00779692
-0.00726168
-0.00676227
-0.00629661
-0.00586268
-0.00545853
-0.0050823
-0.00473219
-0.0044065
-0.00410361
-0.0672402
-0.0649929
-0.0627317
-0.0604649
-0.0582005
-0.0559461
-0.0537085
-0.0514942
-0.049309
-0.0471583
-0.0450471
-0.0429796
-0.0409597
-0.0389909
-0.0370759
-0.0352173
-0.0334171
-0.0316769
-0.0299979
-0.028381
-0.0268267
-0.0253352
-0.0239064
-0.0225398
-0.0212349
-0.0199908
-0.0188064
-0.0176805
-0.0166117
-0.0155984
-0.0146391
-0.0137318
-0.0128749
-0.0120665
-0.0113045
-0.010587
-0.00991217
-0.0092779
-0.00868227
-0.00812335
-0.00759923
-0.00710806
-0.00664802
-0.00621736
-0.00581438
-0.00543744
-0.00508498
-0.0047555
-0.0650051
-0.0629883
-0.0609493
-0.0588961
-0.0568364
-0.0547774
-0.0527257
-0.0506878
-0.0486692
-0.0466755
-0.0447114
-0.0427813
-0.0408893
-0.0390387
-0.0372328
-0.0354741
-0.033765
-0.0321073
-0.0305025
-0.0289518
-0.027456
-0.0260157
-0.0246312
-0.0233023
-0.0220289
-0.0208105
-0.0196463
-0.0185356
-0.0174772
-0.0164701
-0.0155129
-0.0146042
-0.0137425
-0.0129263
-0.012154
-0.0114238
-0.0107342
-0.0100834
-0.00946968
-0.00889139
-0.00834685
-0.00783439
-0.00735238
-0.00689926
-0.00647348
-0.00607355
-0.00569802
-0.00534552
-0.0630073
-0.0611888
-0.0593414
-0.0574729
-0.0555904
-0.0537009
-0.0518111
-0.0499268
-0.0480539
-0.0461976
-0.0443627
-0.0425537
-0.0407746
-0.039029
-0.03732
-0.0356506
-0.0340231
-0.0324397
-0.0309021
-0.0294117
-0.0279696
-0.0265767
-0.0252334
-0.0239402
-0.0226969
-0.0215036
-0.0203597
-0.0192647
-0.0182179
-0.0172185
-0.0162654
-0.0153576
-0.0144939
-0.0136729
-0.0128934
-0.0121539
-0.011453
-0.0107893
-0.0101612
-0.00956724
-0.00900599
-0.00847596
-0.00797568
-0.00750374
-0.00705874
-0.00663932
-0.00624414
-0.00587195
-0.061252
-0.0596021
-0.0579179
-0.0562068
-0.0544757
-0.0527315
-0.0509803
-0.0492282
-0.0474807
-0.045743
-0.04402
-0.042316
-0.040635
-0.0389809
-0.0373567
-0.0357656
-0.03421
-0.0326923
-0.0312143
-0.0297777
-0.0283838
-0.0270336
-0.025728
-0.0244674
-0.0232521
-0.0220823
-0.0209578
-0.0198783
-0.0188434
-0.0178525
-0.0169048
-0.0159995
-0.0151356
-0.014312
-0.0135278
-0.0127816
-0.0120723
-0.0113985
-0.0107591
-0.0101527
-0.00957796
-0.00903361
-0.00851833
-0.00803083
-0.00756984
-0.00713411
-0.00672244
-0.00633362
-0.0597431
-0.058234
-0.0566863
-0.055107
-0.053503
-0.0518808
-0.0502464
-0.0486058
-0.0469643
-0.0453271
-0.0436989
-0.0420841
-0.0404868
-0.0389108
-0.0373593
-0.0358353
-0.0343417
-0.0328807
-0.0314544
-0.0300646
-0.0287128
-0.0274002
-0.0261278
-0.0248962
-0.0237061
-0.0225577
-0.021451
-0.0203861
-0.0193626
-0.0183801
-0.0174383
-0.0165363
-0.0156734
-0.0148489
-0.0140617
-0.0133109
-0.0125954
-0.0119141
-0.0112659
-0.0106497
-0.0100643
-0.00950845
-0.00898105
-0.0084809
-0.00800683
-0.00755771
-0.00713241
-0.00672983
-0.0584832
-0.0570887
-0.0556523
-0.0541808
-0.0526808
-0.0511586
-0.0496201
-0.048071
-0.0465167
-0.0449623
-0.0434124
-0.0418715
-0.0403436
-0.0388323
-0.0373413
-0.0358734
-0.0344315
-0.033018
-0.0316352
-0.0302849
-0.0289687
-0.027688
-0.026444
-0.0252374
-0.024069
-0.0229391
-0.0218482
-0.0207962
-0.0197831
-0.0188086
-0.0178724
-0.0169741
-0.0161129
-0.0152883
-0.0144995
-0.0137456
-0.0130257
-0.0123388
-0.011684
-0.0110603
-0.0104665
-0.00990172
-0.00936474
-0.00885453
-0.00837002
-0.00791015
-0.00747388
-0.00706016
-0.0574739
-0.0561694
-0.0548205
-0.0534338
-0.0520157
-0.0505723
-0.0491095
-0.0476328
-0.0461476
-0.0446588
-0.0431712
-0.0416889
-0.0402162
-0.0387567
-0.0373139
-0.0358908
-0.0344904
-0.0331152
-0.0317673
-0.0304489
-0.0291616
-0.0279068
-0.0266859
-0.0254997
-0.0243491
-0.0232347
-0.0221568
-0.0211157
-0.0201114
-0.0191439
-0.0182129
-0.0173179
-0.0164587
-0.0156346
-0.014845
-0.0140891
-0.0133661
-0.0126753
-0.0120156
-0.0113863
-0.0107863
-0.0102146
-0.00967032
-0.00915239
-0.00865982
-0.00819163
-0.00774683
-0.00732443
-0.0567163
-0.0554783
-0.0541941
-0.0528702
-0.0515127
-0.0501278
-0.0487212
-0.0472984
-0.0458645
-0.0444246
-0.0429833
-0.0415448
-0.0401133
-0.0386925
-0.0372858
-0.0358964
-0.0345272
-0.0331807
-0.0318592
-0.0305648
-0.0292993
-0.0280642
-0.0268608
-0.0256902
-0.0245533
-0.0234507
-0.022383
-0.0213504
-0.020353
-0.019391
-0.0184641
-0.0175721
-0.0167146
-0.0158912
-0.0151012
-0.0143441
-0.0136192
-0.0129256
-0.0122626
-0.0116293
-0.0110248
-0.0104482
-0.00989865
-0.00937512
-0.00887668
-0.00840241
-0.00795136
-0.00752258
-0.0562109
-0.0550167
-0.0537752
-0.0524927
-0.0511754
-0.0498292
-0.0484597
-0.0470725
-0.0456728
-0.0442653
-0.0428547
-0.0414453
-0.0400412
-0.0386462
-0.0372636
-0.0358966
-0.0345481
-0.0332208
-0.031917
-0.0306387
-0.0293879
-0.028166
-0.0269744
-0.0258143
-0.0246867
-0.0235921
-0.0225313
-0.0215044
-0.0205119
-0.0195537
-0.0186297
-0.0177398
-0.0168836
-0.0160608
-0.0152707
-0.014513
-0.0137868
-0.0130916
-0.0124264
-0.0117906
-0.0111832
-0.0106035
-0.0100505
-0.0095233
-0.00902104
-0.00854279
-0.00808764
-0.00765468
-0.0559583
-0.0547859
-0.0535656
-0.0523037
-0.0510063
-0.0496793
-0.0483284
-0.0469589
-0.0455761
-0.0441847
-0.0427895
-0.0413946
-0.0400042
-0.038622
-0.0372514
-0.0358956
-0.0345576
-0.0332399
-0.0319449
-0.0306747
-0.0294311
-0.0282159
-0.0270303
-0.0258755
-0.0247524
-0.023662
-0.0226046
-0.0215807
-0.0205906
-0.0196343
-0.0187118
-0.017823
-0.0169675
-0.016145
-0.015355
-0.014597
-0.0138702
-0.0131742
-0.012508
-0.0118709
-0.0112622
-0.0106809
-0.0101262
-0.00959723
-0.00909308
-0.00861287
-0.0081557
-0.00772067
0.00931237
0.00886759
0.00843614
)
;

boundaryField
{
    inlet
    {
        type            zeroGradient;
    }
    outlet
    {
        type            fixedValue;
        value           nonuniform 0();
    }
    cylinder
    {
        type            zeroGradient;
    }
    top
    {
        type            symmetryPlane;
    }
    bottom
    {
        type            symmetryPlane;
    }
    defaultFaces
    {
        type            empty;
    }
    procBoundary6to2
    {
        type            processor;
        value           nonuniform List<scalar> 
51
(
-0.0853157
-0.0773295
-0.06963
-0.0622393
-0.0551762
-0.0484564
-0.0420921
-0.0360923
-0.0304625
-0.0252053
-0.02032
-0.0158033
-0.0116494
-0.00785005
-0.00439522
-0.00127306
0.00152963
0.00402726
0.00623508
0.00816905
0.00984555
0.0112812
0.0124928
0.013497
0.0143101
0.0149484
0.0154275
0.0157625
0.015968
0.016058
0.0160456
0.0159434
0.0157631
0.0155156
0.015211
0.0148588
0.0144675
0.0140448
0.0135979
0.013133
0.0126558
0.0121712
0.0116835
0.0111965
0.0107134
0.010237
0.00976931
0.00913793
0.00870686
0.00828796
0.00976931
)
;
    }
    procBoundary6to3
    {
        type            processor;
        value           uniform 0.00801888;
    }
    procBoundary6to5
    {
        type            processor;
        value           nonuniform List<scalar> 
33
(
-0.0935639
-0.0966053
-0.102139
-0.100882
-0.100882
-0.108684
-0.108238
-0.108238
-0.107983
-0.107983
-0.107575
-0.107575
-0.103534
-0.103534
-0.0996791
-0.0967056
-0.0930806
-0.0893093
-0.0855505
-0.0819052
-0.0784424
-0.075201
-0.0722039
-0.0694646
-0.0669913
-0.0647887
-0.0628599
-0.0612063
-0.0598287
-0.0587272
-0.0579015
-0.0573511
-0.0570763
)
;
    }
    procBoundary6to7
    {
        type            processor;
        value           nonuniform List<scalar> 
31
(
0.00801887
0.00788218
0.00788218
0.00724058
0.00687228
0.00638912
0.00581461
0.00581461
0.00493725
0.00403161
0.00403161
0.00385453
0.00273596
0.00184808
0.00094627
5.78875e-05
-0.000801291
-0.00162525
-0.00240687
-0.00314059
-0.00382198
-0.00444757
-0.00501472
-0.00552149
-0.00596652
-0.00634888
-0.00666798
-0.00692348
-0.00711518
-0.00724303
-0.00730691
)
;
    }
}


// ************************************************************************* //
