/*--------------------------------*- C++ -*----------------------------------*\
  =========                 |
  \\      /  F ield         | OpenFOAM: The Open Source CFD Toolbox
   \\    /   O peration     | Website:  https://openfoam.org
    \\  /    A nd           | Version:  7
     \\/     M anipulation  |
\*---------------------------------------------------------------------------*/
FoamFile
{
    version     2.0;
    format      ascii;
    class       volScalarField;
    location    "15";
    object      p;
}
// * * * * * * * * * * * * * * * * * * * * * * * * * * * * * * * * * * * * * //

dimensions      [0 2 -2 0 0 0 0];

internalField   nonuniform List<scalar> 
3500
(
-0.223835
-0.211182
-0.198096
-0.184676
-0.171036
-0.157279
-0.143511
-0.129836
-0.116358
-0.103178
-0.0903817
-0.0780345
-0.066211
-0.0549734
-0.0443571
-0.0344219
-0.0251791
-0.0166428
-0.00881732
-0.00169688
0.00473218
0.0104905
0.0156045
0.0201052
0.0240273
0.0274074
0.0302842
0.0326965
0.0346832
0.0362825
0.0375312
0.0384647
0.0391163
0.0395173
0.0396971
0.039683
0.0395001
0.0391712
0.038717
0.0381561
0.0375055
0.0367801
0.0359932
0.0351567
0.0342809
0.0333751
0.0324471
0.031504
0.0305516
0.0295952
0.0286391
0.027687
0.026742
0.0258069
0.0248836
0.0239739
0.0230792
0.0222005
0.0213386
0.0204941
0.0196672
0.0188582
0.018067
0.0172934
0.0165372
0.015798
0.0150754
0.0143688
0.0136776
0.0130011
0.0123387
0.0116896
0.011053
0.010428
0.00981374
0.00920934
0.0086139
0.00802633
0.00744584
0.00687107
0.00630157
0.0057352
0.00517288
0.0046099
0.00405183
0.00348552
0.00293181
0.00234914
0.00180665
0.00116213
0.0006187
-0.227585
-0.214953
-0.201877
-0.188438
-0.174761
-0.160948
-0.147107
-0.133345
-0.119771
-0.106496
-0.0935522
-0.0810796
-0.0691329
-0.0577686
-0.0470373
-0.0369772
-0.0276125
-0.0189576
-0.011017
-0.00378562
0.0027499
0.00861003
0.0138211
0.0184143
0.0224241
0.0258878
0.0288438
0.0313313
0.0333895
0.0350566
0.0363699
0.0373649
0.0380754
0.0385329
0.0387665
0.0388031
0.0386679
0.0383841
0.0379725
0.0374522
0.0368398
0.0361506
0.0353979
0.0345938
0.0337487
0.0328718
0.0319712
0.0310539
0.030126
0.0291926
0.0282582
0.0273267
0.0264011
0.0254843
0.0245783
0.0236849
0.0228057
0.0219416
0.0210935
0.0202621
0.0194476
0.0186502
0.0178701
0.017107
0.0163608
0.015631
0.0149174
0.0142193
0.0135363
0.0128676
0.0122126
0.0115706
0.0109407
0.0103223
0.00971428
0.00911592
0.0085263
0.00794436
0.00736931
0.00679981
0.00623541
0.00567398
0.00511637
0.004558
0.00400404
0.00344205
0.00289114
0.00231287
0.00176999
0.00113339
0.000585288
-0.233803
-0.221276
-0.208259
-0.194672
-0.181007
-0.167165
-0.153266
-0.139421
-0.125736
-0.112314
-0.0992519
-0.0866257
-0.0745098
-0.0629693
-0.0520566
-0.0418114
-0.0322608
-0.0234208
-0.0152971
-0.00788553
-0.00117337
0.00485929
0.0102385
0.014995
0.0191634
0.0227806
0.0258852
0.0285163
0.030713
0.0325138
0.0339558
0.0350746
0.0359041
0.0364759
0.0368195
0.036962
0.0369277
0.0367393
0.0364181
0.0359834
0.0354523
0.0348401
0.0341603
0.0334252
0.0326452
0.0318299
0.0309874
0.0301249
0.0292487
0.0283641
0.0274758
0.0265876
0.025703
0.0248246
0.023955
0.0230959
0.0222489
0.0214153
0.020596
0.0197917
0.0190029
0.0182298
0.0174725
0.0167311
0.0160054
0.0152952
0.0146
0.0139195
0.0132531
0.0126003
0.0119605
0.0113329
0.0107169
0.0101116
0.00951633
0.00893019
0.00835234
0.00778178
0.00721772
0.00665887
0.00610474
0.00555333
0.00500524
0.00445629
0.00391078
0.0033577
0.00281304
0.00224397
0.00170212
0.00108108
0.000527714
-0.228239
-0.215364
-0.202063
-0.18847
-0.174682
-0.160809
-0.14696
-0.133242
-0.119757
-0.106601
-0.0938659
-0.081628
-0.0699502
-0.0588859
-0.0484767
-0.038752
-0.0297295
-0.0214165
-0.0138102
-0.00689915
-0.000664655
0.00491829
0.00987955
0.0142527
0.0180738
0.0213807
0.0242117
0.0266052
0.0285991
0.0302298
0.0315325
0.0325406
0.0332854
0.0337962
0.0340999
0.0342212
0.0341821
0.0340029
0.0337028
0.0332995
0.0328085
0.0322438
0.0316174
0.0309404
0.0302222
0.0294715
0.0286955
0.0279008
0.027093
0.026277
0.0254569
0.0246364
0.0238184
0.0230056
0.0222
0.0214034
0.0206172
0.0198426
0.0190804
0.0183313
0.0175957
0.0168738
0.0161659
0.0154718
0.0147915
0.0141246
0.013471
0.0128301
0.0122016
0.0115848
0.0109792
0.0103842
0.009799
0.009223
0.00865535
0.00809531
0.00754192
0.00699445
0.00645168
0.00591309
0.00537683
0.00484324
0.00430868
0.00377632
0.00323712
0.00270311
0.0021486
0.00161192
0.00101346
0.000459971
-0.234695
-0.222133
-0.209123
-0.195781
-0.182213
-0.168526
-0.154831
-0.141234
-0.127838
-0.11474
-0.10203
-0.0897848
-0.0780721
-0.0669464
-0.0564508
-0.0466165
-0.0374632
-0.0289996
-0.0212249
-0.0141295
-0.0076967
-0.00190345
0.00327814
0.00787961
0.0119352
0.0154806
0.0185527
0.0211879
0.0234226
0.0252919
0.0268296
0.0280681
0.0290377
0.0297668
0.030282
0.0306076
0.0307658
0.0307761
0.0306566
0.0304248
0.0300965
0.0296861
0.029206
0.0286673
0.02808
0.0274527
0.0267932
0.0261082
0.0254037
0.024685
0.0239564
0.023222
0.0224851
0.0217484
0.0210145
0.0202854
0.0195628
0.018848
0.0181421
0.0174461
0.0167605
0.0160859
0.0154226
0.0147707
0.0141303
0.0135012
0.0128833
0.0122764
0.0116801
0.011094
0.0105176
0.00995048
0.00939198
0.0088415
0.00829837
0.0077619
0.00723126
0.00670575
0.00618429
0.00566632
0.00515024
0.00463606
0.00412083
0.00360654
0.00308631
0.00256822
0.00203382
0.00150887
0.000938928
0.000394741
-0.239534
-0.227476
-0.21495
-0.202058
-0.188905
-0.175598
-0.162244
-0.14895
-0.135817
-0.122943
-0.110416
-0.0983141
-0.0867032
-0.0756389
-0.0651652
-0.0553148
-0.0461092
-0.0375591
-0.0296661
-0.0224233
-0.0158168
-0.00982681
-0.00442852
0.000406411
0.00470902
0.00851208
0.0118493
0.0147547
0.017262
0.0194041
0.0212128
0.0227187
0.0239508
0.0249361
0.0257003
0.0262669
0.0266577
0.0268926
0.026989
0.0269628
0.0268298
0.0266045
0.0262999
0.0259274
0.0254971
0.0250182
0.0244988
0.0239459
0.023366
0.0227645
0.0221464
0.0215159
0.0208767
0.0202321
0.0195847
0.0189371
0.0182911
0.0176485
0.0170107
0.0163788
0.0157537
0.0151362
0.0145268
0.0139259
0.0133337
0.0127503
0.0121758
0.01161
0.0110527
0.0105038
0.0099629
0.0094296
0.00890346
0.008384
0.00787065
0.00736285
0.00685988
0.00636112
0.00586565
0.00537289
0.00488153
0.00439132
0.00389999
0.00340853
0.00291207
0.00241543
0.00190633
0.00140065
0.000863762
0.000339392
-0.230924
-0.219018
-0.206744
-0.194195
-0.181465
-0.168653
-0.155856
-0.14317
-0.130693
-0.118512
-0.106704
-0.0953342
-0.0844565
-0.0741159
-0.0643468
-0.0551725
-0.0466062
-0.0386523
-0.0313073
-0.0245615
-0.018399
-0.0127996
-0.00773909
-0.00319079
0.000873998
0.00448515
0.00767308
0.0104682
0.0129007
0.0149996
0.0167934
0.0183091
0.0195722
0.0206071
0.0214363
0.022081
0.0225606
0.0228927
0.0230928
0.0231756
0.0231551
0.0230446
0.0228558
0.0225993
0.0222846
0.02192
0.0215134
0.0210715
0.0206002
0.0201049
0.0195902
0.0190602
0.0185185
0.0179681
0.0174117
0.0168518
0.0162904
0.0157291
0.0151694
0.0146125
0.0140594
0.0135108
0.0129675
0.0124298
0.0118982
0.0113727
0.0108535
0.0103407
0.00983404
0.00933346
0.00883871
0.0083495
0.00786546
0.00738617
0.00691119
0.00643994
0.0059719
0.00550632
0.00504266
0.00457987
0.00411755
0.00365405
0.00318966
0.0027211
0.00225095
0.00177146
0.00129195
0.000791213
0.000295551
-0.220994
-0.20948
-0.19768
-0.185691
-0.173605
-0.161495
-0.14944
-0.137529
-0.12585
-0.114478
-0.103476
-0.092897
-0.0827874
-0.0731852
-0.0641173
-0.0555997
-0.0476406
-0.0402411
-0.033396
-0.0270947
-0.0213219
-0.0160586
-0.011283
-0.00697111
-0.00309749
0.000364249
0.00344091
0.00615926
0.00854573
0.0106261
0.0124254
0.0139673
0.0152748
0.0163693
0.017271
0.017999
0.0185709
0.0190028
0.0193083
0.0195007
0.0195925
0.0195956
0.0195207
0.0193775
0.0191749
0.0189209
0.0186228
0.0182872
0.01792
0.0175262
0.0171104
0.0166764
0.0162279
0.0157677
0.0152987
0.0148231
0.014343
0.01386
0.0133757
0.0128913
0.0124079
0.0119263
0.0114473
0.0109713
0.0104987
0.01003
0.00956513
0.00910435
0.0086476
0.00819483
0.00774587
0.00730054
0.00685854
0.00641955
0.00598316
0.00554894
0.00511635
0.00468488
0.00425377
0.00382255
0.00339008
0.00295625
0.00251892
0.00207937
0.00163274
0.00118455
0.000721724
0.000260748
-0.221286
-0.210594
-0.199608
-0.188417
-0.177108
-0.165761
-0.154438
-0.14321
-0.132153
-0.121335
-0.110813
-0.100633
-0.0908448
-0.0814902
-0.072601
-0.0641979
-0.0562936
-0.0488943
-0.0420002
-0.0356061
-0.0297021
-0.0242745
-0.0193066
-0.0147794
-0.0106718
-0.00696178
-0.00362621
-0.000641741
0.00201505
0.00436733
0.00643776
0.00824832
0.00982015
0.0111734
0.0123273
0.0132999
0.0141082
0.0147681
0.0152943
0.0156997
0.0159963
0.0161955
0.0163078
0.0163429
0.0163095
0.0162155
0.0160684
0.0158751
0.0156419
0.0153742
0.0150772
0.0147551
0.0144121
0.0140515
0.0136764
0.0132895
0.0128933
0.0124896
0.0120804
0.0116671
0.0112511
0.0108335
0.0104152
0.00999699
0.00957951
0.00916325
0.00874857
0.00833573
0.00792492
0.00751623
0.00710965
0.00670512
0.00630252
0.00590165
0.00550226
0.00510403
0.00470659
0.00430954
0.00391234
0.00351458
0.00311547
0.00271477
0.00231111
0.00190511
0.00149362
0.00108011
0.000655829
0.000231982
-0.211432
-0.201488
-0.19129
-0.180911
-0.170425
-0.159904
-0.149421
-0.139044
-0.128837
-0.118853
-0.109124
-0.0996953
-0.0906116
-0.08191
-0.0736174
-0.0657531
-0.0583305
-0.0513571
-0.0448349
-0.038761
-0.0331285
-0.0279268
-0.0231428
-0.0187607
-0.0147629
-0.0111309
-0.00784473
-0.00488429
-0.00222911
0.000141171
0.00224663
0.00410684
0.00574071
0.00716639
0.00840115
0.00946132
0.0103622
0.011118
0.0117422
0.0122472
0.0126447
0.0129456
0.01316
0.0132975
0.0133667
0.0133753
0.01333
0.0132371
0.0131023
0.0129308
0.0127275
0.0124965
0.0122418
0.0119667
0.0116743
0.0113672
0.0110479
0.0107185
0.0103807
0.0100363
0.00968654
0.00933268
0.00897572
0.00861651
0.00825576
0.00789407
0.00753189
0.00716958
0.00680742
0.00644557
0.00608415
0.00572316
0.00536258
0.0050023
0.00464214
0.0042819
0.00392131
0.00356004
0.00319776
0.00283401
0.00246854
0.00210051
0.0017303
0.00135579
0.000979507
0.000594962
0.000209796
-0.204574
-0.195397
-0.18599
-0.176418
-0.166748
-0.157042
-0.14736
-0.13776
-0.128293
-0.119009
-0.109953
-0.101164
-0.0926798
-0.0845293
-0.0767369
-0.0693207
-0.0622935
-0.0556628
-0.0494317
-0.0435994
-0.0381611
-0.0331091
-0.0284333
-0.0241211
-0.0201584
-0.01653
-0.0132195
-0.0102099
-0.00748409
-0.00502461
-0.00281426
-0.000836061
0.000926497
0.00248933
0.00386773
0.00507636
0.00612918
0.00703927
0.00781878
0.00847909
0.00903093
0.00948435
0.00984873
0.0101328
0.0103443
0.0104906
0.0105783
0.0106136
0.0106023
0.0105498
0.0104607
0.0103394
0.0101899
0.0100156
0.00981983
0.00960534
0.00937469
0.00913015
0.00887371
0.00860716
0.00833204
0.00804971
0.00776136
0.00746801
0.00717054
0.00686967
0.00656605
0.00626017
0.00595247
0.00564326
0.0053328
0.00502126
0.00470875
0.00439533
0.00408095
0.0037656
0.00344913
0.00313141
0.00281225
0.00249143
0.00216878
0.0018439
0.001517
0.00118689
0.00085527
0.000517954
0.000180232
-0.191601
-0.183463
-0.175139
-0.16668
-0.158137
-0.149562
-0.141003
-0.132506
-0.124116
-0.115873
-0.107816
-0.099975
-0.0923794
-0.0850533
-0.0780174
-0.0712882
-0.0648779
-0.0587947
-0.0530432
-0.0476249
-0.042538
-0.0377786
-0.0333401
-0.0292143
-0.0253914
-0.0218601
-0.0186084
-0.0156235
-0.012892
-0.0104003
-0.00813475
-0.00608169
-0.00422762
-0.00255929
-0.00106378
0.000271338
0.00145792
0.00250721
0.00342984
0.00423591
0.00493497
0.00553605
0.00604758
0.00647745
0.00683301
0.00712114
0.00734822
0.00752019
0.00764248
0.00772012
0.00775767
0.00775935
0.00772896
0.00767
0.00758563
0.0074787
0.0073518
0.00720726
0.00704717
0.00687341
0.00668763
0.00649134
0.00628584
0.00607229
0.00585173
0.00562503
0.00539298
0.00515623
0.00491537
0.00467087
0.00442313
0.00417248
0.00391919
0.00366345
0.00340542
0.0031452
0.00288283
0.00261838
0.00235179
0.00208312
0.00181228
0.00153927
0.00126421
0.00098675
0.000707873
0.000425826
0.000144447
-0.181556
-0.174361
-0.166998
-0.159508
-0.151933
-0.144315
-0.136694
-0.12911
-0.121599
-0.114197
-0.106934
-0.0998392
-0.0929379
-0.0862526
-0.0798026
-0.0736038
-0.0676689
-0.0620069
-0.0566241
-0.0515239
-0.0467072
-0.0421725
-0.0379164
-0.0339335
-0.0302172
-0.0267595
-0.0235512
-0.0205826
-0.0178433
-0.0153224
-0.0130089
-0.0108914
-0.00895884
-0.0072
-0.00560399
-0.0041602
-0.00285841
-0.00168875
-0.000641779
0.000291529
0.00111975
0.00185103
0.00249304
0.00305306
0.00353789
0.00395392
0.00430709
0.00460292
0.00484654
0.00504269
0.00519578
0.00530986
0.00538866
0.00543561
0.00545386
0.00544626
0.00541544
0.00536377
0.00529342
0.00520634
0.00510429
0.00498886
0.00486148
0.00472343
0.00457585
0.00441976
0.00425605
0.00408553
0.0039089
0.00372676
0.00353966
0.00334807
0.00315237
0.00295293
0.00275
0.00254387
0.0023347
0.00212274
0.00190804
0.0016909
0.00147129
0.00124956
0.00102569
0.000800113
0.000573093
0.000344719
0.000115979
-0.171954
-0.165541
-0.158978
-0.152299
-0.14554
-0.138736
-0.131921
-0.125127
-0.118386
-0.111728
-0.105178
-0.0987633
-0.0925045
-0.086422
-0.0805328
-0.0748512
-0.069389
-0.064155
-0.0591559
-0.0543959
-0.0498772
-0.0455999
-0.0415624
-0.0377617
-0.0341933
-0.0308515
-0.0277298
-0.0248209
-0.0221166
-0.0196087
-0.0172883
-0.0151463
-0.0131737
-0.0113614
-0.00970016
-0.00818123
-0.00679586
-0.00553558
-0.00439221
-0.00335787
-0.00242502
-0.00158645
-0.000835302
-0.000165047
0.000430465
0.000957028
0.00142008
0.00182474
0.00217578
0.00247768
0.00273459
0.00295038
0.00312864
0.00327268
0.00338556
0.00347009
0.00352886
0.00356426
0.00357844
0.0035734
0.00355095
0.00351274
0.00346026
0.00339486
0.00331779
0.00323014
0.00313291
0.003027
0.00291323
0.00279231
0.00266489
0.00253156
0.00239281
0.00224913
0.00210091
0.00194854
0.00179231
0.00163262
0.00146961
0.00130378
0.00113508
0.000964254
0.000790989
0.000616483
0.000439954
0.000263457
8.54446e-05
-0.16334
-0.157623
-0.151771
-0.145814
-0.139781
-0.133701
-0.127602
-0.121511
-0.115455
-0.109458
-0.103544
-0.0977343
-0.0920484
-0.0865035
-0.0811149
-0.0758959
-0.0708575
-0.0660085
-0.061356
-0.056905
-0.0526587
-0.0486186
-0.0447849
-0.0411561
-0.0377296
-0.034502
-0.0314687
-0.0286242
-0.0259628
-0.0234778
-0.0211625
-0.0190096
-0.0170119
-0.0151618
-0.0134519
-0.0118746
-0.0104227
-0.00908882
-0.00786598
-0.0067473
-0.00572618
-0.00479624
-0.00395138
-0.00318576
-0.00249383
-0.00187033
-0.00131026
-0.000808902
-0.000361824
3.5147e-05
0.000385917
0.000694139
0.00096322
0.00119633
0.00139642
0.00156623
0.00170829
0.00182493
0.00191831
0.00199043
0.00204312
0.00207804
0.00209675
0.00210064
0.00209102
0.00206905
0.00203581
0.00199228
0.00193935
0.00187784
0.00180848
0.00173195
0.00164885
0.00155977
0.00146518
0.00136561
0.00126142
0.00115315
0.00104099
0.000925627
0.000806985
0.000686125
0.00056242
0.000437827
0.000310536
0.000184718
5.62598e-05
-0.155555
-0.15044
-0.145203
-0.139868
-0.13446
-0.129002
-0.123519
-0.118034
-0.11257
-0.107147
-0.101786
-0.0965052
-0.0913224
-0.0862527
-0.0813101
-0.0765066
-0.0718526
-0.0673567
-0.063026
-0.0588657
-0.0548798
-0.0510705
-0.047439
-0.0439852
-0.0407078
-0.0376046
-0.0346727
-0.0319083
-0.0293069
-0.0268637
-0.0245733
-0.0224302
-0.0204284
-0.0185618
-0.0168243
-0.0152097
-0.0137118
-0.0123245
-0.0110418
-0.00985765
-0.00876645
-0.00776257
-0.00684065
-0.00599549
-0.00522214
-0.00451585
-0.00387209
-0.00328659
-0.00275525
-0.00227426
-0.00183996
-0.00144897
-0.00109806
-0.000784237
-0.000504694
-0.000256805
-3.81251e-05
0.000153621
0.000320548
0.000464619
0.00058765
0.000691324
0.000777196
0.000846702
0.000901166
0.00094181
0.00096976
0.000986053
0.000991644
0.000987417
0.000974177
0.000952683
0.000923612
0.000887632
0.000845298
0.000797232
0.000743859
0.000685835
0.000623391
0.000557375
0.000487648
0.000415585
0.000340232
0.000264293
0.000184944
0.000108388
2.79281e-05
-0.148481
-0.143891
-0.139189
-0.134395
-0.129531
-0.124617
-0.119674
-0.11472
-0.109776
-0.10486
-0.0999888
-0.0951796
-0.090447
-0.0858048
-0.0812655
-0.0768401
-0.0725382
-0.0683679
-0.0643361
-0.0604481
-0.0567082
-0.0531193
-0.0496832
-0.0464008
-0.0432718
-0.0402951
-0.037469
-0.0347909
-0.0322578
-0.029866
-0.0276116
-0.0254901
-0.023497
-0.0216273
-0.0198761
-0.0182383
-0.0167088
-0.0152823
-0.0139539
-0.0127184
-0.0115708
-0.0105065
-0.00952053
-0.00860846
-0.00776584
-0.00698845
-0.00627221
-0.00561323
-0.00500783
-0.00445245
-0.00394378
-0.00347863
-0.00305401
-0.00266711
-0.00231527
-0.00199599
-0.00170693
-0.00144591
-0.00121086
-0.000999878
-0.000811176
-0.000643089
-0.000494066
-0.000362666
-0.000247548
-0.000147464
-6.12585e-05
1.21485e-05
7.37545e-05
0.000124495
0.00016523
0.000196779
0.000219878
0.000235262
0.000243548
0.000245436
0.000241403
0.000232202
0.000218085
0.000200045
0.000177877
0.000153243
0.000124869
9.61643e-05
6.33256e-05
3.44955e-05
5.25842e-07
-0.142037
-0.137907
-0.133673
-0.129354
-0.124967
-0.12053
-0.11606
-0.111574
-0.107088
-0.10262
-0.0981828
-0.093792
-0.0894606
-0.0852008
-0.0810238
-0.0769397
-0.0729572
-0.0690841
-0.0653269
-0.0616911
-0.0581809
-0.0547998
-0.0515501
-0.0484331
-0.0454495
-0.042599
-0.0398809
-0.0372935
-0.0348348
-0.0325022
-0.0302928
-0.0282033
-0.0262301
-0.0243692
-0.0226167
-0.0209685
-0.0194203
-0.0179679
-0.0166068
-0.0153329
-0.0141419
-0.0130295
-0.0119918
-0.0110247
-0.0101244
-0.00928695
-0.00850887
-0.00778663
-0.00711687
-0.00649638
-0.00592211
-0.00539113
-0.00490068
-0.00444812
-0.00403096
-0.00364686
-0.00329359
-0.00296907
-0.00267131
-0.00239848
-0.00214883
-0.00192074
-0.00171268
-0.00152322
-0.00135102
-0.00119482
-0.00105346
-0.000925824
-0.000810897
-0.000707705
-0.000615349
-0.000532967
-0.000459777
-0.00039499
-0.000337945
-0.000287878
-0.000244274
-0.000206298
-0.000173686
-0.000145319
-0.000121473
-0.000100222
-8.31475e-05
-6.61815e-05
-5.40511e-05
-3.67845e-05
-2.58391e-05
-0.136152
-0.132427
-0.128605
-0.124703
-0.120736
-0.116718
-0.112664
-0.10859
-0.10451
-0.100437
-0.0963854
-0.092367
-0.0883937
-0.0844766
-0.0806257
-0.0768502
-0.073158
-0.0695566
-0.0660521
-0.0626499
-0.0593542
-0.0561687
-0.053096
-0.050138
-0.0472957
-0.0445698
-0.0419599
-0.0394653
-0.0370848
-0.0348167
-0.0326588
-0.0306087
-0.0286637
-0.0268207
-0.0250766
-0.023428
-0.0218716
-0.0204036
-0.0190207
-0.017719
-0.0164951
-0.0153454
-0.0142663
-0.0132544
-0.0123061
-0.0114183
-0.0105877
-0.00981119
-0.00908571
-0.00840839
-0.00777644
-0.00718719
-0.0066381
-0.00612673
-0.00565075
-0.00520798
-0.00479632
-0.00441378
-0.0040585
-0.00372869
-0.00342269
-0.00313891
-0.00287586
-0.00263215
-0.00240644
-0.00219748
-0.00200412
-0.00182523
-0.00165977
-0.00150676
-0.00136526
-0.00123439
-0.00111333
-0.00100126
-0.00089748
-0.000801173
-0.000711799
-0.000628456
-0.000550876
-0.000477828
-0.000409662
-0.000344214
-0.000283351
-0.000222399
-0.000166946
-0.000105314
-5.11205e-05
-0.130768
-0.1274
-0.123942
-0.120408
-0.11681
-0.113162
-0.109477
-0.105767
-0.102045
-0.098324
-0.0946146
-0.0909282
-0.0872754
-0.0836659
-0.0801089
-0.0766124
-0.0731842
-0.0698309
-0.0665584
-0.0633718
-0.0602755
-0.057273
-0.0543673
-0.0515605
-0.0488542
-0.0462492
-0.0437459
-0.0413443
-0.0390436
-0.0368428
-0.0347406
-0.0327351
-0.0308244
-0.0290061
-0.0272779
-0.0256369
-0.0240806
-0.0226059
-0.0212099
-0.0198896
-0.0186419
-0.0174639
-0.0163524
-0.0153045
-0.0143172
-0.0133875
-0.0125127
-0.01169
-0.0109166
-0.0101901
-0.00950772
-0.00886721
-0.00826618
-0.0077024
-0.00717373
-0.00667811
-0.00621358
-0.0057783
-0.00537047
-0.00498842
-0.00463053
-0.0042953
-0.00398128
-0.00368709
-0.00341145
-0.00315313
-0.00291096
-0.00268383
-0.00247071
-0.00227059
-0.00208254
-0.00190564
-0.00173906
-0.00158195
-0.00143358
-0.00129311
-0.00115996
-0.0010332
-0.000912547
-0.000796678
-0.000686013
-0.000578173
-0.000475296
-0.000372151
-0.000275123
-0.000170951
-7.52678e-05
-0.125836
-0.122784
-0.119648
-0.116439
-0.113168
-0.109848
-0.106488
-0.103101
-0.0996979
-0.096289
-0.0928848
-0.0894951
-0.0861292
-0.0827961
-0.0795037
-0.0762598
-0.0730711
-0.069944
-0.066884
-0.0638961
-0.0609843
-0.0581525
-0.0554034
-0.0527396
-0.0501628
-0.0476742
-0.0452748
-0.0429647
-0.0407439
-0.0386118
-0.0365677
-0.0346103
-0.0327382
-0.0309498
-0.0292431
-0.0276161
-0.0260665
-0.0245921
-0.0231905
-0.021859
-0.0205952
-0.0193965
-0.0182604
-0.0171842
-0.0161654
-0.0152014
-0.0142897
-0.013428
-0.0126138
-0.0118448
-0.0111186
-0.0104332
-0.00978637
-0.00917609
-0.00860037
-0.00805733
-0.00754515
-0.00706207
-0.00660644
-0.00617665
-0.00577119
-0.00538859
-0.00502748
-0.00468653
-0.00436448
-0.00406014
-0.00377235
-0.00350003
-0.00324213
-0.00299767
-0.0027657
-0.00254529
-0.00233561
-0.00213578
-0.00194507
-0.0017626
-0.0015878
-0.00141966
-0.00125793
-0.0011012
-0.000949953
-0.000801627
-0.000658606
-0.000515149
-0.00037838
-0.00023358
-9.82463e-05
-0.121315
-0.118544
-0.115693
-0.112772
-0.109791
-0.106761
-0.10369
-0.10059
-0.0974701
-0.0943395
-0.0912075
-0.088083
-0.0849744
-0.0818895
-0.0788357
-0.0758201
-0.0728488
-0.0699278
-0.0670622
-0.0642567
-0.0615154
-0.0588419
-0.0562392
-0.0537098
-0.0512556
-0.0488783
-0.0465788
-0.0443579
-0.0422158
-0.0401524
-0.0381675
-0.0362602
-0.0344296
-0.0326745
-0.0309936
-0.0293853
-0.0278477
-0.0263792
-0.0249777
-0.0236413
-0.0223677
-0.0211548
-0.0200005
-0.0189026
-0.0178588
-0.016867
-0.015925
-0.0150306
-0.0141817
-0.0133763
-0.0126123
-0.0118878
-0.0112007
-0.0105493
-0.00993182
-0.00934639
-0.00879139
-0.00826519
-0.00776622
-0.00729298
-0.00684405
-0.00641802
-0.00601359
-0.00562947
-0.00526446
-0.00491738
-0.00458713
-0.00427263
-0.00397285
-0.00368682
-0.00341359
-0.00315224
-0.00290193
-0.00266177
-0.00243103
-0.0022088
-0.00199451
-0.00178712
-0.00158639
-0.00139083
-0.00120101
-0.00101418
-0.00083296
-0.000651148
-0.000476549
-0.0002931
-0.000120027
-0.117172
-0.11465
-0.112052
-0.109386
-0.106663
-0.10389
-0.101076
-0.0982312
-0.0953632
-0.0924808
-0.089592
-0.0867048
-0.0838268
-0.0809651
-0.0781263
-0.075317
-0.0725428
-0.0698093
-0.0671212
-0.064483
-0.0618987
-0.0593718
-0.0569052
-0.0545014
-0.0521627
-0.0498907
-0.0476868
-0.0455518
-0.0434863
-0.0414906
-0.0395647
-0.0377083
-0.0359208
-0.0342014
-0.0325492
-0.0309629
-0.0294414
-0.0279831
-0.0265865
-0.02525
-0.0239717
-0.0227501
-0.0215831
-0.020469
-0.0194059
-0.0183919
-0.017425
-0.0165036
-0.0156255
-0.0147891
-0.0139926
-0.0132341
-0.0125119
-0.0118244
-0.0111698
-0.0105467
-0.00995336
-0.00938838
-0.00885027
-0.00833764
-0.00784912
-0.00738342
-0.00693927
-0.00651546
-0.00611082
-0.00572423
-0.0053546
-0.00500089
-0.0046621
-0.00433726
-0.00402543
-0.00372572
-0.00343727
-0.0031592
-0.00289076
-0.00263106
-0.0023795
-0.00213504
-0.00189744
-0.00166515
-0.00143881
-0.00121552
-0.000998109
-0.000779958
-0.000569496
-0.000349434
-0.00014059
-0.113376
-0.111075
-0.108702
-0.106264
-0.103769
-0.101225
-0.0986397
-0.0960217
-0.0933783
-0.0907172
-0.0880458
-0.085371
-0.0826998
-0.0800386
-0.0773936
-0.0747705
-0.0721749
-0.0696116
-0.0670854
-0.0646003
-0.0621602
-0.0597683
-0.0574278
-0.0551411
-0.0529105
-0.0507377
-0.0486242
-0.0465713
-0.0445796
-0.0426497
-0.040782
-0.0389762
-0.0372324
-0.0355499
-0.0339282
-0.0323665
-0.0308638
-0.029419
-0.0280309
-0.0266982
-0.0254195
-0.0241934
-0.0230183
-0.0218927
-0.020815
-0.0197836
-0.0187968
-0.017853
-0.0169507
-0.0160881
-0.0152637
-0.0144759
-0.0137232
-0.0130039
-0.0123167
-0.0116601
-0.0110326
-0.0104329
-0.00985955
-0.00931131
-0.0087869
-0.00828508
-0.00780466
-0.00734448
-0.00690343
-0.00648043
-0.00607444
-0.00568443
-0.00530944
-0.00494851
-0.00460074
-0.00426522
-0.00394112
-0.00362756
-0.00332379
-0.00302892
-0.00274236
-0.00246303
-0.00219073
-0.00192385
-0.00166309
-0.00140542
-0.00115387
-0.000901435
-0.000657124
-0.000402528
-0.000159923
-0.109903
-0.107799
-0.105625
-0.103389
-0.101097
-0.0987563
-0.0963746
-0.0939587
-0.0915156
-0.0890521
-0.0865747
-0.0840901
-0.0816042
-0.0791232
-0.0766525
-0.0741976
-0.0717634
-0.0693547
-0.0669756
-0.0646302
-0.062322
-0.0600544
-0.0578302
-0.055652
-0.053522
-0.0514421
-0.0494139
-0.0474387
-0.0455174
-0.0436509
-0.0418395
-0.0400836
-0.0383831
-0.036738
-0.0351478
-0.033612
-0.0321301
-0.0307011
-0.0293242
-0.0279984
-0.0267226
-0.0254955
-0.024316
-0.0231828
-0.0220944
-0.0210497
-0.0200471
-0.0190852
-0.0181627
-0.0172781
-0.0164301
-0.0156171
-0.0148379
-0.014091
-0.0133751
-0.0126889
-0.0120311
-0.0114003
-0.0107954
-0.0102151
-0.00965825
-0.00912367
-0.00861024
-0.00811688
-0.00764251
-0.0071861
-0.00674664
-0.00632317
-0.00591473
-0.00552039
-0.00513927
-0.00477048
-0.00441321
-0.00406657
-0.00372984
-0.00340211
-0.0030828
-0.00277084
-0.00246602
-0.00216671
-0.00187366
-0.00158372
-0.00130011
-0.00101548
-0.000739369
-0.000452344
-0.000178019
-0.10673
-0.104801
-0.102805
-0.100748
-0.0986361
-0.0964766
-0.0942757
-0.0920398
-0.089775
-0.0874877
-0.0851837
-0.082869
-0.0805493
-0.0782299
-0.075916
-0.0736125
-0.0713241
-0.0690552
-0.0668097
-0.0645914
-0.0624037
-0.0602499
-0.0581327
-0.0560546
-0.0540178
-0.0520244
-0.0500759
-0.0481738
-0.0463192
-0.0445129
-0.0427557
-0.041048
-0.03939
-0.0377819
-0.0362234
-0.0347144
-0.0332543
-0.0318428
-0.030479
-0.0291624
-0.0278919
-0.0266667
-0.0254857
-0.024348
-0.0232524
-0.0221977
-0.0211827
-0.0202064
-0.0192673
-0.0183644
-0.0174964
-0.0166619
-0.0158598
-0.0150889
-0.014348
-0.0136357
-0.012951
-0.0122926
-0.0116595
-0.0110504
-0.0104644
-0.00990017
-0.00935683
-0.00883329
-0.00832854
-0.0078416
-0.00737149
-0.00691728
-0.00647806
-0.00605293
-0.00564102
-0.00524146
-0.00485344
-0.00447612
-0.00410877
-0.00375048
-0.0034007
-0.00305832
-0.00272318
-0.00239361
-0.00207041
-0.00175034
-0.00143676
-0.00112205
-0.000816194
-0.000498863
-0.000194878
-0.103839
-0.102065
-0.100226
-0.0983282
-0.0963769
-0.0943783
-0.0923381
-0.0902621
-0.0881561
-0.0860258
-0.0838765
-0.0817136
-0.0795424
-0.0773678
-0.0751946
-0.0730273
-0.0708703
-0.0687275
-0.0666029
-0.0645
-0.062422
-0.060372
-0.0583527
-0.0563665
-0.0544158
-0.0525023
-0.050628
-0.0487941
-0.047002
-0.0452527
-0.043547
-0.0418855
-0.0402685
-0.0386965
-0.0371694
-0.0356871
-0.0342495
-0.0328563
-0.031507
-0.030201
-0.0289378
-0.0277165
-0.0265365
-0.0253968
-0.0242965
-0.0232348
-0.0222104
-0.0212226
-0.0202702
-0.019352
-0.0184672
-0.0176145
-0.0167928
-0.0160011
-0.0152382
-0.0145031
-0.0137947
-0.0131119
-0.0124536
-0.0118189
-0.0112066
-0.0106158
-0.0100454
-0.00949458
-0.00896225
-0.00844752
-0.00794945
-0.00746716
-0.00699975
-0.00654635
-0.00610613
-0.00567824
-0.0052619
-0.00485625
-0.00446059
-0.00407403
-0.00369602
-0.00332545
-0.00296219
-0.00260452
-0.00225331
-0.00190523
-0.00156379
-0.00122111
-0.000887589
-0.000542082
-0.000210507
-0.101213
-0.0995766
-0.097877
-0.09612
-0.0943108
-0.0924547
-0.0905571
-0.0886232
-0.0866583
-0.0846676
-0.082656
-0.0806285
-0.0785899
-0.0765447
-0.0744974
-0.0724522
-0.0704132
-0.0683841
-0.0663686
-0.0643699
-0.0623913
-0.0604356
-0.0585055
-0.0566034
-0.0547315
-0.0528917
-0.0510857
-0.0493152
-0.0475814
-0.0458854
-0.0442282
-0.0426104
-0.0410326
-0.0394953
-0.0379986
-0.0365427
-0.0351276
-0.033753
-0.0324188
-0.0311246
-0.0298699
-0.0286542
-0.0274768
-0.0263371
-0.0252344
-0.0241678
-0.0231366
-0.0221398
-0.0211766
-0.020246
-0.0193471
-0.018479
-0.0176406
-0.0168309
-0.0160491
-0.015294
-0.0145648
-0.0138604
-0.0131799
-0.0125223
-0.0118866
-0.0112719
-0.0106773
-0.0101018
-0.00954453
-0.00900462
-0.00848118
-0.00797333
-0.00748023
-0.00700103
-0.00653493
-0.00608109
-0.00563876
-0.0052071
-0.00478543
-0.00437285
-0.00396883
-0.00357228
-0.00318306
-0.00279946
-0.00242238
-0.00204842
-0.00168122
-0.00131268
-0.000953567
-0.000582011
-0.000224914
-0.0988376
-0.0973223
-0.095746
-0.0941136
-0.09243
-0.0907
-0.0889286
-0.0871206
-0.0852808
-0.0834139
-0.0815246
-0.0796174
-0.0776968
-0.0757669
-0.073832
-0.0718959
-0.0699625
-0.0680353
-0.0661178
-0.064213
-0.0623241
-0.0604537
-0.0586044
-0.0567787
-0.0549786
-0.0532061
-0.051463
-0.0497508
-0.0480709
-0.0464244
-0.0448123
-0.0432355
-0.0416947
-0.0401903
-0.0387228
-0.0372925
-0.0358993
-0.0345433
-0.0332244
-0.0319425
-0.0306971
-0.0294879
-0.0283146
-0.0271764
-0.0260729
-0.0250034
-0.0239672
-0.0229637
-0.0219919
-0.0210512
-0.0201407
-0.0192595
-0.0184069
-0.0175819
-0.0167836
-0.0160112
-0.0152638
-0.0145405
-0.0138403
-0.0131624
-0.0125059
-0.0118699
-0.0112536
-0.010656
-0.0100764
-0.00951379
-0.00896743
-0.00843646
-0.00792007
-0.00741745
-0.00692782
-0.00645036
-0.00598433
-0.00552893
-0.00508348
-0.0046471
-0.00421928
-0.00379891
-0.0033859
-0.00297851
-0.00257768
-0.00217995
-0.0017891
-0.00139679
-0.00101416
-0.000618669
-0.000238113
-0.0966996
-0.0952911
-0.0938233
-0.0923007
-0.0907278
-0.089109
-0.0874489
-0.085752
-0.0840226
-0.0822652
-0.0804841
-0.0786834
-0.0768673
-0.0750398
-0.0732047
-0.0713657
-0.0695264
-0.0676902
-0.0658602
-0.0640395
-0.062231
-0.0604373
-0.058661
-0.0569042
-0.0551692
-0.0534578
-0.0517719
-0.0501129
-0.0484823
-0.0468813
-0.045311
-0.0437723
-0.0422659
-0.0407925
-0.0393526
-0.0379464
-0.0365744
-0.0352365
-0.0339327
-0.0326632
-0.0314275
-0.0302256
-0.0290571
-0.0279215
-0.0268186
-0.0257476
-0.0247081
-0.0236994
-0.022721
-0.0217721
-0.020852
-0.01996
-0.0190954
-0.0182573
-0.0174449
-0.0166575
-0.0158943
-0.0151543
-0.0144369
-0.0137412
-0.0130663
-0.0124114
-0.0117758
-0.0111585
-0.0105589
-0.00997596
-0.00940904
-0.00885729
-0.00831993
-0.00779618
-0.00728528
-0.00678646
-0.00629898
-0.00582205
-0.00535502
-0.00489702
-0.00444755
-0.00400553
-0.00357085
-0.00314178
-0.00271931
-0.00229992
-0.00188748
-0.0014735
-0.0010694
-0.000652085
-0.00025012
-0.0934732
-0.0921005
-0.0906742
-0.0891983
-0.087677
-0.0861146
-0.0845152
-0.0828828
-0.0812217
-0.0795357
-0.0778289
-0.076105
-0.0743678
-0.0726209
-0.0708678
-0.0691119
-0.0673563
-0.0656041
-0.0638582
-0.0621214
-0.0603962
-0.058685
-0.0569901
-0.0553135
-0.0536572
-0.0520229
-0.0504121
-0.0488263
-0.0472668
-0.0457347
-0.0442309
-0.0427562
-0.0413115
-0.0398972
-0.0385138
-0.0371616
-0.035841
-0.0345519
-0.0332945
-0.0320686
-0.0308742
-0.0297111
-0.0285789
-0.0274773
-0.026406
-0.0253644
-0.0243521
-0.0233686
-0.0224131
-0.0214853
-0.0205843
-0.0197095
-0.0188603
-0.0180359
-0.0172356
-0.0164586
-0.0157043
-0.0149718