/*--------------------------------*- C++ -*----------------------------------*\
  =========                 |
  \\      /  F ield         | OpenFOAM: The Open Source CFD Toolbox
   \\    /   O peration     | Website:  https://openfoam.org
    \\  /    A nd           | Version:  7
     \\/     M anipulation  |
\*---------------------------------------------------------------------------*/
FoamFile
{
    version     2.0;
    format      ascii;
    class       surfaceScalarField;
    location    "15";
    object      phi;
}
// * * * * * * * * * * * * * * * * * * * * * * * * * * * * * * * * * * * * * //

dimensions      [0 3 -1 0 0 0 0];

internalField   nonuniform List<scalar> 
6868
(
-0.00333787
-0.000182365
-0.00314066
-0.000197211
-0.00292925
-0.000211417
-0.00270464
-0.000224601
-0.00246781
-0.000236834
-0.00221972
-0.000248094
-0.00196142
-0.000258294
-0.00169406
-0.000267367
-0.00141882
-0.000275233
-0.00113698
-0.000281845
-0.000849376
-0.000287604
-0.00055781
-0.000291566
-0.000263445
-0.000294366
3.25413e-05
-0.000295987
0.000328995
-0.000296454
0.000624851
-0.000295857
0.000919072
-0.000294221
0.00121069
-0.000291618
0.00149882
-0.00028813
0.00178266
-0.000283845
0.00206151
-0.000278852
0.00233476
-0.000273243
0.00260186
-0.000267108
0.0028624
-0.000260536
0.00311601
-0.00025361
0.00336242
-0.000246411
0.00360143
-0.000239013
0.00383291
-0.000231482
0.00405679
-0.00022388
0.00427306
-0.000216263
0.00448174
-0.00020868
0.00468291
-0.000201172
0.00487668
-0.000193774
0.00506319
-0.000186504
0.00524257
-0.000179387
0.00541502
-0.000172445
0.00558071
-0.000165694
0.00573986
-0.000159147
0.00589267
-0.000152813
0.00603937
-0.000146695
0.00618017
-0.000140799
0.00631529
-0.000135124
0.00644496
-0.000129671
0.0065694
-0.000124436
0.00668881
-0.000119417
0.00680342
-0.000114608
0.00691343
-0.000110005
0.00701903
-0.000105601
0.00712042
-0.00010139
0.00721778
-9.73643e-05
0.0073113
-9.35177e-05
0.00740115
-8.98429e-05
0.00748748
-8.63326e-05
0.00757046
-8.29799e-05
0.00765024
-7.97777e-05
0.00772696
-7.67192e-05
0.00780075
-7.37978e-05
0.00787176
-7.1007e-05
0.0079401
-6.83407e-05
0.0080059
-6.57928e-05
0.00806925
-6.33576e-05
0.00813028
-6.10297e-05
0.00818909
-5.8804e-05
0.00824576
-5.66754e-05
0.0083004
-5.46392e-05
0.00835309
-5.26912e-05
0.00840392
-5.08269e-05
0.00845296
-4.90426e-05
0.0085003
-4.73343e-05
0.008546
-4.56986e-05
0.00859013
-4.4132e-05
0.00863276
-4.26312e-05
0.00867395
-4.1193e-05
0.00871377
-3.98146e-05
0.00875226
-3.84928e-05
0.00878948
-3.7225e-05
0.00882549
-3.60082e-05
0.00886033
-3.48405e-05
0.00889405
-3.37182e-05
0.00892669
-3.26412e-05
0.0089583
-3.16035e-05
0.00898891
-3.06101e-05
0.00901855
-2.9647e-05
0.00904729
-2.87341e-05
0.00907512
-2.78317e-05
0.00910212
-2.70056e-05
0.00912826
-2.61357e-05
4.50874e-11
0.00915369
-2.5426e-05
4.50958e-11
0.0091782
-2.45186e-05
4.83349e-11
0.00920222
-2.40195e-05
5.22847e-11
-2.2924e-05
5.52974e-11
-0.00219868
-0.000361696
-0.0020058
-0.000390098
-0.00180006
-0.000417151
-0.0015821
-0.000442568
-0.00135317
-0.000465754
-0.00111418
-0.000487085
-0.00086611
-0.000506368
-0.00061001
-0.000523467
-0.000346943
-0.0005383
-7.80361e-05
-0.000550751
0.000194384
-0.000560025
0.000470142
-0.000567323
0.000748087
-0.000572311
0.00102705
-0.000574954
0.00130595
-0.000575347
0.00158369
-0.000573598
0.0018593
-0.000569829
0.00213187
-0.00056419
0.00240059
-0.000556846
0.00266471
-0.000547973
0.00292362
-0.000537753
0.00317674
-0.000526368
0.00342363
-0.000513996
0.00366391
-0.000500812
0.00389728
-0.000486982
0.00412353
-0.000472661
0.00434251
-0.000457992
0.00455413
-0.000443106
0.00475837
-0.000428122
0.00495525
-0.000413143
0.00514483
-0.000398262
0.00532722
-0.000383559
0.00550255
-0.0003691
0.00567098
-0.000354937
0.0058327
-0.000341103
0.00598788
-0.000327628
0.00613673
-0.000314544
0.00627945
-0.000301872
0.00641627
-0.000289628
0.0065474
-0.000277822
0.00667305
-0.000266457
0.00679346
-0.000255534
0.00690884
-0.000245051
0.00701941
-0.000235001
0.00712537
-0.000225376
0.00722693
-0.000216166
0.00732428
-0.000207359
0.00741762
-0.000198943
0.00750714
-0.000190904
0.007593
-0.000183227
0.00767538
-0.000175899
0.00775444
-0.000168905
0.00783034
-0.000162231
0.00790322
-0.000155862
0.00797323
-0.000149785
0.0080405
-0.000143986
0.00810515
-0.000138451
0.00816731
-0.000133168
0.0082271
-0.000128125
0.00828461
-0.00012331
0.00833997
-0.000118711
0.00839326
-0.000114318
0.00844457
-0.000110121
0.00849401
-0.00010611
0.00854165
-0.000102276
0.00858756
-9.86101e-05
0.00863184
-9.51044e-05
0.00867455
-9.17512e-05
0.00871576
-8.85431e-05
0.00875553
-8.54733e-05
0.00879394
-8.25351e-05
0.00883103
-7.97224e-05
0.00886686
-7.7029e-05
0.0089015
-7.44491e-05
0.00893498
-7.19771e-05
0.00896737
-6.96077e-05
0.00899869
-6.73352e-05
0.00902901
-6.51557e-05
0.00905835
-6.30622e-05
0.00908677
-6.10544e-05
0.00911428
-5.91209e-05
0.00914094
-5.72711e-05
0.00916678
-5.54782e-05
0.00919182
-5.37805e-05
0.00921609
-5.21027e-05
0.00923966
-5.05693e-05
0.00926248
-4.89562e-05
0.00928469
-4.76425e-05
0.00930615
-4.59713e-05
0.00932718
-4.5051e-05
-4.3052e-05
-0.000312174
-0.000129311
-0.000572961
6.3864e-05
-0.000610326
0.000266018
-0.000644723
0.000477375
-0.00067711
0.000697092
-0.000706803
0.000924245
-0.000733521
0.00115783
-0.000757052
0.00139676
-0.000777234
0.00163991
-0.000793892
0.00188661
-0.000806732
0.00213544
-0.000816153
0.0023853
-0.000822164
0.00263514
-0.000824795
0.00288397
-0.000824177
0.00313085
-0.000820481
0.00337493
-0.000813906
0.00361542
-0.00080468
0.00385162
-0.000793049
0.00408292
-0.000779276
0.00430879
-0.000763626
0.0045288
-0.000746369
0.00474257
-0.000727767
0.00494983
-0.000708072
0.00515037
-0.000687526
0.00534406
-0.000666352
0.00553083
-0.000644756
0.00571064
-0.000622924
0.00588355
-0.000601023
0.0060496
-0.000579199
0.00620892
-0.000557581
0.00636164
-0.000536276
0.00650791
-0.000515376
0.00664793
-0.000494955
0.0067819
-0.000475071
0.00691003
-0.000455762
0.00703254
-0.000437048
0.00714962
-0.000418956
0.0072615
-0.000401505
0.00736838
-0.000384708
0.00747049
-0.000368566
0.00756804
-0.000353079
0.00766123
-0.000338239
0.00775026
-0.000324036
0.00783534
-0.000310455
0.00791665
-0.00029748
0.00799439
-0.000285092
0.00806871
-0.00027327
0.0081398
-0.000261995
0.00820782
-0.000251244
0.00827292
-0.000240995
0.00833524
-0.000231227
0.00839493
-0.000221918
0.00845211
-0.000213047
0.00850692
-0.000204592
0.00855947
-0.000196535
0.00860987
-0.000188855
0.00865824
-0.000181534
0.00870466
-0.000174554
0.00874925
-0.000167896
0.00879209
-0.000161546
0.00883325
-0.000155487
0.00887284
-0.000149705
0.00891091
-0.000144185
0.00894755
-0.000138914
0.00898282
-0.00013388
0.00901679
-0.000129071
0.00904951
-0.000124477
0.00908106
-0.000120086
0.00911147
-0.000115889
0.00914081
-0.000111877
0.00916913
-0.000108041
0.00919648
-0.000104372
0.00922289
-0.000100862
0.00924841
-9.75027e-05
0.00927309
-9.42873e-05
0.00929697
-9.1207e-05
0.00932007
-8.82565e-05
0.00934243
-8.54257e-05
0.00936409
-8.27139e-05
0.00938507
-8.01047e-05
0.00940541
-7.76113e-05
0.00942513
-7.51964e-05
0.00944426
-7.29129e-05
0.00946282
-7.06582e-05
0.00948085
-6.86009e-05
0.00949834
-6.64433e-05
0.00951538
-6.46879e-05
0.00953189
-6.24771e-05
0.00954809
-6.12541e-05
-5.86451e-05
0.0019935
-0.000736753
0.00216577
-0.000782592
0.00234635
-0.000825303
0.00253408
-0.000864838
0.00272812
-0.000900847
0.00292761
-0.000933013
0.00313164
-0.000961081
0.00333926
-0.000984858
0.00354957
-0.0010042
0.00376185
-0.00101901
0.00397505
-0.00102935
0.00418819
-0.00103531
0.0044004
-0.001037
0.00461084
-0.00103462
0.00481875
-0.00102839
0.00502342
-0.00101858
0.00522424
-0.0010055
0.00542065
-0.000989457
0.00561217
-0.000970804
0.00579843
-0.000949882
0.0059791
-0.000927035
0.00615393
-0.000902599
0.00632275
-0.000876895
0.00648545
-0.000850225
0.00664197
-0.000822871
0.0067923
-0.000795088
0.00693648
-0.000767107
0.00707459
-0.000739131
0.00720673
-0.00071134
0.00733304
-0.000683887
0.00745366
-0.000656901
0.00756878
-0.00063049
0.00767856
-0.00060474
0.00778321
-0.000579721
0.00788294
-0.000555483
0.00797794
-0.000532056
0.00806844
-0.000509449
0.00815461
-0.000487675
0.00823664
-0.000466743
0.00831473
-0.000446658
0.00838907
-0.000427413
0.00845983
-0.000408998
0.00852719
-0.000391397
0.00859132
-0.000374589
0.00865239
-0.000358553
0.00871056
-0.000343262
0.00876598
-0.000328689
0.00881879
-0.000314806
0.00886913
-0.000301586
0.00891714
-0.000288999
0.00896293
-0.000277017
0.00900662
-0.000265613
0.00904833
-0.000254759
0.00908817
-0.000244428
0.00912623
-0.000234594
0.00916261
-0.000225232
0.00919739
-0.000216319
0.00923067
-0.000207832
0.00926252
-0.000199747
0.00929302
-0.000192046
0.00932224
-0.000184707
0.00935024
-0.000177711
0.0093771
-0.000171042
0.00940287
-0.000164682
0.0094276
-0.000158615
0.00945136
-0.000152827
0.00947419
-0.000147304
0.00949613
-0.000142033
0.00951725
-0.000137002
0.00953757
-0.0001322
0.00955714
-0.000127615
0.00957601
-0.000123237
0.00959421
-0.000119057
0.00961177
-0.000115063
0.00962873
-0.000111247
0.00964512
-0.000107598
0.00966097
-0.000104109
0.00967631
-0.000100768
0.00969117
-9.7572e-05
0.00970557
-9.45019e-05
0.00971953
-9.15725e-05
0.00973307
-8.87392e-05
0.00974622
-8.60636e-05
0.00975899
-8.34271e-05
0.00977141
-8.10235e-05
0.00978348
-7.8516e-05
0.00979527
-7.64735e-05
0.00980673
-7.39386e-05
0.009818
-7.25241e-05
-6.95772e-05
0.00405487
-0.000877201
0.00420135
-0.00092908
0.00435352
-0.000977464
0.00451063
-0.00102196
0.00467198
-0.00106219
0.0048368
-0.00109784
0.00500434
-0.00112862
0.00517382
-0.00115434
0.00534451
-0.00117489
0.00551569
-0.00119019
0.00568663
-0.00120029
0.00585661
-0.00120529
0.00602497
-0.00120536
0.00619108
-0.00120073
0.0063544
-0.00119171
0.00651443
-0.00117861
0.00667075
-0.00116181
0.00682298
-0.00114169
0.00697085
-0.00111867
0.00711411
-0.00109314
0.00725259
-0.00106552
0.00738617
-0.00103618
0.00751479
-0.00100552
0.00763843
-0.000973857
0.00775708
-0.000941526
0.00787081
-0.000908813
0.00797967
-0.000875976
0.00808378
-0.00084324
0.00818325
-0.000810804
0.00827819
-0.000778834
0.00836876
-0.00074747
0.0084551
-0.000716828
0.00853736
-0.000687
0.0086157
-0.000658058
0.00869027
-0.000630054
0.00876124
-0.000603026
0.00882878
-0.000576989
0.00889304
-0.000551936
0.00895416
-0.000527868
0.00901229
-0.000504784
0.00906756
-0.000482678
0.00912009
-0.000461536
0.00917004
-0.000441341
0.00921752
-0.000422066
0.00926265
-0.000403686
0.00930556
-0.000386169
0.00934635
-0.000369484
0.00938514
-0.000353598
0.00942204
-0.000338478
0.00945713
-0.000324091
0.00949051
-0.000310404
0.00952229
-0.000297384
0.00955253
-0.000285
0.00958132
-0.000273221
0.00960874
-0.000262017
0.00963487
-0.00025136
0.00965977
-0.000241221
0.00968351
-0.000231574
0.00970616
-0.000222393
0.00972777
-0.000213655
0.0097484
-0.000205336
0.0097681
-0.000197415
0.00978693
-0.00018987
0.00980493
-0.000182682
0.00982215
-0.000175833
0.00983863
-0.000169306
0.00985441
-0.000163085
0.00986953
-0.000157155
0.00988403
-0.000151503
0.00989794
-0.000146115
0.00991131
-0.000140979
0.00992415
-0.000136084
0.00993651
-0.000131417
0.00994842
-0.000126969
0.0099599
-0.000122727
0.00997098
-0.00011868
0.00998169
-0.00011482
0.00999206
-0.000111131
0.0100021
-0.00010761
0.0100118
-0.000104234
0.0100213
-0.000101019
0.0100304
-9.7915e-05
0.0100394
-9.49865e-05
0.0100481
-9.2109e-05
0.0100565
-8.94849e-05
0.0100648
-8.67649e-05
0.0100728
-8.45422e-05
0.0100807
-8.18264e-05
0.0100885
-8.02952e-05
-7.7177e-05
0.00589915
0.0060138
-0.00104374
0.0061316
-0.00109526
0.00625206
-0.00114242
0.00637466
-0.00118479
0.00649887
-0.00122204
0.00662408
-0.00125384
0.00674973
-0.00127999
0.00687526
-0.00130042
0.00700018
-0.00131511
0.007124
-0.00132412
0.00724628
-0.00132757
0.0073666
-0.00132568
0.00748462
-0.00131875
0.00760003
-0.00130712
0.00771259
-0.00129117
0.00782211
-0.00127133
0.00792843
-0.00124802
0.00803146
-0.00122169
0.00813112
-0.0011928
0.00822738
-0.00116178
0.00832025
-0.00112905
0.00840973
-0.001095
0.00849588
-0.00106
0.00857874
-0.00102439
0.00865838
-0.000988457
0.00873488
-0.000952477
0.00880832
-0.000916681
0.00887879
-0.000881268
0.00894636
-0.00084641
0.00901114
-0.000812246
0.00907321
-0.000778893
0.00913265
-0.000746443
0.00918956
-0.000714966
0.00924402
-0.000684514
0.00929612
-0.000655125
0.00934594
-0.000626818
0.0093936
-0.000599596
0.00943918
-0.00057344
0.00948273
-0.00054834
0.00952434
-0.000524289
0.00956408
-0.000501275
0.00960202
-0.000479279
0.00963823
-0.000458277
0.00967279
-0.00043824
0.00970575
-0.000419137
0.0097372
-0.000400934
0.0097672
-0.000383596
0.00979581
-0.000367088
0.0098231
-0.000351376
0.00984912
-0.000336424
0.00987393
-0.000322197
0.00989759
-0.000308663
0.00992016
-0.000295789
0.00994169
-0.000283543
0.00996222
-0.000271894
0.00998181
-0.000260813
0.0100005
-0.000250272
0.0100184
-0.000240242
0.0100354
-0.000230699
0.0100517
-0.000221616
0.0100672
-0.000212971
0.0100821
-0.000204741
0.0100963
-0.000196904
0.0101099
-0.000189441
0.010123
-0.000182333
0.0101354
-0.000175563
0.0101474
-0.000169114
0.0101589
-0.000162973
0.0101699
-0.000157126
0.0101805
-0.000151558
0.0101906
-0.000146259
0.0102004
-0.000141217
0.0102099
-0.000136418
0.010219
-0.000131852
0.0102278
-0.000127506
0.0102364
-0.00012337
0.0102447
-0.000119427
0.0102528
-0.000115672
0.0102606
-0.000112081
0.0102682
-0.000108665
0.0102757
-0.000105376
0.010283
-0.000102274
0.0102901
-9.92334e-05
0.0102971
-9.64582e-05
0.0103039
-9.35953e-05
0.0103106
-9.12485e-05
0.0103172
-8.84107e-05
0.0103237
-8.68003e-05
-8.35609e-05
0.00752261
0.00759934
-0.00117199
0.00767683
-0.0012199
0.00775481
-0.00126278
0.00783294
-0.00130017
0.00791085
-0.00133174
0.0079882
-0.00135734
0.00806473
-0.00137695
0.00814021
-0.00139059
0.00821443
-0.00139834
0.00828721
-0.00140035
0.00835844
-0.0013969
0.00842801
-0.00138832
0.0084959
-0.001375
0.00856209
-0.00135737
0.0086266
-0.00133584
0.00868946
-0.00131088
0.00875072
-0.00128295
0.00881042
-0.00125251
0.00886863
-0.00121999
0.00892539
-0.00118581
0.00898075
-0.00115037
0.00903477
-0.00111402
0.00908747
-0.00107709
0.00913889
-0.00103988
0.00918905
-0.00100264
0.00923796
-0.000965596
0.00928565
-0.000928953
0.00933211
-0.00089287
0.00937735
-0.000857486
0.00942137
-0.000822914
0.00946417
-0.000789246
0.00950576
-0.000756552
0.00954613
-0.000724884
0.00958529
-0.000694281
0.00962324
-0.000664768
0.00965999
-0.000636353
0.00969558
-0.000609029
0.00973001
-0.000582769
0.00976329
-0.000557568
0.00979543
-0.000533416
0.00982645
-0.000510298
0.00985637
-0.000488194
0.00988521
-0.000467078
0.00991299
-0.00044692
0.00993974
-0.000427688
0.0099655
-0.000409349
0.00999028
-0.000391869
0.0100141
-0.000375213
0.010037
-0.000359349
0.0100591
-0.000344241
0.0100803
-0.000329856
0.0101006
-0.000316162
0.0101202
-0.000303128
0.0101391
-0.000290721
0.0101572
-0.000278913
0.0101746
-0.000267675
0.0101913
-0.000256979
0.0102074
-0.000246798
0.0102229
-0.000237108
0.0102378
-0.000227883
0.0102522
-0.0002191
0.010266
-0.000210737
0.0102793
-0.000202773
0.0102922
-0.000195189
0.0103046
-0.000187966
0.0103166
-0.000181089
0.0103281
-0.000174541
0.0103393
-0.00016831
0.0103501
-0.000162381
0.0103606
-0.000156744
0.0103708
-0.000151385
0.0103807
-0.000146294
0.0103903
-0.000141458
0.0103996
-0.000136865
0.0104088
-0.000132502
0.0104177
-0.000128354
0.0104264
-0.000124412
0.010435
-0.000120651
0.0104434
-0.000117079
0.0104517
-0.000113646
0.0104598
-0.00011041
0.0104678
-0.000107242
0.0104757
-0.000104349
0.0104835
-0.000101366
0.0104912
-9.89193e-05
0.0104987
-9.59607e-05
0.0105062
-9.42852e-05
-9.09032e-05
0.00869465
-0.00120351
0.00872551
-0.00125076
0.00875565
-0.00129291
0.00878508
-0.00132961
0.00881391
-0.00136056
0.00884214
-0.00138558
0.00886984
-0.00140464
0.00889706
-0.00141781
0.00892389
-0.00142517
0.00895042
-0.00142688
0.00897673
-0.00142321
0.00900295
-0.00141454
0.00902922
-0.00140128
0.00905568
-0.00138383
0.00908245
-0.00136261
0.00910964
-0.00133807
0.00913734
-0.00131065
0.00916561
-0.00128078
0.0091945
-0.00124888
0.00922403
-0.00121533
0.00925418
-0.00118052
0.00928493
-0.00114477
0.00931623
-0.00110839
0.00934803
-0.00107167
0.00938024
-0.00103485
0.00941278
-0.000998139
0.00944557
-0.000961738
0.0094785
-0.000925805
0.0095115
-0.000890478
0.00954445
-0.000855872
0.00957729
-0.000822082
0.00960992
-0.000789183
0.00964227
-0.000757233
0.00967427
-0.000726278
0.00970585
-0.000696347
0.00973695
-0.000667458
0.00976754
-0.000639619
0.00979759
-0.000612818
0.00982706
-0.00058704
0.00985593
-0.000562283
0.00988417
-0.000538536
0.00991176
-0.000515784
0.00993868
-0.000494006
0.00996494
-0.000473179
0.00999053
-0.000453272
0.0100154
-0.000434256
0.0100397
-0.000416102
0.0100632
-0.000398778
0.0100861
-0.000382254
0.0101084
-0.000366498
0.01013
-0.000351478
0.010151
-0.000337164
0.0101714
-0.000323524
0.0101912
-0.00031053
0.0102105
-0.000298151
0.0102291
-0.000286361
0.0102473
-0.000275132
0.0102649
-0.000264438
0.0102821
-0.000254252
0.0102988
-0.000244552
0.010315
-0.000235313
0.0103307
-0.000226513
0.0103461
-0.00021813
0.0103611
-0.000210145
0.0103756
-0.000202539
0.0103898
-0.000195295
0.0104037
-0.000188398
0.0104172
-0.000181835
0.0104304
-0.000175593
0.0104433
-0.000169659
0.010456
-0.000164024
0.0104684
-0.000158675
0.0104805
-0.000153602
0.0104924
-0.000148792
0.0105042
-0.000144232
0.0105157
-0.000139905
0.0105271
-0.000135802
0.0105384
-0.000131896
0.0105495
-0.000128193
0.0105605
-0.000124638
0.0105713
-0.000121289
0.0105821
-0.00011801
0.0105928
-0.000115016
0.0106033
-0.000111918
0.0106138
-0.000109383
0.0106241
-0.000106285
0.0106344
-0.000104548
-0.000100975
0.00935681
0.00934425
-0.0012382
0.00933094
-0.00127961
0.00931713
-0.0013158
0.00930318
-0.0013466
0.00928954
-0.00137194
0.0092766
-0.00139171
0.00926466
-0.00140587
0.00925397
-0.00141448
0.00924477
-0.00141768
0.00923728
-0.00141572
0.00923173
-0.00140899
0.00922833
-0.00139787
0.00922722
-0.00138272
0.00922851
-0.0013639
0.00923227
-0.00134183
0.00923852
-0.00131689
0.00924722
-0.00128949
0.00925834
-0.00125999
0.00927177
-0.00122877
0.0092874
-0.00119615
0.00930509
-0.00116246
0.00932468
-0.00112798
0.009346
-0.00109299
0.00936889
-0.00105773
0.00939315
-0.0010224
0.00941861
-0.000987204
0.00944511
-0.000952301
0.00947247
-0.000917838
0.00950054
-0.000883938
0.00952916
-0.000850704
0.0095582
-0.000818224
0.00958753
-0.000786566
0.00961704
-0.000755786
0.00964662
-0.000725926
0.00967617
-0.000697014
0.00970562
-0.000669067
0.0097349
-0.000642091
0.00976394
-0.000616088
0.00979272
-0.000591055
0.00982117
-0.000566989
0.00984926
-0.000543878
0.00987697
-0.000521711
0.00990426
-0.000500468
0.00993111
-0.000480126
0.00995751
-0.000460653
0.00998343
-0.000442026
0.0100089
-0.000424219
0.0100338
-0.000407206
0.0100583
-0.000390959
0.0100823
-0.000375451
0.0101057
-0.000360651
0.0101288
-0.000346533
0.0101513
-0.000333067
0.0101734
-0.000320227
0.010195
-0.000307986
0.0102162
-0.000296318
0.0102369
-0.000285198
0.0102573
-0.0002746
0.0102772
-0.0002645
0.0102968
-0.000254876
0.010316
-0.000245704
0.0103348
-0.000236964
0.0103533
-0.000228634
0.0103715
-0.000220697
0.0103893
-0.000213135
0.0104068
-0.000205934
0.0104241
-0.000199079
0.0104411
-0.000192559
0.0104578
-0.000186362
0.0104742
-0.00018048
0.0104904
-0.0001749
0.0105065
-0.000169614
0.0105223
-0.000164608
0.0105379
-0.000159871
0.0105534
-0.000155385
0.0105687
-0.00015114
0.0105839
-0.000147106
0.010599
-0.000143289
0.010614
-0.000139627
0.0106289
-0.000136182
0.0106437
-0.000132801
0.0106584
-0.00012972
0.010673
-0.000126506
0.0106875
-0.000123894
0.0107019
-0.000120643
0.0107162
-0.000118854
-0.000115038
0.0095601
-0.00119339
0.0095156
-0.00123511
0.00947175
-0.00127196
0.00942892
-0.00130377
0.00938743
-0.00133046
0.00934772
-0.00135199
0.00931023
-0.00136838
0.00927546
-0.00137971
0.00924389
-0.00138611
0.00921596
-0.00138779
0.00919191
-0.00138494
0.00917185
-0.00137781
0.00915585
-0.00136671
0.00914391
-0.00135196
0.00913597
-0.00133389
0.00913193
-0.00131285
0.00913164
-0.0012892
0.00913493
-0.00126328
0.00914158
-0.00123541
0.00915137
-0.00120594
0.00916406
-0.00117515
0.00917941
-0.00114333
0.00919717
-0.00111076
0.0092171
-0.00107766
0.00923897
-0.00104427
0.00926254
-0.00101078
0.0092876
-0.000977363
0.00931395
-0.000944185
0.00934139
-0.000911377
0.00936974
-0.000879059
0.00939885
-0.00084733
0.00942856
-0.000816274
0.00945873
-0.00078596
0.00948925
-0.000756444
0.00952
-0.000727767
0.0095509
-0.000699961
0.00958185
-0.000673042
0.00961278
-0.000647023
0.00964364
-0.000621911
0.00967436
-0.000597708
0.00970489
-0.00057441
0.00973519
-0.00055201
0.00976522
-0.000530495
0.00979494
-0.000509847
0.00982433
-0.000490046
0.00985338
-0.000471074
0.00988207
-0.000452909
0.00991039
-0.000435528
0.00993834
-0.000418905
0.0099659
-0.000403015
0.00999308
-0.000387832
0.0100199
-0.000373329
0.0100463
-0.00035948
0.0100723
-0.00034626
0.010098
-0.000333644
0.0101233
-0.000321607
0.0101482
-0.000310125
0.0101728
-0.000299175
0.010197
-0.000288732
0.0102209
-0.000278775
0.0102445
-0.000269281
0.0102677
-0.000260229
0.0102907
-0.000251598
0.0103134
-0.000243369
0.0103358
-0.000235526
0.0103579
-0.000228053
0.0103798
-0.000220938
0.0104014
-0.000214168
0.0104227
-0.000207734
0.0104439
-0.000201627
0.0104648
-0.000195837
0.0104856
-0.000190356
0.0105061
-0.000185171
0.0105265
-0.000180272
0.0105468
-0.000175641
0.0105669
-0.000171267
0.0105869
-0.000167118
0.0106068
-0.000163198
0.0106266
-0.00015944
0.0106464
-0.00015591
0.010666
-0.000152436
0.0106856
-0.000149278
0.010705
-0.000145951
0.0107244
-0.000143267
0.0107436
-0.000139852
0.0107627
-0.000138017
-0.000133994
0.015664
-0.00111451
0.015581
-0.00115208
0.0154944
-0.00118532
0.0154047
-0.0012141
0.0153126
-0.00123836
0.0152187
-0.00125808
0.0151236
-0.00127329
0.015028
-0.00128406
0.0149324
-0.00129051
0.0148374
-0.00129282
0.0147436
-0.00129119
0.0146516
-0.00128582
0.0145619
-0.00127695
0.0144747
-0.00126483
0.0143906
-0.00124976
0.0143098
-0.00123201
0.0142324
-0.00121187
0.0141588
-0.00118964
0.014089
-0.00116559
0.014023
-0.00114
0.013961
-0.00111313
0.0139029
-0.00108522
0.0138487
-0.00105651
0.0137982
-0.0010272
0.0137514
-0.000997501
0.0137082
-0.000967584
0.0136685
-0.000937609
0.013632
-0.000907722
0.0135987
-0.000878048
0.0135683
-0.000848699
0.0135408
-0.000819769
0.0135158
-0.000791344
0.0134934
-0.000763491
0.0134732
-0.000736269
0.0134552
-0.000709722
0.0134391
-0.000683885
0.0134248
-0.000658785
0.0134122
-0.00063444
0.0134012
-0.000610866
0.0133916
-0.000588069
0.0133832
-0.000566054
0.013376
-0.000544819
0.0133699
-0.000524359
0.0133647
-0.000504665
0.0133604
-0.000485727
0.0133568
-0.000467528
0.013354
-0.000450055
0.0133517
-0.000433288
0.01335
-0.000417208
0.0133488
-0.000401796
0.013348
-0.000387032
0.0133476
-0.000372893
0.0133475
-0.00035936
0.0133476
-0.000346411
0.013348
-0.000334028
0.0133486
-0.000322188
0.0133493
-0.000310872
0.0133502
-0.000300061
0.0133512
-0.000289733
0.0133523
-0.000279869
0.0133535
-0.000270449
0.0133547
-0.000261454
0.013356
-0.000252865
0.0133573
-0.000244665
0.0133586
-0.000236838
0.0133599
-0.000229372
0.0133612
-0.000222255
0.0133625
-0.000215476
0.0133638
-0.000209029
0.0133651
-0.000202906
0.0133664
-0.0001971
0.0133676
-0.000191605
0.0133688
-0.00018641
0.0133701
-0.000181506
0.0133713
-0.000176876
0.0133726
-0.000172509
0.0133738
-0.00016837
0.0133751
-0.000164466
0.0133764
-0.000160721
0.0133776
-0.000157208
0.0133789
-0.000153733
0.0133803
-0.000150583
0.0133815
-0.000147216
0.0133828
-0.000144529
0.0133839
-0.000141007
0.0133851
-0.00013917
-0.000134963
0.0159547
-0.00102268
0.0158597
-0.00105703
0.0157619
-0.00108757
0.015662
-0.00111421
0.0155606
-0.00113689
0.0154581
-0.00115561
0.0153552
-0.00117038
0.0152524
-0.00118129
0.0151503
-0.00118842
0.0150495
-0.00119192
0.0149502
-0.00119195
0.0148531
-0.00118867
0.0147584
-0.00118228
0.0146666
-0.00117301
0.0145779
-0.00116107
0.0144926
-0.0011467
0.0144108
-0.00113014
0.0143328
-0.00111164
0.0142587
-0.00109143
0.0141884
-0.00106974
0.0141221
-0.00104678
0.0140596
-0.00102278
0.0140011
-0.000997933
0.0139463
-0.00097242
0.0138952
-0.000946417
0.0138477
-0.000920083
0.0138036
-0.000893563
0.0137629
-0.000866989
0.0137253
-0.000840477
0.0136908
-0.000814133
0.0136591
-0.000788049
0.01363
-0.000762306
0.0136035
-0.000736973
0.0135793
-0.000712109
0.0135574
-0.000687762
0.0135375
-0.000663974
0.0135195
-0.000640777
0.0135032
-0.000618196
0.0134886
-0.000596252
0.0134755
-0.000574959
0.0134638
-0.000554327
0.0134533
-0.00053436
0.013444
-0.000515061
0.0134358
-0.000496428
0.0134285
-0.000478455
0.0134221
-0.000461134
0.0134165
-0.000444455
0.0134116
-0.000428406
0.0134074
-0.000412973
0.0134037
-0.000398143
0.0134006
-0.000383901
0.0133979
-0.000370229
0.0133957
-0.000357112
0.0133938
-0.000344535
0.0133923
-0.00033248
0.013391
-0.000320931
0.01339
-0.000309873
0.0133892
-0.000299288
0.0133887
-0.00028916
0.0133883
-0.000279471
0.013388
-0.000270203
0.0133879
-0.00026134
0.0133879
-0.000252865
0.013388
-0.000244762
0.0133882
-0.000237018
0.0133884
-0.000229621
0.0133887
-0.000222561
0.0133891
-0.00021583
0.0133895
-0.000209422
0.0133899
-0.000203333
0.0133904
-0.000197557
0.0133909
-0.00019209
0.0133914
-0.000186924
0.0133919
-0.00018205
0.0133925
-0.000177451
0.0133931
-0.000173118
0.0133937
-0.000169015
0.0133944
-0.000165148
0.0133951
-0.000161435
0.0133959
-0.000157955
0.0133966
-0.000154496
0.0133974
-0.000151366
0.0133982
-0.000147978
0.013399
-0.000145294
0.0133996
-0.000141687
0.0134003
-0.00013984
-0.000135399
0.0160032
-0.000932018
0.0159097
-0.000963532
0.0158138
-0.000991726
0.0157161
-0.00101653
0.0156171
-0.00103789
0.0155173
-0.00105581
0.0154173
-0.00107032
0.0153174
-0.00108145
0.0152183
-0.00108929
0.0151203
-0.00109395
0.0150239
-0.00109555
0.0149295
-0.00109423
0.0148374
-0.00109015
0.0147479
-0.0010835
0.0146612
-0.00107445
0.0145777
-0.00106319
0.0144975
-0.00104993
0.0144207
-0.00103486
0.0143475
-0.00101817
0.0142778
-0.00100006
0.0142117
-0.000980723
0.0141493
-0.00096033
0.0140904
-0.000939055
0.014035
-0.00091706
0.0139831
-0.000894499
0.0139345
-0.000871511
0.0138892
-0.000848228
0.013847
-0.00082477
0.0138078
-0.000801246
0.0137714
-0.000777755
0.0137377
-0.000754383
0.0137066
-0.000731211
0.0136779
-0.000708305
0.0136516
-0.000685727
0.0136273
-0.000663527
0.0136051
-0.00064175
0.0135848
-0.000620432
0.0135662
-0.000599604
0.0135492
-0.00057929
0.0135338
-0.00055951
0.0135197
-0.00054028
0.013507
-0.000521609
0.0134954
-0.000503505
0.0134849
-0.000485971
0.0134755
-0.000469008
0.013467
-0.000452613
0.0134593
-0.000436782
0.0134524
-0.000421509
0.0134462
-0.000406784
0.0134407
-0.000392598
0.0134357
-0.00037894
0.0134313
-0.000365799
0.0134273
-0.000353163
0.0134238
-0.00034102
0.0134207
-0.000329357
0.0134179
-0.000318163
0.0134155
-0.000307423
0.0134133
-0.000297125
0.0134114
-0.000287254
0.0134097
-0.000277795
0.0134083
-0.000268735
0.013407
-0.000260057
0.0134059
-0.000251746
0.0134049
-0.000243791
0.0134041
-0.000236177
0.0134033
-0.000228895
0.0134027
-0.000221936
0.0134022
-0.000215295
0.0134017
-0.000208967
0.0134013
-0.00020295
0.013401
-0.00019724
0.0134008
-0.000191835
0.0134006
-0.000186727
0.0134004
-0.00018191
0.0134003
-0.000177366
0.0134003
-0.000173089
0.0134003
-0.000169038
0.0134004
-0.000165224
0.0134005
-0.000161555
0.0134007
-0.000158119
0.0134009
-0.000154684
0.0134011
-0.000151582
0.0134013
-0.000148182
0.0134015
-0.000145505
0.0134016
-0.000141823
0.0134018
-0.000139967
-0.000135382
0.0159448
-0.000847673
0.0158579
-0.000876666
0.015769
-0.000902783
0.0156784
-0.000925959
0.0155867
-0.000946159
0.0154942
-0.000963372
0.0154015
-0.00097761
0.015309
-0.000988913
0.015217
-0.000997337
0.015126
-0.00100297
0.0150364
-0.00100589
0.0149484
-0.00100624
0.0148624
-0.00100413
0.0147786
-0.000999713
0.0146973
-0.000993127
0.0146186
-0.000984533
0.0145428
-0.000974092
0.0144699
-0.000961968
0.0144001
-0.000948325
0.0143333
-0.000933325
0.0142697
-0.000917127
0.0142093
-0.000899885
0.014152
-0.000881749
0.0140978
-0.00086286
0.0140466
-0.000843351
0.0139985
-0.00082335
0.0139532
-0.000802973
0.0139108
-0.000782331
0.013871
-0.000761523
0.0138339
-0.00074064
0.0137993
-0.000719767
0.0137671
-0.000698977
0.0137371
-0.000678338
0.0137093
-0.00065791
0.0136835
-0.000637743
0.0136596
-0.000617883
0.0136376
-0.00059837
0.0136172
-0.000579235
0.0135984
-0.000560509
0.0135811
-0.000542213
0.0135652
-0.000524366
0.0135506
-0.000506984
0.0135372
-0.000490078
0.0135249
-0.000473656
0.0135136
-0.000457723
0.0135032
-0.000442281
0.0134938
-0.00042733
0.0134851
-0.000412867
0.0134773
-0.000398889
0.01347
-0.000385389
0.0134635
-0.00037236
0.0134575
-0.000359796
0.013452
-0.000347687
0.013447
-0.000336026
0.0134424
-0.000324804
0.0134383
-0.000314012
0.0134345
-0.000303639
0.0134311
-0.000293674
0.0134279
-0.000284107
0.013425
-0.000274926
0.0134224
-0.000266117
0.01342
-0.000257667
0.0134178
-0.000249564
0.0134159
-0.000241796
0.013414
-0.000234352
0.0134124
-0.000227223
0.0134108
-0.000220403
0.0134094
-0.000213887
0.0134081
-0.000207674
0.0134069
-0.000201761
0.0134058
-0.000196148
0.0134048
-0.000190832
0.0134039
-0.000185808
0.0134031
-0.000181071
0.0134023
-0.000176604
0.0134016
-0.000172398
0.013401
-0.000168415
0.0134004
-0.000164664
0.0133999
-0.00016105
0.0133995
-0.000157664
0.0133991
-0.000154262
0.0133987
-0.000151192
0.0133983
-0.000147789
0.0133979
-0.000145123
0.0133975
-0.000141387
0.013397
-0.000139528
-0.00013481
0.0158541
-0.000771014
0.0157752
-0.000797756
0.0156944
-0.000821995
0.0156121
-0.000843676
0.0155287
-0.000862767
0.0154446
-0.000879255
0.0153601
-0.000893147
0.0152757
-0.000904468
0.0151916
-0.000913264
0.0151082
-0.000919598
0.0150259
-0.000923546
0.0149449
-0.000925201
0.0148654
-0.000924666
0.0147877
-0.000922053
0.0147121
-0.000917485
0.0146386
-0.00091109
0.0145676
-0.000903001
0.0144989
-0.000893354
0.0144329
-0.000882287
0.0143695
-0.000869937
0.0143088
-0.000856438
0.0142509
-0.000841922
0.0141956
-0.000826519
0.0141431
-0.00081035
0.0140933
-0.000793535
0.0140461
-0.000776184
0.0140016
-0.000758402
0.0139595