/*--------------------------------*- C++ -*----------------------------------*\
  =========                 |
  \\      /  F ield         | OpenFOAM: The Open Source CFD Toolbox
   \\    /   O peration     | Website:  https://openfoam.org
    \\  /    A nd           | Version:  7
     \\/     M anipulation  |
\*---------------------------------------------------------------------------*/
FoamFile
{
    version     2.0;
    format      ascii;
    class       volVectorField;
    location    "15";
    object      U;
}
// * * * * * * * * * * * * * * * * * * * * * * * * * * * * * * * * * * * * * //

dimensions      [0 1 -1 0 0 0 0];

internalField   nonuniform List<vector> 
3500
(
(-0.298398 -0.0132206 2.06283e-20)
(-0.282061 -0.0143153 -2.02366e-20)
(-0.264428 -0.0153571 8.61359e-21)
(-0.245578 -0.0163333 9.43743e-21)
(-0.225587 -0.017245 -1.57515e-20)
(-0.204537 -0.0180835 1.75188e-20)
(-0.182515 -0.0188419 -1.56423e-20)
(-0.159614 -0.0195152 1.7248e-20)
(-0.135938 -0.020099 -7.59321e-21)
(-0.111594 -0.0206006 -2.45295e-21)
(-0.0866546 -0.0210613 5.48886e-22)
(-0.0612545 -0.0213526 2.88851e-21)
(-0.0355316 -0.0215539 1.10481e-21)
(-0.00956528 -0.0216701 -4.5836e-22)
(0.0165492 -0.0217046 -2.94117e-21)
(0.0426971 -0.0216629 -1.26777e-22)
(0.0687805 -0.0215459 -2.88156e-22)
(0.0947186 -0.0213587 8.84668e-22)
(0.120429 -0.0211074 -4.96179e-23)
(0.145838 -0.0207984 -7.9369e-23)
(0.170877 -0.0204383 4.27589e-22)
(0.195488 -0.0200337 -4.10663e-22)
(0.219618 -0.0195914 -1.04514e-22)
(0.243223 -0.0191177 1.97732e-21)
(0.266269 -0.0186187 -8.11668e-22)
(0.288724 -0.0181003 -4.63758e-22)
(0.310568 -0.0175678 -3.34871e-22)
(0.331783 -0.0170262 1.03062e-21)
(0.35236 -0.0164797 3.43642e-23)
(0.372292 -0.0159325 -3.62279e-21)
(0.39158 -0.0153881 5.59723e-21)
(0.410226 -0.0148496 -4.01176e-21)
(0.428237 -0.0143198 -6.45091e-22)
(0.445623 -0.0138013 5.6081e-22)
(0.462394 -0.0132956 4.56857e-22)
(0.478564 -0.0128034 -5.75879e-22)
(0.494148 -0.0123255 1.05743e-21)
(0.509161 -0.0118625 1.02562e-22)
(0.523621 -0.0114149 2.87558e-22)
(0.537547 -0.0109831 -1.43565e-22)
(0.550956 -0.0105671 -8.13828e-22)
(0.563866 -0.010167 1.55697e-21)
(0.576298 -0.00978265 4.43946e-22)
(0.588269 -0.00941388 -1.31909e-21)
(0.599798 -0.00906037 -9.57489e-22)
(0.610903 -0.00872179 1.14555e-21)
(0.621601 -0.00839773 -4.84425e-22)
(0.631911 -0.00808774 1.31201e-21)
(0.641848 -0.00779135 -8.67148e-22)
(0.651429 -0.00750808 -6.7054e-22)
(0.66067 -0.00723741 5.07447e-22)
(0.669585 -0.00697884 -2.10468e-22)
(0.678189 -0.00673186 -3.69025e-22)
(0.686496 -0.00649598 1.14475e-21)
(0.69452 -0.00627069 -1.242e-21)
(0.702271 -0.00605552 1.07809e-21)
(0.709764 -0.00584999 -1.01038e-21)
(0.717009 -0.00565366 7.5706e-22)
(0.724018 -0.00546608 -1.97391e-23)
(0.7308 -0.00528684 -2.48105e-22)
(0.737366 -0.00511553 1.5015e-22)
(0.743726 -0.00495178 1.04619e-22)
(0.749888 -0.00479521 -5.31769e-23)
(0.755861 -0.00464548 4.0437e-22)
(0.761653 -0.00450227 -1.05812e-22)
(0.767273 -0.00436525 2.01621e-23)
(0.772726 -0.00423414 -4.42241e-22)
(0.778022 -0.00410865 1.84698e-22)
(0.783166 -0.00398853 4.07526e-22)
(0.788164 -0.00387351 -1.45598e-22)
(0.793024 -0.00376336 -1.06473e-22)
(0.79775 -0.00365784 1.62e-22)
(0.802349 -0.00355674 -1.4392e-22)
(0.806825 -0.00345985 -1.11802e-22)
(0.811185 -0.00336695 1.64232e-22)
(0.815432 -0.00327786 4.10465e-23)
(0.819571 -0.00319236 -1.36426e-22)
(0.823606 -0.00311033 1.12122e-22)
(0.827544 -0.00303152 -6.36284e-23)
(0.831383 -0.00295591 3.18858e-23)
(0.835137 -0.00288309 4.73827e-24)
(0.838789 -0.0028134 -2.13332e-23)
(0.842383 -0.00274587 8.20695e-24)
(0.845846 -0.00268191 3.0491e-23)
(0.849322 -0.00261872 -1.63254e-23)
(0.852558 -0.00256093 5.50409e-24)
(0.856018 -0.00250009 9.83194e-24)
(0.858874 -0.00245056 -2.23633e-24)
(0.862637 -0.00238718 -1.65277e-24)
(0.864605 -0.00235226 8.92216e-25)
(0.869732 -0.00227564 4.43847e-25)
(-0.196264 -0.0395912 -5.66115e-21)
(-0.179876 -0.0428059 5.92984e-20)
(-0.16231 -0.0458948 2.71691e-20)
(-0.143641 -0.048766 -3.06838e-20)
(-0.123965 -0.051388 4.47498e-20)
(-0.103361 -0.053795 -4.91431e-20)
(-0.08191 -0.0559686 4.22358e-20)
(-0.0597035 -0.0578946 -3.05902e-20)
(-0.0368584 -0.059561 -1.93093e-20)
(-0.0135614 -0.0609609 -2.137e-21)
(0.0103475 -0.0620638 9.9217e-22)
(0.0347506 -0.0628882 1.87763e-20)
(0.0592706 -0.0634606 6.16179e-21)
(0.0839177 -0.0637735 -1.31475e-20)
(0.108622 -0.0638377 9.29436e-21)
(0.133286 -0.0636689 -2.2493e-22)
(0.157823 -0.0632775 -5.35989e-21)
(0.182153 -0.06268 7.39577e-22)
(0.206201 -0.061895 8.35707e-22)
(0.2299 -0.0609418 -1.21835e-22)
(0.25319 -0.0598406 -2.97316e-22)
(0.276021 -0.0586114 3.169e-22)
(0.298348 -0.0572739 2.29986e-21)
(0.320134 -0.0558474 -9.49652e-22)
(0.341349 -0.0543499 1.33314e-21)
(0.361972 -0.0527986 -2.53663e-21)
(0.381985 -0.0512093 1.28528e-22)
(0.401377 -0.0495962 -1.78854e-21)
(0.420144 -0.0479722 5.79275e-21)
(0.438285 -0.0463489 -3.29774e-21)
(0.455801 -0.0447364 -1.45031e-21)
(0.472701 -0.0431435 6.28258e-21)
(0.488992 -0.0415778 -1.05139e-20)
(0.504689 -0.0400459 5.25102e-21)
(0.519805 -0.0385531 4.03194e-21)
(0.534355 -0.0371028 -7.47895e-21)
(0.548355 -0.0356973 1.40799e-21)
(0.561822 -0.0343377 1.67525e-21)
(0.574774 -0.0330251 5.23904e-22)
(0.587229 -0.0317601 -2.96693e-21)
(0.599206 -0.030543 -2.475e-21)
(0.610723 -0.0293737 9.57307e-21)
(0.6218 -0.0282517 -1.41823e-21)
(0.632453 -0.0271762 -4.54495e-22)
(0.642702 -0.0261462 1.16002e-21)
(0.652564 -0.0251606 -5.53431e-21)
(0.662056 -0.0242181 -8.50481e-22)
(0.671194 -0.0233174 1.749e-21)
(0.679995 -0.0224568 2.29924e-21)
(0.688474 -0.021635 -3.42004e-21)
(0.696646 -0.0208503 1.53268e-21)
(0.704524 -0.0201013 -4.07914e-21)
(0.712124 -0.0193864 3.77586e-21)
(0.719456 -0.018704 4.12551e-23)
(0.726535 -0.0180528 -1.01674e-21)
(0.733371 -0.0174311 7.80965e-22)
(0.739976 -0.0168377 1.04688e-22)
(0.746361 -0.0162712 -7.64429e-22)
(0.752535 -0.0157303 -5.4533e-22)
(0.758509 -0.0152136 -1.08239e-22)
(0.764291 -0.0147202 4.12487e-22)
(0.76989 -0.0142486 -4.19862e-22)
(0.775315 -0.0137981 1.14435e-21)
(0.780573 -0.0133674 2.00118e-22)
(0.785672 -0.0129556 -3.65151e-22)
(0.790619 -0.0125618 3.10243e-22)
(0.79542 -0.0121851 -1.64816e-21)
(0.800083 -0.0118248 1.03306e-21)
(0.804613 -0.01148 -3.21751e-22)
(0.809015 -0.01115 -8.66882e-22)
(0.813297 -0.0108341 8.21008e-22)
(0.817462 -0.0105317 -1.04517e-23)
(0.821516 -0.010242 4.6503e-22)
(0.825464 -0.00996448 -4.19994e-22)
(0.82931 -0.00969852 1.82778e-24)
(0.833059 -0.00944358 4.70441e-22)
(0.836715 -0.00919904 -2.17899e-22)
(0.84028 -0.00896449 -1.85733e-22)
(0.843762 -0.00873921 1.89098e-22)
(0.847157 -0.00852316 -2.52899e-22)
(0.850481 -0.00831515 3.37119e-22)
(0.853715 -0.00811616 -1.76545e-22)
(0.856903 -0.00792338 -9.85551e-23)
(0.859973 -0.0077409 8.18068e-23)
(0.863062 -0.00756062 -8.47755e-23)
(0.865933 -0.00739597 -1.72579e-23)
(0.869018 -0.00722271 -1.24795e-23)
(0.87155 -0.00708184 -2.18124e-24)
(0.874918 -0.00690217 2.35607e-23)
(0.876658 -0.00680319 -3.19341e-24)
(0.881251 -0.00658759 -2.55333e-24)
(-0.0245865 -0.0655953 2.47644e-21)
(-0.00849283 -0.0706474 -7.53027e-20)
(0.0085748 -0.0754019 3.25444e-20)
(0.0267877 -0.0798057 3.58675e-21)
(0.0458343 -0.0838858 -4.63874e-20)
(0.0654968 -0.0876353 2.31106e-21)
(0.0857892 -0.0910121 4.01508e-20)
(0.106637 -0.0939919 -3.76362e-20)
(0.127953 -0.096557 1.52124e-20)
(0.149633 -0.0986788 -2.77661e-20)
(0.171605 -0.10026 5.14296e-20)
(0.193801 -0.101464 1.18044e-21)
(0.216096 -0.102257 -3.42724e-20)
(0.238401 -0.102632 1.19792e-20)
(0.260634 -0.102604 -1.38748e-20)
(0.282712 -0.102195 9.96e-21)
(0.304561 -0.10143 5.18574e-23)
(0.326112 -0.100338 5.93119e-21)
(0.347305 -0.0989477 -7.21491e-21)
(0.368086 -0.0972933 3.21101e-21)
(0.388409 -0.0954075 1.02098e-21)
(0.408234 -0.0933235 1.07186e-21)
(0.42753 -0.0910737 -2.77999e-21)
(0.446272 -0.0886893 2.35712e-21)
(0.46444 -0.0861998 -3.60667e-21)
(0.482023 -0.0836328 4.32784e-21)
(0.499014 -0.0810136 3.7243e-21)
(0.515409 -0.0783649 -8.41251e-21)
(0.53121 -0.0757074 1.65368e-21)
(0.546424 -0.073059 -1.50852e-21)
(0.561058 -0.0704354 -2.35102e-21)
(0.575124 -0.0678499 3.66089e-21)
(0.588635 -0.0653138 4.99374e-21)
(0.601606 -0.0628364 -6.29423e-21)
(0.614054 -0.0604255 8.8343e-21)
(0.625999 -0.0580873 5.23906e-22)
(0.637457 -0.0558262 -8.9577e-21)
(0.648448 -0.0536445 -3.70288e-21)
(0.658988 -0.0515431 2.9211e-21)
(0.669096 -0.0495222 7.88932e-21)
(0.678789 -0.0475816 -1.19932e-20)
(0.688087 -0.0457206 1.01704e-20)
(0.697006 -0.0439382 2.60903e-21)
(0.705564 -0.0422327 -1.00815e-20)
(0.713779 -0.0406022 2.95511e-21)
(0.721665 -0.0390445 -3.14515e-21)
(0.72924 -0.0375574 2.80398e-21)
(0.736518 -0.0361382 3.27833e-21)
(0.743514 -0.0347844 1.48835e-21)
(0.750241 -0.0334934 -4.88249e-21)
(0.756714 -0.0322625 3.66991e-21)
(0.762944 -0.0310892 2.31898e-21)
(0.768944 -0.0299706 -5.19369e-21)
(0.774725 -0.0289045 4.46129e-21)
(0.780299 -0.0278881 1.79595e-22)
(0.785674 -0.0269192 -3.20914e-21)
(0.790862 -0.0259954 -9.73685e-22)
(0.795872 -0.0251144 -3.83484e-22)
(0.800711 -0.0242741 1.28407e-21)
(0.80539 -0.0234725 -3.8738e-22)
(0.809914 -0.0227075 2.46894e-21)
(0.814293 -0.0219774 -3.6035e-21)
(0.818533 -0.0212803 2.90774e-21)
(0.82264 -0.0206147 -1.89068e-22)
(0.826621 -0.0199788 -3.65882e-22)
(0.830483 -0.0193713 -2.83762e-21)
(0.834229 -0.0187908 9.3867e-22)
(0.837867 -0.0182359 2.15051e-22)
(0.841401 -0.0177054 1.85344e-21)
(0.844836 -0.0171982 -5.52144e-22)
(0.848177 -0.0167131 -4.9484e-22)
(0.851428 -0.016249 3.90324e-23)
(0.854593 -0.015805 2.01826e-22)
(0.857677 -0.01538 1.09208e-22)
(0.860682 -0.0149731 6.38558e-22)
(0.863614 -0.0145834 -4.13019e-22)
(0.866475 -0.01421 8.07304e-23)
(0.869267 -0.0138521 -7.09875e-22)
(0.871997 -0.0135087 -3.38892e-23)
(0.874661 -0.0131796 3.82527e-22)
(0.877274 -0.0128629 1.65111e-22)
(0.879816 -0.0125603 -2.87527e-22)
(0.882329 -0.0122672 2.46994e-22)
(0.884747 -0.0119901 5.7415e-23)
(0.887192 -0.0117165 -1.50146e-22)
(0.889455 -0.011467 7.94194e-23)
(0.89191 -0.011205 -1.75638e-24)
(0.893905 -0.0109923 3.49815e-24)
(0.896604 -0.010723 8.11136e-25)
(0.897968 -0.0105744 1.59777e-23)
(0.901656 -0.0102557 -5.29482e-25)
(0.193321 -0.0966217 1.32059e-20)
(0.209623 -0.102708 -1.65121e-19)
(0.226588 -0.108336 7.61972e-21)
(0.24415 -0.113591 5.14979e-20)
(0.262211 -0.11839 4.80977e-20)
(0.28069 -0.122685 7.439e-22)
(0.299504 -0.12644 1.80064e-20)
(0.31857 -0.12963 -3.32675e-20)
(0.337801 -0.132235 1.82993e-21)
(0.357126 -0.134238 9.11595e-21)
(0.376477 -0.135651 -3.93953e-21)
(0.395767 -0.136487 -3.33447e-20)
(0.414918 -0.136763 3.70176e-21)
(0.43386 -0.136504 6.23179e-21)
(0.452532 -0.135742 -1.05421e-21)
(0.470877 -0.134511 -4.62225e-22)
(0.488844 -0.132852 -5.8989e-21)
(0.506392 -0.130805 5.46215e-21)
(0.523483 -0.128418 -9.66965e-21)
(0.540089 -0.125733 1.08054e-21)
(0.556186 -0.122797 2.75337e-22)
(0.571758 -0.119654 -5.42624e-21)
(0.586794 -0.116344 3.31253e-21)
(0.601288 -0.112909 2.27598e-21)
(0.615238 -0.109385 5.51831e-21)
(0.628648 -0.105804 -7.22785e-21)
(0.641523 -0.102198 5.42083e-22)
(0.653873 -0.0985922 5.00143e-21)
(0.665708 -0.0950108 -4.26326e-21)
(0.677043 -0.0914736 -4.94864e-21)
(0.687891 -0.0879974 -2.47771e-21)
(0.698269 -0.0845963 1.82822e-20)
(0.708194 -0.0812815 -9.81221e-21)
(0.717682 -0.0780621 -3.71682e-21)
(0.726752 -0.0749449 8.79647e-22)
(0.735423 -0.0719355 1.20118e-20)
(0.743712 -0.0690375 3.07335e-22)
(0.751637 -0.0662526 -1.03135e-20)
(0.759213 -0.0635803 4.36919e-21)
(0.766457 -0.0610195 -1.01555e-20)
(0.773384 -0.0585687 -2.93392e-22)
(0.78001 -0.0562257 3.35805e-21)
(0.786348 -0.053988 -5.16258e-21)
(0.792415 -0.0518526 1.15678e-20)
(0.798222 -0.0498163 -5.09885e-21)
(0.803785 -0.0478754 -2.56496e-21)
(0.809115 -0.0460264 1.46417e-21)
(0.814224 -0.0442656 7.2702e-21)
(0.819124 -0.0425891 -6.47252e-21)
(0.823826 -0.0409932 -6.41692e-21)
(0.828341 -0.0394741 4.52371e-21)
(0.832678 -0.0380283 2.34444e-21)
(0.836846 -0.0366522 1.7022e-21)
(0.840855 -0.0353424 -6.26948e-21)
(0.844713 -0.0340955 6.94893e-21)
(0.848427 -0.0329083 -1.86676e-21)
(0.852006 -0.0317778 1.8939e-21)
(0.855457 -0.030701 -7.33212e-22)
(0.858786 -0.0296751 -1.29588e-21)
(0.861999 -0.0286975 -6.69711e-22)
(0.865103 -0.0277656 3.90374e-22)
(0.868104 -0.0268771 1.11352e-22)
(0.871006 -0.0260298 -7.90559e-22)
(0.873815 -0.0252214 -1.62645e-21)
(0.876535 -0.02445 1.46576e-21)
(0.879171 -0.0237138 -7.60493e-22)
(0.881728 -0.023011 1.69655e-21)
(0.88421 -0.02234 -2.09909e-21)
(0.886619 -0.0216992 1.38845e-21)
(0.888961 -0.0210872 1.12302e-22)
(0.891239 -0.0205026 -2.11564e-22)
(0.893455 -0.019944 -4.34344e-22)
(0.895614 -0.0194102 1.59326e-21)
(0.897719 -0.0188999 -6.46647e-22)
(0.899771 -0.018412 -9.89409e-23)
(0.901776 -0.017945 5.97687e-22)
(0.903733 -0.0174983 -7.55831e-22)
(0.905648 -0.0170701 -1.75244e-24)
(0.907518 -0.0166604 -1.2726e-22)
(0.909356 -0.0162666 1.30762e-22)
(0.911144 -0.0158907 3.44922e-22)
(0.912917 -0.0155271 -1.18717e-22)
(0.914621 -0.0151837 1.33283e-22)
(0.916354 -0.0148452 -2.1973e-22)
(0.917951 -0.0145369 -2.87014e-23)
(0.919703 -0.0142145 5.67943e-23)
(0.921109 -0.0139527 -5.25279e-24)
(0.923052 -0.0136254 -9.25247e-24)
(0.924007 -0.0134439 5.04988e-24)
(0.926669 -0.0130634 -1.08976e-24)
(0.398816 -0.119491 9.98336e-20)
(0.413797 -0.126641 -9.6672e-20)
(0.429144 -0.133298 1.90699e-19)
(0.444802 -0.139417 -1.56315e-19)
(0.460693 -0.144951 3.36501e-21)
(0.476739 -0.149859 1.00936e-19)
(0.49287 -0.154105 3.21884e-20)
(0.509012 -0.157661 -7.05234e-20)
(0.525099 -0.160509 -1.70843e-20)
(0.541066 -0.16264 2.49909e-22)
(0.556855 -0.164061 -9.36513e-21)
(0.572411 -0.164787 -2.77449e-21)
(0.58768 -0.164842 3.52946e-20)
(0.602617 -0.164258 -3.11135e-20)
(0.617183 -0.163075 2.66649e-21)
(0.631345 -0.161338 1.52858e-20)
(0.645079 -0.159096 1.31932e-21)
(0.658364 -0.156404 2.51037e-21)
(0.671186 -0.153316 -8.48206e-21)
(0.683539 -0.149887 -8.33594e-22)
(0.695418 -0.146174 1.49336e-21)
(0.706824 -0.142229 -1.72768e-21)
(0.717763 -0.138103 9.40216e-23)
(0.728242 -0.133843 -1.26539e-21)
(0.738271 -0.129494 2.85438e-21)
(0.747863 -0.125094 -5.80238e-21)
(0.757032 -0.120678 1.68469e-20)
(0.765791 -0.116278 -9.99456e-21)
(0.774156 -0.111921 4.12114e-21)
(0.782143 -0.107629 -9.42653e-21)
(0.789767 -0.103421 5.50786e-21)
(0.797044 -0.0993132 -4.87954e-21)
(0.803989 -0.0953177 2.03106e-20)
(0.810618 -0.0914442 -2.88666e-20)
(0.816945 -0.0876998 1.16633e-20)
(0.822984 -0.0840895 -8.04856e-21)
(0.828749 -0.0806168 8.76994e-21)
(0.834256 -0.0772839 -4.78947e-21)
(0.839518 -0.0740908 5.19229e-21)
(0.844544 -0.0710355 -5.62524e-21)
(0.849346 -0.0681156 -2.11332e-21)
(0.853934 -0.0653278 8.68615e-21)
(0.858319 -0.0626686 2.08142e-21)
(0.862509 -0.060134 -4.36065e-21)
(0.866516 -0.0577199 3.54763e-21)
(0.870348 -0.0554216 2.85767e-21)
(0.874014 -0.0532347 -6.95695e-21)
(0.877523 -0.0511543 -2.76413e-22)
(0.880881 -0.0491759 5.68582e-21)
(0.884098 -0.0472946 3.13404e-21)
(0.887179 -0.045506 -7.73626e-21)
(0.890132 -0.0438055 1.44002e-21)
(0.892964 -0.0421889 4.13656e-21)
(0.895681 -0.0406518 -9.75713e-23)
(0.898288 -0.0391901 -5.44055e-21)
(0.900792 -0.0378001 8.4304e-22)
(0.903198 -0.036478 2.01981e-21)
(0.90551 -0.0352202 -5.00665e-21)
(0.907735 -0.0340232 2.31247e-21)
(0.909876 -0.032884 2.24218e-21)
(0.911939 -0.0317993 5.05294e-22)
(0.913926 -0.0307664 4.2049e-21)
(0.915843 -0.0297824 -4.61216e-21)
(0.917693 -0.0288449 8.59233e-22)
(0.919479 -0.0279514 9.97738e-23)
(0.921205 -0.0270997 -7.25356e-22)
(0.922874 -0.0262877 -6.6003e-22)
(0.92449 -0.0255135 1.86936e-21)
(0.926055 -0.0247752 -1.38845e-21)
(0.927572 -0.0240712 -7.01848e-22)
(0.929044 -0.0233997 2.48469e-21)
(0.930473 -0.0227593 1.69589e-23)
(0.931863 -0.0221485 -1.50693e-21)
(0.933216 -0.0215656 3.28096e-22)
(0.934534 -0.0210094 1.26601e-22)
(0.935819 -0.0204783 -3.81427e-22)
(0.937074 -0.0199711 3.81579e-22)
(0.938301 -0.019486 -2.94908e-23)
(0.939499 -0.0190227 -2.35667e-22)
(0.940678 -0.0185781 2.10926e-22)
(0.941825 -0.0181545 1.86762e-22)
(0.942964 -0.0177453 -1.20489e-23)
(0.944058 -0.0173594 -3.88072e-22)
(0.945176 -0.0169797 2.67141e-22)
(0.946201 -0.0166341 5.00414e-24)
(0.947339 -0.0162748 -2.11036e-23)
(0.948239 -0.0159824 4.18742e-23)
(0.949509 -0.0156224 2.94565e-23)
(0.950118 -0.0154213 7.37345e-24)
(0.951861 -0.01501 -2.39361e-24)
(0.595677 -0.138365 -4.88772e-20)
(0.608696 -0.146154 -6.00639e-20)
(0.621777 -0.153394 -5.0144e-20)
(0.634864 -0.160017 1.48408e-19)
(0.647896 -0.165966 -3.23543e-21)
(0.66081 -0.171191 6.7647e-21)
(0.673547 -0.175654 -7.34273e-20)
(0.686051 -0.179329 6.11981e-20)
(0.698272 -0.182204 -9.37597e-21)
(0.71017 -0.184275 -7.6397e-22)
(0.72171 -0.185549 -1.10068e-19)
(0.732864 -0.186045 3.71641e-20)
(0.743607 -0.185793 5.7002e-20)
(0.753923 -0.184834 -5.22521e-20)
(0.763804 -0.183216 -2.74164e-20)
(0.773249 -0.180992 1.65454e-20)
(0.782262 -0.178221 9.80071e-21)
(0.79085 -0.174966 3.42749e-21)
(0.799025 -0.171289 -5.61899e-21)
(0.806803 -0.167254 1.79825e-20)
(0.814201 -0.162922 -1.27184e-20)
(0.821238 -0.158354 2.18127e-21)
(0.827934 -0.153606 -2.43862e-21)
(0.834309 -0.148728 2.07447e-22)
(0.840382 -0.143769 -1.51533e-21)
(0.846172 -0.13877 -1.07954e-21)
(0.851696 -0.133771 6.72972e-22)
(0.856972 -0.128803 2.23445e-21)
(0.862014 -0.123894 -2.3301e-21)
(0.866838 -0.119069 6.9066e-21)
(0.871456 -0.114346 -6.95543e-21)
(0.875879 -0.109743 -8.22867e-22)
(0.880118 -0.105271 1.46674e-21)
(0.884182 -0.10094 -1.81814e-21)
(0.888081 -0.0967569 1.11843e-20)
(0.891822 -0.0927262 7.2741e-21)
(0.895413 -0.0888507 -2.54085e-20)
(0.89886 -0.0851317 2.71042e-20)
(0.902171 -0.0815695 -3.4582e-20)
(0.905352 -0.0781625 1.10004e-20)
(0.908408 -0.0749079 -8.81481e-21)
(0.911342 -0.0718018 2.51719e-20)
(0.914159 -0.0688399 1.02947e-21)
(0.916863 -0.0660176 -5.38151e-21)
(0.919457 -0.0633299 -3.08588e-21)
(0.921947 -0.0607718 3.24558e-23)
(0.924335 -0.0583379 -1.05926e-20)
(0.926626 -0.0560231 1.03124e-20)
(0.928824 -0.053822 -6.58045e-21)
(0.930932 -0.0517296 -7.62045e-22)
(0.932953 -0.0497408 5.04725e-22)
(0.934892 -0.0478505 8.42365e-21)
(0.936751 -0.0460541 -4.8182e-21)
(0.938534 -0.0443466 -2.44552e-21)
(0.940245 -0.0427238 -3.2578e-21)
(0.941885 -0.0411812 4.33436e-21)
(0.943459 -0.0397146 7.72806e-21)
(0.944969 -0.0383202 -1.94364e-21)
(0.946418 -0.0369941 -5.533e-21)
(0.94781 -0.0357328 2.85082e-21)
(0.949146 -0.0345327 6.77419e-24)
(0.95043 -0.0333906 -2.17267e-21)
(0.951664 -0.0323036 1.12927e-21)
(0.952851 -0.0312686 1.38764e-21)
(0.953992 -0.0302831 -3.71191e-21)
(0.955091 -0.0293445 3.04352e-21)
(0.956149 -0.0284505 -2.19388e-21)
(0.957169 -0.0275989 4.56786e-22)
(0.958152 -0.0267877 1.52159e-21)
(0.959101 -0.0260152 -1.27649e-22)
(0.960018 -0.0252795 4.77659e-22)
(0.960904 -0.0245788 -1.1183e-21)
(0.961762 -0.0239117 -9.7147e-22)
(0.962595 -0.0232765 1.84509e-22)
(0.963402 -0.0226716 7.26851e-22)
(0.964188 -0.0220953 1.37395e-21)
(0.964953 -0.0215463 -1.52525e-21)
(0.9657 -0.0210224 7.47911e-22)
(0.966428 -0.0205231 -2.66897e-22)
(0.967143 -0.0200451 -1.4005e-22)
(0.967838 -0.0195903 -2.70188e-22)
(0.96853 -0.019152 4.0209e-22)
(0.969192 -0.0187387 -4.74832e-23)
(0.969871 -0.0183334 -8.74537e-23)
(0.970492 -0.0179641 1.75461e-23)
(0.971183 -0.0175824 9.61444e-24)
(0.971728 -0.0172706 -7.23202e-23)
(0.972501 -0.0168919 6.14392e-23)
(0.972867 -0.0166789 -1.05595e-23)
(0.973926 -0.0162512 -1.41559e-24)
(0.787134 -0.160185 -3.09168e-19)
(0.797023 -0.16762 3.95212e-19)
(0.806668 -0.174397 -3.78587e-19)
(0.816007 -0.180452 1.85252e-19)
(0.824986 -0.185726 -2.05886e-19)
(0.833559 -0.190169 8.66197e-20)
(0.84169 -0.193756 1.75025e-19)
(0.849351 -0.196482 -1.58584e-21)
(0.856537 -0.198352 -3.41816e-20)
(0.863246 -0.199379 -1.8381e-19)
(0.869482 -0.199587 5.89826e-20)
(0.875253 -0.199015 8.84188e-20)
(0.880579 -0.19771 -7.03304e-20)
(0.885483 -0.195728 4.58401e-20)
(0.889996 -0.193129 -4.10779e-20)
(0.894151 -0.189975 4.20083e-20)
(0.897983 -0.186334 -3.16334e-20)
(0.901524 -0.182273 -1.13841e-20)
(0.90481 -0.177859 1.05124e-20)
(0.907874 -0.173155 2.73708e-21)
(0.910748 -0.168223 6.70629e-22)
(0.913458 -0.16312 -3.62134e-21)
(0.916032 -0.157898 5.78284e-21)
(0.91849 -0.152606 1.85664e-22)
(0.920852 -0.147286 -3.39967e-23)
(0.923135 -0.141974 4.01362e-22)
(0.925351 -0.136704 1.24909e-21)
(0.92751 -0.131503 -2.28697e-21)
(0.92962 -0.126393 3.72223e-21)
(0.931689 -0.121396 1.33655e-21)
(0.933718 -0.116525 -7.44289e-22)
(0.935713 -0.111793 -5.73809e-21)
(0.937673 -0.107209 -2.05941e-21)
(0.939599 -0.10278 8.97903e-21)
(0.941492 -0.0985105 -1.33443e-20)
(0.94335 -0.0944023 3.55098e-21)
(0.945173 -0.0904566 -2.51303e-21)
(0.946961 -0.0866735 1.53144e-20)
(0.948713 -0.0830523 2.28962e-21)
(0.950428 -0.0795907 -1.25952e-20)
(0.952104 -0.0762853 -6.78324e-21)
(0.95374 -0.0731315 -2.80854e-21)
(0.955334 -0.0701246 1.03212e-20)
(0.956885 -0.0672594 4.39574e-23)
(0.958392 -0.0645304 5.97509e-21)
(0.959855 -0.0619322 5.6018e-21)
(0.961272 -0.0594592 -9.32331e-22)
(0.962645 -0.057106 -1.8916e-20)
(0.963972 -0.0548673 3.02315e-21)
(0.965254 -0.0527379 1.73441e-20)
(0.966491 -0.0507129 -1.29628e-20)
(0.967684 -0.0487871 4.20732e-21)
(0.968834 -0.046956 -5.88352e-21)
(0.969941 -0.0452149 5.35706e-21)
(0.971006 -0.0435594 -1.17195e-21)
(0.972031 -0.0419851 -6.41144e-21)
(0.973015 -0.0404881 8.66572e-21)
(0.973961 -0.0390643 -3.59689e-21)
(0.974869 -0.03771 -2.23596e-21)
(0.975741 -0.0364217 3.50378e-21)
(0.976578 -0.0351959 -3.12527e-22)
(0.977381 -0.0340293 3.66017e-22)
(0.978152 -0.032919 -4.82626e-21)
(0.978891 -0.031862 3.10321e-21)
(0.979601 -0.0308556 3.94395e-21)
(0.980282 -0.0298975 -6.69492e-21)
(0.980935 -0.0289854 4.61384e-21)
(0.981563 -0.0281171 1.95411e-21)
(0.982165 -0.0272907 -4.87224e-21)
(0.982744 -0.0265045 1.52034e-21)
(0.983301 -0.0257567 5.44799e-22)
(0.983837 -0.0250457 -1.64824e-21)
(0.984354 -0.0243698 1.62586e-21)
(0.984854 -0.0237275 -5.04963e-22)
(0.985338 -0.0231168 -1.5866e-22)
(0.985806 -0.0225365 1.58464e-22)
(0.986263 -0.021984 4.59295e-22)
(0.986706 -0.0214586 -4.13935e-22)
(0.987141 -0.0209569 2.8899e-22)
(0.987563 -0.0204802 -5.32438e-22)
(0.987982 -0.0200217 -1.9841e-22)
(0.988384 -0.0195897 -1.43206e-22)
(0.988794 -0.0191668 3.15116e-22)
(0.989171 -0.018781 -1.88019e-22)
(0.989586 -0.0183836 5.90391e-23)
(0.989916 -0.0180582 -8.41536e-23)
(0.990376 -0.017665 -9.13532e-24)
(0.990599 -0.0174436 1.5608e-23)
(0.991223 -0.0170003 -1.65165e-24)
(0.947795 -0.174378 -1.42662e-19)
(0.953083 -0.181091 1.73563e-19)
(0.957905 -0.187057 -4.21422e-19)
(0.962237 -0.192215 4.63213e-19)
(0.966053 -0.196526 -1.81796e-19)
(0.969321 -0.199967 -8.00678e-20)
(0.972039 -0.202531 1.4168e-19)
(0.974234 -0.204226 -1.87991e-19)
(0.975942 -0.205067 2.89792e-19)
(0.977202 -0.205085 -2.42709e-19)
(0.978055 -0.204325 5.30543e-20)
(0.978546 -0.202841 5.21623e-20)
(0.978729 -0.200694 -7.3359e-20)
(0.978661 -0.197946 -9.92981e-21)
(0.978394 -0.194663 4.31169e-20)
(0.977978 -0.19091 -5.22079e-20)
(0.977458 -0.186755 8.53653e-20)
(0.976878 -0.182263 -4.00513e-20)
(0.976274 -0.177495 7.43477e-21)
(0.975678 -0.172511 1.12505e-20)
(0.975119 -0.167364 -1.27931e-20)
(0.974616 -0.162104 1.5503e-21)
(0.974187 -0.156778 7.12418e-21)
(0.973843 -0.151423 -2.40514e-21)
(0.973593 -0.146077 -2.13025e-22)
(0.973442 -0.14077 8.48286e-22)
(0.97339 -0.135527 -1.43869e-21)
(0.973436 -0.130372 -2.19795e-21)
(0.973578 -0.125323 8.81415e-22)
(0.97381 -0.120395 7.48838e-21)
(0.974128 -0.115599 -1.27755e-20)
(0.974523 -0.110946 8.9414e-21)
(0.974989 -0.106442 -8.40017e-21)
(0.975519 -0.102092 1.63833e-20)
(0.976105 -0.0978993 4.12663e-22)
(0.976738 -0.0938647 2.65303e-21)
(0.977413 -0.0899886 -2.23232e-20)
(0.978122 -0.0862706 8.25521e-21)
(0.978861 -0.0827092 -9.51508e-21)
(0.979624 -0.0793025 2.88376e-21)
(0.980406 -0.0760469 1.77494e-20)
(0.9812 -0.0729384 -1.14314e-20)
(0.982003 -0.0699725 -1.58132e-21)
(0.982808 -0.0671443 1.20832e-20)
(0.983613 -0.0644485 -3.48891e-21)
(0.984414 -0.0618798 -9.89474e-21)
(0.985207 -0.0594328 1.36631e-20)
(0.985989 -0.0571021 -9.44055e-21)
(0.986758 -0.0548827 -6.75804e-21)
(0.987512 -0.0527694 1.15923e-20)
(0.98825 -0.0507576 -5.19363e-21)
(0.988969 -0.0488425 -3.09904e-21)
(0.98967 -0.0470197 -7.82833e-22)
(0.99035 -0.0452847 3.24763e-21)
(0.99101 -0.0436335 -1.25787e-21)
(0.991649 -0.042062 4.95022e-21)
(0.992267 -0.0405664 -3.13981e-21)
(0.992864 -0.039143 1.78559e-21)
(0.993439 -0.0377882 -3.38843e-21)
(0.993993 -0.0364986 1.8143e-21)
(0.994527 -0.0352709 1.19157e-21)
(0.99504 -0.034102 -4.23243e-21)
(0.995533 -0.032989 4.80113e-21)
(0.996006 -0.0319292 -1.68293e-21)
(0.99646 -0.0309201 -1.87425e-21)
(0.996896 -0.0299593 2.0803e-21)
(0.997313 -0.0290448 1.54756e-23)
(0.997713 -0.0281747 7.36843e-23)
(0.998096 -0.0273472 1.59078e-21)
(0.998463 -0.0265607 -3.22313e-21)
(0.998816 -0.0258137 1.32265e-21)
(0.999154 -0.0251044 -4.08676e-22)
(0.99948 -0.0244314 1.00858e-21)
(0.999795 -0.0237928 6.33286e-22)
(1.0001 -0.023187 -6.79726e-22)
(1.00039 -0.0226118 -6.81983e-22)
(1.00068 -0.0220659 1.12482e-21)
(1.00096 -0.0215458 -7.16785e-22)
(1.00123 -0.0210524 7.87694e-22)
(1.0015 -0.0205787 -5.68818e-22)
(1.00176 -0.0201325 -9.5386e-23)
(1.00203 -0.0196959 2.4314e-22)
(1.00227 -0.0192976 -2.10408e-22)
(1.00254 -0.0188864 4.96023e-23)
(1.00275 -0.0185503 -1.75961e-23)
(1.00304 -0.0181417 4.40004e-23)
(1.00319 -0.0179135 2.01946e-23)
(1.00357 -0.0174489 -2.36008e-24)
(1.06619 -0.173763 -1.14891e-19)
(1.06686 -0.180138 -1.52161e-20)
(1.067 -0.185783 -1.48243e-20)
(1.06661 -0.190659 -3.37896e-19)
(1.06571 -0.194739 8.30118e-20)
(1.06432 -0.198012 3.19285e-20)
(1.06245 -0.200475 3.25157e-19)
(1.06014 -0.202124 -5.19606e-20)
(1.05746 -0.20297 -8.79124e-20)
(1.05447 -0.203037 8.10747e-20)
(1.05122 -0.202363 -6.52825e-20)
(1.04777 -0.201002 -5.60874e-20)
(1.04419 -0.199013 -3.96315e-20)
(1.04055 -0.196455 6.95837e-20)
(1.0369 -0.193388 -1.31804e-19)
(1.0333 -0.189875 1.19521e-19)
(1.02979 -0.185977 -4.31653e-22)
(1.0264 -0.181753 -6.36433e-20)
(1.02318 -0.177259 -1.65451e-20)
(1.02013 -0.172548 6.33694e-20)
(1.01728 -0.16767 -9.13814e-21)
(1.01464 -0.162669 -1.90217e-20)
(1.01222 -0.157588 2.20165e-20)
(1.01001 -0.152464 -2.33018e-21)
(1.00802 -0.147328 -1.08553e-21)
(1.00625 -0.142212 1.87988e-21)
(1.00468 -0.13714 -1.19244e-21)
(1.0033 -0.132134 1.22392e-22)
(1.00212 -0.127213 -1.75372e-21)
(1.0011 -0.122392 1.94374e-21)
(1.00025 -0.117685 -1.90476e-21)
(0.999555 -0.113101 1.02887e-21)
(0.998995 -0.108649 -6.40214e-21)
(0.998563 -0.104335 -7.52134e-22)
(0.998245 -0.100162 -9.56026e-22)
(0.998031 -0.0961349 1.29736e-20)
(0.99791 -0.0922534 -3.30139e-22)
(0.997871 -0.0885178 -3.6972e-21)
(0.997906 -0.0849276 6.11954e-21)
(0.998007 -0.0814814 -7.00977e-21)
(0.998166 -0.0781774 2.71001e-22)
(0.998375 -0.075013 -4.33475e-21)
(0.998628 -0.0719852 -5.09828e-21)
(0.998918 -0.0690906 6.43437e-21)
(0.999239 -0.0663255 5.59337e-21)
(0.999586 -0.0636862 5.13876e-21)
(0.999953 -0.0611687 -1.46947e-20)
(1.00034 -0.0587684 5.94409e-21)
(1.00073 -0.0564808 -1.11192e-22)
(1.00113 -0.0543009 1.17209e-20)
(1.00154 -0.0522242 -1.11735e-20)
(1.00195 -0.050246 1.78553e-22)
(1.00236 -0.0483618 9.73201e-21)
(1.00277 -0.0465674 -1.57544e-20)
(1.00317 -0.0448586 9.58904e-21)
(1.00357 -0.0432313 -2.03176e-21)
(1.00395 -0.0416818 2.47124e-21)
(1.00433 -0.0402063 -2.06816e-21)
(1.00471 -0.0388012 -2.31251e-21)
(1.00507 -0.0374633 -9.11267e-22)
(1.00542 -0.036189 2.39804e-21)
(1.00576 -0.0349754 1.80026e-21)
(1.00609 -0.0338193 -9.54221e-22)
(1.00641 -0.0327182 -2.01998e-21)
(1.00672 -0.0316693 -1.29734e-21)
(1.00702 -0.0306704 1.36107e-21)
(1.0073 -0.0297194 -2.17948e-21)
(1.00758 -0.0288145 5.14976e-21)
(1.00784 -0.0279539 -3.83581e-21)
(1.00809 -0.0271362 2.64258e-21)
(1.00833 -0.0263599 -1.12072e-21)
(1.00857 -0.0256235 -8.01606e-22)
(1.00879 -0.0249255 4.8966e-22)
(1.00901 -0.0242643 -3.67889e-22)
(1.00922 -0.0236383 7.36019e-22)
(1.00943 -0.0230449 6.93634e-22)
(1.00963 -0.0224831 -7.21519e-22)
(1.00982 -0.0219488 2.67339e-22)
(1.01001 -0.0214428 -4.62988e-23)
(1.0102 -0.0209575 -1.43958e-22)
(1.01039 -0.0205009 8.89197e-24)
(1.01057 -0.0200534 -1.09153e-22)
(1.01075 -0.0196456 1.09775e-22)
(1.01094 -0.019222 -6.69484e-23)
(1.01109 -0.0188775 -5.06728e-23)
(1.01129 -0.018452 -6.00059e-23)
(1.0114 -0.0182185 1.21384e-23)
(1.01166 -0.0177281 5.74149e-24)
(1.14501 -0.174448 1.38861e-19)
(1.14122 -0.180303 -3.67617e-19)
(1.13697 -0.185414 2.35241e-19)
(1.13232 -0.18976 -1.06921e-19)
(1.12731 -0.19333 1.81288e-19)
(1.122 -0.196116 -3.30794e-19)
(1.11643 -0.198115 3.40537e-19)
(1.11068 -0.199339 -2.42755e-19)
(1.10481 -0.199812 1.80391e-19)
(1.09887 -0.199575 -1.10149e-19)
(1.0929 -0.198677 -6.02415e-20)
(1.08696 -0.197161 1.64913e-19)
(1.08111 -0.195073 -1.5203e-19)
(1.07541 -0.192465 -7.72709e-20)
(1.06989 -0.189394 1.23573e-19)
(1.06458 -0.185914 -1.12252e-21)
(1.05952 -0.182081 3.35582e-20)
(1.05472 -0.177947 -2.63524e-20)
(1.0502 -0.173564 2.35312e-20)
(1.04596 -0.168979 -5.1981e-20)
(1.04201 -0.164239 -2.06928e-20)
(1.03835 -0.159384 2.23312e-20)
(1.03498 -0.154453 1.64177e-20)
(1.03188 -0.14948 1.28525e-20)
(1.02905 -0.144496 -1.13049e-20)
(1.02648 -0.139529 -1.72103e-21)
(1.02415 -0.134602 -3.63577e-21)
(1.02206 -0.129738 -1.33289e-21)
(1.02019 -0.124952 2.24357e-21)
(1.01852 -0.120262 -6.54019e-22)
(1.01704 -0.115679 9.53471e-22)
(1.01575 -0.111213 -5.1464e-22)
(1.01461 -0.106872 2.42273e-21)
(1.01363 -0.102663 -5.81512e-22)
(1.01279 -0.09859 -3.6349e-21)
(1.01207 -0.0946553 2.72355e-21)
(1.01147 -0.0908606 3.97464e-21)
(1.01097 -0.0872059 -3.43443e-21)
(1.01057 -0.0836908 -6.97075e-21)
(1.01026 -0.0803143 1.18579e-20)
(1.01002 -0.0770748 -6.2265e-21)
(1.00985 -0.0739702 6.18524e-21)
(1.00974 -0.0709977 -1.0859e-20)
(1.00968 -0.0681546 1.11047e-20)
(1.00967 -0.0654377 -6.33899e-21)
(1.0097 -0.0628431 -4.48384e-21)
(1.00976 -0.0603666 2.85566e-22)
(1.00986 -0.0580039 -9.96162e-22)
(1.00998 -0.0557506 -1.82265e-21)
(1.01013 -0.0536022 6.23451e-21)
(1.01029 -0.0515543 -7.43087e-21)
(1.01047 -0.0496026 1.22001e-20)
(1.01066 -0.047743 9.82706e-22)
(1.01086 -0.0459714 -9.3632e-22)
(1.01106 -0.0442838 -8.18865e-21)
(1.01127 -0.0426764 1.82139e-21)