/*--------------------------------*- C++ -*----------------------------------*\
  =========                 |
  \\      /  F ield         | OpenFOAM: The Open Source CFD Toolbox
   \\    /   O peration     | Website:  https://openfoam.org
    \\  /    A nd           | Version:  7
     \\/     M anipulation  |
\*---------------------------------------------------------------------------*/
FoamFile
{
    version     2.0;
    format      ascii;
    class       volScalarField;
    location    "5";
    object      p;
}
// * * * * * * * * * * * * * * * * * * * * * * * * * * * * * * * * * * * * * //

dimensions      [0 2 -2 0 0 0 0];

internalField   nonuniform List<scalar> 
1360
(
0.738006
0.711491
0.687177
0.66305
0.63869
0.614015
0.589172
0.564431
0.540073
0.516336
0.4934
0.471388
0.450378
0.43041
0.411489
0.393596
0.376727
0.360952
0.712033
0.687032
0.664388
0.642003
0.619363
0.596326
0.573003
0.549653
0.526554
0.503952
0.482038
0.460946
0.440768
0.421552
0.403305
0.385997
0.369685
0.354664
0.661244
0.639169
0.619752
0.600739
0.581439
0.561589
0.541232
0.520597
0.499962
0.479582
0.459669
0.440381
0.421833
0.404095
0.38717
0.371013
0.355792
0.342239
0.569958
0.555109
0.540886
0.526349
0.511062
0.494968
0.478247
0.461168
0.444004
0.426989
0.410316
0.394131
0.378538
0.363536
0.349056
0.335413
0.32397
0.473116
0.464794
0.456161
0.446564
0.435811
0.424016
0.411429
0.398333
0.384994
0.371637
0.358455
0.345585
0.333032
0.320686
0.309036
0.300237
0.377121
0.375438
0.373497
0.370401
0.365796
0.359704
0.352341
0.343994
0.334954
0.325484
0.31582
0.306148
0.296474
0.286631
0.277277
0.271538
0.276277
0.281413
0.285265
0.287292
0.2874
0.28575
0.282619
0.278314
0.273129
0.267345
0.261201
0.25471
0.24758
0.240536
0.237961
0.194145
0.202944
0.209454
0.213755
0.216097
0.216786
0.216135
0.214448
0.212008
0.208868
0.204581
0.199536
0.19951
0.12828
0.138474
0.146273
0.151966
0.155865
0.158261
0.15942
0.15959
0.159001
0.157481
0.153027
0.0754162
0.0860778
0.0946045
0.101305
0.106467
0.110472
0.113903
0.116543
0.114777
0.0441093
0.0530022
0.0604489
0.0670873
0.0728495
0.0741516
0.0201974
0.0285291
0.0328855
0.347348
0.335436
0.324461
0.314348
0.305024
0.296421
0.288477
0.281136
0.274348
0.268067
0.262251
0.256863
0.251869
0.247239
0.242945
0.238964
0.235272
0.231849
0.228678
0.22574
0.22302
0.220501
0.218182
0.216048
0.214089
0.212294
0.210656
0.209168
0.207823
0.206615
0.205539
0.20459
0.203766
0.203062
0.202476
0.202005
0.201647
0.201405
0.201285
0.201271
0.341984
0.330773
0.320386
0.31077
0.301867
0.293623
0.285985
0.278906
0.272343
0.266255
0.260606
0.255363
0.250495
0.245975
0.241777
0.237879
0.23426
0.230902
0.227787
0.224901
0.22223
0.219753
0.217444
0.21535
0.213422
0.211654
0.210038
0.208569
0.20724
0.206047
0.204984
0.204047
0.203233
0.202537
0.201958
0.201493
0.20114
0.200901
0.200783
0.200769
0.331368
0.321544
0.312317
0.303685
0.295618
0.288083
0.281051
0.274491
0.268374
0.26267
0.257353
0.252397
0.247778
0.243475
0.239467
0.235735
0.232261
0.229031
0.226028
0.223241
0.220658
0.218274
0.216072
0.213987
0.212112
0.210393
0.20882
0.207388
0.206092
0.204928
0.20389
0.202975
0.202179
0.2015
0.200935
0.200481
0.200136
0.199904
0.199789
0.199777
0.31572
0.307939
0.300416
0.293232
0.286394
0.279907
0.27377
0.267977
0.262518
0.257382
0.252555
0.248024
0.243775
0.239793
0.236065
0.232578
0.22932
0.226278
0.223441
0.2208
0.218343
0.216066
0.213969
0.21204
0.210214
0.208541
0.207033
0.205655
0.204407
0.203284
0.202283
0.2014
0.200631
0.199975
0.199429
0.198991
0.198659
0.198436
0.198325
0.198312
0.295332
0.290203
0.284892
0.279592
0.274361
0.269244
0.26428
0.259492
0.254898
0.250507
0.246324
0.242349
0.238583
0.235021
0.23166
0.228493
0.225514
0.222718
0.220098
0.217646
0.215358
0.213226
0.211248
0.20942
0.207738
0.206183
0.204726
0.203384
0.20221
0.20115
0.200199
0.199358
0.198625
0.197998
0.197477
0.197058
0.19674
0.196526
0.196419
0.196406
0.270634
0.268727
0.266097
0.263084
0.259803
0.256348
0.252803
0.24923
0.245678
0.242184
0.238775
0.235471
0.232286
0.229231
0.226312
0.223532
0.220893
0.218396
0.216039
0.213819
0.211736
0.209786
0.207966
0.206273
0.204705
0.203259
0.201937
0.200741
0.199611
0.198593
0.197684
0.196892
0.196202
0.195611
0.195117
0.19472
0.194418
0.194214
0.194108
0.194093
0.241695
0.243459
0.243854
0.243452
0.242427
0.24092
0.239059
0.236945
0.234659
0.232262
0.229805
0.227328
0.224863
0.222434
0.22006
0.217756
0.215533
0.213399
0.211359
0.209419
0.207581
0.205846
0.204214
0.202686
0.201261
0.199938
0.198719
0.197602
0.19658
0.195657
0.19483
0.194086
0.193435
0.192876
0.192408
0.192033
0.191747
0.19155
0.191442
0.191422
0.20992
0.216445
0.220741
0.223619
0.22531
0.226043
0.226031
0.225448
0.224433
0.223097
0.221529
0.219801
0.21797
0.21608
0.214167
0.212259
0.210378
0.208541
0.206761
0.205048
0.203409
0.20185
0.200374
0.198983
0.19768
0.196465
0.195338
0.1943
0.193349
0.192485
0.191708
0.191015
0.190406
0.18988
0.189437
0.189073
0.188788
0.188586
0.188466
0.188433
0.156244
0.16877
0.17812
0.185256
0.190712
0.194817
0.197829
0.199955
0.201365
0.202199
0.202571
0.202576
0.202293
0.201785
0.201107
0.200303
0.199408
0.198453
0.197462
0.196455
0.195448
0.194454
0.193485
0.192548
0.191651
0.190799
0.189997
0.189248
0.188555
0.187919
0.187343
0.186828
0.186374
0.185982
0.185653
0.185387
0.185183
0.185043
0.184971
0.184958
0.139416
0.150006
0.158622
0.16575
0.171606
0.176353
0.18015
0.18314
0.185448
0.187185
0.188446
0.189312
0.189852
0.190126
0.190185
0.190071
0.18982
0.189464
0.189027
0.188532
0.187997
0.187437
0.186865
0.186292
0.185726
0.185175
0.184645
0.184141
0.183667
0.183227
0.182824
0.182458
0.182133
0.181851
0.181611
0.181414
0.181262
0.181157
0.181101
0.181089
0.122795
0.132451
0.140636
0.147721
0.153812
0.158996
0.163372
0.167033
0.170069
0.172562
0.174585
0.176205
0.17748
0.178462
0.179197
0.179725
0.180079
0.180291
0.180385
0.180384
0.180307
0.180172
0.179991
0.179777
0.179541
0.179291
0.179035
0.178779
0.178529
0.178289
0.178062
0.177853
0.177663
0.177496
0.177352
0.177234
0.177141
0.177076
0.177042
0.177035
0.108878
0.117781
0.12558
0.13253
0.138681
0.144084
0.1488
0.152891
0.156421
0.159449
0.162032
0.164222
0.166067
0.167611
0.168893
0.169949
0.170809
0.171502
0.172051
0.17248
0.172805
0.173046
0.173215
0.173325
0.173388
0.173413
0.173409
0.173382
0.173339
0.173285
0.173224
0.173162
0.1731
0.173041
0.172989
0.172944
0.172908
0.172882
0.172869
0.172866
0.0978049
0.106051
0.113422
0.120118
0.126166
0.131595
0.136444
0.140756
0.144574
0.147941
0.150899
0.153489
0.155749
0.157714
0.159417
0.160887
0.162152
0.163237
0.164163
0.164951
0.165618
0.166181
0.166653
0.167047
0.167374
0.167644
0.167864
0.168044
0.168189
0.168304
0.168396
0.168467
0.168523
0.168565
0.168596
0.16862
0.168636
0.168646
0.168652
0.168653
0.0888239
0.0964716
0.103417
0.109818
0.115685
0.121039
0.125902
0.130305
0.134276
0.137848
0.141051
0.143916
0.146471
0.148746
0.150766
0.152557
0.154142
0.155541
0.156774
0.157859
0.158811
0.159647
0.160377
0.161015
0.161571
0.162054
0.162473
0.162835
0.163147
0.163414
0.163642
0.163835
0.163996
0.16413
0.164238
0.164323
0.164387
0.16443
0.164453
0.164458
0.0815475
0.0886443
0.0951753
0.101263
0.106909
0.112125
0.116927
0.121334
0.125366
0.129045
0.132395
0.135438
0.138196
0.140691
0.142945
0.144977
0.146807
0.148453
0.14993
0.151255
0.152441
0.153501
0.154448
0.155292
0.156042
0.156709
0.157299
0.157819
0.158277
0.158677
0.159025
0.159325
0.159581
0.159795
0.159972
0.160112
0.160219
0.160292
0.160331
0.160339
0.0756558
0.0822499
0.0883862
0.0941585
0.0995642
0.104608
0.109301
0.113654
0.117683
0.121401
0.124826
0.127974
0.130863
0.133508
0.135928
0.138137
0.140151
0.141985
0.143653
0.145167
0.146541
0.147784
0.148908
0.149923
0.150836
0.151656
0.152391
0.153047
0.15363
0.154145
0.154597
0.15499
0.155328
0.155614
0.15585
0.15604
0.156184
0.156283
0.156335
0.156346
0.0708819
0.0770218
0.0827899
0.0882575
0.0934185
0.0982744
0.102831
0.107096
0.111078
0.114788
0.118237
0.121438
0.124403
0.127145
0.129676
0.13201
0.134159
0.136134
0.137947
0.139608
0.141129
0.142518
0.143786
0.144939
0.145986
0.146934
0.14779
0.148559
0.149248
0.14986
0.150401
0.150874
0.151282
0.151629
0.151917
0.152149
0.152326
0.152447
0.152511
0.152525
0.0670121
0.0727461
0.0781769
0.0833579
0.0882808
0.0929449
0.0973529
0.101509
0.105419
0.109089
0.112527
0.115743
0.118745
0.121542
0.124145
0.126563
0.128806
0.130884
0.132805
0.134578
0.136213
0.137716
0.139097
0.140361
0.141517
0.142569
0.143524
0.144388
0.145164
0.145858
0.146473
0.147013
0.147481
0.14788
0.148212
0.14848
0.148684
0.148825
0.148899
0.148915
0.0638756
0.0692508
0.0743775
0.0792946
0.0839931
0.0884707
0.0927278
0.0967662
0.100589
0.1042
0.107605
0.110809
0.11382
0.116643
0.119287
0.121758
0.124065
0.126214
0.128213
0.130069
0.13179
0.133382
0.13485
0.136203
0.137444
0.13858
0.139616
0.140555
0.141404
0.142164
0.142841
0.143437
0.143955
0.144397
0.144766
0.145064
0.145292
0.145449
0.145532
0.145549
0.0613363
0.0663979
0.0712544
0.0759334
0.0804256
0.0847277
0.0888387
0.0927585
0.0964883
0.10003
0.103388
0.106564
0.109564
0.112393
0.115055
0.117557
0.119903
0.1221
0.124154
0.126071
0.127855
0.129512
0.131049
0.132469
0.133777
0.134979
0.136079
0.13708
0.137987
0.138802
0.139529
0.14017
0.140729
0.141207
0.141607
0.14193
0.142177
0.142347
0.142437
0.142456
0.0592864
0.0640772
0.0686973
0.0731653
0.0774721
0.0816139
0.0855883
0.0893943
0.0930316
0.096501
0.0998041
0.102943
0.105921
0.10874
0.111406
0.113921
0.11629
0.118518
0.120609
0.122567
0.124396
0.126103
0.12769
0.129161
0.130522
0.131775
0.132925
0.133975
0.134928
0.135786
0.136554
0.137232
0.137824
0.138331
0.138755
0.139098
0.139362
0.139543
0.139638
0.139659
0.057641
0.0622013
0.0666181
0.0709026
0.0750466
0.0790454
0.0828964
0.0865973
0.0901471
0.0935454
0.0967926
0.0998899
0.102839
0.105641
0.1083
0.110818
0.113197
0.115442
0.117556
0.119542
0.121404
0.123145
0.124769
0.12628
0.127679
0.128972
0.130161
0.131248
0.132237
0.13313
0.133929
0.134637
0.135255
0.135785
0.136229
0.136589
0.136865
0.137055
0.137155
0.137177
0.0563337
0.0607014
0.0649468
0.0690754
0.0730796
0.0769547
0.0806973
0.0843047
0.0877752
0.0911076
0.0943014
0.0973569
0.100275
0.103056
0.105702
0.108215
0.110597
0.112851
0.114978
0.116982
0.118866
0.120631
0.122282
0.12382
0.125249
0.126571
0.127789
0.128905
0.129922
0.130841
0.131665
0.132396
0.133035
0.133583
0.134043
0.134415
0.134701
0.134898
0.135002
0.135024
0.0553133
0.0595238
0.0636285
0.0676284
0.0715163
0.0752876
0.0789385
0.0824659
0.0858676
0.0891418
0.0922875
0.0953043
0.098192
0.100951
0.103583
0.106087
0.108467
0.110723
0.112857
0.114872
0.11677
0.118552
0.120221
0.121779
0.123229
0.124573
0.125812
0.12695
0.127987
0.128927
0.12977
0.130518
0.131173
0.131735
0.132207
0.132589
0.132883
0.133085
0.133192
0.133215
0.0545405
0.0586276
0.0626211
0.0665187
0.0703138
0.0740016
0.0775783
0.0810405
0.0843855
0.0876113
0.0907164
0.0936997
0.0965609
0.0992997
0.101916
0.104412
0.106787
0.109042
0.111179
0.1132
0.115106
0.116899
0.118581
0.120153
0.121617
0.122976
0.124232
0.125385
0.126437
0.127391
0.128248
0.129009
0.129676
0.130248
0.130729
0.131119
0.131418
0.131625
0.131734
0.131757
0.053986
0.0579819
0.0618928
0.065714
0.0694395
0.0730646
0.0765851
0.0799976
0.0832992
0.0864876
0.089561
0.0925179
0.0953577
0.0980797
0.100684
0.103171
0.10554
0.107794
0.109931
0.111955
0.113866
0.115666
0.117356
0.118937
0.120411
0.121781
0.123047
0.12421
0.125274
0.126238
0.127104
0.127874
0.128549
0.129129
0.129616
0.130011
0.130315
0.130524
0.130634
0.130658
0.0536306
0.0575658
0.0614213
0.0651914
0.0688702
0.072453
0.0759357
0.0793146
0.0825869
0.0857498
0.0888014
0.0917402
0.094565
0.0972751
0.0998703
0.10235
0.104716
0.106967
0.109105
0.11113
0.113043
0.114847
0.116541
0.118128
0.119608
0.120984
0.122257
0.123427
0.124497
0.125468
0.12634
0.127116
0.127796
0.128381
0.128872
0.12927
0.129576
0.129787
0.129899
0.129922
0.0534688
0.0573681
0.0611931
0.064936
0.0685906
0.0721518
0.0756153
0.0789773
0.0822346
0.0853846
0.0884251
0.0913546
0.0941718
0.0968758
0.0994662
0.101943
0.104306
0.106556
0.108693
0.110719
0.112633
0.114438
0.116135
0.117724
0.119208
0.120587
0.121862
0.123036
0.124109
0.125083
0.125958
0.126737
0.127419
0.128006
0.128499
0.128899
0.129207
0.129419
0.12953
0.129555
0.140607
0.126013
0.109856
0.0967694
0.0863779
0.0780632
0.0714472
0.0661969
0.0620337
0.0587339
0.056119
0.0540482
0.0524111
0.0511217
0.0501136
0.049336
0.0487506
0.0483281
0.0480498
0.0479247
0.104452
0.093554
0.0818032
0.0725979
0.0653238
0.0595759
0.0550894
0.0516069
0.0489116
0.0468297
0.0452235
0.0439848
0.0430297
0.0422933
0.0417258
0.0412897
0.0409566
0.0407034
0.0405144
0.0404197
0.0667181
0.0591346
0.0515746
0.0463827
0.0426143
0.0398314
0.0378031
0.036336
0.0352836
0.0345368
0.0340132
0.0336505
0.0334013
0.0332298
0.0331086
0.0330173
0.0329407
0.032864
0.0327737
0.0327109
0.0304568
0.0276539
0.024329
0.022631
0.0218023
0.0214925
0.0215281
0.0217721
0.0221327
0.0225498
0.0229829
0.0234046
0.0237961
0.0241441
0.0244391
0.0246746
0.024846
0.024946
0.0249627
0.0249389
)
;

boundaryField
{
    inlet
    {
        type            zeroGradient;
    }
    outlet
    {
        type            fixedValue;
        value           nonuniform 0();
    }
    cylinder
    {
        type            zeroGradient;
    }
    top
    {
        type            symmetryPlane;
    }
    bottom
    {
        type            symmetryPlane;
    }
    defaultFaces
    {
        type            empty;
    }
    procBoundary0to1
    {
        type            processor;
        value           nonuniform List<scalar> 
50
(
0.773848
0.746452
0.692895
0.58789
0.58789
0.482361
0.482361
0.380099
0.271011
0.271011
0.171116
0.18329
0.18329
0.100161
0.115501
0.115501
0.0464846
0.0623048
0.0623048
0.00527991
0.0205421
0.0333846
0.0333846
-0.0120471
0.00022553
0.0107811
0.0107811
-0.0253263
-0.0146967
-0.0074903
-0.00486808
-0.00246237
-0.00130939
0.00043835
0.0023406
0.00424364
0.00608638
0.00781769
0.00941021
0.0108517
0.012138
0.0132699
0.0142504
0.0150838
0.0157741
0.0163254
0.0167414
0.0170213
0.0171558
0.0171833
)
;
    }
    procBoundary0to4
    {
        type            processor;
        value           nonuniform List<scalar> 
58
(
0.738006
0.711491
0.687177
0.66305
0.63869
0.614015
0.589172
0.564431
0.540073
0.516336
0.4934
0.471388
0.450378
0.43041
0.411489
0.393596
0.376727
0.360952
0.347348
0.335436
0.324461
0.314348
0.305024
0.296421
0.288477
0.281136
0.274348
0.268067
0.262251
0.256863
0.251869
0.247239
0.242945
0.238964
0.235272
0.231849
0.228678
0.22574
0.22302
0.220501
0.218182
0.216048
0.214089
0.212294
0.210656
0.209168
0.207823
0.206615
0.205539
0.20459
0.203766
0.203062
0.202476
0.202005
0.201647
0.201405
0.201285
0.201271
)
;
    }
}


// ************************************************************************* //
