/*--------------------------------*- C++ -*----------------------------------*\
  =========                 |
  \\      /  F ield         | OpenFOAM: The Open Source CFD Toolbox
   \\    /   O peration     | Website:  https://openfoam.org
    \\  /    A nd           | Version:  7
     \\/     M anipulation  |
\*---------------------------------------------------------------------------*/
FoamFile
{
    version     2.0;
    format      ascii;
    class       volVectorField;
    location    "5";
    object      U;
}
// * * * * * * * * * * * * * * * * * * * * * * * * * * * * * * * * * * * * * //

dimensions      [0 1 -1 0 0 0 0];

internalField   nonuniform List<vector> 
1360
(
(0.0895721 -0.0443748 -6.17105e-20)
(0.152177 -0.0509262 7.99912e-20)
(0.218167 -0.0536898 -5.21625e-20)
(0.283788 -0.0538118 9.33925e-21)
(0.346783 -0.0522097 -5.33703e-20)
(0.40582 -0.0495887 1.06164e-20)
(0.460294 -0.046457 8.26653e-20)
(0.510093 -0.0431565 -2.15419e-19)
(0.555388 -0.0398998 -2.4559e-20)
(0.596497 -0.0368053 4.67254e-20)
(0.633795 -0.0339285 8.87958e-20)
(0.667662 -0.0312858 -9.45209e-21)
(0.698458 -0.0288726 -8.34884e-20)
(0.726507 -0.0266739 7.08963e-20)
(0.752104 -0.0246713 -1.05645e-19)
(0.775509 -0.0228436 8.11173e-20)
(0.796945 -0.0211672 8.37612e-20)
(0.816556 -0.0196321 -9.86727e-20)
(0.105479 -0.131025 -3.92864e-19)
(0.169981 -0.150556 -1.87528e-19)
(0.236548 -0.158906 -2.01842e-19)
(0.301889 -0.159427 4.05228e-19)
(0.364086 -0.154816 1.09865e-19)
(0.422049 -0.147152 -9.1092e-20)
(0.475338 -0.137941 3.88759e-19)
(0.523943 -0.128202 -2.58103e-20)
(0.568095 -0.118571 -3.86971e-19)
(0.60814 -0.109405 5.43569e-20)
(0.644463 -0.100875 6.83963e-20)
(0.677446 -0.0930332 7.22615e-22)
(0.70744 -0.0858677 -7.33328e-20)
(0.734763 -0.0793364 -1.93563e-19)
(0.759701 -0.0733847 -6.44792e-20)
(0.782523 -0.0679486 8.14311e-21)
(0.803431 -0.06296 3.47854e-19)
(0.822445 -0.058406 2.24264e-19)
(0.136291 -0.211495 3.2437e-19)
(0.20456 -0.24363 3.38467e-19)
(0.272339 -0.25773 -3.25078e-19)
(0.337216 -0.259104 -3.50804e-19)
(0.397924 -0.252056 -1.12311e-19)
(0.453844 -0.239936 1.7917e-19)
(0.504854 -0.22519 1.31303e-20)
(0.551149 -0.209493 -2.29138e-19)
(0.593078 -0.193899 2.00835e-19)
(0.631048 -0.179012 -1.45369e-19)
(0.665469 -0.165126 5.65063e-20)
(0.696722 -0.15234 -5.27676e-19)
(0.725149 -0.140642 7.59505e-19)
(0.751048 -0.129969 1.84001e-19)
(0.774698 -0.120234 -6.82354e-19)
(0.796376 -0.111329 6.03244e-19)
(0.816252 -0.103146 8.67266e-23)
(0.834108 -0.0957218 9.82215e-20)
(0.253901 -0.326151 8.80569e-20)
(0.323634 -0.346231 3.8528e-20)
(0.38805 -0.349163 -5.56842e-20)
(0.446789 -0.340588 -3.59958e-19)
(0.499897 -0.324953 4.26005e-19)
(0.547716 -0.305555 4.27631e-21)
(0.590738 -0.284679 6.97535e-19)
(0.629492 -0.263795 8.63466e-20)
(0.664484 -0.243758 -9.98408e-20)
(0.696164 -0.225002 -3.679e-19)
(0.72492 -0.207686 1.95133e-19)
(0.751081 -0.191814 -6.18048e-19)
(0.774924 -0.177311 8.63631e-19)
(0.796713 -0.164062 -1.04261e-18)
(0.816735 -0.151912 7.1738e-19)
(0.83512 -0.140724 -4.43936e-19)
(0.851327 -0.130656 -2.07733e-19)
(0.387675 -0.420957 1.35433e-19)
(0.451891 -0.426334 -7.36085e-19)
(0.50848 -0.417414 1.21986e-18)
(0.558301 -0.399511 -9.67916e-19)
(0.602276 -0.376639 -4.37189e-19)
(0.641285 -0.351637 9.13994e-19)
(0.676101 -0.326369 -2.20732e-19)
(0.707367 -0.301957 -8.15842e-20)
(0.735599 -0.278988 -1.02675e-18)
(0.761205 -0.257704 1.09956e-18)
(0.784505 -0.238139 3.02846e-19)
(0.80575 -0.220224 -8.448e-19)
(0.825189 -0.203821 6.95545e-19)
(0.84312 -0.188723 -4.73367e-19)
(0.859635 -0.17477 -4.16336e-19)
(0.873808 -0.16233 1.38467e-18)
(0.46097 -0.479105 -3.54127e-19)
(0.52555 -0.4879 9.62751e-19)
(0.580174 -0.480002 -8.49454e-19)
(0.626603 -0.461311 7.82038e-19)
(0.666418 -0.436387 -7.81375e-19)
(0.700967 -0.408539 7.26827e-19)
(0.731327 -0.380005 -4.04234e-19)
(0.758325 -0.352171 9.9628e-19)
(0.782576 -0.325804 -1.22423e-18)
(0.804531 -0.301248 -1.08884e-19)
(0.824509 -0.27859 2.881e-19)
(0.842744 -0.257782 6.07583e-19)
(0.859463 -0.238676 3.38889e-20)
(0.874989 -0.221011 -6.89363e-19)
(0.889384 -0.204587 -3.54917e-19)
(0.901285 -0.190069 7.34742e-19)
(0.605269 -0.531818 -2.35117e-19)
(0.658522 -0.526387 2.79614e-20)
(0.701873 -0.508526 2.52094e-20)
(0.737607 -0.483143 3.54148e-19)
(0.767591 -0.45391 6.0535e-20)
(0.793265 -0.423391 1.15733e-19)
(0.815693 -0.393239 6.41069e-19)
(0.83563 -0.364415 -5.96651e-19)
(0.853598 -0.337391 5.32642e-19)
(0.869943 -0.312332 -3.40366e-19)
(0.884888 -0.289231 2.99612e-19)
(0.898642 -0.267944 -5.4586e-19)
(0.91157 -0.248136 4.19435e-19)
(0.923794 -0.229511 -1.57795e-19)
(0.933499 -0.213054 -7.68433e-19)
(0.780808 -0.539875 -3.60899e-19)
(0.812984 -0.515716 -2.82449e-19)
(0.838701 -0.486674 2.54614e-19)
(0.859811 -0.455579 -2.70075e-19)
(0.877667 -0.424335 6.72668e-19)
(0.893216 -0.39411 4.05774e-19)
(0.907093 -0.36553 -8.72358e-19)
(0.919711 -0.338861 3.47609e-19)
(0.931312 -0.31415 2.4336e-19)
(0.942091 -0.291266 -3.1377e-19)
(0.952456 -0.269803 -7.11288e-19)
(0.962887 -0.24941 4.1207e-19)
(0.971592 -0.231678 1.29078e-19)
(0.911506 -0.506188 -2.77708e-19)
(0.928493 -0.47601 -3.91172e-19)
(0.942007 -0.445006 4.83351e-19)
(0.953224 -0.414565 3.35106e-20)
(0.962932 -0.385505 -1.30005e-19)
(0.971636 -0.358244 -3.92332e-20)
(0.979654 -0.332938 6.09165e-20)
(0.987176 -0.309593 -1.22447e-19)
(0.994345 -0.288226 1.03152e-19)
(1.00145 -0.26906 4.60426e-19)
(1.0094 -0.251707 -4.33431e-19)
(1.00667 -0.454751 -5.19486e-20)
(1.01396 -0.425138 -1.073e-19)
(1.01975 -0.396426 -2.047e-19)
(1.02468 -0.369179 1.59897e-19)
(1.02914 -0.343648 8.06828e-21)
(1.03334 -0.319927 3.83936e-20)
(1.03726 -0.298192 2.8467e-19)
(1.0409 -0.278579 -2.12716e-19)
(1.04546 -0.259415 7.23495e-20)
(1.07766 -0.372254 -7.47072e-20)
(1.07884 -0.347231 -6.21042e-20)
(1.07991 -0.323782 1.41113e-19)
(1.08084 -0.302166 1.22315e-19)
(1.08147 -0.282534 -1.1281e-19)
(1.08274 -0.263031 -2.9422e-20)
(1.12365 -0.300454 -1.49221e-20)
(1.12157 -0.281179 1.20546e-20)
(1.11988 -0.261984 6.87486e-20)
(0.833195 -0.0183736 1.33823e-19)
(0.847849 -0.0167892 -5.63265e-20)
(0.861184 -0.0152324 4.88417e-20)
(0.873304 -0.0138091 -6.35407e-20)
(0.88433 -0.0125346 5.603e-20)
(0.89438 -0.0113986 -6.05257e-20)
(0.903556 -0.0103855 -2.89646e-20)
(0.911951 -0.00947981 4.27669e-20)
(0.919645 -0.00866773 -1.6601e-21)
(0.926708 -0.0079374 1.95825e-20)
(0.933201 -0.00727864 3.30459e-20)
(0.939177 -0.00668266 -2.17748e-20)
(0.944685 -0.00614192 -4.48396e-20)
(0.949765 -0.0056499 4.81785e-20)
(0.954455 -0.00520094 -4.58584e-20)
(0.958787 -0.00479016 4.8579e-20)
(0.962791 -0.00441328 1.4791e-20)
(0.966492 -0.00406658 2.70134e-21)
(0.969913 -0.00374681 -5.36684e-20)
(0.973075 -0.0034511 -1.38961e-20)
(0.975997 -0.0031772 -3.56258e-21)
(0.9787 -0.00292369 3.44782e-20)
(0.981194 -0.00268868 -1.23112e-20)
(0.983488 -0.00246589 -1.72537e-20)
(0.985594 -0.00225669 4.07884e-20)
(0.987526 -0.00206024 -1.51805e-20)
(0.989292 -0.00187507 -2.3953e-20)
(0.990901 -0.0016999 3.29776e-20)
(0.992361 -0.00153363 -8.8602e-22)
(0.993679 -0.00137528 -3.04042e-20)
(0.994861 -0.00122395 1.39564e-20)
(0.995911 -0.00107882 8.97763e-21)
(0.996835 -0.000939144 4.4409e-22)
(0.997635 -0.000804208 -2.22209e-22)
(0.998316 -0.000673352 -4.8496e-21)
(0.99888 -0.000545951 -2.20723e-22)
(0.999329 -0.00042142 3.02051e-21)
(0.999665 -0.000299211 -6.01423e-21)
(0.999883 -0.000178776 3.00195e-21)
(0.999985 -5.94472e-05 -4.58425e-22)
(0.838327 -0.0547088 -2.29813e-19)
(0.852309 -0.0500196 -1.07578e-19)
(0.86503 -0.0454076 1.07531e-19)
(0.876616 -0.0411853 -1.79548e-19)
(0.887187 -0.0374003 2.76411e-19)
(0.896847 -0.0340237 1.74091e-19)
(0.905692 -0.0310098 -2.50565e-19)
(0.913804 -0.0283136 1.75345e-20)
(0.921254 -0.0258946 5.65475e-20)
(0.928107 -0.023718 -6.20572e-20)
(0.934419 -0.0217538 1.44405e-19)
(0.940239 -0.019976 -1.96089e-19)
(0.94561 -0.0183624 2.29438e-19)
(0.950572 -0.0168937 -2.62159e-19)
(0.955158 -0.015553 1.63297e-19)
(0.9594 -0.014326 -1.22569e-20)
(0.963324 -0.0131999 -7.43025e-20)
(0.966955 -0.0121636 1.14217e-20)
(0.970315 -0.0112073 3.44096e-20)
(0.973422 -0.0103225 -3.66935e-20)
(0.976293 -0.00950168 6.37787e-20)
(0.978948 -0.00873894 4.52959e-21)
(0.981409 -0.0080304 1.58e-20)
(0.983678 -0.00737188 -5.64386e-20)
(0.985756 -0.0067499 1.01117e-19)
(0.98766 -0.00616393 -1.65488e-19)
(0.989403 -0.00561084 6.46756e-20)
(0.990993 -0.00508731 -2.43552e-20)
(0.992436 -0.00459019 3.12378e-20)
(0.993739 -0.00411663 -1.76403e-20)
(0.994908 -0.00366399 4.23986e-20)
(0.995947 -0.00322983 -4.16053e-20)
(0.996861 -0.0028119 1.89336e-20)
(0.997653 -0.0024081 1.36872e-21)
(0.998328 -0.00201646 1.59871e-20)
(0.998886 -0.0016351 -9.03069e-21)
(0.999332 -0.00126226 -9.10058e-21)
(0.999665 -0.000896308 1.29093e-20)
(0.999881 -0.000535585 -7.92761e-21)
(0.999984 -0.000178102 -2.08359e-21)
(0.848523 -0.0898133 -4.44265e-21)
(0.861178 -0.0822108 -5.08293e-19)
(0.87268 -0.074718 -1.32459e-19)
(0.883211 -0.0678397 2.7259e-19)
(0.892876 -0.0616597 -6.84263e-19)
(0.901765 -0.056136 1.67998e-19)
(0.90995 -0.0511975 1.64244e-19)
(0.917497 -0.0467732 2.75457e-20)
(0.924463 -0.0427989 2.30218e-19)
(0.930899 -0.0392191 7.16134e-20)
(0.936851 -0.0359853 -4.07317e-19)
(0.942358 -0.033056 1.39747e-19)
(0.947459 -0.0303953 1.57048e-19)
(0.952185 -0.0279718 2.21781e-21)
(0.956565 -0.0257585 6.51741e-20)
(0.960627 -0.0237317 -1.737e-19)
(0.964394 -0.0218708 -1.16768e-20)
(0.967887 -0.0201575 4.72175e-20)
(0.971125 -0.0185759 -1.61103e-19)
(0.974126 -0.017112 6.2203e-20)
(0.976904 -0.015753 1.2472e-19)
(0.979471 -0.0144881 7.14585e-20)
(0.981837 -0.0133091 -1.36206e-19)
(0.984036 -0.0122113 -6.51383e-20)
(0.986069 -0.0111859 8.46852e-20)
(0.987927 -0.01022 -2.34908e-20)
(0.989626 -0.00930539 2.94418e-20)
(0.991177 -0.00843893 8.75081e-20)
(0.992586 -0.00761547 -1.05324e-19)
(0.993859 -0.00683079 -5.52816e-20)
(0.995002 -0.0060806 7.31918e-20)
(0.996019 -0.00536089 -1.5574e-20)
(0.996914 -0.00466795 7.34733e-20)
(0.99769 -0.00399828 -6.24183e-20)
(0.998352 -0.0033486 -3.26196e-20)
(0.9989 -0.0027158 4.3156e-20)
(0.999338 -0.00209695 2.18615e-20)
(0.999666 -0.00148931 -1.02328e-20)
(0.99988 -0.000890091 -5.66757e-21)
(0.999983 -0.000296011 -2.60834e-21)
(0.86365 -0.122891 2.78281e-19)
(0.874357 -0.112688 4.33862e-19)
(0.884064 -0.102602 -5.21338e-19)
(0.893034 -0.0933028 9.43498e-20)
(0.901359 -0.0849175 4.10367e-19)
(0.909102 -0.0774003 -1.44826e-19)
(0.916307 -0.0706624 -2.6021e-19)
(0.923015 -0.0646127 8.94234e-20)
(0.92926 -0.0591681 -6.41688e-20)
(0.935075 -0.0542556 3.25682e-19)
(0.940489 -0.0498115 5.73314e-20)
(0.945532 -0.0457807 1.30508e-19)
(0.950228 -0.0421152 -6.63685e-19)
(0.954602 -0.0387734 -3.50086e-20)
(0.958676 -0.0357188 4.6797e-19)
(0.962469 -0.0329196 -5.09734e-19)
(0.966 -0.0303479 4.35736e-19)
(0.969285 -0.0279792 -1.18592e-19)
(0.972341 -0.0257917 8.4029e-20)
(0.975181 -0.0237666 -3.75872e-20)
(0.977819 -0.0218867 7.79977e-20)
(0.980265 -0.0201369 -1.06012e-19)
(0.982524 -0.0185029 9.49253e-21)
(0.984604 -0.016973 1.93695e-19)
(0.986531 -0.015543 -5.65134e-20)
(0.988322 -0.0141987 7.34345e-20)
(0.989963 -0.0129335 -2.50033e-19)
(0.991457 -0.0117347 2.02746e-19)
(0.992815 -0.0105905 -1.92507e-19)
(0.994043 -0.00950017 3.03021e-20)
(0.995147 -0.00845819 6.86256e-20)
(0.99613 -0.00745844 1.43012e-21)
(0.996996 -0.0064957 -4.19962e-20)
(0.997749 -0.00556508 -5.36131e-21)
(0.99839 -0.00466196 3.47836e-20)
(0.998923 -0.00378197 5.51167e-22)
(0.999349 -0.00292099 -5.61401e-21)
(0.999668 -0.00207517 -5.97831e-21)
(0.999878 -0.00124055 1.25785e-20)
(0.999981 -0.000412605 -4.7191e-21)
(0.883549 -0.15316 -1.5879e-19)
(0.891735 -0.140781 -6.86782e-19)
(0.899106 -0.128498 -5.25633e-19)
(0.906034 -0.117104 3.16661e-19)
(0.912601 -0.106779 -1.16393e-20)
(0.918836 -0.0974857 -2.26513e-19)
(0.924751 -0.0891263 3.62218e-19)
(0.93035 -0.0815977 -2.25743e-19)
(0.935642 -0.0748038 4.62197e-21)
(0.940635 -0.068659 5.98249e-19)
(0.945339 -0.0630883 -3.04598e-19)
(0.949765 -0.0580259 -3.47159e-19)
(0.953925 -0.0534145 1.96859e-19)
(0.957832 -0.049204 1.32958e-19)
(0.961498 -0.0453503 2.40789e-19)
(0.964933 -0.0418147 -3.14256e-19)
(0.96815 -0.0385633 -1.10027e-19)
(0.97116 -0.035566 5.46954e-19)
(0.973973 -0.0327962 -3.38232e-19)
(0.976598 -0.0302304 -2.44845e-19)
(0.979045 -0.0278476 2.1979e-19)
(0.981323 -0.0256293 -2.04381e-19)
(0.983439 -0.0235585 1.17483e-19)
(0.985397 -0.0216183 1.05281e-19)
(0.987204 -0.0197933 -1.54192e-19)
(0.988868 -0.0180781 8.43451e-20)
(0.990408 -0.0164607 1.65461e-19)
(0.991836 -0.0149285 -2.83777e-19)
(0.993135 -0.0134794 2.5911e-19)
(0.9943 -0.0120995 -2.1295e-19)
(0.995348 -0.0107779 1.81526e-19)
(0.996285 -0.00950712 -6.34695e-20)
(0.997111 -0.00828238 -1.62942e-20)
(0.997831 -0.00709798 -1.88951e-20)
(0.998445 -0.00594801 6.6835e-20)
(0.998956 -0.00482684 -5.03283e-20)
(0.999365 -0.00372925 -1.66576e-20)
(0.999673 -0.00265028 1.58844e-20)
(0.999877 -0.00158481 1.05845e-20)
(0.99998 -0.000527166 -7.87274e-21)
(0.908082 -0.179989 -5.04246e-19)
(0.913226 -0.165957 1.68295e-19)
(0.917749 -0.151974 4.10894e-19)
(0.922178 -0.138897 -5.88012e-20)
(0.926583 -0.126965 5.1447e-20)
(0.93096 -0.116161 1.40069e-19)
(0.93528 -0.106393 2.14658e-19)
(0.93951 -0.0975574 -3.19061e-19)
(0.943622 -0.0895532 -1.73497e-19)
(0.947598 -0.0822895 -2.29832e-19)
(0.951421 -0.0756854 5.08469e-19)
(0.955083 -0.0696691 -2.73776e-19)
(0.958579 -0.0641771 1.60278e-19)
(0.961906 -0.0591534 -5.22061e-19)
(0.965063 -0.0545484 5.44588e-19)
(0.968054 -0.0503181 -1.63882e-19)
(0.970879 -0.0464235 1.91864e-19)
(0.973544 -0.0428299 -6.07017e-20)
(0.976052 -0.0395066 6.5963e-20)
(0.978408 -0.036426 -2.28321e-19)
(0.980617 -0.0335637 -1.47274e-19)
(0.982683 -0.0308977 -1.33584e-19)
(0.984612 -0.0284082 1.17522e-19)
(0.986408 -0.026077 2.19363e-19)
(0.988075 -0.023887 -1.31194e-19)
(0.989618 -0.0218222 2.92249e-19)
(0.991039 -0.0198699 -2.86971e-19)
(0.992335 -0.0180247 -2.30545e-21)
(0.993523 -0.0162775 -1.65472e-20)
(0.994616 -0.0146096 6.07825e-20)
(0.995605 -0.0130137 -9.31218e-20)
(0.996488 -0.0114832 9.89528e-20)
(0.997265 -0.0100084 -2.74333e-21)
(0.997941 -0.00858111 1.70896e-20)
(0.99852 -0.00719398 9.26829e-21)
(0.999003 -0.00584016 4.33384e-20)
(0.99939 -0.00451386 -8.1351e-20)
(0.999683 -0.00320912 3.73454e-20)
(0.999879 -0.00191959 -2.4562e-20)
(0.99998 -0.00063856 1.37681e-20)
(0.937237 -0.202398 1.48722e-18)
(0.938849 -0.187173 -7.62196e-19)
(0.940045 -0.171959 -7.30168e-20)
(0.94155 -0.157616 -8.93746e-19)
(0.943418 -0.144453 8.79938e-19)
(0.945606 -0.132478 4.21467e-19)
(0.948039 -0.121605 -1.4555e-18)
(0.950642 -0.11173 1.57084e-18)
(0.953348 -0.10275 -1.39791e-19)
(0.956104 -0.0945721 -1.28371e-18)
(0.958869 -0.0871124 6.35786e-19)
(0.961609 -0.0802957 5.55478e-19)
(0.964299 -0.0740555 -2.39372e-19)
(0.966922 -0.0683324 -1.22704e-19)
(0.969462 -0.0630735 1.87144e-19)
(0.97191 -0.0582321 4.24371e-20)
(0.974257 -0.053766 -2.12379e-20)
(0.9765 -0.0496378 -3.03047e-20)
(0.978635 -0.045814 -5.00122e-19)
(0.98066 -0.0422646 3.8479e-19)
(0.982576 -0.0389625 3.9692e-20)
(0.984382 -0.0358836 -1.66419e-19)
(0.986079 -0.0330059 -1.15981e-19)
(0.987668 -0.0303095 1.60305e-20)
(0.989153 -0.0277763 1.19208e-19)
(0.990534 -0.0253897 -6.13231e-20)
(0.991813 -0.023135 9.01539e-20)
(0.99299 -0.0209979 6.94278e-20)
(0.994071 -0.0189611 -9.18061e-20)
(0.995057 -0.0170194 -1.19314e-19)
(0.995948 -0.0151636 1.66887e-19)
(0.996747 -0.0133835 -1.15299e-19)
(0.99746 -0.0116672 8.41417e-21)
(0.998083 -0.0100057 1.42553e-19)
(0.998619 -0.00839102 -2.22219e-20)
(0.999066 -0.0068155 4.47651e-20)
(0.999425 -0.00527095 -9.7496e-20)
(0.999698 -0.00374959 1.90416e-20)
(0.999883 -0.00224394 9.86951e-21)
(0.999981 -0.000746589 2.65373e-21)
(0.972152 -0.221486 2.59312e-19)
(0.969414 -0.206288 1.99403e-19)
(0.966547 -0.190806 -7.98873e-20)
(0.964509 -0.175964 1.61499e-19)
(0.963326 -0.162135 1.05776e-19)
(0.9629 -0.149367 -1.37051e-18)
(0.963096 -0.137618 5.07319e-19)
(0.963779 -0.126822 -2.25807e-19)
(0.964833 -0.116909 -4.02472e-19)
(0.966162 -0.107806 1.28151e-18)
(0.967691 -0.0994457 -3.38061e-19)
(0.969356 -0.0917628 -9.0101e-19)
(0.97111 -0.0846971 7.70372e-19)
(0.972913 -0.0781927 -1.96961e-19)
(0.974734 -0.0721983 4.21571e-19)
(0.976548 -0.0666667 -1.97932e-19)
(0.978337 -0.0615549 -3.87142e-19)
(0.980085 -0.0568237 3.28231e-19)
(0.981782 -0.0524373 1.87645e-19)
(0.983418 -0.0483634 3.82423e-20)
(0.984987 -0.0445723 5.32834e-20)
(0.986483 -0.0410371 -5.92563e-20)
(0.987904 -0.0377334 -4.17698e-19)
(0.989247 -0.0346387 1.05165e-19)
(0.990511 -0.0317327 4.61319e-19)
(0.991695 -0.0289968 3.03631e-20)
(0.992797 -0.026414 -4.8031e-19)
(0.99382 -0.023968 2.08602e-19)
(0.994762 -0.0216437 6.15667e-20)
(0.995624 -0.0194285 -1.43223e-19)
(0.996407 -0.0173098 -3.43055e-20)
(0.997111 -0.0152747 -1.7849e-20)
(0.997738 -0.0133139 -1.15648e-19)
(0.998287 -0.0114173 -1.05209e-10)
(0.998759 -0.00957512 1.04791e-10)
(0.999155 -0.00777806 6.33444e-20)
(0.999476 -0.00601612 2.15979e-20)
(0.999722 -0.00428028 -9.39814e-21)
(0.999892 -0.0025621 -6.49537e-21)
(0.999983 -0.000853512 1.33161e-20)
(1.00597 -0.223026 -2.0607e-27)
(0.999096 -0.209174 8.08353e-28)
(0.992731 -0.19428 0)
(0.987903 -0.180001 0)
(0.984354 -0.166605 0)
(0.981825 -0.154127 1.19059e-27)
(0.98012 -0.142546 -4.20446e-28)
(0.979078 -0.131824 0)
(0.978569 -0.121911 -9.81192e-28)
(0.978484 -0.112753 -3.30986e-27)
(0.978734 -0.104296 5.99608e-27)
(0.979246 -0.0964856 0)
(0.979958 -0.0892712 -9.94829e-28)
(0.980822 -0.0826031 0)
(0.981796 -0.0764347 4.40641e-27)
(0.982846 -0.070723 0)
(0.983947 -0.0654278 0)
(0.985074 -0.060512 0)
(0.98621 -0.0559414 0)
(0.987339 -0.0516848 0)
(0.988451 -0.0477134 0)
(0.989534 -0.0440006 5.74829e-27)
(0.990582 -0.0405224 -5.74844e-27)
(0.991588 -0.0372563 0)
(0.992547 -0.034182 0)
(0.993456 -0.0312806 -9.54112e-28)
(0.994311 -0.0285349 -1.24142e-27)
(0.995111 -0.0259287 0)
(0.995853 -0.0234471 0)
(0.996537 -0.0210764 -5.56172e-27)
(0.997161 -0.0188036 6.78864e-27)
(0.997725 -0.0166163 4.1605e-27)
(0.998227 -0.0145034 0)
(0.998668 -0.0124541 -2.05073e-10)
(0.999047 -0.010458 2.05081e-10)
(0.999364 -0.0085047 0)
(0.999618 -0.00658517 0)
(0.999809 -0.00469018 -4.40887e-29)
(0.999933 -0.00281077 1.25806e-27)
(0.999992 -0.000938197 8.2224e-28)
(1.02706 -0.198624 2.0639e-27)
(1.01953 -0.188797 -8.1021e-28)
(1.01249 -0.177719 0)
(1.00674 -0.166688 0)
(1.00209 -0.156017 0)
(0.998391 -0.145815 8.49774e-27)
(0.99549 -0.13613 -9.26951e-27)
(0.993269 -0.12698 0)
(0.991616 -0.118367 9.83134e-28)
(0.990438 -0.110279 -8.60392e-27)
(0.989654 -0.102698 5.91265e-27)
(0.989193 -0.0956016 0)
(0.988997 -0.0889635 9.96683e-28)
(0.989015 -0.0827566 0)
(0.989205 -0.0769531 -4.4144e-27)
(0.98953 -0.0715255 0)
(0.98996 -0.0664469 0)
(0.990469 -0.0616915 0)
(0.991036 -0.0572344 0)
(0.991642 -0.0530522 0)
(0.992273 -0.0491229 0)
(0.992916 -0.0454254 0)
(0.993561 -0.0419403 0)
(0.994197 -0.0386491 0)
(0.994819 -0.0355348 0)
(0.995421 -0.0325812 9.55584e-28)
(0.995996 -0.0297731 1.2433e-27)
(0.996542 -0.0270964 0)
(0.997055 -0.0245379 0)
(0.997532 -0.0220848 0)
(0.997971 -0.0197254 -1.22845e-27)
(0.99837 -0.0174484 -4.16614e-27)
(0.998728 -0.015243 0)
(0.999043 -0.0130991 -2.0082e-10)
(0.999314 -0.0110065 2.0082e-10)
(0.999542 -0.00895583 0)
(0.999725 -0.00693772 0)
(0.999862 -0.00494322 -7.89489e-27)
(0.999952 -0.0029633 6.6796e-27)
(0.999994 -0.000988719 -8.22998e-28)
(1.04228 -0.181402 -1.4345e-27)
(1.03473 -0.1736 -2.1496e-27)
(1.02768 -0.164765 2.66525e-27)
(1.02166 -0.155833 0)
(1.01654 -0.147039 0)
(1.01221 -0.138482 2.60279e-27)
(1.0086 -0.130219 -1.91525e-27)
(1.00561 -0.12229 0)
(1.00316 -0.114717 3.42983e-27)
(1.00118 -0.107509 -1.40039e-27)
(0.999597 -0.100669 3.53621e-27)
(0.998362 -0.094191 0)
(0.997421 -0.0880671 5.6426e-28)
(0.996726 -0.0822839 -1.23195e-27)
(0.996239 -0.0768266 0)
(0.995925 -0.0716788 5.74323e-28)
(0.995754 -0.0668234 0)
(0.995701 -0.0622428 4.98569e-27)
(0.995742 -0.0579197 -4.98569e-27)
(0.995859 -0.0538367 0)
(0.996035 -0.049977 0)
(0.996257 -0.0463244 5.08902e-27)
(0.996511 -0.0428632 -5.66916e-27)
(0.996789 -0.0395782 5.79954e-28)
(0.99708 -0.0364553 6.23042e-28)
(0.997379 -0.0334806 0)
(0.997677 -0.0306412 1.25463e-27)
(0.99797 -0.0279244 6.21686e-28)
(0.998254 -0.0253186 0)
(0.998524 -0.0228123 -3.67439e-27)
(0.998778 -0.0203947 4.34894e-27)
(0.999012 -0.0180554 0)
(0.999225 -0.0157845 5.76112e-28)
(0.999415 -0.0135723 -1.96062e-10)
(0.999579 -0.0114095 1.96062e-10)
(0.999718 -0.00928701 -5.7515e-28)
(0.999831 -0.00719607 0)
(0.999915 -0.0051281 -6.17798e-28)
(0.99997 -0.00307438 -1.24561e-27)
(0.999996 -0.00102584 0)
(1.05373 -0.165405 1.43353e-27)
(1.04644 -0.159113 1.21509e-27)
(1.0396 -0.151943 -1.73073e-27)
(1.03356 -0.144625 0)
(1.02825 -0.137331 0)
(1.0236 -0.130142 -8.09124e-11)
(1.01955 -0.123111 8.09124e-11)
(1.01606 -0.116278 0)
(1.01305 -0.109673 -3.42983e-27)
(1.01049 -0.103314 1.40039e-27)
(1.00831 -0.0972136 -3.53621e-27)
(1.00648 -0.0913773 0)
(1.00494 -0.0858058 -5.6426e-28)
(1.00367 -0.0804963 4.67311e-27)
(1.00262 -0.0754429 -3.44116e-27)
(1.00177 -0.0706376 -5.74323e-28)
(1.00108 -0.0660706 0)
(1.00053 -0.0617314 0)
(1.00011 -0.0576085 0)
(0.999791 -0.05369 0)
(0.999557 -0.0499638 0)
(0.999395 -0.0464177 -4.20629e-27)
(0.999292 -0.0430399 4.78643e-27)
(0.999238 -0.0398184 -5.79954e-28)
(0.999222 -0.0367417 -6.23042e-28)
(0.999236 -0.0337984 0)
(0.999274 -0.0309778 -1.25463e-27)
(0.999329 -0.028269 -6.21686e-28)
(0.999396 -0.025662 0)
(0.99947 -0.0231467 4.20272e-27)
(0.999547 -0.0207135 -4.87728e-27)
(0.999625 -0.018353 0)
(0.9997 -0.0160563 -5.76112e-28)
(0.999769 -0.0138146 -9.55947e-11)
(0.999832 -0.0116191 9.55947e-11)
(0.999887 -0.00946146 5.7515e-28)
(0.999932 -0.00733351 0)
(0.999966 -0.00522714 -5.59042e-28)
(0.999988 -0.0031341 2.42245e-27)
(0.999999 -0.00104575 0)
(1.06233 -0.150139 0)
(1.05535 -0.14506 -2.79745e-11)
(1.04877 -0.139228 -2.99521e-11)
(1.04284 -0.133224 0)
(1.0375 -0.12718 0)
(1.03271 -0.121156 -7.40487e-11)
(1.02843 -0.1152 7.40487e-11)
(1.02463 -0.10935 0)
(1.02127 -0.103633 0)
(1.0183 -0.0980737 0)
(1.0157 -0.0926876 0)
(1.01342 -0.0874861 0)
(1.01143 -0.0824762 7.6813e-28)
(1.0097 -0.0776612 -6.23933e-29)
(1.0082 -0.0730414 1.07942e-27)
(1.00691 -0.0686149 0)
(1.0058 -0.0643775 0)
(1.00484 -0.0603239 -5.15345e-27)
(1.00403 -0.0564475 5.15345e-27)
(1.00333 -0.0527408 0)
(1.00274 -0.0491958 0)
(1.00224 -0.0458039 0)
(1.00183 -0.0425564 0)
(1.00148 -0.0394444 0)
(1.00118 -0.0364589 0)
(1.00094 -0.0335909 0)
(1.00075 -0.0308316 0)
(1.00058 -0.0281722 0)
(1.00045 -0.0256041 0)
(1.00035 -0.0231187 0)
(1.00026 -0.0207077 0)
(1.00019 -0.0183629 0)
(1.00014 -0.0160764 0)
(1.0001 -0.0138401 -5.30711e-27)
(1.00007 -0.0116463 5.30711e-27)
(1.00004 -0.00948737 0)
(1.00003 -0.00735575 0)
(1.00001 -0.005244 0)
(1 -0.00314447 0)
(1 -0.00104916 0)
(1.06862 -0.135833 0)
(1.06197 -0.131732 2.79745e-11)
(1.05569 -0.126976 2.99521e-11)
(1.04994 -0.122037 0)
(1.04467 -0.117019 0)
(1.03985 -0.11197 4.10919e-27)
(1.03548 -0.106931 -4.10919e-27)
(1.03151 -0.101933 0)
(1.02793 -0.0970055 0)
(1.0247 -0.0921696 0)
(1.0218 -0.0874437 0)
(1.01921 -0.0828413 0)
(1.01689 -0.0783728 -7.6813e-28)
(1.01482 -0.0740449 -1.01703e-27)
(1.01297 -0.0698618 0)
(1.01134 -0.0658255 0)
(1.00988 -0.0619358 0)
(1.00859 -0.0581911 0)
(1.00745 -0.0545884 0)
(1.00644 -0.0511237 0)
(1.00555 -0.0477921 0)
(1.00477 -0.0445881 -4.74978e-27)
(1.00408 -0.0415056 4.74978e-27)
(1.00348 -0.0385381 0)
(1.00294 -0.0356791 0)
(1.00248 -0.0329216 8.96543e-11)
(1.00207 -0.0302586 -8.96543e-11)
(1.00172 -0.0276831 0)
(1.00141 -0.0251878 0)
(1.00114 -0.0227658 0)
(1.00091 -0.02041 0)
(1.00071 -0.0181132 0)
(1.00054 -0.0158686 0)
(1.0004 -0.0136692 -9.07152e-11)
(1.00028 -0.011508 9.07152e-11)
(1.00019 -0.00937826 0)
(1.00011 -0.0072732 0)
(1.00006 -0.00518607 -6.06423e-27)
(1.00002 -0.00310996 6.06423e-27)
(1 -0.00103759 0)
(1.07304 -0.122425 8.09314e-28)
(1.06673 -0.119118 -2.54098e-27)
(1.06076 -0.115235 1.60241e-27)
(1.05523 -0.111168 0)
(1.05009 -0.106999 0)
(1.04534 -0.102769 1.19159e-27)
(1.04095 -0.0985102 -1.19159e-27)
(1.03692 -0.0942515 1.20151e-27)
(1.03323 -0.0900174 -1.80654e-28)
(1.02984 -0.085829 0)
(1.02676 -0.081704 0)
(1.02394 -0.0776565 0)
(1.02139 -0.0736981 1.99987e-28)
(1.01907 -0.0698374 4.68707e-28)
(1.01697 -0.0660808 0)
(1.01506 -0.0624326 0)
(1.01334 -0.0588952 0)
(1.01179 -0.0554697 -3.85648e-27)
(1.01039 -0.0521555 3.85648e-27)
(1.00912 -0.0489512 2.20326e-28)
(1.00799 -0.0458544 -2.83521e-27)
(1.00697 -0.0428617 3.98013e-27)
(1.00605 -0.0399694 -3.98013e-27)
(1.00523 -0.037173 0)
(1.00449 -0.0344679 0)
(1.00383 -0.0318488 1.73496e-10)
(1.00324 -0.0293104 -1.73496e-10)
(1.00272 -0.0268472 0)
(1.00226 -0.0244535 0)
(1.00185 -0.0221234 4.10618e-27)
(1.00149 -0.0198511 -4.10618e-27)
(1.00117 -0.0176305 2.98062e-27)
(1.0009 -0.0154559 -2.34066e-28)
(1.00067 -0.0133211 -8.83392e-11)
(1.00047 -0.0112201 8.83392e-11)
(1.00031 -0.009147 0)
(1.00019 -0.00709577 0)
(1.00009 -0.00506044 -3.81989e-27)
(1.00003 -0.00303484 3.27874e-27)
(1 -0.00101249 -2.08225e-28)
(1.07596 -0.109872 -8.08953e-28)
(1.07 -0.107209 -2.20541e-27)
(1.06435 -0.104039 3.14397e-27)
(1.05906 -0.100689 0)
(1.0541 -0.097227 0)
(1.04945 -0.0936856 -5.90948e-11)
(1.04512 -0.0900923 5.90948e-11)
(1.04109 -0.0864714 -1.20151e-27)
(1.03735 -0.0828448 1.80654e-28)
(1.03389 -0.0792313 0)
(1.03069 -0.0756475 0)
(1.02775 -0.0721071 0)
(1.02503 -0.0686219 -1.99987e-28)
(1.02254 -0.065201 -4.68707e-28)
(1.02024 -0.0618521 0)
(1.01814 -0.0585806 0)
(1.01622 -0.0553906 0)
(1.01446 -0.0522846 0)
(1.01286 -0.0492641 0)
(1.01139 -0.0463293 -2.20326e-28)
(1.01006 -0.0434794 2.83521e-27)
(1.00884 -0.0407131 0)
(1.00774 -0.0380281 0)
(1.00673 -0.0354217 0)
(1.00582 -0.0328907 0)
(1.005 -0.0304314 8.39966e-11)
(1.00426 -0.0280398 -8.39966e-11)
(1.00359 -0.0257118 0)
(1.003 -0.0234429 0)
(1.00247 -0.0212283 0)
(1.00199 -0.0190633 0)
(1.00158 -0.016943 -2.98062e-27)
(1.00122 -0.0148624 2.34066e-28)
(1.00091 -0.0128163 0)
(1.00064 -0.0107997 0)
(1.00043 -0.00880732 0)
(1.00026 -0.00683403 0)
(1.00013 -0.00487458 5.41143e-28)
(1.00004 -0.00292358 0)
(1.00001 -0.000975329 2.08225e-28)
(1.07772 -0.0981296 0)
(1.07211 -0.0959868 0)
(1.06677 -0.0934 1.69232e-28)
(1.06173 -0.0906428 0)
(1.05695 -0.08777 -2.50982e-11)
(1.05245 -0.084809 -8.19708e-11)
(1.04821 -0.0817828 5.55576e-11)
(1.04423 -0.078712 1.44179e-27)
(1.0405 -0.0756155 -5.50252e-28)
(1.03702 -0.07251 0)
(1.03377 -0.0694104 -3.18756e-11)
(1.03074 -0.0663295 -3.27619e-11)
(1.02793 -0.0632784 6.17989e-28)
(1.02531 -0.0602666 2.6263e-27)
(1.02289 -0.0573016 3.50605e-11)
(1.02065 -0.0543897 3.57169e-11)
(1.01858 -0.0515357 -6.68357e-28)
(1.01667 -0.0487432 3.01238e-27)
(1.0149 -0.0460145 0)
(1.01328 -0.0433512 0)
(1.01179 -0.0407537 0)
(1.01042 -0.0382219 -3.8709e-11)
(1.00916 -0.0357549 -7.81494e-11)
(1.00801 -0.0333511 -3.94087e-11)
(1.00696 -0.0310085 -3.97129e-11)
(1.006 -0.0287247 -3.99893e-11)
(1.00513 -0.0264969 4.02394e-11)
(1.00434 -0.0243219 8.09299e-11)
(1.00363 -0.0221963 8.13345e-11)
(1.003 -0.0201164 -4.21028e-11)
(1.00243 -0.0180785 8.29505e-11)
(1.00193 -0.0160784 -3.36064e-27)
(1.00149 -0.0141121 7.59344e-28)
(1.00111 -0.0121754 -2.03147e-27)
(1.00079 -0.0102638 4.1457e-11)
(1.00052 -0.00837305 4.1526e-11)
(1.00031 -0.00649863 4.15787e-11)
(1.00016 -0.00463607 4.16149e-11)
(1.00005 -0.00278071 -2.3706e-27)
(1.00001 -0.000927634 0)
(1.07861 -0.0871381 0)
(1.07333 -0.0854173 0)
(1.06828 -0.0833085 -1.69232e-28)
(1.06348 -0.0810415 0)
(1.0589 -0.0786613 2.50982e-11)
(1.05455 -0.0761906 2.64132e-11)
(1.05043 -0.0736483 2.75739e-27)
(1.04653 -0.071052 -1.44179e-27)
(1.04284 -0.0684177 5.50252e-28)
(1.03938 -0.06576 0)
(1.03611 -0.063092 3.18756e-11)
(1.03305 -0.0604254 3.27619e-11)
(1.03018 -0.0577704 -6.17989e-28)
(1.0275 -0.0551359 0)
(1.02499 -0.0525293 -3.50605e-11)
(1.02266 -0.0499569 -3.57169e-11)
(1.02048 -0.0474239 6.68357e-28)
(1.01845 -0.0449343 -3.01238e-27)
(1.01657 -0.0424911 0)
(1.01483 -0.0400965 0)
(1.01321 -0.0377519 0)
(1.01172 -0.0354579 3.8709e-11)
(1.01034 -0.0332144 7.81494e-11)
(1.00907 -0.031021 3.94087e-11)
(1.00791 -0.0288764 3.97129e-11)
(1.00684 -0.0267793 3.99893e-11)
(1.00586 -0.0247276 -4.02394e-11)
(1.00498 -0.0227192 -8.09299e-11)
(1.00417 -0.0207514 -8.13345e-11)
(1.00345 -0.0188215 -1.21607e-10)
(1.0028 -0.0169265 8.07595e-11)
(1.00223 -0.0150631 3.36064e-27)
(1.00172 -0.0132281 -7.59344e-28)
(1.00129 -0.0114179 -8.17987e-11)
(1.00091 -0.00962892 4.03417e-11)
(1.00061 -0.00785748 -4.1526e-11)
(1.00036 -0.00609985 -4.15787e-11)
(1.00018 -0.00435222 -4.16149e-11)
(1.00006 -0.00261062 0)
(1.00001 -0.000870862 0)
(1.07885 -0.0768325 -8.70066e-28)
(1.07388 -0.0754536 6.01032e-28)
(1.06911 -0.0737379 4.0552e-28)
(1.06454 -0.0718779 -3.94531e-28)
(1.06015 -0.0699109 1.1364e-27)
(1.05596 -0.0678553 0)
(1.05196 -0.065727 -1.25492e-27)
(1.04816 -0.0635406 0)
(1.04454 -0.0613097 5.00896e-28)
(1.04111 -0.0590467 -2.14717e-28)
(1.03787 -0.0567632 5.36263e-28)
(1.03481 -0.0544693 0)
(1.03191 -0.0521744 0)
(1.02919 -0.0498864 -1.07392e-27)
(1.02664 -0.0476125 4.47776e-27)
(1.02423 -0.0453586 -6.08248e-28)
(1.02198 -0.0431299 6.20074e-28)
(1.01988 -0.0409304 -3.517e-27)
(1.01791 -0.0387636 3.517e-27)
(1.01608 -0.0366318 -6.51011e-28)
(1.01437 -0.0345371 2.92921e-27)
(1.01278 -0.0324804 8.7245e-28)
(1.01131 -0.0304626 6.75815e-28)
(1.00995 -0.0284835 0)
(1.00869 -0.0265429 -3.05981e-27)
(1.00753 -0.0246398 7.68546e-11)
(1.00647 -0.0227731 -7.68546e-11)
(1.0055 -0.0209412 0)
(1.00462 -0.0191423 0)
(1.00383 -0.0173743 -3.9397e-27)
(1.00311 -0.0156349 3.22202e-27)
(1.00248 -0.0139215 0)
(1.00192 -0.0122315 0)
(1.00143 -0.0105621 -1.59769e-10)
(1.00102 -0.0089103 1.59769e-10)
(1.00068 -0.00727308 0)
(1.00041 -0.00564734 -7.30638e-28)
(1.0002 -0.00402989 -2.26194e-27)
(1.00007 -0.00241741 2.26194e-27)
(1.00001 -0.000806389 6.47535e-28)
(1.07865 -0.0671435 8.69845e-28)
(1.07395 -0.0660422 6.9972e-28)
(1.06943 -0.0646508 -1.70627e-27)
(1.06507 -0.0631303 3.94531e-28)
(1.06088 -0.0615112 -1.1364e-27)
(1.05684 -0.0598087 -4.79496e-11)
(1.05297 -0.0580359 4.79496e-11)
(1.04927 -0.0562047 0)
(1.04573 -0.0543267 -5.00896e-28)