/*--------------------------------*- C++ -*----------------------------------*\
  =========                 |
  \\      /  F ield         | OpenFOAM: The Open Source CFD Toolbox
   \\    /   O peration     | Website:  https://openfoam.org
    \\  /    A nd           | Version:  7
     \\/     M anipulation  |
\*---------------------------------------------------------------------------*/
FoamFile
{
    version     2.0;
    format      ascii;
    class       volScalarField;
    location    "60";
    object      p;
}
// * * * * * * * * * * * * * * * * * * * * * * * * * * * * * * * * * * * * * //

dimensions      [0 2 -2 0 0 0 0];

internalField   nonuniform List<scalar> 
6000
(
-0.236675
-0.237959
-0.239317
-0.250274
-0.240696
-0.250484
-0.242029
-0.250568
-0.243256
-0.251304
-0.25058
-0.244338
-0.251421
-0.250562
-0.245255
-0.251416
-0.250547
-0.246002
-0.251315
-0.250573
-0.246566
-0.252271
-0.251197
-0.250623
-0.246927
-0.252017
-0.251105
-0.250355
-0.247624
-0.25176
-0.250974
-0.250145
-0.248262
-0.251507
-0.250817
-0.250003
-0.248677
-0.251263
-0.250651
-0.249897
-0.248926
-0.251037
-0.250488
-0.24981
-0.249065
-0.250834
-0.250338
-0.249733
-0.249131
-0.250658
-0.250206
-0.249665
-0.249151
-0.250867
-0.250516
-0.250097
-0.249607
-0.249147
-0.250743
-0.250412
-0.250016
-0.249561
-0.249132
-0.250667
-0.250346
-0.249963
-0.249528
-0.249117
-0.219671
-0.208769
-0.198272
-0.188208
-0.178605
-0.169536
-0.161038
-0.153118
-0.145768
-0.138971
-0.1327
-0.126928
-0.121629
-0.116774
-0.112338
-0.108295
-0.104621
-0.101295
-0.0982976
-0.0956096
-0.0932151
-0.0910993
-0.0892493
-0.087654
-0.0863035
-0.0851898
-0.0843062
-0.083647
-0.0832104
-0.0829891
-0.220134
-0.209186
-0.199006
-0.189389
-0.180232
-0.171568
-0.163423
-0.155803
-0.148703
-0.142108
-0.135998
-0.130353
-0.125151
-0.120369
-0.115986
-0.11198
-0.108332
-0.105021
-0.102031
-0.0993441
-0.096947
-0.094826
-0.0929691
-0.0913661
-0.090008
-0.0888872
-0.0879976
-0.0873341
-0.0868946
-0.0866727
-0.220713
-0.209931
-0.200076
-0.190797
-0.181968
-0.173612
-0.165748
-0.158376
-0.151486
-0.145066
-0.1391
-0.133571
-0.12846
-0.123749
-0.11942
-0.115453
-0.111833
-0.108541
-0.105562
-0.102881
-0.100486
-0.0983638
-0.0965038
-0.0948965
-0.0935337
-0.0924084
-0.0915148
-0.0908482
-0.0904064
-0.0901842
-0.221209
-0.210849
-0.201391
-0.192421
-0.183858
-0.175746
-0.168105
-0.160931
-0.154212
-0.147936
-0.14209
-0.136658
-0.131625
-0.126975
-0.122692
-0.11876
-0.115164
-0.111889
-0.10892
-0.106245
-0.103851
-0.101728
-0.0998652
-0.0982541
-0.096887
-0.0957575
-0.0948602
-0.0941906
-0.0937466
-0.0935238
-0.221456
-0.211602
-0.202575
-0.193926
-0.185626
-0.177749
-0.170316
-0.163324
-0.156762
-0.15062
-0.144886
-0.139547
-0.134589
-0.13
-0.125764
-0.121869
-0.1183
-0.115044
-0.112088
-0.109421
-0.107032
-0.10491
-0.103047
-0.101434
-0.100065
-0.0989329
-0.0980331
-0.0973615
-0.096916
-0.0966928
-0.221421
-0.212035
-0.203419
-0.195096
-0.187076
-0.179446
-0.17223
-0.165426
-0.159027
-0.153024
-0.147408
-0.142169
-0.137295
-0.132774
-0.128594
-0.124742
-0.121208
-0.117979
-0.115044
-0.112392
-0.110013
-0.107899
-0.10604
-0.10443
-0.103062
-0.101931
-0.101031
-0.10036
-0.0999137
-0.0996905
-0.221137
-0.212157
-0.203916
-0.195908
-0.188171
-0.180797
-0.173808
-0.167202
-0.160975
-0.155121
-0.149634
-0.144505
-0.139724
-0.135281
-0.131167
-0.12737
-0.123879
-0.120686
-0.117779
-0.11515
-0.112789
-0.110689
-0.108841
-0.107238
-0.105876
-0.104749
-0.103852
-0.103183
-0.102738
-0.102515
-0.220645
-0.212033
-0.204136
-0.196427
-0.188966
-0.181846
-0.175084
-0.16868
-0.16263
-0.156932
-0.151581
-0.146569
-0.14189
-0.137534
-0.133493
-0.129758
-0.12632
-0.12317
-0.120299
-0.117699
-0.115362
-0.113281
-0.111449
-0.109859
-0.108506
-0.107386
-0.106495
-0.105829
-0.105387
-0.105166
-0.219973
-0.21171
-0.204142
-0.196717
-0.189522
-0.182648
-0.176108
-0.169902
-0.16403
-0.158489
-0.153277
-0.148387
-0.143813
-0.139549
-0.135587
-0.13192
-0.12854
-0.125439
-0.12261
-0.120045
-0.117737
-0.115679
-0.113867
-0.112293
-0.110953
-0.109843
-0.108959
-0.108299
-0.10786
-0.107641
-0.219139
-0.21121
-0.203964
-0.196814
-0.189874
-0.183236
-0.176911
-0.170899
-0.165201
-0.159817
-0.154744
-0.149977
-0.145512
-0.141342
-0.137463
-0.133868
-0.13055
-0.127502
-0.124719
-0.122192
-0.119917
-0.117887
-0.116097
-0.114542
-0.113218
-0.11212
-0.111246
-0.110592
-0.110158
-0.109941
-0.218153
-0.210541
-0.203611
-0.196727
-0.190036
-0.183626
-0.177509
-0.171686
-0.16616
-0.16093
-0.155995
-0.151351
-0.146996
-0.142923
-0.139129
-0.135609
-0.132356
-0.129365
-0.12663
-0.124146
-0.121907
-0.119907
-0.118143
-0.11661
-0.115303
-0.114219
-0.113356
-0.11271
-0.112281
-0.112066
-0.217026
-0.209708
-0.203088
-0.196463
-0.190012
-0.183824
-0.17791
-0.172272
-0.166914
-0.161836
-0.157038
-0.152518
-0.148272
-0.144298
-0.140591
-0.137148
-0.133963
-0.131031
-0.128348
-0.125909
-0.123709
-0.121743
-0.120007
-0.118497
-0.11721
-0.116142
-0.11529
-0.114654
-0.114231
-0.114019
-0.215775
-0.208716
-0.202406
-0.196029
-0.18981
-0.183838
-0.178121
-0.172664
-0.16747
-0.162543
-0.157881
-0.153483
-0.149348
-0.145473
-0.141855
-0.138491
-0.135376
-0.132506
-0.129877
-0.127486
-0.125327
-0.123396
-0.121691
-0.120206
-0.11894
-0.11789
-0.117052
-0.116426
-0.116009
-0.1158
-0.214417
-0.207574
-0.201582
-0.195436
-0.189439
-0.183676
-0.178153
-0.172872
-0.167839
-0.163059
-0.158531
-0.154255
-0.150231
-0.146456
-0.142927
-0.139643
-0.1366
-0.133794
-0.131222
-0.128879
-0.126764
-0.124871
-0.123198
-0.121741
-0.120498
-0.119466
-0.118642
-0.118027
-0.117617
-0.117412
-0.212968
-0.206288
-0.200635
-0.194696
-0.188912
-0.183353
-0.178016
-0.172905
-0.16803
-0.163393
-0.158997
-0.154843
-0.150928
-0.147252
-0.143814
-0.140611
-0.137641
-0.1349
-0.132386
-0.130095
-0.128024
-0.12617
-0.124531
-0.123103
-0.121884
-0.120872
-0.120064
-0.11946
-0.119058
-0.118857
-0.211425
-0.204876
-0.199584
-0.193817
-0.188241
-0.18288
-0.177722
-0.172775
-0.168051
-0.163555
-0.159289
-0.155253
-0.151447
-0.14787
-0.144522
-0.141401
-0.138504
-0.135829
-0.133374
-0.131136
-0.129111
-0.127298
-0.125694
-0.124296
-0.123103
-0.122111
-0.12132
-0.120727
-0.120333
-0.120136
-0.209755
-0.203375
-0.198435
-0.192804
-0.187439
-0.182269
-0.177279
-0.172489
-0.167912
-0.163552
-0.159413
-0.155493
-0.151794
-0.148316
-0.145058
-0.142018
-0.139195
-0.136587
-0.134192
-0.132007
-0.13003
-0.128259
-0.126691
-0.125324
-0.124156
-0.123186
-0.122412
-0.121832
-0.121446
-0.121254
-0.207939
-0.201858
-0.197182
-0.191668
-0.186526
-0.18153
-0.176696
-0.172055
-0.16762
-0.163393
-0.159376
-0.15557
-0.151977
-0.148596
-0.145426
-0.142468
-0.139719
-0.137179
-0.134844
-0.132713
-0.130785
-0.129056
-0.127525
-0.12619
-0.125049
-0.124101
-0.123344
-0.122778
-0.1224
-0.122212
-0.20605
-0.200368
-0.195803
-0.190432
-0.185511
-0.180663
-0.175976
-0.171481
-0.167182
-0.163083
-0.159185
-0.15549
-0.152
-0.148715
-0.145634
-0.142756
-0.140082
-0.137608
-0.135334
-0.133258
-0.131379
-0.129693
-0.1282
-0.126897
-0.125784
-0.124859
-0.12412
-0.123567
-0.123198
-0.123014
-0.204153
-0.19885
-0.194274
-0.189128
-0.184387
-0.179669
-0.175128
-0.170772
-0.166604
-0.162628
-0.158845
-0.155259
-0.15187
-0.148679
-0.145685
-0.142888
-0.140287
-0.137881
-0.135668
-0.133647
-0.131816
-0.130174
-0.12872
-0.12745
-0.126365
-0.125463
-0.124742
-0.124203
-0.123843
-0.123664
-0.202243
-0.19722
-0.192652
-0.187766
-0.183138
-0.178559
-0.174158
-0.169934
-0.165891
-0.162033
-0.158363
-0.154882
-0.151592
-0.148494
-0.145586
-0.142868
-0.14034
-0.138001
-0.135849
-0.133884
-0.132103
-0.130505
-0.129088
-0.127853
-0.126796
-0.125917
-0.125215
-0.12469
-0.124339
-0.124165
-0.200294
-0.195473
-0.190982
-0.186301
-0.181776
-0.177338
-0.173069
-0.168971
-0.165047
-0.161303
-0.157741
-0.154364
-0.151171
-0.148163
-0.14534
-0.142701
-0.140246
-0.137974
-0.135883
-0.133973
-0.132241
-0.130687
-0.12931
-0.128108
-0.12708
-0.126225
-0.125542
-0.125031
-0.12469
-0.12452
-0.198295
-0.193635
-0.189255
-0.184726
-0.180315
-0.176009
-0.171863
-0.167884
-0.164075
-0.160441
-0.156986
-0.153709
-0.150611
-0.147692
-0.144953
-0.142392
-0.140009
-0.137803
-0.135773
-0.133918
-0.132236
-0.130727
-0.129389
-0.128221
-0.127222
-0.126391
-0.125727
-0.12523
-0.124899
-0.124733
-0.196245
-0.191724
-0.187453
-0.18305
-0.178755
-0.17457
-0.170542
-0.166676
-0.162978
-0.159452
-0.1561
-0.152921
-0.149916
-0.147086
-0.144429
-0.141945
-0.139634
-0.137494
-0.135524
-0.133724
-0.132093
-0.130628
-0.129329
-0.128195
-0.127226
-0.126419
-0.125774
-0.125291
-0.12497
-0.124809
-0.194139
-0.189741
-0.185566
-0.181278
-0.177093
-0.173023
-0.169106
-0.16535
-0.16176
-0.158339
-0.155087
-0.152004
-0.149091
-0.146347
-0.143772
-0.141364
-0.139124
-0.13705
-0.135141
-0.133396
-0.131814
-0.130394
-0.129135
-0.128035
-0.127095
-0.126312
-0.125687
-0.125219
-0.124907
-0.124751
-0.19197
-0.187678
-0.183591
-0.179411
-0.175329
-0.171367
-0.167558
-0.163908
-0.160423
-0.157103
-0.15395
-0.150961
-0.148138
-0.14548
-0.142985
-0.140654
-0.138484
-0.136476
-0.134627
-0.132937
-0.131405
-0.13003
-0.12881
-0.127745
-0.126834
-0.126076
-0.12547
-0.125016
-0.124714
-0.124563
-0.189727
-0.185528
-0.181524
-0.177444
-0.173461
-0.169602
-0.165897
-0.162352
-0.158968
-0.155748
-0.152691
-0.149796
-0.147063
-0.144489
-0.142074
-0.139818
-0.137719
-0.135775
-0.133987
-0.132352
-0.13087
-0.129539
-0.128359
-0.127328
-0.126447
-0.125713
-0.125127
-0.124688
-0.124396
-0.124249
-0.187401
-0.183284
-0.179358
-0.175374
-0.171487
-0.167729
-0.164125
-0.160681
-0.157398
-0.154277
-0.151315
-0.148512
-0.145867
-0.143377
-0.141042
-0.138861
-0.136831
-0.134953
-0.133225
-0.131645
-0.130212
-0.128926
-0.127786
-0.12679
-0.125938
-0.125229
-0.124663
-0.124238
-0.123956
-0.123814
-0.184979
-0.180938
-0.177089
-0.173196
-0.169404
-0.165744
-0.162241
-0.158897
-0.155714
-0.15269
-0.149823
-0.147112
-0.144554
-0.142148
-0.139893
-0.137786
-0.135826
-0.134013
-0.132345
-0.13082
-0.129437
-0.128196
-0.127095
-0.126134
-0.125312
-0.124627
-0.124081
-0.123671
-0.123398
-0.123262
-0.18245
-0.178482
-0.174708
-0.170906
-0.167208
-0.163647
-0.160244
-0.157001
-0.153917
-0.15099
-0.148218
-0.145598
-0.143128
-0.140806
-0.13863
-0.136597
-0.134708
-0.13296
-0.131351
-0.129881
-0.128548
-0.127352
-0.126291
-0.125365
-0.124572
-0.123913
-0.123386
-0.122991
-0.122728
-0.122597
-0.179804
-0.175907
-0.17221
-0.1685
-0.164897
-0.161437
-0.158134
-0.154992
-0.152008
-0.149179
-0.146502
-0.143974
-0.141592
-0.139354
-0.137257
-0.135299
-0.13348
-0.131797
-0.130248
-0.128833
-0.12755
-0.126399
-0.125378
-0.124487
-0.123724
-0.123089
-0.122582
-0.122202
-0.121949
-0.121822
-0.177029
-0.173205
-0.169589
-0.165974
-0.162469
-0.159111
-0.155912
-0.152872
-0.149989
-0.147259
-0.144678
-0.142243
-0.139949
-0.137795
-0.135778
-0.133896
-0.132146
-0.130528
-0.12904
-0.12768
-0.126448
-0.125341
-0.12436
-0.123504
-0.122771
-0.122161
-0.121674
-0.121309
-0.121066
-0.120944
-0.174114
-0.170368
-0.16684
-0.163324
-0.159922
-0.15667
-0.153577
-0.150642
-0.147862
-0.145233
-0.142749
-0.140407
-0.138203
-0.136134
-0.134197
-0.13239
-0.130711
-0.129159
-0.127731
-0.126427
-0.125245
-0.124183
-0.123242
-0.122421
-0.121718
-0.121133
-0.120666
-0.120315
-0.120082
-0.119966
-0.171052
-0.167392
-0.163958
-0.160547
-0.157254
-0.154112
-0.151129
-0.148303
-0.145629
-0.143103
-0.140718
-0.138471
-0.136357
-0.134374
-0.132518
-0.130787
-0.129179
-0.127693
-0.126326
-0.125077
-0.123945
-0.122929
-0.122029
-0.121242
-0.120569
-0.120009
-0.119562
-0.119226
-0.119003
-0.118891
-0.167835
-0.16427
-0.16094
-0.157642
-0.154466
-0.15144
-0.148572
-0.145858
-0.143293
-0.140872
-0.138588
-0.136437
-0.134415
-0.132519
-0.130745
-0.129091
-0.127555
-0.126134
-0.124829
-0.123636
-0.122554
-0.121584
-0.120723
-0.119972
-0.119329
-0.118794
-0.118367
-0.118046
-0.117833
-0.117726
-0.164459
-0.161002
-0.157785
-0.15461
-0.151556
-0.148654
-0.145906
-0.143309
-0.140856
-0.138543
-0.136363
-0.134311
-0.132382
-0.130574
-0.128883
-0.127306
-0.125842
-0.124488
-0.123244
-0.122107
-0.121076
-0.120151
-0.119331
-0.118615
-0.118002
-0.117492
-0.117085
-0.116779
-0.116576
-0.116474
-0.160922
-0.157584
-0.154493
-0.15145
-0.148529
-0.145756
-0.143134
-0.140659
-0.138323
-0.136121
-0.134047
-0.132095
-0.130261
-0.128542
-0.126935
-0.125437
-0.124045
-0.122759
-0.121576
-0.120495
-0.119516
-0.118637
-0.117857
-0.117176
-0.116593
-0.116108
-0.115721
-0.11543
-0.115237
-0.11514
-0.157223
-0.15402
-0.151067
-0.148166
-0.145386
-0.142751
-0.140261
-0.137912
-0.135697
-0.13361
-0.131644
-0.129795
-0.128058
-0.12643
-0.124907
-0.123488
-0.122169
-0.12095
-0.11983
-0.118805
-0.117877
-0.117044
-0.116304
-0.115659
-0.115106
-0.114646
-0.114279
-0.114003
-0.11382
-0.113728
-0.153367
-0.150313
-0.14751
-0.144762
-0.142133
-0.139643
-0.137292
-0.135074
-0.132984
-0.131015
-0.12916
-0.127416
-0.125777
-0.12424
-0.122804
-0.121464
-0.120219
-0.119068
-0.11801
-0.117042
-0.116165
-0.115377
-0.114679
-0.114068
-0.113546
-0.113111
-0.112763
-0.112503
-0.112329
-0.112242
-0.149358
-0.146469
-0.143828
-0.141245
-0.138775
-0.136438
-0.134231
-0.132151
-0.130189
-0.128341
-0.1266
-0.124962
-0.123423
-0.12198
-0.12063
-0.11937
-0.1182
-0.117117
-0.116121
-0.11521
-0.114385
-0.113643
-0.112984
-0.112409
-0.111917
-0.111507
-0.111179
-0.110933
-0.110769
-0.110688
-0.145207
-0.142496
-0.140031
-0.137622
-0.13532
-0.133143
-0.131087
-0.129148
-0.127319
-0.125595
-0.12397
-0.122441
-0.121003
-0.119653
-0.11839
-0.117212
-0.116116
-0.115102
-0.114168
-0.113315
-0.11254
-0.111844
-0.111226
-0.110686
-0.110223
-0.109838
-0.10953
-0.109299
-0.109145
-0.109068
-0.140924
-0.138407
-0.136127
-0.133902
-0.131777
-0.129766
-0.127866
-0.126073
-0.12438
-0.122782
-0.121276
-0.119857
-0.118521
-0.117267
-0.116092
-0.114994
-0.113973
-0.113028
-0.112157
-0.11136
-0.110636
-0.109986
-0.109408
-0.108903
-0.10847
-0.108109
-0.107821
-0.107605
-0.107461
-0.107389
-0.136524
-0.134213
-0.13213
-0.130098
-0.128156
-0.126317
-0.124578
-0.122933
-0.121379
-0.119911
-0.118525
-0.117216
-0.115984
-0.114825
-0.113739
-0.112723
-0.111777
-0.1109
-0.110091
-0.109351
-0.108678
-0.108073
-0.107535
-0.107065
-0.106661
-0.106325
-0.106057
-0.105855
-0.105721
-0.105653
-0.132024
-0.129929
-0.128052
-0.126219
-0.124467
-0.122805
-0.12123
-0.119739
-0.118326
-0.116988
-0.115723
-0.114527
-0.113398
-0.112336
-0.111337
-0.110403
-0.109532
-0.108723
-0.107976
-0.107292
-0.10667
-0.10611
-0.105612
-0.105176
-0.104802
-0.10449
-0.104241
-0.104054
-0.103929
-0.103866
-0.127441
-0.125572
-0.123907
-0.122281
-0.120724
-0.119242
-0.117835
-0.116497
-0.115227
-0.114022
-0.112878
-0.111795
-0.11077
-0.109803
-0.108894
-0.10804
-0.107243
-0.106502
-0.105818
-0.105189
-0.104617
-0.104102
-0.103643
-0.103241
-0.102896
-0.102608
-0.102378
-0.102205
-0.10209
-0.102032
-0.122795
-0.12116
-0.119713
-0.118298
-0.116938
-0.115639
-0.114401
-0.113219
-0.112093
-0.11102
-0.109998
-0.109028
-0.108107
-0.107235
-0.106413
-0.10564
-0.104917
-0.104243
-0.10362
-0.103047
-0.102524
-0.102052
-0.101632
-0.101264
-0.100948
-0.100683
-0.100472
-0.100313
-0.100207
-0.100154
-0.118108
-0.116711
-0.115486
-0.114283
-0.113122
-0.112009
-0.11094
-0.109915
-0.108932
-0.107991
-0.107091
-0.106232
-0.105414
-0.104637
-0.103902
-0.103209
-0.102558
-0.101951
-0.101388
-0.100869
-0.100395
-0.099967
-0.099585
-0.0992496
-0.0989614
-0.0987206
-0.0985275
-0.0983825
-0.0982857
-0.0982373
-0.1134
-0.112245
-0.111243
-0.110253
-0.109292
-0.108362
-0.107463
-0.106593
-0.105753
-0.104943
-0.104163
-0.103415
-0.102699
-0.102016
-0.101366
-0.100752
-0.100173
-0.0996309
-0.0991268
-0.0986613
-0.0982354
-0.0978498
-0.0975051
-0.0972022
-0.0969414
-0.0967234
-0.0965485
-0.096417
-0.0963292
-0.0962853
-0.108696
-0.107782
-0.107002
-0.106224
-0.10546
-0.104713
-0.103981
-0.103264
-0.102565
-0.101885
-0.101224
-0.100585
-0.0999684
-0.0993768
-0.0988115
-0.0982739
-0.0977655
-0.0972875
-0.0968414
-0.0964282
-0.0960491
-0.095705
-0.095397
-0.0951257
-0.0948918
-0.094696
-0.0945388
-0.0944205
-0.0943415
-0.094302
-0.104015
-0.10334
-0.102779
-0.10221
-0.101641
-0.101073
-0.100505
-0.0999396
-0.0993785
-0.0988244
-0.0982798
-0.0977471
-0.0972288
-0.096727
-0.0962438
-0.0957814
-0.0953415
-0.094926
-0.0945364
-0.0941741
-0.0938406
-0.0935371
-0.0932646
-0.0930242
-0.0928165
-0.0926424
-0.0925024
-0.092397
-0.0923265
-0.0922912
-0.099381
-0.0989394
-0.098593
-0.0982282
-0.0978488
-0.097455
-0.0970472
-0.0966282
-0.0962015
-0.0957706
-0.095339
-0.09491
-0.0944867
-0.0940721
-0.0936688
-0.0932794
-0.0929061
-0.0925511
-0.0922164
-0.0919036
-0.0916144
-0.0913501
-0.0911122
-0.0909016
-0.0907194
-0.0905663
-0.090443
-0.09035
-0.0902879
-0.0902567
-0.0948136
-0.0945985
-0.0944596
-0.0942919
-0.0940956
-0.0938704
-0.0936172
-0.0933398
-0.093043
-0.0927311
-0.0924087
-0.0920798
-0.0917484
-0.091418
-0.0910919
-0.090773
-0.090464
-0.0901676
-0.0898858
-0.0896208
-0.0893744
-0.0891481
-0.0889435
-0.0887618
-0.0886041
-0.0884713
-0.0883642
-0.0882833
-0.0882291
-0.088202
-0.0903328
-0.090335
-0.0903949
-0.0904157
-0.0903946
-0.0903306
-0.0902254
-0.0900839
-0.0899114
-0.0897137
-0.089496
-0.0892632
-0.08902
-0.0887705
-0.0885184
-0.0882672
-0.0880201
-0.0877798
-0.087549
-0.0873299
-0.0871246
-0.0869349
-0.0867624
-0.0866084
-0.0864743
-0.086361
-0.0862694
-0.0862001
-0.0861537
-0.0861304
-0.085957
-0.0861652
-0.0864135
-0.0866128
-0.0867576
-0.0868464
-0.0868817
-0.0868689
-0.0868147
-0.0867256
-0.0866075
-0.0864663
-0.0863071
-0.0861347
-0.0859533
-0.0857668
-0.0855787
-0.0853922
-0.0852101
-0.0850349
-0.0848689
-0.0847141
-0.0845723
-0.0844449
-0.0843334
-0.0842389
-0.0841621
-0.0841039
-0.0840648
-0.0840452
-0.0817031
-0.0821043
-0.082529
-0.0828954
-0.0831955
-0.0834277
-0.0835948
-0.0837032
-0.0837604
-0.0837735
-0.0837496
-0.0836949
-0.0836152
-0.0835158
-0.0834014
-0.0832762
-0.0831442
-0.0830087
-0.0828728
-0.0827394
-0.0826108
-0.0824893
-0.0823767
-0.0822747
-0.0821847
-0.0821079
-0.0820454
-0.0819978
-0.0819657
-0.0819496
-0.0775859
-0.0781658
-0.0787536
-0.0792745
-0.0797184
-0.0800834
-0.0803729
-0.0805942
-0.0807551
-0.0808639
-0.080928
-0.0809543
-0.0809492
-0.0809184
-0.080867
-0.0807996
-0.0807204
-0.0806331
-0.0805409
-0.0804469
-0.0803538
-0.0802637
-0.0801788
-0.0801008
-0.0800312
-0.0799714
-0.0799222
-0.0798847
-0.0798593
-0.0798465
-0.0736185
-0.0743614
-0.075098
-0.0757597
-0.0763349
-0.0768215
-0.0772234
-0.0775484
-0.0778052
-0.0780023
-0.0781479
-0.0782495
-0.0783137
-0.0783469
-0.0783543
-0.0783409
-0.0783111
-0.0782689
-0.0782177
-0.0781608
-0.0781009
-0.0780405
-0.0779816
-0.0779262
-0.0778759
-0.077832
-0.0777955
-0.0777675
-0.0777484
-0.0777388
-0.0698121
-0.0707013
-0.0715713
-0.0723595
-0.0730528
-0.073649
-0.0741527
-0.0745719
-0.0749159
-0.0751937
-0.075414
-0.0755847
-0.0757129
-0.075805
-0.0758668
-0.0759035
-0.0759196
-0.0759193
-0.0759064
-0.075884
-0.0758552
-0.0758224
-0.075788
-0.0757537
-0.0757214
-0.0756925
-0.0756679
-0.0756487
-0.0756356
-0.0756289
-0.0661755
-0.0671937
-0.0681811
-0.0690807
-0.0698783
-0.0705718
-0.0711661
-0.0716696
-0.0720919
-0.0724425
-0.0727305
-0.072964
-0.0731504
-0.0732964
-0.073408
-0.0734906
-0.073549
-0.0735874
-0.0736098
-0.0736194
-0.0736193
-0.0736122
-0.0736004
-0.0735859
-0.0735704
-0.0735553
-0.0735419
-0.073531
-0.0735233
-0.0735194
-0.0627154
-0.0638447
-0.0649332
-0.0659286
-0.0668164
-0.0675946
-0.068268
-0.0688456
-0.0693371
-0.0697525
-0.0701008
-0.0703905
-0.0706293
-0.070824
-0.0709807
-0.0711051
-0.0712019
-0.0712757
-0.0713304
-0.0713694
-0.0713958
-0.0714123
-0.0714214
-0.0714251
-0.071425
-0.0714228
-0.0714196
-0.0714164
-0.0714139
-0.0714125
-0.0594365
-0.0606589
-0.0618316
-0.0629073
-0.063871
-0.0647208
-0.0654619
-0.0661032
-0.0666547
-0.0671264
-0.0675276
-0.067867
-0.0681522
-0.0683903
-0.0685874
-0.0687493
-0.0688809
-0.0689866
-0.0690706
-0.0691362
-0.0691867
-0.0692249
-0.069253
-0.0692733
-0.0692875
-0.0692972
-0.0693034
-0.0693072
-0.0693094
-0.0693104
-0.0563413
-0.0576388
-0.058879
-0.0600192
-0.0610444
-0.0619529
-0.06275
-0.0634446
-0.0640468
-0.0645666
-0.0650133
-0.0653957
-0.0657214
-0.0659974
-0.0662302
-0.0664253
-0.0665877
-0.0667221
-0.0668323
-0.0669219
-0.0669942
-0.0670518
-0.0670973
-0.0671327
-0.0671598
-0.0671802
-0.067195
-0.0672053
-0.0672118
-0.0672149
-0.0534303
-0.0547849
-0.0560761
-0.0572653
-0.0583378
-0.0592922
-0.0601337
-0.0608714
-0.061515
-0.0620746
-0.0625594
-0.0629781
-0.0633383
-0.0636471
-0.0639107
-0.0641348
-0.0643243
-0.0644837
-0.0646172
-0.0647281
-0.0648198
-0.0648949
-0.0649559
-0.0650048
-0.0650436
-0.0650737
-0.0650963
-0.0651123
-0.0651227
-0.0651277
-0.050702
-0.0520963
-0.0534221
-0.054645
-0.055751
-0.0567387
-0.0576134
-0.0583839
-0.0590599
-0.0596512
-0.0601668
-0.0606153
-0.0610042
-0.0613405
-0.0616302
-0.061879
-0.0620918
-0.0622731
-0.0624268
-0.0625564
-0.0626651
-0.0627556
-0.0628303
-0.0628913
-0.0629404
-0.0629791
-0.0630086
-0.0630299
-0.0630437
-0.0630505
-0.0481528
-0.04957
-0.0509147
-0.0521567
-0.0532827
-0.0542915
-0.0551885
-0.055982
-0.0566815
-0.0572965
-0.0578359
-0.0583078
-0.0587197
-0.0590783
-0.0593896
-0.059659
-0.0598914
-0.0600911
-0.0602621
-0.0604078
-0.0605312
-0.0606351
-0.0607218
-0.0607934
-0.0608516
-0.0608979
-0.0609335
-0.0609594
-0.0609763
-0.0609846
-0.0457777
-0.0472016
-0.0485502
-0.0497973
-0.0509304
-0.0519487
-0.0528574
-0.0536645
-0.054379
-0.0550102
-0.0555664
-0.0560556
-0.0564849
-0.0568609
-0.0571892
-0.0574752
-0.0577237
-0.0579387
-0.0581242
-0.0582833
-0.0584193
-0.0585346
-0.0586316
-0.0587122
-0.0587783
-0.0588312
-0.0588721
-0.058902
-0.0589215
-0.0589312
-0.0435698
-0.0449853
-0.0463235
-0.0475624
-0.0486906
-0.0497073
-0.0506177
-0.0514294
-0.052151
-0.052791
-0.0533576
-0.0538582
-0.0542996
-0.0546881
-0.0550293
-0.0553281
-0.0555891
-0.0558163
-0.0560134
-0.0561837
-0.05633
-0.0564548
-0.0565604
-0.0566487
-0.0567214
-0.05678
-0.0568254
-0.0568587
-0.0568806
-0.0568914
-0.0415207
-0.0429136
-0.0442283
-0.0454467
-0.0465587
-0.0475636
-0.0484665
-0.0492744
-0.0499954
-0.0506374
-0.0512081
-0.0517145
-0.0521631
-0.0525597
-0.0529095
-0.0532175
-0.0534877
-0.0537242
-0.0539304
-0.0541093
-0.0542638
-0.0543963
-0.054509
-0.0546036
-0.0546819
-0.0547451
-0.0547943
-0.0548305
-0.0548542
-0.054866
-0.0396208
-0.0409781
-0.0422572
-0.043444
-0.0445293
-0.045513
-0.0463998
-0.0471961
-0.0479095
-0.0485472
-0.0491163
-0.0496234
-0.0500744
-0.0504747
-0.0508295
-0.051143
-0.0514194
-0.0516623
-0.051875
-0.0520605
-0.0522212
-0.0523597
-0.0524779
-0.0525775
-0.0526602
-0.0527271
-0.0527794
-0.0528179
-0.0528433
-0.0528558
-0.0378593
-0.0391693
-0.040402
-0.0415469
-0.0425963
-0.0435503
-0.0444132
-0.0451909
-0.0458902
-0.0465177
-0.0470799
-0.0475828
-0.0480319
-0.0484322
-0.0487882
-0.0491041
-0.0493837
-0.0496305
-0.0498474
-0.0500372
-0.0502024
-0.0503451
-0.0504673
-0.0505708
-0.0506568
-0.0507266
-0.0507813
-0.0508217
-0.0508482
-0.0508614
-0.0362245
-0.0374767
-0.0386535
-0.0397477
-0.040753
-0.0416696
-0.0425016
-0.0432544
-0.0439339
-0.044546
-0.0450966
-0.0455909
-0.0460341
-0.0464306
-0.0467846
-0.0471
-0.0473801
-0.0476282
-0.0478471
-0.0480393
-0.0482071
-0.0483526
-0.0484776
-0.0485836
-0.048672
-0.048744
-0.0488004
-0.0488421
-0.0488696
-0.0488833
-0.0347039
-0.0358894
-0.037002
-0.0380379
-0.0389919
-0.0398646
-0.0406598
-0.0413821
-0.0420366
-0.0426287
-0.0431633
-0.0436452
-0.0440789
-0.0444684
-0.0448174
-0.0451295
-0.0454077
-0.0456549
-0.0458738
-0.0460666
-0.0462354
-0.0463823
-0.0465087
-0.0466162
-0.0467061
-0.0467794
-0.046837
-0.0468796
-0.0469077
-0.0469217
-0.0332843
-0.0343956
-0.0354373
-0.0364085
-0.0373053
-0.0381287
-0.0388819
-0.0395689
-0.0401942
-0.0407622
-0.0412771
-0.0417432
-0.0421642
-0.0425437
-0.0428851
-0.0431914
-0.0434654
-0.0437098
-0.0439267
-0.0441185
-0.0442869
-0.0444337
-0.0445605
-0.0446686
-0.0447591
-0.044833
-0.0448912
-0.0449342
-0.0449627
-0.0449768
-0.0319524
-0.0329835
-0.0339488
-0.0348504
-0.0356852
-0.0364548
-0.0371619
-0.0378098
-0.0384022
-0.0389426
-0.0394347
-0.0398819
-0.0402875
-0.0406546
-0.040986
-0.0412844
-0.0415523
-0.0417919
-0.0420053
-0.0421945
-0.0423611
-0.0425067
-0.0426328
-0.0427404
-0.0428308
-0.0429047
-0.0429629
-0.0430061
-0.0430346
-0.0430488
-0.0306945
-0.031641
-0.0325261
-0.0333542
-0.0341236
-0.0348359
-0.0354937
-0.0360994
-0.0366559
-0.037166
-0.0376327
-0.0380586
-0.0384465
-0.0387989
-0.0391183
-0.0394069
-0.0396668
-0.0399001
-0.0401086
-0.0402938
-0.0404575
-0.0406008
-0.0407252
-0.0408316
-0.0409211
-0.0409944
-0.0410523
-0.0410952
-0.0411236
-0.0411377
-0.0294973
-0.0303561
-0.0311583
-0.0319106
-0.0326121
-0.0332649
-0.033871
-0.0344323
-0.0349508
-0.0354285
-0.0358676
-0.0362702
-0.0366385
-0.0369744
-0.0372801
-0.0375573
-0.0378079
-0.0380334
-0.0382356
-0.0384158
-0.0385754
-0.0387155
-0.0388373
-0.0389418
-0.0390298
-0.039102
-0.039159
-0.0392013
-0.0392294
-0.0392433
-0.0283473
-0.029117
-0.0298351
-0.0305103
-0.0311428
-0.0317348
-0.0322878
-0.0328031
-0.033282
-0.0337257
-0.0341357
-0.0345136
-0.0348608
-0.0351789
-0.0354694
-0.0357339
-0.0359738
-0.0361905
-0.0363853
-0.0365594
-0.036714
-0.0368501
-0.0369686
-0.0370705
-0.0371564
-0.037227
-0.0372828
-0.0373243
-0.0373518
-0.0373655
-0.027232
-0.0279123
-0.0285464
-0.0291445
-0.0297078
-0.0302385
-0.030738
-0.0312067
-0.0316451
-0.0320539
-0.0324339
-0.0327858
-0.0331108
-0.03341
-0.0336844
-0.0339351
-0.0341633
-0.0343702
-0.0345567
-0.0347239
-0.0348727
-0.035004
-0.0351186
-0.0352173
-0.0353006
-0.0353692
-0.0354235
-0.0354639
-0.0354907
-0.035504
-0.0261391
-0.0267311
-0.0272824
-0.0278045
-0.0282994
-0.0287695
-0.0292156
-0.0296377
-0.0300355
-0.030409
-0.0307583
-0.0310838
-0.0313859
-0.0316654
-0.0319228
-0.032159
-0.0323748
-0.032571
-0.0327485
-0.0329081
-0.0330504
-0.0331763
-0.0332865
-0.0333815
-0.0334618
-0.0335281
-0.0335806
-0.0336196
-0.0336456
-0.0336585
-0.0250573
-0.0255632
-0.0260342
-0.0264824
-0.0269108
-0.0273216
-0.0277154
-0.0280915
-0.028449
-0.0287874
-0.029106
-0.0294048
-0.0296837
-0.029943
-0.0301829
-0.030404
-0.0306068
-0.0307919
-0.0309598
-0.0311111
-0.0312465
-0.0313666
-0.0314718
-0.0315627
-0.0316397
-0.0317033
-0.0317537
-0.0317913
-0.0318162
-0.0318286
-0.0239758
-0.0243992
-0.0247931
-0.0251705
-0.0255349
-0.0258887
-0.0262319
-0.0265632
-0.0268814
-0.0271852
-0.0274735
-0.0277457
-0.0280014
-0.0282404
-0.0284626
-0.0286683
-0.0288578
-0.0290312
-0.0291891
-0.0293318
-0.0294599
-0.0295736
-0.0296735
-0.02976
-0.0298334
-0.029894
-0.0299422
-0.0299781
-0.030002
-0.0300139
-0.0228858
-0.0232308
-0.0235518
-0.0238624
-0.0241663
-0.0244658
-0.0247606
-0.0250491
-0.0253293
-0.0255995
-0.0258583
-0.0261044
-0.0263371
-0.0265559
-0.0267605
-0.0269507
-0.0271265
-0.0272881
-0.0274357
-0.0275695
-0.0276899
-0.0277971
-0.0278914
-0.0279732
-0.0280427
-0.0281002
-0.028146
-0.0281801
-0.0282027
-0.0282141
-0.0217781
-0.02205
-0.0223031
-0.0225513
-0.0227987
-0.0230474
-0.0232967
-0.0235446
-0.0237886
-0.0240267
-0.0242569
-0.0244778
-0.0246881
-0.0248871
-0.0250741
-0.0252489
-0.0254111
-0.0255608
-0.025698
-0.0258227
-0.0259352
-0.0260356
-0.0261241
-0.026201
-0.0262664
-0.0263207
-0.0263638
-0.026396
-0.0264175
-0.0264282
-0.0206464
-0.020851
-0.0210419
-0.0212329
-0.0214283
-0.0216301
-0.0218372
-0.0220471
-0.0222572
-0.0224649
-0.0226679
-0.0228645
-0.0230532
-0.0232329
-0.0234028
-0.0235623
-0.0237111
-0.0238489
-0.0239756
-0.0240911
-0.0241956
-0.0242891
-0.0243717
-0.0244435
-0.0245048
-0.0245556
-0.024596
-0.0246263
-0.0246464
-0.0246564
-0.0194836
-0.0196272
-0.019762
-0.0199015
-0.0200499
-0.020209
-0.0203774
-0.0205525
-0.0207311
-0.0209103
-0.0210878
-0.0212613
-0.0214294
-0.0215905
-0.0217438
-0.0218885
-0.0220241
-0.0221501
-0.0222664
-0.0223728
-0.0224692
-0.0225556
-0.0226322
-0.0226989
-0.0227559
-0.0228032
-0.0228409
-0.0228691
-0.0228879
-0.0228973
-0.0182863
-0.0183757
-0.018461
-0.0185551
-0.0186619
-0.0187829
-0.0189166
-0.01906
-0.0192097
-0.0193627
-0.0195164
-0.0196683
-0.0198167
-0.0199602
-0.0200975
-0.0202279
-0.0203505
-0.0204651
-0.0205711
-0.0206683
-0.0207567
-0.0208362
-0.0209067
-0.0209682
-0.0210208
-0.0210645
-0.0210994
-0.0211256
-0.021143
-0.0211516
-0.0170486
-0.0170911
-0.0171336
-0.0171884
-0.017259
-0.0173468
-0.0174498
-0.0175649
-0.0176886
-0.0178178
-0.0179494
-0.0180813
-0.0182114
-0.0183381
-0.0184603
-0.0185768
-0.0186871
-0.0187904
-0.0188863
-0.0189746
-0.0190551
-0.0191276
-0.019192
-0.0192483
-0.0192965
-0.0193367
-0.0193687
-0.0193928
-0.0194088
-0.0194168
-0.015771
-0.0157741
-0.0157811
-0.015803
-0.0158433
-0.0159027
-0.0159792
-0.0160695
-0.0161701
-0.0162777
-0.0163894
-0.0165028
-0.0166158
-0.0167268
-0.0168346
-0.0169379
-0.0170362
-0.0171286
-0.0172147
-0.0172943
-0.0173669
-0.0174325
-0.0174909
-0.017542
-0.0175858
-0.0176223
-0.0176515
-0.0176734
-0.017688
-0.0176953
-0.0144478
-0.0144189
-0.0143973
-0.0143928
-0.0144082
-0.0144442
-0.0144983
-0.0145673
-0.0146477
-0.0147362
-0.01483
-0.0149265
-0.0150238
-0.0151202
-0.0152143
-0.0153052
-0.015392
-0.015474
-0.0155506
-0.0156216
-0.0156866
-0.0157453
-0.0157978
-0.0158438
-0.0158832
-0.0159161
-0.0159425
-0.0159622
-0.0159754
-0.0159821
-0.0130845
-0.0130318
-0.012989
-0.0129648
-0.0129612
-0.0129785
-0.0130144
-0.0130655
-0.0131285
-0.0132003
-0.0132779
-0.0133591
-0.0134419
-0.0135247
-0.0136061
-0.0136852
-0.013761
-0.0138329
-0.0139003
-0.0139629
-0.0140204
-0.0140725
-0.014119
-0.0141599
-0.014195
-0.0142243
-0.0142478
-0.0142654
-0.0142771
-0.0142829
-0.0116736
-0.0116041
-0.0115468
-0.0115087
-0.0114913
-0.0114946
-0.0115161
-0.0115527
-0.0116011
-0.0116584
-0.011722
-0.0117895
-0.0118591
-0.0119294
-0.0119989
-0.0120668
-0.0121322
-0.0121945
-0.0122531
-0.0123076
-0.0123577
-0.0124033
-0.012444
-0.0124799
-0.0125107
-0.0125365
-0.0125571
-0.0125726
-0.012583
-0.0125883
-0.0102281
-0.0101509
-0.0100869
-0.0100415
-0.0100159
-0.0100095
-0.0100203
-0.0100452
-0.0100815
-0.0101263
-0.0101773
-0.0102325
-0.01029
-0.0103486
-0.010407
-0.0104643
-0.0105197
-0.0105727
-0.0106226
-0.0106693
-0.0107122
-0.0107513
-0.0107864
-0.0108172
-0.0108438
-0.010866
-0.0108838
-0.0108972
-0.0109061
-0.0109104