/*--------------------------------*- C++ -*----------------------------------*\
  =========                 |
  \\      /  F ield         | OpenFOAM: The Open Source CFD Toolbox
   \\    /   O peration     | Website:  https://openfoam.org
    \\  /    A nd           | Version:  7
     \\/     M anipulation  |
\*---------------------------------------------------------------------------*/
FoamFile
{
    version     2.0;
    format      ascii;
    class       volScalarField;
    location    "10";
    object      p;
}
// * * * * * * * * * * * * * * * * * * * * * * * * * * * * * * * * * * * * * //

dimensions      [0 2 -2 0 0 0 0];

internalField   nonuniform List<scalar> 
3312
(
-0.277305
-0.284385
-0.280254
-0.285687
-0.283464
-0.288337
-0.287264
-0.286566
-0.289717
-0.289419
-0.289022
-0.289385
-0.290334
-0.290507
-0.290704
-0.291739
-0.290389
-0.290824
-0.291424
-0.292121
-0.293516
-0.290322
-0.291089
-0.29206
-0.293186
-0.294636
-0.289192
-0.290056
-0.291099
-0.292347
-0.293759
-0.295834
-0.288561
-0.289621
-0.290876
-0.292343
-0.294014
-0.29641
-0.287887
-0.289088
-0.290496
-0.292128
-0.294007
-0.296557
-0.287263
-0.288559
-0.290069
-0.291817
-0.293847
-0.296477
-0.286783
-0.288136
-0.289708
-0.291529
-0.293655
-0.296323
-0.285325
-0.286522
-0.287902
-0.289502
-0.291358
-0.293531
-0.296213
-0.263316
-0.230485
-0.19554
-0.15826
-0.129287
-0.106979
-0.0891611
-0.0750321
-0.063652
-0.0544072
-0.0468208
-0.0405386
-0.0352939
-0.0308823
-0.0271465
-0.023963
-0.0212356
-0.0188869
-0.0168555
-0.0150917
-0.0135543
-0.0122096
-0.0110299
-0.00999204
-0.00907682
-0.00826802
-0.00755193
-0.0069169
-0.006353
-0.0058517
-0.00540567
-0.00500855
-0.00465488
-0.00433987
-0.00405936
-0.0038098
-0.00358808
-0.00339149
-0.00321768
-0.00306459
-0.00293042
-0.00281362
-0.00271287
-0.00262701
-0.0025551
-0.00249634
-0.00245007
-0.00241579
-0.00239315
-0.00238185
-0.266239
-0.246123
-0.20721
-0.169412
-0.138904
-0.114892
-0.0956756
-0.0803563
-0.0680344
-0.0580323
-0.0498388
-0.043068
-0.037427
-0.0326917
-0.0286895
-0.0252853
-0.0223735
-0.0198698
-0.0177071
-0.0158314
-0.0141982
-0.0127712
-0.0115204
-0.0104209
-0.00945213
-0.0085966
-0.00783964
-0.00716879
-0.00657344
-0.00604448
-0.00557409
-0.00515552
-0.00478293
-0.00445126
-0.00415608
-0.0038936
-0.00366052
-0.00345396
-0.00327141
-0.00311068
-0.00296988
-0.00284735
-0.00274168
-0.00265168
-0.00257631
-0.00251473
-0.00246626
-0.00243037
-0.00240665
-0.00239483
-0.278205
-0.256239
-0.213598
-0.175494
-0.144651
-0.119881
-0.0998736
-0.0838747
-0.0709801
-0.0605034
-0.0519219
-0.0448331
-0.0389305
-0.0339792
-0.0297974
-0.0262429
-0.0232044
-0.0205932
-0.0183386
-0.0163839
-0.0146825
-0.0131963
-0.0118939
-0.0107494
-0.00974117
-0.00885094
-0.00806343
-0.00736562
-0.00674643
-0.00619638
-0.00570731
-0.00527219
-0.00488494
-0.00454027
-0.0042336
-0.00396097
-0.00371892
-0.00350445
-0.00331494
-0.00314812
-0.003002
-0.00287487
-0.00276525
-0.00267189
-0.00259372
-0.00252987
-0.00247961
-0.0024424
-0.00241781
-0.00240557
-0.291185
-0.263938
-0.21734
-0.178948
-0.148103
-0.122983
-0.10257
-0.086214
-0.0729897
-0.0622267
-0.0534035
-0.0461103
-0.0400353
-0.0349385
-0.0306335
-0.0269741
-0.0238457
-0.021157
-0.0188352
-0.016822
-0.0150694
-0.0135382
-0.0121963
-0.0110168
-0.00997757
-0.00905991
-0.00824804
-0.00752857
-0.0068901
-0.00632287
-0.00581851
-0.00536976
-0.00497036
-0.00461489
-0.00429862
-0.00401747
-0.00376787
-0.00354672
-0.00335133
-0.00317933
-0.00302869
-0.00289763
-0.00278464
-0.00268841
-0.00260785
-0.00254204
-0.00249025
-0.0024519
-0.00242656
-0.00241395
-0.304039
-0.271049
-0.22039
-0.181741
-0.150597
-0.125156
-0.104505
-0.0879445
-0.0745132
-0.0635643
-0.0545789
-0.0471421
-0.0409421
-0.035737
-0.031338
-0.0275969
-0.024397
-0.0216455
-0.0192686
-0.0172066
-0.0154108
-0.0138413
-0.0124652
-0.0112553
-0.010189
-0.00924722
-0.00841375
-0.00767496
-0.00701923
-0.00643656
-0.00591839
-0.0054573
-0.00504689
-0.00468159
-0.00435657
-0.00406762
-0.00381111
-0.00358384
-0.00338305
-0.0032063
-0.0030515
-0.00291683
-0.00280073
-0.00270185
-0.00261908
-0.00255147
-0.00249827
-0.00245887
-0.00243285
-0.0024199
-0.317206
-0.278013
-0.223498
-0.18456
-0.1527
-0.126877
-0.10605
-0.0893476
-0.0757705
-0.064691
-0.0555889
-0.0480426
-0.0417441
-0.0364516
-0.0319748
-0.0281644
-0.0249027
-0.0220962
-0.0196701
-0.0175643
-0.0157293
-0.0141246
-0.012717
-0.011479
-0.0103874
-0.00942288
-0.00856908
-0.00781207
-0.00714
-0.00654269
-0.00601141
-0.00553859
-0.00511768
-0.00474301
-0.00440963
-0.00411326
-0.00385015
-0.00361704
-0.00341107
-0.00322979
-0.00307102
-0.0029329
-0.00281383
-0.00271243
-0.00262755
-0.00255823
-0.00250367
-0.00246328
-0.00243659
-0.00242332
-0.33067
-0.284378
-0.226582
-0.187207
-0.154375
-0.128215
-0.107256
-0.0904586
-0.0767874
-0.0656243
-0.0564464
-0.0488194
-0.0424469
-0.0370859
-0.0325459
-0.0286781
-0.0253636
-0.0225092
-0.0200398
-0.0178948
-0.0160244
-0.0143877
-0.0129512
-0.0116871
-0.010572
-0.00958639
-0.00871356
-0.00793944
-0.00725199
-0.00664087
-0.0060972
-0.00561327
-0.00518243
-0.00479888
-0.00445758
-0.00415416
-0.00388479
-0.00364612
-0.00343526
-0.00324966
-0.00308712
-0.00294573
-0.00282384
-0.00272005
-0.00263317
-0.00256222
-0.00250638
-0.00246504
-0.00243774
-0.00242415
-0.343469
-0.289156
-0.229145
-0.18907
-0.155328
-0.129017
-0.108014
-0.0911925
-0.0774975
-0.0663082
-0.0571041
-0.0494321
-0.0430161
-0.0376107
-0.0330264
-0.0291166
-0.0257613
-0.0228689
-0.0203642
-0.0181866
-0.0162863
-0.014622
-0.0131604
-0.0118733
-0.0107375
-0.009733
-0.0088431
-0.00805354
-0.00735216
-0.00672849
-0.00617353
-0.00567945
-0.00523951
-0.00484781
-0.00449924
-0.00418933
-0.00391418
-0.0036704
-0.00345502
-0.00326544
-0.00309942
-0.00295501
-0.00283052
-0.00272452
-0.00263579
-0.00256332
-0.00250631
-0.00246409
-0.00243621
-0.00242234
-0.354043
-0.291413
-0.230601
-0.189531
-0.155308
-0.129094
-0.108183
-0.0914495
-0.0778266
-0.0666825
-0.0575093
-0.0498385
-0.043417
-0.0379969
-0.0333918
-0.0294588
-0.026078
-0.0231604
-0.0206306
-0.0184287
-0.0165056
-0.0148196
-0.0133377
-0.0120318
-0.0108787
-0.00985842
-0.00895399
-0.00815119
-0.00743777
-0.0068032
-0.00623838
-0.0057354
-0.00528744
-0.00488855
-0.00453352
-0.00421786
-0.00393758
-0.00368924
-0.00346982
-0.00327669
-0.00310756
-0.00296044
-0.00283362
-0.00272563
-0.00263525
-0.00256144
-0.00250335
-0.00246035
-0.00243196
-0.00241783
-0.360862
-0.29082
-0.230272
-0.188258
-0.154194
-0.128305
-0.107678
-0.0911707
-0.0777333
-0.0667244
-0.0576207
-0.0500169
-0.0436313
-0.0382294
-0.0336302
-0.029693
-0.0263047
-0.0233759
-0.0208323
-0.0186155
-0.0166777
-0.0149764
-0.0134796
-0.0121597
-0.0109932
-0.0099604
-0.00904432
-0.00823075
-0.00750742
-0.0068638
-0.00629072
-0.00578023
-0.00532546
-0.00492043
-0.00455989
-0.00423928
-0.00395457
-0.00370229
-0.00347938
-0.00328317
-0.00311133
-0.00296186
-0.00283301
-0.0027233
-0.00263146
-0.00255647
-0.00249746
-0.00245378
-0.00242493
-0.00241057
-0.362088
-0.28706
-0.227293
-0.1853
-0.151902
-0.126624
-0.106485
-0.0903536
-0.0772123
-0.0664191
-0.0574621
-0.0499692
-0.0436595
-0.0383078
-0.03374
-0.0298197
-0.0264407
-0.0235146
-0.020969
-0.0187462
-0.0168018
-0.0150917
-0.0135858
-0.0122563
-0.0110804
-0.0100386
-0.00911378
-0.00829193
-0.00756084
-0.00691004
-0.00633033
-0.00581374
-0.00535341
-0.00494332
-0.0045782
-0.00425346
-0.00396505
-0.00370946
-0.0034836
-0.00328479
-0.00311067
-0.0029592
-0.00282862
-0.00271744
-0.00262438
-0.00254838
-0.00248858
-0.00244431
-0.00241508
-0.00240053
-0.357148
-0.279567
-0.221504
-0.180698
-0.14845
-0.124073
-0.104629
-0.0890272
-0.0762861
-0.0657864
-0.0570459
-0.0497093
-0.0435118
-0.03824
-0.0337281
-0.0298445
-0.0264907
-0.0235802
-0.0210431
-0.0188241
-0.0168787
-0.0151668
-0.0136571
-0.0123227
-0.0111409
-0.0100936
-0.00916279
-0.0083351
-0.00759833
-0.00694213
-0.00635737
-0.00583608
-0.00537138
-0.00495727
-0.00458852
-0.00426045
-0.00396904
-0.00371076
-0.0034825
-0.00328155
-0.00310555
-0.00295244
-0.00282044
-0.00270804
-0.00261396
-0.00253713
-0.00247668
-0.00243192
-0.00240236
-0.00238766
-0.345421
-0.267887
-0.213265
-0.174519
-0.143891
-0.120698
-0.102154
-0.0872272
-0.0749851
-0.064853
-0.0563864
-0.0492519
-0.0432008
-0.0380358
-0.0336018
-0.0297746
-0.02646
-0.0235765
-0.021058
-0.0188508
-0.0169119
-0.0152037
-0.0136951
-0.01236
-0.0111762
-0.0101258
-0.00919188
-0.00836071
-0.00762031
-0.00696025
-0.00637208
-0.00584742
-0.00537953
-0.00496242
-0.00459089
-0.00426029
-0.00396658
-0.00370621
-0.00347607
-0.00327345
-0.00309597
-0.00294156
-0.00280844
-0.00269508
-0.00260019
-0.00252269
-0.00246172
-0.00241657
-0.00238676
-0.00237194
-0.326627
-0.252162
-0.202849
-0.166871
-0.13829
-0.116561
-0.0991131
-0.084991
-0.073338
-0.0636425
-0.0555011
-0.0486091
-0.0427366
-0.0377038
-0.0333679
-0.0296143
-0.0263524
-0.0235071
-0.0210162
-0.0188287
-0.0169031
-0.0152037
-0.0137009
-0.0123691
-0.0111865
-0.0101361
-0.00920158
-0.0083691
-0.00762694
-0.0069649
-0.00637459
-0.00584786
-0.00537794
-0.00495885
-0.0045853
-0.004253
-0.00395768
-0.00369583
-0.00346431
-0.00326047
-0.00308193
-0.00292656
-0.0027926
-0.00267852
-0.00258303
-0.00250504
-0.00244368
-0.00239824
-0.00236824
-0.00235332
-0.30119
-0.233007
-0.190444
-0.157892
-0.131732
-0.11174
-0.0955667
-0.0823589
-0.0713739
-0.0621764
-0.0544071
-0.047793
-0.0421279
-0.0372508
-0.033032
-0.0293667
-0.0261704
-0.023374
-0.0209195
-0.0187591
-0.0168531
-0.0151679
-0.013675
-0.0123502
-0.0111725
-0.010125
-0.00919212
-0.00836044
-0.00761844
-0.00695603
-0.00636506
-0.0058375
-0.00536663
-0.00494653
-0.00457193
-0.00423858
-0.00394233
-0.00367958
-0.00344725
-0.00324258
-0.00306338
-0.0029074
-0.0027729
-0.00265836
-0.00256247
-0.00248416
-0.00242254
-0.00237691
-0.00234678
-0.00233181
-0.270335
-0.211293
-0.176336
-0.147747
-0.124329
-0.106326
-0.0915781
-0.079374
-0.0691239
-0.060478
-0.0531217
-0.0468164
-0.041384
-0.0366837
-0.0325991
-0.0290357
-0.0259169
-0.0231793
-0.0207694
-0.0186429
-0.0167625
-0.0150965
-0.013618
-0.0123038
-0.0111343
-0.0100925
-0.00916362
-0.00833482
-0.00759484
-0.00693377
-0.0063435
-0.00581634
-0.00534563
-0.00492545
-0.00455069
-0.00421708
-0.00392054
-0.00365748
-0.00342483
-0.00321983
-0.0030403
-0.00288406
-0.00274932
-0.00263457
-0.0025385
-0.00246003
-0.00239828
-0.00235256
-0.00232236
-0.00230737
-0.235909
-0.188002
-0.161012
-0.1366
-0.116233
-0.10043
-0.0872151
-0.0760809
-0.0666223
-0.0585732
-0.0516636
-0.0456931
-0.0405154
-0.0360103
-0.032075
-0.0286259
-0.0255951
-0.0229253
-0.0205677
-0.0184815
-0.0166322
-0.0149903
-0.0135303
-0.0122305
-0.011072
-0.0100387
-0.00911623
-0.00829234
-0.00755617
-0.00689806
-0.00630992
-0.00578439
-0.0053149
-0.00489563
-0.0045216
-0.00418849
-0.00389231
-0.00362951
-0.00339704
-0.00319217
-0.00301274
-0.00285657
-0.00272187
-0.00260716
-0.00251111
-0.00243265
-0.00237091
-0.00232519
-0.002295
-0.00228
-0.200025
-0.164119
-0.144985
-0.124727
-0.107658
-0.0941805
-0.0825469
-0.0725268
-0.0639063
-0.0564899
-0.0500522
-0.0444378
-0.0395337
-0.0352394
-0.031466
-0.0281423
-0.025209
-0.022615
-0.0203166
-0.0182767
-0.0164637
-0.0148503
-0.0134127
-0.0121306
-0.0109861
-0.00996377
-0.00905013
-0.00823317
-0.00750255
-0.00684895
-0.00626437
-0.00574169
-0.00527447
-0.00485711
-0.00448464
-0.00415279
-0.00385762
-0.00359566
-0.00336388
-0.00315964
-0.00298069
-0.00282491
-0.00269055
-0.00257612
-0.00248029
-0.00240202
-0.00234042
-0.00229481
-0.00226469
-0.00224971
-0.164675
-0.140543
-0.128712
-0.112508
-0.0988533
-0.0877117
-0.0776423
-0.0687639
-0.0610172
-0.0542569
-0.0483077
-0.0430658
-0.0384508
-0.0343798
-0.0307792
-0.0275903
-0.0247627
-0.0222517
-0.0200187
-0.0180305
-0.0162585
-0.0146776
-0.0132661
-0.0120049
-0.0108771
-0.00986833
-0.00896563
-0.00815758
-0.0074342
-0.0067866
-0.00620694
-0.00568831
-0.00522446
-0.00480992
-0.00443985
-0.00411
-0.0038165
-0.00355597
-0.00332539
-0.00312224
-0.00294414
-0.0027891
-0.00265537
-0.00254147
-0.00244607
-0.00236816
-0.00230683
-0.00226143
-0.00223143
-0.00221652
-0.131448
-0.118022
-0.11262
-0.100328
-0.0900384
-0.0811391
-0.0725772
-0.0648533
-0.0579986
-0.0519024
-0.0464504
-0.0415934
-0.037279
-0.0334408
-0.0300215
-0.0269755
-0.0242606
-0.0218387
-0.0196765
-0.0177449
-0.0160182
-0.0144737
-0.0130915
-0.0118541
-0.0107458
-0.00975285
-0.00886317
-0.00806589
-0.00735139
-0.00671124
-0.0061378
-0.0056244
-0.00516496
-0.00475414
-0.0043873
-0.00406018
-0.00376901
-0.00351048
-0.00328162
-0.00307995
-0.00290312
-0.00274915
-0.00261635
-0.00250321
-0.00240846
-0.00233107
-0.00227016
-0.00222505
-0.00219525
-0.00218044
-0.101418
-0.0971108
-0.0971046
-0.0885025
-0.0813766
-0.0745516
-0.0674333
-0.0608608
-0.0548931
-0.0494539
-0.0445014
-0.0400376
-0.0360311
-0.0324317
-0.0292002
-0.0263034
-0.023707
-0.0213794
-0.0192927
-0.0174219
-0.0157443
-0.0142397
-0.01289
-0.0116792
-0.0105927
-0.00961786
-0.00874317
-0.00795844
-0.0072544
-0.00662311
-0.00605715
-0.00555011
-0.00509609
-0.00468992
-0.00432708
-0.00400339
-0.0037152
-0.00345924
-0.00323261
-0.00303284
-0.00285765
-0.0027051
-0.00257353
-0.00246139
-0.00236749
-0.00229078
-0.00223041
-0.0021857
-0.00215616
-0.00214147
-0.0751502
-0.078156
-0.0824971
-0.0772556
-0.0729913
-0.0680209
-0.0622908
-0.0568476
-0.0517383
-0.0469377
-0.0424831
-0.0384156
-0.0347191
-0.0313617
-0.0283227
-0.0255799
-0.0231063
-0.0208772
-0.0188701
-0.0170638
-0.0154387
-0.0139771
-0.0126626
-0.0114809
-0.0104186
-0.00946392
-0.00860609
-0.00783556
-0.00714353
-0.00652246
-0.0059652
-0.00546559
-0.00501798
-0.00461738
-0.00425928
-0.00393974
-0.00365515
-0.0034023
-0.0031784
-0.00298096
-0.00280778
-0.00265698
-0.00252691
-0.00241603
-0.00232318
-0.00224732
-0.00218761
-0.0021434
-0.00211419
-0.00209966
-0.0527568
-0.0613196
-0.0690318
-0.0667297
-0.0649756
-0.0616273
-0.0572242
-0.0528627
-0.0485653
-0.0443805
-0.0404179
-0.0367438
-0.0333547
-0.0302401
-0.0273964
-0.0248105
-0.0224628
-0.0203356
-0.0184114
-0.0166727
-0.015103
-0.013687
-0.0124105
-0.0112601
-0.0102242
-0.00929157
-0.00845239
-0.00769764
-0.00701911
-0.00640952
-0.00586218
-0.00537106
-0.0049308
-0.00453661
-0.00418404
-0.00386932
-0.00358894
-0.00333974
-0.00311905
-0.00292437
-0.00275357
-0.00260486
-0.00247654
-0.00236717
-0.00227557
-0.00220072
-0.00214181
-0.00209818
-0.00206935
-0.00205502
-0.0339978
-0.0466665
-0.0568432
-0.0570085
-0.057399
-0.0554597
-0.0522978
-0.0489437
-0.0454025
-0.0418089
-0.038327
-0.0350366
-0.0319489
-0.029076
-0.0264285
-0.0240007
-0.0217809
-0.019758
-0.0179192
-0.0162507
-0.014739
-0.0133711
-0.0121346
-0.0110178
-0.0100101
-0.00910144
-0.00828256
-0.0075451
-0.00688146
-0.00628459
-0.00574829
-0.0052667
-0.00483471
-0.00444775
-0.0041015
-0.00379226
-0.00351665
-0.00327164
-0.00305463
-0.00286313
-0.00269511
-0.00254878
-0.00242248
-0.00231485
-0.00222471
-0.00215102
-0.00209303
-0.00205009
-0.0020217
-0.00200759
-0.0184772
-0.0341703
-0.0459715
-0.048139
-0.0503148
-0.049593
-0.0475601
-0.0451214
-0.0422781
-0.0392476
-0.0362282
-0.033307
-0.0305126
-0.0278785
-0.0254258
-0.0231557
-0.0210647
-0.0191477
-0.0173962
-0.0157999
-0.0143482
-0.0130305
-0.0118361
-0.0107549
-0.00977726
-0.00889413
-0.0080971
-0.00737839
-0.00673092
-0.00614798
-0.00562379
-0.00515271
-0.00472992
-0.00435099
-0.0040118
-0.00370868
-0.00343839
-0.0031981
-0.00298522
-0.00279732
-0.00263245
-0.0024888
-0.0023648
-0.00225914
-0.00217063
-0.00209828
-0.00204134
-0.00199915
-0.00197128
-0.00195743
-0.00587234
-0.0236154
-0.0363762
-0.0401391
-0.0437583
-0.0440746
-0.0430438
-0.0414239
-0.039219
-0.036718
-0.0341368
-0.0315671
-0.0290563
-0.0266559
-0.0243946
-0.0222807
-0.0203184
-0.0185082
-0.0168452
-0.0153226
-0.0139326
-0.0126668
-0.0115163
-0.0104723
-0.00952631
-0.0086703
-0.00789656
-0.00719797
-0.00656786
-0.00600004
-0.00548895
-0.00502934
-0.00461663
-0.0042465
-0.00391507
-0.0036187
-0.00335432
-0.00311925
-0.00291093
-0.00272702
-0.00256564
-0.00242501
-0.00230358
-0.00220008
-0.0021134
-0.00204255
-0.00198676
-0.00194543
-0.00191813
-0.00190456
0.00412516
-0.0147386
-0.0279804
-0.0329972
-0.0377438
-0.0389291
-0.0387721
-0.0378753
-0.0362479
-0.0342379
-0.0320665
-0.029828
-0.0275896
-0.0254158
-0.0233409
-0.0213806
-0.0195462
-0.0178425
-0.0162685
-0.0148207
-0.0134938
-0.0122814
-0.0111762
-0.0101709
-0.00925811
-0.00843062
-0.00768152
-0.00700429
-0.00639269
-0.00584108
-0.00534409
-0.00489687
-0.00449504
-0.00413447
-0.00381146
-0.00352247
-0.00326456
-0.00303522
-0.00283187
-0.00265234
-0.00249478
-0.00235747
-0.00223886
-0.00213775
-0.00205309
-0.00198389
-0.00192937
-0.00188898
-0.00186232
-0.00184906
0.0118656
-0.0073398
-0.0207043
-0.0266764
-0.0322691
-0.0341681
-0.0347632
-0.0344946
-0.0333821
-0.0318221
-0.0300292
-0.0281007
-0.0261214
-0.0241651
-0.0222703
-0.0204601
-0.0187518
-0.0171539
-0.015669
-0.0142965
-0.0130336
-0.0118756
-0.010817
-0.0098518
-0.00897349
-0.0081758
-0.00745258
-0.00679786
-0.00620587
-0.00567145
-0.00518954
-0.00475559
-0.00436543
-0.00401513
-0.00370116
-0.00342016
-0.00316927
-0.00294612
-0.00274813
-0.00257339
-0.00241997
-0.00228625
-0.00217072
-0.00207222
-0.0019898
-0.00192236
-0.00186923
-0.00182988
-0.0018039
-0.00179098
0.0177125
-0.00128154
-0.0144667
-0.0211298
-0.0273245
-0.0297955
-0.03103
-0.0312941
-0.030635
-0.0294827
-0.0280355
-0.0263944
-0.0246596
-0.02291
-0.0211882
-0.0195238
-0.0179388
-0.0164453
-0.015049
-0.013752
-0.0125536
-0.011451
-0.0104401
-0.00951597
-0.0086733
-0.00790657
-0.00721034
-0.0065792
-0.00600785
-0.00549155
-0.00502563
-0.00460574
-0.00422802
-0.00388871
-0.00358437
-0.00331194
-0.00306863
-0.00285205
-0.0026599
-0.00249027
-0.00234129
-0.00221147
-0.00209925
-0.00200356
-0.00192361
-0.00185804
-0.00180641
-0.00176819
-0.00174295
-0.0017304
0.0219984
0.00356728
-0.0091844
-0.0163111
-0.0228963
-0.0258099
-0.0275778
-0.0282813
-0.0280172
-0.0272298
-0.0260943
-0.0247174
-0.0232111
-0.0216563
-0.0200994
-0.0185757
-0.0171109
-0.0157197
-0.014411
-0.0131893
-0.0120557
-0.011009
-0.0100465
-0.00916446
-0.00835843
-0.0076237
-0.00695546
-0.00634886
-0.00579915
-0.00530184
-0.00485271
-0.00444767
-0.0040831
-0.00375544
-0.00346133
-0.00319802
-0.00296277
-0.00275321
-0.00256732
-0.00240313
-0.00225883
-0.00213325
-0.0020246
-0.00193197
-0.00185445
-0.00179099
-0.001741
-0.00170398
-0.00167952
-0.00166737
0.0250054
0.00736741
-0.00478078
-0.0121743
-0.0189653
-0.0222055
-0.0244038
-0.0254603
-0.0255365
-0.0250705
-0.0242126
-0.0230765
-0.0217817
-0.0204091
-0.0190085
-0.0176197
-0.016271
-0.0149798
-0.0137573
-0.0126102
-0.0115414
-0.010551
-0.00963749
-0.00879826
-0.00802973
-0.00732791
-0.00668856
-0.0061074
-0.0055802
-0.00510272
-0.00467113
-0.00428171
-0.00393095
-0.00361556
-0.00333227
-0.00307857
-0.00285179
-0.00264981
-0.00247045
-0.0023121
-0.00217288
-0.00205164
-0.00194683
-0.00185743
-0.00178257
-0.00172132
-0.00167307
-0.00163733
-0.00161371
-0.00160197
0.0269638
0.010283
-0.00117261
-0.00866443
-0.0155061
-0.0189709
-0.0215012
-0.0228331
-0.0231979
-0.02301
-0.022396
-0.0214773
-0.0203765
-0.0191731
-0.0179197
-0.0166593
-0.0154223
-0.0142281
-0.0130903
-0.0120169
-0.0110124
-0.0100783
-0.00921429
-0.00841846
-0.00768813
-0.00701999
-0.00641036
-0.00585546
-0.00535153
-0.00489465
-0.00448132
-0.00410818
-0.0037719
-0.00346942
-0.00319751
-0.00295379
-0.00273587
-0.00254203
-0.00236953
-0.00221729
-0.00208346
-0.00196683
-0.00186605
-0.00178007
-0.00170803
-0.00164911
-0.0016027
-0.00156831
-0.00154559
-0.00153429
0.0280627
0.0124515
0.00173119
-0.00571813
-0.0124879
-0.0160894
-0.0188604
-0.0203989
-0.0210031
-0.021051
-0.0206485
-0.0199241
-0.0189996
-0.017952
-0.0168362
-0.0156974
-0.0145673
-0.0134671
-0.0124117
-0.0114109
-0.0104703
-0.00959243
-0.00877799
-0.008026
-0.00733445
-0.00670064
-0.00612148
-0.00559359
-0.00511359
-0.00467804
-0.00428367
-0.00392739
-0.00360617
-0.00331733
-0.00305728
-0.00282391
-0.00261546
-0.00242979
-0.0022647
-0.00211887
-0.00199071
-0.00187895
-0.00178237
-0.00169999
-0.00163094
-0.00157446
-0.00152998
-0.00149703
-0.00147525
-0.00146442
0.0284637
0.0139838
0.00401756
-0.00327379
-0.00987861
-0.0135403
-0.01647
-0.018155
-0.0189518
-0.019195
-0.0189735
-0.0184204
-0.0176544
-0.0167493
-0.0157614
-0.0147372
-0.0137088
-0.012699
-0.0117239
-0.0107942
-0.0099166
-0.00909468
-0.0083299
-0.00762202
-0.00696968
-0.00637076
-0.00582266
-0.00532243
-0.00486705
-0.00445342
-0.00407861
-0.00373974
-0.00343409
-0.00315958
-0.00291178
-0.00268933
-0.0024906
-0.00231352
-0.00215613
-0.00201701
-0.00189475
-0.0017881
-0.00169593
-0.0016173
-0.00155139
-0.00149748
-0.00145502
-0.00142356
-0.00140278
-0.00139244
0.0283033
0.0149743
0.00576321
-0.00127796
-0.00764605
-0.0113006
-0.0143166
-0.0160952
-0.0170407
-0.0174414
-0.0173719
-0.0169681
-0.016343
-0.0155671
-0.0146975
-0.0137805
-0.0128488
-0.0119256
-0.0110282
-0.0101681
-0.00935259
-0.00858617
-0.00787093
-0.00720732
-0.00659455
-0.00603099
-0.00551447
-0.00504249
-0.00461232
-0.00422121
-0.00386652
-0.00354555
-0.00325593
-0.00299653
-0.00276126
-0.00255018
-0.00236154
-0.0021934
-0.00204398
-0.00191186
-0.00179574
-0.00169442
-0.00160686
-0.00153214
-0.00146951
-0.00141828
-0.00137793
-0.00134803
-0.00132827
-0.00131845
0.0276974
0.0155092
0.00703951
0.00031598
-0.00575877
-0.00934705
-0.0123864
-0.0142125
-0.0152662
-0.0157893
-0.0158445
-0.0155688
-0.0150677
-0.0144081
-0.0136469
-0.0128299
-0.0119894
-0.0111491
-0.0103267
-0.00953431
-0.00877986
-0.00806834
-0.00740242
-0.0067831
-0.0062101
-0.00568225
-0.00519776
-0.0047545
-0.00435006
-0.00398199
-0.00364789
-0.0033453
-0.00307194
-0.00282879
-0.00260599
-0.0024067
-0.0022285
-0.00206963
-0.00192845
-0.0018036
-0.00169384
-0.00159806
-0.00151527
-0.00144463
-0.00138539
-0.00133695
-0.00129879
-0.00127052
-0.00125183
-0.00124254
0.026737
0.0156608
0.00791377
0.00155186
-0.00418369
-0.00765584
-0.0106644
-0.0124969
-0.0136219
-0.0142353
-0.0143899
-0.014222
-0.0138287
-0.0132729
-0.0126107
-0.0118864
-0.0111317
-0.0103705
-0.00962043
-0.00889386
-0.00819923
-0.00754193
-0.00692505
-0.00634998
-0.0058169
-0.00532505
-0.00487298
-0.00445889
-0.00408066
-0.00373611
-0.00342306
-0.00313932
-0.00288435
-0.00265472
-0.00244615
-0.00225905
-0.00209166
-0.00194239
-0.00180973
-0.00169239
-0.00158921
-0.00149916
-0.00142132
-0.00135489
-0.00129919
-0.00125363
-0.00121774
-0.00119115
-0.00117358
-0.00116483
0.0254985
0.0154902
0.00844578
0.00247224
-0.00288793
-0.00620445
-0.00913575
-0.010939
-0.0121025
-0.0127767
-0.0130071
-0.0129283
-0.0126273
-0.0121632
-0.0115908
-0.0109522
-0.010278
-0.00959183
-0.00891123
-0.00824855
-0.00761241
-0.00700849
-0.0064402
-0.00590925
-0.00541612
-0.00496042
-0.00454105
-0.00415648
-0.00380488
-0.00348426
-0.0031926
-0.00292786
-0.00269186
-0.00247663
-0.00228217
-0.00210758
-0.00195132
-0.00181193
-0.00168803
-0.00157842
-0.00148203
-0.00139789
-0.00132515
-0.00126306
-0.001211
-0.00116842
-0.00113487
-0.00111002
-0.00109359
-0.00108542
0.0240373
0.015045
0.0086833
0.00311806
-0.00183969
-0.00496924
-0.00778334
-0.00952658
-0.0106993
-0.0114073
-0.0116923
-0.0116849
-0.0114618
-0.0110782
-0.0105867
-0.0100269
-0.00942809
-0.00881323
-0.00819935
-0.00759863
-0.0070197
-0.00646835
-0.00594819
-0.00546119
-0.00500806
-0.00458868
-0.00420226
-0.00384755
-0.00352294
-0.00322667
-0.00295684
-0.00271077
-0.00249522
-0.00229446
-0.00211427
-0.0019525
-0.00180767
-0.00167842
-0.00156353
-0.00146187
-0.00137245
-0.00129439
-0.0012269
-0.00116929
-0.00112098
-0.00108146
-0.00105033
-0.00102726
-0.00101201
-0.00100443
0.0224041
0.0143698
0.00866581
0.00352701
-0.0010118
-0.00392917
-0.00659287
-0.00824986
-0.00940594
-0.0101235
-0.0104439
-0.0104918
-0.0103331
-0.0100193
-0.00960028
-0.00911272
-0.00858428
-0.00803692
-0.00748693
-0.00694614
-0.006423
-0.00592328
-0.00545067
-0.00500729
-0.00459407
-0.00421107
-0.00385773
-0.00353308
-0.00323574
-0.00296414
-0.00271666
-0.0024917
-0.00229207
-0.00210838
-0.00194286
-0.00179418
-0.00166102
-0.00154215
-0.00143647
-0.00134294
-0.00126067
-0.00118883
-0.00112672
-0.0010737
-0.00102923
-0.000992853
-0.000964195
-0.000942958
-0.000928922
-0.00092194
0.0206283
0.0134988
0.00842774
0.00373244
-0.000377781
-0.00306135
-0.00554668
-0.00709493
-0.00821111
-0.00891685
-0.00925558
-0.0093439
-0.00923722
-0.00898362
-0.00862934
-0.00820791
-0.0077452
-0.00726183
-0.00677317
-0.00629045
-0.00582183
-0.00537291
-0.00494736
-0.00454738
-0.00417402
-0.0038275
-0.00350744
-0.00321308
-0.0029433
-0.00269673
-0.00247192
-0.00226768
-0.00208563
-0.00191867
-0.00176809
-0.00163277
-0.00151153
-0.00140328
-0.00130701
-0.00122181
-0.00114685
-0.00108139
-0.00102478
-0.000976462
-0.00093593
-0.000902774
-0.000876652
-0.000857293
-0.000844499
-0.000838134
0.0187455
0.0124663
0.00800254
0.0037619
8.47134e-05
-0.00234764
-0.00463258
-0.00605317
-0.00710914
-0.00778445
-0.0081264
-0.00824168
-0.00817576
-0.00797327
-0.00767638
-0.00731524
-0.00691369
-0.00649082
-0.00606082
-0.00563421
-0.00521868
-0.00481956
-0.00444041
-0.0040834
-0.00374966
-0.00343956
-0.00315283
-0.00288886
-0.00264678
-0.00242544
-0.00222352
-0.00203971
-0.00187638
-0.00172594
-0.00159049
-0.00146872
-0.00135959
-0.00126213
-0.00117544
-0.0010987
-0.00103118
-0.000972214
-0.000921218
-0.000877681
-0.000841161
-0.000811285
-0.000787747
-0.000770303
-0.000758773
-0.000753038
0.0167657
0.0112942
0.00741785
0.0036415
0.000400604
-0.00176585
-0.00383151
-0.00510849
-0.006086
-0.00671493
-0.00704677
-0.00717703
-0.00714199
-0.00698264
-0.00673667
-0.00643073
-0.00608643
-0.00572106
-0.0053475
-0.00497541
-0.00461185
-0.0042618
-0.0039286
-0.00361436
-0.0033202
-0.00304656
-0.00279332
-0.00255998
-0.00234584
-0.00214998
-0.00197129
-0.0018088
-0.00166313
-0.00153011
-0.00141007
-0.00130209
-0.00120529
-0.00111882
-0.00104189
-0.000973782
-0.000913848
-0.000861503
-0.000816229
-0.000777575
-0.00074515
-0.000718623
-0.000697722
-0.000682232
-0.000671995
-0.000666901
0.0147188
0.010008
0.00670037
0.00339189
0.000587561
-0.00130202
-0.00313466
-0.00425482
-0.00513877
-0.00570777
-0.0060179
-0.00615246
-0.00613937
-0.00601576
-0.00581458
-0.00555888
-0.00526789
-0.00495692
-0.0046374
-0.00431797
-0.00400501
-0.00370301
-0.00341505
-0.00314307
-0.00288817
-0.00265081
-0.00243097
-0.00222826
-0.00204209
-0.00187176
-0.00171639
-0.00157509
-0.00144778
-0.00133205
-0.00122753
-0.00113346
-0.00104911
-0.000973736
-0.000906674
-0.000847296
-0.000795038
-0.000749393
-0.000709912
-0.000676202
-0.000647922
-0.000624787
-0.000606557
-0.000593048
-0.000584118
-0.000579677
0.0125991
0.00862185
0.00587103
0.00303584
0.000669607
-0.00093312
-0.00252017
-0.00347244
-0.00424923
-0.00474712
-0.00502558
-0.00515547
-0.00515692
-0.005063
-0.00490166
-0.00469232
-0.00445163
-0.00419277
-0.00392561
-0.00365766
-0.00339447
-0.00314002
-0.002897
-0.00266718
-0.00245155
-0.00225058
-0.00206431
-0.00189246
-0.00173454
-0.00158997
-0.00145811
-0.00133821
-0.00122977
-0.0011315
-0.00104268
-0.000962731
-0.000891017
-0.000826931
-0.000769899
-0.000719396
-0.000674946
-0.000636117
-0.000602531
-0.000573852
-0.000549793
-0.000530108
-0.000514599
-0.000503104
-0.000495507
-0.000491726
0.0104377
0.00715506
0.00495282
0.00258814
0.000658122
-0.000650524
-0.00198554
-0.00276013
-0.00342001
-0.00383744
-0.00407575
-0.00419315
-0.0042024
-0.00413241
-0.00400603
-0.00383903
-0.00364536
-0.00343595
-0.00321901
-0.00300085
-0.00278612
-0.00257818
-0.00237933
-0.00219107
-0.0020143
-0.00184941
-0.00169648
-0.00155533
-0.00142557
-0.00130673
-0.00119831
-0.00109974
-0.00101041
-0.000929559
-0.000856468
-0.000790673
-0.000731645
-0.000678887
-0.000631931
-0.000590348
-0.000553746
-0.000521772
-0.000494113
-0.000470495
-0.000450681
-0.00043447
-0.000421697
-0.000412231
-0.000405974
-0.000402863
0.00821259
0.00561826
0.00396136
0.0020712
0.000579985
-0.000427375
-0.00150292
-0.002091
-0.00262575
-0.00295494
-0.00314647
-0.00324552
-0.00325762
-0.00320759
-0.00311299
-0.00298585
-0.00283734
-0.00267603
-0.00250839
-0.00233941
-0.0021728
-0.00201124
-0.00185657
-0.00171
-0.00157227
-0.00144373
-0.00132444
-0.00121429
-0.001113
-0.00102021
-0.000935515
-0.000858519
-0.000788702
-0.000725466
-0.000668344
-0.000616919
-0.000570772
-0.000529523
-0.000492807
-0.000460289
-0.000431665
-0.00040666
-0.000385028
-0.000366557
-0.00035106
-0.000338381
-0.000328391
-0.000320987
-0.000316094
-0.000313658
0.005961
0.0040275
0.00291547
0.00149379
0.000439227
-0.00026421
-0.00107926
-0.00147274
-0.00187926
-0.00211276
-0.00225271
-0.00232811
-0.00233818
-0.002304
-0.00223748
-0.00214706
-0.00204104
-0.00192558
-0.00180534
-0.00168399
-0.00156422
-0.00144797
-0.00133662
-0.00123104
-0.00113178
-0.00103911
-0.000953091
-0.000873636
-0.000800566
-0.000733621
-0.000672505
-0.000616935
-0.000566557
-0.00052087
-0.000479655
-0.000442539
-0.000409234
-0.000379462
-0.000352961
-0.000329491
-0.000308832
-0.000290784
-0.000275173
-0.000261842
-0.000250658
-0.000241508
-0.000234299
-0.000228956
-0.000225426
-0.000223673
0.00363992
0.00240152
0.00181795
0.000885137
0.000272076
-0.000129409
-0.00066958
-0.000867303
-0.00113993
-0.00127182
-0.00135848
-0.0014066
-0.00141241
-0.00139262
-0.00135298
-0.0012986
-0.00123477
-0.00116511
-0.00109247
-0.0010191
-0.000946628
-0.000876251
-0.000808803
-0.000744832
-0.000684674
-0.000628494
-0.000576337
-0.000528152
-0.000483833
-0.00044323
-0.00040616
-0.000372444
-0.000341883
-0.000314161
-0.000289156
-0.000266641
-0.000246438
-0.000228379
-0.000212304
-0.000198068
-0.000185537
-0.000174591
-0.000165123
-0.000157038
-0.000150256
-0.000144707
-0.000140335
-0.000137096
-0.000134955
-0.000133888
0.00129045
0.000767946
0.000665758
0.00025639
7.18605e-05
-4.79455e-05
-0.000284534
-0.000305718
-0.000431517
-0.000460688
-0.000493224
-0.000508982
-0.000508244
-0.000500114
-0.000484677
-0.000464132
-0.000440461
-0.000414821
-0.000388238
-0.000361502
-0.000335176
-0.000309674
-0.000285284
-0.000262192
-0.000240508
-0.000220286
-0.000201534
-0.000184231
-0.000168331
-0.000153779
-0.000140508
-0.000128443
-0.000117515
-0.000107621
-9.86906e-05
-9.06627e-05
-8.34647e-05
-7.70343e-05
-7.13145e-05
-6.62523e-05
-6.17988e-05