/*--------------------------------*- C++ -*----------------------------------*\
  =========                 |
  \\      /  F ield         | OpenFOAM: The Open Source CFD Toolbox
   \\    /   O peration     | Website:  https://openfoam.org
    \\  /    A nd           | Version:  7
     \\/     M anipulation  |
\*---------------------------------------------------------------------------*/
FoamFile
{
    version     2.0;
    format      ascii;
    class       volVectorField;
    location    "114.999";
    object      U;
}
// * * * * * * * * * * * * * * * * * * * * * * * * * * * * * * * * * * * * * //

dimensions      [0 1 -1 0 0 0 0];

internalField   nonuniform List<vector> 
14800
(
(-0.00553708 0.0132755 -2.38778e-20)
(-0.0247079 -0.00740038 3.0982e-21)
(-0.0551336 -0.0441182 1.36256e-20)
(-0.0873259 -0.081918 -7.24495e-21)
(-0.119931 -0.118484 -2.36156e-20)
(-0.150988 -0.156544 2.23811e-20)
(-0.179268 -0.198813 9.70251e-22)
(-0.203791 -0.246089 2.69756e-21)
(-0.223532 -0.297326 -1.26564e-20)
(-0.237264 -0.349967 -1.61287e-21)
(-0.243547 -0.399966 9.406e-21)
(-0.240836 -0.441767 8.0367e-21)
(-0.227776 -0.468694 3.01148e-20)
(-0.202828 -0.473745 -3.37207e-20)
(-0.163129 -0.450606 1.36202e-20)
(-0.00669625 0.0197819 5.08256e-20)
(-0.0266325 0.0052172 -3.16888e-20)
(-0.0577945 -0.0285503 -1.11257e-20)
(-0.0905921 -0.0650777 2.26655e-21)
(-0.123817 -0.101452 2.19644e-20)
(-0.155587 -0.140061 4.58736e-20)
(-0.184819 -0.183472 -3.90157e-20)
(-0.210709 -0.232496 7.3806e-21)
(-0.232421 -0.286219 3.3251e-20)
(-0.248965 -0.342268 3.64813e-20)
(-0.259196 -0.396772 -4.48487e-20)
(-0.261932 -0.444328 4.8754e-20)
(-0.256109 -0.478264 -6.97504e-20)
(-0.240317 -0.491086 6.61569e-20)
(-0.210846 -0.476532 1.21856e-20)
(-0.00817553 0.0264724 8.40679e-20)
(-0.0287353 0.0183315 1.48911e-19)
(-0.0599273 -0.0123235 8.18043e-21)
(-0.0924149 -0.0475064 -4.18155e-20)
(-0.125159 -0.0835798 -2.07203e-20)
(-0.156353 -0.122519 -7.17025e-20)
(-0.185024 -0.166729 5.12596e-20)
(-0.210495 -0.217046 6.6044e-20)
(-0.232099 -0.272694 -7.44926e-20)
(-0.249082 -0.331474 -2.88408e-20)
(-0.260663 -0.389694 9.72033e-20)
(-0.26614 -0.442136 -3.26276e-20)
(-0.26489 -0.482249 2.99691e-20)
(-0.256269 -0.502243 3.24677e-20)
(-0.23454 -0.496446 4.81337e-20)
(-0.00995104 0.0330853 -6.96024e-20)
(-0.0309604 0.031532 -2.49844e-19)
(-0.0614322 0.00413427 1.23663e-19)
(-0.0926545 -0.029616 -1.31688e-20)
(-0.12377 -0.0652715 4.60809e-20)
(-0.153037 -0.104324 -1.40816e-19)
(-0.179538 -0.149004 5.32782e-21)
(-0.202669 -0.200172 3.6656e-21)
(-0.221883 -0.257177 5.20432e-20)
(-0.236648 -0.317964 -6.23709e-20)
(-0.246568 -0.378977 -1.66044e-19)
(-0.251522 -0.435171 -5.88849e-20)
(-0.251378 -0.480251 -8.12291e-21)
(-0.247237 -0.506228 1.34306e-20)
(-0.22942 -0.508652 -5.8491e-20)
(-0.0119747 0.0393532 -1.60826e-19)
(-0.0332415 0.0443975 1.1827e-19)
(-0.062233 0.0203876 9.75334e-21)
(-0.0912265 -0.0118271 1.20326e-20)
(-0.119553 -0.0469428 -1.04947e-19)
(-0.145515 -0.0859121 7.64096e-20)
(-0.168195 -0.130767 -2.8954e-20)
(-0.186995 -0.182384 4.9029e-20)
(-0.201433 -0.24021 -2.69369e-20)
(-0.211155 -0.302277 1.62309e-19)
(-0.216149 -0.3651 1.20788e-19)
(-0.216978 -0.423727 7.8343e-20)
(-0.21383 -0.472244 -1.1551e-19)
(-0.211131 -0.502498 3.01735e-20)
(-0.192098 -0.511629 -2.51025e-20)
(-0.0141762 0.0450206 -3.8564e-22)
(-0.0355017 0.0565151 2.13016e-19)
(-0.0622787 0.0360052 -1.58e-19)
(-0.0881045 0.00543357 1.33438e-19)
(-0.112506 -0.0290129 1.18786e-19)
(-0.133801 -0.0677387 -7.07214e-20)
(-0.151023 -0.112524 4.85581e-20)
(-0.163513 -0.16425 -1.94522e-19)
(-0.170794 -0.222426 5.6038e-20)
(-0.172649 -0.285105 -1.25798e-19)
(-0.169413 -0.348771 6.49366e-20)
(-0.162506 -0.408451 -1.432e-19)
(-0.151857 -0.458641 -3.02958e-20)
(-0.147675 -0.491162 -5.81217e-20)
(-0.121395 -0.504526 6.29443e-20)
(-0.0164682 0.0498606 -1.96074e-20)
(-0.0376585 0.0674981 -2.207e-19)
(-0.0615451 0.0505686 2.00718e-20)
(-0.0833142 0.0217469 2.31284e-21)
(-0.102708 -0.0119284 3.64206e-20)
(-0.118042 -0.0502726 3.07819e-19)
(-0.128235 -0.0948018 -2.47794e-20)
(-0.132531 -0.146375 1.6569e-19)
(-0.130408 -0.204522 1.93881e-20)
(-0.121753 -0.267244 1.01733e-20)
(-0.107205 -0.330892 -4.66078e-20)
(-0.0893753 -0.39035 1.11534e-19)
(-0.0667321 -0.440284 2.46108e-19)
(-0.0586007 -0.473236 -2.53614e-19)
(-0.0193372 -0.486873 -7.71534e-20)
(-0.018752 0.0536886 1.27921e-19)
(-0.0396268 0.077003 2.22544e-19)
(-0.0600323 0.0636876 -6.03326e-20)
(-0.0769455 0.0367124 -1.06901e-19)
(-0.0903235 0.00389066 -1.05919e-19)
(-0.098492 -0.0339593 1.77121e-20)
(-0.10021 -0.078126 1.01878e-19)
(-0.0945973 -0.129363 -3.24842e-19)
(-0.081058 -0.187205 -7.52945e-21)
(-0.0595973 -0.249524 -9.75495e-20)
(-0.0311087 -0.312461 -2.26282e-19)
(4.13306e-06 -0.370767 2.18935e-19)
(0.0382576 -0.418166 -2.76354e-19)
(0.0528119 -0.45104 1.2081e-19)
(0.108265 -0.458453 6.35087e-20)
(-0.0209262 0.0563748 -6.88487e-20)
(-0.041323 0.0847445 8.58788e-20)
(-0.0577596 0.0750104 -1.54114e-19)
(-0.069117 0.0499557 1.32322e-19)
(-0.0755754 0.0180629 1.84467e-19)
(-0.0754937 -0.019258 2.24093e-19)
(-0.0674499 -0.0630031 -8.97597e-20)
(-0.0504189 -0.113783 -7.46381e-20)
(-0.0237452 -0.17113 3.30107e-19)
(0.0123603 -0.232724 2.34933e-19)
(0.056779 -0.294408 2.10045e-19)
(0.102817 -0.351339 -2.91069e-19)
(0.157786 -0.393262 7.51884e-20)
(0.181843 -0.426707 6.26331e-20)
(0.253854 -0.422786 -4.41499e-21)
(-0.0228948 0.0578509 -3.14708e-19)
(-0.0426691 0.0905083 -4.09571e-19)
(-0.0547617 0.0842352 1.52541e-19)
(-0.059976 0.061133 2.15357e-19)
(-0.0587344 0.0302085 -4.45359e-19)
(-0.0494365 -0.00658162 -1.54519e-20)
(-0.0304862 -0.0498753 -1.84003e-19)
(-0.000745584 -0.100126 4.42076e-19)
(0.0404818 -0.156848 -1.96062e-19)
(0.0926123 -0.217483 -2.22643e-20)
(0.153985 -0.27736 1.43495e-19)
(0.21613 -0.332437 3.34141e-19)
(0.287117 -0.367855 1.36883e-19)
(0.320639 -0.400725 -8.93737e-20)
(0.409539 -0.385821 -1.72777e-20)
(-0.0245751 0.0581136 2.18613e-19)
(-0.0435953 0.0941595 2.96007e-19)
(-0.051081 0.0911227 -2.08036e-19)
(-0.0496758 0.0699486 -7.1464e-19)
(-0.0400625 0.0400079 -8.22794e-20)
(-0.0207046 0.00374602 7.16663e-21)
(0.01016 -0.0390717 2.49457e-19)
(0.0537921 -0.088853 -5.65568e-19)
(0.110723 -0.144796 -2.61406e-20)
(0.179882 -0.20414 -2.91644e-19)
(0.258656 -0.261504 -3.69409e-19)
(0.336332 -0.31387 -2.21821e-19)
(0.421683 -0.343483 1.69406e-20)
(0.462525 -0.37339 -5.14073e-20)
(0.563696 -0.350622 -1.27626e-19)
(-0.0259046 0.0572205 1.23296e-19)
(-0.0440418 0.0956495 2.1797e-19)
(-0.0467578 0.0955117 -1.03326e-19)
(-0.0383571 0.0761822 -9.67624e-20)
(-0.01977 0.0471779 6.00098e-19)
(0.0104424 0.0114162 -6.29001e-19)
(0.0541217 -0.0309648 3.49426e-20)
(0.112699 -0.0802266 1.47621e-19)
(0.186412 -0.135145 1.1099e-19)
(0.273217 -0.192727 7.4327e-20)
(0.369029 -0.246883 1.25181e-19)
(0.460867 -0.295581 -8.33342e-20)
(0.556447 -0.319558 2.32568e-19)
(0.602855 -0.345088 1.5103e-19)
(0.707373 -0.317286 7.2629e-20)
(-0.0268458 0.0552868 5.46123e-20)
(-0.0439554 0.0950184 -4.42665e-19)
(-0.0417975 0.0973087 6.51418e-19)
(-0.0261056 0.0796413 8.20852e-19)
(0.00199491 0.0515047 -2.79151e-19)
(0.0438424 0.0162001 1.0139e-19)
(0.101346 -0.0257802 -2.70352e-19)
(0.175922 -0.0743052 -4.69206e-20)
(0.267324 -0.127839 -5.18944e-19)
(0.371985 -0.183001 1.08447e-19)
(0.483425 -0.233173 3.9999e-19)
(0.586976 -0.276933 -4.63494e-20)
(0.687114 -0.295701 1.03141e-19)
(0.736573 -0.315749 -4.66395e-20)
(0.834937 -0.285115 -3.51404e-22)
(-0.0273899 0.052474 -2.64946e-19)
(-0.0432968 0.0923824 -3.01369e-19)
(-0.0361849 0.0964965 -7.1965e-19)
(-0.0129014 0.0802215 -5.22205e-19)
(0.0252683 0.0528711 -4.20893e-19)
(0.0795963 0.0180035 4.87316e-19)
(0.152039 -0.0234905 9.73256e-20)
(0.2438 -0.071014 2.16077e-19)
(0.353602 -0.122571 1.15241e-19)
(0.475609 -0.17436 -3.15546e-19)
(0.600012 -0.219735 -1.59582e-19)
(0.711258 -0.25732 2.9578e-20)
(0.80974 -0.271345 -4.45412e-19)
(0.858601 -0.285652 9.41698e-20)
(0.942827 -0.253779 -1.66629e-19)
(-0.0275546 0.0489725 1.36719e-19)
(-0.042025 0.0879308 1.04798e-18)
(-0.0298471 0.0931698 5.34114e-19)
(0.00137498 0.0779495 2.52887e-19)
(0.0502947 0.0512577 6.56278e-19)
(0.118141 0.0168592 -5.85435e-19)
(0.206846 -0.023935 -2.46703e-19)
(0.317026 -0.069966 -2.4023e-19)
(0.445485 -0.118694 1.14302e-18)
(0.583134 -0.165931 3.57473e-19)
(0.71638 -0.205703 -2.62567e-19)
(0.829752 -0.236342 1.26823e-19)
(0.920604 -0.246164 -1.50204e-19)
(0.964693 -0.255216 1.29809e-19)
(1.02972 -0.223576 4.17923e-20)
(-0.0273786 0.0449868 -1.28807e-20)
(-0.0400897 0.0819132 -5.60859e-19)
(-0.0226284 0.0875109 -5.15633e-19)
(0.0170208 0.0729495 -1.81875e-19)
(0.0775826 0.0468007 -3.24636e-19)
(0.160283 0.0129863 3.39911e-19)
(0.266809 -0.0267017 1.67996e-19)
(0.396468 -0.0704499 -2.53535e-19)
(0.542883 -0.115239 -8.97934e-22)
(0.692779 -0.156735 -1.87955e-19)
(0.829293 -0.190279 4.12444e-20)
(0.938372 -0.213861 4.85376e-20)
(1.01659 -0.220296 3.81083e-20)
(1.0523 -0.225006 7.79048e-20)
(1.09639 -0.195041 -1.85623e-19)
(-0.026913 0.0407188 -2.76797e-19)
(-0.0374178 0.0746195 2.27287e-19)
(-0.0142693 0.0797885 2.15991e-19)
(0.0345421 0.0654707 2.7411e-20)
(0.107961 0.0397953 2.23746e-19)
(0.207195 0.0068305 -3.09633e-19)
(0.333201 -0.0310731 3.23774e-19)
(0.482753 -0.0714435 5.38855e-20)
(0.644837 -0.111056 -3.658e-19)
(0.801699 -0.1459 7.77789e-21)
(0.934929 -0.173011 -3.19654e-19)
(1.03357 -0.190084 2.74016e-19)
(1.09578 -0.194261 3.14822e-20)
(1.12099 -0.195585 4.45226e-20)
(1.14513 -0.168631 1.73287e-19)
(-0.0262092 0.0363508 7.77948e-19)
(-0.0338975 0.0663591 -3.05783e-19)
(-0.00438881 0.0703494 -1.62787e-19)
(0.0546676 0.0558936 -2.03658e-19)
(0.142569 0.0307233 -5.6227e-19)
(0.260316 -0.000898015 -1.88459e-19)
(0.407193 -0.0360283 3.76024e-19)
(0.575718 -0.0717306 -2.49463e-19)
(0.749123 -0.105071 -9.51486e-19)
(0.906174 -0.1329 3.34329e-19)
(1.02959 -0.15391 6.3934e-20)
(1.11305 -0.165561 -1.85487e-19)
(1.15794 -0.16871 8.93689e-20)
(1.1722 -0.167257 -6.92966e-20)
(1.17882 -0.144585 7.66175e-20)
(-0.0253043 0.0320316 -1.25325e-19)
(-0.0293629 0.0574397 4.01585e-19)
(0.00752467 0.0596038 4.53216e-19)
(0.0783366 0.0447333 3.5242e-19)
(0.182773 0.0202768 5.51271e-19)
(0.321091 -0.00922507 4.98056e-19)
(0.489343 -0.0403327 -5.64834e-19)
(0.673913 -0.0701295 7.85301e-19)
(0.85231 -0.0965602 6.07883e-19)
(1.00228 -0.117685 -5.29432e-19)
(1.11053 -0.1334 3.83094e-19)
(1.17617 -0.141049 -9.02391e-20)
(1.20444 -0.144124 -1.50107e-19)
(1.20847 -0.139981 -1.74405e-19)
(1.20043 -0.123242 -7.06285e-20)
(-0.0242078 0.0278676 -3.48314e-19)
(-0.0235827 0.0481491 6.913e-19)
(0.0221074 0.0480063 -3.69039e-20)
(0.106652 0.0326187 7.32367e-20)
(0.229999 0.00933467 -1.00562e-19)
(0.390581 -0.0169774 -8.07746e-21)
(0.579077 -0.0427341 4.7867e-19)
(0.774476 -0.0657665 -3.62001e-19)
(0.950354 -0.0853229 3.53106e-19)
(1.08678 -0.100637 4.2425e-19)
(1.17649 -0.112154 -2.59075e-19)
(1.22392 -0.117294 1.78036e-19)
(1.23775 -0.120609 -6.44531e-20)
(1.23278 -0.113842 1.33188e-19)
(1.21321 -0.105541 4.97615e-20)
(-0.02289 0.0239181 -4.88615e-19)
(-0.0162556 0.0387391 5.27673e-20)
(0.0400899 0.0360307 1.85487e-19)
(0.140781 0.0202655 -3.02708e-19)
(0.28548 -0.00108291 -3.50102e-19)
(0.469004 -0.0229249 2.15265e-19)
(0.67439 -0.0422224 -4.04663e-19)
(0.873549 -0.0582682 3.15828e-19)
(1.03951 -0.0716489 -1.29489e-19)
(1.15776 -0.0823844 -4.55112e-19)
(1.22775 -0.0908902 -2.38177e-19)
(1.25837 -0.0947886 3.29014e-19)
(1.2607 -0.0980395 -1.26671e-19)
(1.2483 -0.0900248 -6.51074e-20)
(1.21987 -0.0945001 -9.70458e-20)
(-0.0212753 0.0201979 9.5912e-19)
(-0.00701552 0.0294168 -1.17809e-18)
(0.0622507 0.0241476 -2.70591e-19)
(0.181807 0.00844403 -1.6201e-19)
(0.349937 -0.0098992 1.01758e-19)
(0.555375 -0.0259873 -4.07734e-19)
(0.772019 -0.038243 2.37563e-19)
(0.967118 -0.0477767 1.11721e-19)
(1.11712 -0.056135 -7.39765e-19)
(1.21478 -0.0635988 5.83119e-19)
(1.26576 -0.0702014 1.39986e-19)
(1.28203 -0.0736798 -3.52148e-19)
(1.27566 -0.0766484 1.91799e-19)
(1.25757 -0.070748 1.09874e-19)
(1.23198 -0.0729127 2.4885e-20)
(-0.0192416 0.0166845 -6.45437e-19)
(0.00455283 0.0203433 1.0697e-18)
(0.0893536 0.0128061 1.05056e-19)
(0.23057 -0.00206065 -3.89219e-19)
(0.423282 -0.0161029 4.84681e-19)
(0.647429 -0.0254399 -2.94481e-19)
(0.868068 -0.0307582 3.06243e-20)
(1.05186 -0.0347973 -3.73217e-19)
(1.18195 -0.0394653 6.42302e-19)
(1.25868 -0.0448515 -2.76435e-19)
(1.29261 -0.0504418 7.11508e-20)
(1.29738 -0.0539303 -9.63832e-20)
(1.2846 -0.0572296 -3.24829e-21)
(1.26419 -0.052405 1.55551e-20)
(1.23865 -0.0561251 2.33894e-20)
(-0.0166268 0.013331 1.37893e-19)
(0.0188881 0.0116441 -6.31791e-19)
(0.122076 0.00243042 -5.55244e-19)
(0.287493 -0.0104878 1.49324e-19)
(0.50443 -0.0188909 -3.9125e-19)
(0.741945 -0.0210231 -3.59254e-19)
(0.958835 -0.0201411 1.15555e-19)
(1.12568 -0.0199864 5.2039e-19)
(1.23404 -0.0222518 1.62787e-19)
(1.29106 -0.0265428 -3.07197e-19)
(1.31057 -0.0317492 -7.45753e-20)
(1.30651 -0.0356122 4.35016e-20)
(1.28965 -0.0392137 2.01052e-19)
(1.26774 -0.0360431 -4.05008e-20)
(1.24319 -0.0407575 -5.1495e-20)
(-0.0132375 0.010082 -7.56975e-20)
(0.0364297 0.00342284 8.2663e-19)
(0.160941 -0.00657488 3.91489e-19)
(0.35244 -0.0161457 1.39734e-19)
(0.59133 -0.0177868 2.74849e-19)
(0.835352 -0.0129067 5.33884e-19)
(1.04146 -0.00698315 2.46013e-19)
(1.18774 -0.00398225 -5.32725e-19)
(1.27437 -0.00496029 -3.27149e-19)
(1.31385 -0.00889577 5.30481e-19)
(1.32171 -0.0141562 -5.12843e-20)
(1.31127 -0.0185346 -3.17675e-20)
(1.29184 -0.0225958 -2.57787e-19)
(1.26953 -0.0209057 -3.1246e-20)
(1.24633 -0.02611 1.97757e-19)
(-0.0088638 0.00688816 -1.29091e-19)
(0.0575907 -0.00421516 -1.04031e-18)
(0.206257 -0.0138052 -7.88872e-20)
(0.424628 -0.0184686 -2.2262e-19)
(0.681245 -0.0126828 -6.05099e-19)
(0.924393 -0.00154598 1.99171e-19)
(1.11419 0.00807928 -4.87499e-19)
(1.23823 0.0126866 2.16133e-19)
(1.30446 0.0121026 -1.76038e-20)
(1.32901 0.00799962 -2.96494e-19)
(1.32782 0.00241983 1.87037e-19)
(1.31296 -0.00256349 -8.65553e-20)
(1.29217 -0.00708703 1.09537e-19)
(1.26999 -0.00676499 1.67146e-19)
(1.24786 -0.0126547 -3.2687e-20)
(-0.00329201 0.00372149 4.51352e-22)
(0.0827301 -0.011134 1.73618e-19)
(0.258062 -0.0188412 1.65091e-19)
(0.502642 -0.0170778 -1.47638e-20)
(0.771189 -0.00378463 8.79153e-20)
(1.00656 0.0124829 -6.32574e-19)
(1.17632 0.0244723 1.51747e-19)
(1.27807 0.029628 -9.06769e-20)
(1.32598 0.0287657 6.89901e-20)
(1.33828 0.024153 1.68024e-19)
(1.33033 0.0180946 -1.96207e-19)
(1.31258 0.0124874 4.66457e-20)
(1.2912 0.00749572 4.24737e-20)
(1.26942 0.00649357 -4.25856e-20)
(1.24851 0.000276837 3.10049e-20)
(0.00368376 0.000584997 2.96671e-19)
(0.112133 -0.0171452 5.26194e-19)
(0.316069 -0.0212527 7.98487e-20)
(0.584556 -0.0118191 -1.93845e-19)
(0.858383 0.00850385 5.73042e-19)
(1.08023 0.0286039 3.79055e-19)
(1.22798 0.0417281 -1.32849e-19)
(1.3085 0.0465785 7.12855e-21)
(1.34058 0.0449618 -1.20824e-19)
(1.34314 0.0396303 3.30025e-20)
(1.3303 0.0330065 2.3936e-20)
(1.31076 0.0267761 -1.06184e-19)
(1.28929 0.0213016 -2.06681e-19)
(1.26811 0.0190911 1.23702e-19)
(1.24817 0.0125243 -1.76248e-19)
(0.0122517 -0.00248084 -3.21914e-19)
(0.145984 -0.0219899 -1.71388e-19)
(0.379634 -0.020629 -4.57754e-19)
(0.668164 -0.00275353 7.28712e-19)
(0.940566 0.0236966 -6.32893e-19)
(1.14465 0.0463036 2.52746e-19)
(1.26983 0.0594918 1.57238e-19)
(1.33094 0.0633809 1.71132e-19)
(1.34971 0.0606937 1.03458e-19)
(1.34475 0.0545259 -1.82113e-20)
(1.32849 0.0472876 -9.34952e-20)
(1.30795 0.0404387 -2.13818e-19)
(1.28668 0.0344678 1.06556e-19)
(1.26613 0.0310953 9.4523e-20)
(1.2471 0.0242957 1.88848e-19)
(0.0225751 -0.00539631 -2.83802e-19)
(0.184342 -0.0253345 1.39682e-19)
(0.447764 -0.0166311 1.46697e-19)
(0.75124 0.00989457 -3.15608e-19)
(1.01612 0.0413053 1.23619e-19)
(1.19967 0.0651538 -1.10492e-19)
(1.30283 0.0775101 -1.61512e-19)
(1.34673 0.0799584 -1.79677e-19)
(1.35462 0.0760062 6.55716e-20)
(1.34398 0.0689406 1.95814e-19)
(1.32542 0.0610547 2.7313e-19)
(1.30441 0.0535872 1.01036e-19)
(1.2835 0.0470844 -6.11913e-20)
(1.26359 0.0426196 -6.28789e-20)
(1.24532 0.0356017 -4.90231e-20)
(0.0347874 -0.00804338 2.73597e-19)
(0.227107 -0.0267822 -1.38192e-19)
(0.519165 -0.00903894 8.01728e-20)
(0.831774 0.0258039 4.54674e-19)
(1.08406 0.0608806 4.31077e-19)
(1.24565 0.0848122 -3.99469e-19)
(1.32807 0.0956141 1.92707e-19)
(1.35711 0.0962903 2.19488e-19)
(1.3563 0.090964 -3.66556e-19)
(1.34149 0.0829681 7.42298e-20)
(1.32144 0.0744043 -1.57248e-19)
(1.3003 0.066306 2.50462e-20)
(1.27982 0.0592311 -7.4369e-20)
(1.26052 0.0537184 1.25257e-19)
(1.24292 0.0465013 -1.31578e-19)
(0.0489871 -0.010268 -2.4412e-19)
(0.273995 -0.0259022 1.68799e-19)
(0.592348 0.00222546 2.27748e-19)
(0.90811 0.0446118 -5.9692e-20)
(1.14393 0.0820268 -5.41527e-19)
(1.28319 0.105014 -1.89412e-19)
(1.34665 0.1137 -2.94169e-19)
(1.36314 0.11239 1.23194e-19)
(1.3555 0.105636 -1.74811e-20)
(1.3377 0.0966875 -1.90451e-19)
(1.31675 0.0874111 -1.70217e-19)
(1.29569 0.0786591 3.15187e-20)
(1.27567 0.0709616 5.8694e-20)
(1.25695 0.0644469 -1.18148e-19)
(1.23994 0.0570221 5.54443e-20)
(0.0652316 -0.0118842 1.04571e-19)
(0.324522 -0.022273 1.8697e-21)
(0.665751 0.0171058 -6.81619e-19)
(0.979007 0.06595 -4.829e-20)
(1.19565 0.104404 3.83272e-19)
(1.31307 0.125561 3.8541e-19)
(1.3596 0.131712 2.62797e-19)
(1.36568 0.12829 -4.79003e-20)
(1.35281 0.120083 7.86978e-20)
(1.33292 0.11016 -2.03884e-21)
(1.31148 0.10013 1.37067e-19)
(1.29062 0.0906906 5.25155e-20)
(1.27106 0.0823184 1.07739e-19)
(1.2529 0.0748398 -7.98777e-20)
(1.23639 0.0671858 -5.76963e-20)
(0.0835286 -0.0126801 -1.75788e-20)
(0.378013 -0.0155294 1.89484e-19)
(0.737867 0.0354382 3.56457e-19)
(1.04362 0.0894628 1.19642e-19)
(1.23944 0.127723 -3.40652e-19)
(1.33611 0.146306 -4.23861e-19)
(1.36782 0.149624 1.72948e-19)
(1.36544 0.144025 -1.03918e-19)
(1.34863 0.134356 2.9105e-19)
(1.32733 0.123429 7.3077e-21)
(1.30567 0.112597 -7.08286e-20)
(1.2851 0.10243 -2.63443e-20)
(1.26601 0.0933301 1.24142e-19)
(1.24838 0.0849241 1.04986e-19)
(1.23231 0.0770075 1.08564e-19)
(0.103828 -0.0124268 2.67146e-19)
(0.433627 -0.00540057 -2.92275e-19)
(0.807338 0.0569819 1.83584e-19)
(1.10144 0.114814 2.58261e-19)
(1.27571 0.151742 2.23561e-19)
(1.3531 0.167143 9.07805e-20)
(1.37208 0.167429 4.74221e-20)
(1.36294 0.159627 -1.84382e-20)
(1.34323 0.148489 -1.33561e-19)
(1.32103 0.136519 5.01492e-20)
(1.29935 0.124833 1.18348e-19)
(1.27912 0.113894 4.68493e-20)
(1.26049 0.104017 -4.4266e-20)
(1.24337 0.0947166 -4.53838e-20)
(1.22772 0.0864939 -5.25979e-20)
(0.126012 -0.0108912 -1.4438e-19)
(0.490409 0.00826764 1.04437e-19)
(0.873018 0.0814458 -1.35078e-20)
(1.15224 0.141686 -2.70635e-19)
(1.30495 0.176254 -7.16683e-20)
(1.36481 0.187993 1.58111e-19)
(1.37303 0.185125 -1.41076e-19)
(1.35859 0.175118 9.50641e-21)
(1.33681 0.162497 -8.71453e-21)
(1.31407 0.149441 -4.56308e-20)
(1.29252 0.136847 -7.493e-20)
(1.27266 0.125088 -1.05513e-19)
(1.2545 0.114389 -4.04189e-20)
(1.23789 0.104227 6.74158e-20)
(1.22261 0.0956471 1.54415e-20)
(0.149894 -0.0078502 -1.82054e-19)
(0.547342 0.0255078 -2.35834e-20)
(0.933994 0.108508 -1.19066e-19)
(1.19598 0.169781 1.10569e-19)
(1.32773 0.201083 -1.30154e-19)
(1.3719 0.208796 -5.69362e-20)
(1.37117 0.20271 1.47182e-20)
(1.35267 0.190506 -2.23083e-20)
(1.32946 0.176383 4.49693e-20)
(1.30649 0.162191 4.98089e-22)
(1.28516 0.148634 3.09436e-20)
(1.26572 0.13601 5.27172e-20)
(1.24803 0.124453 6.01483e-20)
(1.23192 0.113458 -2.59143e-20)
(1.21702 0.104463 -1.90294e-20)
(0.175214 -0.00310644 1.07723e-19)
(0.603404 0.0462386 1.15793e-19)
(0.989585 0.137828 4.00112e-20)
(1.23279 0.198816 -6.445e-20)
(1.34457 0.226077 1.44022e-20)
(1.37495 0.229497 9.84963e-20)
(1.36692 0.220173 -6.80004e-20)
(1.34537 0.205784 -5.97032e-20)
(1.32125 0.190134 -1.89671e-20)
(1.29826 0.174753 1.2222e-20)
(1.27725 0.160183 -6.69529e-20)
(1.25826 0.146649 1.46158e-20)
(1.24107 0.134207 3.74993e-20)
(1.22547 0.122404 -1.41172e-20)
(1.21095 0.112931 -1.15278e-20)
(0.201647 0.00349798 -7.08388e-20)
(0.657617 0.0702793 -4.92317e-20)
(1.03932 0.169058 -9.55216e-20)
(1.26289 0.228523 -1.53463e-20)
(1.35602 0.251095 -9.95279e-21)
(1.37445 0.250048 -1.07021e-19)
(1.36058 0.237494 3.41082e-20)
(1.33684 0.220931 2.07189e-20)
(1.31222 0.203723 -3.4728e-20)
(1.28939 0.187103 -2.10616e-20)
(1.26878 0.171471 -9.99371e-22)
(1.25028 0.156991 -1.99621e-20)
(1.23362 0.143642 -3.05599e-20)
(1.21855 0.13105 -2.68523e-20)
(1.20445 0.121038 1.8758e-20)
(0.228814 0.0120717 -3.21428e-20)
(0.709085 0.097366 1.18579e-20)
(1.08289 0.201844 1.61267e-20)
(1.28656 0.258646 1.66656e-20)
(1.36257 0.276008 2.85589e-20)
(1.37083 0.270394 2.02788e-20)
(1.35238 0.25464 -5.71888e-21)
(1.32716 0.235911 2.00509e-20)
(1.30237 0.217113 -1.02629e-21)
(1.27984 0.199207 -1.02891e-22)
(1.25971 0.182472 8.21421e-21)
(1.24175 0.167012 -3.81553e-21)
(1.22566 0.152741 2.59333e-21)
(1.21116 0.139365 1.05738e-20)
(1.19755 0.128764 -8.44889e-21)
(0.256292 0.0226692 -2.00289e-20)
(0.757018 0.127166 -5.27248e-21)
(1.12017 0.235832 2.33888e-20)
(1.30414 0.288943 1.02412e-20)
(1.36466 0.300693 2.87205e-20)
(1.3644 0.290474 1.95361e-20)
(1.34251 0.271564 -6.77891e-22)
(1.31639 0.250676 2.35615e-20)
(1.2917 0.230258 -1.17789e-20)
(1.26961 0.211024 1.27669e-21)
(1.25003 0.193153 7.74333e-21)
(1.23266 0.17669 -3.54296e-21)
(1.21718 0.161482 3.37762e-21)
(1.20329 0.147309 1.20375e-20)
(1.19024 0.136088 -4.40899e-21)
(0.28363 0.0352901 -2.8305e-20)
(0.800753 0.159295 -8.23938e-20)
(1.15111 0.270664 -9.25415e-20)
(1.31596 0.319183 -3.48382e-21)
(1.3627 0.325028 -1.38438e-20)
(1.35546 0.310219 -9.63584e-20)
(1.33108 0.288206 4.80541e-20)
(1.30455 0.265167 5.33592e-21)
(1.2802 0.243103 -3.10627e-20)
(1.25868 0.222508 -2.75139e-20)
(1.23973 0.203479 4.1079e-21)
(1.22301 0.185998 -1.59096e-20)
(1.20818 0.169843 -1.70491e-20)
(1.19493 0.154854 -2.32277e-20)
(1.18244 0.142996 1.39164e-20)
(0.310366 0.0498816 1.0771e-19)
(0.839764 0.193328 7.957e-20)
(1.17575 0.305986 3.37652e-20)
(1.32238 0.349148 -4.73261e-20)
(1.35702 0.348889 2.20909e-20)
(1.34421 0.329548 5.09803e-20)
(1.31818 0.304495 -4.0409e-20)
(1.29166 0.279315 -7.88857e-20)
(1.26785 0.255586 -7.00037e-21)
(1.24702 0.23361 4.56212e-20)
(1.2288 0.213409 -5.44823e-20)
(1.21278 0.194902 2.27086e-20)
(1.19868 0.177803 1.0356e-20)
(1.18612 0.162011 1.11959e-21)
(1.17405 0.149488 6.11079e-22)
(0.336043 0.0663383 -1.28884e-19)
(0.873663 0.228824 -8.22673e-20)
(1.19423 0.341447 -1.28463e-19)
(1.32375 0.378622 1.14053e-19)
(1.34796 0.372153 -1.2126e-19)
(1.33085 0.348372 -2.93553e-20)
(1.30389 0.320348 -2.53195e-21)
(1.27774 0.293045 1.35308e-21)
(1.25466 0.267644 5.92336e-20)
(1.23464 0.244273 -6.48671e-20)
(1.21722 0.222898 5.14678e-20)
(1.20199 0.203361 2.12635e-20)
(1.1887 0.185319 5.20542e-20)
(1.17692 0.16884 -2.68197e-21)
(1.16506 0.15558 -1.50254e-20)
(0.360223 0.0845056 1.9668e-20)
(0.902183 0.265333 2.38308e-20)
(1.2067 0.376705 -4.31699e-20)
(1.32038 0.407396 -1.72232e-19)
(1.33578 0.394691 -4.3074e-20)
(1.31551 0.366592 1.15431e-19)
(1.28826 0.335677 -9.06682e-20)
(1.26278 0.306278 -4.51209e-20)
(1.24061 0.279207 1.38238e-20)
(1.22153 0.254442 -1.54093e-20)
(1.20501 0.231898 -8.0453e-20)
(1.19065 0.21133 -3.95953e-20)
(1.17824 0.192335 -2.88134e-21)
(1.16717 0.175337 1.07252e-20)
(1.15578 0.161298 8.38102e-21)
(0.382498 0.104185 2.45301e-19)
(0.92516 0.302404 -3.09106e-19)
(1.21337 0.411423 2.09918e-19)
(1.31261 0.435264 1.07609e-19)
(1.32073 0.41637 3.10534e-19)
(1.29833 0.384103 9.15243e-21)
(1.27131 0.350383 7.88481e-20)
(1.2468 0.318922 2.21283e-20)
(1.22573 0.290199 -1.43289e-19)
(1.20771 0.264056 5.10142e-20)
(1.19219 0.24036 3.7844e-20)
(1.17878 0.218772 5.62561e-20)
(1.16729 0.198897 -5.34624e-20)
(1.15687 0.181365 -1.39151e-20)
(1.14628 0.166561 -1.78795e-21)
(0.402507 0.125138 -3.27636e-20)
(0.942521 0.339592 3.59507e-19)
(1.2145 0.445278 2.72072e-19)
(1.30075 0.462024 4.70853e-20)
(1.30302 0.437057 -2.91796e-19)
(1.2794 0.400792 -1.78767e-19)
(1.2531 0.364365 5.83342e-20)
(1.22981 0.330879 -3.5821e-20)
(1.21006 0.300538 7.92905e-20)
(1.19321 0.273054 1.87139e-20)
(1.17877 0.248234 1.71841e-20)
(1.16639 0.225659 -3.08654e-20)
(1.15585 0.204956 1.44928e-20)
(1.14617 0.186915 5.54563e-20)
(1.13643 0.171337 5.46396e-20)
(0.419934 0.147095 2.72478e-19)
(0.954276 0.376462 -2.9457e-19)
(1.21035 0.477955 -4.52795e-19)
(1.28507 0.487477 3.50678e-20)
(1.28283 0.456614 2.37735e-19)
(1.25881 0.416542 2.2954e-19)
(1.23369 0.377519 1.18693e-19)
(1.21191 0.342057 7.20417e-21)
(1.19358 0.310143 2.05819e-20)
(1.17802 0.281385 5.07594e-21)
(1.16476 0.255471 5.46419e-20)
(1.15349 0.231948 1.14866e-20)
(1.14394 0.21048 3.67097e-21)
(1.13508 0.191941 -1.54939e-20)
(1.12627 0.175604 -1.91135e-20)
(0.434524 0.16976 -3.51333e-19)
(0.960502 0.41259 2.70656e-19)
(1.2012 0.509156 2.36821e-19)
(1.26587 0.511433 -1.62349e-19)
(1.26036 0.474898 -3.40835e-19)
(1.23671 0.431225 -6.93754e-20)
(1.21317 0.389721 -1.6663e-19)
(1.19309 0.352379 6.52992e-20)
(1.17629 0.318955 -1.21569e-20)
(1.16216 0.288967 -5.46632e-20)
(1.15018 0.262018 -2.2546e-20)
(1.1401 0.237602 -3.98168e-21)
(1.1316 0.215427 -1.95478e-20)
(1.12362 0.196418 -8.80602e-21)
(1.11581 0.179345 -4.01431e-21)
(0.44608 0.192821 4.99663e-19)
(0.961339 0.447571 -3.2156e-19)
(1.18737 0.538597 1.73057e-19)
(1.24342 0.53371 1.65359e-19)
(1.23578 0.491758 2.89541e-19)
(1.2132 0.444712 -1.84589e-19)
(1.19156 0.400874 6.98667e-20)
(1.17336 0.36175 7.26618e-20)
(1.15828 0.326895 -6.34597e-20)
(1.14568 0.295746 -1.71699e-20)
(1.13509 0.267825 -9.20039e-22)
(1.12626 0.242581 -1.18374e-20)
(1.11887 0.219761 -3.21073e-20)
(1.11182 0.200313 1.80146e-20)
(1.10507 0.18255 -2.5289e-20)
(0.454462 0.215949 -2.76265e-19)
(0.956978 0.481015 1.73975e-20)
(1.16918 0.566012 1.14387e-19)
(1.21799 0.554129 -2.48914e-19)
(1.2093 0.507061 1.02507e-19)
(1.18836 0.456871 1.67216e-20)
(1.16889 0.410875 -8.90412e-20)
(1.15278 0.370081 -3.68352e-20)
(1.13956 0.33389 1.33746e-20)
(1.12862 0.30166 5.10365e-20)
(1.11951 0.272843 5.14017e-20)
(1.11201 0.246846 2.79745e-20)
(1.10577 0.223449 1.64885e-21)
(1.09971 0.203598 -2.51276e-20)
(1.09409 0.185205 3.58432e-21)
(0.459595 0.238817 5.28564e-20)
(0.947675 0.512561 -2.88566e-19)
(1.14695 0.591141 -3.77675e-19)
(1.18984 0.572507 2.96958e-19)
(1.18108 0.520678 -1.72574e-19)
(1.16225 0.467584 9.37767e-20)
(1.14527 0.419611 6.72464e-20)
(1.13142 0.377283 3.78885e-20)
(1.12021 0.339868 3.77043e-20)
(1.11104 0.306652 1.97673e-21)
(1.10349 0.277026 -2.95625e-20)
(1.09739 0.250361 -3.0268e-20)
(1.09235 0.22646 1.11126e-21)
(1.08731 0.206248 5.54993e-21)
(1.0829 0.187306 5.32309e-21)
(0.461477 0.261095 2.1096e-19)
(0.933762 0.541903 5.44567e-19)
(1.1209 0.613708 -9.8354e-20)
(1.15923 0.588669 -1.87152e-19)
(1.15128 0.532467 3.17003e-19)
(1.13501 0.476745 1.04276e-19)
(1.12075 0.426985 8.44374e-21)
(1.10936 0.383275 -3.17539e-20)
(1.10028 0.344761 7.77322e-21)
(1.09298 0.310667 -3.61603e-20)
(1.08709 0.280328 1.16503e-20)
(1.08244 0.253088 2.37492e-21)
(1.07865 0.228764 -6.56885e-21)
(1.07468 0.208234 -1.09588e-21)
(1.07154 0.188842 5.68764e-21)
(0.460184 0.282443 -9.3515e-20)
(0.915617 0.568831 2.1247e-19)
(1.09123 0.633452 1.84955e-19)
(1.12645 0.602405 -8.50156e-20)
(1.12007 0.542303 -4.49321e-20)
(1.10677 0.484245 -9.26236e-20)
(1.09546 0.432904 1.5845e-20)
(1.08666 0.387978 -3.33212e-20)
(1.07984 0.348506 -5.06652e-21)
(1.07451 0.313653 1.51143e-20)
(1.07036 0.282708 -6.08162e-21)
(1.06723 0.254995 5.1181e-22)
(1.06471 0.230328 -4.5466e-21)
(1.06185 0.209523 1.54996e-20)
(1.06005 0.189798 -1.29319e-20)
(0.455849 0.302491 -1.88574e-19)
(0.893477 0.593103 -7.0431e-19)
(1.05836 0.650279 2.46887e-20)
(1.09177 0.613497 -1.11481e-19)
(1.08764 0.550059 -2.24914e-19)
(1.07765 0.489987 7.04259e-20)
(1.06948 0.437282 -7.04439e-20)
(1.06342 0.391323 1.63584e-20)
(1.05897 0.351045 1.198e-20)
(1.05571 0.315563 -8.02243e-21)
(1.05337 0.284126 2.19782e-22)
(1.05181 0.256052 -4.89561e-21)
(1.05059 0.231126 -4.25819e-21)
(1.04888 0.21008 -4.93786e-21)
(1.04844 0.190165 7.13554e-21)
(0.448598 0.320905 1.60573e-20)
(0.867336 0.614223 3.74128e-19)
(1.02297 0.664228 1.70465e-19)
(1.05551 0.621846 1.02075e-19)
(1.05418 0.555612 7.55396e-20)
(1.04779 0.493879 4.80759e-20)
(1.04293 0.440045 2.71727e-20)
(1.03973 0.393244 -1.26328e-20)
(1.03775 0.352325 1.16174e-20)
(1.03663 0.316354 -2.11745e-20)
(1.03618 0.284551 -3.45408e-21)
(1.03623 0.256234 3.83707e-21)
(1.03634 0.231136 3.63218e-20)
(1.03582 0.209874 1.28588e-20)
(1.03676 0.18994 -4.00022e-20)
(0.438504 0.337513 1.14312e-19)
(0.837462 0.631749 -4.05313e-19)
(0.98542 0.675032 -4.14305e-20)
(1.01793 0.627479 -8.46718e-20)
(1.01988 0.55888 -1.93995e-20)
(1.01733 0.495837 -2.04883e-20)
(1.01593 0.441126 -1.27596e-20)
(1.01569 0.393688 -5.71766e-21)
(1.01626 0.352299 -8.38019e-22)
(1.01737 0.315985 1.69789e-20)
(1.01886 0.283949 -2.43195e-20)
(1.02056 0.255518 3.46732e-20)
(1.02201 0.230345 -3.18651e-20)
(1.02278 0.20889 1.26639e-20)
(1.02528 0.189117 3.81447e-20)
(0.425693 0.35211 -3.18748e-19)
(0.804587 0.645652 4.8557e-19)
(0.945981 0.682437 -2.76673e-21)
(0.979268 0.630312 -4.69356e-20)
(0.984924 0.559792 3.59317e-20)
(0.986425 0.495789 -6.0535e-21)
(0.988593 0.440466 1.3003e-20)
(0.991406 0.392606 3.28626e-20)
(0.994606 0.350928 -8.15286e-20)
(0.997999 0.314423 2.84502e-20)
(1.00148 0.282287 5.6042e-21)
(1.00483 0.25387 -5.21105e-20)
(1.00769 0.228723 4.61444e-20)
(1.01004 0.207129 -1.4962e-20)
(1.01445 0.187741 1.99587e-20)
(0.410331 0.36438 4.02493e-19)
(0.769183 0.655757 -3.57343e-19)
(0.904969 0.686315 -7.75036e-20)
(0.939783 0.630267 3.51647e-20)
(0.949513 0.55829 -1.91461e-20)
(0.955218 0.493679 2.77464e-20)
(0.961054 0.438018 -4.19342e-20)
(0.966989 0.389961 4.463e-20)
(0.972872 0.348181 5.46862e-20)
(0.978595 0.311643 -9.35892e-20)
(0.984076 0.279541 2.59725e-20)
(0.989092 0.251237 -1.21159e-20)
(0.993494 0.226167 -3.46437e-21)
(0.997889 0.204472 -5.5075e-20)
(1.00446 0.185999 -2.96937e-20)
(0.392741 0.374133 -1.35589e-19)
(0.731678 0.661921 8.21531e-20)
(0.862732 0.686578 1.35222e-20)
(0.899731 0.627274 2.73433e-20)
(0.913842 0.554322 3.06388e-20)
(0.923874 0.489462 -3.69945e-20)
(0.933447 0.433745 6.82159e-20)
(0.942555 0.385723 -5.8856e-20)