/*--------------------------------*- C++ -*----------------------------------*\
  =========                 |
  \\      /  F ield         | OpenFOAM: The Open Source CFD Toolbox
   \\    /   O peration     | Website:  https://openfoam.org
    \\  /    A nd           | Version:  7
     \\/     M anipulation  |
\*---------------------------------------------------------------------------*/
FoamFile
{
    version     2.0;
    format      ascii;
    class       surfaceScalarField;
    location    "5";
    object      phi;
}
// * * * * * * * * * * * * * * * * * * * * * * * * * * * * * * * * * * * * * //

dimensions      [0 3 -1 0 0 0 0];

internalField   nonuniform List<scalar> 
2638
(
0.00452861
-0.00026437
0.00479708
-0.000268464
0.00506885
-0.000271778
0.00534316
-0.000274305
0.0056192
-0.000276046
0.00589622
-0.000277014
0.00617344
-0.000277225
0.00645015
-0.000276705
0.00672563
-0.000275483
0.00699922
-0.000273594
0.0072703
-0.000271075
0.00753826
-0.000267965
0.00780257
-0.000264305
0.0080627
-0.000260138
0.00831821
-0.000255505
0.00856866
-0.000250448
0.00881366
-0.000245006
0.00905288
-0.000239221
0.00928601
-0.000233129
0.00951278
-0.000226767
0.00973295
-0.00022017
0.00994632
-0.000213372
0.0101527
-0.000206405
0.010352
-0.000199299
0.0105441
-0.000192084
0.0107289
-0.000184787
0.0109063
-0.000177436
0.0110764
-0.000170057
0.0112391
-0.000162675
0.0113944
-0.000155313
0.0115424
-0.000147996
0.0116831
-0.000140745
0.0118167
-0.000133582
0.0119432
-0.000126527
0.0120628
-0.000119599
0.0121756
-0.000112817
0.0122818
-0.000106197
0.0123816
-9.97543e-05
0.0124751
-9.35027e-05
0.0125625
-8.74542e-05
0.0126442
-8.16194e-05
0.0127202
-7.60067e-05
0.0127908
-7.06229e-05
0.0128563
-6.5473e-05
0.0129168
-6.05602e-05
0.0129727
-5.58858e-05
0.0130242
-5.14495e-05
0.0130714
-4.72496e-05
2.41007e-11
0.0131147
-4.32827e-05
3.48477e-11
-3.95443e-05
2.59519e-11
0.00498899
-0.000511851
0.0052401
-0.000519578
0.00549414
-0.000525816
0.00575039
-0.000530553
0.00600814
-0.000533797
0.00626669
-0.000535567
0.00652537
-0.000535901
0.00678351
-0.000534845
0.00704048
-0.000532457
0.00729569
-0.000528802
0.00754856
-0.000523951
0.00779858
-0.00051798
0.00804524
-0.000510966
0.00828809
-0.00050299
0.00852672
-0.000494129
0.00876073
-0.000484463
0.00898979
-0.000474067
0.00921359
-0.000463015
0.00943184
-0.00045138
0.0096443
-0.00043923
0.00985076
-0.000426629
0.010051
-0.000413642
0.010245
-0.000400327
0.0104324
-0.000386743
0.0106133
-0.000372943
0.0107875
-0.00035898
0.0109549
-0.000344906
0.0111156
-0.000330769
0.0112696
-0.000316616
0.0114168
-0.000302492
0.0115572
-0.000288443
0.011691
-0.00027451
0.0118181
-0.000260735
0.0119387
-0.000247156
0.012053
-0.000233811
0.0121609
-0.000220734
0.0122626
-0.000207959
0.0123584
-0.000195516
0.0124483
-0.000183431
0.0125326
-0.000171728
0.0126114
-0.000160429
0.012685
-0.000149551
0.0127534
-0.000139107
0.0128171
-0.000129109
0.0128761
-0.000119562
0.0129307
-0.000110471
0.012981
-0.000101837
0.0130275
-9.36554e-05
0.0130701
-8.59217e-05
-7.86275e-05
0.00581
0.00602895
-0.000738524
0.00625018
-0.000747053
0.00647314
-0.000753507
0.00669724
-0.000757896
0.00692192
-0.00076025
0.00714664
-0.000760622
0.00737087
-0.000759076
0.00759411
-0.000755694
0.00781587
-0.000750564
0.0080357
-0.000743786
0.00825319
-0.000735462
0.00846792
-0.000725701
0.00867954
-0.000714609
0.00888771
-0.000702296
0.00909211
-0.000688868
0.00929247
-0.000674428
0.00948854
-0.000659077
0.00968007
-0.000642912
0.00986686
-0.000626025
0.0100487
-0.000608505
0.0102255
-0.000590436
0.0103971
-0.000571899
0.0105633
-0.000552972
0.0107241
-0.000533727
0.0108794
-0.000514236
0.011029
-0.000494569
0.0111731
-0.000474791
0.0113114
-0.000454967
0.0114441
-0.00043516
0.0115711
-0.000415431
0.0116924
-0.000395839
0.0118081
-0.000376441
0.0119182
-0.000357293
0.0120229
-0.000338448
0.0121221
-0.000319956
0.012216
-0.000301863
0.0123047
-0.000284215
0.0123883
-0.00026705
0.012467
-0.000250404
0.0125409
-0.00023431
0.0126101
-0.000218792
0.0126749
-0.000203874
0.0127353
-0.000189572
0.0127917
-0.000175897
0.0128441
-0.000162858
0.0128927
-0.000150456
0.0129377
-0.00013869
0.0129794
-0.000127553
0.0130178
-0.000117035
-0.000107123
0.00700137
-0.0009147
0.00717922
-0.000924906
0.00735836
-0.00093264
0.00753837
-0.000937913
0.00771889
-0.000940764
0.00789952
-0.000941251
0.00807989
-0.000939454
0.00825967
-0.000935466
0.0084385
-0.000929393
0.00861606
-0.000921349
0.00879205
-0.000911456
0.00896619
-0.000899839
0.00913821
-0.000886625
0.00930785
-0.00087194
0.00947489
-0.000855908
0.00963911
-0.00083865
0.00980032
-0.000820284
0.00995833
-0.000800921
0.010113
-0.00078067
0.0102641
-0.000759633
0.0104116
-0.000737908
0.0105553
-0.000715589
0.0106951
-0.000692765
0.0108309
-0.000669523
0.0109626
-0.000645945
0.0110901
-0.000622112
0.0112134
-0.000598104
0.0113324
-0.000573995
0.0114471
-0.000549861
0.0115575
-0.000525776
0.0116635
-0.000501812
0.0117651
-0.000478038
0.0118623
-0.000454523
0.0119552
-0.000431334
0.0120438
-0.000408532
0.0121281
-0.000386179
0.0122082
-0.000364329
0.0122842
-0.000343037
0.0123561
-0.000322347
0.0124241
-0.000302304
0.0124883
-0.000282941
0.0125487
-0.000264291
0.0126055
-0.000246378
0.0126588
-0.000229219
0.0127088
-0.000212827
0.0127555
-0.000197209
0.0127992
-0.000182365
0.0128399
-0.000168289
0.0128779
-0.000154974
-0.000142404
0.00797703
0.00810607
-0.00105394
0.00823628
-0.00106285
0.00836745
-0.00106908
0.00849935
-0.00107267
0.00863177
-0.00107367
0.0087645
-0.00107218
0.00889732
-0.00106828
0.00903002
-0.00106209
0.00916239
-0.00105372
0.00929425
-0.00104331
0.00942538
-0.00103098
0.00955562
-0.00101686
0.00968478
-0.0010011
0.00981269
-0.000983816
0.00993918
-0.000965146
0.0100641
-0.000945211
0.0101873
-0.000924132
0.0103087
-0.000902022
0.010428
-0.000878993
0.0105453
-0.000855148
0.0106603
-0.000830588
0.0107729
-0.000805408
0.0108831
-0.000779701
0.0109907
-0.000753557
0.0110957
-0.000727063
0.0111979
-0.000700304
0.0112972
-0.000673365
0.0113937
-0.000646327
0.0114872
-0.000619274
0.0115777
-0.000592285
0.0116651
-0.000565441
0.0117494
-0.000538819
0.0118305
-0.000512497
0.0119085
-0.000486548
0.0119834
-0.000461043
0.0120551
-0.000436051
0.0121237
-0.000411633
0.0121892
-0.000387849
0.0122517
-0.000364751
0.0123111
-0.000342385
0.0123676
-0.00032079
0.0124212
-0.000300001
0.0124721
-0.000280042
0.0125202
-0.000260933
0.0125656
-0.000242685
0.0126086
-0.000225305
0.0126491
-0.00020879
0.0126872
-0.000193134
-0.000178326
0.00887798
0.00895955
-0.00114441
0.00904262
-0.00115215
0.00912712
-0.00115716
0.00921294
-0.0011595
0.00929998
-0.00115922
0.00938813
-0.00115643
0.00947725
-0.00115122
0.00956723
-0.0011437
0.00965792
-0.001134
0.00974919
-0.00112225
0.0098409
-0.00110857
0.00993291
-0.00109311
0.0100251
-0.00107598
0.0101172
-0.00105733
0.0102093
-0.00103727
0.0103011
-0.00101593
0.0103925
-0.00099342
0.0104834
-0.000969861
0.0105736
-0.000945356
0.010663
-0.000920007
0.0107515
-0.000893915
0.010839
-0.000867174
0.0109253
-0.000839877
0.0110103
-0.000812114
0.011094
-0.000783976
0.0111762
-0.000755548
0.0112568
-0.000726921
0.0113357
-0.000698179
0.0114128
-0.000669412
0.0114881
-0.000640704
0.0115614
-0.000612141
0.0116327
-0.00058381
0.011702
-0.000555791
0.0117691
-0.000528167
0.0118341
-0.000501015
0.0118968
-0.000474409
0.0119574
-0.000448415
0.0120157
-0.000423099
0.0120719
-0.000398516
0.0121258
-0.000374716
0.0121775
-0.000351741
0.0122271
-0.000329626
0.0122746
-0.000308399
0.01232
-0.000288077
0.0123634
-0.000268674
0.0124048
-0.000250193
0.0124443
-0.000232632
-0.000215982
0.00942369
0.0094644
-0.00119286
0.0095076
-0.00120036
0.00955324
-0.00120514
0.00960127
-0.00120725
0.0096516
-0.00120677
0.00970416
-0.00120377
0.00975883
-0.00119837
0.0098155
-0.00119067
0.00987405
-0.00118079
0.00993434
-0.00116886
0.00999622
-0.00115499
0.0100596
-0.00113933
0.0101242
-0.00112199
0.0101901
-0.0011031
0.0102569
-0.00108278
0.0103246
-0.00106114
0.0103931
-0.00103831
0.0104621
-0.00101439
0.0105316
-0.000989486
0.0106014
-0.000963695
0.0106713
-0.000937118
0.0107413
-0.000909849
0.0108112
-0.000881981
0.0108808
-0.000853604
0.0109501
-0.00082481
0.0110188
-0.000795688
0.011087
-0.00076633
0.0111544
-0.000736825
0.011221
-0.000707266
0.0112866
-0.000677744
0.0113511
-0.000648349
0.0114145
-0.000619173
0.0114766
-0.000590302
0.0115374
-0.000561825
0.0115968
-0.000533823
0.0116548
-0.000506374
0.0117112
-0.000479553
0.0117662
-0.000453425
0.0118195
-0.00042805
0.0118712
-0.000403481
0.0119214
-0.000379762
0.0119699
-0.00035693
0.0120168
-0.000335012
0.0120622
-0.000314027
0.012106
-0.000293987
0.0121482
-0.000274896
0.012189
-0.00025675
-0.000239541
0.00958837
0.00959951
-0.0012115
0.00961432
-0.00121994
0.00963272
-0.00122565
0.00965464
-0.00122868
0.00967996
-0.0012291
0.00970859
-0.00122699
0.00974037
-0.00122246
0.00977518
-0.0012156
0.00981286
-0.00120654
0.00985325
-0.00119538
0.00989619
-0.00118226
0.0099415
-0.0011673
0.00998902
-0.00115062
0.0100386
-0.00113234
0.01009
-0.00111259
0.0101432
-0.00109147
0.0101979
-0.0010691
0.010254
-0.00104559
0.0103113
-0.00102103
0.0103698
-0.000995537
0.0104291
-0.000969201
0.0104892
-0.000942116
0.01055
-0.000914378
0.0106113
-0.000886078
0.0106729
-0.000857308
0.0107347
-0.000828161
0.0107966
-0.000798731
0.0108585
-0.000769111
0.0109201
-0.000739397
0.0109815
-0.000709683
0.0110424
-0.000680066
0.0111027
-0.000650639
0.0111624
-0.000621498
0.0112213
-0.000592731
0.0112793
-0.000564427
0.0113365
-0.000536668
0.0113926
-0.00050953
0.0114476
-0.000483083
0.0115015
-0.000457391
0.0115542
-0.000432508
0.0116058
-0.00040848
0.0116561
-0.000385344
0.0117052
-0.000363128
0.0117531
-0.000341853
0.0117997
-0.00032153
0.0118451
-0.000302163
-0.000283749
0.015024
-0.00115925
0.0149733
-0.00116925
0.0149242
-0.00117659
0.0148769
-0.00118132
0.0148313
-0.00118352
0.0147875
-0.00118325
0.0147457
-0.00118063
0.0147058
-0.00117573
0.014668
-0.00116867
0.0146321
-0.00115956
0.0145984
-0.00114851
0.0145667
-0.00113563
0.0145371
-0.00112104
0.0145097
-0.00110486
0.0144842
-0.00108718
0.0144609
-0.00106813
0.0144396
-0.0010478
0.0144203
-0.00102629
0.014403
-0.00100371
0.0143876
-0.000980152
0.0143741
-0.0009557
0.0143624
-0.000930447
0.0143525
-0.000904482
0.0143444
-0.000877893
0.0143378
-0.000850767
0.0143329
-0.000823193
0.0143294
-0.000795261
0.0143273
-0.00076706
0.0143266
-0.000738684
0.0143272
-0.000710225
0.0143289
-0.000681777
0.0143317
-0.000653434
0.0143355
-0.000625289
0.0143402
-0.000597433
0.0143457
-0.000569953
0.014352
-0.000542934
0.0143589
-0.000516454
0.0143664
-0.000490586
0.0143744
-0.000465394
0.0143828
-0.000440936
0.0143916
-0.000417263
0.0144007
-0.000394414
0.01441
-0.000372422
0.0144194
-0.00035131
0.014429
-0.000331095
0.0144386
-0.000311784
0.0144482
-0.000293377
-0.00027587
0.0158421
-0.00108084
0.0157656
-0.00109268
0.0156909
-0.00110194
0.0156183
-0.00110866
0.0155477
-0.00111293
0.0154792
-0.00111481
0.015413
-0.0011144
0.015349
-0.00111178
0.0152874
-0.00110705
0.0152282
-0.00110031
0.0151713
-0.00109167
0.0151169
-0.00108124
0.015065
-0.00106911
0.0150155
-0.00105539
0.0149686
-0.0010402
0.014924
-0.00102362
0.014882
-0.00100575
0.0148424
-0.000986701
0.0148052
-0.000966552
0.0147705
-0.000945395
0.0147381
-0.000923316
0.0147081
-0.000900401
0.0146803
-0.000876731
0.0146548
-0.00085239
0.0146315
-0.000827459
0.0146103
-0.000802023
0.0145912
-0.000776165
0.0145741
-0.00074997
0.014559
-0.000723527
0.0145457
-0.000696923
0.0145341
-0.000670248
0.0145243
-0.000643592
0.0145161
-0.000617046
0.0145093
-0.000590697
0.014504
-0.000564631
0.0145
-0.000538932
0.0144972
-0.000513676
0.0144956
-0.000488937
0.014495
-0.000464781
0.0144953
-0.000441266
0.0144965
-0.000418445
0.0144984
-0.00039636
0.014501
-0.000375047
0.0145043
-0.000354533
0.014508
-0.000334838
0.0145122
-0.000315973
0.0145168
-0.000297944
-0.000280748
0.0164355
-0.000988236
0.0163445
-0.00100172
0.0162553
-0.00101274
0.016168
-0.00102134
0.0160827
-0.00102758
0.0159994
-0.00103155
0.0159183
-0.0010333
0.0158394
-0.00103293
0.0157629
-0.00103053
0.0156888
-0.00102618
0.0156171
-0.00101999
0.0155479
-0.00101204
0.0154812
-0.00100244
0.0154171
-0.000991288
0.0153556
-0.00097867
0.0152967
-0.000964686
0.0152404
-0.000949427
0.0151866
-0.000932981
0.0151355
-0.000915436
0.015087
-0.000896874
0.0150411
-0.000877377
0.0149977
-0.000857024
0.0149568
-0.000835894
0.0149185
-0.000814062
0.0148827
-0.000791608
0.0148493
-0.000768606
0.0148182
-0.000745137
0.0147895
-0.00072128
0.0147631
-0.000697115
0.0147389
-0.000672726
0.0147169
-0.000648196
0.0146969
-0.000623609
0.0146789
-0.000599051
0.0146628
-0.000574604
0.0146485
-0.000550352
0.014636
-0.000526371
0.014625
-0.000502739
0.0146156
-0.000479525
0.0146076
-0.000456795
0.014601
-0.000434607
0.0145955
-0.000413014
0.0145912
-0.000392058
0.014588
-0.000371778
0.0145856
-0.000352204
0.0145842
-0.000333357
0.0145834
-0.000315253
0.0145834
-0.000297901
-0.000281305
0.0168264
-0.000891162
0.0167305
-0.000905805
0.0166359
-0.000918139
0.0165428
-0.000928208
0.0164512
-0.000936066
0.0163615
-0.000941772
0.0162736
-0.000945392
0.0161876
-0.000947
0.0161038
-0.000946672
0.0160221
-0.00094449
0.0159426
-0.000940539
0.0158655
-0.000934905
0.0157907
-0.000927676
0.0157184
-0.00091894
0.0156485
-0.000908786
0.0155811
-0.000897298
0.0155162
-0.000884562
0.0154539
-0.000870661
0.0153942
-0.000855676
0.015337
-0.000839683
0.0152824
-0.00082276
0.0152303
-0.000804981
0.0151808
-0.000786418
0.0151339
-0.000767143
0.0150895
-0.000747228
0.0150477
-0.000726745
0.0150083
-0.000705766
0.0149714
-0.000684364
0.0149369
-0.000662614
0.0149048
-0.000640592
0.0148749
-0.000618375
0.0148474
-0.000596041
0.014822
-0.000573668
0.0147987
-0.000551333
0.0147775
-0.000529113
0.0147582
-0.000507081
0.0147407
-0.000485308
0.0147251
-0.000463862
0.0147111
-0.000442804
0.0146987
-0.000422191
0.0146877
-0.000402073
0.0146782
-0.000382494
0.0146699
-0.000363493
0.0146628
-0.0003451
0.0146568
-0.000327339
0.0146517
-0.000310228
0.0146476
-0.00029378
-0.000278001
0.0170573
-0.00079598
0.0169627
-0.00081123
0.016869
-0.000824362
0.0167762
-0.000835408
0.0166845
-0.00084441
0.0165941
-0.000851418
0.0165052
-0.000856485
0.0164179
-0.000859672
0.0163323
-0.000861047
0.0162485
-0.000860678
0.0161666
-0.000858639
0.0160867
-0.000855006
0.0160089
-0.000849858
0.0159332
-0.000843272
0.0158597
-0.000835327
0.0157885
-0.000826102
0.0157196
-0.000815675
0.0156531
-0.00080412
0.0155889
-0.000791513
0.0155272
-0.000777925
0.0154679
-0.000763428
0.015411
-0.000748089
0.0153565
-0.000731978
0.0153045
-0.000715159
0.015255
-0.000697701
0.0152079
-0.000679668
0.0151633
-0.000661127
0.0151211
-0.000642146
0.0150813
-0.000622793
0.0150438
-0.000603137
0.0150087
-0.000583248
0.0149758
-0.000563197
0.0149452
-0.000543056
0.0149168
-0.000522894
0.0148904
-0.000502781
0.0148662
-0.000482786
0.0148438
-0.000462973
0.0148234
-0.000443405
0.0148047
-0.000424139
0.0147877
-0.000405229
0.0147724
-0.000386723
0.0147586
-0.000368662
0.0147461
-0.000351085
0.0147351
-0.000334022
0.0147252
-0.000317499
0.0147165
-0.000301534
0.0147089
-0.000286143
-0.000271334
0.0171738
-0.000706203
0.0170842
-0.000721572
0.0169948
-0.000735022
0.016906
-0.000746577
0.0168179
-0.000756269
0.0167306
-0.000764135
0.0166443
-0.000770219
0.0165592
-0.000774571
0.0164754
-0.000777246
0.016393
-0.000778303
0.0163122
-0.000777804
0.016233
-0.000775816
0.0161556
-0.000772406
0.0160799
-0.000767644
0.0160062
-0.000761599
0.0159344
-0.000754341
0.0158647
-0.000745941
0.0157971
-0.000736467
0.0157315
-0.000725986
0.0156682
-0.000714565
0.015607
-0.000702269
0.0155481
-0.000689161
0.0154914
-0.000675304
0.015437
-0.000660758
0.0153849
-0.000645586
0.0153351
-0.000629847
0.0152875
-0.000613602
0.0152423
-0.000596914
0.0151994
-0.000579843
0.0151587
-0.000562453
0.0151202
-0.000544806
0.015084
-0.000526968
0.0150499
-0.000509001
0.015018
-0.00049097
0.0149882
-0.000472937
0.0149604
-0.000454965
0.0149345
-0.000437111
0.0149105
-0.000419434
0.0148884
-0.000401984
0.014868
-0.000384813
0.0148492
-0.000367965
0.014832
-0.000351479
0.0148163
-0.00033539
0.014802
-0.00031973
0.0147891
-0.000304523
0.0147773
-0.000289789
0.0147667
-0.000275544
-0.0002618
0.0172151
-0.000623369
0.017132
-0.000638465
0.0170488
-0.000651841
0.0169657
-0.000663511
0.016883
-0.0006735
0.0168007
-0.000681834
0.016719
-0.000688549
0.0166381
-0.000693684
0.0165581
-0.000697285
0.0164792
-0.0006994
0.0164015
-0.000700083
0.0163251
-0.00069939
0.0162501
-0.00069738
0.0161765
-0.000694112
0.0161046
-0.000689648
0.0160343
-0.00068405
0.0159657
-0.000677381
0.015899
-0.000669701
0.0158341
-0.000661073
0.015771
-0.000651556
0.01571
-0.000641208
0.0156509
-0.000630089
0.0155939
-0.000618254
0.0155389
-0.000605761
0.0154859
-0.000592664
0.0154351
-0.00057902
0.0153864
-0.000564883
0.0153398
-0.000550309
0.0152953
-0.000535355
0.0152529
-0.000520076
0.0152126
-0.00050453
0.0151745
-0.000488773
0.0151383
-0.000472864
0.0151042
-0.00045686
0.0150721
-0.000440816
0.0150419
-0.000424787
0.0150136
-0.000408827
0.0149872
-0.000392987
0.0149625
-0.000377314
0.0149395
-0.000361854
0.0149182
-0.000346646
0.0148985
-0.000331729
0.0148802
-0.000317136
0.0148634
-0.000302893
0.0148479
-0.000289027
0.0148337
-0.000275557
0.0148206
-0.000262499
-0.000249865
0.0172105
-0.00054782
0.0171344
-0.000562347
0.0170579
-0.000575343
0.0169812
-0.000586817
0.0169045
-0.000596784
0.0168279
-0.000605265
0.0167517
-0.000612286
0.0166759
-0.000617879
0.0166007
-0.000622081
0.0165262
-0.000624933
0.0164526
-0.000626478
0.01638
-0.000626765
0.0163084
-0.000625844
0.0162381
-0.000623767
0.016169
-0.000620587
0.0161013
-0.000616359
0.0160351
-0.000611138
0.0159704
-0.000604978
0.0159072
-0.000597935
0.0158457
-0.000590061
0.0157859
-0.000581411
0.0157279
-0.000572036
0.0156716
-0.000561989
0.0156172
-0.000551319
0.0155646
-0.000540079
0.0155139
-0.000528317
0.0154651
-0.000516084
0.0154182
-0.00050343
0.0153733
-0.000490405
0.0153302
-0.000477061
0.0152892
-0.000463447
0.01525
-0.000449616
0.0152128
-0.000435617
0.0151774
-0.000421502
0.0151439
-0.000407321
0.0151122
-0.000393122
0.0150824
-0.000378954
0.0150542
-0.00036486
0.0150278
-0.000350884
0.015003
-0.000337067
0.0149798
-0.000323446
0.0149581
-0.000310053
0.0149379
-0.000296919
0.0149191
-0.000284072
0.0149016
-0.000271533
0.0148854
-0.000259322
0.0148703
-0.000247456
-0.000235946
0.0171805
-0.000479248
0.0171112
-0.000492988
0.0170412
-0.000505375
0.0169708
-0.000516411
0.0169001
-0.000526108
0.0168293
-0.000534478
0.0167586
-0.000541543
0.016688
-0.000547328
0.0166178
-0.000551862
0.0165481
-0.000555179
0.0164789
-0.000557315
0.0164104
-0.000558311
0.0163428
-0.00055821
0.0162761
-0.000557057
0.0162104
-0.000554898
0.0161458
-0.00055178
0.0160824
-0.000547752
0.0160203
-0.000542862
0.0159595
-0.000537158
0.0159002
-0.000530688
0.0158423
-0.0005235
0.0157859
-0.000515641
0.015731
-0.000507157
0.0156778
-0.000498093
0.0156262
-0.000488496
0.0155763
-0.000478411
0.0155281
-0.000467882
0.0154816
-0.000456954
0.0154369
-0.000445672
0.0153939
-0.000434082
0.0153527
-0.000422228
0.0153132
-0.000410157
0.0152755
-0.000397912
0.0152396
-0.00038554
0.0152053
-0.000373083
0.0151728
-0.000360585
0.0151419
-0.000348089
0.0151127
-0.000335633
0.0150851
-0.000323256
0.015059
-0.000310994
0.0150344
-0.000298881
0.0150113
-0.000286945
0.0149896
-0.000275216
0.0149693
-0.000263716
0.0149502
-0.000252468
0.0149324
-0.000241489
0.0149157
-0.000230796
-0.0002204
0.0171382
-0.000417039
0.0170751
-0.000429834
0.0170111
-0.00044144
0.0169466
-0.000451857
0.0168816
-0.00046109
0.0168162
-0.000469149
0.0167507
-0.00047605
0.0166852
-0.000481812
0.0166198
-0.000486458
0.0165547
-0.000490016
0.0164899
-0.000492518
0.0164255
-0.000493996
0.0163618
-0.000494487
0.0162988
-0.000494031
0.0162366
-0.000492665
0.0161752
-0.000490433
0.0161148
-0.000487375
0.0160555
-0.000483534
0.0159973
-0.000478952
0.0159403
-0.000473672
0.0158845
-0.000467736
0.0158301
-0.000461185
0.015777
-0.000454061
0.0157253
-0.000446405
0.015675
-0.000438257
0.0156263
-0.000429657
0.0155791
-0.000420645
0.0155334
-0.000411261
0.0154892
-0.000401546
0.0154467
-0.000391539
0.0154057
-0.00038128
0.0153664
-0.000370809
0.0153287
-0.000360166
0.0152925
-0.000349389
0.0152579
-0.000338519
0.0152249
-0.000327592
0.0151935
-0.000316645
0.0151636
-0.000305714
0.0151352
-0.000294831
0.0151082
-0.00028403
0.0150827
-0.000273338
0.0150585
-0.000262783
0.0150357
-0.000252389
0.0150141
-0.000242179
0.0149938
-0.000232172
0.0149747
-0.000222385
0.0149568
-0.000212832
-0.000203526
0.0170917
-0.000360475
0.0170341
-0.00037221
0.0169755
-0.000382908
0.0169162
-0.000392566
0.0168563
-0.000401187
0.016796
-0.000408778
0.0167353
-0.000415349
0.0166744
-0.000420915
0.0166134
-0.000425496
0.0165525
-0.000429114
0.0164918
-0.000431795
0.0164313
-0.000433567
0.0163713
-0.000434461
0.0163118
-0.000434509
0.0162529
-0.000433747
0.0161946
-0.000432207
0.0161372
-0.000429929
0.0160806
-0.000426947
0.016025
-0.000423299
0.0159703
-0.000419022
0.0159167
-0.000414154
0.0158643
-0.000408729
0.015813
-0.000402785
0.015763
-0.000396359
0.0157142
-0.000389485
0.0156667
-0.000382199
0.0156206
-0.000374537
0.0155759
-0.000366533
0.0155326
-0.000358224
0.0154907
-0.000349643
0.0154502
-0.000340826
0.0154112
-0.000331809
0.0153737
-0.000322624
0.0153376
-0.000313308
0.015303
-0.000303893
0.0152698
-0.000294413
0.015238
-0.000284899
0.0152077
-0.000275382
0.0151788
-0.000265892
0.0151512
-0.000256455
0.015125
-0.000247098
0.0151
-0.000237845
0.0150763
-0.000228717
0.0150539
-0.000219734
0.0150326
-0.000210914
0.0150125
-0.000202271
0.0149935
-0.00019382
-0.000185572
0.0170455
-0.000308835
0.0169927
-0.000319424
0.0169389
-0.000329117
0.0168843
-0.00033791
0.0168289
-0.000345804
0.0167729
-0.000352801
0.0167165
-0.000358911
0.0166597
-0.000364144
0.0166027
-0.000368517
0.0165456
-0.000372047
0.0164886
-0.000374755
0.0164317
-0.000376666
0.016375
-0.000377804
0.0163187
-0.000378198
0.0162629
-0.000377876
0.0162075
-0.000376869
0.0161528
-0.000375207
0.0160988
-0.000372923
0.0160455
-0.000370048
0.0159931
-0.000366613
0.0159416
-0.000362652
0.0158911
-0.000358196
0.0158416
-0.000353277
0.0157931
-0.000347925
0.0157458
-0.000342173
0.0156997
-0.000336051
0.0156547
-0.00032959
0.015611
-0.000322821
0.0155686
-0.000315775
0.0155274
-0.000308481
0.0154876
-0.000300971
0.015449
-0.000293274
0.0154118
-0.000285421
0.015376
-0.000277441
0.0153414
-0.000269363
0.0153082
-0.000261216
0.0152764
-0.000253028
0.0152458
-0.000244823
0.0152165
-0.000236629
0.0151886
-0.000228469
0.0151618
-0.000220365
0.0151363
-0.000212338
0.015112
-0.000204408
0.0150889
-0.00019659
0.0150668
-0.000188902
0.0150459
-0.000181356
0.0150261
-0.000173966
-0.00016674
0.0170022
-0.000261439
0.0169536
-0.000270816
0.0169039
-0.00027943
0.0168533
-0.000287275
0.0168018
-0.000294349
0.0167497
-0.000300655
0.016697
-0.000306198
0.0166438
-0.000310988
0.0165903
-0.000315036
0.0165366
-0.000318357
0.0164829
-0.000320967
0.0164291
-0.000322888
0.0163754
-0.00032414
0.016322
-0.000324746
0.0162688
-0.000324731
0.0162161
-0.00032412
0.0161638
-0.000322939
0.0161121
-0.000321215
0.016061
-0.000318976
0.0160107
-0.000316248
0.0159611
-0.000313059
0.0159123
-0.000309436
0.0158644
-0.000305406
0.0158175
-0.000300997
0.0157716
-0.000296235
0.0157267
-0.000291147
0.0156828
-0.000285759
0.0156401
-0.000280099
0.0155985
-0.000274191
0.0155581
-0.000268063
0.0155189
-0.00026174
0.0154808
-0.000255249
0.015444
-0.000248614
0.0154085
-0.000241862
0.0153741
-0.000235016
0.015341
-0.000228102
0.0153091
-0.000221142
0.0152785
-0.00021416
0.015249
-0.000207176
0.0152207
-0.000200212
0.0151937
-0.000193286
0.0151677
-0.000186416
0.0151429
-0.000179619
0.0151193
-0.00017291
0.0150967
-0.000166302
0.0150751
-0.000159808
0.0150546
-0.000153437
-0.0001472
0.0169632
-0.000217655
0.0169181
-0.000225771
0.016872
-0.000233247
0.0168248
-0.000240078
0.0167767
-0.00024626
0.0167278
-0.000251795
0.0166783
-0.000256687
0.0166282
-0.000260943
0.0165778
-0.000264571
0.016527
-0.000267584
0.016476
-0.000269995
0.016425
-0.000271821
0.0163739
-0.000273079
0.016323
-0.000273788
0.0162722
-0.000273967
0.0162217
-0.000273639
0.0161716
-0.000272825
0.0161219
-0.000271547
0.0160728
-0.000269829
0.0160242
-0.000267692
0.0159763
-0.00026516
0.0159291
-0.000262256
0.0158827
-0.000259002
0.0158372
-0.000255423
0.0157925
-0.000251539
0.0157487
-0.000247374
0.0157059
-0.000242951
0.0156641
-0.00023829
0.0156233
-0.000233416
0.0155836
-0.000228349
0.015545
-0.000223112
0.0155074
-0.000217726
0.015471
-0.000212213
0.0154358
-0.000206594
0.0154016
-0.00020089
0.0153687
-0.000195121
0.0153368
-0.000189307
0.0153061
-0.000183467
0.0152766
-0.000177618
0.0152481
-0.000171779
0.0152208
-0.000165965
0.0151946
-0.000160191
0.0151694
-0.000154471
0.0151454
-0.000148819
0.0151223
-0.000143244
0.0151003
-0.000137759
0.0150792
-0.000132372
-0.000127091
0.0169291
-0.000176896
0.0168871
-0.000183712
0.0168438
-0.000190005
0.0167995
-0.000195768
0.0167542
-0.000201001
0.0167081
-0.000205703
0.0166613
-0.000209875
0.0166139
-0.000213524
0.016566
-0.000216656
0.0165177
-0.000219281
0.0164691
-0.00022141
0.0164203
-0.000223055
0.0163715
-0.00022423
0.0163227
-0.000224951
0.0162739
-0.000225234
0.0162254
-0.000225096
0.0161771
-0.000224554
0.0161292
-0.000223628
0.0160817
-0.000222335
0.0160347
-0.000220694
0.0159883
-0.000218724
0.0159425
-0.000216443
0.0158973
-0.000213872
0.0158529
-0.000211027
0.0158093
-0.000207929
0.0157665
-0.000204594
0.0157246
-0.000201043
0.0156836
-0.000197293
0.0156436
-0.000193363
0.0156045
-0.00018927
0.0155664
-0.000185032
0.0155294
-0.000180668
0.0154933
-0.000176195
0.0154584
-0.000171631
0.0154245
-0.000166991
0.0153917
-0.000162294
0.0153599
-0.000157555
0.0153292
-0.000152789
0.0152996
-0.000148012
0.0152711
-0.000143238
0.0152436
-0.000138479
0.0152172
-0.000133748
0.0151917
-0.000129056
0.0151673
-0.000124415
0.0151439
-0.000119833
0.0151215
-0.00011532
0.0151
-0.000110883
-0.000106529
0.0169004
-0.000138611
0.0168608
-0.000144097
0.0168199
-0.000149171
0.016778
-0.000153827
0.0167351
-0.000158065
0.0166912
-0.000161882
0.0166466
-0.000165281
0.0166014
-0.000168266
0.0165556
-0.000170841
0.0165093
-0.000173015
0.0164627
-0.000174794
0.0164158
-0.000176189
0.0163688
-0.000177211
0.0163217
-0.000177871
0.0162747
-0.000178183
0.0162277
-0.00017816
0.016181
-0.000177815
0.0161345
-0.000177163
0.0160884
-0.000176218
0.0160427
-0.000174996
0.0159975
-0.00017351
0.0159528
-0.000171776
0.0159088
-0.000169809
0.0158654
-0.000167623
0.0158227
-0.000165233
0.0157807
-0.000162654
0.0157396
-0.000159901
0.0156993
-0.000156987
0.0156598
-0.000153928
0.0156213
-0.000150738
0.0155837
-0.00014743
0.0155471
-0.000144019
0.0155114
-0.000140519
0.0154767
-0.000136944
0.015443
-0.000133307
0.0154103
-0.00012962
0.0153787
-0.000125898
0.015348
-0.000122151
0.0153184
-0.000118392
0.0152898
-0.000114632
0.0152622
-0.000110881
0.0152356
-0.000107149
0.01521
-0.000103445
0.0151854
-9.97773e-05
0.0151617
-9.61538e-05
0.015139
-9.25814e-05
0.0151171
-8.90663e-05
-8.5614e-05
0.0168772
-0.000102277
0.0168395
-0.00010641
0.0168006
-0.000110238
0.0167605
-0.000113756
0.0167194
-0.000116963
0.0166774
-0.000119858
0.0166346
-0.000122442
0.016591
-0.000124718
0.0165469
-0.00012669
0.0165022
-0.000128362
0.0164571
-0.00012974
0.0164118
-0.000130832
0.0163662
-0.000131645
0.0163205
-0.000132189
0.0162748
-0.000132472
0.0162292
-0.000132505
0.0161837
-0.000132297
0.0161384
-0.000131859
0.0160933
-0.000131203
0.0160487
-0.000130338
0.0160044
-0.000129276
0.0159607
-0.000128028
0.0159175
-0.000126604
0.0158749
-0.000125017
0.0158329
-0.000123276
0.0157917
-0.000121393
0.0157511
-0.000119378
0.0157114
-0.000117243
0.0156725
-0.000114998
0.0156344
-0.000112653
0.0155972
-0.00011022
0.0155609
-0.000107709
0.0155255
-0.000105129
0.015491
-0.000102492
0.0154575
-9.98071e-05
0.015425
-9.70836e-05
0.0153934
-9.43318e-05
0.0153628
-9.15598e-05
0.0153332
-8.87773e-05
0.0153046
-8.59914e-05
0.0152769
-8.32109e-05
0.0152502
-8.04424e-05
0.0152244
-7.76931e-05
0.0151996
-7.49688e-05
0.0151758
-7.22758e-05
0.0151528
-6.96187e-05
0.0151307
-6.70026e-05
-6.44317e-05
0.0168597
-6.73894e-05
0.0168235
-7.0153e-05
0.016786
-7.27149e-05
0.0167473
-7.50724e-05
0.0167075
-7.72239e-05
0.0166668
-7.91691e-05
0.0166253
-8.09083e-05
0.016583
-8.24432e-05
0.0165401
-8.37762e-05
0.0164967
-8.49104e-05
0.0164528
-8.58498e-05
0.0164085
-8.65992e-05
0.0163641
-8.71636e-05
0.0163194
-8.75487e-05
0.0162747
-8.77608e-05
0.01623
-8.78063e-05
0.0161854
-8.76918e-05
0.016141
-8.74244e-05
0.0160968
-8.70112e-05
0.0160529
-8.64592e-05
0.0160094
-8.57759e-05
0.0159663
-8.49684e-05
0.0159238
-8.40441e-05
0.0158818
-8.30102e-05
0.0158404
-8.18741e-05
0.0157996
-8.06429e-05
0.0157596
-7.93238e-05
0.0157203
-7.79239e-05
0.0156817
-7.64505e-05
0.015644
-7.49105e-05
0.0156071
-7.33108e-05
0.015571
-7.16586e-05
0.0155358
-6.99605e-05
0.0155016
-6.82233e-05
0.0154682
-6.64535e-05
0.0154358
-6.46576e-05
0.0154043
-6.28419e-05
0.0153738
-6.10121e-05
0.0153442
-5.91742e-05
0.0153155
-5.73335e-05
0.0152878
-5.54953e-05
0.015261
-5.36642e-05
0.0152352
-5.18449e-05
0.0152102
-5.00414e-05
0.0151862
-4.82576e-05
0.0151631
-4.6497e-05
0.0151408
-4.47626e-05
-4.30574e-05
0.016848
-3.3457e-05
0.0168127
-3.48415e-05
0.0167761
-3.61253e-05
0.0167384
-3.73076e-05
0.0166995
-3.83872e-05
0.0166597
-3.93645e-05
0.0166191
-4.02388e-05
0.0165776
-4.10115e-05
0.0165355
-4.16835e-05
0.0164929
-4.22564e-05
0.0164498
-4.27325e-05
0.0164063
-4.31133e-05
0.0163625
-4.34023e-05
0.0163186
-4.36015e-05
0.0162745
-4.37145e-05
0.0162305
-4.37443e-05
0.0161865
-4.36942e-05
0.0161426
-4.35678e-05
0.016099
-4.33684e-05
0.0160556
-4.30999e-05
0.0160126
-4.27657e-05
0.01597
-4.23692e-05
0.0159279
-4.19144e-05
0.0158863
-4.14047e-05
0.0158452
-4.0844e-05
0.0158048
-4.02357e-05
0.0157651
-3.95832e-05
0.0157261
-3.88903e-05
0.0156878
-3.81605e-05
0.0156503
-3.73975e-05
0.0156135
-3.66043e-05
0.0155777
-3.57848e-05
0.0155427
-3.49421e-05
0.0155085
-3.40798e-05
0.0154753
-3.3201e-05
0.0154429
-3.23091e-05
0.0154115
-3.14067e-05
0.015381