/*--------------------------------*- C++ -*----------------------------------*\
  =========                 |
  \\      /  F ield         | OpenFOAM: The Open Source CFD Toolbox
   \\    /   O peration     | Website:  https://openfoam.org
    \\  /    A nd           | Version:  7
     \\/     M anipulation  |
\*---------------------------------------------------------------------------*/
FoamFile
{
    version     2.0;
    format      ascii;
    class       surfaceScalarField;
    location    "15";
    object      phi;
}
// * * * * * * * * * * * * * * * * * * * * * * * * * * * * * * * * * * * * * //

dimensions      [0 3 -1 0 0 0 0];

internalField   nonuniform List<scalar> 
29280
(
-1.72829e-05
1.72828e-05
3.63874e-11
-5.60835e-05
3.88006e-05
4.10975e-11
-0.000109985
5.39018e-05
9.54236e-12
-0.000174663
6.46778e-05
-3.97376e-11
-0.00024751
7.28471e-05
-9.82728e-11
-0.000327115
7.96056e-05
-1.65707e-10
-0.000412852
8.57364e-05
-2.45409e-10
-0.000504553
9.17019e-05
-3.42556e-10
-0.000602297
9.77445e-05
-4.61252e-10
-0.000706296
0.000103999
-6.04618e-10
-0.000816928
0.000110633
-7.74183e-10
-0.000934904
0.000117977
-9.69422e-10
-0.00106169
0.000126787
-1.18751e-09
-0.00120018
0.000138491
-1.42331e-09
0.000153989
-1.66891e-09
-0.00135417
-1.69217e-05
3.42045e-05
-5.49876e-05
7.68665e-05
-0.000107866
0.00010678
-0.000171238
0.00012805
-0.000242449
0.000144057
-0.000320002
0.000157159
-0.00040316
0.000168894
-0.000491618
0.000180159
-0.00058528
0.000191407
-0.000684137
0.000202856
-0.000788266
0.000214761
-0.00089794
0.000227652
-0.00101395
0.000242802
-0.00113897
0.000263507
0.000289191
-0.00127417
-1.62182e-05
5.04227e-05
-5.28462e-05
0.000113494
-0.000103715
0.00015765
-0.000164518
0.000188852
-0.000232505
0.000212044
-0.000306018
0.000230673
-0.000384103
0.000246979
-0.000466191
0.000262247
-0.00055186
0.000277077
-0.000640684
0.00029168
-0.000732184
0.000306262
-0.000825862
0.00032133
-0.000921101
0.00033804
-0.00102051
0.000362913
0.000388435
-0.00111975
-1.52091e-05
6.56318e-05
-4.97566e-05
0.000148042
-9.77018e-05
0.000205595
-0.000154751
0.000245902
-0.000218023
0.000275316
-0.000285628
0.000298278
-0.000356306
0.000317657
-0.000429114
0.000335054
-0.000503184
0.000351147
-0.000577528
0.000366024
-0.000650938
0.000379672
-0.000722002
0.000392393
-0.000787809
0.000403847
-0.000851795
0.0004269
0.000437571
-0.000900932
-1.39464e-05
7.95783e-05
-4.58583e-05
0.000179954
-9.00674e-05
0.000249804
-0.000142296
0.00029813
-0.000199495
0.000332515
-0.000259489
0.000358272
-0.000320638
0.000378806
-0.000381539
0.000395956
-0.000440788
0.000410396
-0.000496747
0.000421983
-0.000547367
0.000430292
-0.000590491
0.000435516
-0.000619827
0.000433183
-0.000641217
0.00044829
0.00042653
-0.000630176
-1.24947e-05
9.20729e-05
-4.13241e-05
0.000208783
-8.11131e-05
0.000289593
-0.000127595
0.000344612
-0.000177527
0.000382448
-0.000228402
0.000409147
-0.000278141
0.000428544
-0.000324814
0.000442629
-0.000366407
0.00045199
-0.000400586
0.000456161
-0.000424352
0.000454058
-0.00043534
0.000446504
-0.00042278
0.000420624
-0.00039603
0.00042154
0.000350445
-0.000319946
-1.09265e-05
0.000102999
-3.63501e-05
0.000234207
-7.11805e-05
0.000324423
-0.000111149
0.000384581
-0.000152798
0.000424096
-0.000193248
0.000449598
-0.000229935
0.00046523
-0.000260335
0.000473029
-0.000281755
0.00047341
-0.000291126
0.000465532
-0.000284276
0.000447207
-0.000259257
0.000421486
-0.000201287
0.000362653
-0.000117828
0.000338082
0.000216794
1.58235e-05
-9.31849e-06
0.000112318
-3.11436e-05
0.000256032
-6.0631e-05
0.000353911
-9.34868e-05
0.000417437
-0.00012601
0.000456619
-0.000154921
0.000478508
-0.00017711
0.000487419
-0.000189392
0.000485311
-0.000188287
0.000472306
-0.000169957
0.000447202
-0.000128839
0.000406088
-6.15994e-05
0.000354246
4.23101e-05
0.000258744
0.000186046
0.000194346
-1.01818e-06
0.000403858
-7.74608e-06
0.000120064
-2.59093e-05
0.000274195
-4.98207e-05
0.000377822
-7.51213e-05
0.000442737
-9.78357e-05
0.000479334
-0.000114235
0.000494907
-0.000120601
0.000493786
-0.000112986
0.000477696
-8.6949e-05
0.000446269
-3.75667e-05
0.00039782
4.10842e-05
0.000327438
0.000155237
0.000240094
0.000321511
9.24697e-05
0.000523646
-7.78898e-06
-0.000308055
0.000830683
-6.27856e-06
0.000126343
-2.08348e-05
0.000288752
-3.90734e-05
0.000396061
-5.65099e-05
0.000460174
-6.8844e-05
0.000491668
-7.18319e-05
0.000497895
-6.10454e-05
0.000483
-3.16202e-05
0.000448271
2.20208e-05
0.000392628
0.000106229
0.000313612
0.000229332
0.000204334
0.000396248
7.31784e-05
0.000631595
-0.000142878
0.000909022
-0.000285216
-0.000714882
0.00131585
-4.9741e-06
0.000131317
-1.6076e-05
0.000299853
-2.86521e-05
0.000408637
-3.80057e-05
0.000469527
-3.94333e-05
0.000493096
-2.8071e-05
0.000486533
1.37188e-06
0.000453557
5.49248e-05
0.000394718
0.000139653
0.000307899
0.000263576
0.000189689
0.000437065
3.0845e-05
0.000667857
-0.000157614
0.000981566
-0.000456587
0.00135115
-0.000654795
-0.00123573
0.00187199
-3.87506e-06
0.000135192
-1.1742e-05
0.00030772
-1.87292e-05
0.000415624
-1.9808e-05
0.000470606
-9.75078e-06
0.000483038
1.70903e-05
0.000459692
6.71133e-05
0.000403534
0.000147788
0.000314043
0.000268054
0.000187633
0.000438261
1.94827e-05
0.000670121
-0.000201016
0.000976885
-0.000464377
0.00137872
-0.000858425
0.00185597
-0.00113205
-0.00187945
0.0024997
-3.00387e-06
0.000138196
-7.88146e-06
0.000312598
-9.35957e-06
0.000417102
-1.90901e-06
0.000463155
2.03827e-05
0.000460747
6.42019e-05
0.000415873
0.000137366
0.000330369
0.000249205
0.000202205
0.000410872
2.59661e-05
0.000635549
-0.000205194
0.000935392
-0.000500859
0.00132975
-0.000858734
0.00182766
-0.00135634
0.00242162
-0.00172601
-0.00263762
0.00317979
-2.35995e-06
0.000140556
-4.4704e-06
0.000314708
-4.39203e-07
0.000413071
1.59245e-05
0.000446792
5.15363e-05
0.000425135
0.000114409
0.000353
0.000214197
0.000230582
0.000362516
5.38858e-05
0.000572949
-0.000184467
0.00086138
-0.000493626
0.00123969
-0.000879172
0.00172916
-0.0013482
0.00232544
-0.00195262
0.00303291
-0.00243348
-0.00347664
0.00387193
-1.91848e-06
0.000142474
-1.39198e-06
0.000314182
8.23028e-06
0.000403449
3.42224e-05
0.0004208
8.47141e-05
0.000374643
0.00016949
0.000268223
0.000300486
9.95864e-05
0.000491931
-0.000137559
0.000759676
-0.000452213
0.00112081
-0.000854759
0.00158633
-0.0013447
0.00217054
-0.00193241
0.00285642
-0.0026385
0.00365623
-0.00323329
-0.00434242
0.00452201
-1.633e-06
0.000144107
1.47259e-06
0.000311076
1.70977e-05
0.000387824
5.37856e-05
0.000384112
0.00012135
0.000307079
0.000231802
0.000157772
0.000399733
-6.83444e-05
0.000641944
-0.000379771
0.000975674
-0.000785942
0.00141594
-0.00129503
0.00197083
-0.00189958
0.00263848
-0.00260005
0.00339046
-0.00339048
0.0042406
-0.00408343
-0.00517677
0.00507495
-1.4376e-06
0.000145545
4.38706e-06
0.000305252
2.67138e-05
0.000365497
7.56761e-05
0.000335149
0.000163251
0.000219504
0.000304112
1.69098e-05
0.000515624
-0.000279856
0.000816372
-0.000680518
0.00122283
-0.0011924
0.00174341
-0.00181561
0.00237831
-0.00253448
0.00310515
-0.0033269
0.00388673
-0.00417206
0.0047302
-0.0049269
-0.00593469
0.00548813
-1.2242e-06
0.000146769
7.7189e-06
0.000296309
3.77768e-05
0.000335439
0.000101161
0.000271766
0.00021246
0.000108205
0.000389289
-0.000159919
0.000651338
-0.000541905
0.00101704
-0.00104622
0.00149822
-0.00167358
0.00209194
-0.00240933
0.00278416
-0.0032267
0.00353459
-0.00407733
0.00430288
-0.00494035
0.00508407
-0.00570808
-0.00659282
0.00574219
-8.59385e-07
0.000147628
1.18158e-05
0.000283633
5.10653e-05
0.000296189
0.000131616
0.000191215
0.000271058
-3.12373e-05
0.000489842
-0.000378704
0.000808625
-0.000860688
0.00124229
-0.00147988
0.00179273
-0.00222402
0.00244188
-0.00305849
0.00315829
-0.00394311
0.00389237
-0.00481142
0.00460729
-0.00565526
0.00528875
-0.00638954
-0.00714928
0.00584521
-1.72598e-07
0.000147801
1.70603e-05
0.0002664
6.73847e-05
0.000245865
0.000168403
9.01965e-05
0.000340884
-0.000203718
0.000607358
-0.000645178
0.000986789
-0.00124012
0.00148574
-0.00197884
0.00209098
-0.00282925
0.00276824
-0.00373575
0.00347214
-0.004647
0.0041555
-0.00549478
0.00478891
-0.00628868
0.00535454
-0.00695517
-0.0076227
0.00582796
7.75103e-07
0.000147026
2.38145e-05
0.000243361
8.75037e-05
0.000182176
0.000212725
-3.50253e-05
0.000423223
-0.000414215
0.000741867
-0.000963822
0.00118181
-0.00168007
0.00173601
-0.00253303
0.00237338
-0.00346662
0.00304669
-0.00440907
0.0037061
-0.00530641
0.00431654
-0.00610521
0.0048589
-0.00683105
0.00532568
-0.00742195
-0.00803254
0.00573552
2.18021e-06
0.000144845
3.24229e-05
0.000213118
0.000112087
0.000102511
0.000265475
-0.000188413
0.000518468
-0.000667208
0.000891262
-0.00133662
0.001386
-0.00217481
0.00197799
-0.00312502
0.00262011
-0.00410874
0.00325974
-0.0050487
0.00385346
-0.00590013
0.00438197
-0.00663372
0.00483602
-0.00728509
0.00523645
-0.00782238
-0.00838767
0.00559157
4.15003e-06
0.000140695
4.31716e-05
0.000174097
0.00014164
4.04285e-06
0.000327087
-0.000373859
0.000625795
-0.000965917
0.00105093
-0.00176175
0.00158852
-0.0027124
0.00219566
-0.00373215
0.00281571
-0.00472879
0.00340003
-0.00563302
0.0039189
-0.006419
0.00436754
-0.00708237
0.00475133
-0.00766888
0.00509356
-0.00816461
-0.0086939
0.00539979
6.74446e-06
0.000133951
5.6267e-05
0.000124574
0.000176456
-0.000116146
0.000397397
-0.000594801
0.000742891
-0.00131141
0.00121383
-0.00223268
0.00177705
-0.00327562
0.00237545
-0.00433055
0.00295205
-0.0053054
0.00346966
-0.00615063
0.00391422
-0.00686355
0.00429352
-0.00746167
0.00462023
-0.00799559
0.00491822
-0.00846261
-0.00897272
0.00519705
1.00104e-05
0.000123941
7.18365e-05
6.27482e-05
0.000216576
-0.000260885
0.000475509
-0.000853734
0.000865839
-0.00170174
0.00137126
-0.00273811
0.00194008
-0.00384444
0.0025088
-0.00489926
0.00302854
-0.00582514
0.00347704
-0.00659913
0.00385431
-0.00724082
0.00417608
-0.00778345
0.00445851
-0.00827802
0.00472408
-0.00872817
-0.00922611
0.00497747
1.39778e-05
0.000109963
8.99228e-05
-1.31969e-05
0.000261753
-0.000432716
0.000559675
-0.00115165
0.000989301
-0.00213137
0.0015142
-0.003263
0.00206907
-0.00439932
0.00259286
-0.00542305
0.00305017
-0.00628244
0.00343341
-0.00698237
0.00375301
-0.00756043
0.0040287
-0.00805914
0.00427688
-0.00852619
0.00451629
-0.00896758
-0.00945931
0.00474949
1.86614e-05
9.13015e-05
0.000110481
-0.000105016
0.000311405
-0.00063364
0.000647253
-0.0014875
0.00110708
-0.00259119
0.00163484
-0.00379077
0.00215948
-0.00492396
0.00262962
-0.00589319
0.00302497
-0.00667779
0.00335014
-0.00730754
0.003622
-0.00783229
0.00386108
-0.00829822
0.00408204
-0.00874716
0.00430009
-0.00918562
-0.00967433
0.00451511
2.40619e-05
6.72396e-05
0.000133371
-0.000214326
0.000364559
-0.000864828
0.000734807
-0.00185775
0.00121298
-0.00306936
0.00172776
-0.00430555
0.00221068
-0.00540689
0.00262413
-0.00630664
0.00296189
-0.00701555
0.00323729
-0.00758294
0.00347026
-0.00806526
0.00367997
-0.00850793
0.0038786
-0.00894579
0.00407778
-0.0093848
-0.00987225
0.0042757
3.01654e-05
3.70742e-05
0.000158347
-0.000342507
0.000419822
-0.0011263
0.000818399
-0.00225633
0.00130176
-0.00355272
0.00179038
-0.00479417
0.00222502
-0.00584153
0.00258292
-0.00666454
0.00286935
-0.00730198
0.00310303
-0.00781662
0.00330433
-0.00826656
0.00348991
-0.00869351
0.00366925
-0.00912513
0.00385103
-0.00956658
-0.0100537
0.0040325
3.69408e-05
1.3335e-07
0.000185032
-0.000490599
0.00047539
-0.00141666
0.000894057
-0.002675
0.00136977
-0.00402843
0.00182266
-0.00524705
0.00220662
-0.00622549
0.00251273
-0.00697064
0.00275468
-0.00754393
0.00295368
-0.00801563
0.00312884
-0.00844171
0.00329382
-0.0088585
0.00345572
-0.00928702
0.00362084
-0.0097317
-0.0102188
0.00378595
4.43327e-05
-4.41993e-05
0.000212906
-0.000659172
0.000529152
-0.00173291
0.000958289
-0.00310413
0.00141521
-0.00448535
0.00182644
-0.00565828
0.00216043
-0.00655948
0.00241984
-0.00723005
0.0026238
-0.0077479
0.00279389
-0.00818572
0.00294692
-0.00859474
0.00309362
-0.0090052
0.00323911
-0.00943251
0.00338789
-0.00988048
-0.0103676
0.00353665
5.22784e-05
-9.64777e-05
0.000241286
-0.00084818
0.000578875
-0.0020705
0.00100849
-0.00353375
0.00143791
-0.00491478
0.00180474
-0.00602512
0.00209145
-0.00684619
0.00230965
-0.00744825
0.00248137
-0.00791962
0.00262702
-0.00833136
0.0027607
-0.00872842
0.00289055
-0.00913505
0.00302016
-0.00956212
0.0031527
-0.010013
-0.0104999
0.00328499
6.06709e-05
-0.000157149
0.000269337
-0.00105685
0.000622439
-0.0024236
0.00104313
-0.00395444
0.00143901
-0.00531065
0.00176113
-0.00634723
0.00200436
-0.00708943
0.00218664
-0.00763053
0.00233089
-0.00806387
0.00245541
-0.00845588
0.00257161
-0.00884463
0.00268545
-0.00924889
0.00279942
-0.00967608
0.0029157
-0.0101293
-0.0106156
0.00303138
6.93762e-05
-0.000226525
0.000296122
-0.00128359
0.000658059
-0.00278553
0.00106175
-0.00435813
0.00142045
-0.00566935
0.00169924
-0.00662602
0.00190324
-0.00729343
0.00205438
-0.00778166
0.00217494
-0.00818444
0.00228072
-0.00856166
0.00238063
-0.00894454
0.00247892
-0.00934718
0.00257732
-0.00977449
0.00267728
-0.0102293
-0.0107145
0.00277624
7.82264e-05
-0.000304751
0.000320667
-0.00152603
0.00068445
-0.00314932
0.00106476
-0.00473844
0.00138464
-0.00598923
0.00162254
-0.00686392
0.00179156
-0.00746246
0.00191562
-0.00790572
0.00201543
-0.00828424
0.00210411
-0.00865034
0.00218845
-0.00902888
0.00227142
-0.00943015
0.00235425
-0.00985731
0.00243783
-0.0103128
-0.0107966
0.00251995
8.70175e-05
-0.000391769
0.000342048
-0.00178106
0.000700904
-0.00350817
0.00105318
-0.00509071
0.00133414
-0.00627019
0.00153415
-0.00706394
0.00167216
-0.00760046
0.0017725
-0.00800607
0.0018537
-0.00836544
0.00192639
-0.00872303
0.0019956
-0.00909809
0.00206336
-0.00949791
0.00213056
-0.00992451
0.00219769
-0.01038
-0.0108619
0.0022629
9.55136e-05
-0.000487282
0.000359463
-0.00204501
0.000707258
-0.00385597
0.00102846
-0.00541192
0.00127144
-0.00651317
0.00143679
-0.00722929
0.00154729
-0.00771096
0.0016266
-0.00808538
0.00169076
-0.0084296
0.00174817
-0.00878044
0.00180248
-0.0091524
0.00185508
-0.00955051
0.00190661
-0.00997604
0.00195724
-0.0104306
-0.0109101
0.00200552
0.000103458
-0.00059074
0.000372292
-0.00231385
0.000703809
-0.00418749
0.000992227
-0.00570034
0.00119889
-0.00671983
0.00133274
-0.00736313
0.00141876
-0.00779698
0.00147911
-0.00814573
0.00152734
-0.00847783
0.00156993
-0.00882302
0.00160947
-0.00919195
0.00164692
-0.00958796
0.00168273
-0.0100119
0.00171687
-0.0104647
-0.0109415
0.00174823
0.00011059
-0.00070133
0.000380124
-0.00258338
0.000691189
-0.00449855
0.000946166
-0.00595531
0.00111858
-0.00689225
0.00122389
-0.00746844
0.00128796
-0.00786106
0.00133093
-0.0081887
0.00136399
-0.00851089
0.00139204
-0.00885107
0.00141688
-0.00921679
0.00143918
-0.00961026
0.00145927
-0.0100319
0.00147696
-0.0104824
-0.0109561
0.00149152
0.000116663
-0.000817993
0.000382771
-0.00284949
0.000670244
-0.00478602
0.000891925
-0.00617699
0.00103234
-0.00703267
0.00111179
-0.00754789
0.00115597
-0.00790523
0.00118274
-0.00821547
0.00120115
-0.0085293
0.00121482
-0.00886473
0.001225
-0.00922698
0.00123215
-0.00961741
0.00123651
-0.0100363
0.00123789
-0.0104838
-0.0109541
0.00123589
0.000121456
-0.000939449
0.00038025
-0.00310828
0.000641941
-0.00504771
0.000831042
-0.0063661
0.000941744
-0.00714337
0.000997694
-0.00760384
0.00102363
-0.00793117
0.00103506
-0.00822691
0.00103917
-0.0085334
0.00103857
-0.00886413
0.00103412
-0.00922253
0.00102611
-0.0096094
0.00101474
-0.0100249
0.000999918
-0.010469
-0.0109356
0.000981466
0.00012479
-0.00106424
0.00037275
-0.00335624
0.00060728
-0.00528224
0.000764914
-0.00652373
0.000848103
-0.00722656
0.000882584
-0.00763832
0.000891577
-0.00794016
0.000888302
-0.00822363
0.00087834
-0.00852344
0.00086356
-0.00884935
0.000844502
-0.00920347
0.000821337
-0.00958624
0.000794235
-0.00999783
0.000763224
-0.010438
-0.0109004
0.000728023
0.00012653
-0.00119077
0.000360596
-0.00359031
0.000567254
-0.0054889
0.000694782
-0.00665126
0.000752523
-0.0072843
0.000767252
-0.00765305
0.000760319
-0.00793323
0.000742793
-0.00820611
0.00071894
-0.00849959
0.000690052
-0.00882046
0.000656446
-0.00916986
0.000618175
-0.00954797
0.00057535
-0.00995501
0.000527933
-0.0103906
-0.0108484
0.000475886
0.000126592
-0.00131736
0.000344196
-0.00380791
0.000522806
-0.00566751
0.000621728
-0.00675018
0.00065591
-0.00731848
0.000652325
-0.00764946
0.000630252
-0.00791115
0.000598813
-0.00817467
0.00056121
-0.00846198
0.00051829
-0.00877754
0.000470215
-0.00912179
0.000416965
-0.00949472
0.000358594
-0.00989663
0.000294433
-0.0103264
-0.0107789
0.000225013
0.000124954
-0.00144232
0.000324085
-0.00400704
0.000474825
-0.00581825
0.000546685
-0.00682204
0.000559008
-0.0073308
0.000538296
-0.00762875
0.000501693
-0.00787455
0.000456605
-0.00812958
0.000405374
-0.00841075
0.000348518
-0.00872069
0.000286043
-0.00905931
0.000217973
-0.00942665
0.000144214
-0.00982288
6.49381e-05
-0.0102471
-0.0106877
-2.62602e-05
0.000121649
-0.00156396
0.00030082
-0.00418622
0.000424123
-0.00594155
0.000470447
-0.00686836
0.000462416
-0.00732277
0.000425558
-0.00759189
0.000374906
-0.0078239
0.000316385
-0.00807106
0.000251628
-0.008346
0.000180968
-0.00865003
0.00010413
-0.00898248
2.0995e-05
-0.00934351
-6.77179e-05
-0.00973416
-0.000163169
-0.0101517
-0.0105843
-0.000266656
0.000116756
-0.00168072
0.000274902
-0.00434436
0.000371427
-0.00603808
0.000393686
-0.00689062
0.000366618
-0.0072957
0.000314424
-0.0075397
0.000250125
-0.0077596
0.00017833
-0.00799926
0.000100092
-0.00826776
1.54716e-05
-0.00856541
-7.50914e-05
-0.00889191
-0.000172219
-0.00924638
-0.000276122
-0.00963026
-0.000387953
-0.0100398
-0.0104661
-0.000506079
0.000110391
-0.00179111
0.000246813
-0.00448078
0.000317375
-0.00610864
0.000316965
-0.00689021
0.000272004
-0.00725074
0.000205144
-0.00747284
0.00012753
-0.00768199
4.23883e-05
-0.00791412
-4.89399e-05
-0.00817643
-0.00014659
-0.00846776
-0.00025126
-0.00878724
-0.000362784
-0.00913486
-0.000481707
-0.00951134
-0.000608658
-0.00991288
-0.0103325
-0.000742297
0.000102702
-0.00189381
0.000217013
-0.00459509
0.000262522
-0.00615415
0.000240748
-0.00686844
0.000178902
-0.0071889
9.78981e-05
-0.00739184
6.55757e-06
-0.00759065
-9.06705e-05
-0.00781689
-0.000194906
-0.00807219
-0.000306089
-0.00835657
-0.000424442
-0.00866889
-0.000550159
-0.00900914
-0.000683776
-0.00937772
-0.000825558
-0.0097711
-0.0101835
-0.000974592
9.38554e-05
-0.00198767
0.000185935
-0.00468717
0.000207358
-0.00617558
0.000165396
-0.00682648
8.75691e-05
-0.00711107
-7.64904e-06
-0.00729662
-0.000110492
-0.0074878
-0.000220947
-0.00770644
-0.000338182
-0.00795496
-0.000462556
-0.0082322
-0.000594378
-0.00853707
-0.00073401
-0.00886951
-0.000882001
-0.00922973
-0.00103845
-0.00961465
-0.0100193
-0.00120259
8.40271e-05
-0.0020717
0.000153986
-0.00475713
0.000152309
-0.0061739
9.1208e-05
-0.00676537
-2.63154e-06
-0.00701723
-0.000109514
-0.00718974
-0.000225455
-0.00737186
-0.000348472
-0.00758342
-0.000478462
-0.00782497
-0.000615783
-0.00809488
-0.000760835
-0.00839202
-0.000914087
-0.00871626
-0.00107614
-0.00906768
-0.00124703
-0.00944376
-0.00984042
-0.00142593
7.33943e-05
-0.00214509
0.000121542
-0.00480528
9.77232e-05
-0.00615008
1.8682e-05
-0.00668633
-8.87436e-05
-0.0069098
-0.000209361
-0.00706912
-0.000337711
-0.00724351
-0.000473064
-0.00744807
-0.000615561
-0.00768247
-0.000765593
-0.00794485
-0.000923609
-0.008234
-0.00109017
-0.0085497
-0.00126596
-0.00889188
-0.00145103
-0.00925869
-0.00964711
-0.00164434
6.21401e-05
-0.00220723
8.89424e-05
-0.00483208
4.39722e-05
-0.00610511
-5.21224e-05
-0.00659024
-0.000173498
-0.00678843
-0.000306617
-0.006936
-0.000447106
-0.00710302
-0.000594574
-0.0073006
-0.000749334
-0.00752771
-0.000911818
-0.00778236
-0.00108251
-0.0080633
-0.00126206
-0.00837016
-0.00145126
-0.00870268
-0.00165019
-0.00905976
-0.00943987
-0.00185743
5.04719e-05
-0.0022577
5.65296e-05
-0.00483814
-8.51353e-06
-0.00604007
-0.000121081
-0.00647767
-0.000255912
-0.0066536
-0.000401158
-0.00679076
-0.000553517
-0.00695066
-0.000712869
-0.00714125
-0.000879638
-0.00736094
-0.00105431
-0.0076077
-0.00123738
-0.00788023
-0.00142957
-0.00817797
-0.00163182
-0.00850043
-0.00184421
-0.00884738
-0.00921939
-0.00206468
3.85932e-05
-0.0022963
2.49803e-05
-0.00482453
-6.05703e-05
-0.00595451
-0.000188199
-0.00635004
-0.00033584
-0.00650596
-0.000492889
-0.00663371
-0.000656846
-0.00678671
-0.000827826
-0.00697027
-0.00100634
-0.00718243
-0.0011929
-0.00742113
-0.00138805
-0.00768507
-0.00159255
-0.00797348
-0.00180746
-0.00828551
-0.00203277
-0.00862207
-0.00898634
-0.00226582
2.6506e-05
-0.0023228
-4.95958e-06
-0.00479306
-0.000110442
-0.00584903
-0.000253258
-0.00620723
-0.000413218
-0.006346
-0.000581725
-0.0064652
-0.000756996
-0.00661144
-0.000939333
-0.00678793
-0.00112931
-0.00699245
-0.00132748
-0.00722296
-0.00153438
-0.00747817
-0.00175084
-0.00775702
-0.001978
-0.00805835
-0.00221582
-0.00838425
-0.00874081
-0.00246135
1.39892e-05
-0.00233679
-3.96972e-05
-0.00473938
-0.000159517
-0.00572921
-0.000316107
-0.00605064
-0.000487947
-0.00617416
-0.000667584
-0.00628556
-0.000853874
-0.00642515
-0.00104728
-0.00659453
-0.00124843
-0.0067913
-0.0014579
-0.0070135
-0.00167625
-0.00725982
-0.00190432
-0.00752895
-0.00214335
-0.00781932
-0.00239353
-0.00813407
-0.00848296
-0.00265138
1.79167e-06
-0.00233858
-7.14297e-05
-0.00466615
-0.000207124
-0.00559352
-0.000376682
-0.00588108
-0.000559938
-0.0059909
-0.000750385
-0.00609511
-0.000947391
-0.00622814
-0.00115156
-0.00639036
-0.00136358
-0.00657929
-0.00158405
-0.00679302
-0.00181358
-0.00703028
-0.00205303
-0.00728951
-0.00230344
-0.0075689
-0.0025651
-0.00787241
-0.00821438
-0.00283368
-1.11483e-05
-0.00232743
-0.000101838
-0.00457546
-0.00025298
-0.00544238
-0.00043493
-0.00569913
-0.000629136
-0.00579669
-0.000830057
-0.00589419
-0.00103746
-0.00602074
-0.00125207
-0.00617574
-0.00147463
-0.00635673
-0.0017058
-0.00656185
-0.00194632
-0.00678977
-0.00219707
-0.00703876
-0.0024585
-0.00730747
-0.00272868
-0.00760224
-0.00793423
-0.00300883
-2.3563e-05
-0.00230387
-0.000131111
-0.00446792
-0.000296971
-0.00527652
-0.000490769
-0.00550533
-0.000695488
-0.00559197
-0.000906532
-0.00568315
-0.00112399
-0.00580328
-0.0013487
-0.00595104
-0.00158145
-0.00612398
-0.00182301
-0.0063203
-0.00207423
-0.00653854
-0.00233608
-0.00677691
-0.00260897
-0.00703458
-0.00289375
-0.00731746
-0.00765992
-0.00316806
-3.55683e-05
-0.0022683
-0.000159247
-0.00434424
-0.000339047
-0.00509672
-0.00054414
-0.00530024
-0.000758948
-0.00537717
-0.000979747
-0.00546235
-0.00120691
-0.00557612
-0.00144136
-0.00571659
-0.00168394
-0.00588139
-0.0019355
-0.00606873
-0.00219702
-0.00627703
-0.00246931
-0.00650462
-0.00275157
-0.00675232
-0.00304192
-0.0070271
-0.0073242
-0.00337764
-4.71711e-05
-0.00222113
-0.000186206
-0.0042052
-0.000379168
-0.00490375
-0.000594999
-0.00508441
-0.000819469
-0.0051527
-0.00104964
-0.00523217
-0.00128613
-0.00533963
-0.00152994
-0.00547278
-0.00178199
-0.00562935
-0.00204319
-0.00580753
-0.00231447
-0.00600575
-0.00259612
-0.00622297
-0.0028875
-0.00646093
-0.00319274
-0.00672186
-0.00699179
-0.00352515
-5.83348e-05
-0.0021628
-0.000211942
-0.0040516
-0.000417302
-0.00469839
-0.000643313
-0.0048584
-0.000877012
-0.004919
-0.00111617
-0.00499302
-0.00136159
-0.0050942
-0.00161437
-0.00522001
-0.00187548
-0.00536824
-0.00214591
-0.00553709
-0.00242658
-0.00572509
-0.00271792
-0.00593162
-0.00302079
-0.00615806
-0.0033394
-0.00640326
-0.00665619
-0.003675
-6.90208e-05
-0.00209378
-0.00023641
-0.00388421
-0.00045342
-0.00448138
-0.000689054
-0.00462276
-0.000931539
-0.00467651
-0.00117926
-0.00474529
-0.00143322
-0.00484024
-0.00169454
-0.00495869
-0.00196429
-0.00509849
-0.00224348
-0.00525791
-0.00253296
-0.00543561
-0.00283338
-0.00563121
-0.00314613
-0.0058453
-0.00347417
-0.00607523
-0.00631359
-0.00381678
-7.92378e-05
-0.00201454
-0.000259574
-0.00370387
-0.000487499
-0.00425346
-0.000732199
-0.00437806
-0.000983018
-0.00442569
-0.00123889
-0.00448942
-0.00150095
-0.00457819
-0.0017704
-0.00468924
-0.00204835
-0.00482054
-0.00233585
-0.00497041
-0.00263379
-0.00513766
-0.00294306
-0.00532194
-0.00326514
-0.00552322
-0.00360184
-0.00573853
-0.00596312
-0.00395231
-8.89482e-05
-0.00192559
-0.000281404
-0.00351141
-0.000519517
-0.00401535
-0.000772728
-0.00412485
-0.00103142
-0.004167
-0.00129499
-0.00422585
-0.00156472
-0.00430846
-0.00184185
-0.00441211
-0.00212754
-0.00453485
-0.00242286
-0.00467509
-0.00272878
-0.00483174
-0.00304629
-0.00500443
-0.0033768
-0.00519271
-0.00372157
-0.00539375
-0.00560453
-0.00408016
-9.81162e-05
-0.00182747
-0.000301871
-0.00330766
-0.000549458
-0.00376776
-0.000810624
-0.00386369
-0.00107671
-0.00390092
-0.00134754
-0.00395502
-0.00162447
-0.00403153
-0.00190882
-0.00412776
-0.00220179
-0.00424188
-0.00250447
-0.0043724
-0.00281789
-0.00451832
-0.00314311
-0.00467921
-0.00348142
-0.0048544
-0.00383385
-0.00504132
-0.00523812
-0.00420026
-0.000106714
-0.00172076
-0.00032095
-0.00309342
-0.000577305
-0.0035114
-0.000845872
-0.00359512
-0.00111887
-0.00362792
-0.00139648
-0.00367741
-0.00168016
-0.00374785
-0.00197126
-0.00383665
-0.00227102
-0.00394212
-0.00258058
-0.00406284
-0.00290099
-0.00419791
-0.00323336
-0.00434685
-0.00357888
-0.00450889
-0.00393851
-0.00468169
-0.0048643
-0.00431233
-0.000114718
-0.00160604
-0.000338621
-0.00286952
-0.000603048
-0.00324698
-0.000878458
-0.00331971
-0.00115788
-0.0033485
-0.00144179
-0.0033935
-0.00173174
-0.0034579
-0.00202911
-0.00353928
-0.00233517
-0.00363605
-0.0026511
-0.00374691
-0.002978
-0.00387102
-0.00331695
-0.00400789
-0.00366914
-0.0041567
-0.00403548
-0.00431535
-0.00448355
-0.00441623
-0.000122109
-0.00148393
-0.000354866
-0.00263676
-0.000626674
-0.00297517
-0.000908368
-0.00303802
-0.0011937
-0.00306316
-0.00148343
-0.00310376
-0.00177916
-0.00316218
-0.00208231
-0.00323614
-0.00239418
-0.00332418
-0.00271598
-0.00342512
-0.00304882
-0.00353817
-0.00339383
-0.00366288
-0.00375214
-0.00379839
-0.00412467
-0.00394282
-0.00409641
-0.00451181
-0.000128871
-0.00135506
-0.000369671
-0.00239596
-0.000648176
-0.00269666
-0.000935593
-0.0027506
-0.00122633
-0.00277242
-0.00152138
-0.00280872
-0.00182238
-0.00286118
-0.00213081
-0.00292771
-0.00244799
-0.003007
-0.00277514
-0.00309797
-0.00311341
-0.0031999
-0.00346393
-0.00331236
-0.00382782
-0.0034345
-0.004206
-0.00356464
-0.00370343
-0.00459898
-0.000134991
-0.00122007
-0.000383023
-0.00214793
-0.000667545
-0.00241214
-0.000960122
-0.00245802
-0.00125575
-0.0024768
-0.00155561
-0.00250886
-0.00186138
-0.0025554
-0.00217458
-0.00261452
-0.00249654
-0.00268504
-0.00282853
-0.00276598
-0.00317169
-0.00285673
-0.00352718
-0.00295687
-0.0038961
-0.00306558
-0.00427938
-0.00318137
-0.00330518
-0.00467763
-0.000140457
-0.00107961
-0.000394913
-0.00189348
-0.000684776
-0.00212228
-0.000981947
-0.00216085
-0.00128194
-0.00217681
-0.00158608
-0.00220472
-0.00189612
-0.00224536
-0.00221357
-0.00229707
-0.00253981
-0.0023588
-0.0028761
-0.00242969
-0.00322362
-0.00250921
-0.00358354
-0.00259695
-0.00395694
-0.00269218
-0.00434474
-0.00279356
-0.00290223
-0.00474769
-0.000145258
-0.000934357
-0.000405333
-0.0016334
-0.000699863
-0.00182775
-0.00100106
-0.00185965
-0.00130488
-0.00187299
-0.0016128
-0.0018968
-0.00192658
-0.00193158
-0.00224776
-0.00197589
-0.00257774
-0.00202882
-0.00291781
-0.00208963
-0.00326916
-0.00215786
-0.00363294
-0.00223317
-0.00401027
-0.00231485
-0.00440203
-0.00240179
-0.00249519
-0.00480908
-0.000149388
-0.000784969
-0.000414275
-0.00136851
-0.000712802
-0.00152922
-0.00101745
-0.001555
-0.00132457
-0.00156587
-0.00163573
-0.00158564
-0.00195272
-0.00161458
-0.00227711
-0.00165149
-0.00261032
-0.00169561
-0.00295362
-0.00174632
-0.00330825
-0.00180323
-0.00367536
-0.00186605
-0.00405605
-0.00193417
-0.0044512
-0.00200664
-0.00208463
-0.00486176
-0.000152839
-0.00063213
-0.000421734
-0.00109962
-0.000723589
-0.00122737
-0.00103112
-0.00124746
-0.00134099
-0.00125601
-0.00165486
-0.00127177
-0.00197454
-0.0012949
-0.00230161
-0.00132442
-0.0026375
-0.00135972
-0.00298352
-0.00140031
-0.00334088
-0.00144587
-0.00371076
-0.00149617
-0.00409424
-0.00155069
-0.00449221
-0.00160867
-0.00167117
-0.00490568
-0.000155606
-0.000476524
-0.000427707
-0.000827517
-0.000732222
-0.000922852
-0.00104207
-0.000937621
-0.00135414
-0.000943941
-0.00167017
-0.000955734
-0.00199201
-0.000973064
-0.00232123
-0.000995197
-0.00265928
-0.00102168
-0.00300746
-0.00105213
-0.00336701
-0.00108632
-0.00373911
-0.00112407
-0.00412483
-0.00116497
-0.00452504
-0.00120846
-0.00125539
-0.00494082
-0.000157685
-0.000318839
-0.000432189
-0.000553013
-0.000738699
-0.000616342
-0.00105028
-0.000626044
-0.001364
-0.000630216
-0.00168167
-0.000638063
-0.00200513
-0.000649609
-0.00233596
-0.000664362
-0.00267562
-0.000682018
-0.00302543
-0.000702325
-0.00338662
-0.000725128
-0.00376039
-0.000750302
-0.00414778
-0.000777574
-0.00454967
-0.000806565
-0.00083788
-0.00496718
-0.000159072
-0.000159767
-0.000435178
-0.000276907
-0.000743017
-0.000308503
-0.00105575
-0.000313311
-0.00137058
-0.000315385
-0.00168934
-0.000319304
-0.00201388
-0.000325075
-0.00234579
-0.00033245
-0.00268653
-0.000341279
-0.00303742
-0.000351434
-0.00339971
-0.000362838
-0.00377458
-0.000375428
-0.00416309
-0.000389066
-0.00456609
-0.000403561
-0.000419225
-0.00498475
-0.000159767
2.67891e-12
-0.000436673
1.77219e-12
-0.000745177
2.53975e-14
-0.00105849
-1.39033e-12
-0.00137387
-2.7783e-12
-0.00169318
-4.26309e-12
-0.00201825
-5.87169e-12
-0.0023507
-7.5929e-12
-0.00269198
-9.42648e-12
-0.00304341
-1.13317e-11
-0.00340625
-1.32238e-11
-0.00378168
-1.5045e-11
-0.00417075
-1.67363e-11
-0.00457431
-1.83452e-11
-1.97848e-11
-0.00499353
-0.000159767
0.000159767
-0.000436673
0.000276907
-0.000745177
0.000308503
-0.00105849
0.000313311
-0.00137387
0.000315385
-0.00169318
0.000319304
-0.00201825
0.000325075
-0.0023507
0.00033245
-0.00269198
0.000341279
-0.00304341
0.000351434
-0.00340625
0.000362838
-0.00378168
0.000375428
-0.00417075
0.000389066
-0.00457431
0.000403561
0.000419225
-0.00499353
-0.000159072
0.000318839
-0.000435178
0.000553013
-0.000743017
0.000616342
-0.00105575
0.000626044