/*--------------------------------*- C++ -*----------------------------------*\
  =========                 |
  \\      /  F ield         | OpenFOAM: The Open Source CFD Toolbox
   \\    /   O peration     | Website:  https://openfoam.org
    \\  /    A nd           | Version:  7
     \\/     M anipulation  |
\*---------------------------------------------------------------------------*/
FoamFile
{
    version     2.0;
    format      ascii;
    class       volVectorField;
    location    "15";
    object      U;
}
// * * * * * * * * * * * * * * * * * * * * * * * * * * * * * * * * * * * * * //

dimensions      [0 1 -1 0 0 0 0];

internalField   nonuniform List<vector> 
14800
(
(-0.00289389 0.00182785 -1.92408e-20)
(-0.0146269 0.00373794 2.52616e-21)
(-0.0338208 0.00465648 1.09064e-20)
(-0.054005 0.00501574 -5.77776e-21)
(-0.0742631 0.0050566 -1.88407e-20)
(-0.0936715 0.00493929 1.77789e-20)
(-0.111926 0.00475498 7.37322e-22)
(-0.128978 0.00455089 2.0879e-21)
(-0.14488 0.00434848 -9.87322e-21)
(-0.159718 0.00415755 -1.2813e-21)
(-0.173593 0.00398817 7.42802e-21)
(-0.186637 0.00385863 6.36022e-21)
(-0.199056 0.00380699 2.38791e-20)
(-0.211111 0.00390044 -2.66769e-20)
(-0.223328 0.0041633 1.09278e-20)
(-0.00311689 0.00543928 4.03981e-20)
(-0.0149374 0.0111366 -2.49617e-20)
(-0.03395 0.013883 -8.87565e-21)
(-0.0538312 0.0149593 1.90639e-21)
(-0.0736921 0.0150824 1.76087e-20)
(-0.092625 0.0147302 3.49185e-20)
(-0.110325 0.0141752 -2.99737e-20)
(-0.126736 0.0135588 5.35413e-21)
(-0.141895 0.012945 2.61014e-20)
(-0.15587 0.0123621 2.78849e-20)
(-0.168736 0.0118384 -3.49294e-20)
(-0.18059 0.0114248 3.79914e-20)
(-0.191581 0.0112286 -5.537e-20)
(-0.20195 0.0114802 5.29569e-20)
(-0.211848 0.0121547 1.07529e-20)
(-0.00355435 0.00892013 6.46845e-20)
(-0.0155501 0.0183065 1.15578e-19)
(-0.0342088 0.0228524 6.26772e-21)
(-0.053493 0.0246405 -3.17206e-20)
(-0.0725684 0.0248472 -1.56138e-20)
(-0.0905599 0.0242593 -5.54714e-20)
(-0.107163 0.0233278 3.91081e-20)
(-0.122305 0.0222873 4.88119e-20)
(-0.135998 0.0212438 -5.53193e-20)
(-0.148276 0.0202409 -2.19573e-20)
(-0.15917 0.0193193 7.31681e-20)
(-0.168713 0.0185524 -2.54928e-20)
(-0.176929 0.0180881 2.39965e-20)
(-0.184119 0.0184229 2.7844e-20)
(-0.189472 0.0191647 4.40319e-20)
(-0.0041899 0.0121908 -5.49382e-20)
(-0.0164493 0.0251048 -1.91124e-19)
(-0.0345974 0.0314007 9.32202e-20)
(-0.0530077 0.0338899 -8.93515e-21)
(-0.0709267 0.0341807 3.49786e-20)
(-0.0875287 0.0333553 -1.03388e-19)
(-0.102513 0.0320381 3.56361e-21)
(-0.115785 0.030556 1.35675e-21)
(-0.127327 0.0290559 3.84192e-20)
(-0.137126 0.0275929 -4.47267e-20)
(-0.145158 0.0262115 -1.22952e-19)
(-0.151394 0.0249959 -4.37624e-20)
(-0.155609 0.0240584 -5.93246e-21)
(-0.158497 0.0243863 1.19902e-20)
(-0.157233 0.0246161 -4.97558e-20)
(-0.00500067 0.0151824 -1.21721e-19)
(-0.0176123 0.0314025 9.01127e-20)
(-0.0351155 0.0393753 5.41266e-21)
(-0.0523988 0.0425456 9.77748e-21)
(-0.0688142 0.042918 -7.60413e-20)
(-0.0836031 0.0418517 5.71592e-20)
(-0.0964732 0.0401374 -2.08298e-20)
(-0.10731 0.0381926 3.27835e-20)
(-0.116058 0.0362048 -1.88113e-20)
(-0.122656 0.0342378 1.142e-19)
(-0.127015 0.0323301 8.86407e-20)
(-0.129103 0.0305744 5.89676e-20)
(-0.128182 0.0288849 -9.23009e-20)
(-0.126128 0.0291375 2.47256e-20)
(-0.116368 0.0280855 -2.58211e-20)
(-0.00595913 0.0178398 2.26584e-22)
(-0.0190108 0.0370894 1.56416e-19)
(-0.0357613 0.0466382 -1.16762e-19)
(-0.0516926 0.0504564 9.70639e-20)
(-0.0662847 0.0509022 8.4551e-20)
(-0.0788641 0.0495886 -4.79129e-20)
(-0.0891548 0.0474639 3.31872e-20)
(-0.0970223 0.045034 -1.33605e-19)
(-0.102374 0.0425282 3.88012e-20)
(-0.105099 0.0400182 -8.71444e-20)
(-0.105028 0.0375265 4.52776e-20)
(-0.102285 0.0351832 -1.0552e-19)
(-0.0950741 0.0324336 -2.50208e-20)
(-0.0878782 0.0325339 -5.15707e-20)
(-0.0679835 0.029571 6.12075e-20)
(-0.00703536 0.0201243 -1.37468e-20)
(-0.0206124 0.0420771 -1.60562e-19)
(-0.0365298 0.0530702 1.47732e-20)
(-0.0509134 0.0574849 2.05357e-21)
(-0.0633908 0.0579863 2.39294e-20)
(-0.0733907 0.0564148 2.11846e-19)
(-0.0806613 0.053865 -1.67396e-20)
(-0.0850499 0.0509284 1.09149e-19)
(-0.0864269 0.0478782 1.35797e-20)
(-0.0846337 0.0447981 7.664e-21)
(-0.0793571 0.0416832 -3.37475e-20)
(-0.0712087 0.0387614 8.00099e-20)
(-0.0564439 0.0348051 1.96174e-19)
(-0.0439348 0.0344184 -2.19307e-19)
(-0.0127038 0.0299143 -7.81563e-20)
(-0.00819936 0.0220143 9.10485e-20)
(-0.0223822 0.0463019 1.58417e-19)
(-0.0374111 0.0585733 -4.26906e-20)
(-0.0500783 0.0635104 -7.38013e-20)
(-0.0601742 0.0640364 -7.33975e-20)
(-0.0672437 0.0621901 9.62679e-21)
(-0.071067 0.0591991 6.74838e-20)
(-0.0714727 0.0557371 -2.12101e-19)
(-0.0682875 0.0521229 -3.40027e-21)
(-0.0613186 0.0484615 -6.32974e-20)
(-0.0499644 0.0447236 -1.53829e-19)
(-0.0357611 0.0411973 1.56394e-19)
(-0.0121528 0.0363964 -2.13577e-19)
(0.00649007 0.0349309 1.13257e-19)
(0.0503084 0.0291569 8.10511e-20)
(-0.00942339 0.023506 -4.97732e-20)
(-0.0242836 0.0497256 5.87916e-20)
(-0.0383878 0.0630733 -1.05773e-19)
(-0.0491897 0.0684316 9.0038e-20)
(-0.0566526 0.0689344 1.21993e-19)
(-0.0604474 0.0667888 1.44973e-19)
(-0.060389 0.0633397 -5.85633e-20)
(-0.0562819 0.0593383 -4.53431e-20)
(-0.0478909 0.0551508 2.09002e-19)
(-0.0350064 0.0509107 1.50138e-19)
(-0.0165832 0.0466433 1.40343e-19)
(0.00469241 0.0424403 -2.06531e-19)
(0.0388282 0.0371631 5.9643e-20)
(0.0638133 0.0348287 5.82771e-20)
(0.124649 0.027432 -1.77566e-21)
(-0.0106839 0.0246115 -2.17687e-19)
(-0.0262792 0.052335 -2.83635e-19)
(-0.0394312 0.0665205 1.06303e-19)
(-0.0482265 0.0721694 1.4357e-19)
(-0.0528051 0.0725824 -2.96482e-19)
(-0.0529654 0.0701042 -1.3277e-20)
(-0.0485523 0.0661812 -1.16439e-19)
(-0.0393324 0.0616359 2.76998e-19)
(-0.024975 0.056885 -1.22731e-19)
(-0.00523865 0.0520903 -1.49466e-20)
(0.0214846 0.0474153 9.45409e-20)
(0.0509099 0.0425618 2.35575e-19)
(0.0985896 0.0370957 1.037e-19)
(0.129281 0.0344494 -8.31539e-20)
(0.213464 0.0262245 -1.61959e-20)
(-0.0119628 0.0253572 1.51177e-19)
(-0.0283306 0.0541403 2.03044e-19)
(-0.0404971 0.0688909 -1.39282e-19)
(-0.0471342 0.07467 -4.75143e-19)
(-0.048554 0.0749069 -5.21867e-20)
(-0.0446734 0.072056 1.96944e-21)
(-0.0353498 0.0676484 1.56897e-19)
(-0.0202836 0.0625715 -3.48491e-19)
(0.000997155 0.0572979 -1.56896e-20)
(0.0287702 0.0520089 -1.82889e-19)
(0.0654887 0.0471129 -2.40983e-19)
(0.10433 0.0416203 -1.55403e-19)
(0.169281 0.0369017 1.46776e-20)
(0.205068 0.0333881 -5.15646e-20)
(0.319661 0.0269585 -1.60067e-19)
(-0.0132483 0.0257799 8.34015e-20)
(-0.030397 0.0551718 1.46481e-19)
(-0.0415198 0.0701855 -6.72891e-20)
(-0.0458124 0.0759067 -6.09984e-20)
(-0.0437442 0.075865 3.87134e-19)
(-0.0353268 0.0725982 -3.99421e-19)
(-0.0203961 0.0677083 2.06734e-20)
(0.00145811 0.0621436 9.16451e-20)
(0.0309143 0.0564418 6.7639e-20)
(0.0682694 0.050781 4.67935e-20)
(0.117084 0.0460688 8.15583e-20)
(0.167164 0.0397269 -6.1276e-20)
(0.252929 0.0374536 1.86849e-19)
(0.293882 0.0317978 1.50827e-19)
(0.44424 0.0302032 1.00578e-19)
(-0.0145341 0.0259237 3.58091e-20)
(-0.0324324 0.0554755 -2.9677e-19)
(-0.042405 0.0704283 4.3273e-19)
(-0.0441014 0.075883 5.36279e-19)
(-0.0381212 0.0754502 -1.80335e-19)
(-0.0245275 0.0717304 6.40869e-20)
(-0.00308093 0.0663875 -1.67041e-19)
(0.0267975 0.0604329 -2.84198e-20)
(0.0660583 0.0544876 -3.1498e-19)
(0.115003 0.0486723 6.75169e-20)
(0.178255 0.0447744 2.63069e-19)
(0.242199 0.0374928 -3.50295e-20)
(0.350577 0.0393962 8.69685e-20)
(0.398618 0.030907 -3.5572e-20)
(0.58438 0.0360837 1.04741e-20)
(-0.0158181 0.0258347 -1.76326e-19)
(-0.0343818 0.0551071 -1.98669e-19)
(-0.0430221 0.069665 -4.74071e-19)
(-0.0417689 0.0746357 -3.39433e-19)
(-0.0313074 0.0736995 -2.67735e-19)
(-0.011691 0.0695106 3.0344e-19)
(0.0174692 0.063793 6.00354e-20)
(0.0569844 0.0576297 1.31184e-19)
(0.1081 0.0517568 6.98738e-20)
(0.171103 0.0461765 -1.9659e-19)
(0.251031 0.0437993 -1.0236e-19)
(0.332166 0.0362564 2.90433e-20)
(0.461486 0.0429248 -3.68907e-19)
(0.520814 0.0327854 8.37436e-20)
(0.7325 0.0447356 -2.16365e-19)
(-0.0171003 0.025557 9.0356e-20)
(-0.0361747 0.0541265 6.93012e-19)
(-0.0431968 0.0679637 3.51297e-19)
(-0.038495 0.0722337 1.63938e-19)
(-0.0227836 0.0706994 4.17016e-19)
(0.0039778 0.0660691 -3.64241e-19)
(0.0424098 0.0601332 -1.51162e-19)
(0.093598 0.0540647 -1.45774e-19)
(0.158997 0.048748 6.98449e-19)
(0.238785 0.0440721 2.26006e-19)
(0.337029 0.0437518 -1.75035e-19)
(0.438335 0.0377894 9.4666e-20)
(0.582938 0.048091 -1.26011e-19)
(0.658061 0.0391279 1.32775e-19)
(0.877404 0.0561136 6.28919e-20)
(-0.0183799 0.0251289 -8.64681e-21)
(-0.0377213 0.0525972 -3.69796e-19)
(-0.0426998 0.0654052 -3.36605e-19)
(-0.0338624 0.0687771 -1.16954e-19)
(-0.0118744 0.0665938 -2.05499e-19)
(0.0234927 0.0616216 2.11794e-19)
(0.0731584 0.0557388 1.02877e-19)
(0.138451 0.0502343 -1.55375e-19)
(0.220749 0.0461443 2.70337e-21)
(0.319768 0.0433755 -1.19023e-19)
(0.436855 0.0453973 2.69892e-20)
(0.558831 0.0434098 3.69527e-20)
(0.710413 0.055267 3.20579e-20)
(0.802149 0.0502076 8.24998e-20)
(1.00729 0.0693205 -2.25964e-19)
(-0.0196504 0.0245806 -1.81089e-19)
(-0.0389084 0.050579 1.49105e-19)
(-0.0412394 0.0620762 1.40675e-19)
(-0.0273487 0.0644027 1.76771e-20)
(0.00225238 0.0615885 1.42371e-19)
(0.0480665 0.0564804 -1.91655e-19)
(0.111319 0.0510775 1.98912e-19)
(0.193385 0.0468099 3.166e-20)
(0.294984 0.0447984 -2.25014e-19)
(0.41453 0.0451317 6.49279e-21)
(0.549256 0.04975 -2.25343e-19)
(0.687936 0.0532917 2.04834e-19)
(0.83764 0.0648787 2.78469e-20)
(0.940342 0.0648259 4.75951e-20)
(1.1131 0.0825446 2.27633e-19)
(-0.0208955 0.0239293 5.07291e-19)
(-0.0395899 0.0481177 -2.00124e-19)
(-0.0384632 0.058076 -1.06322e-19)
(-0.0183267 0.0592813 -1.31303e-19)
(0.0205701 0.0559536 -3.56063e-19)
(0.0790546 0.0510605 -1.17578e-19)
(0.158529 0.0467571 2.32241e-19)
(0.259933 0.0446144 -1.5531e-19)
(0.382372 0.04567 -6.00015e-19)
(0.521606 0.0501391 2.19992e-19)
(0.670256 0.057714 5.01152e-20)
(0.817135 0.0665844 -1.356e-19)
(0.956899 0.0766945 7.91706e-20)
(1.05991 0.0810111 -7.5969e-20)
(1.19077 0.0938425 9.38929e-20)
(-0.0220813 0.0231741 -8.18497e-20)
(-0.0395824 0.045249 2.62924e-19)
(-0.0339558 0.0535147 2.94803e-19)
(-0.00607663 0.0536161 2.27304e-19)
(0.044156 0.0500248 3.5082e-19)
(0.117853 0.0458789 3.11177e-19)
(0.216224 0.0435076 -3.51953e-19)
(0.338882 0.0445467 4.88645e-19)
(0.481983 0.0496626 3.84024e-19)
(0.63723 0.0587639 -3.57383e-19)
(0.793112 0.0694347 2.72941e-19)
(0.937361 0.0818726 -7.21315e-20)
(1.06062 0.089731 -1.3272e-19)
(1.15282 0.0968731 -1.84719e-19)
(1.24139 0.101921 -9.63741e-20)
(-0.0231491 0.0222989 -2.2685e-19)
(-0.0386654 0.0420052 4.52011e-19)
(-0.027242 0.0485073 -2.44326e-20)
(0.0101938 0.0476413 4.7073e-20)
(0.0741303 0.0442016 -6.38522e-20)
(0.165745 0.0415446 -4.85215e-21)
(0.285323 0.0421375 2.99913e-19)
(0.429777 0.0474478 -2.28558e-19)
(0.590842 0.0573531 2.31555e-19)
(0.755538 0.0708339 2.88531e-19)
(0.909718 0.0840388 -1.86238e-19)
(1.04132 0.0975598 1.4872e-19)
(1.14379 0.102881 -5.71042e-20)
(1.21747 0.11093 1.39808e-19)
(1.26954 0.106109 6.66553e-20)
(-0.0240249 0.0212906 -3.18643e-19)
(-0.0365698 0.0384074 3.48364e-20)
(-0.0177959 0.0431734 1.20832e-19)
(0.0313182 0.0416235 -1.95384e-19)
(0.111571 0.038946 -2.23774e-19)
(0.223705 0.0387387 1.37413e-19)
(0.365855 0.0434474 -2.56218e-19)
(0.530525 0.0539168 2.02182e-19)
(0.704014 0.0687412 -8.30078e-20)
(0.869547 0.085587 -3.16856e-19)
(1.01288 0.0999892 -1.82905e-19)
(1.12503 0.112328 2.69206e-19)
(1.20523 0.115366 -1.14323e-19)
(1.25743 0.121683 -7.23987e-20)
(1.28183 0.106516 -1.24983e-19)
(-0.0246258 0.0201298 6.26356e-19)
(-0.0329866 0.0344651 -7.71655e-19)
(-0.00504995 0.0376471 -1.76752e-19)
(0.058131 0.0358663 -1.04534e-19)
(0.157404 0.0347782 6.50596e-20)
(0.292152 0.0381715 -2.59179e-19)
(0.456623 0.0480956 1.50639e-19)
(0.637328 0.0641156 7.49808e-20)
(0.815391 0.0831833 -4.99823e-19)
(0.972777 0.101809 4.09407e-19)
(1.09819 0.115729 1.07458e-19)
(1.18803 0.125503 -2.90419e-19)
(1.24679 0.126402 1.707e-19)
(1.27881 0.128131 1.10783e-19)
(1.29614 0.115526 2.34796e-20)
(-0.0248437 0.0187861 -4.21829e-19)
(-0.0275806 0.0301983 7.01645e-19)
(0.0115838 0.0320847 6.85454e-20)
(0.0914155 0.0307166 -2.52844e-19)
(0.212268 0.0322694 3.12674e-19)
(0.370693 0.040509 -1.89615e-19)
(0.555032 0.0564308 2.03975e-20)
(0.745135 0.0776586 -2.43601e-19)
(0.919007 0.099571 4.39817e-19)
(1.06077 0.118191 -1.96587e-19)
(1.1645 0.130206 5.37453e-20)
(1.23241 0.13691 -8.49235e-20)
(1.27212 0.135129 -8.66438e-21)
(1.29125 0.134621 1.26454e-20)
(1.29967 0.121173 2.71455e-20)
(-0.0245484 0.017231 9.04595e-20)
(-0.0199916 0.0256446 -4.15057e-19)
(0.0326918 0.0266748 -3.63846e-19)
(0.131841 0.0265733 9.6997e-20)
(0.276352 0.0320181 -2.53397e-19)
(0.457911 0.0462572 -2.34365e-19)
(0.657244 0.068357 7.41984e-20)
(0.848591 0.0936851 3.48695e-19)
(1.01032 0.116667 1.16151e-19)
(1.13173 0.133714 -2.28098e-19)
(1.21318 0.142982 -6.31498e-20)
(1.26149 0.146429 3.28692e-20)
(1.28655 0.142554 1.84955e-19)
(1.29585 0.139785 -4.08648e-20)
(1.29838 0.126303 -5.06532e-20)
(-0.0235944 0.0154468 -4.96389e-20)
(-0.00983932 0.020868 5.44275e-19)
(0.0588353 0.0216492 2.56432e-19)
(0.179881 0.0238927 9.1031e-20)
(0.349221 0.0345971 1.79302e-19)
(0.551313 0.0556284 3.47998e-19)
(0.758754 0.0833207 1.63185e-19)
(0.943131 0.111107 -3.6176e-19)
(1.08688 0.133431 -2.28545e-19)
(1.18616 0.147819 3.94177e-19)
(1.24694 0.153983 -3.8975e-20)
(1.27918 0.154462 -2.6593e-20)
(1.2932 0.148804 -2.36037e-19)
(1.29602 0.144445 -3.04035e-20)
(1.29548 0.130957 2.23455e-19)
(-0.0218235 0.0134311 -8.52843e-20)
(0.00326414 0.0159685 -6.86515e-19)
(0.0905183 0.0172964 -5.18428e-20)
(0.235721 0.0231845 -1.46038e-19)
(0.429678 0.0404607 -3.9639e-19)
(0.647543 0.0684533 1.32895e-19)
(0.855214 0.100456 -3.26369e-19)
(1.02572 0.128897 1.48675e-19)
(1.14829 0.149187 -1.30167e-20)
(1.22596 0.160332 -2.25316e-19)
(1.26895 0.163433 1.46765e-19)
(1.28865 0.161331 -7.6776e-20)
(1.29489 0.154352 9.68374e-20)
(1.29361 0.14871 1.66384e-19)
(1.29063 0.135243 -3.21718e-20)
(-0.0190683 0.0112003 -1.44807e-22)
(0.0197012 0.0110929 1.14067e-19)
(0.128144 0.0139725 1.09216e-19)
(0.299134 0.024979 -1.02621e-20)
(0.515731 0.049833 5.62015e-20)
(0.742876 0.0842054 -4.20255e-19)
(0.943178 0.118816 9.94921e-20)
(1.09503 0.146284 -6.48528e-20)
(1.19557 0.163616 5.10317e-20)
(1.25368 0.171346 1.27943e-19)
(1.28215 0.171637 -1.56164e-19)
(1.29253 0.167409 3.98203e-20)
(1.29345 0.159451 3.50796e-20)
(1.28952 0.152761 -4.53382e-20)
(1.28538 0.139465 3.07674e-20)
(-0.0151564 0.00879317 1.97146e-19)
(0.0398319 0.00644135 3.49214e-19)
(0.171959 0.0121031 5.33481e-20)
(0.369383 0.0297606 -1.29161e-19)
(0.604748 0.0626332 3.79749e-19)
(0.833832 0.102143 2.54826e-19)
(1.02048 0.137578 -9.27447e-20)
(1.15112 0.162795 3.24305e-21)
(1.23055 0.176669 -8.92619e-20)
(1.27188 0.181087 2.54173e-20)
(1.289 0.178924 2.1205e-20)
(1.29268 0.172983 -9.12984e-20)
(1.29007 0.164306 -1.91339e-19)
(1.28458 0.156734 1.20983e-19)
(1.27955 0.143638 -1.84491e-19)
(-0.00991646 0.00627274 -2.14883e-19)
(0.0639736 0.00227242 -1.13588e-19)
(0.221991 0.0121715 -3.04063e-19)
(0.445168 0.0378738 4.83195e-19)
(0.693798 0.078491 -4.22565e-19)
(0.917664 0.121489 1.7374e-19)
(1.08622 0.156137 1.08816e-19)
(1.19503 0.178218 1.21183e-19)
(1.25533 0.188461 7.64803e-20)
(1.28286 0.189833 -1.58737e-20)
(1.2914 0.185586 -7.71166e-20)
(1.2904 0.178278 -1.83524e-19)
(1.28551 0.169054 9.65325e-20)
(1.27904 0.160692 9.30453e-20)
(1.27354 0.147836 2.00302e-19)
(-0.00318425 0.0037266 -1.91208e-19)
(0.0923751 -0.00109681 9.36129e-20)
(0.27797 0.0146834 9.71137e-20)
(0.524682 0.0494428 -2.10895e-19)
(0.780068 0.0968495 8.25248e-20)
(0.992582 0.141568 -7.34704e-20)
(1.14048 0.174114 -1.1374e-19)
(1.22824 0.192525 -1.30366e-19)
(1.27195 0.199192 4.92805e-20)
(1.28851 0.197852 1.51534e-19)
(1.29074 0.19186 2.21351e-19)
(1.28655 0.183452 8.5246e-20)
(1.28018 0.173774 -5.89784e-20)
(1.27315 0.164685 -6.36586e-20)
(1.2673 0.152073 -5.29642e-20)
(0.0052023 0.00126147 1.84422e-19)
(0.125188 -0.0032942 -9.26643e-20)
(0.339279 0.0201068 5.34379e-20)
(0.605791 0.0643493 3.05194e-19)
(0.861214 0.117097 2.93967e-19)
(1.05771 0.161864 -2.75456e-19)
(1.18403 0.191319 1.36124e-19)
(1.25243 0.205802 1.59765e-19)
(1.28223 0.209091 -2.75307e-19)
(1.29029 0.205383 5.77641e-20)
(1.288 0.197925 -1.28226e-19)
(1.28166 0.188608 2.01005e-20)
(1.27436 0.178512 -6.69174e-20)
(1.26698 0.168733 1.21419e-19)
(1.26088 0.15635 -1.32702e-19)
(0.0153812 -0.000985514 -1.66356e-19)
(0.162433 -0.00389625 1.13826e-19)
(0.404937 0.0288006 1.54062e-19)
(0.686282 0.0822788 -4.01404e-20)
(0.935537 0.138668 -3.70184e-19)
(1.11293 0.182023 -1.32815e-19)
(1.21797 0.207695 -2.1033e-19)
(1.26921 0.218199 9.16428e-20)
(1.28766 0.218378 -1.28986e-20)
(1.2893 0.212618 -1.48284e-19)
(1.28381 0.203907 -1.39285e-19)
(1.27606 0.193806 2.55662e-20)
(1.26815 0.183288 5.33094e-20)
(1.26058 0.172844 -1.12419e-19)
(1.25429 0.160665 5.71251e-20)
(0.0274559 -0.0028554 7.10848e-20)
(0.203959 -0.00245787 1.54898e-21)
(0.473648 0.0409568 -4.62779e-19)
(0.76412 0.102807 -3.36801e-20)
(1.002 0.161092 2.64779e-19)
(1.15862 0.201826 2.70719e-19)
(1.24357 0.223274 1.87406e-19)
(1.28002 0.229888 -3.51021e-20)
(1.28943 0.227249 5.8721e-20)
(1.28631 0.219701 -2.53354e-21)
(1.27861 0.20989 1.10658e-19)
(1.26992 0.199076 4.37443e-20)
(1.26162 0.188107 9.68443e-20)
(1.25394 0.177018 -7.49573e-20)
(1.24749 0.165 -5.79644e-20)
(0.0415054 -0.00417026 -1.24103e-20)
(0.249426 0.00146138 1.30035e-19)
(0.543904 0.0565826 2.42636e-19)
(0.837614 0.125478 8.21821e-20)
(1.06013 0.184004 -2.37943e-19)
(1.19548 0.221158 -3.01818e-19)
(1.26208 0.238141 1.24937e-19)
(1.28609 0.24104 -7.70936e-20)
(1.28845 0.235862 2.22333e-19)
(1.28186 0.226733 6.57545e-21)
(1.27264 0.215919 -5.78558e-20)
(1.26334 0.204426 -2.29399e-20)
(1.25479 0.192962 1.11677e-19)
(1.24706 0.181247 1.00463e-19)
(1.24047 0.16934 1.09082e-19)
(0.0575639 -0.00473078 1.85796e-19)
(0.298288 0.00825668 -2.00968e-19)
(0.614124 0.0755233 1.27134e-19)
(0.9055 0.149864 1.80633e-19)
(1.10988 0.207132 1.57962e-19)
(1.22439 0.239973 6.42839e-20)
(1.27464 0.252404 3.50377e-20)
(1.28842 0.251806 -1.40664e-20)
(1.28537 0.244336 -1.02239e-19)
(1.2763 0.233778 3.94449e-20)
(1.26605 0.222018 9.66326e-20)
(1.25636 0.20985 4.00839e-20)
(1.24766 0.197842 -3.89578e-20)
(1.23992 0.185519 -4.16063e-20)
(1.23322 0.173662 -5.21481e-20)
(0.0756107 -0.00432167 -1.00024e-19)
(0.349808 0.0182362 7.2479e-20)
(0.682786 0.0975089 -8.25215e-21)
(0.96693 0.175581 -1.89859e-19)
(1.15154 0.230279 -5.04934e-20)
(1.24626 0.258274 1.14037e-19)
(1.28228 0.266175 -1.03725e-19)
(1.28778 0.262312 7.33329e-21)
(1.28067 0.252755 -6.52971e-21)
(1.26985 0.24087 -3.60203e-20)
(1.25892 0.228187 -6.08158e-20)
(1.24898 0.215329 -8.90891e-20)
(1.24021 0.20273 -3.60405e-20)
(1.23251 0.189819 6.25505e-20)
(1.22571 0.177942 1.57232e-20)
(0.0955621 -0.00272045 -1.28218e-19)
(0.403095 0.0315902 -1.64771e-20)
(0.748534 0.122201 -8.28712e-20)
(1.02142 0.202295 7.8487e-20)
(1.18555 0.253301 -9.33852e-20)
(1.26197 0.276087 -4.13489e-20)
(1.28584 0.279557 1.09982e-20)
(1.28478 0.272653 -1.66258e-20)
(1.27466 0.261167 3.445e-20)
(1.26264 0.248017 5.65061e-22)
(1.25128 0.234412 2.56371e-20)
(1.24122 0.220839 4.497e-20)
(1.23244 0.207605 5.3509e-20)
(1.2248 0.194125 -2.42968e-20)
(1.21793 0.182155 -1.89298e-20)
(0.117264 0.000290233 7.69412e-20)
(0.457156 0.0483781 8.189e-20)
(0.810236 0.149231 2.88581e-20)
(1.06877 0.229716 -4.59476e-20)
(1.21247 0.276097 1.03411e-20)
(1.27232 0.293448 7.25658e-20)
(1.286 0.292634 -5.04618e-20)
(1.27984 0.282891 -4.4872e-20)
(1.26756 0.269595 -1.41957e-20)
(1.25475 0.25521 9.79346e-21)
(1.24314 0.240669 -5.45306e-20)
(1.23305 0.22635 1.21537e-20)
(1.22432 0.212446 3.28535e-20)
(1.21679 0.198415 -1.3003e-20)
(1.20988 0.186272 -1.13838e-20)
(0.140488 0.00490776 -5.05728e-20)
(0.510957 0.0685326 -3.48349e-20)
(0.867011 0.178222 -6.82388e-20)
(1.109 0.25759 -1.1167e-20)
(1.2329 0.298587 -7.37786e-21)
(1.27804 0.310394 -7.8869e-20)
(1.28334 0.305468 2.53544e-20)
(1.27328 0.29306 1.55602e-20)
(1.25949 0.278035 -2.68165e-20)
(1.2462 0.262423 -1.66027e-20)
(1.2345 0.246925 -7.41349e-22)
(1.22446 0.231828 -1.67855e-20)
(1.21585 0.217228 -2.67928e-20)
(1.20846 0.202659 -2.4709e-20)
(1.20157 0.190264 1.79804e-20)
(0.164936 0.0112944 -2.32367e-20)
(0.563478 0.0918754 8.5401e-21)
(0.918219 0.2088 1.16183e-20)
(1.14227 0.285685 1.21399e-20)
(1.24745 0.320706 2.09703e-20)
(1.27975 0.326951 1.50302e-20)
(1.27827 0.318096 -4.27609e-21)
(1.26533 0.303166 1.5183e-20)
(1.25055 0.286466 -7.87176e-22)
(1.23702 0.269622 -3.6691e-23)
(1.22534 0.25314 6.69606e-21)
(1.21543 0.237236 -3.15176e-21)
(1.20701 0.221919 2.29802e-21)
(1.19982 0.206814 9.6397e-21)
(1.19303 0.194094 -8.19149e-21)
(0.190251 0.0195649 -1.47757e-20)
(0.613763 0.118138 -3.84083e-21)
(0.963434 0.240604 1.71536e-20)
(1.16885 0.31379 7.57254e-21)
(1.25667 0.342395 2.13388e-20)
(1.27796 0.34313 1.45889e-20)
(1.27112 0.330527 -5.16661e-22)
(1.25613 0.313195 1.79176e-20)
(1.24077 0.29485 -9.08114e-21)
(1.22719 0.27676 9.63886e-22)
(1.21566 0.259271 6.1901e-21)
(1.20595 0.242533 -2.97614e-21)
(1.19778 0.22648 2.87127e-21)
(1.19086 0.210829 1.08289e-20)
(1.18426 0.197728 -4.09534e-21)
(0.216024 0.029778 -2.13107e-20)
(0.660955 0.146979 -6.06402e-20)
(1.00241 0.27328 -6.84947e-20)
(1.18908 0.341708 -2.53864e-21)
(1.26108 0.363592 -1.02282e-20)
(1.27311 0.358927 -7.21984e-20)
(1.26215 0.342751 3.62363e-20)
(1.24578 0.32311 4.09228e-21)
(1.23017 0.303139 -2.38381e-20)
(1.21672 0.283789 -2.15377e-20)
(1.20543 0.265271 3.22348e-21)
(1.19601 0.247679 -1.30887e-20)
(1.18816 0.230871 -1.45063e-20)
(1.18157 0.21465 -2.06811e-20)
(1.17525 0.201139 1.32269e-20)
(0.241815 0.041934 8.01794e-20)
(0.704316 0.178008 5.87125e-20)
(1.03507 0.306488 2.47414e-20)
(1.20332 0.369251 -3.5531e-20)
(1.26115 0.384231 1.66165e-20)
(1.26553 0.374316 3.81875e-20)
(1.25152 0.354733 -3.04915e-20)
(1.23435 0.33286 -5.99642e-20)
(1.21876 0.311274 -5.44203e-21)
(1.2056 0.290651 3.55311e-20)
(1.19465 0.271092 -4.33002e-20)
(1.1856 0.252633 1.87637e-20)
(1.17812 0.235053 8.86518e-21)
(1.17192 0.218238 1.05009e-21)
(1.16589 0.204307 6.99575e-22)
(0.267166 0.055976 -9.73141e-20)
(0.743245 0.210794 -6.14317e-20)
(1.06141 0.339893 -9.70364e-20)
(1.21195 0.396241 8.58449e-20)
(1.2573 0.404238 -9.13337e-20)
(1.25552 0.389255 -2.2112e-20)
(1.23938 0.366421 -1.91459e-21)
(1.22187 0.34238 1.09563e-21)
(1.20656 0.319189 4.54149e-20)
(1.19381 0.297288 -5.03063e-20)
(1.18332 0.276683 4.06585e-20)
(1.1747 0.25735 1.69906e-20)
(1.16769 0.238996 4.34116e-20)
(1.16192 0.221593 -2.0956e-21)
(1.15606 0.207216 -1.37977e-20)
(0.291619 0.0717944 1.38667e-20)
(0.77728 0.244883 1.79302e-20)
(1.08154 0.373165 -3.36216e-20)
(1.21535 0.422508 -1.30544e-19)
(1.2499 0.423529 -3.27568e-20)
(1.2433 0.403685 8.691e-20)
(1.22583 0.377746 -6.81314e-20)
(1.20839 0.351597 -3.38973e-20)
(1.19356 0.326813 1.04475e-20)
(1.18137 0.303639 -1.15704e-20)
(1.17141 0.28199 -6.28045e-20)
(1.16333 0.261782 -3.21336e-20)
(1.15687 0.242665 -2.75281e-21)
(1.15157 0.224764 9.49375e-21)
(1.14574 0.209859 7.4962e-21)
(0.31473 0.0892309 1.87075e-19)
(0.8061 0.279814 -2.34967e-19)
(1.09563 0.405986 1.59384e-19)
(1.21388 0.44788 8.16188e-20)
(1.23927 0.442013 2.35007e-19)
(1.22907 0.417528 6.76859e-21)
(1.21094 0.388629 5.93804e-20)
(1.19391 0.360429 1.69006e-20)
(1.17976 0.334072 -1.07564e-19)
(1.16826 0.309637 3.88984e-20)
(1.15896 0.28696 2.95808e-20)
(1.15149 0.265876 4.44421e-20)
(1.14568 0.246014 -4.40033e-20)
(1.14085 0.22776 -1.2216e-20)
(1.13524 0.212247 -1.61984e-21)
(0.336087 0.108082 -2.49077e-20)
(0.829506 0.315131 2.74347e-19)
(1.1039 0.438045 2.0897e-19)
(1.20792 0.47219 3.57834e-20)
(1.22569 0.459587 -2.2104e-19)
(1.21297 0.430697 -1.34315e-19)
(1.19478 0.398979 4.34384e-20)
(1.17846 0.368789 -2.6164e-20)
(1.16517 0.340887 5.93977e-20)
(1.1545 0.315213 1.37812e-20)
(1.14598 0.291537 1.34804e-20)
(1.13922 0.269588 -2.4029e-20)
(1.13411 0.249019 1.13402e-20)
(1.12973 0.230441 4.61118e-20)
(1.12466 0.214342 4.84487e-20)
(0.355316 0.128106 2.11231e-19)
(0.847403 0.350386 -2.26912e-19)
(1.10659 0.469039 -3.48293e-19)
(1.19778 0.495267 2.66475e-20)
(1.20942 0.476142 1.79542e-19)
(1.19513 0.443094 1.71567e-19)
(1.17739 0.408696 8.72545e-20)
(1.16208 0.376585 6.15517e-21)
(1.14984 0.34718 1.46761e-20)
(1.14013 0.320301 3.52259e-21)
(1.13248 0.295651 4.07261e-20)
(1.12653 0.272883 8.70489e-21)
(1.12214 0.251663 2.16156e-21)
(1.11829 0.232767 -1.33027e-20)
(1.11389 0.216077 -1.7063e-20)
(0.372096 0.14903 -2.728e-19)
(0.859783 0.385144 2.09456e-19)
(1.10399 0.49868 1.82544e-19)
(1.18381 0.516941 -1.24037e-19)
(1.19068 0.491565 -2.56562e-19)
(1.17566 0.454613 -5.18185e-20)
(1.15883 0.417667 -1.22494e-19)
(1.14484 0.383721 4.81918e-20)
(1.1338 0.35287 -9.34028e-21)
(1.12517 0.324841 -3.87583e-20)
(1.11846 0.299257 -1.62893e-20)
(1.11341 0.275707 -3.27738e-21)
(1.10981 0.253895 -1.59654e-20)
(1.10658 0.234689 -6.91763e-21)
(1.10294 0.217426 -3.92336e-21)
(0.386164 0.170555 3.90437e-19)
(0.866718 0.418988 -2.49919e-19)
(1.0964 0.526691 1.33748e-19)
(1.16629 0.537046 1.26038e-19)
(1.16964 0.505728 2.1788e-19)
(1.15469 0.465141 -1.35178e-19)
(1.13924 0.425791 5.00824e-20)
(1.12674 0.390094 5.12541e-20)
(1.11704 0.357893 -4.36666e-20)
(1.10961 0.328763 -1.05407e-20)
(1.10399 0.302296 4.2271e-22)
(1.09991 0.27802 -8.83147e-21)
(1.09715 0.255674 -2.36036e-20)
(1.09459 0.236173 1.30653e-20)
(1.09181 0.218365 -2.05046e-20)
(0.397315 0.192367 -2.16142e-19)
(0.868347 0.45152 1.34273e-20)
(1.08416 0.552812 8.86407e-20)
(1.14553 0.555427 -1.89196e-19)
(1.14649 0.518493 7.58708e-20)
(1.13241 0.474553 1.4056e-20)
(1.11865 0.432967 -6.31983e-20)
(1.10779 0.395631 -2.59021e-20)
(1.09961 0.36215 1.06992e-20)
(1.09352 0.332002 3.34001e-20)
(1.08907 0.304716 3.25263e-20)
(1.08604 0.279777 1.52772e-20)
(1.08418 0.256956 8.09733e-22)
(1.08238 0.237184 -1.57253e-20)
(1.08052 0.218882 4.14193e-21)
(0.405407 0.214139 4.13222e-20)
(0.864864 0.482361 -2.25289e-19)
(1.06759 0.5768 -2.9172e-19)
(1.12182 0.571937 2.2442e-19)
(1.12152 0.529737 -1.25768e-19)
(1.10886 0.482712 6.83754e-20)
(1.09705 0.439098 4.48475e-20)
(1.08808 0.400235 2.35346e-20)
(1.08157 0.365573 2.43946e-20)
(1.07693 0.334491 -2.99757e-22)
(1.07376 0.306464 -1.73052e-20)
(1.07185 0.280936 -1.74843e-20)
(1.07094 0.257706 -8.28008e-22)
(1.06994 0.23769 3.19313e-21)
(1.06909 0.218966 2.15621e-22)
(0.41036 0.235543 1.65643e-19)
(0.856526 0.511158 4.24086e-19)
(1.04705 0.59842 -7.5067e-20)
(1.09545 0.586395 -1.40945e-19)
(1.0949 0.539362 2.27979e-19)
(1.0841 0.489503 7.17025e-20)
(1.07456 0.444063 3.30573e-21)
(1.06766 0.403819 -2.13184e-20)
(1.06296 0.368086 4.76828e-21)
(1.0599 0.336171 -1.67307e-20)
(1.05809 0.307489 3.62714e-21)
(1.05738 0.281456 6.56307e-22)
(1.05747 0.257885 2.23043e-21)
(1.05733 0.237658 9.56323e-22)
(1.05757 0.218601 8.24469e-21)
(0.412166 0.256256 -7.346e-20)
(0.843667 0.537611 1.6393e-19)
(1.02281 0.617428 1.41145e-19)
(1.06668 0.598647 -6.51439e-20)
(1.06675 0.54722 -3.54947e-20)
(1.0583 0.49484 -5.86948e-20)
(1.05127 0.447768 4.03777e-21)
(1.04662 0.406299 -1.82767e-20)
(1.04386 0.369624 5.75884e-22)
(1.04247 0.336984 3.11225e-22)
(1.04213 0.307743 5.68496e-21)
(1.04269 0.281297 -4.48718e-21)
(1.04381 0.257459 -1.28639e-20)
(1.04458 0.237049 2.27956e-20)
(1.04599 0.217765 -1.55404e-20)
(0.410897 0.275949 -1.47269e-19)
(0.826681 0.56151 -5.43695e-19)
(0.995078 0.633562 1.85766e-20)
(1.0358 0.608527 -8.08885e-20)
(1.03728 0.553193 -1.48873e-19)
(1.03157 0.498612 4.60262e-20)
(1.02728 0.450121 -3.3571e-20)
(1.02503 0.407598 2.36011e-21)
(1.02433 0.370121 -2.25886e-22)
(1.02473 0.336875 8.2757e-21)
(1.02594 0.307182 -5.14824e-21)
(1.02781 0.280425 -5.79673e-21)
(1.03 0.256393 -3.6927e-21)
(1.03172 0.235824 -6.81409e-21)
(1.03434 0.216438 7.41355e-21)
(0.406692 0.294272 1.28273e-20)
(0.805859 0.582664 2.87475e-19)
(0.964206 0.646699 1.25183e-19)
(1.00313 0.615826 6.96426e-20)
(1.00666 0.557174 4.63766e-20)
(1.00405 0.500726 1.8555e-20)
(1.00269 0.45104 6.82207e-21)
(1.00297 0.407646 1.07346e-20)
(1.00444 0.369519 3.85605e-20)
(1.00672 0.335797 -4.37744e-20)
(1.00956 0.305767 -6.06791e-21)
(1.01281 0.278808 5.21117e-21)
(1.01609 0.254661 4.34208e-20)
(1.0188 0.233947 1.40513e-20)
(1.02269 0.214611 -4.17222e-20)
(0.399693 0.31088 8.74093e-20)
(0.781228 0.600615 -3.02269e-19)
(0.930897 0.656942 -3.16183e-20)
(0.968985 0.620435 -5.5967e-20)
(0.975115 0.559046 -3.59289e-21)
(0.975878 0.501094 -1.69779e-20)
(0.97762 0.450453 -3.92235e-21)
(0.980551 0.40638 -2.83803e-20)
(0.984293 0.367766 -1.74493e-20)
(0.988531 0.333704 3.24307e-20)
(0.993072 0.303459 -3.00353e-20)
(0.997735 0.276419 4.18412e-20)
(1.00213 0.252245 -3.71635e-20)
(1.00593 0.231397 1.29994e-20)
(1.01127 0.212266 3.93628e-20)
(0.389977 0.325596 -2.35138e-19)
(0.753046 0.614914 3.5337e-19)
(0.895563 0.66406 -3.23417e-21)
(0.933608 0.622391 -2.1012e-20)
(0.942819 0.558733 4.84948e-21)
(0.947198 0.499637 2.4019e-21)
(0.952176 0.448293 3.17339e-20)
(0.957861 0.403746 5.03526e-20)
(0.963958 0.364814 -1.11025e-19)
(0.97023 0.330555 3.43966e-20)
(0.976529 0.300222 7.33794e-21)
(0.982634 0.273219 -6.02483e-20)
(0.988218 0.249112 5.03782e-20)
(0.993361 0.22817 -1.57468e-20)
(1.00046 0.209421 2.04158e-20)
(0.377689 0.338215 2.90573e-19)
(0.722038 0.625561 -2.46588e-19)
(0.858464 0.667821 -4.00613e-20)
(0.897259 0.621624 1.99177e-20)
(0.909969 0.556169 -1.23288e-20)
(0.918158 0.496288 4.10655e-20)
(0.926485 0.444505 -5.73614e-20)
(0.935009 0.399698 5.39047e-20)
(0.943528 0.360626 7.05293e-20)
(0.951891 0.326318 -1.07626e-19)
(0.959979 0.296022 3.04758e-20)
(0.967547 0.269152 -1.45181e-20)
(0.974464 0.245165 -3.45897e-21)
(0.981377 0.224174 -5.60352e-20)
(0.990326 0.20628 -2.92055e-20)
(0.363025 0.348454 -9.32798e-20)
(0.688672 0.6324 6.23929e-20)
(0.819929 0.668113 1.88261e-20)
(0.860197 0.618066 2.04562e-20)
(0.876762 0.551302 5.70625e-20)
(0.888913 0.490993 -5.77678e-20)
(0.900676 0.439046 8.71032e-20)
(0.912103 0.3942 -7.08979e-20)
(0.923097 0.355173 8.82702e-20)
(0.933588 0.320972 9.5034e-20)
(0.943473 0.290843 -1.85106e-20)
(0.95253 0.264187 1.41051e-20)