/*--------------------------------*- C++ -*----------------------------------*\
  =========                 |
  \\      /  F ield         | OpenFOAM: The Open Source CFD Toolbox
   \\    /   O peration     | Website:  https://openfoam.org
    \\  /    A nd           | Version:  7
     \\/     M anipulation  |
\*---------------------------------------------------------------------------*/
FoamFile
{
    version     2.0;
    format      ascii;
    class       surfaceScalarField;
    location    "20";
    object      phi;
}
// * * * * * * * * * * * * * * * * * * * * * * * * * * * * * * * * * * * * * //

dimensions      [0 3 -1 0 0 0 0];

internalField   nonuniform List<scalar> 
21496
(
-1.13961e-05
1.13961e-05
-7.41781e-13
-3.73626e-05
2.59665e-05
-2.2271e-12
-7.24237e-05
3.50611e-05
-3.81251e-12
-0.000112251
3.98274e-05
-5.43565e-12
-0.000153257
4.10056e-05
-7.06373e-12
-0.000192389
3.91326e-05
-8.77127e-12
-0.000226989
3.46003e-05
-1.04505e-11
-0.000254673
2.76836e-05
-1.21326e-11
-0.000273241
1.85684e-05
-1.3798e-11
-0.000280619
7.37787e-06
-1.54688e-11
-0.00027482
-5.7995e-06
-1.71216e-11
-0.000253939
-2.08813e-05
-1.87184e-11
-0.000216182
-3.7756e-05
-2.02614e-11
-0.000159954
-5.62282e-05
-2.17304e-11
-8.40002e-05
-7.59541e-05
-2.30773e-11
1.23576e-05
-9.63577e-05
-2.42922e-11
0.000128907
-0.000116549
-2.53281e-11
0.000264142
-0.000135236
-2.61015e-11
0.000414573
-0.00015043
-2.65366e-11
-0.000159056
-2.66124e-11
0.000573629
-9.94277e-06
2.13389e-05
-3.20343e-05
4.80581e-05
-6.09735e-05
6.40003e-05
-9.24989e-05
7.13527e-05
-0.000123024
7.15305e-05
-0.000149451
6.556e-05
-0.000169041
5.41898e-05
-0.0001793
3.79426e-05
-0.0001779
1.71683e-05
-0.000162615
-7.90633e-06
-0.000131291
-3.71239e-05
-8.1817e-05
-7.03552e-05
-1.21564e-05
-0.000107417
7.96005e-05
-0.000147985
0.000195113
-0.000191467
0.000335577
-0.000236822
0.000501397
-0.000282369
0.000691699
-0.000325538
0.000903494
-0.000362225
-0.000385736
0.00113017
-7.18559e-06
2.85245e-05
-2.18668e-05
6.27393e-05
-3.90436e-05
8.1177e-05
-5.45649e-05
8.6874e-05
-6.48367e-05
8.18023e-05
-6.66689e-05
6.73922e-05
-5.71628e-05
4.46838e-05
-3.36197e-05
1.43995e-05
6.53001e-06
-2.29814e-05
6.57818e-05
-6.71582e-05
0.000146599
-0.000117941
0.000251427
-0.000175183
0.000382702
-0.000238692
0.00054283
-0.000308112
0.00073411
-0.000382747
0.000958583
-0.000461295
0.0012177
-0.00054149
0.00151176
-0.000619593
0.00183875
-0.000689216
-0.000739026
0.00219204
-3.37958e-06
3.1904e-05
-7.70243e-06
6.70621e-05
-8.3197e-06
8.17943e-05
-1.2006e-06
7.97549e-05
1.72774e-05
6.33242e-05
5.04425e-05
3.42272e-05
0.000101414
-6.28726e-06
0.000173161
-5.73482e-05
0.000268573
-0.000118394
0.000390483
-0.000189068
0.000541702
-0.00026916
0.000725037
-0.000358519
0.000943313
-0.000456968
0.00119938
-0.000564178
0.0014961
-0.00067947
0.0018363
-0.000801495
0.00222252
-0.000927711
0.00265643
-0.0010535
0.00313746
-0.00117024
-0.00126086
0.00365929
1.18771e-06
3.07163e-05
9.48707e-06
5.87628e-05
2.92171e-05
6.20643e-05
6.43057e-05
4.46663e-05
0.000118426
9.20392e-06
0.000195065
-4.24123e-05
0.000297581
-0.000108803
0.000429241
-0.000189008
0.000593238
-0.00028239
0.000792709
-0.000388539
0.00103074
-0.000507187
0.00131035
-0.000638133
0.00163454
-0.000781155
0.00200625
-0.000935893
0.00242846
-0.00110168
0.00290419
-0.00127722
0.00343646
-0.00145999
0.00402794
-0.00164498
0.00467962
-0.00182192
-0.00196784
0.0053866
6.27124e-06
2.44451e-05
2.88348e-05
3.61992e-05
7.17317e-05
1.91674e-05
0.000138801
-2.24028e-05
0.000233754
-8.57496e-05
0.000360216
-0.000168874
0.000521725
-0.000270313
0.000721745
-0.000389028
0.000963643
-0.000524288
0.00125067
-0.000675561
0.0015859
-0.000842424
0.00197225
-0.00102448
0.00241239
-0.00122129
0.00290876
-0.00143226
0.0034636
-0.00165652
0.00407907
-0.0018927
0.00475742
-0.00213834
0.00550105
-0.00238861
0.00631208
-0.00263295
-0.00284511
0.00718934
1.17178e-05
1.27273e-05
4.97289e-05
-1.81191e-06
0.000117807
-4.8911e-05
0.000219675
-0.000124271
0.000359006
-0.00022508
0.00053942
-0.000349288
0.000764455
-0.000495347
0.00103751
-0.000662085
0.0013618
-0.000848574
0.00174025
-0.00105401
0.00217546
-0.00127764
0.00266959
-0.00151862
0.00322431
-0.001776
0.0038407
-0.00204865
0.00451931
-0.00233513
0.0052602
-0.00263359
0.0060633
-0.00294143
0.00692893
-0.00325424
0.00785927
-0.00356329
-0.00384678
0.00886095
1.74753e-05
-4.74796e-06
7.17981e-05
-5.61347e-05
0.000166439
-0.000143552
0.000304838
-0.00026267
0.000490424
-0.000410666
0.000726535
-0.000585399
0.00101633
-0.000785138
0.00136266
-0.00100842
0.00176802
-0.00125393
0.00223436
-0.00152035
0.00276302
-0.0018063
0.00335466
-0.00211025
0.00400915
-0.00243049
0.00472553
-0.00276504
0.00550206
-0.00311166
0.00633624
-0.00346777
0.00722505
-0.00383024
0.00816516
-0.00419435
0.0091538
-0.00455193
-0.0048974
0.0102044
2.35223e-05
-2.82703e-05
9.48116e-05
-0.000127424
0.000216752
-0.000265492
0.000392229
-0.000438147
0.000624048
-0.000642485
0.000914778
-0.000876129
0.00126659
-0.00113695
0.00168109
-0.00142293
0.00215919
-0.00173203
0.00270096
-0.00206212
0.00330556
-0.0024109
0.00397121
-0.0027759
0.00469521
-0.00315449
0.00547411
-0.00354393
0.00630391
-0.00394146
0.00718054
-0.00434439
0.00810049
-0.00475019
0.00906277
-0.00515664
0.0100742
-0.0055634
-0.0059761
0.0111529
2.98316e-05
-5.81019e-05
0.000118381
-0.000215974
0.000267531
-0.000414642
0.000479133
-0.000649749
0.000754794
-0.000918146
0.00109563
-0.00121696
0.00150203
-0.00154335
0.00197344
-0.00189434
0.00250824
-0.00226683
0.00310361
-0.00265749
0.00375552
-0.00306281
0.00445878
-0.00347916
0.00520716
-0.00390288
0.00599363
-0.0043304
0.00681055
-0.00475838
0.00765001
-0.00518386
0.00850414
-0.00560433
0.00936552
-0.00601801
0.0102262
-0.00642413
-0.00682021
0.0110704
3.62689e-05
-9.43708e-05
0.0001418
-0.000321505
0.000316875
-0.000589717
0.000561674
-0.000894548
0.000875893
-0.00123236
0.0012584
-0.00159947
0.00170696
-0.00199191
0.00221805
-0.00240543
0.00278677
-0.00283555
0.00340686
-0.00327758
0.00407084
-0.00372678
0.0047702
-0.00417852
0.00549576
-0.00462844
0.00623802
-0.00507266
0.00698754
-0.0055079
0.00773527
-0.00593159
0.00847289
-0.00634194
0.00919272
-0.00673784
0.00988695
-0.00711837
-0.00747991
0.0105467
4.25654e-05
-0.000136936
0.000163913
-0.000442852
0.000362018
-0.000787823
0.00063466
-0.00116719
0.000978859
-0.00157656
0.00139048
-0.00201109
0.00186399
-0.00246542
0.00239239
-0.00293383
0.00296727
-0.00341043
0.00357905
-0.00388937
0.00421736
-0.00436509
0.00487146
-0.00483262
0.00553076
-0.00528774
0.00618533
-0.00572724
0.00682638
-0.00614895
0.00744659
-0.0065518
0.00804035
-0.0069357
0.00860381
-0.0073013
0.00913478
-0.00764934
-0.00797846
0.00963333
4.83197e-05
-0.000185256
0.000183167
-0.000577699
0.0003995
-0.00100416
0.000691994
-0.00145969
0.00105434
-0.00193891
0.00147888
-0.00243563
0.0019565
-0.00294303
0.00247673
-0.00345406
0.00302812
-0.00396182
0.00359869
-0.00445993
0.00417651
-0.00494292
0.00475037
-0.00540648
0.00531035
-0.00584772
0.00584827
-0.00626516
0.00635808
-0.00665876
0.00683599
-0.00702971
0.00728044
-0.00738015
0.00769193
-0.00771279
0.00807271
-0.00803013
-0.00833286
0.00842711
5.30402e-05
-0.000238296
0.000197785
-0.000722443
0.000425589
-0.00123196
0.000727504
-0.0017616
0.00109353
-0.00230493
0.00151236
-0.00285447
0.00197154
-0.00340221
0.00245783
-0.00394035
0.00295781
-0.0044618
0.00345857
-0.00496069
0.00394844
-0.00543279
0.00441762
-0.00587566
0.00485858
-0.00628868
0.00526641
-0.00667299
0.00563875
-0.0070311
0.00597563
-0.00736659
0.00627911
-0.00768363
0.00655278
-0.00798645
0.00680136
-0.0082787
-0.00856224
0.00703074
5.62105e-05
-0.000294507
0.000206014
-0.000872247
0.00043684
-0.00146278
0.00073592
-0.00206068
0.00108961
-0.00265863
0.00148339
-0.00324824
0.00190225
-0.00382108
0.00233138
-0.00436948
0.00275691
-0.00488733
0.00316671
-0.00537049
0.003551
-0.00581708
0.00390278
-0.00622744
0.00421798
-0.00660388
0.00449531
-0.00695032
0.00473592
-0.00727171
0.00494285
-0.00757352
0.00512042
-0.0078612
0.00527365
-0.00813968
0.0054078
-0.00841285
-0.00868283
0.00552839
5.73601e-05
-0.000351867
0.000206381
-0.00102127
0.000430613
-0.00168702
0.000713708
-0.00234378
0.00103892
-0.00298384
0.00138941
-0.00359873
0.00174887
-0.00418054
0.00210238
-0.00472299
0.00243719
-0.00522214
0.00274336
-0.00567666
0.00301412
-0.00608784
0.00324592
-0.00645923
0.00343815
-0.00679611
0.00359267
-0.00710484
0.00371312
-0.00739216
0.00380425
-0.00766464
0.00387122
-0.00792817
0.00391911
-0.00818758
0.00395259
-0.00844632
-0.00870623
0.00397598
5.61265e-05
-0.000407993
0.000197891
-0.00116303
0.000405452
-0.00189458
0.000659571
-0.0025979
0.000941394
-0.00326567
0.001233
-0.00389034
0.00151824
-0.00446577
0.00178351
-0.00498826
0.00201842
-0.00545705
0.0022161
-0.00587434
0.00237318
-0.00624491
0.00248937
-0.00657542
0.00256691
-0.00687365
0.00260976
-0.0071477
0.00262289
-0.00740529
0.0026115
-0.00765326
0.00258059
-0.00789725
0.0025345
-0.00814149
0.00247685
-0.00838867
-0.00864015
0.00241077
5.22994e-05
-0.000460293
0.000180153
-0.00129089
0.000361251
-0.00207568
0.000574554
-0.0028112
0.00080039
-0.0034915
0.00102118
-0.00411113
0.00122224
-0.00466683
0.00139245
-0.00515847
0.0015245
-0.0055891
0.00161485
-0.00596469
0.00166324
-0.0062933
0.00167201
-0.00658419
0.00164523
-0.00684688
0.00158792
-0.00709039
0.00150529
-0.00732265
0.00140221
-0.00755018
0.00128288
-0.00777792
0.00115063
-0.00800925
0.00100798
-0.00824602
-0.00848903
0.000856852
4.58446e-05
-0.000506137
0.000153418
-0.00139846
0.000299221
-0.00222148
0.000461788
-0.00297377
0.000622042
-0.00365176
0.000764062
-0.00425315
0.000875734
-0.0047785
0.000949056
-0.00523179
0.000980029
-0.00562008
0.000968154
-0.00595282
0.000915662
-0.00624081
0.000826605
-0.00649513
0.000705969
-0.00672624
0.000558915
-0.00694334
0.000390235
-0.00715397
0.000204021
-0.00736396
3.52879e-06
-0.00757742
-0.000208825
-0.00779689
-0.00043157
-0.00802328
-0.00825667
-0.000663929
3.69042e-05
-0.000543041
0.000118527
-0.00148008
0.000221697
-0.00232465
0.000326008
-0.00307808
0.000414333
-0.00374008
0.000473491
-0.0043123
0.00049461
-0.00479962
0.000473045
-0.00521022
0.000407874
-0.00555491
0.00030107
-0.00584602
0.000156563
-0.0060963
-2.07197e-05
-0.00631785
-0.000225656
-0.00652131
-0.00045351
-0.00671548
-0.000700263
-0.00690722
-0.000962731
-0.0071015
-0.00123852
-0.00730163
-0.00152596
-0.00750946
-0.00182384
-0.0077254
-0.00794913
-0.00213137
2.5783e-05
-0.000568824
7.68123e-05
-0.00153111
0.000131844
-0.00237968
0.000172955
-0.00311919
0.000186153
-0.00375328
0.000161715
-0.00428787
9.4309e-05
-0.00473222
-1.74967e-05
-0.00509842
-0.000172059
-0.00540034
-0.00036559
-0.00565248
-0.000593215
-0.00586868
-0.000849807
-0.00606126
-0.00113063
-0.00624049
-0.00143169
-0.00641442
-0.00174991
-0.006589
-0.00208302
-0.00676839
-0.00242941
-0.00695524
-0.00278785
-0.00715102
-0.00315724
-0.00735601
-0.00756963
-0.00353674
1.29733e-05
-0.000581798
2.99642e-05
-0.0015481
3.33514e-05
-0.00238307
8.93893e-06
-0.00309477
-5.34561e-05
-0.00369088
-0.000159555
-0.00418177
-0.000311188
-0.00458059
-0.00050697
-0.00490263
-0.000743246
-0.00516407
-0.00101514
-0.0053806
-0.00131741
-0.0055664
-0.00164521
-0.00573346
-0.00199444
-0.00589125
-0.002362
-0.00604686
-0.00274572
-0.00620529
-0.00314419
-0.00636991
-0.00355655
-0.00654289
-0.00398199
-0.00672558
-0.00441926
-0.00691873
-0.00712215
-0.00486675
-1.32342e-06
-0.000580474
-2.02619e-05
-0.00152916
-7.00358e-05
-0.00233329
-0.00016013
-0.00300468
-0.000296084
-0.00355493
-0.000479741
-0.00399811
-0.000709702
-0.00435062
-0.000982245
-0.00463009
-0.00129232
-0.004854
-0.00163446
-0.00503845
-0.00200354
-0.00519733
-0.00239519
-0.0053418
-0.0028061
-0.00548034
-0.00323398
-0.00561898
-0.00367744
-0.00576182
-0.00413585
-0.0059115
-0.00460908
-0.00606966
-0.005097
-0.00623767
-0.00559818
-0.00641755
-0.00660853
-0.0061118
-1.59705e-05
-0.000564504
-7.17426e-05
-0.00147339
-0.000174401
-0.00223064
-0.000328129
-0.00285095
-0.000533849
-0.00334921
-0.000789546
-0.00374241
-0.001091
-0.00404917
-0.0014327
-0.0042884
-0.00180871
-0.00447798
-0.00221346
-0.0046337
-0.00264217
-0.00476861
-0.00309118
-0.0048928
-0.00355789
-0.00501362
-0.00404077
-0.00513611
-0.00453906
-0.00526353
-0.00505266
-0.0053979
-0.00558203
-0.0055403
-0.00612845
-0.00569124
-0.00669321
-0.00585279
-0.0060335
-0.00726824
-3.0877e-05
-0.000533627
-0.000122701
-0.00138157
-0.000276177
-0.00207716
-0.000489852
-0.00263728
-0.000760011
-0.00307905
-0.00108113
-0.0034213
-0.00144661
-0.00368368
-0.00184965
-0.00388536
-0.00228388
-0.00404375
-0.00274389
-0.00417369
-0.0032255
-0.004287
-0.00372581
-0.00439249
-0.00424309
-0.00449634
-0.0047766
-0.00460259
-0.00532645
-0.00471368
-0.00589343
-0.00483092
-0.00647876
-0.00495497
-0.00708356
-0.00508644
-0.00771067
-0.00522568
-0.00536827
-0.00837591
-4.52732e-05
-0.000488354
-0.000171309
-0.00125553
-0.000372113
-0.00187636
-0.00064064
-0.00236875
-0.000968799
-0.00275089
-0.00134796
-0.00304214
-0.00176961
-0.00326202
-0.00222602
-0.00342895
-0.00271064
-0.00355914
-0.00321834
-0.00366599
-0.00374549
-0.00375985
-0.00428975
-0.00384823
-0.00484989
-0.0039362
-0.00542552
-0.00402697
-0.00601684
-0.00412236
-0.0066244
-0.00422335
-0.00724896
-0.00433041
-0.00789175
-0.00444366
-0.00855497
-0.00456246
-0.0046858
-0.00923744
-5.86561e-05
-0.000429697
-0.000215976
-0.00109821
-0.000459402
-0.00163293
-0.000776604
-0.00205155
-0.00115555
-0.00237195
-0.00158496
-0.00261273
-0.00205484
-0.00279214
-0.00255686
-0.00292694
-0.00308448
-0.00303152
-0.00363299
-0.00311748
-0.00419926
-0.00319358
-0.0047815
-0.00326599
-0.00537893
-0.00333878
-0.00599147
-0.00341442
-0.00661951
-0.00349432
-0.00726368
-0.00357918
-0.00792475
-0.00366934
-0.0086036
-0.00376481
-0.00930088
-0.00386518
-0.00397027
-0.0100164
-7.05584e-05
-0.000359139
-0.000255318
-0.000913453
-0.000535662
-0.00135259
-0.000894519
-0.00169269
-0.00131645
-0.00195002
-0.00178803
-0.00214115
-0.00229814
-0.00228203
-0.00283807
-0.002387
-0.00340145
-0.00246814
-0.00398394
-0.00253499
-0.00458294
-0.00259459
-0.0051971
-0.00265182
-0.00582604
-0.00270984
-0.00646996
-0.0027705
-0.00712943
-0.00283485
-0.00780523
-0.00290338
-0.00849823
-0.00297634
-0.00920931
-0.00305373
-0.0099392
-0.00313529
-0.00322104
-0.0106884
-8.05777e-05
-0.000278561
-0.00028818
-0.00070585
-0.000598949
-0.00104182
-0.000991807
-0.00129983
-0.00144854
-0.00149329
-0.00195402
-0.00163566
-0.00249633
-0.00173972
-0.00306657
-0.00181677
-0.00365854
-0.00187617
-0.00426831
-0.00192522
-0.00489366
-0.00196923
-0.00553367
-0.00201181
-0.00618825
-0.00205526
-0.00685785
-0.00210091
-0.00754321
-0.00214949
-0.00824525
-0.00220135
-0.00896494
-0.00225665
-0.00970328
-0.00231539
-0.0104612
-0.00237739
-0.00244273
-0.0112395
-8.83851e-05
-0.000190176
-0.000313636
-0.000480599
-0.000647729
-0.000707725
-0.00106647
-0.000881095
-0.00154952
-0.00101024
-0.00208052
-0.00110466
-0.00264699
-0.00117325
-0.00323995
-0.00122381
-0.0038534
-0.00126273
-0.00448369
-0.00129493
-0.00512896
-0.00132396
-0.00578856
-0.00135221
-0.00646266
-0.00138116
-0.00715188
-0.00141169
-0.00785712
-0.00144425
-0.0085794
-0.00147907
-0.00931981
-0.00151624
-0.0100794
-0.00155576
-0.0108593
-0.00159752
-0.00164157
-0.0116605
-9.37306e-05
-9.64456e-05
-0.000330991
-0.000243339
-0.000680872
-0.000357844
-0.00111704
-0.00044493
-0.00161773
-0.000509546
-0.00216579
-0.000556599
-0.00274838
-0.000590657
-0.0033565
-0.000615693
-0.00398427
-0.00063495
-0.0046283
-0.000650904
-0.00528692
-0.000665332
-0.00595971
-0.000679417
-0.00664697
-0.000693897
-0.00734947
-0.000709194
-0.00806819
-0.000725531
-0.00880424
-0.000743016
-0.00955878
-0.000761698
-0.010333
-0.000781574
-0.0111279
-0.000802579
-0.00082476
-0.0119447
-9.64456e-05
-1.83072e-13
-0.000339784
-8.17719e-13
-0.000697629
-1.876e-12
-0.00114256
-2.04359e-12
-0.0016521
-2.16062e-12
-0.0022087
-2.22633e-12
-0.00279936
-2.27755e-12
-0.00341505
-2.33297e-12
-0.00405
-2.37993e-12
-0.00470091
-2.43858e-12
-0.00536624
-2.49377e-12
-0.00604566
-2.54696e-12
-0.00673955
-2.60536e-12
-0.00744875
-2.67086e-12
-0.00817428
-2.73745e-12
-0.00891729
-2.79057e-12
-0.00967899
-2.83e-12
-0.0104606
-2.85686e-12
-0.0112631
-2.88228e-12
-2.90171e-12
-0.0120879
-9.64456e-05
9.64456e-05
-0.000339784
0.000243339
-0.000697629
0.000357844
-0.00114256
0.00044493
-0.0016521
0.000509546
-0.0022087
0.000556599
-0.00279936
0.000590657
-0.00341505
0.000615693
-0.00405
0.00063495
-0.00470091
0.000650904
-0.00536624
0.000665332
-0.00604566
0.000679417
-0.00673955
0.000693897
-0.00744875
0.000709194
-0.00817428
0.000725531
-0.00891729
0.000743016
-0.00967899
0.000761698
-0.0104606
0.000781574
-0.0112631
0.000802579
0.00082476
-0.0120879
-9.37306e-05
0.000190176
-0.000330991
0.000480599
-0.000680872
0.000707725
-0.00111704
0.000881095
-0.00161773
0.00101024
-0.00216579
0.00110466
-0.00274838
0.00117325
-0.0033565
0.00122381
-0.00398427
0.00126273
-0.0046283
0.00129493
-0.00528692
0.00132396
-0.00595971
0.00135221
-0.00664697
0.00138116
-0.00734947
0.00141169
-0.00806819
0.00144425
-0.00880424
0.00147907
-0.00955878
0.00151624
-0.010333
0.00155576
-0.0111279
0.00159752
0.00164157
-0.0119447
-8.83851e-05
0.000278561
-0.000313636
0.00070585
-0.000647729
0.00104182
-0.00106647
0.00129983
-0.00154952
0.00149329
-0.00208052
0.00163566
-0.00264699
0.00173972
-0.00323995
0.00181677
-0.0038534
0.00187617
-0.00448369
0.00192522
-0.00512896
0.00196923
-0.00578856
0.00201181
-0.00646266
0.00205526
-0.00715188
0.00210091
-0.00785712
0.00214949
-0.0085794
0.00220135
-0.00931981
0.00225665
-0.0100794
0.00231539
-0.0108593
0.00237739
0.00244273
-0.0116605
-8.05777e-05
0.000359139
-0.00028818
0.000913453
-0.000598949
0.00135259
-0.000991807
0.00169269
-0.00144854
0.00195002
-0.00195402
0.00214115
-0.00249633
0.00228203
-0.00306657
0.002387
-0.00365854
0.00246814
-0.00426831
0.00253499
-0.00489366
0.00259459
-0.00553367
0.00265182
-0.00618825
0.00270984
-0.00685785
0.0027705
-0.00754321
0.00283485
-0.00824525
0.00290338
-0.00896494
0.00297634
-0.00970328
0.00305373
-0.0104612
0.00313529
0.00322104
-0.0112395
-7.05584e-05
0.000429697
-0.000255318
0.00109821
-0.000535662
0.00163293
-0.000894519
0.00205155
-0.00131645
0.00237195
-0.00178803
0.00261273
-0.00229814
0.00279214
-0.00283807
0.00292694
-0.00340145
0.00303152
-0.00398394
0.00311748
-0.00458294
0.00319358
-0.0051971
0.00326599
-0.00582604
0.00333878
-0.00646996
0.00341442
-0.00712943
0.00349432
-0.00780523
0.00357918
-0.00849823
0.00366934
-0.00920931
0.00376481
-0.0099392
0.00386518
0.00397027
-0.0106884
-5.86561e-05
0.000488354
-0.000215976
0.00125553
-0.000459402
0.00187636
-0.000776604
0.00236875
-0.00115555
0.00275089
-0.00158496
0.00304214
-0.00205484
0.00326202
-0.00255686
0.00342895
-0.00308448
0.00355914
-0.00363299
0.00366599
-0.00419926
0.00375985
-0.0047815
0.00384823
-0.00537893
0.0039362
-0.00599147
0.00402697
-0.00661951
0.00412236
-0.00726368
0.00422335
-0.00792475
0.00433041
-0.0086036
0.00444366
-0.00930088
0.00456246
0.0046858
-0.0100164
-4.52732e-05
0.000533627
-0.000171309
0.00138157
-0.000372113
0.00207716
-0.00064064
0.00263728
-0.000968799
0.00307905
-0.00134796
0.0034213
-0.00176961
0.00368368
-0.00222602
0.00388536
-0.00271064
0.00404375
-0.00321834
0.00417369
-0.00374549
0.004287
-0.00428975
0.00439249
-0.00484989
0.00449634
-0.00542552
0.00460259
-0.00601684
0.00471368
-0.0066244
0.00483092
-0.00724896
0.00495497
-0.00789175
0.00508644
-0.00855497
0.00522568
0.00536827
-0.00923744
-3.0877e-05
0.000564504
-0.000122701
0.00147339
-0.000276177
0.00223064
-0.000489852
0.00285095
-0.000760011
0.00334921
-0.00108113
0.00374241
-0.00144661
0.00404917
-0.00184965
0.0042884
-0.00228388
0.00447798
-0.00274389
0.0046337
-0.0032255
0.00476861
-0.00372581
0.0048928
-0.00424309
0.00501362
-0.0047766
0.0051361
-0.00532645
0.00526353
-0.00589343
0.0053979
-0.00647876
0.0055403
-0.00708356
0.00569124
-0.00771067
0.00585279
0.0060335
-0.00837591
-1.59705e-05
0.000580474
-7.17426e-05
0.00152916
-0.000174401
0.00233329
-0.000328129
0.00300468
-0.000533849
0.00355493
-0.000789546
0.00399811
-0.001091
0.00435062
-0.0014327
0.00463009
-0.00180871
0.004854
-0.00221346
0.00503845
-0.00264217
0.00519733
-0.00309118
0.0053418
-0.00355789
0.00548034
-0.00404077
0.00561898
-0.00453906
0.00576182
-0.00505266
0.0059115
-0.00558203
0.00606966
-0.00612845
0.00623767
-0.00669321
0.00641755
0.00660853
-0.00726824
-1.32342e-06
0.000581798
-2.02619e-05
0.0015481
-7.00358e-05
0.00238307
-0.00016013
0.00309477
-0.000296084
0.00369088
-0.000479741
0.00418177
-0.000709702
0.00458059
-0.000982245
0.00490263
-0.00129232
0.00516407
-0.00163446
0.0053806
-0.00200354
0.0055664
-0.00239519
0.00573346
-0.0028061
0.00589125
-0.00323398
0.00604686
-0.00367744
0.00620529
-0.00413586
0.00636991
-0.00460908
0.00654289
-0.005097
0.00672558
-0.00559818
0.00691873
0.00712215
-0.0061118
1.29733e-05
0.000568824
2.99642e-05
0.00153111
3.33514e-05
0.00237968
8.93893e-06
0.00311919
-5.34561e-05
0.00375328
-0.000159555
0.00428787
-0.000311188
0.00473222
-0.00050697
0.00509842
-0.000743246
0.00540034
-0.00101514
0.00565248
-0.00131741
0.00586868
-0.00164521
0.00606126
-0.00199444
0.00624049
-0.002362
0.00641442
-0.00274572
0.006589
-0.00314419
0.00676839
-0.00355655
0.00695524
-0.00398199
0.00715102
-0.00441926
0.00735601
0.00756963
-0.00486675
2.5783e-05
0.000543041
7.68123e-05
0.00148008
0.000131844
0.00232465
0.000172955
0.00307808
0.000186153
0.00374008
0.000161715
0.0043123
9.4309e-05
0.00479962
-1.74967e-05
0.00521022
-0.000172059
0.00555491
-0.00036559
0.00584602
-0.000593215
0.0060963
-0.000849807
0.00631785
-0.00113063
0.00652131
-0.00143169
0.00671548
-0.00174991
0.00690722
-0.00208302
0.0071015
-0.00242941
0.00730163
-0.00278785
0.00750946
-0.00315724
0.0077254
0.00794913
-0.00353674
3.69042e-05
0.000506137
0.000118527
0.00139846
0.000221697
0.00222148
0.000326008
0.00297377
0.000414333
0.00365176
0.000473491
0.00425315
0.00049461
0.0047785
0.000473045
0.00523179
0.000407874
0.00562008
0.00030107
0.00595282
0.000156563
0.00624081
-2.07197e-05
0.00649513
-0.000225656
0.00672624
-0.00045351
0.00694334
-0.000700263
0.00715397
-0.000962731
0.00736396
-0.00123852
0.00757742
-0.00152596
0.00779689
-0.00182384
0.00802328
0.00825667
-0.00213137
4.58446e-05
0.000460293
0.000153418
0.00129089
0.000299221
0.00207568
0.000461788
0.0028112
0.000622042
0.0034915
0.000764062
0.00411113
0.000875734
0.00466683
0.000949056
0.00515847
0.000980029
0.0055891
0.000968154
0.00596469
0.000915662
0.0062933
0.000826605
0.00658419
0.000705969
0.00684688
0.000558915
0.00709039
0.000390235
0.00732265
0.000204021
0.00755018
3.52879e-06
0.00777792
-0.000208825
0.00800925
-0.00043157
0.00824602
0.00848903
-0.000663929
5.22994e-05
0.000407993
0.000180153
0.00116303
0.000361251
0.00189458
0.000574554
0.0025979
0.00080039
0.00326567
0.00102118
0.00389034
0.00122224
0.00446577
0.00139245
0.00498826
0.0015245
0.00545705
0.00161485
0.00587434
0.00166324
0.00624491
0.00167201
0.00657542
0.00164523
0.00687365
0.00158792
0.0071477
0.00150529
0.00740529
0.00140221
0.00765326
0.00128288
0.00789725
0.00115063
0.00814149
0.00100798
0.00838867
0.00864015
0.000856852
5.61265e-05
0.000351867
0.000197891
0.00102127
0.000405452
0.00168702
0.000659571
0.00234378
0.000941394
0.00298384
0.001233
0.00359873
0.00151824
0.00418054
0.00178351
0.00472299
0.00201842
0.00522214
0.0022161
0.00567666
0.00237318
0.00608784
0.00248937
0.00645923
0.00256691
0.00679611
0.00260976
0.00710484
0.00262289
0.00739216
0.0026115
0.00766464
0.00258059
0.00792817
0.0025345
0.00818758
0.00247685
0.00844632
0.00870623
0.00241077
5.73601e-05
0.000294507
0.000206381
0.000872247
0.000430613
0.00146278
0.000713708
0.00206068
0.00103892
0.00265863
0.00138941
0.00324824
0.00174887
0.00382108
0.00210238
0.00436948
0.00243719
0.00488733
0.00274336
0.00537049
0.00301412
0.00581708
0.00324592
0.00622744
0.00343815
0.00660388
0.00359267
0.00695032
0.00371312
0.00727171
0.00380425
0.00757352
0.00387122
0.0078612
0.00391911
0.00813968
0.00395259
0.00841285
0.00868283
0.00397598
5.62105e-05
0.000238296
0.000206014
0.000722443
0.00043684
0.00123196
0.00073592
0.0017616
0.00108961
0.00230493
0.00148339
0.00285447
0.00190225
0.00340221
0.00233138
0.00394035
0.00275691
0.0044618
0.00316671
0.00496069
0.003551
0.00543279
0.00390278
0.00587566
0.00421798
0.00628868
0.00449531
0.00667299
0.00473592
0.0070311
0.00494285
0.00736659
0.00512042
0.00768363
0.00527365
0.00798645
0.0054078
0.0082787
0.00856224
0.00552839
5.30402e-05
0.000185256
0.000197785
0.000577699
0.000425589
0.00100416
0.000727504
0.00145969
0.00109353
0.00193891
0.00151236
0.00243563
0.00197154
0.00294303
0.00245783
0.00345406
0.00295781
0.00396182
0.00345857
0.00445993
0.00394844
0.00494292
0.00441762
0.00540648
0.00485858
0.00584772
0.00526641
0.00626516
0.00563875
0.00665876
0.00597563
0.00702971
0.00627911
0.00738015
0.00655278
0.00771279
0.00680136
0.00803013
0.00833286
0.00703074
4.83197e-05
0.000136936
0.000183167
0.000442852
0.0003995
0.000787823
0.000691994
0.00116719
0.00105434
0.00157656
0.00147888
0.00201109
0.0019565
0.00246542
0.00247673
0.00293383
0.00302812
0.00341043
0.00359869
0.00388937
0.00417651
0.00436509
0.00475037
0.00483262
0.00531035
0.00528774
0.00584827
0.00572724
0.00635808
0.00614895
0.00683599
0.0065518
0.00728044
0.0069357
0.00769193
0.0073013
0.00807271
0.00764934
0.00797846
0.00842711
4.25654e-05
9.43708e-05
0.000163913
0.000321505
0.000362018
0.000589717
0.00063466
0.000894548
0.000978859
0.00123236
0.00139048
0.00159947
0.00186399
0.00199191
0.00239239
0.00240543
0.00296727
0.00283555
0.00357905
0.00327758
0.00421736
0.00372678
0.00487146
0.00417852
0.00553076
0.00462844
0.00618533
0.00507266
0.00682638
0.0055079
0.00744659
0.00593159
0.00804035
0.00634194
0.0086038
0.00673784
0.00913478
0.00711837
0.00747991
0.00963333
3.62689e-05
5.81019e-05
0.0001418
0.000215974
0.000316875
0.000414642
0.000561674
0.000649749
0.000875893
0.000918146
0.0012584
0.00121696
0.00170696
0.00154335
0.00221805
0.00189434
0.00278677
0.00226683
0.00340686
0.00265749
0.00407084
0.00306281
0.0047702
0.00347916
0.00549576
0.00390288
0.00623802
0.0043304
0.00698754
0.00475838
0.00773527
0.00518386
0.00847289
0.00560433
0.00919272
0.00601801
0.00988695
0.00642413
0.00682021
0.0105467
2.98316e-05
2.82703e-05
0.000118381
0.000127424
0.000267531
0.000265492
0.000479133
0.000438147
0.000754794
0.000642485
0.00109563
0.000876129
0.00150203
0.00113695
0.00197344
0.00142293
0.00250824
0.00173203
0.00310361
0.00206212
0.00375552
0.0024109
0.00445878
0.0027759
0.00520716
0.00315449
0.00599363
0.00354393
0.00681055
0.00394146
0.00765001
0.00434439
0.00850414
0.00475019
0.00936552
0.00515664
0.0102262
0.0055634
0.0059761
0.0110704
2.35223e-05
4.74796e-06
9.48116e-05
5.61347e-05
0.000216752
0.000143552
0.000392229
0.00026267
0.000624048
0.000410666
0.000914778
0.000585399
0.00126659
0.000785138
0.00168109
0.00100842
0.00215919
0.00125393
0.00270096
0.00152035
0.00330556
0.0018063
0.00397121
0.00211025
0.00469521
0.00243049
0.00547411
0.00276504
0.00630391
0.00311166
0.00718054
0.00346777
0.00810049
0.00383024
0.00906277
0.00419435
0.0100742
0.00455193
0.0048974
0.0111529
1.74753e-05
-1.27273e-05
7.17981e-05
1.81192e-06
0.000166439
4.8911e-05
0.000304838
0.000124271
0.000490424
0.00022508
0.000726535
0.000349288
0.00101633
0.000495347
0.00136266
0.000662085
0.00176802
0.000848574
0.00223436
0.00105401
0.00276302
0.00127764
0.00335466
0.00151862
0.00400915
0.001776
0.00472553
0.00204865
0.00550206
0.00233513
0.00633624
0.00263359
0.00722505
0.00294143
0.00816516
0.00325424
0.0091538
0.00356329
0.00384678
0.0102044
1.17178e-05
-2.44451e-05
4.97289e-05
-3.61992e-05
0.000117807
-1.91674e-05
0.000219675
2.24028e-05
0.000359006
8.57497e-05
0.00053942
0.000168874
0.000764455
0.000270313
0.00103751
0.000389028
0.0013618
0.000524288
0.00174025
0.000675561
0.00217546
0.000842424
0.00266959
0.00102448
0.00322431
0.00122129
0.0038407
0.00143226
0.00451931
0.00165652
0.0052602
0.0018927
0.0060633
0.00213834
0.00692893
0.00238861
0.00785927
0.00263295
0.00284511
0.00886095
6.27124e-06
-3.07163e-05
2.88348e-05
-5.87628e-05
7.17317e-05
-6.20643e-05
0.000138801
-4.46663e-05
0.000233754
-9.20391e-06
0.000360216
4.24123e-05
0.000521725
0.000108803
0.000721745
0.000189008
0.000963643
0.00028239
0.00125067
0.000388539
0.0015859
0.000507187
0.00197225
0.000638133
0.00241239
0.000781155
0.00290876
0.000935893
0.0034636
0.00110168
0.00407907
0.00127722
0.00475742
0.00145999
0.00550105
0.00164498
0.00631208
0.00182192
0.00196784
0.00718934
1.18771e-06
-3.1904e-05
9.48707e-06
-6.70621e-05
2.92171e-05
-8.17943e-05
6.43057e-05
-7.97549e-05
0.000118426
-6.33242e-05
0.000195065
-3.42272e-05
0.000297581
6.28727e-06
0.000429241
5.73482e-05
0.000593238
0.000118394
0.000792709
0.000189068
0.00103074
0.00026916
0.00131035
0.000358519
0.00163454
0.000456968
0.00200625
0.000564178
0.00242846
0.00067947
0.00290419
0.000801495
0.00343646
0.000927711
0.00402794
0.0010535
0.00467962
0.00117024
0.00126086
0.0053866
-3.37958e-06
-2.85245e-05
-7.70243e-06
-6.27393e-05
-8.3197e-06
-8.1177e-05
-1.2006e-06
-8.6874e-05
1.72774e-05
-8.18023e-05
5.04425e-05
-6.73922e-05
0.000101414
-4.46838e-05
0.000173161
-1.43994e-05
0.000268573
2.29814e-05
0.000390483
6.71582e-05
0.000541702
0.000117941
0.000725037
0.000175183
0.000943313
0.000238692
0.00119938
0.000308112
0.0014961
0.000382747
0.0018363
0.000461295
0.00222252
0.00054149
0.00265643
0.000619593
0.00313746
0.000689216
0.000739026
0.00365929
-7.18559e-06
-2.13389e-05
-2.18668e-05
-4.80581e-05
-3.90436e-05
-6.40003e-05
-5.45649e-05
-7.13527e-05
-6.48367e-05
-7.15305e-05
-6.66689e-05
-6.556e-05
-5.71628e-05
-5.41898e-05
-3.36197e-05
-3.79426e-05
6.53e-06
-1.71683e-05
6.57818e-05
7.90636e-06
0.000146599
3.7124e-05
0.000251427
7.03553e-05
0.000382702
0.000107417
0.00054283
0.000147985
0.00073411
0.000191467
0.000958583
0.000236822
0.0012177
0.000282369
0.00151176
0.000325538
0.00183875
0.000362225
0.000385736
0.00219204
-9.94277e-06
-1.13961e-05
-3.20344e-05
-2.59665e-05
-6.09735e-05
-3.50611e-05
-9.24989e-05
-3.98274e-05
-0.000123024