/*--------------------------------*- C++ -*----------------------------------*\
  =========                 |
  \\      /  F ield         | OpenFOAM: The Open Source CFD Toolbox
   \\    /   O peration     | Website:  https://openfoam.org
    \\  /    A nd           | Version:  7
     \\/     M anipulation  |
\*---------------------------------------------------------------------------*/
FoamFile
{
    version     2.0;
    format      ascii;
    class       volVectorField;
    location    "20";
    object      U;
}
// * * * * * * * * * * * * * * * * * * * * * * * * * * * * * * * * * * * * * //

dimensions      [0 1 -1 0 0 0 0];

internalField   nonuniform List<vector> 
10880
(
(-0.00106271 0.00164497 -5.61547e-20)
(-0.00433355 0.00353795 2.34714e-21)
(-0.00954748 0.0044397 -6.58002e-20)
(-0.015302 0.00465788 -3.73052e-20)
(-0.0207242 0.00439695 2.34498e-20)
(-0.0253782 0.00379602 -4.01569e-21)
(-0.0289951 0.00295539 2.60956e-20)
(-0.0314003 0.00194774 -5.07105e-21)
(-0.0324923 0.000825437 -4.3309e-20)
(-0.0322215 -0.000373182 1.15066e-19)
(-0.0305737 -0.00161869 1.5004e-20)
(-0.0275602 -0.00288613 -2.54428e-20)
(-0.0232136 -0.00415078 -5.14022e-20)
(-0.0175884 -0.00538405 5.32433e-21)
(-0.0107665 -0.00654897 4.96625e-20)
(-0.00286882 -0.00759622 -4.3403e-20)
(0.0059342 -0.00846189 6.51826e-20)
(0.0154261 -0.00906545 -5.0411e-20)
(0.0253278 -0.00929371 -5.37094e-20)
(0.0350691 -0.00899125 6.47933e-20)
(-0.00157606 0.00469036 -1.16064e-19)
(-0.00513803 0.0100427 1.42596e-19)
(-0.00988813 0.0125556 2.39199e-20)
(-0.0146535 0.0131075 9.05857e-20)
(-0.018707 0.0122847 9.82895e-20)
(-0.0216968 0.0104886 -2.01982e-19)
(-0.0234134 0.0080093 -5.67502e-20)
(-0.0237272 0.00505701 4.80535e-20)
(-0.0225697 0.00178318 -2.10685e-19)
(-0.0199159 -0.00170155 8.7976e-21)
(-0.0157705 -0.00531271 2.16948e-19)
(-0.0101593 -0.00897918 -2.83838e-20)
(-0.00312622 -0.0126314 -4.23009e-20)
(0.00526568 -0.0161892 -1.14268e-21)
(0.0149278 -0.0195482 4.69166e-20)
(0.0257301 -0.0225669 1.22786e-19)
(0.0374866 -0.0250574 4.24856e-20)
(0.0499961 -0.0267688 -2.39343e-21)
(0.063082 -0.0273279 -2.25478e-19)
(0.0759191 -0.0262595 -1.50777e-19)
(-0.00244806 0.00704186 -6.1926e-20)
(-0.00638794 0.0149213 6.93241e-20)
(-0.0100986 0.0184931 -8.37463e-20)
(-0.0128307 0.0190832 -1.77736e-19)
(-0.0141282 0.0175835 1.6951e-19)
(-0.0137966 0.0146131 1.88876e-19)
(-0.0117395 0.0106207 6.37717e-20)
(-0.00791262 0.00593185 -9.42357e-20)
(-0.00231168 0.00078087 -9.78508e-21)
(0.00503967 -0.00466135 1.29995e-19)
(0.0140992 -0.0102654 -1.1576e-19)
(0.0248106 -0.0159246 9.17083e-20)
(0.0371044 -0.021537 -3.72301e-20)
(0.0508967 -0.0269862 3.31702e-19)
(0.0660815 -0.0321196 -4.86526e-19)
(0.0825067 -0.0367249 -1.24368e-19)
(0.0999503 -0.0405067 4.47085e-19)
(0.118221 -0.0430276 -4.02765e-19)
(0.137333 -0.0435591 -3.30693e-21)
(0.156053 -0.0412529 -7.51977e-20)
(-0.00339569 0.00835957 3.69107e-20)
(-0.00741581 0.0173624 3.51962e-19)
(-0.00929088 0.0211554 -4.01421e-19)
(-0.00882858 0.0213355 9.94468e-20)
(-0.00593432 0.0189889 -1.24713e-20)
(-0.000626985 0.0148861 3.88085e-20)
(0.00703472 0.00958797 2.37743e-19)
(0.0169751 0.00350097 -2.72597e-19)
(0.0291068 -0.00308152 -7.61829e-21)
(0.0433346 -0.00994619 -4.65917e-19)
(0.0595578 -0.0169334 -5.10724e-20)
(0.0776698 -0.023915 6.17333e-20)
(0.0975567 -0.0307731 2.47648e-19)
(0.119095 -0.037377 -1.38205e-19)
(0.142141 -0.0435548 4.26266e-19)
(0.166502 -0.0490611 -6.1183e-19)
(0.191891 -0.0535347 7.34879e-19)
(0.218091 -0.0563613 -5.07988e-19)
(0.245357 -0.0563342 3.17514e-19)
(0.272068 -0.0520791 1.62709e-19)
(-0.00405086 0.00845622 1.21057e-19)
(-0.00733216 0.0169057 4.6543e-20)
(-0.00625528 0.0199173 2.50473e-19)
(-0.00125191 0.0191607 -1.45235e-19)
(0.00736023 0.0157883 -6.68468e-20)
(0.0193134 0.0106425 5.59515e-19)
(0.0343633 0.00433967 -8.82029e-19)
(0.052287 -0.00267399 7.09535e-19)
(0.0728804 -0.0100765 3.25061e-19)
(0.0959519 -0.0176342 -6.91003e-19)
(0.121317 -0.0251745 1.77935e-19)
(0.148794 -0.0325628 7.16471e-20)
(0.178196 -0.039682 7.84802e-19)
(0.20933 -0.0464093 -8.53843e-19)
(0.241986 -0.0525864 -2.52452e-19)
(0.275902 -0.0579848 6.55755e-19)
(0.310695 -0.0622503 -5.44498e-19)
(0.346056 -0.0646659 3.71221e-19)
(0.38247 -0.063479 3.21561e-19)
(0.418149 -0.0565243 -1.09883e-18)
(-0.0040065 0.00730807 -3.82507e-19)
(-0.00512487 0.0134863 1.2146e-19)
(0.000417771 0.0147085 -1.70421e-19)
(0.0115556 0.012523 4.82551e-22)
(0.0275429 0.00801695 4.64051e-19)
(0.047845 0.00202162 -9.03662e-19)
(0.0720115 -0.00485237 8.0919e-19)
(0.0996486 -0.0121663 -7.27604e-19)
(0.130408 -0.0196049 7.45065e-19)
(0.163973 -0.0269403 -6.53064e-19)
(0.200043 -0.0340068 3.60307e-19)
(0.238323 -0.0406803 -8.75634e-19)
(0.278518 -0.0468605 1.09544e-18)
(0.320323 -0.0524519 8.96744e-20)
(0.363418 -0.0573385 -2.78298e-19)
(0.407436 -0.0613565 -5.39745e-19)
(0.451872 -0.0642479 -2.95389e-20)
(0.49627 -0.0653428 6.00083e-19)
(0.541259 -0.0624273 2.95477e-19)
(0.585281 -0.0522986 -6.40058e-19)
(-0.00285373 0.00503943 -1.24875e-19)
(0.000246475 0.00742455 -5.52601e-20)
(0.0122036 0.00602811 -8.51573e-20)
(0.0313452 0.00209983 4.51439e-20)
(0.0565067 -0.00346402 -6.17078e-19)
(0.0868795 -0.00992576 1.18191e-18)
(0.12179 -0.0167446 -1.40621e-20)
(0.160649 -0.0235403 -4.28745e-20)
(0.202932 -0.0300443 -4.23817e-19)
(0.248158 -0.0360675 -8.08855e-20)
(0.295867 -0.0414775 -1.26802e-19)
(0.345607 -0.0461829 -7.14101e-19)
(0.396922 -0.0501183 6.75838e-19)
(0.449349 -0.0532309 -5.87471e-19)
(0.502411 -0.0554634 3.51849e-19)
(0.55559 -0.0567423 -3.06288e-19)
(0.608246 -0.0569611 5.62563e-19)
(0.659765 -0.0556356 -4.16085e-19)
(0.710824 -0.0503653 1.49325e-19)
(0.760604 -0.0371821 7.59911e-19)
(-0.000204076 0.00189414 1.47492e-19)
(0.00977129 -0.000622134 -1.44142e-20)
(0.0305005 -0.0050992 -2.44292e-19)
(0.0597569 -0.0107496 3.3091e-20)
(0.0959781 -0.0169883 5.24348e-19)
(0.138078 -0.023253 -1.01095e-18)
(0.185141 -0.0291384 5.88226e-19)
(0.236351 -0.0343793 -3.16797e-20)
(0.290969 -0.0388032 4.29548e-19)
(0.348304 -0.0423026 -4.78004e-19)
(0.407691 -0.0448184 3.9004e-19)
(0.468476 -0.0463258 -1.0244e-18)
(0.530008 -0.0468234 -5.68005e-19)
(0.591637 -0.0463212 1.17725e-18)
(0.652713 -0.0448298 -4.71454e-19)
(0.712569 -0.0423584 -3.03399e-19)
(0.770467 -0.0389064 4.11251e-19)
(0.8257 -0.0341452 8.90283e-19)
(0.878664 -0.0261015 -5.3398e-19)
(0.929376 -0.012359 -1.44254e-19)
(0.00429135 -0.00178875 3.00461e-19)
(0.024308 -0.0097088 -2.87072e-19)
(0.0564744 -0.017193 -2.3049e-19)
(0.0980746 -0.0240777 -6.56572e-19)
(0.147179 -0.030205 5.7512e-19)
(0.202417 -0.0352708 7.99154e-19)
(0.262607 -0.0390768 -4.03215e-19)
(0.326669 -0.0415385 4.6945e-19)
(0.393606 -0.0426413 -1.64877e-19)
(0.462475 -0.0424187 5.03318e-20)
(0.532371 -0.0409414 8.28319e-19)
(0.602418 -0.0383072 -1.12507e-18)
(0.671778 -0.0346305 -4.03166e-20)
(0.739658 -0.030031 2.30385e-19)
(0.805324 -0.0246238 8.43134e-20)
(0.868126 -0.0185049 -8.54702e-20)
(0.927539 -0.0116925 2.4473e-19)
(0.983237 -0.00398414 -1.34891e-19)
(1.03487 0.00460848 -7.583e-19)
(1.08141 0.0113744 6.88532e-19)
(0.0109226 -0.00558533 2.36079e-19)
(0.0444934 -0.0186517 7.74758e-20)
(0.0908781 -0.0284177 -2.33111e-19)
(0.146957 -0.0355029 2.73417e-19)
(0.210469 -0.0402947 -6.21903e-19)
(0.279751 -0.0428347 1.31646e-18)
(0.353328 -0.0432104 -8.96467e-19)
(0.429823 -0.0415925 -4.87366e-19)
(0.507947 -0.038195 1.28919e-18)
(0.586479 -0.03326 -1.01574e-18)
(0.664267 -0.027052 1.24589e-18)
(0.74023 -0.0198512 -1.52329e-18)
(0.813374 -0.0119453 5.12382e-19)
(0.882817 -0.00362137 6.00395e-19)
(0.947806 0.00483959 -5.17203e-19)
(1.00774 0.0131716 -1.05308e-20)
(1.06222 0.0211551 -8.00505e-20)
(1.11102 0.0285776 -5.91362e-19)
(1.15374 0.0345554 4.30952e-19)
(1.18955 0.0372324 -1.19807e-19)
(0.0198848 -0.00899579 -3.13343e-19)
(0.0706363 -0.0260816 1.18256e-19)
(0.133874 -0.0367008 -5.35072e-21)
(0.206195 -0.0424136 -4.66881e-19)
(0.285054 -0.0442692 6.27055e-19)
(0.368503 -0.0427464 -8.60886e-19)
(0.454762 -0.0383002 7.87709e-20)
(0.542156 -0.0314314 2.5198e-19)
(0.629114 -0.0226474 -3.47059e-19)
(0.714181 -0.0124498 6.39671e-19)
(0.796029 -0.00133062 1.76298e-19)
(0.87348 0.0102362 7.32623e-20)
(0.945532 0.0218063 -7.26591e-19)
(1.01139 0.0329755 7.36812e-19)
(1.07046 0.043389 -3.93887e-19)
(1.12239 0.0527522 2.9062e-19)
(1.16703 0.0608489 -6.08707e-19)
(1.20444 0.0674883 -3.44492e-19)
(1.23451 0.0721457 4.09049e-19)
(1.2568 0.0745158 1.06273e-19)
(0.031229 -0.011453 -3.05296e-19)
(0.102594 -0.0305106 4.21302e-19)
(0.184863 -0.0398892 8.86738e-20)
(0.274517 -0.0422258 -7.7098e-20)
(0.368814 -0.0393364 2.08647e-19)
(0.465551 -0.032224 5.13519e-19)
(0.562689 -0.0217868 -2.6504e-19)
(0.65831 -0.00891554 -1.99437e-19)
(0.750662 0.0055481 -5.20409e-19)
(0.838191 0.0208263 4.57061e-19)
(0.919572 0.0362113 -2.40548e-19)
(0.99375 0.0510768 1.0162e-20)
(1.05996 0.0648914 1.11268e-18)
(1.11773 0.0772297 -7.76949e-19)
(1.16691 0.0877783 6.8492e-19)
(1.20761 0.096341 -7.05616e-20)
(1.24019 0.102841 9.62801e-20)
(1.26516 0.107271 -2.23313e-19)
(1.28299 0.109497 -7.7527e-20)
(1.29401 0.109933 -4.08005e-19)
(0.0448058 -0.0123504 1.75627e-19)
(0.139662 -0.0304412 1.12833e-19)
(0.242373 -0.0359491 -7.30735e-20)
(0.349527 -0.0326735 -9.76152e-19)
(0.45832 -0.0232681 2.95012e-19)
(0.566397 -0.00932383 -7.14424e-20)
(0.671571 0.00777359 -3.99756e-20)
(0.77184 0.0267251 -5.12756e-20)
(0.865463 0.0463691 8.41238e-20)
(0.951025 0.065701 -6.19223e-19)
(1.02748 0.0838804 3.30005e-19)
(1.09415 0.100241 -5.04144e-19)
(1.15079 0.1143 6.51456e-20)
(1.19751 0.125753 -2.65814e-19)
(1.23474 0.13447 -9.83476e-20)
(1.2632 0.140476 5.047e-19)
(1.28378 0.143935 -5.43273e-19)
(1.29744 0.14508 8.31624e-20)
(1.30507 0.144105 2.13793e-19)
(1.30736 0.141763 -2.26862e-19)
(0.0602228 -0.011095 2.71902e-19)
(0.180513 -0.0245202 -4.21842e-20)
(0.304041 -0.0232064 -3.48274e-19)
(0.427783 -0.0121118 -4.793e-20)
(0.549078 0.00526496 6.11862e-19)
(0.665598 0.0267355 -2.5482e-19)
(0.775217 0.0504448 2.40715e-19)
(0.876098 0.074742 -2.69382e-19)
(0.966798 0.0982417 1.27276e-19)
(1.04634 0.119844 -1.21373e-19)
(1.11423 0.138734 5.38827e-19)
(1.17046 0.154376 -3.31492e-19)
(1.21548 0.166501 -3.69869e-20)
(1.25008 0.175075 -4.32817e-20)
(1.27535 0.180263 7.18151e-20)
(1.29252 0.182381 -1.09934e-19)
(1.3029 0.181851 2.47606e-19)
(1.30774 0.179125 7.68147e-21)
(1.30809 0.174618 -3.69497e-19)
(1.30473 0.169163 -1.12596e-19)
(0.0768277 -0.00718211 -2.1161e-19)
(0.223218 -0.0117262 1.67658e-19)
(0.366731 -0.00059834 5.88595e-20)
(0.505062 0.0202107 -7.44432e-20)
(0.635959 0.0464494 -2.01695e-20)
(0.757385 0.0754107 8.59187e-20)
(0.867569 0.104882 -6.76358e-20)
(0.965153 0.133015 2.92335e-19)
(1.04931 0.158386 -2.01764e-19)
(1.11977 0.180005 9.64887e-20)
(1.17686 0.197292 -2.17201e-19)
(1.22136 0.210031 2.10021e-19)
(1.25447 0.218315 8.52926e-20)
(1.27765 0.222484 -2.35238e-19)
(1.29248 0.223044 2.38444e-19)
(1.30056 0.220598 -9.58814e-20)
(1.30335 0.215777 4.1883e-20)
(1.30215 0.209175 3.76254e-20)
(1.29797 0.201328 2.00207e-21)
(1.29146 0.192948 3.77451e-20)
(0.0937311 -0.000280204 -9.74356e-20)
(0.265358 0.00844322 1.6189e-19)
(0.426777 0.0321054 -9.9552e-20)
(0.576745 0.0639596 8.00081e-20)
(0.713739 0.0992203 -1.02732e-19)
(0.836331 0.134855 -1.52141e-20)
(0.943432 0.168514 4.39619e-20)
(1.03448 0.198398 -1.66095e-20)
(1.10953 0.223305 -1.74866e-20)
(1.16925 0.2426 8.6972e-20)
(1.21484 0.256139 -1.30675e-20)
(1.24791 0.264178 -4.73044e-20)
(1.27029 0.267265 9.48244e-20)
(1.28394 0.266134 -7.13506e-20)
(1.29072 0.2616 1.61865e-20)
(1.29232 0.254478 -2.14077e-20)
(1.2902 0.245515 6.01136e-20)
(1.28549 0.235359 -4.72046e-20)
(1.27901 0.224573 -6.86127e-21)
(1.27121 0.213588 -1.13156e-20)
(0.109869 0.00969113 5.65895e-20)
(0.304226 0.0358207 -1.72292e-19)
(0.480323 0.0741617 1.04316e-19)
(0.638295 0.117645 -1.60574e-20)
(0.777663 0.16131 2.99859e-20)
(0.897929 0.202107 -5.06454e-20)
(0.998989 0.237869 -3.28143e-20)
(1.08132 0.267159 6.80788e-21)
(1.14603 0.289277 7.91828e-20)
(1.19475 0.304169 -1.12434e-19)
(1.22954 0.312285 1.62231e-20)
(1.25266 0.314428 2.37057e-20)
(1.26641 0.311603 -3.39126e-20)
(1.27298 0.304883 8.99748e-20)
(1.2743 0.295304 -3.12562e-20)
(1.27196 0.283785 2.36448e-20)
(1.26722 0.271089 -5.05374e-20)
(1.261 0.257842 1.30496e-20)
(1.25384 0.244566 2.10152e-20)
(1.24605 0.231309 1.2016e-20)
(0.124102 0.0225064 1.11938e-19)
(0.337092 0.0694904 9.8776e-20)
(0.523718 0.123825 -3.41515e-20)
(0.685721 0.178693 -1.19478e-19)
(0.823919 0.229438 -6.35182e-20)
(0.938999 0.273401 1.5025e-19)
(1.03204 0.308965 6.13761e-20)
(1.10469 0.335387 -1.22663e-19)
(1.15908 0.352718 4.89059e-20)
(1.19775 0.361647 -4.61145e-22)
(1.22343 0.363287 1.62725e-19)
(1.23881 0.358977 -6.35694e-20)
(1.24642 0.350106 -1.44947e-19)
(1.24844 0.337986 1.67304e-19)
(1.24668 0.323755 -6.78859e-20)
(1.24254 0.308332 9.79857e-20)
(1.23701 0.292412 -3.28002e-20)
(1.23073 0.276551 8.34309e-21)
(1.22403 0.261192 -1.6425e-20)
(1.21711 0.245984 -1.19172e-20)
(0.135326 0.0376142 -1.13585e-19)
(0.361487 0.107799 -2.32341e-19)
(0.553895 0.178442 3.67845e-19)
(0.715972 0.243646 2.03786e-19)
(0.849967 0.299613 -5.90588e-19)
(0.957875 0.344521 3.4715e-19)
(1.04201 0.377679 8.03059e-20)
(1.10513 0.399313 1.34874e-19)
(1.15029 0.410403 -9.94227e-22)
(1.18071 0.412448 -1.02881e-20)
(1.19954 0.407202 -2.67428e-19)
(1.20966 0.396457 1.79077e-19)
(1.21359 0.381873 6.17119e-20)
(1.21336 0.364874 -3.173e-20)
(1.21055 0.346595 -7.97026e-20)
(1.20629 0.327873 9.88536e-21)
(1.20132 0.309291 -2.11507e-20)
(1.19605 0.291307 -2.29452e-21)
(1.19057 0.274284 6.00586e-20)
(1.1851 0.25747 -7.27442e-23)
(0.142602 0.0541583 -2.59361e-19)
(0.375471 0.148458 -1.13707e-19)
(0.568678 0.234652 -1.15797e-19)
(0.727213 0.308451 2.99293e-19)
(0.854703 0.367475 2.6098e-20)
(0.954404 0.41116 -1.07158e-19)
(1.02976 0.440048 -1.84827e-19)
(1.08444 0.455522 -1.59618e-20)
(1.12218 0.459565 1.00702e-21)
(1.14661 0.454453 2.14502e-19)
(1.16103 0.442489 -2.10649e-19)
(1.16832 0.425791 4.38975e-20)
(1.17079 0.406157 -9.98115e-20)
(1.17025 0.385013 3.80359e-20)
(1.16799 0.363407 1.45028e-21)
(1.1649 0.342045 -5.47049e-20)
(1.16151 0.321379 1.5423e-20)
(1.15801 0.301794 -1.23599e-20)
(1.15434 0.283556 1.99622e-20)
(1.15086 0.26543 -1.11729e-20)
(0.145257 0.0710381 1.09021e-19)
(0.377841 0.188728 1.30568e-19)
(0.567 0.288671 -1.60368e-19)
(0.718953 0.368804 2.26591e-19)
(0.838459 0.428649 5.61512e-20)
(0.929811 0.469224 -2.75354e-19)
(0.997321 0.492498 6.60428e-20)
(1.04528 0.501082 5.79567e-20)
(1.0778 0.49792 7.70888e-20)
(1.09863 0.485965 -4.89455e-20)
(1.11101 0.467923 7.54191e-20)
(1.11762 0.446092 1.96927e-20)
(1.12051 0.422291 1.37725e-20)
(1.12119 0.397856 1.57341e-21)
(1.12071 0.373699 9.56277e-21)
(1.11974 0.350371 1.12197e-20)
(1.11864 0.328196 -4.85065e-21)
(1.11747 0.307494 4.3643e-20)
(1.11609 0.28846 -1.60831e-20)
(1.11506 0.269491 -1.59609e-19)
(0.142969 0.0870058 3.20307e-19)
(0.368259 0.225652 -2.28098e-19)
(0.548989 0.336609 1.01154e-20)
(0.692047 0.420493 -1.83071e-19)
(0.802882 0.479052 -1.64061e-19)
(0.886471 0.515077 2.47035e-19)
(0.947629 0.532001 -2.70643e-20)
(0.990915 0.533611 -7.75167e-21)
(1.0205 0.52368 1.41693e-20)
(1.04 0.505675 -3.07276e-20)
(1.05245 0.482548 -1.38947e-21)
(1.06019 0.456644 3.84073e-20)
(1.06498 0.429698 -9.40697e-20)
(1.06805 0.402902 1.5513e-19)
(1.07021 0.377001 3.15601e-20)
(1.07199 0.352395 4.25934e-20)
(1.07365 0.329293 -2.18979e-19)
(1.07518 0.307958 -1.06922e-19)
(1.07641 0.288548 4.98443e-19)
(1.07825 0.269261 -1.91072e-19)
(0.135777 0.100762 -2.39495e-20)
(0.347304 0.256318 -2.25679e-20)
(0.515955 0.374778 1.22663e-19)
(0.648564 0.459719 5.61664e-20)
(0.750736 0.515186 2.04963e-20)
(0.827673 0.545729 4.35895e-21)
(0.88426 0.556175 1.45861e-20)
(0.924975 0.551308 7.11789e-20)
(0.953766 0.535536 -5.2351e-20)
(0.973953 0.512646 -1.55336e-20)
(0.988192 0.485679 3.15531e-19)
(0.998492 0.456912 1.62408e-20)
(1.0063 0.42793 2.7068e-19)
(1.01259 0.399749 8.58784e-20)
(1.01802 0.372946 -1.69763e-19)
(1.02297 0.347788 1.51263e-19)
(1.02766 0.32438 7.80577e-20)
(1.03209 0.302901 -2.98284e-19)
(1.03625 0.283491 6.14522e-20)
(1.04129 0.26453 -1.47665e-19)
(0.124189 0.111028 9.54969e-20)
(0.316444 0.278024 -2.78585e-20)
(0.47023 0.400005 1.37243e-20)
(0.5916 0.48334 -1.74409e-19)
(0.685667 0.534287 3.64624e-20)
(0.757341 0.558971 1.44237e-19)
(0.811183 0.563363 -2.64709e-19)
(0.851273 0.552995 2.73912e-19)
(0.881119 0.53267 1.73532e-19)
(0.9036 0.506304 1.22268e-19)
(0.920962 0.476882 2.14533e-19)
(0.934865 0.446529 -5.64018e-19)
(0.946478 0.416639 -3.4906e-19)
(0.956583 0.388044 2.17801e-19)
(0.965688 0.361176 1.50885e-19)
(0.974111 0.336203 -2.03293e-19)
(0.982046 0.31314 2.03641e-19)
(0.989641 0.292007 -5.02953e-20)
(0.997185 0.273028 -4.02186e-19)
(1.00555 0.255865 5.44206e-19)
(0.109017 0.116821 2.49243e-20)
(0.277831 0.288679 -1.42334e-19)
(0.415015 0.409842 6.61016e-20)
(0.525037 0.489092 1.22399e-19)
(0.611907 0.53451 1.28839e-19)
(0.679786 0.553442 -4.43519e-19)
(0.732558 0.552656 6.26437e-19)
(0.773653 0.538116 5.84859e-19)
(0.805989 0.514768 -4.7143e-20)
(0.831931 0.486468 -1.86514e-19)
(0.853304 0.456025 7.89387e-19)
(0.871445 0.425342 -8.46824e-19)
(0.887292 0.395594 -4.71274e-20)
(0.901478 0.367417 7.78588e-19)
(0.914414 0.341088 -5.23219e-19)
(0.926344 0.316665 -7.04906e-20)
(0.93746 0.29402 9.07097e-20)
(0.948174 0.272756 8.07719e-19)
(0.958961 0.252521 -7.27181e-19)
(0.968037 0.234898 -1.59567e-19)
(0.0913698 0.11736 1.93031e-19)
(0.234225 0.286823 1.56849e-20)
(0.354113 0.402761 -5.00917e-19)
(0.453246 0.47571 7.78129e-21)
(0.534024 0.51499 -3.12715e-19)
(0.599487 0.528682 1.17647e-19)
(0.652572 0.523926 1.59884e-19)
(0.695894 0.506782 -4.03362e-19)
(0.731697 0.482092 5.45482e-19)
(0.76181 0.45349 1.47769e-19)
(0.787655 0.423526 4.15237e-19)
(0.810281 0.393852 -1.42571e-18)
(0.830436 0.365436 4.97148e-19)
(0.848636 0.338759 -1.8794e-19)
(0.865225 0.313996 1.90779e-19)
(0.880425 0.291145 -6.56428e-19)
(0.894444 0.270069 6.68062e-19)
(0.90764 0.250436 -7.71683e-19)
(0.920135 0.231955 4.45491e-19)
(0.930123 0.215602 5.28406e-19)
(0.0725753 0.112226 -5.02274e-19)
(0.188734 0.271786 3.92705e-19)
(0.291647 0.378234 2.55002e-19)
(0.38081 0.442982 6.30828e-20)
(0.456663 0.475856 3.63313e-19)
(0.520878 0.485098 -6.04032e-19)
(0.575291 0.477767 8.78465e-19)
(0.621626 0.459675 -5.05281e-19)
(0.661434 0.435328 3.53928e-19)
(0.696035 0.408005 -9.20125e-19)
(0.726491 0.379933 7.91374e-19)
(0.753617 0.352499 -6.99497e-19)
(0.778022 0.326474 1.17245e-18)
(0.800148 0.302211 -3.05673e-19)
(0.820316 0.279804 -4.83868e-19)
(0.838752 0.25921 -3.92597e-19)
(0.855684 0.240286 -6.06734e-20)
(0.871429 0.222774 9.32359e-19)
(0.886046 0.206479 4.83806e-19)
(0.898181 0.19206 -6.5623e-19)
(0.0540547 0.101392 3.79839e-20)
(0.144582 0.243739 1.03236e-19)
(0.231784 0.336764 1.15195e-19)
(0.312241 0.391745 -3.76447e-19)
(0.38429 0.418206 2.06657e-19)
(0.448137 0.423944 6.00303e-19)
(0.504479 0.415481 -9.7987e-19)
(0.554154 0.398063 4.3803e-19)
(0.598061 0.375656 1.81004e-19)
(0.637061 0.351076 -1.13194e-18)
(0.671914 0.326182 4.11003e-19)
(0.703252 0.302092 -4.45798e-19)
(0.731584 0.279402 1.16459e-18)
(0.757315 0.258357 -7.72633e-19)
(0.780757 0.238999 -2.38565e-19)
(0.802162 0.221259 5.6361e-19)
(0.821772 0.205006 -7.96887e-19)
(0.839884 0.190036 5.52588e-19)
(0.856586 0.176189 5.0253e-19)
(0.870957 0.163833 -1.23598e-18)
(0.0372103 0.0852243 -1.72438e-19)
(0.104877 0.203687 5.75363e-19)
(0.17846 0.279853 -6.35507e-19)
(0.251727 0.323829 -1.74417e-19)
(0.32098 0.344036 -2.84352e-19)
(0.385024 0.347245 6.42632e-20)
(0.44349 0.339021 -3.26381e-20)
(0.496411 0.323758 4.32772e-19)
(0.544115 0.304717 1.07665e-19)
(0.58708 0.284166 -8.62079e-19)
(0.625826 0.263568 -8.84183e-20)
(0.660847 0.243781 3.23748e-19)
(0.692587 0.225241 4.04693e-19)
(0.72143 0.208111 -5.47714e-19)
(0.7477 0.192399 1.08915e-18)
(0.771669 0.178035 -8.11782e-19)
(0.793599 0.164904 9.72702e-19)
(0.813772 0.152854 -8.12987e-19)
(0.832318 0.141751 3.84441e-19)
(0.848696 0.131749 1.98133e-19)
(0.0233175 0.0644609 -1.9302e-19)
(0.0723992 0.153404 2.10459e-19)
(0.135146 0.209901 6.64955e-20)
(0.202903 0.241946 -6.6126e-20)
(0.270229 0.256134 1.21299e-19)
(0.334732 0.257703 -6.08671e-21)
(0.395147 0.250904 4.03645e-20)
(0.45085 0.239045 -5.14777e-19)
(0.501712 0.224552 1.82853e-19)
(0.547917 0.209084 4.78694e-19)
(0.589804 0.193694 -5.89694e-19)
(0.627772 0.178984 2.4192e-19)
(0.662224 0.165252 -2.28706e-19)
(0.693537 0.152598 6.56836e-19)
(0.722046 0.141015 -8.23843e-19)
(0.748048 0.130442 -6.35519e-20)
(0.771817 0.120792 8.08766e-19)
(0.793625 0.111959 -7.44313e-19)
(0.813642 0.103837 -1.33042e-19)
(0.83165 0.0964614 -2.64773e-19)
(0.0134277 0.0401634 -2.37897e-19)
(0.0494098 0.0953106 2.32077e-19)
(0.104632 0.13006 -8.57778e-21)
(0.168667 0.149536 -1.0302e-19)
(0.234799 0.157937 2.50432e-19)
(0.299764 0.158575 -5.82935e-20)
(0.361655 0.154111 -1.03028e-19)
(0.419383 0.146603 2.27539e-20)
(0.472502 0.137543 -4.97892e-19)
(0.520995 0.12794 6.48233e-19)
(0.565083 0.11843 1.05895e-19)
(0.605106 0.109371 -2.26034e-19)
(0.641442 0.100932 -7.57609e-21)
(0.674466 0.0931703 2.53606e-19)
(0.704526 0.086074 4.40727e-20)
(0.731935 0.0796024 1.62135e-19)
(0.756977 0.073702 1.25854e-19)
(0.779916 0.0683094 -3.82382e-19)
(0.800953 0.0633573 9.40182e-20)
(0.820105 0.0588332 -2.23738e-19)
(0.00828872 0.0136409 -1.46584e-19)
(0.0375032 0.0323254 2.61064e-19)
(0.088873 0.044052 7.603e-20)
(0.151033 0.0505846 1.11566e-20)
(0.216596 0.0533652 1.41213e-19)
(0.281842 0.0535256 -1.15702e-19)
(0.344525 0.0519725 6.99747e-20)
(0.403317 0.0494033 -2.6613e-20)
(0.457611 0.0463214 -1.00891e-19)
(0.507286 0.0430665 1.57727e-19)
(0.552508 0.0398501 -7.49542e-20)
(0.593584 0.0367908 -8.98965e-20)
(0.630885 0.0339445 2.18218e-20)
(0.664785 0.0313285 -7.24328e-20)
(0.695638 0.0289384 3.81447e-20)
(0.723767 0.0267596 -5.56711e-20)
(0.749459 0.0247741 2.18911e-19)
(0.772975 0.022961 -7.2899e-20)
(0.794533 0.0212968 -2.49753e-20)
(0.814276 0.0197717 1.22541e-19)
(0.00828872 -0.0136409 1.46584e-19)
(0.0375032 -0.0323254 -2.61064e-19)
(0.088873 -0.044052 -6.3533e-20)
(0.151033 -0.0505846 8.2769e-20)
(0.216596 -0.0533652 -5.39112e-20)
(0.281842 -0.0535256 9.65176e-21)
(0.344525 -0.0519725 -5.53986e-20)
(0.403317 -0.0494033 1.10054e-20)
(0.457611 -0.0463214 8.62457e-20)
(0.507286 -0.0430665 -2.25087e-19)
(0.552508 -0.0398501 -2.5966e-20)
(0.593584 -0.0367908 4.89322e-20)
(0.630885 -0.0339445 9.3514e-20)
(0.664785 -0.0313285 -9.88017e-21)
(0.695638 -0.0289384 -8.82696e-20)
(0.723767 -0.0267596 7.52912e-20)
(0.749459 -0.0247741 -1.12425e-19)
(0.772975 -0.022961 8.63653e-20)
(0.794533 -0.0212968 8.96658e-20)
(0.814276 -0.0197717 -1.05947e-19)
(0.0134277 -0.0401634 2.28239e-19)
(0.0494098 -0.0953106 -3.35638e-19)
(0.104632 -0.13006 -4.06084e-19)
(0.168667 -0.149536 -1.94233e-19)
(0.234799 -0.157937 -2.09297e-19)
(0.299764 -0.158575 4.20508e-19)
(0.361655 -0.154111 1.14296e-19)
(0.419383 -0.146603 -9.48685e-20)
(0.472502 -0.137543 4.062e-19)
(0.520995 -0.12794 -2.60884e-20)
(0.565083 -0.11843 -4.05543e-19)
(0.605106 -0.109371 5.67713e-20)
(0.641442 -0.100932 7.22604e-20)
(0.674466 -0.0931703 7.69661e-22)
(0.704526 -0.086074 -7.80861e-20)
(0.731935 -0.0796024 -2.06271e-19)
(0.756977 -0.073702 -6.95461e-20)
(0.779916 -0.0683094 7.6335e-21)
(0.800953 -0.0633573 3.72246e-19)
(0.820105 -0.0588332 2.41229e-19)
(0.0233175 -0.0644609 1.34299e-19)
(0.0723992 -0.153404 -1.55047e-19)
(0.135146 -0.209901 3.35662e-19)
(0.202903 -0.241946 3.51707e-19)
(0.270229 -0.256134 -3.37631e-19)
(0.334732 -0.257703 -3.6516e-19)
(0.395147 -0.250904 -1.17347e-19)
(0.45085 -0.239045 1.86703e-19)
(0.501712 -0.224552 1.41086e-20)
(0.547917 -0.209084 -2.40084e-19)
(0.589804 -0.193694 2.10737e-19)
(0.627772 -0.178984 -1.53354e-19)
(0.662224 -0.165252 5.99373e-20)
(0.693537 -0.152598 -5.59124e-19)
(0.722046 -0.141015 8.06415e-19)
(0.748048 -0.130442 1.97164e-19)
(0.771817 -0.120792 -7.28378e-19)
(0.793625 -0.111959 6.4624e-19)
(0.813642 -0.103837 1.2915e-21)
(0.83165 -0.0964614 1.06935e-19)
(0.0372103 -0.0852243 -6.09852e-20)
(0.104877 -0.203687 -6.35193e-19)
(0.17846 -0.279853 5.18551e-19)
(0.251727 -0.323829 9.21628e-20)
(0.32098 -0.344036 3.94648e-20)
(0.385024 -0.347245 -5.85896e-20)
(0.44349 -0.339021 -3.78456e-19)
(0.496411 -0.323758 4.4748e-19)
(0.544115 -0.304717 4.72311e-21)
(0.58708 -0.284166 7.36599e-19)
(0.625826 -0.263568 9.16833e-20)
(0.660847 -0.243781 -1.04397e-19)
(0.692587 -0.225241 -3.89939e-19)
(0.72143 -0.208111 2.08393e-19)
(0.7477 -0.192399 -6.59248e-19)
(0.771669 -0.178035 9.24418e-19)
(0.793599 -0.164904 -1.11866e-18)
(0.813772 -0.152854 7.71e-19)
(0.832318 -0.141751 -4.79299e-19)
(0.848696 -0.131749 -2.25914e-19)
(0.0540547 -0.101392 -1.5555e-19)
(0.144582 -0.243739 -5.65717e-20)
(0.231784 -0.336764 -3.33765e-19)
(0.312241 -0.391745 3.19192e-19)
(0.38429 -0.418206 1.42109e-19)
(0.448137 -0.423944 -7.79188e-19)
(0.504479 -0.415481 1.28827e-18)
(0.554154 -0.398063 -1.02413e-18)
(0.598061 -0.375656 -4.64148e-19)
(0.637061 -0.351076 9.713e-19)
(0.671914 -0.326182 -2.35441e-19)
(0.703252 -0.302092 -8.75078e-20)
(0.731584 -0.279402 -1.09807e-18)
(0.757315 -0.258357 1.17825e-18)
(0.780757 -0.238999 3.27726e-19)
(0.802162 -0.221259 -9.09807e-19)
(0.821772 -0.205006 7.51805e-19)
(0.839884 -0.190036 -5.12545e-19)
(0.856586 -0.176189 -4.53163e-19)
(0.870957 -0.163833 1.5074e-18)
(0.0725753 -0.112226 5.08898e-19)
(0.188734 -0.271786 -1.60519e-19)
(0.291647 -0.378234 1.98502e-19)
(0.38081 -0.442982 2.61239e-21)
(0.456663 -0.475856 -3.79316e-19)
(0.520878 -0.485098 1.03218e-18)
(0.575291 -0.477767 -9.12872e-19)
(0.621626 -0.459675 8.39755e-19)
(0.661434 -0.435328 -8.4223e-19)
(0.696035 -0.408005 7.81118e-19)
(0.726491 -0.379933 -4.34762e-19)
(0.753617 -0.352499 1.07338e-18)
(0.778022 -0.326474 -1.32279e-18)
(0.800148 -0.302211 -1.18451e-19)
(0.820316 -0.279804 3.14113e-19)
(0.838752 -0.25921 6.61747e-19)
(0.855684 -0.240286 3.84543e-20)
(0.871429 -0.222774 -7.5355e-19)
(0.886046 -0.206479 -3.90163e-19)
(0.898181 -0.19206 8.07611e-19)
(0.0913698 -0.11736 1.41872e-19)
(0.234225 -0.286823 1.23858e-20)
(0.354113 -0.402761 9.77334e-20)
(0.453246 -0.47571 -3.32309e-20)
(0.534024 -0.51499 5.32834e-19)
(0.599487 -0.528682 -2.57526e-19)
(0.652572 -0.523926 2.82692e-20)
(0.695894 -0.506782 2.81088e-20)
(0.731697 -0.482092 3.88377e-19)
(0.76181 -0.45349 6.67323e-20)
(0.787655 -0.423526 1.2628e-19)
(0.810281 -0.393852 7.04469e-19)
(0.830436 -0.365436 -6.56727e-19)
(0.848636 -0.338759 5.87808e-19)
(0.865225 -0.313996 -3.73303e-19)
(0.880425 -0.291145 3.31192e-19)
(0.894444 -0.270069 -6.02915e-19)
(0.90764 -0.250436 4.65406e-19)
(0.920135 -0.231955 -1.72823e-19)
(0.930123 -0.215602 -8.53749e-19)
(0.109017 -0.116821 -5.18052e-20)
(0.277831 -0.288679 -2.02749e-20)
(0.415015 -0.409842 1.61285e-19)
(0.525037 -0.489092 -3.23039e-20)
(0.611907 -0.53451 -3.0359e-19)
(0.679786 -0.553442 4.92136e-19)
(0.732558 -0.552656 -5.36925e-19)
(0.773653 -0.538116 -4.22438e-19)
(0.805989 -0.514768 -3.18294e-19)
(0.831931 -0.486468 2.94623e-19)
(0.853304 -0.456025 -3.04278e-19)
(0.871445 -0.425342 7.62529e-19)
(0.887292 -0.395594 4.58375e-19)
(0.901478 -0.367417 -9.81661e-19)
(0.914414 -0.341088 3.92358e-19)
(0.926344 -0.316665 2.74218e-19)
(0.93746 -0.29402 -3.55586e-19)
(0.948174 -0.272756 -8.09535e-19)
(0.958961 -0.252521 4.69883e-19)
(0.968037 -0.234898 1.45666e-19)
(0.124189 -0.111028 -6.50516e-20)
(0.316444 -0.278024 7.97334e-21)
(0.47023 -0.400005 4.38019e-20)
(0.5916 -0.48334 1.00908e-19)
(0.685667 -0.534287 -8.68663e-20)
(0.757341 -0.558971 -1.99204e-19)
(0.811183 -0.563363 1.24339e-19)
(0.851273 -0.552995 -3.25141e-19)
(0.881119 -0.53267 -3.67347e-20)
(0.9036 -0.506304 -3.44382e-19)
(0.920962 -0.476882 -4.63541e-19)
(0.934865 -0.446529 5.82864e-19)
(0.946478 -0.416639 3.83574e-20)
(0.956583 -0.388044 -1.50191e-19)
(0.965688 -0.361176 -4.67681e-20)
(0.974111 -0.336203 6.9978e-20)
(0.982046 -0.31314 -1.47165e-19)
(0.989641 -0.292007 1.17686e-19)
(0.997185 -0.273028 5.4443e-19)
(1.00555 -0.255865 -5.10283e-19)
(0.135777 -0.100762 -8.95017e-21)
(0.347304 -0.256318 -2.13273e-20)
(0.515955 -0.374778 -1.24065e-20)
(0.648564 -0.459719 6.40518e-20)
(0.750736 -0.515186 -3.04894e-20)
(0.827673 -0.545729 3.92958e-20)
(0.88426 -0.556175 5.25823e-20)
(0.924975 -0.551308 6.77173e-20)
(0.953766 -0.535536 -1.98111e-19)
(0.973953 -0.512646 6.76333e-20)
(0.988192 -0.485679 -2.83964e-19)
(0.998492 -0.456912 -8.31917e-20)
(1.0063 -0.42793 -1.5383e-19)
(1.01259 -0.399749 -2.6204e-19)
(1.01802 -0.372946 2.10356e-19)
(1.02297 -0.347788 9.24891e-21)
(1.02766 -0.32438 4.65017e-20)
(1.03209 -0.302901 3.49502e-19)
(1.03625 -0.283491 -2.59568e-19)
(1.04129 -0.26453 8.87199e-20)
(0.142969 -0.0870058 -1.10556e-19)
(0.368259 -0.225652 8.22217e-21)
(0.548989 -0.336609 3.98935e-20)
(0.692047 -0.420493 -1.51281e-19)
(0.802882 -0.479052 1.72804e-19)
(0.886471 -0.515077 -1.87682e-19)
(0.947629 -0.532001 5.26337e-20)
(0.990915 -0.533611 3.66428e-20)
(1.02049 -0.52368 2.56623e-20)
(1.04 -0.505675 -2.49295e-20)
(1.05245 -0.482548 -2.36762e-20)
(1.06019 -0.456644 -3.73864e-20)
(1.06498 -0.429698 9.86993e-20)
(1.06805 -0.402902 -1.6847e-19)
(1.07021 -0.377001 -1.10473e-19)
(1.07199 -0.352395 -9.29674e-20)
(1.07365 -0.329293 2.0777e-19)
(1.07518 -0.307958 1.63532e-19)
(1.07641 -0.288548 -1.58742e-19)
(1.07825 -0.269261 -4.21335e-20)
(0.145257 -0.0710381 -1.47594e-19)
(0.377841 -0.188728 2.14612e-19)
(0.567 -0.288671 6.4854e-20)
(0.718953 -0.368804 -6.95259e-20)
(0.838459 -0.428649 1.12351e-19)
(0.929811 -0.469224 2.26881e-19)
(0.997321 -0.492498 -1.28124e-19)
(1.04528 -0.501082 -8.04853e-20)
(1.0778 -0.49792 -1.46245e-19)
(1.09863 -0.485965 9.80987e-20)
(1.11101 -0.467923 -2.05886e-20)
(1.11762 -0.446092 1.10881e-20)
(1.12051 -0.422291 4.78338e-20)
(1.12119 -0.397856 4.96805e-21)
(1.12071 -0.373699 -6.09514e-21)
(1.11974 -0.350371 -1.37131e-20)
(1.11864 -0.328196 -7.83806e-21)
(1.11747 -0.307494 -3.08733e-20)
(1.11609 -0.28846 2.16294e-20)
(1.11506 -0.269491 1.27358e-19)
(0.142602 -0.0541583 1.30417e-19)
(0.375471 -0.148458 8.32965e-20)
(0.568678 -0.234652 -5.7151e-20)