/*--------------------------------*- C++ -*----------------------------------*\
  =========                 |
  \\      /  F ield         | OpenFOAM: The Open Source CFD Toolbox
   \\    /   O peration     | Website:  https://openfoam.org
    \\  /    A nd           | Version:  7
     \\/     M anipulation  |
\*---------------------------------------------------------------------------*/
FoamFile
{
    version     2.0;
    format      ascii;
    class       volVectorField;
    location    "20";
    object      U;
}
// * * * * * * * * * * * * * * * * * * * * * * * * * * * * * * * * * * * * * //

dimensions      [0 1 -1 0 0 0 0];

internalField   nonuniform List<vector> 
1360
(
(-0.00433355 0.00353795 2.34714e-21)
(-0.00954748 0.0044397 -6.58002e-20)
(-0.015302 0.00465788 -3.73052e-20)
(-0.0207242 0.00439695 2.34498e-20)
(-0.0253782 0.00379602 -4.01569e-21)
(-0.0289951 0.00295539 2.60956e-20)
(-0.0314003 0.00194774 -5.07105e-21)
(-0.0324923 0.000825437 -4.3309e-20)
(-0.0322215 -0.000373182 1.15066e-19)
(-0.0305737 -0.00161869 1.5004e-20)
(-0.0275602 -0.00288613 -2.54428e-20)
(-0.0232136 -0.00415078 -5.14022e-20)
(-0.0175884 -0.00538405 5.32433e-21)
(-0.0107665 -0.00654897 4.96625e-20)
(-0.00286882 -0.00759622 -4.3403e-20)
(0.0059342 -0.00846189 6.51826e-20)
(0.0154261 -0.00906545 -5.0411e-20)
(0.0253278 -0.00929371 -5.37094e-20)
(0.0350691 -0.00899125 6.47933e-20)
(-0.00157606 0.00469036 -1.16064e-19)
(-0.00513803 0.0100427 1.42596e-19)
(-0.00988813 0.0125556 2.39199e-20)
(-0.0146535 0.0131075 9.05857e-20)
(-0.018707 0.0122847 9.82895e-20)
(-0.0216968 0.0104886 -2.01982e-19)
(-0.0234134 0.0080093 -5.67502e-20)
(-0.0237272 0.00505701 4.80535e-20)
(-0.0225697 0.00178318 -2.10685e-19)
(-0.0199159 -0.00170155 8.7976e-21)
(-0.0157705 -0.00531271 2.16948e-19)
(-0.0101593 -0.00897918 -2.83838e-20)
(-0.00312622 -0.0126314 -4.23009e-20)
(0.00526568 -0.0161892 -1.14268e-21)
(0.0149278 -0.0195482 4.69166e-20)
(0.0257301 -0.0225669 1.22786e-19)
(0.0374866 -0.0250574 4.24856e-20)
(0.0499961 -0.0267688 -2.39343e-21)
(0.063082 -0.0273279 -2.25478e-19)
(0.0759191 -0.0262595 -1.50777e-19)
(-0.00244806 0.00704186 -6.1926e-20)
(-0.00638794 0.0149213 6.93241e-20)
(-0.0100986 0.0184931 -8.37463e-20)
(-0.0128307 0.0190832 -1.77736e-19)
(-0.0141282 0.0175835 1.6951e-19)
(-0.0137966 0.0146131 1.88876e-19)
(-0.0117395 0.0106207 6.37717e-20)
(-0.00791262 0.00593185 -9.42357e-20)
(-0.00231168 0.00078087 -9.78508e-21)
(0.00503967 -0.00466135 1.29995e-19)
(0.0140992 -0.0102654 -1.1576e-19)
(0.0248106 -0.0159246 9.17083e-20)
(0.0371044 -0.021537 -3.72301e-20)
(0.0508967 -0.0269862 3.31702e-19)
(0.0660815 -0.0321196 -4.86526e-19)
(0.0825067 -0.0367249 -1.24368e-19)
(0.0999503 -0.0405067 4.47085e-19)
(0.118221 -0.0430276 -4.02765e-19)
(0.137333 -0.0435591 -3.30693e-21)
(0.156053 -0.0412529 -7.51977e-20)
(-0.00339569 0.00835957 3.69107e-20)
(-0.00741581 0.0173624 3.51962e-19)
(-0.00929088 0.0211554 -4.01421e-19)
(-0.00882858 0.0213355 9.94468e-20)
(-0.00593432 0.0189889 -1.24713e-20)
(-0.000626985 0.0148861 3.88085e-20)
(0.00703472 0.00958797 2.37743e-19)
(0.0169751 0.00350097 -2.72597e-19)
(0.0291068 -0.00308152 -7.61829e-21)
(0.0433346 -0.00994619 -4.65917e-19)
(0.0595578 -0.0169334 -5.10724e-20)
(0.0776698 -0.023915 6.17333e-20)
(0.0975567 -0.0307731 2.47648e-19)
(0.119095 -0.037377 -1.38205e-19)
(0.142141 -0.0435548 4.26266e-19)
(0.166502 -0.0490611 -6.1183e-19)
(0.191891 -0.0535347 7.34879e-19)
(0.218091 -0.0563613 -5.07988e-19)
(0.245357 -0.0563342 3.17514e-19)
(0.272068 -0.0520791 1.62709e-19)
(-0.00405086 0.00845622 1.21057e-19)
(-0.00733216 0.0169057 4.6543e-20)
(-0.00625528 0.0199173 2.50473e-19)
(-0.00125191 0.0191607 -1.45235e-19)
(0.00736023 0.0157883 -6.68468e-20)
(0.0193134 0.0106425 5.59515e-19)
(0.0343633 0.00433967 -8.82029e-19)
(0.052287 -0.00267399 7.09535e-19)
(0.0728804 -0.0100765 3.25061e-19)
(0.0959519 -0.0176342 -6.91003e-19)
(0.121317 -0.0251745 1.77935e-19)
(0.148794 -0.0325628 7.16471e-20)
(0.178196 -0.039682 7.84802e-19)
(0.20933 -0.0464093 -8.53843e-19)
(0.241986 -0.0525864 -2.52452e-19)
(0.275902 -0.0579848 6.55755e-19)
(0.310695 -0.0622503 -5.44498e-19)
(0.346056 -0.0646659 3.71221e-19)
(0.38247 -0.063479 3.21561e-19)
(0.418149 -0.0565243 -1.09883e-18)
(-0.0040065 0.00730807 -3.82507e-19)
(-0.00512487 0.0134863 1.2146e-19)
(0.000417771 0.0147085 -1.70421e-19)
(0.0115556 0.012523 4.82551e-22)
(0.0275429 0.00801695 4.64051e-19)
(0.047845 0.00202162 -9.03662e-19)
(0.0720115 -0.00485237 8.0919e-19)
(0.0996486 -0.0121663 -7.27604e-19)
(0.130408 -0.0196049 7.45065e-19)
(0.163973 -0.0269403 -6.53064e-19)
(0.200043 -0.0340068 3.60307e-19)
(0.238323 -0.0406803 -8.75634e-19)
(0.278518 -0.0468605 1.09544e-18)
(0.320323 -0.0524519 8.96744e-20)
(0.363418 -0.0573385 -2.78298e-19)
(0.407436 -0.0613565 -5.39745e-19)
(0.451872 -0.0642479 -2.95389e-20)
(0.49627 -0.0653428 6.00083e-19)
(0.541259 -0.0624273 2.95477e-19)
(0.585281 -0.0522986 -6.40058e-19)
(-0.00285373 0.00503943 -1.24875e-19)
(0.000246475 0.00742455 -5.52601e-20)
(0.0122036 0.00602811 -8.51573e-20)
(0.0313452 0.00209983 4.51439e-20)
(0.0565067 -0.00346402 -6.17078e-19)
(0.0868795 -0.00992576 1.18191e-18)
(0.12179 -0.0167446 -1.40621e-20)
(0.160649 -0.0235403 -4.28745e-20)
(0.202932 -0.0300443 -4.23817e-19)
(0.248158 -0.0360675 -8.08855e-20)
(0.295867 -0.0414775 -1.26802e-19)
(0.345607 -0.0461829 -7.14101e-19)
(0.396922 -0.0501183 6.75838e-19)
(0.449349 -0.0532309 -5.87471e-19)
(0.502411 -0.0554634 3.51849e-19)
(0.55559 -0.0567423 -3.06288e-19)
(0.608246 -0.0569611 5.62563e-19)
(0.659765 -0.0556356 -4.16085e-19)
(0.710824 -0.0503653 1.49325e-19)
(0.760604 -0.0371821 7.59911e-19)
(-0.000204076 0.00189414 1.47492e-19)
(0.00977129 -0.000622134 -1.44142e-20)
(0.0305005 -0.0050992 -2.44292e-19)
(0.0597569 -0.0107496 3.3091e-20)
(0.0959781 -0.0169883 5.24348e-19)
(0.138078 -0.023253 -1.01095e-18)
(0.185141 -0.0291384 5.88226e-19)
(0.236351 -0.0343793 -3.16797e-20)
(0.290969 -0.0388032 4.29548e-19)
(0.348304 -0.0423026 -4.78004e-19)
(0.407691 -0.0448184 3.9004e-19)
(0.468476 -0.0463258 -1.0244e-18)
(0.530008 -0.0468234 -5.68005e-19)
(0.591637 -0.0463212 1.17725e-18)
(0.652713 -0.0448298 -4.71454e-19)
(0.712569 -0.0423584 -3.03399e-19)
(0.770467 -0.0389064 4.11251e-19)
(0.8257 -0.0341452 8.90283e-19)
(0.878664 -0.0261015 -5.3398e-19)
(0.929376 -0.012359 -1.44254e-19)
(0.00429135 -0.00178875 3.00461e-19)
(0.024308 -0.0097088 -2.87072e-19)
(0.0564744 -0.017193 -2.3049e-19)
(0.0980746 -0.0240777 -6.56572e-19)
(0.147179 -0.030205 5.7512e-19)
(0.202417 -0.0352708 7.99154e-19)
(0.262607 -0.0390768 -4.03215e-19)
(0.326669 -0.0415385 4.6945e-19)
(0.393606 -0.0426413 -1.64877e-19)
(0.462475 -0.0424187 5.03318e-20)
(0.532371 -0.0409414 8.28319e-19)
(0.602418 -0.0383072 -1.12507e-18)
(0.671778 -0.0346305 -4.03166e-20)
(0.739658 -0.030031 2.30385e-19)
(0.805324 -0.0246238 8.43134e-20)
(0.868126 -0.0185049 -8.54702e-20)
(0.927539 -0.0116925 2.4473e-19)
(0.983237 -0.00398414 -1.34891e-19)
(1.03487 0.00460848 -7.583e-19)
(1.08141 0.0113744 6.88532e-19)
(0.0109226 -0.00558533 2.36079e-19)
(0.0444934 -0.0186517 7.74758e-20)
(0.0908781 -0.0284177 -2.33111e-19)
(0.146957 -0.0355029 2.73417e-19)
(0.210469 -0.0402947 -6.21903e-19)
(0.279751 -0.0428347 1.31646e-18)
(0.353328 -0.0432104 -8.96467e-19)
(0.429823 -0.0415925 -4.87366e-19)
(0.507947 -0.038195 1.28919e-18)
(0.586479 -0.03326 -1.01574e-18)
(0.664267 -0.027052 1.24589e-18)
(0.74023 -0.0198512 -1.52329e-18)
(0.813374 -0.0119453 5.12382e-19)
(0.882817 -0.00362137 6.00395e-19)
(0.947806 0.00483959 -5.17203e-19)
(1.00774 0.0131716 -1.05308e-20)
(1.06222 0.0211551 -8.00505e-20)
(1.11102 0.0285776 -5.91362e-19)
(1.15374 0.0345554 4.30952e-19)
(1.18955 0.0372324 -1.19807e-19)
(0.0198848 -0.00899579 -3.13343e-19)
(0.0706363 -0.0260816 1.18256e-19)
(0.133874 -0.0367008 -5.35072e-21)
(0.206195 -0.0424136 -4.66881e-19)
(0.285054 -0.0442692 6.27055e-19)
(0.368503 -0.0427464 -8.60886e-19)
(0.454762 -0.0383002 7.87709e-20)
(0.542156 -0.0314314 2.5198e-19)
(0.629114 -0.0226474 -3.47059e-19)
(0.714181 -0.0124498 6.39671e-19)
(0.796029 -0.00133062 1.76298e-19)
(0.87348 0.0102362 7.32623e-20)
(0.945532 0.0218063 -7.26591e-19)
(1.01139 0.0329755 7.36812e-19)
(1.07046 0.043389 -3.93887e-19)
(1.12239 0.0527522 2.9062e-19)
(1.16703 0.0608489 -6.08707e-19)
(1.20444 0.0674883 -3.44492e-19)
(1.23451 0.0721457 4.09049e-19)
(1.2568 0.0745158 1.06273e-19)
(0.031229 -0.011453 -3.05296e-19)
(0.102594 -0.0305106 4.21302e-19)
(0.184863 -0.0398892 8.86738e-20)
(0.274517 -0.0422258 -7.7098e-20)
(0.368814 -0.0393364 2.08647e-19)
(0.465551 -0.032224 5.13519e-19)
(0.562689 -0.0217868 -2.6504e-19)
(0.65831 -0.00891554 -1.99437e-19)
(0.750662 0.0055481 -5.20409e-19)
(0.838191 0.0208263 4.57061e-19)
(0.919572 0.0362113 -2.40548e-19)
(0.99375 0.0510768 1.0162e-20)
(1.05996 0.0648914 1.11268e-18)
(1.11773 0.0772297 -7.76949e-19)
(1.16691 0.0877783 6.8492e-19)
(1.20761 0.096341 -7.05616e-20)
(1.24019 0.102841 9.62801e-20)
(1.26516 0.107271 -2.23313e-19)
(1.28299 0.109497 -7.7527e-20)
(1.29401 0.109933 -4.08005e-19)
(0.0448058 -0.0123504 1.75627e-19)
(0.139662 -0.0304412 1.12833e-19)
(0.242373 -0.0359491 -7.30735e-20)
(0.349527 -0.0326735 -9.76152e-19)
(0.45832 -0.0232681 2.95012e-19)
(0.566397 -0.00932383 -7.14424e-20)
(0.671571 0.00777359 -3.99756e-20)
(0.77184 0.0267251 -5.12756e-20)
(0.865463 0.0463691 8.41238e-20)
(0.951025 0.065701 -6.19223e-19)
(1.02748 0.0838804 3.30005e-19)
(1.09415 0.100241 -5.04144e-19)
(1.15079 0.1143 6.51456e-20)
(1.19751 0.125753 -2.65814e-19)
(1.23474 0.13447 -9.83476e-20)
(1.2632 0.140476 5.047e-19)
(1.28378 0.143935 -5.43273e-19)
(1.29744 0.14508 8.31624e-20)
(1.30507 0.144105 2.13793e-19)
(1.30736 0.141763 -2.26862e-19)
(0.0602228 -0.011095 2.71902e-19)
(0.180513 -0.0245202 -4.21842e-20)
(0.304041 -0.0232064 -3.48274e-19)
(0.427783 -0.0121118 -4.793e-20)
(0.549078 0.00526496 6.11862e-19)
(0.665598 0.0267355 -2.5482e-19)
(0.775217 0.0504448 2.40715e-19)
(0.876098 0.074742 -2.69382e-19)
(0.966798 0.0982417 1.27276e-19)
(1.04634 0.119844 -1.21373e-19)
(1.11423 0.138734 5.38827e-19)
(1.17046 0.154376 -3.31492e-19)
(1.21548 0.166501 -3.69869e-20)
(1.25008 0.175075 -4.32817e-20)
(1.27535 0.180263 7.18151e-20)
(1.29252 0.182381 -1.09934e-19)
(1.3029 0.181851 2.47606e-19)
(1.30774 0.179125 7.68147e-21)
(1.30809 0.174618 -3.69497e-19)
(1.30473 0.169163 -1.12596e-19)
(0.0768277 -0.00718211 -2.1161e-19)
(0.223218 -0.0117262 1.67658e-19)
(0.366731 -0.00059834 5.88595e-20)
(0.505062 0.0202107 -7.44432e-20)
(0.635959 0.0464494 -2.01695e-20)
(0.757385 0.0754107 8.59187e-20)
(0.867569 0.104882 -6.76358e-20)
(0.965153 0.133015 2.92335e-19)
(1.04931 0.158386 -2.01764e-19)
(1.11977 0.180005 9.64887e-20)
(1.17686 0.197292 -2.17201e-19)
(1.22136 0.210031 2.10021e-19)
(1.25447 0.218315 8.52926e-20)
(1.27765 0.222484 -2.35238e-19)
(1.29248 0.223044 2.38444e-19)
(1.30056 0.220598 -9.58814e-20)
(1.30335 0.215777 4.1883e-20)
(1.30215 0.209175 3.76254e-20)
(1.29797 0.201328 2.00207e-21)
(1.29146 0.192948 3.77451e-20)
(0.0937311 -0.000280204 -9.74356e-20)
(0.265358 0.00844322 1.6189e-19)
(0.426777 0.0321054 -9.9552e-20)
(0.576745 0.0639596 8.00081e-20)
(0.713739 0.0992203 -1.02732e-19)
(0.836331 0.134855 -1.52141e-20)
(0.943432 0.168514 4.39619e-20)
(1.03448 0.198398 -1.66095e-20)
(1.10953 0.223305 -1.74866e-20)
(1.16925 0.2426 8.6972e-20)
(1.21484 0.256139 -1.30675e-20)
(1.24791 0.264178 -4.73044e-20)
(1.27029 0.267265 9.48244e-20)
(1.28394 0.266134 -7.13506e-20)
(1.29072 0.2616 1.61865e-20)
(1.29232 0.254478 -2.14077e-20)
(1.2902 0.245515 6.01136e-20)
(1.28549 0.235359 -4.72046e-20)
(1.27901 0.224573 -6.86127e-21)
(1.27121 0.213588 -1.13156e-20)
(0.109869 0.00969113 5.65895e-20)
(0.304226 0.0358207 -1.72292e-19)
(0.480323 0.0741617 1.04316e-19)
(0.638295 0.117645 -1.60574e-20)
(0.777663 0.16131 2.99859e-20)
(0.897929 0.202107 -5.06454e-20)
(0.998989 0.237869 -3.28143e-20)
(1.08132 0.267159 6.80788e-21)
(1.14603 0.289277 7.91828e-20)
(1.19475 0.304169 -1.12434e-19)
(1.22954 0.312285 1.62231e-20)
(1.25266 0.314428 2.37057e-20)
(1.26641 0.311603 -3.39126e-20)
(1.27298 0.304883 8.99748e-20)
(1.2743 0.295304 -3.12562e-20)
(1.27196 0.283785 2.36448e-20)
(1.26722 0.271089 -5.05374e-20)
(1.261 0.257842 1.30496e-20)
(1.25384 0.244566 2.10152e-20)
(1.24605 0.231309 1.2016e-20)
(0.124102 0.0225064 1.11938e-19)
(0.337092 0.0694904 9.8776e-20)
(0.523718 0.123825 -3.41515e-20)
(0.685721 0.178693 -1.19478e-19)
(0.823919 0.229438 -6.35182e-20)
(0.938999 0.273401 1.5025e-19)
(1.03204 0.308965 6.13761e-20)
(1.10469 0.335387 -1.22663e-19)
(1.15908 0.352718 4.89059e-20)
(1.19775 0.361647 -4.61145e-22)
(1.22343 0.363287 1.62725e-19)
(1.23881 0.358977 -6.35694e-20)
(1.24642 0.350106 -1.44947e-19)
(1.24844 0.337986 1.67304e-19)
(1.24668 0.323755 -6.78859e-20)
(1.24254 0.308332 9.79857e-20)
(1.23701 0.292412 -3.28002e-20)
(1.23073 0.276551 8.34309e-21)
(1.22403 0.261192 -1.6425e-20)
(1.21711 0.245984 -1.19172e-20)
(0.135326 0.0376142 -1.13585e-19)
(0.361487 0.107799 -2.32341e-19)
(0.553895 0.178442 3.67845e-19)
(0.715972 0.243646 2.03786e-19)
(0.849967 0.299613 -5.90588e-19)
(0.957875 0.344521 3.4715e-19)
(1.04201 0.377679 8.03059e-20)
(1.10513 0.399313 1.34874e-19)
(1.15029 0.410403 -9.94227e-22)
(1.18071 0.412448 -1.02881e-20)
(1.19954 0.407202 -2.67428e-19)
(1.20966 0.396457 1.79077e-19)
(1.21359 0.381873 6.17119e-20)
(1.21336 0.364874 -3.173e-20)
(1.21055 0.346595 -7.97026e-20)
(1.20629 0.327873 9.88536e-21)
(1.20132 0.309291 -2.11507e-20)
(1.19605 0.291307 -2.29452e-21)
(1.19057 0.274284 6.00586e-20)
(1.1851 0.25747 -7.27442e-23)
(0.142602 0.0541583 -2.59361e-19)
(0.375471 0.148458 -1.13707e-19)
(0.568678 0.234652 -1.15797e-19)
(0.727213 0.308451 2.99293e-19)
(0.854703 0.367475 2.6098e-20)
(0.954404 0.41116 -1.07158e-19)
(1.02976 0.440048 -1.84827e-19)
(1.08444 0.455522 -1.59618e-20)
(1.12218 0.459565 1.00702e-21)
(1.14661 0.454453 2.14502e-19)
(1.16103 0.442489 -2.10649e-19)
(1.16832 0.425791 4.38975e-20)
(1.17079 0.406157 -9.98115e-20)
(1.17025 0.385013 3.80359e-20)
(1.16799 0.363407 1.45028e-21)
(1.1649 0.342045 -5.47049e-20)
(1.16151 0.321379 1.5423e-20)
(1.15801 0.301794 -1.23599e-20)
(1.15434 0.283556 1.99622e-20)
(1.15086 0.26543 -1.11729e-20)
(0.145257 0.0710381 1.09021e-19)
(0.377841 0.188728 1.30568e-19)
(0.567 0.288671 -1.60368e-19)
(0.718953 0.368804 2.26591e-19)
(0.838459 0.428649 5.61512e-20)
(0.929811 0.469224 -2.75354e-19)
(0.997321 0.492498 6.60428e-20)
(1.04528 0.501082 5.79567e-20)
(1.0778 0.49792 7.70888e-20)
(1.09863 0.485965 -4.89455e-20)
(1.11101 0.467923 7.54191e-20)
(1.11762 0.446092 1.96927e-20)
(1.12051 0.422291 1.37725e-20)
(1.12119 0.397856 1.57341e-21)
(1.12071 0.373699 9.56277e-21)
(1.11974 0.350371 1.12197e-20)
(1.11864 0.328196 -4.85065e-21)
(0.142969 0.0870058 3.20307e-19)
(0.368259 0.225652 -2.28098e-19)
(0.548989 0.336609 1.01154e-20)
(0.692047 0.420493 -1.83071e-19)
(0.802882 0.479052 -1.64061e-19)
(0.886471 0.515077 2.47035e-19)
(0.947629 0.532001 -2.70643e-20)
(0.990915 0.533611 -7.75167e-21)
(1.0205 0.52368 1.41693e-20)
(1.04 0.505675 -3.07276e-20)
(1.05245 0.482548 -1.38947e-21)
(1.06019 0.456644 3.84073e-20)
(1.06498 0.429698 -9.40697e-20)
(1.06805 0.402902 1.5513e-19)
(0.135777 0.100762 -2.39495e-20)
(0.347304 0.256318 -2.25679e-20)
(0.515955 0.374778 1.22663e-19)
(0.648564 0.459719 5.61664e-20)
(0.750736 0.515186 2.04963e-20)
(0.827673 0.545729 4.35895e-21)
(0.88426 0.556175 1.45861e-20)
(0.924975 0.551308 7.11789e-20)
(0.953766 0.535536 -5.2351e-20)
(0.973953 0.512646 -1.55336e-20)
(0.988192 0.485679 3.15531e-19)
(0.124189 0.111028 9.54969e-20)
(0.316444 0.278024 -2.78585e-20)
(0.47023 0.400005 1.37243e-20)
(0.5916 0.48334 -1.74409e-19)
(0.685667 0.534287 3.64624e-20)
(0.757341 0.558971 1.44237e-19)
(0.811183 0.563363 -2.64709e-19)
(0.851273 0.552995 2.73912e-19)
(0.881119 0.53267 1.73532e-19)
(0.109017 0.116821 2.49243e-20)
(0.277831 0.288679 -1.42334e-19)
(0.415015 0.409842 6.61016e-20)
(0.525037 0.489092 1.22399e-19)
(0.611907 0.53451 1.28839e-19)
(0.679786 0.553442 -4.43519e-19)
(0.732558 0.552656 6.26437e-19)
(0.0913698 0.11736 1.93031e-19)
(0.234225 0.286823 1.56849e-20)
(0.354113 0.402761 -5.00917e-19)
(0.453246 0.47571 7.78129e-21)
(0.534024 0.51499 -3.12715e-19)
(0.0725753 0.112226 -5.02274e-19)
(0.188734 0.271786 3.92705e-19)
(0.291647 0.378234 2.55002e-19)
(0.38081 0.442982 6.30828e-20)
(0.0540547 0.101392 3.79839e-20)
(0.144582 0.243739 1.03236e-19)
(0.231784 0.336764 1.15195e-19)
(0.312241 0.391745 -3.76447e-19)
(0.0372103 0.0852243 -1.72438e-19)
(0.104877 0.203687 5.75363e-19)
(0.17846 0.279853 -6.35507e-19)
(0.0233175 0.0644609 -1.9302e-19)
(0.0723992 0.153404 2.10459e-19)
(0.0134277 0.0401634 -2.37897e-19)
(0.0494098 0.0953106 2.32077e-19)
(0.0434404 -0.00818814 4.55226e-20)
(0.0507032 -0.00767319 -1.54642e-19)
(0.0575907 -0.00745911 6.35551e-20)
(0.0644533 -0.0073854 5.39179e-20)
(0.0713301 -0.00738058 -9.45329e-21)
(0.0782407 -0.00742288 -4.38155e-20)
(0.0852209 -0.00749848 1.70036e-20)
(0.0922983 -0.00759474 -2.04518e-20)
(0.0994873 -0.00770184 -1.32078e-20)
(0.106794 -0.00781285 3.15474e-20)
(0.114218 -0.00792274 -1.53327e-20)
(0.121757 -0.00802778 7.07825e-21)
(0.129403 -0.00812516 8.32045e-21)
(0.137149 -0.00821289 -4.70714e-20)
(0.144984 -0.00828955 6.57347e-21)
(0.152897 -0.00835429 1.36192e-20)
(0.160876 -0.00840662 2.68963e-21)
(0.168908 -0.00844639 -3.4814e-21)
(0.176982 -0.0084737 1.63078e-20)
(0.0852116 -0.0238489 -2.57989e-20)
(0.0916148 -0.0224545 6.12451e-20)
(0.0976756 -0.0219141 1.49588e-19)
(0.104025 -0.0217357 -1.01633e-20)
(0.110508 -0.0217396 1.09828e-19)
(0.117051 -0.0218779 -8.1377e-20)
(0.123682 -0.0221128 -2.17732e-20)
(0.130427 -0.0224067 -1.0926e-19)
(0.137295 -0.0227305 8.3953e-20)
(0.144286 -0.0230639 9.56964e-20)
(0.151396 -0.0233923 -9.14847e-20)
(0.158617 -0.0237045 -3.739e-20)
(0.165941 -0.0239925 3.98711e-20)
(0.173357 -0.0242507 -1.28084e-19)
(0.180853 -0.024475 1.33043e-19)
(0.188418 -0.0246632 -1.00392e-19)
(0.196039 -0.0248141 1.00161e-19)
(0.203704 -0.0249275 -2.62302e-20)
(0.211401 -0.0250039 -1.05838e-19)
(0.166804 -0.037238 5.58448e-19)
(0.171547 -0.0354042 -2.9704e-19)
(0.175924 -0.0348621 -2.52358e-19)
(0.181177 -0.0347307 5.78298e-19)
(0.18681 -0.0348183 -3.03525e-19)
(0.192569 -0.0351029 4.91323e-20)
(0.198458 -0.0355339 -7.40561e-20)
(0.204504 -0.0360496 7.81672e-21)
(0.210701 -0.0366036 2.32192e-19)
(0.217034 -0.0371647 -1.8118e-19)
(0.223487 -0.0377101 1.85305e-19)
(0.230048 -0.0382231 -6.76112e-20)
(0.236702 -0.0386914 -3.96903e-20)
(0.243434 -0.0391066 1.54583e-19)
(0.25023 -0.0394636 4.96664e-20)
(0.257078 -0.0397594 -4.03371e-19)
(0.263965 -0.039993 1.17177e-19)
(0.270879 -0.0401648 1.20915e-19)
(0.277809 -0.0402763 -2.24602e-20)
(0.284113 -0.0465282 -6.4226e-19)
(0.286512 -0.0449548 6.38845e-19)
(0.28839 -0.0449859 -1.49826e-19)
(0.291915 -0.0452097 -5.40063e-19)
(0.296186 -0.0455591 3.66334e-19)
(0.300689 -0.0461206 -1.51255e-19)
(0.305396 -0.0468442 1.34244e-19)
(0.310329 -0.0476459 -3.77204e-20)
(0.315458 -0.0484681 -1.06653e-19)
(0.320743 -0.0492758 2.37007e-19)
(0.326151 -0.0500434 -1.11177e-19)
(0.33166 -0.050752 1.29187e-19)
(0.337247 -0.0513882 -1.87662e-19)
(0.342894 -0.0519438 -4.1052e-20)
(0.348585 -0.0524144 1.92798e-20)
(0.354307 -0.0527982 -8.60556e-20)
(0.360047 -0.0530957 4.18787e-19)
(0.365795 -0.0533089 -1.42172e-19)
(0.371542 -0.0534409 -1.67051e-19)
(0.377281 -0.0534956 -6.70036e-20)
(0.430482 -0.0497705 6.85935e-19)
(0.43007 -0.0493828 1.64522e-20)
(0.428918 -0.0507806 -5.70968e-19)
(0.430217 -0.0518342 -6.14665e-20)
(0.432667 -0.0527599 1.23967e-18)
(0.435466 -0.0538419 -6.8064e-19)
(0.438551 -0.0550361 4.57221e-19)
(0.441935 -0.0562389 -1.42602e-19)
(0.445556 -0.057398 -2.82763e-19)
(0.449344 -0.0584894 8.26964e-20)
(0.45325 -0.0594948 3.63487e-20)
(0.457242 -0.0604 -2.80791e-20)
(0.461295 -0.0611964 -2.20027e-19)
(0.465388 -0.0618803 1.12259e-19)
(0.469507 -0.0624514 1.02515e-19)
(0.473639 -0.0629115 -2.40952e-19)
(0.477776 -0.0632639 2.42436e-19)
(0.48191 -0.0635133 7.65153e-20)
(0.486037 -0.0636649 4.47699e-21)
(0.490153 -0.0637245 -1.36303e-19)
(0.596355 -0.0452996 -3.6778e-19)
(0.593185 -0.0472752 1.04242e-19)
(0.589189 -0.0509232 6.81466e-19)
(0.588232 -0.0533502 -7.61351e-19)
(0.588648 -0.0552551 5.9562e-19)
(0.589425 -0.0571665 1.08582e-20)
(0.590499 -0.0590323 -2.83256e-19)
(0.591882 -0.060752 4.69408e-19)
(0.593489 -0.0623124 -1.01025e-19)
(0.595237 -0.0637228 -6.28353e-19)
(0.597082 -0.0649843 -2.50873e-19)
(0.598995 -0.0660965 8.58939e-19)
(0.600956 -0.0670622 -4.42197e-20)
(0.602951 -0.0678862 1.10712e-19)
(0.604972 -0.0685742 -6.98423e-19)
(0.607012 -0.0691325 -1.02631e-19)
(0.609068 -0.0695676 4.70819e-19)
(0.611138 -0.0698866 -1.62847e-19)
(0.61322 -0.0700963 3.78066e-19)
(0.615312 -0.0702038 -1.98076e-19)
(0.617415 -0.070216 1.34282e-20)
(0.769766 -0.0321624 -9.32024e-19)
(0.765318 -0.0382447 1.17358e-18)
(0.760008 -0.0449293 -1.65839e-18)
(0.757452 -0.0492325 6.29692e-19)
(0.755825 -0.0525783 -3.47053e-19)
(0.754247 -0.0556342 4.47972e-19)
(0.752791 -0.0583334 5.14287e-20)
(0.751518 -0.0606509 1.2553e-19)
(0.750384 -0.062659 -1.04463e-19)
(0.749354 -0.0644164 -2.6082e-19)
(0.748417 -0.0659544 -1.02499e-19)
(0.747573 -0.0672951 3.1752e-19)
(0.746815 -0.0684577 3.17912e-19)
(0.746142 -0.0694574 1.80555e-19)
(0.74555 -0.0703064 -8.6792e-19)
(0.745039 -0.0710148 6.52266e-19)
(0.744606 -0.0715915 -5.55807e-19)
(0.744249 -0.0720446 1.09095e-19)
(0.743966 -0.0723818 1.40668e-19)
(0.743755 -0.07261 5.53684e-19)
(0.743613 -0.0727363 -4.04439e-19)
(0.743539 -0.0727674 -1.67389e-19)
(0.941583 -0.0148399 9.95627e-19)
(0.93956 -0.0256655 -9.47787e-19)
(0.934881 -0.0339691 -2.6316e-19)
(0.930511 -0.0393308 1.43706e-19)
(0.925724 -0.0436977 -3.98892e-19)
(0.920542 -0.047554 -1.63537e-19)
(0.915332 -0.0508801 8.21524e-19)
(0.910257 -0.0537635 3.73302e-19)
(0.905368 -0.0563136 -5.88752e-19)
(0.900697 -0.05859 7.96971e-19)
(0.896268 -0.0606253 -5.88884e-19)
(0.892084 -0.0624443 -5.90488e-19)
(0.888141 -0.0640664 5.53605e-19)
(0.884432 -0.0655064 -1.54644e-19)
(0.880945 -0.0667756 -4.30563e-19)
(0.877669 -0.0678838 1.05651e-18)
(0.874591 -0.0688399 -7.83413e-19)
(0.871701 -0.0696518 -2.12756e-19)
(0.868988 -0.0703273 6.79674e-19)
(0.86644 -0.0708737 -6.73968e-20)
(0.864049 -0.0712984 -9.33147e-20)
(0.861807 -0.0716086 1.6681e-19)
(0.859703 -0.0718112 -4.12077e-19)
(1.13296 0.0108273 2.55929e-27)
(1.11818 0.000837926 -5.14425e-27)
(1.10453 -0.00712672 2.45518e-27)
(1.09137 -0.0139449 -5.03547e-27)
(1.07908 -0.0200237 0)
(1.06782 -0.025425 0)
(1.05753 -0.0302222 0)
(1.04808 -0.0345104 0)
(1.03937 -0.0383626 0)
(1.03131 -0.0418308 -7.08373e-28)
(1.02384 -0.0449562 -4.24505e-27)
(1.01688 -0.0477733 0)
(1.01038 -0.0503103 0)
(1.0043 -0.0525911 0)
(0.998594 -0.0546357 0)
(0.993224 -0.0564618 0)
(0.988162 -0.0580847 0)
(0.983384 -0.0595183 1.66419e-27)
(0.978866 -0.0607752 -3.36036e-27)
(0.97459 -0.0618668 3.77112e-11)
(0.970537 -0.0628041 3.65593e-11)
(0.966694 -0.063597 1.47087e-27)
(0.963046 -0.064255 -2.96675e-27)
(0.959581 -0.0647872 0)
(1.2207 0.0344907 -2.56521e-27)
(1.21229 0.0263216 5.151e-27)
(1.20283 0.0179314 -2.45836e-27)
(1.19288 0.00978198 5.04191e-27)
(1.18296 0.00220672 0)
(1.17328 -0.00470168 0)
(1.16388 -0.0109647 0)
(1.15481 -0.0166277 0)
(1.14609 -0.0217372 0)
(1.13774 -0.026342 7.09249e-28)
(1.12975 -0.0304894 4.25029e-27)
(1.12213 -0.0342237 0)
(1.11485 -0.0375847 0)
(1.10791 -0.0406077 0)
(1.10128 -0.0433234 0)
(1.09494 -0.0457588 0)
(1.08889 -0.0479376 0)
(1.08311 -0.0498808 -1.66625e-27)
(1.07758 -0.0516069 3.36454e-27)
(1.07228 -0.0531326 -3.77582e-11)
(1.06721 -0.054473 -3.6605e-11)
(1.06236 -0.0556418 -1.47271e-27)
(1.05771 -0.0566515 2.97049e-27)
(1.05324 -0.0575138 0)
(1.26631 0.0481062 0)
(1.26147 0.0402619 0)
(1.25513 0.0325198 1.13824e-28)
(1.2485 0.0250121 5.62238e-28)
(1.24184 0.0179094 0)
(1.23508 0.0112613 0)
(1.2282 0.00506212 9.32569e-28)
(1.22126 -0.000699938 1.3398e-27)
(1.21434 -0.00603655 8.99761e-28)
(1.20747 -0.0109624 -4.45837e-11)
(1.2007 -0.0154978 -8.73627e-11)
(1.19405 -0.0196649 -4.27604e-11)
(1.18753 -0.0234855 -9.52283e-29)
(1.18116 -0.0269814 -4.08837e-11)
(1.17495 -0.0301734 -3.99362e-11)
(1.16891 -0.0330814 0)
(1.16303 -0.0357242 -8.66049e-29)
(1.15732 -0.0381196 0)
(1.15179 -0.0402843 -3.61557e-11)
(1.14641 -0.0422337 -3.52246e-11)
(1.1412 -0.0439823 0)
(1.13615 -0.0455437 0)
(1.13126 -0.0469306 0)
(1.12652 -0.0481548 0)
(1.28701 0.0571047 0)
(1.28466 0.0494983 0)
(1.28049 0.0422076 -1.13824e-28)
(1.27614 0.0352266 -5.62238e-28)
(1.27183 0.0285944 0)
(1.26738 0.022324 0)
(1.2627 0.0164115 -9.32569e-28)
(1.25784 0.0108512 -1.3398e-27)
(1.25287 0.00563698 -8.99761e-28)
(1.24781 0.000762048 4.45837e-11)
(1.24269 -0.00378445 8.73627e-11)
(1.23754 -0.00801433 4.27604e-11)
(1.23238 -0.0119409 9.52283e-29)
(1.22723 -0.0155789 4.08837e-11)
(1.22211 -0.0189416 3.99362e-11)
(1.21703 -0.0220427 0)
(1.21201 -0.024896 8.66049e-29)
(1.20705 -0.0275148 0)
(1.20217 -0.0299123 3.61557e-11)
(1.19736 -0.032101 3.52246e-11)
(1.19264 -0.0340929 0)
(1.18801 -0.0358996 0)
(1.18348 -0.0375321 0)
(1.17903 -0.039001 0)
(1.29118 0.0619262 4.1409e-11)
(1.29073 0.0547467 4.09867e-11)
(1.2884 0.0479283 0)
(1.28585 0.0414514 0)
(1.28332 0.0352962 0)
(1.28063 0.0294546 4.01729e-11)
(1.27768 0.023922 3.98754e-11)
(1.27452 0.018693 0)
(1.27118 0.0137607 0)
(1.26769 0.00911701 0)
(1.26407 0.00475389 0)
(1.26036 0.000662977 0)
(1.25656 -0.00316563 0)
(1.25269 -0.00674081 0)
(1.24877 -0.0100735 0)
(1.24482 -0.013174 0)
(1.24085 -0.0160526 0)
(1.23687 -0.0187193 0)
(1.23289 -0.0211839 0)
(1.22893 -0.0234564 0)
(1.22499 -0.0255462 0)
(1.22107 -0.0274628 0)
(1.21719 -0.0292151 3.03432e-11)
(1.21335 -0.0308121 2.96509e-11)
(1.28553 0.0630838 -4.14127e-11)
(1.28649 0.056577 -4.09867e-11)
(1.28566 0.0503863 0)
(1.28455 0.0445062 0)
(1.28341 0.0389016 0)
(1.28207 0.0335585 -4.01729e-11)
(1.28046 0.0284744 -3.98754e-11)
(1.27861 0.0236468 0)
(1.27655 0.0190712 0)
(1.27432 0.0147415 0)
(1.27193 0.0106519 0)
(1.26941 0.00679559 0)
(1.26676 0.00316578 0)
(1.264 -0.000243445 0)
(1.26116 -0.00344033 0)
(1.25824 -0.00643279 0)
(1.25525 -0.00922857 0)
(1.25222 -0.0118354 0)
(1.24914 -0.014261 0)
(1.24603 -0.0165131 0)
(1.24291 -0.0185995 0)
(1.23976 -0.0205276 0)
(1.23661 -0.0223049 -3.03432e-11)
(1.23346 -0.0239388 -2.96509e-11)
(1.27516 0.0616708 0)
(1.27702 0.0559411 0)
(1.27728 0.0504481 1.52399e-27)
(1.27724 0.045206 -2.11163e-27)
(1.27711 0.040184 1.5365e-27)
(1.27677 0.0353703 0)
(1.27616 0.0307662 -2.69229e-28)
(1.2753 0.0263733 0)
(1.27422 0.0221901 0)
(1.27296 0.0182137 0)
(1.27152 0.0144407 0)
(1.26992 0.0108671 0)
(1.26819 0.0074886 0)
(1.26633 0.00429943 0)
(1.26436 0.0012949 0)
(1.26229 -0.00153035 0)
(1.26013 -0.00418216 0)
(1.2579 -0.0066666 0)
(1.2556 -0.00898977 0)
(1.25325 -0.0111578 0)
(1.25084 -0.0131769 0)
(1.2484 -0.0150531 1.31957e-27)
(1.24593 -0.0167926 -1.78908e-27)
(1.24343 -0.0184015 1.27249e-27)
(1.2632 0.058671 0)
(1.26556 0.0536942 0)
(1.26655 0.0488828 -1.52399e-27)
(1.26724 0.0442635 2.11163e-27)
(1.26782 0.0398134 -1.5365e-27)
(1.26818 0.0355249 0)
(1.26828 0.0314024 2.69229e-28)
(1.26813 0.0274503 0)
(1.26777 0.0236702 0)
(1.26722 0.0200614 0)
(1.2665 0.0166228 0)
(1.26561 0.0133527 0)
(1.26457 0.0102486 0)
(1.2634 0.00730733 0)
(1.26211 0.00452566 0)
(1.26071 0.00189972 0)
(1.2592 -0.000574592 0)
(1.25761 -0.00290175 0)
(1.25594 -0.00508641 0)
(1.2542 -0.00713333 0)
(1.2524 -0.00904739 0)
(1.25054 -0.0108335 -1.31957e-27)
(1.24863 -0.0124967 1.78908e-27)
(1.24668 -0.0140419 -1.27249e-27)
(1.25134 0.0547548 0)
(1.25392 0.0504603 -2.64367e-11)
(1.25538 0.046278 -2.69665e-11)
(1.25655 0.0422385 2.73509e-11)
(1.25759 0.038326 5.75309e-28)
(1.25842 0.0345367 -2.80421e-11)
(1.25901 0.0308769 -1.56199e-27)
(1.25937 0.0273529 -3.99585e-28)
(1.25952 0.0239681 -1.57883e-27)
(1.25949 0.0207239 -4.02235e-28)
(1.25928 0.0176208 -2.47853e-27)
(1.25891 0.0146588 0)
(1.25839 0.0118371 1.18621e-27)
(1.25773 0.00915413 0)
(1.25695 0.00660806 2.83062e-11)
(1.25606 0.00419642 1.21488e-27)
(1.25506 0.00191637 -2.79004e-11)
(1.25396 -0.000235207 0)
(1.25278 -0.00226169 -2.73814e-11)
(1.25151 -0.00416669 -2.7086e-11)
(1.25018 -0.00595399 2.31319e-27)
(1.24879 -0.00762748 0)
(1.24733 -0.00919117 -2.25389e-27)
(1.24583 -0.0106491 0)
(1.2403 0.0503438 0)
(1.24296 0.0466531 2.64367e-11)
(1.2447 0.0430369 2.69665e-11)
(1.24618 0.0395246 -2.73509e-11)
(1.24753 0.0361061 -5.75309e-28)
(1.24868 0.0327802 2.80421e-11)
(1.24959 0.0295545 1.56199e-27)
(1.2503 0.026436 3.99585e-28)
(1.25081 0.0234292 1.57883e-27)
(1.25114 0.0205368 4.02235e-28)
(1.25131 0.0177606 2.47853e-27)
(1.25132 0.0151017 0)
(1.25118 0.0125605 -1.18621e-27)
(1.25091 0.0101367 0)
(1.25051 0.00782949 -2.83062e-11)
(1.24999 0.00563755 -1.21488e-27)
(1.24937 0.00355912 2.79004e-11)
(1.24865 0.00159211 0)
(1.24784 -0.000265871 2.73814e-11)
(1.24695 -0.00201746 2.7086e-11)
(1.24598 -0.00366553 -2.31319e-27)
(1.24494 -0.00521309 0)
(1.24384 -0.0066633 2.25389e-27)
(1.24268 -0.00801942 0)
(1.23035 0.0456837 0)
(1.23302 0.0425236 0)
(1.23493 0.0394119 9.28854e-28)
(1.23661 0.036375 0)
(1.23815 0.0334066 0)
(1.23951 0.0305073 0)
(1.24066 0.0276849 0)
(1.24161 0.0249464 0)
(1.24237 0.022297 -1.3703e-27)
(1.24297 0.01974 0)
(1.2434 0.017278 2.17789e-27)
(1.24369 0.0149128 0)
(1.24383 0.0126458 0)
(1.24384 0.0104774 -2.19762e-27)
(1.24373 0.00840751 0)
(1.24351 0.00643578 2.19373e-27)
(1.24317 0.00456123 -1.05078e-27)
(1.24274 0.00278258 0)
(1.24221 0.00109822 0)
(1.2416 -0.000493707 0)
(1.24091 -0.0019953 2.13679e-27)
(1.24015 -0.00340885 0)
(1.23932 -0.0047368 0)
(1.23843 -0.00598174 0)
(1.22153 0.0409057 0)
(1.22416 0.0382136 0)
(1.22619 0.0355523 -9.28854e-28)
(1.228 0.0329446 0)
(1.22967 0.0303866 0)
(1.23117 0.0278798 0)
(1.23248 0.0254314 0)
(1.2336 0.0230485 0)
(1.23455 0.020736 1.3703e-27)
(1.23534 0.0184976 0)
(1.23598 0.0163363 -2.17789e-27)
(1.23647 0.0142543 0)
(1.23683 0.0122535 0)
(1.23706 0.0103348 2.19762e-27)
(1.23716 0.00849872 0)
(1.23715 0.00674545 -2.19373e-27)
(1.23704 0.00507465 1.05078e-27)
(1.23683 0.00348564 0)
(1.23652 0.00197743 0)
(1.23613 0.000548763 0)