/*--------------------------------*- C++ -*----------------------------------*\
  =========                 |
  \\      /  F ield         | OpenFOAM: The Open Source CFD Toolbox
   \\    /   O peration     | Website:  https://openfoam.org
    \\  /    A nd           | Version:  7
     \\/     M anipulation  |
\*---------------------------------------------------------------------------*/
FoamFile
{
    version     2.0;
    format      ascii;
    class       volScalarField;
    location    "65";
    object      p;
}
// * * * * * * * * * * * * * * * * * * * * * * * * * * * * * * * * * * * * * //

dimensions      [0 2 -2 0 0 0 0];

internalField   nonuniform List<scalar> 
3500
(
-0.233804
-0.235466
-0.237183
-0.238785
-0.240007
-0.240576
-0.240935
-0.238967
-0.229805
-0.233197
-0.234572
-0.236181
-0.23786
-0.23946
-0.240749
-0.241033
-0.242027
-0.239036
-0.23181
-0.234799
-0.236003
-0.237489
-0.239071
-0.240613
-0.242191
-0.241485
-0.244356
-0.238808
-0.234568
-0.236987
-0.237902
-0.23916
-0.24056
-0.241817
-0.244234
-0.241187
-0.247933
-0.237426
-0.237851
-0.239565
-0.240038
-0.240912
-0.242055
-0.242623
-0.246542
-0.239804
-0.250969
-0.236031
-0.241461
-0.24236
-0.242204
-0.242478
-0.243248
-0.243033
-0.247425
-0.238424
-0.252857
-0.234723
-0.245289
-0.245272
-0.244282
-0.243742
-0.243774
-0.243106
-0.247147
-0.236861
-0.250897
-0.235275
-0.249352
-0.248293
-0.246276
-0.244716
-0.243807
-0.242695
-0.245035
-0.23657
-0.244272
-0.234645
-0.253851
-0.251514
-0.248352
-0.245587
-0.243562
-0.241853
-0.241344
-0.23588
-0.235243
-0.228811
-0.259108
-0.25521
-0.250765
-0.246646
-0.243353
-0.240436
-0.237036
-0.23189
-0.22484
-0.217913
-0.265484
-0.259757
-0.253859
-0.248196
-0.243294
-0.238368
-0.23213
-0.224715
-0.213469
-0.203543
-0.273426
-0.265537
-0.257914
-0.25038
-0.243295
-0.235548
-0.226123
-0.215393
-0.202354
-0.190332
-0.283403
-0.272876
-0.263069
-0.25328
-0.24317
-0.231778
-0.218906
-0.205362
-0.190686
-0.177572
-0.29582
-0.281915
-0.269506
-0.256827
-0.242566
-0.2269
-0.210702
-0.194582
-0.178799
-0.165338
-0.310944
-0.292394
-0.277472
-0.260585
-0.240986
-0.220802
-0.201406
-0.183253
-0.166694
-0.152612
-0.328748
-0.303971
-0.286483
-0.263632
-0.237912
-0.21326
-0.191039
-0.171219
-0.15398
-0.139385
-0.348052
-0.316697
-0.294826
-0.264717
-0.232819
-0.204087
-0.179406
-0.158266
-0.140518
-0.125311
-0.36683
-0.330391
-0.300615
-0.262699
-0.225219
-0.192985
-0.166293
-0.144164
-0.126005
-0.110404
-0.382909
-0.343385
-0.302743
-0.256884
-0.214651
-0.179639
-0.151415
-0.128631
-0.110319
-0.0946711
-0.394618
-0.352791
-0.300324
-0.246874
-0.200735
-0.163704
-0.134485
-0.111428
-0.0932652
-0.0780762
-0.400835
-0.355958
-0.292181
-0.232272
-0.183154
-0.144881
-0.115258
-0.0923631
-0.0746806
-0.0602251
-0.40058
-0.350965
-0.277441
-0.212653
-0.161643
-0.122936
-0.0935735
-0.0713902
-0.0544723
-0.0405587
-0.392685
-0.336749
-0.255586
-0.187656
-0.13599
-0.0977662
-0.0694014
-0.0485567
-0.0326679
-0.0190898
-0.375757
-0.312797
-0.226293
-0.157072
-0.106163
-0.0694927
-0.0428775
-0.0238953
-0.00906578
0.00310368
-0.348445
-0.278982
-0.189331
-0.121026
-0.0724307
-0.0384263
-0.0142448
0.00275529
0.0160933
0.026023
-0.309811
-0.235428
-0.144788
-0.0800579
-0.0351743
-0.00457018
0.0164515
0.031069
0.0423045
0.0494651
-0.259629
-0.182176
-0.0936723
-0.0344197
0.00544591
0.0316771
0.0489106
0.0605234
0.0688896
0.0726968
-0.198334
-0.119112
-0.0373729
0.0152117
0.0488856
0.0698725
0.0827199
0.0905323
0.0949812
0.0947205
-0.12647
-0.0483979
0.0233814
0.0678433
0.094433
0.109502
0.117425
0.120633
0.120082
0.115279
-0.0445075
0.0263088
0.0874642
0.122467
0.141254
0.14991
0.152458
0.150551
0.144772
0.136135
0.044055
0.103745
0.153313
0.177976
0.188423
0.19029
0.187083
0.179881
0.169583
0.161934
0.136091
0.182289
0.21926
0.233126
0.234944
0.229793
0.220605
0.208266
0.194629
0.186572
0.228244
0.259834
0.283606
0.286596
0.279764
0.267609
0.2526
0.235649
0.219104
0.208623
0.317168
0.334148
0.344661
0.337047
0.321809
0.302865
0.282364
0.261289
0.241968
0.228419
0.399631
0.403019
0.400783
0.383185
0.360081
0.334841
0.309347
0.284541
0.262402
0.245647
0.472803
0.464293
0.450389
0.423765
0.393603
0.362769
0.332922
0.304867
0.280071
0.260231
0.534541
0.515798
0.491991
0.457682
0.421533
0.385984
0.352502
0.321719
0.294585
0.271997
0.58282
0.555857
0.524323
0.483986
0.443149
0.403929
0.367638
0.334727
0.305698
0.280841
0.615976
0.583251
0.54642
0.50194
0.457882
0.416147
0.377941
0.343574
0.313213
0.286726
0.511044
0.465347
0.422335
0.383157
0.34805
0.317002
0.289656
-0.238142
-0.237355
-0.236466
-0.23549
-0.23443
-0.233294
-0.23209
-0.230822
-0.229495
-0.22811
-0.22667
-0.225177
-0.22363
-0.22203
-0.220377
-0.218671
-0.216912
-0.215104
-0.21325
-0.211349
-0.209398
-0.207398
-0.205348
-0.203248
-0.201098
-0.198897
-0.196646
-0.194343
-0.19199
-0.238609
-0.237792
-0.236868
-0.235869
-0.234791
-0.233641
-0.232428
-0.231155
-0.229825
-0.228441
-0.227004
-0.225514
-0.223972
-0.222376
-0.220726
-0.219022
-0.217269
-0.215476
-0.213632
-0.211737
-0.209793
-0.207798
-0.205752
-0.203655
-0.201508
-0.19931
-0.19706
-0.194759
-0.192406
-0.239465
-0.238497
-0.237505
-0.236481
-0.235386
-0.234224
-0.233001
-0.231723
-0.230392
-0.229011
-0.227581
-0.226101
-0.22457
-0.222986
-0.221345
-0.219654
-0.217922
-0.216136
-0.214299
-0.212412
-0.210476
-0.208489
-0.206452
-0.204363
-0.202222
-0.200028
-0.197783
-0.195486
-0.193136
-0.241605
-0.239156
-0.238281
-0.237128
-0.236012
-0.234842
-0.233622
-0.232352
-0.231033
-0.229664
-0.228245
-0.226777
-0.225258
-0.223683
-0.222042
-0.22038
-0.218654
-0.216883
-0.215064
-0.213195
-0.211275
-0.209305
-0.207264
-0.205195
-0.203067
-0.200887
-0.198654
-0.196368
-0.194028
-0.191634
-0.240359
-0.24004
-0.238791
-0.237591
-0.236464
-0.235305
-0.234099
-0.232851
-0.231558
-0.23022
-0.228834
-0.227402
-0.22592
-0.224385
-0.222787
-0.221137
-0.219437
-0.217685
-0.215882
-0.214027
-0.212122
-0.210166
-0.208157
-0.206094
-0.203978
-0.201808
-0.199585
-0.197307
-0.194976
-0.19259
-0.237495
-0.238406
-0.238106
-0.237324
-0.236349
-0.23528
-0.234162
-0.232987
-0.231742
-0.230436
-0.229078
-0.227672
-0.226213
-0.224694
-0.223108
-0.221433
-0.219774
-0.218081
-0.216327
-0.214512
-0.212642
-0.21072
-0.208743
-0.206714
-0.20463
-0.20249
-0.200294
-0.198042
-0.195735
-0.193371
-0.233996
-0.234781
-0.235533
-0.235505
-0.234848
-0.234008
-0.233163
-0.232232
-0.231158
-0.229975
-0.22873
-0.227432
-0.226076
-0.224655
-0.223163
-0.221577
-0.219866
-0.218141
-0.216448
-0.214709
-0.212899
-0.211015
-0.209067
-0.207061
-0.204999
-0.20288
-0.200706
-0.198477
-0.196193
-0.193854
-0.191458
-0.230878
-0.230599
-0.231906
-0.23221
-0.231573
-0.230937
-0.230479
-0.229888
-0.229041
-0.228029
-0.226935
-0.225768
-0.22452
-0.223195
-0.221798
-0.22033
-0.218784
-0.217131
-0.21536
-0.213597
-0.211927
-0.21021
-0.208407
-0.206518
-0.204549
-0.202506
-0.200396
-0.198227
-0.196003
-0.193722
-0.191382
-0.188983
-0.225322
-0.225405
-0.227259
-0.227249
-0.226375
-0.226048
-0.226084
-0.225912
-0.225432
-0.224784
-0.224032
-0.223164
-0.222175
-0.221079
-0.219886
-0.2186
-0.217222
-0.215756
-0.214189
-0.212465
-0.210542
-0.208667
-0.206955
-0.205208
-0.203371
-0.201437
-0.199413
-0.197319
-0.195167
-0.192956
-0.190679
-0.188339
-0.217434
-0.219526
-0.221074
-0.220083
-0.219001
-0.218885
-0.219089
-0.219092
-0.21889
-0.218575
-0.218155
-0.217611
-0.216949
-0.216177
-0.215297
-0.214311
-0.213222
-0.212034
-0.210754
-0.209392
-0.207932
-0.206287
-0.204393
-0.20258
-0.200894
-0.19914
-0.197278
-0.195353
-0.193377
-0.191335
-0.189218
-0.187026
-0.184768
-0.204966
-0.211922
-0.212909
-0.211523
-0.210451
-0.210254
-0.210507
-0.21079
-0.210938
-0.210929
-0.210781
-0.210516
-0.210139
-0.209653
-0.209052
-0.208338
-0.207513
-0.206581
-0.205546
-0.204409
-0.203172
-0.201844
-0.200419
-0.198855
-0.197135
-0.195332
-0.19348
-0.191621
-0.189735
-0.187789
-0.185773
-0.183687
-0.181536
-0.186374
-0.195597
-0.198614
-0.198071
-0.197092
-0.196904
-0.197405
-0.198107
-0.198675
-0.19901
-0.199145
-0.199137
-0.199013
-0.198777
-0.198423
-0.197945
-0.197344
-0.196621
-0.195779
-0.194818
-0.19374
-0.192543
-0.191233
-0.189832
-0.188392
-0.186964
-0.185552
-0.184088
-0.182491
-0.180765
-0.178947
-0.177057
-0.1751
-0.169667
-0.179591
-0.183728
-0.184151
-0.183749
-0.183925
-0.184758
-0.185819
-0.186745
-0.18741
-0.187843
-0.188111
-0.188257
-0.188289
-0.188202
-0.187991
-0.187655
-0.187197
-0.186624
-0.185942
-0.185159
-0.184284
-0.18333
-0.182308
-0.181217
-0.18004
-0.178743
-0.177288
-0.175728
-0.174121
-0.172469
-0.170758
-0.168977
-0.155447
-0.164874
-0.169497
-0.170765
-0.17107
-0.171713
-0.172864
-0.174198
-0.175399
-0.176341
-0.177044
-0.177569
-0.177959
-0.178231
-0.178379
-0.178401
-0.178296
-0.178067
-0.177722
-0.177266
-0.176704
-0.17604
-0.175274
-0.174403
-0.173426
-0.172346
-0.171174
-0.169933
-0.16865
-0.167298
-0.165859
-0.164336
-0.162737
-0.142526
-0.151412
-0.156281
-0.158191
-0.159118
-0.160201
-0.161645
-0.16321
-0.164641
-0.165824
-0.166771
-0.167533
-0.168149
-0.168638
-0.168998
-0.169229
-0.16933
-0.169305
-0.169159
-0.168899
-0.168526
-0.168045
-0.167456
-0.166765
-0.165976
-0.1651
-0.164149
-0.163125
-0.16202
-0.160825
-0.159544
-0.158185
-0.156751
-0.130955
-0.139337
-0.144278
-0.14662
-0.148024
-0.149476
-0.151176
-0.152944
-0.15457
-0.15596
-0.15712
-0.158092
-0.158912
-0.159595
-0.160146
-0.160564
-0.160851
-0.161009
-0.161045
-0.160963
-0.160768
-0.160463
-0.160052
-0.159543
-0.158938
-0.158245
-0.157465
-0.156597
-0.15564
-0.154599
-0.153476
-0.152276
-0.151003
-0.120827
-0.128605
-0.133478
-0.136098
-0.137855
-0.139596
-0.141504
-0.143437
-0.145224
-0.146784
-0.148121
-0.149272
-0.150266
-0.151121
-0.15184
-0.152424
-0.152875
-0.153198
-0.153398
-0.153479
-0.153446
-0.153304
-0.153057
-0.15271
-0.152265
-0.151726
-0.151094
-0.150372
-0.149564
-0.148673
-0.147703
-0.146656
-0.145534
-0.111873
-0.119045
-0.123783
-0.126577
-0.12859
-0.130546
-0.132612
-0.134673
-0.136584
-0.138278
-0.13976
-0.141059
-0.142201
-0.143203
-0.144067
-0.144796
-0.145394
-0.145863
-0.146208
-0.146436
-0.14655
-0.146555
-0.146453
-0.14625
-0.145948
-0.145549
-0.145058
-0.144478
-0.143812
-0.143064
-0.142235
-0.141329
-0.140347
-0.103905
-0.110532
-0.115103
-0.117995
-0.120184
-0.122293
-0.124471
-0.126622
-0.128625
-0.130423
-0.132019
-0.133438
-0.134704
-0.135828
-0.136817
-0.137672
-0.138396
-0.138994
-0.139469
-0.139827
-0.140071
-0.140206
-0.140236
-0.140163
-0.139991
-0.139724
-0.139364
-0.138916
-0.138381
-0.137763
-0.137065
-0.136288
-0.135436
-0.096844
-0.102965
-0.107345
-0.110275
-0.112579
-0.114792
-0.117043
-0.119253
-0.12132
-0.123194
-0.124878
-0.126392
-0.127757
-0.128984
-0.130077
-0.131039
-0.131872
-0.13258
-0.133169
-0.133641
-0.134001
-0.134252
-0.134399
-0.134445
-0.134392
-0.134244
-0.134004
-0.133676
-0.133261
-0.132763
-0.132184
-0.131528
-0.130796
-0.0905847
-0.0962304
-0.100407
-0.103337
-0.105712
-0.107989
-0.110283
-0.112528
-0.114634
-0.116561
-0.118309
-0.119896
-0.12134
-0.12265
-0.123829
-0.12488
-0.125806
-0.126609
-0.127295
-0.127867
-0.128329
-0.128685
-0.128936
-0.129088
-0.129142
-0.129102
-0.128971
-0.128751
-0.128446
-0.128058
-0.12759
-0.127044
-0.126423
-0.0850141
-0.0902259
-0.0942007
-0.0971039
-0.0995176
-0.101831
-0.104144
-0.106403
-0.10853
-0.11049
-0.112283
-0.113925
-0.115429
-0.116804
-0.118053
-0.119178
-0.120181
-0.121066
-0.121836
-0.122495
-0.123046
-0.123492
-0.123837
-0.124083
-0.124233
-0.12429
-0.124257
-0.124136
-0.123931
-0.123644
-0.123276
-0.122832
-0.122313
-0.0800494
-0.0848706
-0.0886498
-0.0915093
-0.0939372
-0.0962651
-0.0985802
-0.100836
-0.102969
-0.104948
-0.10677
-0.108451
-0.11
-0.111426
-0.11273
-0.113915
-0.114983
-0.115936
-0.116777
-0.117511
-0.118139
-0.118665
-0.119092
-0.119421
-0.119657
-0.119801
-0.119856
-0.119825
-0.11971
-0.119513
-0.119238
-0.118887
-0.118461
-0.0756257
-0.0800939
-0.0836859
-0.0864902
-0.088915
-0.0912415
-0.0935452
-0.095788
-0.0979151
-0.099899
-0.101739
-0.103445
-0.105027
-0.106491
-0.107839
-0.109072
-0.110192
-0.111202
-0.112104
-0.112901
-0.113596
-0.114191
-0.114689
-0.115092
-0.115404
-0.115625
-0.115759
-0.115808
-0.115775
-0.115661
-0.11547
-0.115203
-0.114862
-0.0716825
-0.0758321
-0.0792473
-0.08199
-0.0843995
-0.0867135
-0.0889969
-0.0912181
-0.0933308
-0.0953112
-0.097158
-0.0988796
-0.100484
-0.101976
-0.103356
-0.104627
-0.10579
-0.106847
-0.107799
-0.10865
-0.109402
-0.110058
-0.110618
-0.111086
-0.111464
-0.111755
-0.111959
-0.11208
-0.11212
-0.112081
-0.111965
-0.111774
-0.111511
-0.0681668
-0.0720301
-0.0752806
-0.077959
-0.0803453
-0.0826391
-0.0848961
-0.0870902
-0.0891826
-0.0911527
-0.092999
-0.0947279
-0.0963461
-0.0978572
-0.0992624
-0.100563
-0.101759
-0.102854
-0.103849
-0.104745
-0.105546
-0.106253
-0.106868
-0.107392
-0.107829
-0.10818
-0.108447
-0.108632
-0.108738
-0.108766
-0.108718
-0.108596
-0.108403
-0.0650341
-0.0686415
-0.07174
-0.0743536
-0.0767117
-0.0789804
-0.0812072
-0.083371
-0.0854391
-0.0873941
-0.0892341
-0.0909643
-0.0925897
-0.0941133
-0.0955361
-0.0968588
-0.0980821
-0.0992076
-0.100237
-0.101172
-0.102013
-0.102764
-0.103426
-0.104
-0.104488
-0.104892
-0.105215
-0.105457
-0.105621
-0.105708
-0.105721
-0.105661
-0.105531
-0.0622473
-0.0656263
-0.0685856
-0.0711358
-0.0734627
-0.0757034
-0.0778981
-0.0800298
-0.0820715
-0.0840082
-0.0858379
-0.0875647
-0.0891924
-0.0907232
-0.0921579
-0.093497
-0.094741
-0.0958911
-0.0969486
-0.097915
-0.0987916
-0.09958
-0.100282
-0.100898
-0.101431
-0.101882
-0.102253
-0.102546
-0.102761
-0.102902
-0.102969
-0.102965
-0.102891
-0.059774
-0.0629501
-0.0657827
-0.0682721
-0.0705667
-0.0727781
-0.0749402
-0.0770394
-0.0790536
-0.0809702
-0.082787
-0.084507
-0.0861332
-0.0876672
-0.0891095
-0.0904602
-0.09172
-0.0928895
-0.0939699
-0.0949623
-0.095868
-0.0966882
-0.0974242
-0.0980774
-0.0986492
-0.0991411
-0.0995545
-0.0998911
-0.100152
-0.10034
-0.100456
-0.100501
-0.100477
-0.0575866
-0.0605829
-0.0633011
-0.0657335
-0.0679958
-0.070178
-0.072308
-0.0743753
-0.0763621
-0.0782577
-0.0800601
-0.0817712
-0.0833932
-0.0849273
-0.0863736
-0.0877324
-0.0890038
-0.0901885
-0.0912873
-0.0923011
-0.093231
-0.094078
-0.0948432
-0.0955278
-0.096133
-0.0966602
-0.0971108
-0.097486
-0.0977874
-0.0980165
-0.0981748
-0.0982637
-0.098285
-0.0556614
-0.0584995
-0.0611152
-0.0634948
-0.065726
-0.0678798
-0.069979
-0.0720159
-0.0739761
-0.0758509
-0.0776381
-0.079339
-0.0809551
-0.082487
-0.0839349
-0.0852987
-0.0865786
-0.087775
-0.0888884
-0.0899196
-0.0908695
-0.0917389
-0.0925288
-0.0932401
-0.0938741
-0.0944317
-0.0949144
-0.0953232
-0.0956597
-0.095925
-0.0961207
-0.0962481
-0.0963087
-0.0963041
-0.0539782
-0.056678
-0.0592029
-0.0615343
-0.0637363
-0.0658633
-0.0679337
-0.0699421
-0.0718772
-0.0737319
-0.075504
-0.0771941
-0.0788032
-0.0803316
-0.0817792
-0.0831459
-0.0844317
-0.0856369
-0.0867619
-0.0878072
-0.0887735
-0.0896615
-0.0904721
-0.0912061
-0.0918644
-0.0924482
-0.0929584
-0.0933963
-0.093763
-0.0940599
-0.0942881
-0.0944491
-0.0945441
-0.0945747
-0.0525199
-0.0551
-0.0575453
-0.0598335
-0.0620086
-0.0641109
-0.066155
-0.0681373
-0.0700493
-0.0718852
-0.0736428
-0.0753222
-0.0769238
-0.0784478
-0.0798939
-0.0812619
-0.0825517
-0.0837635
-0.0848974
-0.085954
-0.0869337
-0.0878371
-0.0886649
-0.0894179
-0.0900969
-0.0907027
-0.0912365
-0.0916992
-0.0920919
-0.0924158
-0.0926721
-0.0928621
-0.0929869
-0.0930481
-0.051272
-0.0537497
-0.0561263
-0.0583766
-0.0605276
-0.0626078
-0.0646283
-0.0665873
-0.0684785
-0.0702972
-0.0720414
-0.0737105
-0.0753048
-0.076824
-0.0782679
-0.0796361
-0.0809285
-0.0821451
-0.0832859
-0.0843514
-0.0853419
-0.0862579
-0.0870999
-0.0878687
-0.0885648
-0.0891892
-0.0897428
-0.0902264
-0.0906411
-0.090988
-0.0912682
-0.0914829
-0.0916332
-0.0917205
-0.0502224
-0.0526141
-0.0549325
-0.0571501
-0.0592803
-0.0613411
-0.0633413
-0.06528
-0.067153
-0.0689566
-0.0706886
-0.0723485
-0.0739358
-0.0754503
-0.0768917
-0.0782594
-0.0795533
-0.0807733
-0.0819194
-0.0829919
-0.083991
-0.0849171
-0.0857706
-0.0865522
-0.0872625
-0.0879022
-0.0884721
-0.0889732
-0.0894062
-0.0897723
-0.0900725
-0.0903078
-0.0904796
-0.0905888
-0.0493608
-0.0516821
-0.0539524
-0.0561431
-0.0582557
-0.0603004
-0.0622834
-0.0642051
-0.0660628
-0.0678535
-0.0695752
-0.071227
-0.0728081
-0.0743183
-0.075757
-0.0771239
-0.0784186
-0.079641
-0.0807911
-0.0818689
-0.0828746
-0.0838087
-0.0846714
-0.0854633
-0.0861849
-0.086837
-0.0874202
-0.0879353
-0.0883832
-0.0887649
-0.0890814
-0.0893337
-0.0895229
-0.0896501
-0.0486793
-0.0509449
-0.0531772
-0.0553463
-0.0574449
-0.0594767
-0.0614461
-0.0633542
-0.0651995
-0.0669798
-0.0686932
-0.0703382
-0.0719143
-0.0734208
-0.0748572
-0.0762231
-0.0775182
-0.0787422
-0.0798951
-0.0809769
-0.0819878
-0.0829279
-0.0837977
-0.0845975
-0.0853279
-0.0859896
-0.0865831
-0.0871093
-0.0875689
-0.0879628
-0.0882921
-0.0885577
-0.0887606
-0.088902
-0.0481724
-0.0503973
-0.0526016
-0.0547547
-0.0568428
-0.0588647
-0.0608236
-0.0627214
-0.0645574
-0.0663298
-0.0680367
-0.0696766
-0.0712487
-0.0727522
-0.0741868
-0.0755518
-0.076847
-0.0780721
-0.079227
-0.0803116
-0.0813261
-0.0822706
-0.0831455
-0.0839512
-0.0846881
-0.0853568
-0.0859579
-0.0864922
-0.0869604
-0.0873634
-0.0877022
-0.0879776
-0.0881907
-0.0883426
-0.0478312
-0.0500314
-0.052219
-0.0543628
-0.0564446
-0.0584603
-0.0604124
-0.0623032
-0.0641329
-0.0658999
-0.0676024
-0.0692387
-0.070808
-0.0723095
-0.0737426
-0.0751069
-0.0764021
-0.0776277
-0.0787838
-0.0798702
-0.080887
-0.0818343
-0.0827125
-0.083522
-0.084263
-0.0849363
-0.0855424
-0.0860821
-0.0865559
-0.0869649
-0.0873099
-0.0875918
-0.0878117
-0.0879706
-0.0476448
-0.0498337
-0.0520157
-0.0541579
-0.056239
-0.0582533
-0.0602031
-0.0620913
-0.0639185
-0.0656833
-0.067384
-0.0690189
-0.0705871
-0.0720877
-0.0735203
-0.0748844
-0.0761796
-0.0774056
-0.0785624
-0.0796497
-0.0806676
-0.0816164
-0.0824963
-0.0833076
-0.0840508
-0.0847264
-0.085335
-0.0858773
-0.086354
-0.086766
-0.0871141
-0.0873992
-0.0876224
-0.0877848
-0.192277
-0.173611
-0.156193
-0.14325
-0.13154
-0.120764
-0.1115
-0.103418
-0.0961842
-0.0897616
-0.0840895
-0.0790462
-0.0745448
-0.0705307
-0.0669521
-0.0637596
-0.0609122
-0.058377
-0.0561252
-0.0541318
-0.0523756
-0.0508386
-0.0495054
-0.0483631
-0.0474007
-0.0466091
-0.0459809
-0.0455109
-0.0451893
-0.0450074
-0.179222
-0.161996
-0.144659
-0.132436
-0.122018
-0.111993
-0.103252
-0.0958077
-0.0891823
-0.0832517
-0.0780145
-0.073376
-0.0692357
-0.0655374
-0.0622384
-0.0592946
-0.0566671
-0.0543252
-0.0522428
-0.0503974
-0.0487694
-0.0473424
-0.0461024
-0.0450376
-0.0441378
-0.0433948
-0.0428017
-0.0423535
-0.04204
-0.0418565
-0.167399
-0.151829
-0.134878
-0.122537
-0.112846
-0.103664
-0.0954205
-0.0884577
-0.0823754
-0.0769163
-0.072069
-0.0677864
-0.0639736
-0.0605651
-0.0575218
-0.0548061
-0.0523818
-0.0502195
-0.0482955
-0.0465889
-0.045082
-0.0437597
-0.0426089
-0.041619
-0.0407807
-0.0400863
-0.0395295
-0.0391057
-0.0388049
-0.0386279
-0.154754
-0.140066
-0.124351
-0.112538
-0.103513
-0.0952755
-0.0877045
-0.0812039
-0.0756004
-0.070606
-0.0661472
-0.0622006
-0.0586954
-0.0555638
-0.052765
-0.0502663
-0.0480355
-0.0460452
-0.0442731
-0.0427003
-0.0413106
-0.04009
-0.0390268
-0.038111
-0.0373342
-0.0366894
-0.036171
-0.0357745
-0.0354909
-0.0353254
-0.141656
-0.128293
-0.114162
-0.102972
-0.0943051
-0.086754
-0.0798708
-0.0738643
-0.0687024
-0.0641541
-0.0600939
-0.0564876
-0.0532866
-0.0504309
-0.0478784
-0.0455982
-0.0435621
-0.0417455
-0.0401277
-0.0386913
-0.0374215
-0.0363057
-0.0353332
-0.0344949
-0.0337832
-0.0331919
-0.0327159
-0.032351
-0.0320894
-0.0319403
-0.128091
-0.115731
-0.103055
-0.0928304
-0.0847867
-0.0779663
-0.0718424
-0.0664243
-0.0617254
-0.0576082
-0.0539461
-0.0506859
-0.047788
-0.0452048
-0.0428969
-0.0408345
-0.0389921
-0.0373485
-0.0358847
-0.034585
-0.0334358
-0.0324258
-0.0315454
-0.0307864
-0.030142
-0.0296066
-0.0291758
-0.0288457
-0.0286098
-0.0284804
-0.113849
-0.102874
-0.0918603
-0.0827437
-0.0753521
-0.0691416
-0.0636716
-0.0588345
-0.0546115
-0.0509181
-0.047649
-0.0447396
-0.0421495
-0.0398408
-0.0377806
-0.0359402
-0.034296
-0.0328295
-0.0315239
-0.030365
-0.0293405
-0.0284403
-0.0276558
-0.0269798
-0.0264063
-0.0259303
-0.0255482
-0.0252564
-0.0250498
-0.024943
-0.0991716
-0.0896146
-0.0801223
-0.0721515
-0.065567
-0.0600693
-0.0552902
-0.0510759
-0.0473701
-0.0441161
-0.0412401
-0.0386826
-0.0364019
-0.0343674
-0.0325556
-0.03094
-0.0294972
-0.0282108
-0.0270663
-0.0260508
-0.0251536
-0.0243657
-0.0236796
-0.0230891
-0.0225889
-0.0221749
-0.0218438
-0.0215926
-0.0214179
-0.0213346
-0.0839982
-0.0759158
-0.0680478
-0.0613531
-0.0556669
-0.0508919
-0.0467608
-0.0431379
-0.0399488
-0.0371428
-0.0346657
-0.0324661
-0.0305019
-0.0287481
-0.0271923
-0.0258101
-0.0245773
-0.0234787
-0.0225017
-0.0216354
-0.0208706
-0.0201996
-0.0196161
-0.0191148
-0.0186914
-0.0183423
-0.018065
-0.0178572
-0.0177164
-0.0176561
-0.0683804
-0.0616878
-0.0553648
-0.0499826
-0.0452986
-0.0413431
-0.0379196
-0.0349254
-0.0322873
-0.0299609
-0.0279066
-0.026084
-0.0244545
-0.0229991
-0.0217127
-0.020574
-0.0195595
-0.0186556
-0.0178519
-0.0171397
-0.0165113
-0.0159608
-0.015483
-0.0150736
-0.0147292
-0.014447
-0.0142252
-0.0140622
-0.0139563
-0.0139177
-0.0518872
-0.0469234
-0.0420403
-0.0381075
-0.0344983
-0.0314339
-0.0287457
-0.026399
-0.0243362
-0.0225214
-0.0209227
-0.019507
-0.0182459
-0.0171266
-0.016128
-0.0152446
-0.0144572
-0.0137552
-0.0131308
-0.0125776
-0.0120899
-0.0116633
-0.0112939
-0.0109788
-0.0107153
-0.0105016
-0.0103366
-0.010219
-0.0101465
-0.0101337
-0.0341162
-0.0316726
-0.0280352
-0.0256672
-0.0231161
-0.0210336
-0.0191618
-0.0175433
-0.0161233
-0.0148762
-0.0137769
-0.0128001
-0.0119401
-0.0111968
-0.0104939
-0.009872
-0.00931539
-0.00881811
-0.00837519
-0.0079825
-0.0076366
-0.00733463
-0.00707426
-0.0068536
-0.00667114
-0.0065258
-0.00641738
-0.00634458
-0.00630363
-0.0063209
-0.0151749
-0.0157395
-0.013412
-0.0126231
-0.0112508
-0.0102375
-0.00929343
-0.00848536
-0.00777279
-0.00714001
-0.00657245
-0.00605863
-0.00560195
-0.0052004
-0.00481154
-0.00445778
-0.00413738
-0.00384831
-0.00358923
-0.00335886
-0.00315603
-0.00297973
-0.00282908
-0.00270339
-0.00260211
-0.00252506
-0.00247255
-0.00244288
-0.00243607
-0.00247615
0.00472009
0.00153606
0.0020256
0.00121479
0.00109665
0.000854563
0.000711555
0.000612528
0.000564759
0.000560075
0.000589689
0.000643758
0.000708519
0.000779428
0.000865429
0.000955263
0.00104329
0.00112671
0.00120361
0.00127264
0.00133293
0.00138389
0.00142506
0.00145611
0.00147669
0.00148622
0.00148426
0.00147205
0.00144569
0.00138923
0.02543
0.0197708
0.0179689
0.01527
0.0134243
0.0118252
0.0105764
0.0095915
0.00882002
0.00821443
0.00773621
0.00735383
0.00704173
0.0067853
0.00657552
0.00640171
0.00625472
0.00612851
0.00601862
0.0059217
0.0058352
0.00575711
0.00568582
0.00561997
0.00555837
0.00549983
0.00544374
0.0053903
0.00533336
0.00526598
0.0464275
0.0381506
0.0337303
0.0291183
0.0256635
0.0228532
0.0206263
0.0188382
0.0173856
0.0161902
0.0151932
0.0143503
0.0136289
0.0130071
0.0124678
0.011998
0.0115864
0.0112245
0.0109054
0.0106236
0.0103748
0.0101551
0.00996138
0.00979107
0.00964181
0.00951166
0.00939954
0.00930429
0.00921947
0.00914644
0.0669287
0.0562443
0.049589
0.0435902
0.0389322
0.0351064
0.0319454
0.029295
0.0270475
0.0251246
0.0234672
0.0220293
0.0207758
0.0196799
0.0187195
0.017877
0.0171371
0.016487
0.015916
0.015415
0.0149764
0.0145933
0.0142604
0.0139728
0.0137264
0.0135182
0.013346
0.0132071
0.0130965
0.0130219
0.0869851
0.0755053
0.0676294
0.0606564
0.0547839
0.0496958
0.0452739
0.0414264
0.0380766
0.0351585
0.0326145
0.0303943
0.0284554
0.0267615
0.0252811
0.0239874
0.022857
0.0218697
0.0210083
0.0202579
0.0196058
0.0190413
0.0185554
0.0181403
0.0177898
0.017499
0.0172639
0.0170808
0.0169466
0.0168723
0.107851
0.0974491
0.0882968
0.0797235
0.0719966
0.0651241
0.0590696
0.0537717
0.0491533
0.0451352
0.0416421
0.0386058
0.0359662
0.0336709
0.0316743
0.0299373
0.0284261
0.0271117
0.0259697
0.0249791
0.0241221
0.0233839
0.022752
0.0222161
0.0217677
0.0213999
0.0211074
0.0208855
0.0207323
0.0206575
0.127042
0.115911
0.104375
0.0937215
0.0842964
0.0760719
0.0689242
0.0627222
0.0573438
0.0526793
0.0486315
0.0451161
0.0420601
0.0394012
0.0370861
0.0350693
0.0333121
0.0317817
0.0304505
0.0292947
0.0282946
0.0274335
0.0266976
0.0260753
0.0255572
0.0251356
0.0248044
0.0245588
0.024397
0.0243225
0.141787
0.125846
0.112681
0.101211
0.0913059
0.0827757
0.0754051
0.0690136
0.0634574
0.0586188
0.0543988
0.0507133
0.0474903
0.0446689
0.042197
0.0400306
0.038132
0.0364694
0.0350156
0.0337478
0.0326464
0.031695
0.0308799
0.0301896
0.0296147
0.0291474
0.0287816
0.0285129
0.0283389
0.0282563
0.153334
0.135139
0.121266
0.109545
0.0993969
0.0905955
0.0829548
0.0763023
0.0704918
0.0654045
0.0609422
0.0570223
0.0535745
0.0505392
0.0478653
0.0455095
0.0434347
0.0416093
0.0400062
0.0386025
0.0373786
0.0363179
0.0354065
0.0346326
0.0339864
0.03346
0.0330471
0.032743
0.0325441
0.0324464
0.158781
0.14222
0.128394
0.116647
0.106472
0.0975905
0.0898195
0.0830057
0.0770157
0.0717384
0.0670811
0.0629659
0.0593264
0.0561054
0.0532541
0.0507303
0.0484981
0.0465264
0.0447885
0.0432618
0.0419266
0.0407663
0.0397668
0.0389162
0.0382047
0.0376239
0.0371676
0.0368306
0.0366087
0.0364986
0.161312
0.146387
0.133332
0.122026
0.11213
0.103395
0.0956667
0.0888256
0.0827641
0.0773867
0.072611
0.0683664
0.0645918
0.0612345
0.0582486
0.0555944
0.0532376
0.0511482
0.0493006
0.0476726
0.0462449
0.0450012
0.0439275
0.0430121
0.0422449
0.0416178
0.0411242
0.0407589
0.0405177
0.0403979
0.161451
0.148561
0.136698
0.12606
0.116587
0.108134
0.100582
0.093832
0.0877999
0.0824081
0.077587
0.0732755
0.0694196
0.0659722
0.0628916
0.0601413
0.0576894
0.0555078
0.0535723
0.0518617
0.0503576
0.0490441
0.0479078
0.046937
0.0461221
0.045455
0.0449291
0.0445393
0.0442816
0.0441533
0.160632
0.149252
0.138563
0.128766
0.119879
0.11184
0.104574
0.0980142
0.0920989
0.0867695
0.0819708
0.0776523
0.0737681
0.0702773
0.0671431
0.0643328
0.0618175
0.0595716
0.0575724
0.0558003
0.0542381
0.0528706
0.051685
0.0506703
0.0498171
0.0491176
0.0485656
0.0481559
0.0478848
0.0477499
0.158855
0.148958
0.13944
0.130521
0.122278
0.114715
0.107802
0.101501
0.095768
0.0905619
0.0858406
0.0815643
0.0776955
0.0742001
0.0710465
0.0682064
0.0656542
0.063367
0.0613245
0.0595086
0.0579033
0.0564949
0.0552712
0.054222
0.0533383
0.0526128
0.0520395
0.0516136
0.0513316
0.0511912
0.156744
0.148031
0.139531
0.131457
0.123886
0.116845
0.110335
0.104341
0.0988401
0.0938046
0.0892053
0.0850127
0.0811977
0.0777326
0.0745913
0.0717499
0.0691863
0.0668807
0.0648149
0.0629728
0.0613402
0.0599044
0.0586543
0.0575803
0.0566744
0.0559297
0.0553405
0.0549025
0.0546123
0.0544677
0.154277
0.146656
0.139107
0.131831
0.124913
0.118399
0.11231
0.10665
0.101412
0.09658
0.0921357
0.0880583
0.0843267
0.0809193
0.0778155
0.0749956
0.0724414
0.0701358
0.0680632
0.0662097
0.0645625
0.0631104
0.0618435
0.0607531
0.0598319
0.0590736
0.058473
0.058026
0.0577297
0.0575821
0.151764
0.145044
0.138312
0.131757
0.125457
0.119461
0.113799
0.108488
0.103531
0.0989242
0.0946582
0.0907201
0.0870954
0.0837686
0.0807238
0.0779457
0.0754193
0.0731307
0.0710667
0.0692154
0.0675659
0.0661084
0.0648341
0.0637354
0.0628057
0.0620393
0.0614318
0.0609792
0.0606791
0.0605294
0.149184
0.14327
0.137279
0.131384
0.125657
0.120152
0.114906
0.109943
0.105275
0.100905
0.0968321
0.0930495
0.0895485
0.0863188
0.0833493
0.0806282
0.078144
0.0758857
0.0738425
0.0720046
0.0703627
0.0689085
0.0676345
0.0665341
0.0656015
0.0648318
0.0642208
0.0637655
0.0634632
0.0633125
0.14669
0.141453
0.1361
0.130788
0.125585
0.12054
0.115692
0.111069
0.106689
0.102561
0.0986886
0.0950716
0.091706
0.088586
0.0857042
0.0830526
0.0806228
0.0784062
0.0763944
0.0745796
0.0729541
0.0715113
0.0702447
0.0691487
0.0682184
0.0674496
0.0668388
0.0663832
0.0660806
0.0659297
0.144267
0.139624
0.13484
0.130054
0.125326
0.120705
0.116231
0.111933
0.107833
0.103945
0.100275
0.0968284
0.0936049
0.0906023
0.0878168
0.0852435
0.0828766
0.0807101
0.0787377
0.0769535
0.0753515
0.0739262
0.0726726
0.0715859
0.0706622
0.0698979
0.06929
0.0688361
0.0685346
0.0683841
0.141986
0.137848
0.133555
0.12923
0.124928
0.120695
0.116568
0.112577
0.108746
0.10509
0.101621
0.0983453
0.0952666
0.0923859
0.0897023
0.0872134
0.084916
0.0828061
0.0808797
0.0791322
0.0775594
0.076157
0.0749211
0.0738481
0.0729346
0.0721778
0.0715753
0.0711251
0.0708258
0.0706765
0.139833
0.136136
0.132276
0.128362
0.124443
0.120561
0.116753
0.113049
0.109471
0.106038
0.102763
0.0996556
0.0967212
0.0939637
0.0913843
0.0889832
0.0867592
0.0847103
0.082834
0.0811277
0.0795882
0.0782126
0.076998
0.0759417
0.0750412
0.0742943
0.0736992
0.0732541
0.0729581
0.0728103
0.137842
0.134521
0.131036
0.12748
0.123901
0.120337
0.116819
0.113379
0.110038
0.106816
0.103727
0.100782
0.0979885
0.0953529
0.0928782
0.0905662
0.0884177
0.0864324
0.0846093
0.0829471
0.081444
0.0800982
0.0789077
0.0778708
0.0769856
0.0762505
0.0756642
0.0752255
0.0749335
0.0747877
0.136
0.133004
0.129847
0.12661
0.123334
0.120053
0.116799
0.1136
0.110478
0.107453
0.104539
0.101749
0.0990922
0.0965752
0.0942033
0.0919798
0.0899071
0.0879862
0.0862176
0.0846011
0.0831362
0.081822
0.0806575
0.0796415
0.0787731
0.0780512
0.0774749
0.0770433
0.076756
0.0766124
0.134318
0.131602
0.128728
0.125768
0.122758
0.119731
0.116714
0.113735
0.110814
0.107971
0.105221
0.102577
0.100049
0.0976459
0.0953734
0.0932364
0.0912383
0.0893815
0.0876676
0.0860974
0.0846716
0.0833899
0.0822524
0.0812586
0.080408
0.0797002
0.0791346
0.0787108
0.0784285
0.0782874
0.132785
0.13031
0.127684
0.124967
0.122193
0.119391
0.116587
0.113805
0.111067
0.10839
0.105792
0.103284
0.100878
0.098582
0.0964043
0.0943502
0.0924242
0.0906299
0.0889696
0.0874453
0.0860583
0.0848094
0.0836992
0.0827279
0.0818955
0.0812022
0.0806477
0.080232
0.0799549
0.0798164
0.131402
0.129135
0.126723
0.124217
0.121649
0.119046
0.11643
0.113826
0.111253
0.108728
0.106268
0.103885
0.101591
0.0993961
0.0973075
0.0953319
0.0934747
0.0917401
0.0901316
0.0886518
0.0873028
0.0860861
0.0850029