/*--------------------------------*- C++ -*----------------------------------*\
  =========                 |
  \\      /  F ield         | OpenFOAM: The Open Source CFD Toolbox
   \\    /   O peration     | Website:  https://openfoam.org
    \\  /    A nd           | Version:  7
     \\/     M anipulation  |
\*---------------------------------------------------------------------------*/
FoamFile
{
    version     2.0;
    format      ascii;
    class       surfaceScalarField;
    location    "65";
    object      phi;
}
// * * * * * * * * * * * * * * * * * * * * * * * * * * * * * * * * * * * * * //

dimensions      [0 3 -1 0 0 0 0];

internalField   nonuniform List<scalar> 
6856
(
-0.00042354
0.000197401
-0.000651931
0.000228194
-0.000903593
0.000251522
-0.00117516
0.000271527
-0.00146158
0.000286545
-0.00174697
0.000285761
-0.00205835
0.000312133
0.000249466
-0.00230652
-6.95192e-05
0.000144218
-0.000210501
0.000291823
-0.000393811
0.00038071
-0.000602812
0.000437196
-0.000828261
0.000476971
-0.00106471
0.000507977
-0.00130942
0.00053125
-0.00152707
0.00050341
-0.00177963
0.000564699
0.0003802
-0.00191037
-5.98066e-05
0.000204025
-0.000181888
0.000413904
-0.000337859
0.000536681
-0.000509356
0.000608693
-0.000683769
0.000651384
-0.000849032
0.00067324
-0.00100902
0.000691238
-0.00109146
0.000585851
-0.00121453
0.000687765
0.000291564
-0.00112589
-4.7404e-05
0.000251429
-0.000144134
0.000510634
-0.000262235
0.000654782
-0.000380447
0.000726905
-0.000481964
0.000752902
-0.00054209
0.000733366
-0.000564361
0.000713509
-0.00045486
0.00047635
-0.000321134
0.000554039
-7.29604e-05
4.33904e-05
-3.4446e-05
0.000285875
-0.000102385
0.000578573
-0.000175278
0.000727674
-0.000227147
0.000778775
-0.00023444
0.000760194
-0.000166745
0.000665671
3.13189e-05
0.000515445
0.000376161
0.000131507
0.000870791
5.94097e-05
-0.000943865
0.00174169
-2.30149e-05
0.000308889
-6.16127e-05
0.000617171
-8.47878e-05
0.00075085
-5.9886e-05
0.000753873
5.27684e-05
0.00064754
0.00028468
0.000433759
0.000730091
7.00336e-05
0.00143365
-0.000572048
0.0023936
-0.000900544
-0.00247266
0.0039224
-1.45711e-05
0.000323461
-2.48884e-05
0.000627488
5.70689e-06
0.000720254
0.000121528
0.000638052
0.000378427
0.00039064
0.000838661
-2.64745e-05
0.00162016
-0.000711469
0.00273236
-0.00168424
0.00426258
-0.00243077
-0.00461195
0.00640187
-9.64797e-06
0.000333109
8.12399e-06
0.000609716
0.000100111
0.000628268
0.00033076
0.000407402
0.000784016
-6.26158e-05
0.00155408
-0.000796538
0.00273304
-0.00189043
0.00431578
-0.00326698
0.00639147
-0.00450646
-0.00698378
0.00876329
-6.52505e-06
0.000339634
4.16806e-05
0.000561511
0.000213052
0.000456897
0.000600832
1.96218e-05
0.00131987
-0.000781652
0.00247881
-0.00195548
0.00405848
-0.0034701
0.00602184
-0.00523034
0.00838074
-0.00686535
-0.00910419
0.0105012
-2.11653e-06
0.00034175
8.6729e-05
0.000472665
0.000368903
0.000174723
0.000976312
-0.000587788
0.00202823
-0.00183357
0.00356133
-0.00348858
0.00543202
-0.0053408
0.00747924
-0.00727755
0.0095894
-0.00897552
-0.0107477
0.0112329
6.07185e-06
0.000335678
0.000155478
0.000323259
0.000595516
-0.000265315
0.00148411
-0.00147639
0.00287385
-0.0032233
0.00463252
-0.00524725
0.00652594
-0.00723422
0.00831922
-0.00907084
0.00985487
-0.0105112
-0.0118893
0.0109964
2.15831e-05
0.000314095
0.00026041
8.44321e-05
0.000911859
-0.000916764
0.00209895
-0.00266348
0.00370647
-0.00483082
0.00544691
-0.00698769
0.00707616
-0.00886347
0.00841507
-0.0104098
0.00954031
-0.0116364
-0.0128607
0.0105118
4.76689e-05
0.000266426
0.000411234
-0.000279133
0.00130977
-0.0018153
0.00272045
-0.00407416
0.00433368
-0.00644404
0.00583646
-0.00849047
0.00708043
-0.0101074
0.00806832
-0.0113976
0.00892345
-0.0124915
-0.0135966
0.00965928
8.66086e-05
0.000179818
0.000610786
-0.000803311
0.00173721
-0.00294173
0.00321164
-0.00554859
0.0046418
-0.0078742
0.00582073
-0.0096694
0.00674257
-0.0110293
0.00748553
-0.0121406
0.00815255
-0.0131585
-0.014243
0.00879893
0.000141164
3.86538e-05
0.00084572
-0.00150787
0.00210961
-0.00420562
0.00348316
-0.00692215
0.00464492
-0.00903596
0.00553088
-0.0105554
0.0062117
-0.0117101
0.00678277
-0.0127117
0.00733314
-0.0137089
-0.0147789
0.00786904
0.000213712
-0.000175058
0.00108249
-0.00237664
0.00235459
-0.00547772
0.00352952
-0.00809709
0.00442429
-0.00993073
0.00507377
-0.0112048
0.00557863
-0.0122149
0.00602645
-0.0131595
0.00646725
-0.0141497
-0.0152194
0.00690774
0.000301617
-0.000476675
0.00128022
-0.00335524
0.00244892
-0.00664642
0.00339451
-0.00904268
0.00405599
-0.0105922
0.00452227
-0.0116711
0.0048945
-0.0125872
0.00523749
-0.0135025
0.00558254
-0.0144948
-0.0155667
0.00592984
0.000393063
-0.000869737
0.00140571
-0.00436789
0.00240745
-0.00764816
0.0031295
-0.00976472
0.00359758
-0.0110603
0.00392046
-0.011994
0.00418427
-0.012851
0.00443384
-0.013752
0.0046829
-0.0147438
-0.0158141
0.00493038
0.000472742
-0.00134248
0.00144195
-0.0053371
0.00225722
-0.00846343
0.00277846
-0.010286
0.00308803
-0.0113699
0.00329419
-0.0122002
0.00346298
-0.0130198
0.0036216
-0.0139107
0.00377591
-0.0148981
-0.0159644
0.00392616
0.000528366
-0.00187085
0.00139368
-0.00620241
0.00202636
-0.00909611
0.0023748
-0.0106344
0.00255318
-0.0115482
0.00265895
-0.0123059
0.00273842
-0.0130992
0.00280725
-0.0139795
0.00286786
-0.0149588
-0.0160177
0.00292122
0.000552515
-0.00242336
0.00128378
-0.00693368
0.00174136
-0.00955369
0.00194203
-0.0108351
0.00200916
-0.0116154
0.00202411
-0.0123209
0.00201698
-0.0130921
0.00199539
-0.0139579
0.00196002
-0.0149234
-0.0159763
0.00191856
0.000542585
-0.00296594
0.00112715
-0.00751824
0.00142321
-0.00984975
0.0014961
-0.010908
0.00146608
-0.0115853
0.00139591
-0.0122507
0.00130366
-0.0129999
0.00119182
-0.0138461
0.00105745
-0.014789
-0.0158318
0.000912993
0.00050135
-0.00346729
0.000937735
-0.00795463
0.00108774
-0.00999976
0.00104897
-0.0108692
0.000930807
-0.0114672
0.000778389
-0.0120983
0.000601926
-0.0128234
0.00040064
-0.0136448
0.000178289
-0.0145667
-0.0155601
-9.34244e-05
0.000435669
-0.00390296
0.000727929
-0.00824689
0.000747165
-0.010019
0.00060862
-0.0107306
0.000407342
-0.0112659
0.000173247
-0.0118642
-8.70968e-05
-0.012563
-0.000369623
-0.0133623
-0.00068791
-0.0142484
-0.0152089
-0.00103909
0.000353571
-0.00425653
0.000507989
-0.0084013
0.00040969
-0.0099207
0.00017834
-0.0104993
-0.00010141
-0.0109862
-0.000407051
-0.0115586
-0.000743404
-0.0122267
-0.00111476
-0.0129909
-0.00152409
-0.013839
-0.0147706
-0.00196241
0.000262133
-0.00451867
0.000287054
-0.00842622
7.81202e-05
-0.00971176
-0.000231322
-0.0101899
-0.000581026
-0.0106365
-0.000964016
-0.0111756
-0.00137935
-0.0118114
-0.00183373
-0.0125365
-0.0023257
-0.0133471
-0.0142452
-0.00285116
0.000166874
-0.00468554
7.56215e-05
-0.00833497
-0.000232998
-0.00940314
-0.000619467
-0.00980338
-0.00104197
-0.010214
-0.00149747
-0.0107201
-0.00198842
-0.0113204
-0.00252046
-0.0120045
-0.00309246
-0.0127751
-0.0136365
-0.0037011
7.32971e-05
-0.00475884
-0.000139259
-0.00812242
-0.000528809
-0.00901359
-0.000988267
-0.00934393
-0.00147994
-0.00972228
-0.00200508
-0.0101949
-0.00256771
-0.0107578
-0.00317218
-0.0114
-0.00382012
-0.0121271
-0.0129519
-0.00450469
-1.28131e-05
-0.00474603
-0.000341308
-0.00779392
-0.00080937
-0.00854553
-0.00133495
-0.00881835
-0.00189244
-0.00916479
-0.00248493
-0.00960245
-0.00311672
-0.010126
-0.00378932
-0.0107274
-0.00449795
-0.0114185
-0.0121992
-0.00525073
-0.000118929
-0.0046271
-0.000528342
-0.00738451
-0.00107022
-0.00800365
-0.00165787
-0.0082307
-0.00227749
-0.00854517
-0.0029342
-0.00894573
-0.0036328
-0.00942739
-0.00437606
-0.00998415
-0.0051679
-0.0106267
-0.011426
-0.00594108
-0.000209124
-0.00441797
-0.000701191
-0.00689244
-0.00130923
-0.00739562
-0.00195529
-0.00758464
-0.00263306
-0.00786739
-0.00334931
-0.00822949
-0.00410924
-0.00866746
-0.00491563
-0.00917776
-0.00576944
-0.00977287
-0.0104267
-0.00676868
-0.000289989
-0.00412798
-0.000858583
-0.00632385
-0.00152612
-0.00672809
-0.00222605
-0.00688471
-0.00295773
-0.00713571
-0.00372814
-0.00745908
-0.00454092
-0.00785467
-0.00540002
-0.00831867
-0.00632505
-0.00884784
-0.00939916
-0.00735262
-0.000362012
-0.00376597
-0.000999336
-0.00568652
-0.00172007
-0.00600735
-0.00246894
-0.00613583
-0.0032498
-0.00635485
-0.00407056
-0.00663832
-0.00493774
-0.00698749
-0.00586035
-0.00739606
-0.00685312
-0.00785507
-0.00834264
-0.00790964
-0.000424886
-0.00334108
-0.00112274
-0.00498867
-0.0018905
-0.00523959
-0.00268296
-0.00534338
-0.00350704
-0.00553078
-0.00437062
-0.00577474
-0.00528162
-0.00607649
-0.00625106
-0.00642662
-0.00729058
-0.00681555
-0.00723799
-0.00839523
-0.000477628
-0.00286346
-0.0012281
-0.0042382
-0.00203699
-0.0044307
-0.00286782
-0.00451255
-0.00373041
-0.00466818
-0.00463336
-0.00487179
-0.00558555
-0.0051243
-0.00659656
-0.00541561
-0.00767369
-0.00573842
-0.0060944
-0.00881728
-0.00051873
-0.00234473
-0.00131507
-0.00344185
-0.00215917
-0.00358661
-0.00302223
-0.00364949
-0.00391665
-0.00377376
-0.00485163
-0.00393681
-0.00583679
-0.00413914
-0.00688109
-0.0043713
-0.00799104
-0.00462847
-0.00491548
-0.00916996
-0.000554049
-0.00179068
-0.00138496
-0.00261094
-0.00225728
-0.00271429
-0.00314661
-0.00276016
-0.00406714
-0.00285322
-0.0050284
-0.00297556
-0.00604014
-0.0031274
-0.00711051
-0.00330094
-0.00824591
-0.00349307
-0.00370918
-0.00945221
-0.000581469
-0.00120921
-0.00143772
-0.00175469
-0.00233096
-0.00182105
-0.00324002
-0.00185111
-0.00418015
-0.00191309
-0.00516106
-0.00199464
-0.00619263
-0.00209583
-0.00728242
-0.00221114
-0.0084367
-0.00233879
-0.00248299
-0.0096629
-0.00059997
-0.00147311
-0.0023802
-0.00330246
-0.00092884
-0.00425574
-0.000959819
-0.00524979
-0.00100059
-0.00629447
-0.00105115
-0.00739692
-0.00110869
-0.00856338
-0.00117233
-0.00124433
-0.00980203
-0.00333372
-0.00429357
-0.00529419
-0.00634536
-0.00745408
-0.00862642
-0.00987077
-0.00234815
4.24697e-05
-0.0023865
3.93213e-05
-0.00242034
3.49344e-05
-0.00245006
3.09338e-05
-0.00247615
2.74165e-05
-0.00249904
2.4316e-05
-0.00251909
2.15638e-05
-0.00253661
1.90858e-05
-0.0025518
1.68118e-05
-0.00256486
1.46823e-05
-0.00257588
1.26491e-05
-0.00258497
1.06737e-05
-0.00259217
8.72674e-06
-0.00259752
6.79047e-06
-0.00260107
4.86589e-06
-0.00260287
2.96305e-06
-0.00260295
1.02335e-06
-0.00260144
-8.09362e-07
-0.00259847
-2.51159e-06
-0.00259398
-4.294e-06
-0.00258795
-6.12348e-06
-0.00258037
-7.98845e-06
-0.00257123
-9.88188e-06
-0.00256054
-1.17933e-05
-0.00254827
-1.37334e-05
-0.00253442
-1.56986e-05
-0.00251897
-1.7686e-05
-0.00250189
-1.96921e-05
-2.1713e-05
-0.00194486
7.69684e-05
-0.0019775
7.19614e-05
-0.00200667
6.41032e-05
-0.00203228
5.65446e-05
-0.0020547
4.98301e-05
-0.00207425
4.38717e-05
-0.00209125
3.8556e-05
-0.00210591
3.37542e-05
-0.00211844
2.9335e-05
-0.00212894
2.51876e-05
-0.00213752
2.12242e-05
-0.00214422
1.73731e-05
-0.00214907
1.35758e-05
-0.00215207
9.79328e-06
-0.00215323
6.02471e-06
-0.00215255
2.28998e-06
-0.00215025
-1.27754e-06
-0.00214662
-4.43858e-06
-0.00214141
-7.72605e-06
-0.00213463
-1.10749e-05
-0.00212628
-1.44704e-05
-0.00211636
-1.79104e-05
-0.00210485
-2.13949e-05
-0.00209179
-2.48495e-05
-0.00207718
-2.83489e-05
-0.00206099
-3.18869e-05
-0.00204321
-3.5461e-05
-0.00202383
-3.90692e-05
-4.27075e-05
-0.00115205
0.000103133
-0.0011729
9.28048e-05
-0.00119418
8.53852e-05
-0.00121329
7.5654e-05
-0.00123026
6.67979e-05
-0.00124507
5.86805e-05
-0.00125779
5.12751e-05
-0.00126852
4.44891e-05
-0.00127735
3.81693e-05
-0.00128434
3.21772e-05
-0.00128953
2.64084e-05
-0.00129293
2.07711e-05
-0.00129453
1.51755e-05
-0.00129427
9.54106e-06
-0.00129206
3.81173e-06
-0.00128812
-1.65052e-06
-0.00128297
-6.4321e-06
-0.00127606
-1.13428e-05
-0.0012675
-1.62863e-05
-0.00125731
-2.12623e-05
-0.00124551
-2.62736e-05
-0.00123209
-3.13332e-05
-0.00121704
-3.64391e-05
-0.00120044
-4.14533e-05
-0.00118226
-4.65326e-05
-0.00116249
-5.16532e-05
-0.00114114
-5.68147e-05
-0.00111819
-6.20163e-05
-6.7254e-05
3.66358e-05
0.000109888
1.91046e-05
0.000110336
4.72354e-06
9.97662e-05
-9.49527e-06
8.98728e-05
-2.31341e-05
8.04367e-05
-3.56534e-05
7.11998e-05
-4.67096e-05
6.23314e-05
-5.6159e-05
5.39385e-05
-6.38919e-05
4.59021e-05
-6.98161e-05
3.81015e-05
-7.389e-05
3.04823e-05
-7.61015e-05
2.29826e-05
-7.64121e-05
1.54861e-05
-7.46995e-05
7.82842e-06
-7.04809e-05
-4.06875e-07
-6.52692e-05
-6.86223e-06
-5.80786e-05
-1.36226e-05
-4.90717e-05
-2.03498e-05
-3.82942e-05
-2.70638e-05
-2.57722e-05
-3.37842e-05
-1.15302e-05
-4.05156e-05
4.39785e-06
-4.72612e-05
2.18571e-05
-5.38983e-05
4.10043e-05
-6.06005e-05
6.18103e-05
-6.73386e-05
8.42692e-05
-7.41122e-05
0.000108377
-8.0923e-05
0.000134129
-8.77678e-05
0.000161516
-9.46407e-05
-0.000101535
0.00168734
0.00016424
0.00164972
0.00014796
0.00161712
0.000132367
0.00158844
0.000118552
0.00156326
0.000105616
0.00154136
9.31035e-05
0.00152218
8.15041e-05
0.00150536
7.07591e-05
0.00149085
6.04104e-05
0.00147874
5.02193e-05
0.00146902
4.01942e-05
0.00146167
3.0335e-05
0.00145662
2.0535e-05
0.00145385
1.0605e-05
0.00145362
-1.78252e-07
0.00145539
-8.63827e-06
0.0014594
-1.76268e-05
0.00146573
-2.66843e-05
0.00147429
-3.56259e-05
0.00148498
-4.4467e-05
0.00149769
-5.32248e-05
0.00151236
-6.1932e-05
0.00152901
-7.05527e-05
0.00154758
-7.9171e-05
0.00156802
-8.77807e-05
0.0015903
-9.63913e-05
0.00161439
-0.000105011
0.00164026
-0.000113636
0.00166788
-0.000122257
-0.000130867
0.00382526
0.000261378
0.00374385
0.000229366
0.00366826
0.00020796
0.00359822
0.000188592
0.00353628
0.000167557
0.0034825
0.000146887
0.00343538
0.000128619
0.00339374
0.000112397
0.00335708
9.7074e-05
0.00332508
8.22224e-05
0.00329736
6.79064e-05
0.00327359
5.41088e-05
0.00325347
4.066e-05
0.0032367
2.73677e-05
0.00322257
1.39561e-05
0.00321435
-4.16054e-07
0.00320804
-1.13216e-05
0.00320439
-2.30352e-05
0.00320354
-3.47716e-05
0.00320559
-4.65216e-05
0.00321039
-5.80262e-05
0.00321778
-6.9318e-05
0.00322766
-8.04285e-05
0.00323989
-9.14036e-05
0.00325439
-0.000102284
0.0032711
-0.000113103
0.00328997
-0.00012388
0.00331095
-0.000134611
0.00333397
-0.000145276
-0.000155861
0.00626088
0.000402371
0.00613284
0.000357406
0.00601139
0.000329412
0.00589386
0.000306119
0.00578591
0.000275505
0.0056883
0.000244505
0.00559954
0.000217371
0.00551887
0.000193075
0.00544609
0.000169848
0.00538082
0.000147491
0.00532243
0.000126302
0.00527033
0.000106211
0.00522403
8.69574e-05
0.00518304
6.83606e-05
0.00514669
5.02998e-05
0.00511361
3.26683e-05
0.00508705
1.52354e-05
0.00506634
-2.32539e-06
0.00504863
-1.70622e-05
0.00503439
-3.22768e-05
0.00502361
-4.72471e-05
0.00501647
-6.21792e-05
0.00501282
-7.67789e-05
0.00501241
-9.09978e-05
0.00501503
-0.000104904
0.0050205
-0.000118573
0.00502869
-0.000132073
0.0050395
-0.000145415
0.00505279
-0.000158569
0.00506845
-0.000171521
-0.000184285
0.00859775
0.000567918
0.00844009
0.000515067
0.00828214
0.000487361
0.00813036
0.000457893
0.00798936
0.000416514
0.00785775
0.000376111
0.00773424
0.000340874
0.00761916
0.000308161
0.00751286
0.00027615
0.00741506
0.00024529
0.00732532
0.000216043
0.00724327
0.000188261
0.00716853
0.000161697
0.00710066
0.000136227
0.0070392
0.000111763
0.00698369
8.81751e-05
0.00693348
6.54476e-05
0.00688778
4.3375e-05
0.00684919
2.15297e-05
0.00681816
-1.25085e-06
0.00678969
-1.87763e-05
0.00676484
-3.73264e-05
0.00674364
-5.558e-05
0.00672631
-7.3666e-05
0.00671274
-9.13436e-05
0.00670275
-0.000108578
0.00669617
-0.000125497
0.00669285
-0.000142089
0.00669256
-0.00015828
0.00669511
-0.000174068
0.00670033
-0.000189505
-0.00020462
0.0103404
0.000728646
0.0101813
0.000674164
0.0100179
0.00065077
0.00986325
0.000612555
0.00971692
0.000562846
0.00957715
0.000515888
0.00944401
0.000474013
0.00931797
0.000434199
0.00919911
0.00039501
0.00908737
0.000357031
0.00898279
0.000320617
0.00888539
0.000285664
0.00879501
0.000252073
0.00871142
0.000219819
0.00863434
0.000188849
0.00856345
0.000159061
0.00849852
0.000130374
0.0084392
0.000102701
0.00838465
7.60776e-05
0.0083331
5.02999e-05
0.0082894
2.49238e-05
0.00825348
-1.40267e-06
0.00821985
-2.19496e-05
0.00818971
-4.35301e-05
0.00816288
-6.45101e-05
0.00813944
-8.51371e-05
0.00811951
-0.00010557
0.00810299
-0.00012557
0.00808967
-0.000144956
0.00807935
-0.000163754
0.00807189
-0.00018204
-0.000199842
0.0111283
0.00083332
0.0110014
0.000801032
0.0108842
0.000767913
0.0107715
0.000725331
0.0106594
0.000674878
0.0105499
0.000625449
0.0104439
0.00058001
0.0103413
0.000536801
0.0102419
0.000494346
0.0101461
0.000452839
0.0100542
0.00041255
0.00996638
0.00037348
0.00988283
0.000335621
0.00980366
0.000298995
0.0097289
0.000263607
0.00965855
0.000229409
0.00959256
0.000196367
0.00953085
0.000164403
0.00947343
0.000133501
0.00942018
0.000103553
0.0093703
7.48033e-05
0.00932195
4.69399e-05
0.00928091
1.90987e-05
0.00924487
-7.48866e-06
0.00921083
-3.04757e-05
0.00917968
-5.39906e-05
0.0091515
-7.73819e-05
0.00912613
-0.000100201
0.00910349
-0.000122315
0.00908351
-0.000143775
0.00906611
-0.000164639
0.00905118
-0.000184917
-0.000204599
0.0165653
0.000939507
-0.0166715
0.016484
0.000882325
0.0164142
0.000837636
0.0163475
0.000792038
0.0162779
0.000744478
0.016206
0.000697427
0.0161344
0.000651559
0.0160642
0.000607051
0.0159946
0.000563923
0.0159254
0.00052202
0.0158568
0.00048117
0.0157889
0.000441326
0.015722
0.000402525
0.0156562
0.000364794
0.0155917
0.000328136
0.0155286
0.000292525
0.015467
0.000257944
0.0154071
0.000224353
0.0153488
0.000191755
0.0152923
0.000160095
0.0152377
0.000129388
0.0151851
9.95384e-05
0.0151333
7.08885e-05
0.0150821
4.37193e-05
0.0150336
1.79808e-05
0.0149869
-7.30042e-06
0.0149435
-3.39459e-05
0.0149021
-5.87681e-05
0.0148624
-8.26738e-05
0.0148246
-0.000105924
0.0147885
-0.000128516
0.014754
-0.000150409
-0.000171599
0.0166728
0.000950666
-0.0166839
0.0166595
0.000895583
0.0166526
0.000844601
0.0166461
0.000798522
0.0166359
0.000754701
0.0166217
0.000711568
0.0166045
0.000668825
0.0165846
0.000626878
0.0165625
0.00058604
0.0165382
0.000546287
0.0165119
0.000507472
0.0164838
0.000469504
0.0164539
0.000432369
0.0164226
0.000396083
0.0163901
0.00036066
0.0163565
0.000326097
0.0163221
0.000292391
0.0162869
0.000259535
0.0162511
0.000227535
0.0162148
0.000196387
0.0161781
0.000166114
0.0161409
0.000136714
0.0161036
0.00010817
0.016067
8.03574e-05
0.0160318
5.32128e-05
0.0159979
2.65474e-05
0.0159643
-3.21915e-07
0.0159296
-2.40187e-05
0.0158951
-4.82344e-05
0.0158611
-7.19162e-05
0.0158274
-9.48352e-05
0.0157941
-0.000117038
-0.000138585
0.0165736
0.000930986
-0.0165539
0.016591
0.000878189
0.0166064
0.000829181
0.0166204
0.000784501
0.0166325
0.000742673
0.0166419
0.000702145
0.0166485
0.000662221
0.0166524
0.000622951
0.0166539
0.000584538
0.0166531
0.000547058
0.0166502
0.000510457
0.016645
0.000474654
0.0166378
0.000439601
0.0166286
0.000405284
0.0166175
0.000371705
0.0166048
0.000338866
0.0165904
0.000306766
0.0165745
0.000275402
0.0165573
0.000244771
0.0165388
0.000214864
0.0165193
0.000185663
0.0164988
0.000157128
0.0164778
0.000129236
0.0164561
0.000102029
0.0164337
7.56063e-05
0.0164102
5.00191e-05
0.0163846
2.52877e-05
0.0163589
1.68591e-06
0.0163334
-2.2733e-05
0.0163074
-4.59203e-05
0.016281
-6.8391e-05
0.0162542
-9.02526e-05
-0.000111491
0.01643
0.000892359
-0.0163914
0.01646
0.000848156
0.0164854
0.000803834
0.0165082
0.00076167
0.016529
0.000721849
0.0165476
0.000683577
0.0165636
0.000646175
0.0165772
0.000609406
0.0165884
0.000573316
0.0165975
0.000537988
0.0166045
0.000503441
0.0166095
0.000469638
0.0166126
0.000436535
0.0166137
0.000404105
0.0166131
0.000372339
0.0166107
0.000341233
0.0166067
0.000310787
0.0166011
0.000280995
0.0165941
0.00025185
0.0165856
0.000223344
0.0165758
0.000195467
0.0165647
0.000168222
0.0165523
0.000141625
0.0165386
0.00011571
0.0165237
9.05057e-05
0.0165077
6.60588e-05
0.0164908
4.21068e-05
0.016474
1.85389e-05
0.0164558
-4.5379e-06
0.0164366
-2.67397e-05
0.0164167
-4.84748e-05
0.016396
-6.95899e-05
-9.00979e-05
0.0162765
0.000851128
-0.0162353
0.0163123
0.000812377
0.0163438
0.000772311
0.0163721
0.000733339
0.0163978
0.000696135
0.0164211
0.00066034
0.0164418
0.000625428
0.0164601
0.000591105
0.0164761
0.000557329
0.0164899
0.000524163
0.0165017
0.000491652
0.0165116
0.0004598
0.0165195
0.000428581
0.0165256
0.000397973
0.01653
0.000367961
0.0165327
0.000338542
0.0165338
0.000309714
0.0165333
0.000281476
0.0165313
0.000253826
0.0165279
0.000226761
0.0165231
0.000200285
0.0165169
0.000174404
0.0165094
0.000149124
0.0165007
0.000124447
0.0164908
0.000100353
0.0164801
7.68156e-05
0.0164684
5.37807e-05
0.0164557
3.12634e-05
0.0164417
9.38852e-06
0.0164269
-1.19339e-05
0.0164112
-3.27342e-05
0.0163946
-5.29683e-05
-7.26456e-05
0.0161302
0.000808608
-0.0160877
0.0161694
0.000773208
0.0162046
0.000737078
0.0162363
0.000701638
0.016265
0.000667437
0.0162911
0.000634309
0.0163146
0.000601904
0.0163357
0.000569992
0.0163545
0.00053852
0.0163711
0.000507531
0.0163857
0.000477077
0.0163983
0.000447179
0.0164091
0.000417832
0.016418
0.000389022
0.0164253
0.000360741
0.0164308
0.000332987
0.0164348
0.00030576
0.0164372
0.000279063
0.0164381
0.000252898
0.0164376
0.000227268
0.0164357
0.000202173
0.0164325
0.000177617
0.016428
0.000153594
0.0164224
0.0001301
0.0164156
0.000107124
0.0164078
8.46631e-05
0.0163988
6.27266e-05
0.0163888
4.13253e-05
0.0163777
2.04545e-05
0.0163656
1.25171e-07
0.0163527
-1.97559e-05
0.0163388
-3.90845e-05
-5.78988e-05
0.0159985
0.000763904
-0.0159538
0.0160392
0.000732516
0.0160761
0.000700193
0.0161096
0.000668167
0.0161401
0.000636964
0.0161679
0.000606523
0.0161931
0.000576611
0.0162161
0.000547072
0.0162367
0.000517869
0.0162552
0.000489041
0.0162716
0.000460637
0.0162861
0.000432688
0.0162988
0.000405201
0.0163096
0.000378174
0.0163188
0.000351606
0.0163262
0.000325498
0.0163321
0.000299855
0.0163365
0.000274682
0.0163394
0.000249985
0.0163409
0.000225766
0.0163411
0.000202027
0.0163399
0.00017877
0.0163375
0.000155994
0.0163339
0.000133698
0.0163292
0.000111885
0.0163233
9.05598e-05
0.0163163
6.97254e-05
0.0163082
4.93793e-05
0.0162992
2.95141e-05
0.0162892
1.01253e-05
0.0162782
-8.78983e-06
0.0162663
-2.72169e-05
-4.51605e-05
0.0158805
0.000719226
-0.0158358
0.0159214
0.000691595
0.0159589
0.000662719
0.0159932
0.000633827
0.0160247
0.000605462
0.0160536
0.000577622
0.0160801
0.000550146
0.0161043
0.000522921
0.0161262
0.000495931
0.016146
0.000469218
0.0161638
0.000442829
0.0161797
0.000416801
0.0161938
0.000391149
0.0162061
0.00036588
0.0162167
0.000341001
0.0162256
0.000316517
0.0162331
0.000292437
0.016239
0.000268768
0.0162434
0.000245518
0.0162465
0.000222692
0.0162482
0.000200294
0.0162487
0.000178329
0.0162479
0.000156799
0.0162459
0.000135709
0.0162427
0.000115062
0.0162384
9.48617e-05
0.016233
7.51073e-05
0.0162266
5.57979e-05
0.0162192
3.69327e-05
0.0162108
1.85134e-05
0.0162015
5.33407e-07
0.0161912
-1.69803e-05
-3.40529e-05
0.0157734
0.0006757
-0.0157299
0.015814
0.000651022
0.0158515
0.000625165
0.0158862
0.00059914
0.0159182
0.000573432
0.0159478
0.000548065
0.015975
0.000522921
0.016
0.000497922
0.0160229
0.000473066
0.0160437
0.000448397
0.0160626
0.000423967
0.0160796
0.000399812
0.0160948
0.000375955
0.0161082
0.00035241
0.01612
0.000329187
0.0161303
0.000306298
0.0161389
0.000283753
0.0161461
0.000261564
0.0161519
0.000239741
0.0161563
0.00021829
0.0161594
0.000197219
0.0161612
0.000176535
0.0161618
0.000156243
0.0161611
0.000136348
0.0161593
0.000116853
0.0161564
9.77634e-05
0.0161524
7.90795e-05
0.0161474
6.08038e-05
0.0161414
4.29387e-05
0.0161345
2.54864e-05
0.0161265
8.44856e-06
0.0161177
-8.17074e-06
-2.43716e-05
0.0156753
0.000633166
-0.0156328
0.0157153
0.000611083
0.0157525
0.000587923
0.0157871
0.000564507
0.0158193
0.000541254
0.0158492
0.000518199
0.0158769
0.000495255
0.0159024
0.000472367
0.0159259
0.000449545
0.0159475
0.000426835
0.0159672
0.000404289
0.015985
0.000381945
0.0160012
0.000359829
0.0160156
0.00033796
0.0160284
0.000316352
0.0160397
0.000295021
0.0160495
0.00027398
0.0160578
0.000253242
0.0160647
0.000232819
0.0160703
0.000212722
0.0160746
0.000192959
0.0160776
0.000173538
0.0160793
0.000154467
0.0160799
0.000135751
0.0160794
0.000117396
0.0160778
9.94063e-05
0.016075
8.17862e-05
0.0160713
6.45397e-05
0.0160666
4.76699e-05
0.0160609
3.11802e-05
0.0160543
1.50728e-05
0.0160467
-6.55907e-07
-1.59882e-05
0.015585
0.000591702
-0.0155435
0.0156241
0.00057202
0.0156607
0.000551284
0.015695
0.000530223
0.015727
0.000509211
0.0157569
0.000488292
0.0157848
0.000467401
0.0158106
0.000446498
0.0158346
0.000425598
0.0158567
0.00040475
0.015877
0.000384002
0.0158955
0.000363394
0.0159124
0.000342955
0.0159277
0.000322704
0.0159413
0.000302662
0.0159535
0.000282843
0.0159642
0.000263266
0.0159735
0.000243944
0.0159815
0.000224891
0.0159881
0.00020612
0.0159934
0.000187639
0.0159975
0.00016946
0.0160003
0.00015159
0.016002
0.000134036
0.0160026
0.000116806
0.0160021
9.99049e-05
0.0160006
8.33385e-05
0.015998
6.71114e-05
0.0159945
5.12277e-05
0.0159899
3.5691e-05
0.0159845
2.05042e-05
0.0159782
5.66924e-06
-8.80763e-06
0.0155015
0.000551565
-0.0154613
0.0155395
0.000533997
0.0155753
0.000515421
0.0156091
0.000496478
0.0156408
0.000477507
0.0156705
0.000458552
0.0156984
0.000439565
0.0157243
0.000420516
0.0157485
0.000401422
0.0157709
0.00038233
0.0157917
0.000363288
0.0158107
0.000344334
0.0158282
0.000325499
0.0158441
0.000306804
0.0158585
0.000288269
0.0158714
0.000269913
0.0158829
0.000251754
0.015893
0.000233807
0.0159018
0.000216088
0.0159094
0.000198609
0.0159156
0.000181382
0.0159207
0.000164418
0.0159245
0.000147726
0.0159272
0.000131315
0.0159289
0.000115191
0.0159294
9.93628e-05
0.0159289
8.38356e-05
0.0159274
6.8615e-05
0.0159249
5.37058e-05
0.0159215
3.91124e-05
0.0159172
2.48386e-05
0.0159119
1.08875e-05
-2.73884e-06
0.0154241
0.000512812
-0.0153854
0.015461
0.000497088
0.015496
0.000480436
0.0155291
0.000463404
0.0155603
0.000446289
0.0155897
0.000429138
0.0156174
0.00041191
0.0156433
0.000394584
0.0156676
0.000377179
0.0156902
0.000359737
0.0157111
0.000342306
0.0157305
0.000324921
0.0157484
0.000307613
0.0157648
0.000290405
0.0157798
0.000273316
0.0157933
0.000256367
0.0158055
0.000239575
0.0158164
0.000222959
0.0158259
0.000206533
0.0158342
0.00019031
0.0158413
0.000174304
0.0158472
0.000158526
0.0158519
0.000142986
0.0158555
0.000127693
0.0158581
0.000112655
0.0158596
9.78801e-05
0.01586
8.3375e-05
0.0158595
6.91457e-05
0.015858
5.51977e-05
0.0158556
4.15358e-05
0.0158523
2.81644e-05
0.0158481
1.50872e-05
2.30559e-06
0.0153526
0.00047539
-0.0153152
0.0153884
0.000461314
0.0154224
0.000446388
0.0154547
0.000431082
0.0154854
0.000415659
0.0155144
0.00040016
0.0155417
0.000384556
0.0155675
0.000368829
0.0155916
0.000352998
0.0156143
0.000337103
0.0156354
0.000321187
0.015655
0.000305286
0.0156732
0.000289427
0.01569
0.000273635
0.0157054
0.000257928
0.0157194
0.000242328
0.0157321
0.000226852
0.0157436
0.000211518
0.0157538
0.000196341
0.0157627
0.000181336
0.0157705
0.000166516
0.0157772
0.000151891
0.0157827
0.000137474
0.0157871
0.000123272
0.0157905
0.000109297
0.0157928
9.5554e-05
0.0157941
8.20519e-05
0.0157945
6.87969e-05
0.0157939
5.57947e-05
0.0157924
4.30507e-05
0.0157899
3.05695e-05
0.0157867
1.83552e-05
6.41102e-06
0.0152865
0.000439257
-0.0152504
0.0153212
0.000426667
0.0153543
0.000413297
0.0153858
0.000399555
0.0154158
0.000385673
0.0154442
0.000371691
0.0154712
0.000357585
0.0154967
0.00034334
0.0155207
0.000328975
0.0155433
0.000314528
0.0155644
0.000300036
0.0155842
0.000285535
0.0156026
0.000271049
0.0156196
0.000256602
0.0156353
0.000242213
0.0156497
0.000227903
0.0156629
0.000213689
0.0156748
0.000199589
0.0156856
0.000185617
0.0156951
0.000171789
0.0157035
0.000158116
0.0157108
0.000144612
0.015717
0.000131286
0.0157221
0.000118149
0.0157262
0.00010521
0.0157293
9.2477e-05
0.0157314
7.99573e-05
0.0157325
6.76577e-05
0.0157327
5.55846e-05
0.015732
4.37434e-05
0.0157304
3.21391e-05
0.015728
2.07762e-05
9.65844e-06
0.0152256
0.000404368
-0.0151907
0.0152591
0.000393117
0.0152913
0.000381153
0.015322
0.000368832
0.0153513
0.000356359
0.0153792
0.000343771
0.0154058
0.000331048
0.0154309
0.000318179
0.0154547
0.000305181
0.0154772
0.000292087
0.0154983
0.000278934
0.015518
0.000265752
0.0155365
0.000252565
0.0155537
0.000239395
0.0155697
0.000226262
0.0155844
0.000213184
0.0155979
0.000200179
0.0156102
0.000187263
0.0156214
0.000174452
0.0156314
0.000161759
0.0156404
0.000149197
0.0156482
0.000136778
0.015655
0.000124513
0.0156607
0.000112412
0.0156654
0.000100483
0.0156692
8.87352e-05
0.0156719
7.7176e-05
0.0156738
6.58123e-05
0.0156747
5.46504e-05
0.0156748
4.3696e-05
0.015674
3.29541e-05
0.0156723
2.24293e-05
1.21257e-05
0.0151695
0.000370652
-0.0151358
0.015202
0.000360611
0.0152333
0.000349924
0.0152632
0.000338901
0.0152918
0.000327721
0.0153192
0.000316418
0.0153453
0.000304975
0.01537
0.000293385
0.0153936
0.000281661
0.0154158
0.000269836
0.0154368
0.00025794
0.0154566
0.000246001
0.0154751
0.000234044
0.0154924
0.000222087
0.0155085
0.000210149
0.0155234
0.000198247
0.0155372
0.000186399
0.0155499
0.00017462
0.0155614
0.000162925
0.0155718
0.000151327
0.0155812
0.000139838
0.0155895
0.00012847
0.0155968
0.000117234
0.015603
0.000106139
0.0156083
9.5194e-05
0.0156127
8.44074e-05
0.0156161
7.37866e-05
0.0156185
6.33387e-05
0.0156201
5.30697e-05
0.0156208
4.29854e-05
0.0156207
3.30909e-05
0.0156197
2.33908e-05
1.38893e-05
0.0151181
0.000338027
-0.0150855
0.0151497
0.000329087
0.01518
0.000319567
0.0152092
0.000309734
0.0152372
0.000299744
0.015264
0.000289629
0.0152896
0.000279376
0.015314
0.000268976
0.0153372
0.000258445
0.0153592
0.000247808
0.0153801
0.000237095
0.0153997
0.000226331
0.0154182
0.000215537
0.0154356
0.000204732
0.0154518
0.000193932
0.0154669
0.000183154
0.0154809
0.000172413
0.0154938
0.000161725
0.0155056
0.000151104
0.0155164
0.000140561
0.0155261
0.000130109
0.0155348
0.000119759
0.0155425
0.00010952
0.0155493
9.94028e-05
0.015555
8.94154e-05
0.0155599
7.95658e-05
0.0155638
6.98613e-05
0.0155668
6.03088e-05
0.015569
5.09143e-05
0.0155703
4.16834e-05
0.0155708
3.26212e-05
0.0155704
2.37323e-05
1.50209e-05
0.0150713
0.000306405
-0.0150396
0.0151019
0.000298477
0.0151314
0.000290028
0.0151599