/*--------------------------------*- C++ -*----------------------------------*\
  =========                 |
  \\      /  F ield         | OpenFOAM: The Open Source CFD Toolbox
   \\    /   O peration     | Website:  https://openfoam.org
    \\  /    A nd           | Version:  7
     \\/     M anipulation  |
\*---------------------------------------------------------------------------*/
FoamFile
{
    version     2.0;
    format      ascii;
    class       volVectorField;
    location    "65";
    object      U;
}
// * * * * * * * * * * * * * * * * * * * * * * * * * * * * * * * * * * * * * //

dimensions      [0 1 -1 0 0 0 0];

internalField   nonuniform List<vector> 
3500
(
(-0.0612398 0.0100154 6.22627e-20)
(-0.0905214 0.0097574 1.08567e-20)
(-0.116821 0.00903183 2.1128e-20)
(-0.139959 0.00815563 -1.22243e-20)
(-0.15967 0.00713236 -2.2665e-20)
(-0.175062 0.00561897 2.19993e-20)
(-0.188857 0.00523915 2.15467e-20)
(-0.19412 0.00219397 1.6821e-20)
(-0.00858819 0.0151761 -7.89158e-20)
(-0.0305673 0.0266847 5.22399e-20)
(-0.0605493 0.0294814 -7.11037e-20)
(-0.0875959 0.028739 3.81258e-21)
(-0.111124 0.0265919 -5.07308e-20)
(-0.130989 0.0239925 6.23443e-21)
(-0.147248 0.0211093 3.25644e-20)
(-0.15715 0.016216 -1.432e-19)
(-0.168048 0.0158439 3.53346e-20)
(-0.165018 0.0054352 1.49762e-22)
(-0.0106323 0.0239464 1.46916e-19)
(-0.032398 0.0424563 -1.30056e-20)
(-0.0592646 0.0471024 9.88015e-20)
(-0.0819425 0.0459749 -9.25308e-21)
(-0.0999783 0.0425236 -1.08166e-19)
(-0.11306 0.0382865 7.98708e-20)
(-0.122741 0.0341586 -3.43466e-20)
(-0.120148 0.0252566 3.44502e-20)
(-0.126063 0.0270224 -1.04573e-19)
(-0.104577 0.00690182 1.48408e-19)
(-0.0134315 0.0309046 1.73424e-20)
(-0.0350202 0.0553732 -2.33782e-19)
(-0.0575373 0.0617281 -1.39127e-19)
(-0.0738779 0.0602855 7.3198e-20)
(-0.0838485 0.0556743 8.69486e-20)
(-0.0861487 0.0498923 -1.44732e-19)
(-0.0865618 0.0448877 6.20053e-20)
(-0.0623401 0.0323916 4.12318e-20)
(-0.0612861 0.0370916 1.65609e-19)
(-0.00600167 0.0108175 -2.13891e-19)
(-0.0167531 0.0357381 -7.3942e-20)
(-0.0382849 0.064684 1.15146e-19)
(-0.0554746 0.0723576 3.36976e-19)
(-0.0636064 0.0705337 -1.68075e-19)
(-0.0630131 0.0648057 1.55994e-19)
(-0.0501491 0.0579083 2.63061e-19)
(-0.0375255 0.0500787 -7.31335e-21)
(0.0173572 0.0387205 7.48199e-21)
(0.0279133 0.0425248 -2.44391e-19)
(0.139543 0.0214144 1.15254e-19)
(-0.0204012 0.0384417 -1.75305e-19)
(-0.041958 0.0699796 1.03821e-19)
(-0.0529422 0.0782454 -4.70307e-19)
(-0.0508517 0.0757784 2.28993e-19)
(-0.0364924 0.0687331 3.21331e-20)
(-0.0042893 0.0616874 -2.96729e-19)
(0.0292121 0.0486228 -8.7109e-20)
(0.127416 0.0451308 8.70462e-20)
(0.14334 0.0376963 1.65311e-19)
(0.348398 0.0343401 -9.19014e-20)
(-0.0242525 0.0392731 -1.92091e-20)
(-0.0456229 0.071205 -3.26579e-19)
(-0.0492075 0.079021 3.22636e-19)
(-0.0342248 0.075456 -2.3195e-19)
(-0.00100314 0.0671257 5.75532e-20)
(0.0572791 0.0610774 1.9282e-19)
(0.122579 0.0426112 -3.53494e-19)
(0.273339 0.0519375 -1.48019e-19)
(0.304016 0.0310868 1.25758e-19)
(0.607825 0.0468283 7.33112e-20)
(-0.0282508 0.0386469 1.92309e-19)
(-0.048521 0.0686136 5.63574e-19)
(-0.0424641 0.0747971 -5.43913e-19)
(-0.0100071 0.0697397 1.33031e-19)
(0.0500981 0.0607671 3.32994e-19)
(0.144787 0.0566147 -1.69537e-19)
(0.260465 0.0401643 -5.39071e-20)
(0.452946 0.0569158 -2.00305e-19)
(0.535505 0.0401616 2.38655e-19)
(0.869017 0.0682283 -1.67468e-19)
(-0.0323037 0.0369488 -3.52631e-19)
(-0.0493814 0.062723 9.74809e-20)
(-0.029315 0.06622 2.03423e-19)
(0.0285727 0.0598764 -1.01184e-19)
(0.128006 0.0524103 -3.4191e-19)
(0.271949 0.0516518 4.04968e-19)
(0.450316 0.0510865 2.57052e-19)
(0.659955 0.0648523 2.31701e-19)
(0.813933 0.070021 -1.88767e-19)
(1.07745 0.0959417 1.4285e-19)
(-0.0360662 0.0344102 -8.75698e-20)
(-0.0461837 0.0541563 -2.84945e-19)
(-0.00451577 0.0545092 -1.69083e-19)
(0.0913691 0.0486816 1.98568e-19)
(0.245304 0.0475733 3.81279e-20)
(0.447678 0.0555616 -2.38593e-19)
(0.672071 0.0742786 2.78073e-19)
(0.879736 0.0873556 -3.90409e-19)
(1.05262 0.111556 -2.19462e-19)
(1.19641 0.116487 7.64334e-20)
(-0.0388757 0.0311267 2.13945e-19)
(-0.0359027 0.0434934 3.00276e-19)
(0.0389822 0.0416036 1.24754e-19)
(0.189345 0.0409087 1.73848e-19)
(0.40788 0.0530402 -1.00791e-19)
(0.657715 0.0765694 -2.57764e-19)
(0.887891 0.105538 1.02755e-19)
(1.06807 0.122367 1.26049e-19)
(1.18815 0.144689 4.19515e-19)
(1.23259 0.120216 -2.46481e-19)
(-0.039769 0.0270478 3.18978e-19)
(-0.0145554 0.0312948 -3.89117e-20)
(0.109327 0.0306105 2.87586e-19)
(0.329085 0.0431258 -1.27806e-19)
(0.603793 0.073871 3.90469e-19)
(0.863522 0.110685 1.54697e-19)
(1.05936 0.140151 1.91363e-19)
(1.18262 0.15459 -3.13094e-19)
(1.23527 0.157743 -1.27847e-19)
(1.26005 0.143324 1.22597e-19)
(-0.0374137 0.0220019 2.28816e-20)
(0.0226913 0.0184647 -2.8103e-19)
(0.213694 0.0265961 -2.66768e-19)
(0.504005 0.06079 -6.73235e-20)
(0.800906 0.108113 -1.06335e-19)
(1.02801 0.147846 1.15851e-19)
(1.16631 0.17027 -4.79419e-19)
(1.23126 0.17378 3.20377e-19)
(1.25477 0.171838 -3.16123e-21)
(1.25875 0.153364 -3.773e-19)
(-0.0300903 0.0158718 -4.54964e-19)
(0.0812622 0.00713729 -9.28029e-20)
(0.353355 0.0357662 -9.84286e-21)
(0.690377 0.093366 2.86618e-20)
(0.966186 0.147285 1.5017e-19)
(1.13729 0.180583 -4.68475e-19)
(1.22018 0.191734 4.58196e-19)
(1.2508 0.189541 -1.0086e-19)
(1.25382 0.180099 5.91239e-20)
(1.24786 0.162746 9.70576e-20)
(-0.0156901 0.00883011 1.21498e-20)
(0.165815 0.00193841 3.72994e-19)
(0.51711 0.0613404 9.46741e-20)
(0.859447 0.134269 -5.08171e-20)
(1.08594 0.184353 -4.25669e-20)
(1.20061 0.206795 2.72779e-19)
(1.24423 0.209223 -1.1948e-21)
(1.2519 0.201207 1.9904e-19)
(1.24596 0.188412 -6.20606e-20)
(1.23944 0.172734 -2.89825e-21)
(0.00856196 0.00166604 7.43305e-20)
(0.277068 0.00955204 -1.35365e-19)
(0.682847 0.100404 1.06449e-19)
(0.994725 0.176973 1.40523e-19)
(1.16436 0.217174 -9.21855e-20)
(1.23321 0.22881 -1.52407e-20)
(1.24959 0.223668 -2.66263e-19)
(1.24548 0.212084 -1.74344e-19)
(1.23604 0.196504 2.13027e-19)
(1.22589 0.181349 -1.33898e-19)
(0.0455286 -0.00344102 9.61931e-20)
(0.408317 0.0347378 1.71522e-19)
(0.830736 0.147143 1.204e-19)
(1.0938 0.218459 -1.81664e-19)
(1.21102 0.246421 2.14401e-19)
(1.24545 0.247916 -1.13621e-19)
(1.24541 0.237132 -2.8424e-20)
(1.23497 0.222296 -1.02116e-20)
(1.22332 0.204709 -6.03381e-20)
(1.21375 0.190544 1.92397e-20)
(0.0965709 -0.00296396 2.44163e-19)
(0.546129 0.0765553 -1.35562e-19)
(0.951642 0.197255 8.48466e-20)
(1.16084 0.257821 9.9016e-20)
(1.23445 0.272859 -7.06159e-20)
(1.2452 0.265591 1.06963e-19)
(1.23537 0.250031 3.89305e-20)
(1.22192 0.232468 5.17385e-20)
(1.21023 0.21337 3.29427e-20)
(1.19946 0.198916 5.26014e-20)
(0.160473 0.00665854 -8.99645e-20)
(0.676175 0.130288 -1.31799e-19)
(1.04411 0.248411 -1.03168e-19)
(1.20161 0.294778 -9.77699e-20)
(1.24145 0.297316 -4.2966e-20)
(1.23671 0.282446 4.71637e-20)
(1.22175 0.262831 -2.32317e-20)
(1.20724 0.242608 -2.15636e-22)
(1.19526 0.221953 -2.13704e-20)
(1.18488 0.206854 3.87783e-21)
(0.233353 0.0274633 2.4082e-20)
(0.788336 0.191096 -5.23937e-21)
(1.1098 0.299227 2.32834e-20)
(1.22161 0.329471 1.82065e-20)
(1.23667 0.320311 1.36302e-20)
(1.22265 0.298869 -3.65067e-20)
(1.20533 0.275449 1.68654e-20)
(1.19065 0.252544 -1.64445e-20)
(1.17938 0.230347 -5.24799e-21)
(1.16925 0.213883 -8.55983e-21)
(0.309621 0.0594077 1.24957e-21)
(0.878009 0.255288 -7.32454e-22)
(1.15135 0.348679 -5.04772e-21)
(1.22528 0.362085 6.06196e-20)
(1.22322 0.342144 -1.642e-20)
(1.20424 0.314796 -1.5381e-20)
(1.18638 0.287704 1.99787e-21)
(1.17237 0.262038 -1.6446e-21)
(1.16179 0.238011 -6.08195e-21)
(1.15259 0.219949 -1.266e-20)
(0.383208 0.100871 -1.03628e-19)
(0.944255 0.320288 1.96085e-20)
(1.17179 0.395937 -1.67026e-19)
(1.21593 0.392571 -5.8468e-20)
(1.203 0.362778 -1.78415e-20)
(1.18213 0.329985 -2.25368e-21)
(1.16498 0.299241 -1.17472e-20)
(1.15218 0.270748 -6.33142e-21)
(1.14285 0.244825 5.95008e-21)
(1.13434 0.224936 8.70049e-21)
(0.448566 0.149536 1.78805e-19)
(0.9875 0.384022 -9.11856e-20)
(1.17396 0.440094 1.26862e-19)
(1.19594 0.420672 5.04447e-20)
(1.17716 0.381937 -1.75935e-20)
(1.15663 0.343992 5.84437e-20)
(1.14118 0.309614 -1.4791e-20)
(1.13027 0.278379 1.67857e-20)
(1.12227 0.250739 3.31703e-21)
(1.11442 0.228764 5.61107e-21)
(0.501415 0.202815 -1.09537e-19)
(1.00905 0.444708 4.14759e-19)
(1.16039 0.480309 -7.63038e-20)
(1.16704 0.445945 -4.24588e-20)
(1.14645 0.399097 8.91531e-20)
(1.12804 0.356285 -3.70277e-20)
(1.11515 0.318346 -1.28479e-20)
(1.10661 0.284583 -8.18562e-21)
(1.10006 0.255676 9.02264e-22)
(1.09359 0.231402 -1.05313e-20)
(0.539061 0.257937 -1.98682e-19)
(1.01062 0.500698 -2.21575e-19)
(1.13314 0.515664 1.35256e-19)
(1.13063 0.467738 3.72866e-20)
(1.11157 0.413582 -4.39332e-20)
(1.09673 0.366312 -5.71535e-21)
(1.0871 0.325063 1.90922e-20)
(1.08112 0.289126 6.44486e-21)
(1.07623 0.25901 -2.057e-20)
(1.07214 0.232687 -2.52803e-21)
(0.560361 0.312012 6.85981e-20)
(0.994118 0.55043 2.84911e-19)
(1.094 0.54513 -5.72027e-20)
(1.0881 0.485231 4.46418e-21)
(1.07318 0.424677 -3.34168e-21)
(1.06288 0.373459 1.6229e-21)
(1.05709 0.329467 1.52342e-20)
(1.05394 0.29168 -1.17013e-20)
(1.05133 0.260463 1.96296e-20)
(1.0501 0.232526 -1.94549e-20)
(0.565516 0.362259 -5.06993e-19)
(0.961324 0.592275 2.55628e-20)
(1.04505 0.567708 -1.05556e-19)
(1.04057 0.497394 1.3048e-20)
(1.03163 0.431734 -1.97567e-21)
(1.02674 0.377222 5.84605e-20)
(1.02541 0.331061 -4.77437e-20)
(1.02559 0.291917 2.78209e-20)
(1.02593 0.259748 -2.65606e-20)
(1.0282 0.230848 -8.90851e-20)
(0.5556 0.406393 2.57119e-19)
(0.913792 0.624155 -2.40342e-19)
(0.988571 0.582533 -1.692e-20)
(0.989013 0.50343 -3.59359e-21)
(0.987515 0.433983 9.11453e-20)
(0.988854 0.377059 -8.46895e-21)
(0.992469 0.329435 7.15482e-20)
(0.996624 0.289439 8.31545e-21)
(1.0009 0.256687 5.67759e-21)
(1.00727 0.227747 1.24772e-19)
(0.531735 0.442721 1.42306e-19)
(0.854009 0.644489 -1.99275e-20)
(0.926598 0.588356 -7.81174e-21)
(0.934501 0.502883 7.17866e-20)
(0.941568 0.430885 -3.05053e-20)
(0.949705 0.372479 -1.09468e-19)
(0.958755 0.324058 -7.04971e-20)
(0.967652 0.283657 7.0372e-21)
(0.976926 0.250757 9.7137e-20)
(0.987684 0.223576 -7.93043e-20)
(0.495104 0.468688 -1.14426e-20)
(0.786017 0.652946 -2.58837e-20)
(0.860999 0.584266 -1.00006e-19)
(0.878186 0.495196 4.70858e-21)
(0.894583 0.422008 1.50126e-19)
(0.909937 0.363134 -4.79167e-20)
(0.924822 0.314597 1.79554e-19)
(0.93908 0.273998 -2.48019e-19)
(0.953924 0.240694 -1.67206e-19)
(0.968289 0.217154 -3.59588e-20)
(0.44804 0.481032 3.56677e-20)
(0.712355 0.647982 5.37222e-20)
(0.79331 0.570158 3.44122e-20)
(0.821261 0.479926 -5.33862e-20)
(0.847441 0.40707 -2.26714e-19)
(0.870277 0.34884 2.14126e-19)
(0.891316 0.301067 8.29945e-20)
(0.911136 0.26087 1.07659e-19)
(0.931221 0.22604 3.08289e-19)
(0.946446 0.199849 -7.48596e-20)
(0.394712 0.479402 1.30847e-19)
(0.636023 0.629171 -2.32027e-20)
(0.725417 0.545836 -5.78368e-20)
(0.764985 0.456819 1.12219e-19)
(0.801109 0.385879 2.00828e-19)
(0.831565 0.329453 -4.76437e-19)
(0.85895 0.283455 -7.42832e-20)
(0.884044 0.245254 -1.93727e-19)
(0.907228 0.212989 3.92375e-20)
(0.921979 0.188134 -1.40741e-19)
(0.338277 0.463413 -2.65585e-19)
(0.559679 0.596169 -1.20209e-19)
(0.65911 0.511364 4.00165e-19)
(0.710649 0.425875 -2.2966e-19)
(0.756585 0.358442 -3.31406e-19)
(0.794598 0.304925 3.11017e-19)
(0.828284 0.261273 -2.85439e-19)
(0.858496 0.224783 1.41876e-19)
(0.88502 0.193868 -1.76502e-19)
(0.901912 0.170293 2.79314e-19)
(0.281868 0.433494 -1.08291e-19)
(0.48612 0.549356 5.9401e-19)
(0.596198 0.46701 -6.19143e-19)
(0.659543 0.387313 2.58815e-20)
(0.714879 0.325007 2.02302e-19)
(0.760077 0.275761 -1.2552e-20)
(0.79948 0.235842 4.36456e-19)
(0.83385 0.202694 -3.80673e-19)
(0.863111 0.174596 2.77434e-19)
(0.883112 0.152532 -1.87624e-19)
(0.228304 0.390663 -1.77201e-19)
(0.417859 0.489461 9.69079e-20)
(0.538408 0.413288 2.6681e-19)
(0.612933 0.341532 3.06911e-19)
(0.67703 0.285788 -7.04855e-20)
(0.728957 0.241777 2.91233e-19)
(0.773682 0.206115 2.45017e-20)
(0.811877 0.176552 3.145e-20)
(0.843828 0.151685 -1.11811e-19)
(0.866884 0.132265 -6.06794e-21)
(0.179991 0.33649 5.34758e-19)
(0.357152 0.417686 -3.71248e-19)
(0.487399 0.350985 -4.96143e-19)
(0.571982 0.28924 2.78666e-20)
(0.643844 0.241527 -1.45979e-19)
(0.701649 0.203971 1.21952e-19)
(0.750909 0.17362 -4.45992e-19)
(0.792361 0.148462 1.31547e-19)
(0.826903 0.127205 3.74443e-19)
(0.853065 0.11043 -1.81134e-19)
(0.138808 0.272651 7.26724e-20)
(0.306025 0.335787 4.61684e-19)
(0.444755 0.28117 3.33521e-19)
(0.537834 0.231225 -3.12019e-19)
(0.616272 0.192723 1.94706e-19)
(0.679031 0.162455 -8.82244e-20)
(0.732051 0.138043 -5.74707e-20)
(0.776176 0.117861 -2.7335e-20)
(0.812953 0.100808 -1.15809e-19)
(0.841895 0.0872241 2.13826e-19)
(0.106313 0.200786 -3.58168e-19)
(0.266139 0.2458 -4.17574e-19)
(0.411683 0.2053 -6.75187e-21)
(0.51137 0.168603 2.97401e-19)
(0.594926 0.140355 -5.45631e-20)
(0.661522 0.118174 -5.89872e-20)
(0.717427 0.100299 8.57246e-20)
(0.763611 0.0855223 -4.63224e-20)
(0.802195 0.0730054 -3.69576e-20)
(0.83345 0.0629535 3.84307e-20)
(0.0838516 0.122932 5.20744e-20)
(0.238805 0.149893 -6.84984e-20)
(0.389118 0.124984 2.95578e-19)
(0.493326 0.102554 -7.25069e-20)
(0.580384 0.0852987 1.36799e-19)
(0.649601 0.0717591 -3.67527e-20)
(0.70746 0.0608595 -5.73317e-20)
(0.755039 0.051853 9.18306e-20)
(0.794883 0.0442048 1.27852e-20)
(0.827806 0.0380168 -3.3068e-20)
(0.484181 0.034417 -6.86734e-20)
(0.573018 0.028614 3.15046e-20)
(0.643562 0.0240619 -1.66917e-20)
(0.702406 0.0203988 1.99022e-20)
(0.750688 0.0173724 -2.61413e-20)
(0.791178 0.0147984 -1.59292e-20)
(0.824979 0.012707 5.64505e-24)
(-0.197834 0.0032707 -4.93343e-20)
(-0.201585 0.00303064 3.53022e-20)
(-0.204823 0.00271455 4.79761e-22)
(-0.207674 0.0024334 -6.11352e-21)
(-0.210207 0.00218771 -1.22003e-20)
(-0.212456 0.00197235 -1.40209e-20)
(-0.214452 0.00178183 -2.39743e-20)
(-0.216225 0.0016103 4.26292e-20)
(-0.217794 0.00145236 -2.41618e-20)
(-0.219176 0.00130345 4.95332e-20)
(-0.220382 0.00115999 -3.11903e-20)
(-0.221421 0.00101919 -4.49867e-21)
(-0.222298 0.000879032 -1.10003e-20)
(-0.223017 0.000738401 2.85174e-20)
(-0.223579 0.00059754 -1.8779e-20)
(-0.223988 0.000457246 1.91391e-20)
(-0.224248 0.000316517 -1.33087e-20)
(-0.224368 0.000175528 -1.11984e-20)
(-0.224358 2.91615e-05 7.21232e-21)
(-0.224219 -0.00012187 -4.78692e-21)
(-0.223947 -0.000277135 1.78469e-20)
(-0.223541 -0.000436216 -8.13014e-21)
(-0.223 -0.000598441 -1.20276e-20)
(-0.222323 -0.000763117 7.45735e-21)
(-0.221509 -0.000930449 -1.01114e-20)
(-0.220558 -0.00110012 1.18996e-20)
(-0.219466 -0.00127172 3.29803e-21)
(-0.218232 -0.00144476 -9.50162e-21)
(-0.216855 -0.00161862 1.70355e-20)
(-0.16532 0.0089937 5.07696e-21)
(-0.168759 0.00828804 4.20511e-20)
(-0.171507 0.00737539 -6.59651e-20)
(-0.173871 0.00654365 1.01059e-19)
(-0.175974 0.00581265 -8.31582e-20)
(-0.177833 0.0051679 -2.70773e-21)
(-0.179471 0.0045957 1.08545e-19)
(-0.180909 0.00408133 -3.53923e-20)
(-0.182164 0.0036108 1.30825e-20)
(-0.183246 0.00317224 -4.27226e-20)
(-0.184162 0.00275607 -4.99035e-20)
(-0.184919 0.00235463 2.69856e-20)
(-0.185518 0.00196218 -3.47225e-20)
(-0.18596 0.00157559 6.96964e-20)
(-0.186241 0.00119613 -2.18819e-20)
(-0.186364 0.000828374 2.28088e-20)
(-0.186342 0.000465859 -1.17478e-20)
(-0.186194 9.44292e-05 -2.67727e-20)
(-0.185919 -0.000284719 3.01325e-20)
(-0.185506 -0.000668203 -9.87207e-21)
(-0.184958 -0.00105514 -4.35734e-20)
(-0.184272 -0.001445 4.06825e-20)
(-0.183448 -0.00183762 -2.63261e-20)
(-0.182487 -0.00223169 -5.99243e-21)
(-0.18139 -0.00263056 1.01878e-20)
(-0.180156 -0.00303366 2.92781e-20)
(-0.178782 -0.00344066 -8.01026e-21)
(-0.177267 -0.00385124 5.3681e-20)
(-0.17561 -0.00426489 -7.08799e-22)
(-0.0998691 0.0136928 -1.31459e-19)
(-0.102858 0.0121521 5.27338e-20)
(-0.104678 0.0109317 -1.39278e-19)
(-0.106217 0.00962525 2.53858e-19)
(-0.107621 0.00848068 -1.71027e-19)
(-0.108876 0.00746777 2.07523e-19)
(-0.109968 0.00656624 -2.0692e-19)
(-0.110902 0.00575278 9.32159e-20)
(-0.111682 0.00500359 -2.10289e-20)
(-0.11231 0.00429951 1.12751e-19)
(-0.112787 0.00362615 -5.29655e-20)
(-0.113115 0.00297212 -6.67844e-20)
(-0.113292 0.0023286 -1.27849e-19)
(-0.113311 0.0016906 1.3202e-19)
(-0.113161 0.00106181 -1.78515e-21)
(-0.112857 0.0004611 -1.18029e-19)
(-0.112432 -0.000148587 2.75637e-20)
(-0.111877 -0.000761084 1.03102e-19)
(-0.111173 -0.00137104 -2.94145e-20)
(-0.110325 -0.00198234 5.37805e-21)
(-0.109335 -0.0025971 6.07584e-20)
(-0.108205 -0.00321795 -5.90397e-20)
(-0.106931 -0.00384875 9.43219e-20)
(-0.105517 -0.00446426 -1.49038e-20)
(-0.103967 -0.00508684 -1.23545e-19)
(-0.102276 -0.00571508 1.24043e-19)
(-0.100444 -0.00634894 -4.52248e-20)
(-0.0984716 -0.00698842 4.37326e-20)
(-0.0963566 -0.00763309 -1.28131e-19)
(0.00187557 0.0142576 6.5006e-21)
(-0.00197304 0.0135664 -1.56886e-19)
(-0.00234616 0.0127066 1.3976e-19)
(-0.0033189 0.0113292 1.00248e-19)
(-0.00413097 0.0100207 -6.79048e-20)
(-0.00493249 0.00878129 -1.33463e-19)
(-0.0056486 0.00763108 5.64134e-21)
(-0.00625617 0.0065688 9.67468e-20)
(-0.00674111 0.00557641 -7.92228e-20)
(-0.00708811 0.00463495 1.33076e-19)
(-0.00728656 0.00373031 -1.69607e-19)
(-0.00733132 0.00284965 1.61581e-19)
(-0.00721957 0.00197939 -3.67396e-20)
(-0.00693989 0.00110913 2.46473e-20)
(-0.00644385 0.000243295 4.42189e-20)
(-0.0058132 -0.000624298 -3.85329e-20)
(-0.00505996 -0.00149551 -1.57331e-19)
(-0.00413832 -0.00235458 6.50988e-20)
(-0.00306261 -0.00320936 1.2277e-19)
(-0.00183697 -0.00406345 -3.79972e-20)
(-0.000465557 -0.00491888 -5.46196e-20)
(0.00103832 -0.00577937 -1.91612e-20)
(0.00272396 -0.00663184 -6.76489e-21)
(0.00458023 -0.00748055 -5.18347e-20)
(0.00655918 -0.00833898 1.40688e-19)
(0.0086837 -0.00920261 -1.75996e-21)
(0.0109534 -0.0100718 -4.49798e-20)
(0.013368 -0.0109463 2.34526e-20)
(0.0159276 -0.0118255 -4.05683e-20)
(0.0186317 -0.0127086 -7.33092e-20)
(0.149132 0.016908 6.02473e-20)
(0.146223 0.0151211 8.14428e-21)
(0.142849 0.013463 -3.04823e-19)
(0.140503 0.0122078 1.31778e-19)
(0.138721 0.0109661 -1.10851e-19)
(0.137195 0.0096711 2.715e-20)
(0.135888 0.0083916 -4.65941e-20)
(0.134781 0.00715537 1.08772e-19)
(0.13386 0.00594617 -2.95833e-21)
(0.133133 0.00475408 3.39487e-19)
(0.132609 0.00358265 -5.71026e-20)
(0.132288 0.00243146 -1.45785e-19)
(0.132165 0.00128944 -2.31655e-20)
(0.132242 0.00014201 -6.94881e-21)
(0.132555 -0.0010195 -5.6367e-20)
(0.133038 -0.00223029 -5.14387e-20)
(0.133722 -0.00339512 3.52085e-21)
(0.134604 -0.00452619 6.53299e-20)
(0.135678 -0.00564137 8.75647e-20)
(0.136939 -0.00675049 -1.00066e-19)
(0.13838 -0.00785567 1.04202e-19)
(0.139993 -0.00895678 -1.39168e-19)
(0.141778 -0.0100387 4.60835e-20)
(0.143736 -0.0111303 -1.71831e-20)
(0.14586 -0.012224 -1.19787e-19)
(0.148148 -0.0133212 1.04074e-19)
(0.150598 -0.0144228 2.75818e-20)
(0.153207 -0.0155287 -6.99325e-20)
(0.155973 -0.0166377 9.36911e-20)
(0.158892 -0.017749 4.53802e-20)
(0.345811 0.0276209 -1.33155e-20)
(0.341986 0.0230815 -7.57297e-20)
(0.336549 0.0196495 7.26121e-20)
(0.331033 0.0170847 1.74035e-19)
(0.326031 0.0148079 4.30045e-20)
(0.321712 0.0127131 -1.72319e-19)
(0.318008 0.0108649 2.94027e-20)
(0.314772 0.00920449 2.19936e-19)
(0.311931 0.00762124 -5.99436e-19)
(0.309482 0.00606744 2.12361e-19)
(0.307419 0.00454607 -1.79446e-19)
(0.305717 0.00305989 3.27543e-19)
(0.304344 0.00159797 9.60983e-20)
(0.303275 0.000144556 -2.73085e-19)
(0.30249 -0.00132201 3.8715e-19)
(0.302066 -0.00278951 -8.33329e-20)
(0.301974 -0.0042936 -2.52716e-19)
(0.302141 -0.00582169 -2.31164e-19)
(0.302542 -0.00730654 3.00936e-19)
(0.303184 -0.00875424 1.67999e-19)
(0.304064 -0.0101765 -2.27722e-19)
(0.305173 -0.0115871 2.28754e-19)
(0.306501 -0.0129883 -3.4831e-19)
(0.308041 -0.0143829 8.46999e-20)
(0.309783 -0.0157717 -3.49093e-20)
(0.311723 -0.0171566 1.41888e-19)
(0.313854 -0.0185385 4.71924e-20)
(0.316173 -0.019917 -2.42233e-19)
(0.318675 -0.0212904 -3.81618e-20)
(0.321352 -0.0226577 1.45953e-19)
(0.588065 0.0406336 -1.14813e-19)
(0.578741 0.0362526 1.37141e-20)
(0.569975 0.0326201 2.02584e-19)
(0.56069 0.0290997 -2.26489e-19)
(0.551599 0.0253728 1.16269e-19)
(0.543426 0.0218382 1.07039e-19)
(0.536195 0.0187676 9.29515e-20)
(0.529627 0.0160388 -2.81405e-19)
(0.523613 0.0134763 -1.6501e-19)
(0.518191 0.0110352 -3.11069e-20)
(0.513378 0.00872349 4.98061e-19)
(0.509134 0.0065263 7.82713e-21)
(0.505405 0.00441375 -4.65481e-19)
(0.502152 0.00236455 1.63356e-19)
(0.499332 0.000360496 -1.2755e-20)
(0.496901 -0.00160449 9.96709e-20)
(0.494827 -0.00356625 5.56634e-20)
(0.493309 -0.00548362 -9.27342e-20)
(0.49222 -0.00742006 2.25432e-19)
(0.491468 -0.00937883 9.65418e-21)
(0.491021 -0.0112577 -4.36131e-19)
(0.490873 -0.0130687 2.12363e-19)
(0.49102 -0.0148286 1.05292e-19)
(0.491451 -0.0165533 -1.49306e-20)
(0.49215 -0.0182563 -4.81137e-20)
(0.493103 -0.0199463 6.17497e-20)
(0.494301 -0.0216278 1.12586e-19)
(0.495734 -0.0232998 -4.19843e-19)
(0.497391 -0.0249582 3.54684e-19)
(0.499261 -0.0266004 -2.21931e-19)
(0.50133 -0.0282268 -6.47127e-20)
(0.840656 0.0591291 1.16746e-19)
(0.826639 0.0543243 -2.89482e-19)
(0.814609 0.0508607 3.77539e-22)
(0.801926 0.0466224 2.73885e-19)
(0.789382 0.0416478 -7.74682e-20)
(0.778024 0.0369491 -1.87363e-19)
(0.767767 0.032806 3.31994e-20)
(0.758165 0.0289461 6.97779e-20)
(0.749117 0.0252241 -8.46576e-20)
(0.74073 0.0216852 1.3444e-19)
(0.733047 0.0183609 7.30409e-20)
(0.726031 0.0152186 6.22254e-20)
(0.719637 0.0122181 -1.65962e-19)
(0.713841 0.00933846 5.89296e-20)
(0.708614 0.00656896 5.13952e-21)
(0.70393 0.00389689 -2.10502e-19)
(0.699727 0.00133779 2.82114e-19)
(0.695985 -0.0011581 -2.21086e-19)
(0.692662 -0.00363775 1.30176e-19)
(0.689996 -0.00603545 -1.46046e-19)
(0.687824 -0.00846314 9.48409e-20)
(0.686016 -0.0109454 -7.52629e-20)
(0.68454 -0.013341 -1.4236e-20)
(0.683387 -0.0156434 -1.50942e-19)
(0.682545 -0.0178692 3.17001e-20)
(0.682003 -0.0200354 2.09085e-19)
(0.681752 -0.0221598 8.46908e-20)
(0.681786 -0.024247 -2.04393e-19)
(0.682092 -0.0262934 1.29825e-19)
(0.68265 -0.0282999 -9.94784e-20)
(0.683439 -0.0302706 1.2347e-19)
(0.684445 -0.0322079 -1.13897e-19)
(1.05098 0.0830239 5.48785e-21)
(1.03762 0.077938 1.63274e-19)
(1.02542 0.0739145 1.42598e-19)
(1.01194 0.0681163 -4.04643e-19)
(0.998689 0.0617081 1.40535e-19)
(0.986757 0.0559565 1.58378e-19)
(0.975775 0.0507218 3.51784e-20)
(0.965239 0.0456073 1.07015e-19)
(0.955131 0.0406088 -2.48875e-19)
(0.945584 0.035852 -1.39407e-19)
(0.93663 0.0313603 2.81753e-19)
(0.928244 0.0270974 -1.09046e-19)
(0.920409 0.0230415 -2.66706e-19)
(0.913123 0.0191832 3.50999e-19)
(0.906373 0.0155091 -2.01086e-19)
(0.900144 0.0119991 8.61583e-20)
(0.89441 0.00864091 2.05804e-19)
(0.88916 0.00542705 -2.28087e-19)
(0.884328 0.00235819 -2.78302e-19)
(0.879888 -0.000632905 1.46273e-20)
(0.875774 -0.00361008 3.05755e-19)
(0.872315 -0.00643031 2.36023e-19)
(0.869377 -0.00923648 -2.35438e-19)
(0.866789 -0.0120739 -2.37786e-19)
(0.864502 -0.0148294 1.36238e-19)
(0.862494 -0.0174979 1.54673e-19)
(0.860762 -0.020103 7.30808e-20)
(0.859315 -0.0226369 -1.42157e-19)
(0.858146 -0.0250891 1.61193e-19)
(0.857231 -0.0274658 -3.18533e-19)
(0.856549 -0.0297782 7.8866e-20)
(0.856083 -0.0320316 -1.08722e-19)
(1.18176 0.10345 -2.75429e-19)
(1.17453 0.0998524 3.99584e-19)
(1.16621 0.0952889 -5.07797e-20)
(1.15618 0.0886401 -2.13747e-19)
(1.14645 0.0820302 3.16111e-19)
(1.13767 0.0761089 -4.10306e-19)
(1.12932 0.0703999 -1.29728e-19)
(1.12105 0.0646763 -1.12657e-19)
(1.11294 0.0590426 3.25724e-19)
(1.10506 0.0535797 -2.01642e-19)
(1.09744 0.0482834 2.72506e-19)
(1.09008 0.0431479 1.22395e-19)
(1.08301 0.0381861 -1.68682e-19)
(1.07623 0.0334061 -3.08832e-19)
(1.06975 0.0288064 3.6271e-19)
(1.06359 0.0243805 7.80823e-20)
(1.05773 0.0201252 -7.81825e-20)
(1.05219 0.0160326 -1.52952e-19)
(1.04695 0.0121086 2.99375e-19)
(1.04203 0.00835282 -3.55191e-19)
(1.03738 0.00480302 3.76019e-19)
(1.03292 0.00135 -9.45074e-20)
(1.02867 -0.00210323 -2.66459e-19)
(1.0249 -0.00538805 -7.0507e-20)
(1.02152 -0.00855136 3.92864e-19)
(1.01837 -0.0116998 2.75995e-20)
(1.01542 -0.0148268 -1.8764e-19)
(1.01272 -0.0178743 2.99043e-20)
(1.01025 -0.0208214 -2.29594e-19)
(1.00799 -0.0236774 -3.10745e-21)
(1.00592 -0.0264502 2.06212e-19)
(1.00403 -0.0291399 3.72803e-20)
(1.00232 -0.0317453 -1.6e-19)
(1.26085 0.126241 0)
(1.26034 0.119007 0)
(1.25528 0.112425 0)
(1.24855 0.105942 0)
(1.24217 0.0995079 0)
(1.2365 0.0930662 0)
(1.2312 0.0866939 0)
(1.22598 0.0805154 0)
(1.22072 0.0745704 0)
(1.21544 0.0688277 0)
(1.21018 0.0632546 0)
(1.20497 0.0578413 0)
(1.19984 0.0525893 0)
(1.19478 0.047499 0)
(1.18982 0.0425692 0)
(1.18496 0.0377948 0)
(1.18021 0.0331725 0)
(1.17558 0.0286933 0)
(1.17107 0.0243561 0)
(1.1667 0.0201446 0)
(1.16247 0.0160625 0)
(1.15837 0.0120972 0)
(1.1544 0.00831762 0)
(1.15052 0.00469345 0)
(1.14674 0.0011361 0)
(1.14309 -0.00234667 0)
(1.13963 -0.00571483 0)
(1.13638 -0.00894892 0)
(1.1333 -0.0120707 0)
(1.13037 -0.0151013 1.83909e-27)
(1.12756 -0.0180474 -1.8391e-27)
(1.12487 -0.0209079 0)
(1.1223 -0.0236821 0)
(1.26372 0.129358 0)
(1.27003 0.121632 0)
(1.27121 0.114748 0)
(1.26961 0.1084 0)
(1.2676 0.102242 0)
(1.26605 0.0961389 0)
(1.26486 0.0901231 0)
(1.26365 0.084261 0)
(1.2622 0.0785716 0)
(1.26048 0.0730361 0)
(1.25854 0.0676314 0)
(1.25644 0.0623457 0)
(1.25421 0.0571771 0)
(1.25187 0.0521273 0)
(1.24944 0.0471979 0)
(1.24693 0.0423883 0)
(1.24434 0.0376975 0)
(1.24168 0.0331228 0)
(1.23898 0.0286636 0)
(1.23623 0.0243171 0)
(1.23345 0.0200854 0)
(1.23064 0.0159663 0)
(1.22782 0.011965 0)
(1.225 0.00809087 0)
(1.22224 0.00437404 0)
(1.21956 0.000810806 0)
(1.21698 -0.00260371 0)
(1.21442 -0.00591141 0)
(1.21182 -0.00914057 0)
(1.20921 -0.0122908 5.54852e-27)
(1.20662 -0.0153541 -5.54852e-27)
(1.20406 -0.0183264 0)
(1.20153 -0.021208 0)
(1.25566 0.126469 0)
(1.26344 0.119558 0)
(1.26657 0.112928 0)
(1.26691 0.106743 0)
(1.26664 0.100887 0)
(1.26677 0.0952225 0)
(1.26729 0.0896844 0)
(1.26788 0.0842659 0)
(1.26825 0.0789733 0)
(1.26835 0.0738057 0)
(1.26819 0.0687554 0)
(1.26785 0.0638144 0)
(1.26736 0.0589784 0)
(1.26673 0.0542464 0)
(1.26596 0.0496189 0)
(1.26505 0.045096 0)
(1.26402 0.0406782 0)
(1.26287 0.0363655 0)
(1.2616 0.0321593 0)
(1.26024 0.0280607 0)
(1.25879 0.0240732 0)
(1.25727 0.0201995 0)
(1.25568 0.0164445 0)
(1.25404 0.0128072 0)
(1.25235 0.00928064 0)
(1.25061 0.00584016 0)
(1.24878 0.00246249 0)
(1.24684 -0.000870793 0)
(1.24487 -0.00413432 0)
(1.24288 -0.00730796 1.70681e-27)
(1.24088 -0.0103879 -1.70681e-27)
(1.23886 -0.0133773 0)
(1.23681 -0.0162789 0)
(1.24493 0.122408 0)
(1.25266 0.116184 0)
(1.25652 0.109987 0)
(1.25784 0.104108 0)
(1.25846 0.098556 0)
(1.25933 0.0932298 0)
(1.26053 0.0880411 0)
(1.26179 0.0829535 0)
(1.26288 0.0779655 0)
(1.26372 0.0730836 0)
(1.26433 0.0683095 0)
(1.26476 0.0636395 0)
(1.26505 0.0590689 0)
(1.2652 0.0545943 0)
(1.26523 0.050214 0)
(1.26511 0.0459276 0)
(1.26487 0.0417347 0)
(1.2645 0.037635 0)
(1.26402 0.0336284 0)
(1.26342 0.0297142 0)
(1.26273 0.0258915 0)
(1.26193 0.0221583 0)
(1.26103 0.0185102 0)
(1.26004 0.0149416 0)
(1.25896 0.0114453 0)
(1.25778 0.00802044 0)
(1.25653 0.00467037 0)
(1.25523 0.00141604 0)
(1.25388 -0.00172978 0)
(1.25247 -0.00477713 0)
(1.25099 -0.00773728 0)
(1.24945 -0.010616 0)
(1.24784 -0.0134148 0)
(1.2335 0.117227 0)
(1.24096 0.111639 0)
(1.24515 0.105992 0)
(1.24707 0.100546 0)
(1.24827 0.0953572 0)
(1.24959 0.0903678 0)
(1.25114 0.0855055 0)
(1.25272 0.0807319 0)
(1.25415 0.0760411 0)
(1.25534 0.0714401 0)
(1.25632 0.0669342 0)
(1.25712 0.0625231 0)
(1.25778 0.0582031 0)
(1.25831 0.0539707 0)
(1.25871 0.0498239 0)
(1.25898 0.0457617 0)
(1.25912 0.0417836 0)
(1.25914 0.0378893 0)
(1.25905 0.0340781 0)
(1.25884 0.0303492 0)
(1.25853 0.0267014 0)
(1.25811 0.0231337 0)
(1.25759 0.019645 0)
(1.25697 0.0162364 0)
(1.25626 0.0129094 0)
(1.25547 0.00966835 0)
(1.25461 0.00651372 0)
(1.25368 0.00344698 0)
(1.25267 0.000455705 0)
(1.25158 -0.00246545 0)
(1.25041 -0.00531479 0)
(1.24918 -0.0080897 0)
(1.24788 -0.0107889 0)
(1.22277 0.111384 0)
(1.22988 0.106425 0)
(1.23416 0.101346 0)
(1.23643 0.0963788 0)
(1.23801 0.0915959 0)
(1.23962 0.0869688 0)
(1.24139 0.0824472 0)
(1.24316 0.078 0)
(1.24478 0.0736207 0)
(1.24618 0.069315 0)
(1.24737 0.0650887 0)
(1.24839 0.0609436 0)
(1.24926 0.0568783 0)
(1.25001 0.0528906 0)
(1.25062 0.0489788 0)
(1.25111 0.0451423 0)
(1.25147 0.0413809 0)
(1.25171 0.0376947 0)
(1.25184 0.0340835 0)
(1.25185 0.0305471 0)
(1.25176 0.0270853 0)
(1.25157 0.0236983 0)
(1.25127 0.0203867 0)
(1.25089 0.0171514 0)
(1.25041 0.0139931 0)
(1.24985 0.0109114 0)
(1.24921 0.00790331 0)
(1.24849 0.00496533 0)
(1.24769 0.00209468 0)
(1.2468 -0.000706806 0)
(1.24585 -0.00343703 0)
(1.24482 -0.00609505 0)
(1.24373 -0.00868073 0)
(1.21322 0.105422 0)
(1.21985 0.101018 0)
(1.22408 0.0964581 0)
(1.22655 0.0919527 0)
(1.22838 0.0875763 0)
(1.23019 0.0833156 5.1209e-28)
(1.23211 0.0791354 -5.1209e-28)
(1.234 0.0750128 0)
(1.23574 0.070943 0)
(1.23727 0.0669309 0)
(1.23861 0.0629829 0)
(1.23977 0.0591019 0)
(1.24079 0.0552886 0)
(1.24168 0.0515421 0)
(1.24244 0.0478618 0)
(1.24307 0.0442477 0)
(1.24358 0.0407001 0)
(1.24397 0.0372196 0)
(1.24425 0.0338064 0)
(1.24442 0.030461 0)
(1.24448 0.0271836 0)
(1.24444 0.0239748 0)
(1.2443 0.0208347 0)
(1.24407 0.0177635 0)
(1.24375 0.0147606 0)
(1.24335 0.011825 0)
(1.24285 0.00895557 0)
(1.24228 0.00615163 0)
(1.24163 0.00341397 0)
(1.2409 0.000743404 0)
(1.2401 -0.00185934 0)
(1.23923 -0.0043942 0)
(1.23829 -0.00686145 0)
(1.20467 0.0994617 0)
(1.21081 0.0955382 0)
(1.21492 0.0914501 0)
(1.21751 0.0873789 0)
(1.21951 0.0833941 0)
(1.22147 0.0794911 -8.15141e-28)
(1.22348 0.0756449 8.15141e-28)
(1.22545 0.0718391 0)
(1.22728 0.0680713 0)
(1.2289 0.0643469 0)
(1.23034 0.0606723 0)
(1.23161 0.0570517 0)
(1.23274 0.0534868 0)
(1.23374 0.0499783 0)
(1.23461 0.0465264 0)
(1.23535 0.0431318 0)
(1.23598 0.0397955 0)
(1.23648 0.0365182 0)
(1.23688 0.0333008 0)
(1.23716 0.0301439 0)
(1.23735 0.0270482 0)
(1.23743 0.024014 0)
(1.23741 0.0210415 0)
(1.2373 0.0181308 0)
(1.23711 0.0152818 0)
(1.23682 0.0124945 0)
(1.23645 0.00976911 0)
(1.236 0.007106 0)
(1.23547 0.00450556 0)