/*--------------------------------*- C++ -*----------------------------------*\
  =========                 |
  \\      /  F ield         | OpenFOAM: The Open Source CFD Toolbox
   \\    /   O peration     | Website:  https://openfoam.org
    \\  /    A nd           | Version:  7
     \\/     M anipulation  |
\*---------------------------------------------------------------------------*/
FoamFile
{
    version     2.0;
    format      ascii;
    class       surfaceScalarField;
    location    "80.001";
    object      phi;
}
// * * * * * * * * * * * * * * * * * * * * * * * * * * * * * * * * * * * * * //

dimensions      [0 3 -1 0 0 0 0];

internalField   nonuniform List<scalar> 
7273
(
0.000464312
0.0123213
-0.000410217
0.000492517
0.0126767
0.000502655
0.0127808
0.000502948
0.0127734
0.000498363
0.0127234
0.00049094
0.012659
0.000481374
0.012591
0.000469974
0.0125243
0.000456971
0.012461
0.000442543
0.0124019
0.000426817
0.0123469
0.000409895
0.0122956
0.000391871
0.0122476
0.000372845
0.0122027
0.00035292
0.0121607
0.000332198
0.0121214
0.000310776
0.0120849
0.000288746
0.0120511
0.00026619
0.01202
0.000243183
0.0119916
0.000219794
0.0119658
0.00019608
0.0119427
0.000172097
0.0119221
0.000147889
0.0119042
0.0001235
0.0118889
9.89656e-05
0.0118761
7.4319e-05
0.0118659
4.95884e-05
0.0118582
2.48031e-05
0.0118531
0.0118506
0.000353972
0.0122652
-0.000297851
0.000388743
0.0126419
0.000405532
0.012764
0.00041206
0.0127668
0.000413443
0.012722
0.000411719
0.0126607
0.000407543
0.0125952
0.000401233
0.0125306
0.000393045
0.0124692
0.000383173
0.0124118
0.000371763
0.0123583
0.000358933
0.0123084
0.000344798
0.0122618
0.00032947
0.012218
0.000313068
0.0121771
0.000295706
0.0121388
0.000277493
0.0121031
0.000258534
0.0120701
0.000238923
0.0120396
0.000218747
0.0120118
0.000198085
0.0119865
0.000177008
0.0119637
0.00015558
0.0119436
0.000133859
0.0119259
0.000111896
0.0119108
8.97401e-05
0.0118982
6.74329e-05
0.0118882
4.50131e-05
0.0118806
2.25201e-05
0.0118756
0.0118732
0.00024522
0.0122053
-0.000185343
0.000286861
0.0126003
0.000310317
0.0127405
0.000323328
0.0127538
0.000330967
0.0127144
0.000335001
0.0126567
0.000336133
0.0125941
0.000334791
0.0125319
0.000331279
0.0124727
0.000325813
0.0124172
0.000318562
0.0123656
0.000309667
0.0123173
0.000299261
0.0122722
0.000287479
0.0122298
0.000274452
0.0121901
0.000260311
0.0121529
0.000245178
0.0121183
0.00022917
0.0120861
0.000212394
0.0120564
0.000194948
0.0120292
0.000176923
0.0120045
0.000158399
0.0119823
0.000139452
0.0119625
0.000120148
0.0119452
0.000100551
0.0119304
8.07155e-05
0.0119181
6.06942e-05
0.0119082
4.05349e-05
0.0119008
2.02856e-05
0.0118959
0.0118934
0.000138612
0.0121412
-7.45066e-05
0.000187307
0.0125516
0.000217025
0.0127108
0.000237308
0.0127335
0.000251485
0.0127002
0.00026124
0.0126469
0.000267577
0.0125877
0.000271074
0.0125284
0.000272076
0.0124717
0.000270834
0.0124185
0.000267549
0.0123688
0.000262396
0.0123225
0.000255534
0.012279
0.000247117
0.0122382
0.000237296
0.0121999
0.000226215
0.012164
0.000214012
0.0121305
0.000200817
0.0120993
0.000186749
0.0120705
0.000171917
0.012044
0.000156422
0.01202
0.000140355
0.0119983
0.0001238
0.0119791
0.000106833
0.0119622
8.95248e-05
0.0119477
7.19403e-05
0.0119357
5.41392e-05
0.011926
3.61776e-05
0.0119188
1.81114e-05
0.0119139
0.0119116
3.94568e-05
0.0120695
3.22771e-05
9.08215e-05
0.0125002
0.000127582
0.0126741
0.000155347
0.0127058
0.000175706
0.0126799
0.000190934
0.0126317
0.000202329
0.0125763
0.000210491
0.0125203
0.000215802
0.0124664
0.000218561
0.0124157
0.000219019
0.0123684
0.000217387
0.0123241
0.000213854
0.0122826
0.000208598
0.0122435
0.000201789
0.0122067
0.000193589
0.0121722
0.00018415
0.0121399
0.000173614
0.0121098
0.000162112
0.012082
0.000149764
0.0120564
0.00013668
0.0120331
0.00012296
0.0120121
0.000108696
0.0119933
9.39729e-05
0.0119769
7.88683e-05
0.0119628
6.34541e-05
0.0119511
4.77972e-05
0.0119417
3.19605e-05
0.0119346
1.60066e-05
0.0119299
0.0119276
-5.77601e-05
0.0119971
0.000130175
-2.24737e-06
0.0124447
4.43909e-05
0.0126274
7.83228e-05
0.0126718
0.000104178
0.012654
0.000124688
0.0126112
0.000140914
0.0125601
0.000153477
0.0125077
0.00016282
0.0124571
0.000169309
0.0124092
0.000173245
0.0123645
0.000174879
0.0123225
0.000174433
0.012283
0.00017211
0.0122458
0.0001681
0.0122107
0.000162582
0.0121777
0.000155723
0.0121468
0.000147677
0.0121179
0.000138586
0.0120911
0.00012858
0.0120664
0.000117776
0.0120439
0.000106283
0.0120235
9.42001e-05
0.0120054
8.16186e-05
0.0119895
6.86224e-05
0.0119758
5.52894e-05
0.0119644
4.16922e-05
0.0119553
2.78995e-05
0.0119484
1.39792e-05
0.0119438
0.0119415
-0.000149198
0.0119213
0.000225033
-8.40785e-05
0.0123796
-3.31567e-05
0.0125765
6.09248e-06
0.0126326
3.76808e-05
0.0126224
6.32063e-05
0.0125856
8.38923e-05
0.0125394
0.000100477
0.0124911
0.000113499
0.012444
0.000123388
0.0123993
0.000130491
0.0123573
0.0001351
0.0123179
0.000137467
0.0122807
0.000137822
0.0122455
0.000136375
0.0122122
0.000133323
0.0121808
0.000128844
0.0121512
0.000123106
0.0121236
0.000116258
0.0120979
0.00010844
0.0120742
9.97759e-05
0.0120525
9.03813e-05
0.0120329
8.03608e-05
0.0120154
6.9811e-05
0.0120001
5.88208e-05
0.0119868
4.74728e-05
0.0119758
3.5844e-05
0.0119669
2.40076e-05
0.0119602
1.20356e-05
0.0119558
0.0119536
-0.000231385
0.0118407
0.000311948
-0.00016103
0.0123092
-0.000104426
0.0125199
-5.91537e-05
0.0125873
-2.27253e-05
0.012586
7.17048e-06
0.0125558
3.1797e-05
0.0125148
5.19303e-05
0.012471
6.82078e-05
0.0124278
8.11014e-05
0.0123865
9.10078e-05
0.0123474
9.82567e-05
0.0123106
0.000103131
0.0122758
0.000105882
0.0122427
0.000106742
0.0122113
0.00010592
0.0121816
0.000103608
0.0121535
9.99813e-05
0.0121272
9.51993e-05
0.0121027
8.94062e-05
0.01208
8.27335e-05
0.0120592
7.53006e-05
0.0120404
6.72169e-05
0.0120235
5.85825e-05
0.0120087
4.94899e-05
0.0119959
4.00251e-05
0.0119852
3.02681e-05
0.0119766
2.02951e-05
0.0119702
1.0181e-05
0.0119659
0.0119638
-0.000303966
0.0117559
0.000388804
-0.000228927
0.0122342
-0.000167114
0.0124581
-0.000117117
0.0125373
-7.6393e-05
0.0125453
-4.28032e-05
0.0125222
-1.4923e-05
0.0124869
8.23022e-06
0.0124479
2.72711e-05
0.0124087
4.27136e-05
0.012371
5.50133e-05
0.0123351
6.45283e-05
0.0123011
7.15704e-05
0.0122687
7.64134e-05
0.0122379
7.93023e-05
0.0122084
8.04593e-05
0.0121804
8.0086e-05
0.0121539
7.83649e-05
0.012129
7.54608e-05
0.0121056
7.15229e-05
0.012084
6.66862e-05
0.0120641
6.10731e-05
0.012046
5.47955e-05
0.0120298
4.79557e-05
0.0120155
4.06483e-05
0.0120032
3.29608e-05
0.0119929
2.49751e-05
0.0119846
1.67691e-05
0.0119784
8.41896e-06
0.0119742
0.0119722
-0.000365383
0.0116673
0.000453894
-0.000286343
0.0121551
-0.000220526
0.0123923
-0.000166842
0.0124836
-0.000122803
0.0125012
-8.62463e-05
0.0124856
-5.57189e-05
0.0124564
-3.02415e-05
0.0124224
-9.05807e-06
0.0123875
8.43598e-06
0.0123535
2.26743e-05
0.0123209
3.40481e-05
0.0122897
4.28937e-05
0.0122599
4.94998e-05
0.0122313
5.4123e-05
0.0122038
5.69948e-05
0.0121776
5.83227e-05
0.0121526
5.8293e-05
0.012129
5.70736e-05
0.0121068
5.48155e-05
0.0120862
5.16553e-05
0.0120672
4.77165e-05
0.0120499
4.31114e-05
0.0120344
3.79429e-05
0.0120207
3.23057e-05
0.0120089
2.62876e-05
0.0119989
1.99707e-05
0.0119909
1.34332e-05
0.0119849
6.75133e-06
0.0119809
0.0119789
-0.000414236
0.011576
0.000505603
-0.000332375
0.0120733
-0.000263836
0.0123237
-0.000207609
0.0124274
-0.0001613
0.0124549
-0.000122743
0.012447
-9.04187e-05
0.0124241
-6.32693e-05
0.0123952
-4.0523e-05
0.0123648
-2.15695e-05
0.0123346
-5.9011e-06
0.0123052
6.89461e-06
0.0122769
1.71548e-05
0.0122496
2.51807e-05
0.0122232
3.12335e-05
0.0121978
3.5548e-05
0.0121733
3.83331e-05
0.0121498
3.97756e-05
0.0121275
4.00437e-05
0.0121066
3.92879e-05
0.012087
3.76435e-05
0.0120689
3.52325e-05
0.0120523
3.21658e-05
0.0120375
2.85447e-05
0.0120243
2.44627e-05
0.0120129
2.00059e-05
0.0120034
1.52553e-05
0.0119957
1.02877e-05
0.0119899
5.17821e-06
0.011986
0.0119841
-0.000449549
0.0114829
0.000542674
-0.000366278
0.01199
-0.000296413
0.0122539
-0.000238946
0.01237
-0.000191535
0.0124075
-0.000152004
0.0124075
-0.000118777
0.0123908
-9.07557e-05
0.0123672
-6.71294e-05
0.0123412
-4.72704e-05
0.0123147
-3.06694e-05
0.0122886
-1.69086e-05
0.0122632
-5.63349e-06
0.0122384
3.45367e-06
0.0122142
1.06217e-05
0.0121906
1.61001e-05
0.0121678
2.00968e-05
0.0121458
2.27926e-05
0.0121248
2.43525e-05
0.012105
2.4923e-05
0.0120864
2.46352e-05
0.0120692
2.36073e-05
0.0120534
2.19465e-05
0.0120391
1.9751e-05
0.0120265
1.71107e-05
0.0120156
1.4109e-05
0.0120064
1.08238e-05
0.011999
7.32932e-06
0.0119934
3.69794e-06
0.0119897
0.0119878
-0.000470807
0.0113893
0.00056434
-0.000387653
0.0119069
-0.000317956
0.0121842
-0.000260646
0.0123126
-0.000213374
0.0123602
-0.000173947
0.0123681
-0.000140753
0.0123576
-0.000112669
0.0123391
-8.88709e-05
0.0123174
-6.87258e-05
0.0122946
-5.17228e-05
0.0122716
-3.74456e-05
0.0122489
-2.55492e-05
0.0122265
-1.57389e-05
0.0122043
-7.76227e-06
0.0121826
-1.39229e-06
0.0121614
3.56696e-06
0.0121409
7.29878e-06
0.0121211
9.95709e-06
0.0121023
1.1681e-05
0.0120847
1.25955e-05
0.0120682
1.28103e-05
0.0120532
1.24276e-05
0.0120395
1.15399e-05
0.0120274
1.02321e-05
0.0120169
8.58291e-06
0.012008
6.66591e-06
0.0120009
4.55122e-06
0.0119955
2.30715e-06
0.0119919
0.0119901
-0.00047794
0.0112969
0.000570341
-0.000396495
0.0118254
-0.000328516
0.0121162
-0.000272788
0.0122569
-0.00022692
0.0123144
-0.000188694
0.0123299
-0.000156481
0.0123254
-0.00012915
0.0123118
-0.000105884
0.0122941
-8.60591e-05
0.0122747
-6.91808e-05
0.0122548
-5.48491e-05
0.0122346
-4.27325e-05
0.0122143
-3.255e-05
0.0121942
-2.4061e-05
0.0121741
-1.70564e-05
0.0121544
-1.13496e-05
0.0121351
-6.78038e-06
0.0121165
-3.20292e-06
0.0120988
-4.89044e-07
0.012082
1.47476e-06
0.0120663
2.79762e-06
0.0120518
3.57102e-06
0.0120387
3.87953e-06
0.0120271
3.80092e-06
0.012017
3.4074e-06
0.0120084
2.76673e-06
0.0120015
1.94358e-06
0.0119963
1.00099e-06
0.0119929
0.0119911
-0.000471332
0.0112073
0.000560996
-0.000393196
0.0117473
-0.000328477
0.0120515
-0.000275741
0.0122042
-0.000232523
0.0122711
-0.00019658
0.0122939
-0.000166278
0.0122951
-0.000140497
0.012286
-0.000118445
0.012272
-9.9527e-05
0.0122558
-8.32766e-05
0.0122385
-6.93215e-05
0.0122206
-5.73564e-05
0.0122024
-4.71262e-05
0.0121839
-3.84131e-05
0.0121654
-3.10265e-05
0.012147
-2.48e-05
0.0121289
-1.95876e-05
0.0121113
-1.52597e-05
0.0120944
-1.17017e-05
0.0120784
-8.81032e-06
0.0120634
-6.49624e-06
0.0120495
-4.67526e-06
0.0120369
-3.27174e-06
0.0120257
-2.21582e-06
0.0120159
-1.44286e-06
0.0120077
-8.92118e-07
0.012001
-5.05349e-07
0.0119959
-2.26109e-07
0.0119926
0.0119909
-0.000451774
0.011122
0.000537075
-0.000378527
0.011674
-0.000318558
0.0119915
-0.000270168
0.0121558
-0.000230789
0.0122318
-0.000198155
0.0122613
-0.000170642
0.0122676
-0.000147162
0.0122625
-0.000126963
0.0122518
-0.000109496
0.0122383
-9.43378e-05
0.0122233
-8.11576e-05
0.0122074
-6.96869e-05
0.0121909
-5.97039e-05
0.0121739
-5.10195e-05
0.0121567
-4.34707e-05
0.0121395
-3.69155e-05
0.0121224
-3.12294e-05
0.0121056
-2.63026e-05
0.0120895
-2.20374e-05
0.0120741
-1.83465e-05
0.0120597
-1.51523e-05
0.0120463
-1.2384e-05
0.0120341
-9.97656e-06
0.0120233
-7.87031e-06
0.0120138
-6.0096e-06
0.0120058
-4.34191e-06
0.0119993
-2.81694e-06
0.0119944
-1.3855e-06
0.0119911
0.0119895
-0.000420491
0.0110426
0.00049982
-0.000353635
0.0116072
-0.000299809
0.0119377
-0.000257014
0.012113
-0.000222565
0.0121973
-0.000194175
0.0122329
-0.000170248
0.0122437
-0.000149743
0.012242
-0.000131969
0.0122341
-0.000116436
0.0122228
-0.000102782
0.0122097
-9.07263e-05
0.0121954
-8.0048e-05
0.0121802
-7.05666e-05
0.0121645
-6.21304e-05
0.0121483
-5.46099e-05
0.0121319
-4.78923e-05
0.0121156
-4.18784e-05
0.0120996
-3.64809e-05
0.0120841
-3.16222e-05
0.0120693
-2.7233e-05
0.0120553
-2.32511e-05
0.0120423
-1.96197e-05
0.0120305
-1.62863e-05
0.0120199
-1.32026e-05
0.0120107
-1.03229e-05
0.0120029
-7.60413e-06
0.0119966
-5.0045e-06
0.0119918
-2.48298e-06
0.0119886
0.011987
-0.000379126
0.0109708
0.000450935
-0.000320024
0.0115481
-0.000273594
0.0118912
-0.000237503
0.0120769
-0.000208933
0.0121687
-0.000185593
0.0122096
-0.000165934
0.012224
-0.000148979
0.0122251
-0.000134111
0.0122192
-0.000120918
0.0122096
-0.000109107
0.0121979
-9.84621e-05
0.0121847
-8.88188e-05
0.0121706
-8.0046e-05
0.0121557
-7.20358e-05
0.0121403
-6.46965e-05
0.0121246
-5.79486e-05
0.0121089
-5.17224e-05
0.0120934
-4.5956e-05
0.0120783
-4.05946e-05
0.0120639
-3.55888e-05
0.0120503
-3.08936e-05
0.0120376
-2.64673e-05
0.0120261
-2.22715e-05
0.0120158
-1.82698e-05
0.0120067
-1.44277e-05
0.0119991
-1.07119e-05
0.0119929
-7.09005e-06
0.0119882
-3.52976e-06
0.0119851
0.0119835
-0.000329636
0.0109079
0.000392548
-0.000279535
0.011498
-0.000241593
0.0118533
-0.000213111
0.0120484
-0.000191186
0.0121468
-0.000173544
0.0121919
-0.000158692
0.0122092
-0.000145733
0.0122121
-0.000134141
0.0122076
-0.000123593
0.0121991
-0.00011388
0.0121882
-0.000104859
0.0121757
-9.64285e-05
0.0121622
-8.85143e-05
0.0121478
-8.10571e-05
0.0121328
-7.40076e-05
0.0121176
-6.73233e-05
0.0121022
-6.09667e-05
0.012087
-5.49042e-05
0.0120723
-4.91054e-05
0.0120581
-4.35419e-05
0.0120447
-3.81874e-05
0.0120323
-3.30168e-05
0.0120209
-2.80059e-05
0.0120107
-2.31313e-05
0.0120018
-1.83698e-05
0.0119943
-1.36989e-05
0.0119882
-9.09553e-06
0.0119836
-4.53668e-06
0.0119805
0.011979
-0.000274267
0.010855
0.000327141
-0.000234322
0.011458
-0.000205717
0.0118247
-0.000185523
0.0120282
-0.000170802
0.0121321
-0.000159315
0.0121804
-0.000149637
0.0121995
-0.000140971
0.0122034
-0.000132895
0.0121995
-0.000125187
0.0121914
-0.000117728
0.0121807
-0.000110457
0.0121684
-0.000103343
0.012155
-9.63727e-05
0.0121408
-8.95395e-05
0.012126
-8.28399e-05
0.0121109
-7.62712e-05
0.0120956
-6.983e-05
0.0120806
-6.35123e-05
0.012066
-5.73132e-05
0.0120519
-5.12266e-05
0.0120386
-4.52457e-05
0.0120263
-3.9362e-05
0.012015
-3.35664e-05
0.0120049
-2.78484e-05
0.0119961
-2.21968e-05
0.0119887
-1.65996e-05
0.0119826
-1.10436e-05
0.011978
-5.51496e-06
0.011975
0.0119734
-0.000215966
0.0108135
0.000257538
-0.000186857
0.0114289
-0.000168112
0.0118059
-0.000156617
0.0120167
-0.000149412
0.0121249
-0.000144312
0.0121753
-0.000139984
0.0121952
-0.000135741
0.0121992
-0.000131275
0.0121951
-0.000126473
0.0121866
-0.000121315
0.0121755
-0.000115827
0.012163
-0.000110052
0.0121493
-0.000104041
0.0121348
-9.78434e-05
0.0121198
-9.15023e-05
0.0121045
-8.50563e-05
0.0120892
-7.85373e-05
0.0120741
-7.19716e-05
0.0120594
-6.53803e-05
0.0120453
-5.87799e-05
0.012032
-5.21828e-05
0.0120197
-4.55978e-05
0.0120085
-3.90304e-05
0.0119984
-3.24832e-05
0.0119896
-2.59568e-05
0.0119821
-1.94493e-05
0.0119761
-1.29574e-05
0.0119715
-6.47594e-06
0.0119685
0.011967
-0.000157573
0.0107841
0.000186892
-0.000139712
0.0114111
-0.000131092
0.0117973
-0.000128396
0.012014
-0.000128744
0.0121252
-0.000130026
0.0121766
-0.000131012
0.0121961
-0.000131137
0.0121993
-0.000130217
0.0121941
-0.000128253
0.0121846
-0.000125328
0.0121726
-0.000121556
0.0121592
-0.000117057
0.0121448
-0.000111948
0.0121297
-0.000106334
0.0121142
-0.000100306
0.0120985
-9.39433e-05
0.0120828
-8.73136e-05
0.0120675
-8.04729e-05
0.0120526
-7.34678e-05
0.0120383
-6.6337e-05
0.0120249
-5.9112e-05
0.0120125
-5.18178e-05
0.0120012
-4.44744e-05
0.011991
-3.70968e-05
0.0119822
-2.96967e-05
0.0119747
-2.22823e-05
0.0119687
-1.48591e-05
0.0119641
-7.4307e-06
0.0119611
0.0119595
-0.000101772
0.0107672
0.000118674
-9.5658e-05
0.0114049
-9.70235e-05
0.0117987
-0.000102913
0.0120199
-0.000110579
0.0121329
-0.000117982
0.012184
-0.000124022
0.0122022
-0.000128269
0.0122036
-0.000130666
0.0121965
-0.000131331
0.0121853
-0.000130449
0.0121717
-0.000128224
0.012157
-0.000124852
0.0121414
-0.000120513
0.0121253
-0.000115367
0.012109
-0.000109553
0.0120927
-0.000103189
0.0120765
-9.63764e-05
0.0120606
-8.91997e-05
0.0120454
-8.17303e-05
0.0120308
-7.40277e-05
0.0120172
-6.61411e-05
0.0120046
-5.8111e-05
0.0119931
-4.99707e-05
0.0119829
-4.17468e-05
0.011974
-3.34611e-05
0.0119664
-2.51309e-05
0.0119604
-1.677e-05
0.0119558
-8.38967e-06
0.0119527
0.0119511
-5.15384e-05
0.0107635
5.52681e-05
-5.72456e-05
0.0114106
-6.81328e-05
0.0118096
-8.21935e-05
0.012034
-9.66744e-05
0.0121474
-0.000109684
0.012197
-0.000120295
0.0122128
-0.000128224
0.0122115
-0.000133543
0.0122019
-0.000136486
0.0121882
-0.000137339
0.0121726
-0.00013639
0.012156
-0.000133908
0.0121389
-0.000130135
0.0121216
-0.000125281
0.0121042
-0.000119529
0.0120869
-0.000113034
0.01207
-0.000105928
0.0120535
-9.83227e-05
0.0120378
-9.03109e-05
0.0120228
-8.19713e-05
0.0120089
-7.33693e-05
0.011996
-6.4559e-05
0.0119843
-5.55854e-05
0.0119739
-4.64856e-05
0.0119649
-3.72902e-05
0.0119573
-2.80244e-05
0.0119511
-1.87092e-05
0.0119465
-9.36226e-06
0.0119433
0.0119418
-1.07372e-05
0.0107757
-1.49922e-06
-2.66675e-05
0.0114266
-4.66774e-05
0.0118296
-6.82191e-05
0.0120555
-8.87137e-05
0.0121679
-0.000106564
0.0122149
-0.000121043
0.0122273
-0.000132023
0.0122225
-0.000139707
0.0122096
-0.000144441
0.0121929
-0.000146605
0.0121748
-0.000146566
0.012156
-0.000144658
0.012137
-0.000141177
0.0121181
-0.000136381
0.0120994
-0.000130491
0.012081
-0.000123694
0.0120632
-0.00011615
0.012046
-0.000107993
0.0120296
-9.93359e-05
0.0120142
-9.02729e-05
0.0119998
-8.08832e-05
0.0119866
-7.12327e-05
0.0119747
-6.13761e-05
0.0119641
-5.13589e-05
0.0119549
-4.12191e-05
0.0119471
-3.09883e-05
0.0119409
-2.06931e-05
0.0119362
-1.03566e-05
0.011933
0.0119314
1.97522e-05
0.0107999
-4.39406e-05
-6.66636e-06
0.011453
-3.4959e-05
0.0118579
-6.28626e-05
0.0120834
-8.82701e-05
0.0121933
-0.000109942
0.0122365
-0.000127369
0.0122447
-0.000140587
0.0122357
-0.000149928
0.0122189
-0.00015584
0.0121989
-0.000158785
0.0121777
-0.000159199
0.0121564
-0.000157474
0.0121353
-0.000153951
0.0121146
-0.000148928
0.0120944
-0.000142656
0.0120748
-0.000135351
0.0120559
-0.000127193
0.0120378
-0.000118337
0.0120208
-0.00010891
0.0120048
-9.90188e-05
0.0119899
-8.8754e-05
0.0119763
-7.819e-05
0.0119641
-6.73892e-05
0.0119533
-5.64033e-05
0.0119439
-4.52757e-05
0.011936
-3.40426e-05
0.0119296
-2.27349e-05
0.0119248
-1.13792e-05
0.0119216
0.01192
3.60523e-05
0.0108368
-7.29448e-05
3.64193e-07
0.0114887
-3.49983e-05
0.0118932
-6.78036e-05
0.0121162
-9.67446e-05
0.0122222
-0.000120971
0.0122608
-0.000140221
0.012264
-0.000154698
0.0122502
-0.00016485
0.012229
-0.000171213
0.0122052
-0.000174318
0.0121808
-0.000174655
0.0121567
-0.000172658
0.0121333
-0.000168707
0.0121106
-0.000163127
0.0120888
-0.000156195
0.0120678
-0.000148144
0.0120478
-0.000139174
0.0120289
-0.00012945
0.012011
-0.000119111
0.0119944
-0.000108273
0.0119791
-9.70336e-05
0.0119651
-8.54729e-05
0.0119525
-7.36582e-05
0.0119414
-6.1645e-05
0.0119319
-4.94799e-05
0.0119238
-3.72019e-05
0.0119174
-2.48438e-05
0.0119125
-1.24345e-05
0.0119092
0.0119076
3.54861e-05
0.0108857
-8.43647e-05
-8.41655e-06
0.0115326
-4.85695e-05
0.0119334
-8.44345e-05
0.0121521
-0.000115255
0.0122531
-0.000140555
0.0122861
-0.000160334
0.0122837
-0.000174953
0.0122648
-0.00018496
0.0122391
-0.000190958
0.0122112
-0.000193527
0.0121834
-0.000193195
0.0121564
-0.000190425
0.0121305
-0.000185619
0.0121058
-0.000179121
0.0120823
-0.000171222
0.0120599
-0.000162168
0.0120388
-0.000152168
0.0120189
-0.000141393
0.0120003
-0.000129988
0.011983
-0.000118075
0.0119672
-0.000105753
0.0119528
-9.3106e-05
0.0119399
-8.02022e-05
0.0119285
-6.70987e-05
0.0119188
-5.38427e-05
0.0119106
-4.04737e-05
0.011904
-2.70249e-05
0.011899
-1.35249e-05
0.0118957
0.0118941
1.66428e-05
0.0109452
-7.60973e-05
-3.32903e-05
0.0115825
-7.65221e-05
0.0119766
-0.000113602
0.0121892
-0.000144515
0.012284
-0.000169279
0.0123108
-0.00018818
0.0123026
-0.000201729
0.0122783
-0.000210557
0.0122479
-0.00021531
0.012216
-0.000216598
0.0121847
-0.000214964
0.0121548
-0.000210887
0.0121264
-0.000204774
0.0120997
-0.000196976
0.0120745
-0.000187789
0.0120507
-0.000177462
0.0120284
-0.000166203
0.0120076
-0.000154186
0.0119882
-0.000141557
0.0119704
-0.000128435
0.011954
-0.00011492
0.0119393
-0.000101094
0.0119261
-8.70245e-05
0.0119145
-7.27662e-05
0.0119045
-5.83651e-05
0.0118962
-4.38586e-05
0.0118895
-2.92782e-05
0.0118845
-1.46507e-05
0.0118811
0.0118794
-2.11617e-05
0.0110129
-4.66209e-05
-7.52789e-05
0.0116366
-0.000119521
0.0120209
-0.000155763
0.0122254
-0.000184861
0.0123131
-0.000207394
0.0123334
-0.000223942
0.0123192
-0.000235158
0.0122896
-0.000241731
0.0122545
-0.000244329
0.0122186
-0.000243566
0.0121839
-0.000239983
0.0121512
-0.00023405
0.0121205
-0.000226169
0.0120918
-0.000216684
0.012065
-0.000205883
0.0120399
-0.000194008
0.0120166
-0.000181262
0.0119949
-0.000167813
0.0119748
-0.000153799
0.0119564
-0.000139336
0.0119396
-0.000124519
0.0119244
-0.000109423
0.011911
-9.41118e-05
0.0118992
-7.86364e-05
0.011889
-6.30379e-05
0.0118806
-4.73498e-05
0.0118738
-3.15992e-05
0.0118687
-1.58093e-05
0.0118653
0.0118636
-7.92942e-05
0.0110861
6.09901e-06
-0.000134903
0.0116922
-0.00017776
0.0120637
-0.000210932
0.0122586
-0.000236227
0.0123384
-0.000254792
0.0123519
-0.000267494
0.0123319
-0.000275105
0.0122972
-0.000278347
0.0122577
-0.000277884
0.0122181
-0.000274307
0.0121803
-0.000268133
0.012145
-0.000259805
0.0121122
-0.000249704
0.0120817
-0.000238152
0.0120534
-0.000225418
0.0120272
-0.00021173
0.0120029
-0.000197276
0.0119804
-0.00018221
0.0119597
-0.00016666
0.0119408
-0.00015073
0.0119237
-0.000134506
0.0119082
-0.000118056
0.0118945
-0.000101434
0.0118825
-8.46845e-05
0.0118723
-6.78417e-05
0.0118637
-5.09325e-05
0.0118569
-3.39783e-05
0.0118518
-1.6996e-05
0.0118483
0.0118466
-0.000157667
0.0111617
8.20762e-05
-0.000211919
0.0117465
-0.000250768
0.0121026
-0.000278575
0.0122864
-0.000298085
0.0123579
-0.000310979
0.0123648
-0.000318382
0.0123393
-0.000321162
0.0123
-0.000320043
0.0122566
-0.000315652
0.0122137
-0.000308535
0.0121732
-0.00029916
0.0121356
-0.000287928
0.0121009
-0.00027518
0.012069
-0.000261204
0.0120395
-0.000246242
0.0120122
-0.000230494
0.0119871
-0.000214127
0.011964
-0.000197275
0.0119429
-0.000180049
0.0119236
-0.000162539
0.0119061
-0.000144816
0.0118905
-0.000126937
0.0118766
-0.000108944
0.0118645
-9.08724e-05
0.0118542
-7.27465e-05
0.0118456
-5.4585e-05
0.0118387
-3.64009e-05
0.0118336
-1.82036e-05
0.0118301
0.0118284
-0.000255405
0.0112363
0.000180876
-0.000305146
0.0117962
-0.00033734
0.0121348
-0.00035757
0.0123066
-0.000369422
0.0123697
-0.000375056
0.0123705
-0.000375824
0.0123401
-0.000372649
0.0122968
-0.000366227
0.0122502
-0.000357122
0.0122046
-0.000345806
0.0121619
-0.00033268
0.0121225
-0.000318085
0.0120863
-0.000302307
0.0120532
-0.00028559
0.0120228
-0.000268135
0.0119948
-0.000250109
0.0119691
-0.000231649
0.0119456
-0.000212864
0.0119241
-0.000193844
0.0119046
-0.000174658
0.011887
-0.00015536
0.0118712
-0.000135991
0.0118573
-0.00011658
0.0118451
-9.71498e-05
0.0118348
-7.77131e-05
0.0118262
-5.82781e-05
0.0118193
-3.88479e-05
0.0118141
-1.94227e-05
0.0118107
0.011809
-0.000370197
0.0113063
0.000300124
-0.000412448
0.0118385
-0.000435555
0.0121579
-0.000446224
0.0123173
-0.000448762
0.0123723
-0.000445753
0.0123675
-0.000438729
0.012333
-0.000428634
0.0122867
-0.000416102
0.0122376
-0.000401608
0.0121901
-0.000385531
0.0121458
-0.000368187
0.0121052
-0.000349839
0.012068
-0.000330709
0.0120341
-0.000310983
0.012003
-0.000290816
0.0119746
-0.000270333
0.0119486
-0.000249634
0.0119249
-0.0002288
0.0119033
-0.000207892
0.0118837
-0.000186956
0.011866
-0.000166026
0.0118503
-0.000145124
0.0118364
-0.000124265
0.0118243
-0.000103455
0.011814
-8.26931e-05
0.0118054
-6.19764e-05
0.0117986
-4.12962e-05
0.0117935
-2.06417e-05
0.0117901
0.0117884
-0.000498961
0.0113686
0.000436729
-0.000530983
0.0118705
-0.000542918
0.0121698
-0.000542363
0.0123167
-0.000534233
0.0123641
-0.000521473
0.0123547
-0.000505743
0.0123173
-0.000487965
0.0122689
-0.000468687
0.0122183
-0.000448274
0.0121697
-0.000426996
0.0121245
-0.000405068
0.0120832
-0.000382664
0.0120456
-0.000359934
0.0120113
-0.000336997
0.0119801
-0.000313952
0.0119516
-0.000290879
0.0119256
-0.000267836
0.0119018
-0.00024487
0.0118803
-0.000222011
0.0118608
-0.000199279
0.0118433
-0.000176685
0.0118277
-0.00015423
0.0118139
-0.00013191
0.011802
-0.000109715
0.0117918
-8.76306e-05
0.0117833
-6.56389e-05
0.0117766
-4.37187e-05
0.0117715
-2.18472e-05
0.0117682
0.0117665
-0.000637986
0.0114196
0.000586939
-0.000657457
0.01189
-0.00065653
0.0121689
-0.000643463
0.0123037
-0.000623675
0.0123443
-0.000600382
0.0123314
-0.000575308
0.0122922
-0.00054932
0.0122429
-0.000522859
0.0121919
-0.000496165
0.012143
-0.000469386
0.0120978
-0.000442626
0.0120565
-0.000415966
0.0120189
-0.000389471
0.0119848
-0.000363191
0.0119538
-0.000337167
0.0119256
-0.000311424
0.0118998
-0.000285979
0.0118764
-0.000260838
0.0118551
-0.000236
0.011836
-0.000211457
0.0118187
-0.000187192
0.0118034
-0.000163186
0.0117899
-0.000139415
0.0117782
-0.000115851
0.0117682
-9.24634e-05
0.0117599
-6.92199e-05
0.0117533
-4.60855e-05
0.0117484
-2.30245e-05
0.0117451
0.0117435
-0.000783348
0.0114563
0.000746626
-0.000788323
0.011895
-0.000773235
0.0121538
-0.000746784
0.0122772
-0.000714741
0.0123123
-0.000680481
0.0122971
-0.000645726
0.0122575
-0.000611259
0.0122084
-0.000577395
0.012158
-0.00054424
0.0121098
-0.000511812
0.0120653
-0.000480104
0.0120248
-0.000449095
0.0119879
-0.000418765
0.0119545
-0.000389092
0.0119241
-0.000360051
0.0118965
-0.000331618
0.0118714
-0.000303761
0.0118485
-0.000276447
0.0118278
-0.000249641
0.0118092
-0.000223302
0.0117924
-0.00019739
0.0117775
-0.000171862
0.0117644
-0.000146673
0.011753
-0.000121776
0.0117433
-9.71246e-05
0.0117353
-7.26704e-05
0.0117289
-4.83645e-05
0.0117241
-2.41577e-05
0.0117209
0.0117193
-0.000930752
0.0114762
0.000910844
-0.000919779
0.011884
-0.000889714
0.0121237
-0.000849472
0.012237
-0.000804995
0.0122678
-0.000759696
0.0122518
-0.000715237
0.012213
-0.000672287
0.0121655
-0.000631023
0.0121168
-0.000591414
0.0120702
-0.00055335
0.0120273
-0.00051671
0.0119881
-0.000481373
0.0119526
-0.000447235
0.0119204
-0.000414199
0.0118911
-0.00038218
0.0118645
-0.000351095
0.0118403
-0.00032087
0.0118183
-0.000291429
0.0117984
-0.000262703
0.0117804
-0.000234622
0.0117643
-0.000207118
0.01175
-0.000180123
0.0117374
-0.000153572
0.0117264
-0.000127401
0.0117171
-0.000101544
0.0117094
-7.59393e-05
0.0117033
-5.05221e-05
0.0116987
-2.523e-05
0.0116956
0.0116941
-0.00107555
0.0114777
0.00107404
-0.00104786
0.0118563
-0.00100259
0.0120785
-0.00094866
0.0121831
-0.000892
0.0122112
-0.000835957
0.0121958
-0.00078208
0.0121591
-0.000730903
0.0121143
-0.000682464
0.0120683
-0.000636596
0.0120244
-0.000593067
0.0119837
-0.000551645
0.0119467
-0.000512116
0.0119131
-0.000474294
0.0118825
-0.00043801
0.0118548
-0.000403118
0.0118296
-0.000369484
0.0118067
-0.000336987
0.0117858
-0.000305513
0.0117669
-0.000274957
0.0117499
-0.000245221
0.0117346
-0.000216208
0.011721
-0.00018783
0.011709
-0.00016
0.0116986
-0.000132634
0.0116898
-0.000105652
0.0116824
-7.89746e-05
0.0116766
-5.25244e-05
0.0116722
-2.62248e-05
0.0116693
0.0116679
-0.00121317
0.0114602
0.00123071
-0.00116873
0.0118119
-0.00110864
0.0120184
-0.00104161
0.012116
-0.000973433
0.012143
-0.000907286
0.0121296
-0.000844567
0.0120964
-0.000785666
0.0120554
-0.000730484
0.0120131
-0.000678728
0.0119726
-0.000630055
0.0119351
-0.00058413
0.0119008
-0.000540655
0.0118696
-0.000499366
0.0118413
-0.000460029
0.0118155
-0.000422442
0.011792
-0.00038642
0.0117706
-0.000351799
0.0117512
-0.00031843
0.0117336
-0.000286174
0.0117176
-0.000254903
0.0117033
-0.000224498
0.0116906
-0.000194846
0.0116794
-0.000165843
0.0116696
-0.000137385
0.0116613
-0.000109377
0.0116544
-8.17253e-05
0.0116489
-5.43377e-05
0.0116448
-2.71253e-05
0.0116421
0.0116408
-0.00133941
0.0114239
0.00137575
-0.0012789
0.0117513
-0.00120492
0.0119444
-0.00112584
0.0120369
-0.00104718
0.0120643
-0.000971871
0.0120543
-0.000901146
0.0120257
-0.000835242
0.0119895
-0.000773936
0.0119518
-0.000716823
0.0119155
-0.000663462
0.0118817
-0.000613432
0.0118507
-0.000566357
0.0118225
-0.000521905
0.0117968
-0.000479787
0.0117734
-0.000439745
0.011752
-0.000401554
0.0117324
-0.000365008
0.0117146
-0.000329924
0.0116985
-0.000296134
0.0116838
-0.000263484
0.0116707
-0.000231831
0.0116589
-0.000201042
0.0116486
-0.000170994
0.0116396
-0.000141569
0.0116319
-0.000112654
0.0116255
-8.4142e-05
0.0116204
-5.59298e-05
0.0116166
-2.79157e-05
0.0116141
0.0116128
-0.00145066
0.0113698
0.00150473
-0.00137537
0.0116761
-0.00128892
0.0118579
-0.00119922
0.0119472
-0.0011114
0.0119765
-0.00102814
0.0119711
-0.000950451
0.011948
-0.000878447
0.0119175
-0.000811793
0.0118852
-0.000749991
0.0118537
-0.000692518
0.0118242
-0.000638882
0.0117971
-0.000588642
0.0117723
-0.000541412
0.0117496
-0.000496849
0.0117288
-0.000454655
0.0117098
-0.000414562
0.0116924
-0.000376334
0.0116764
-0.000339756
0.0116619
-0.000304634
0.0116487
-0.00027079
0.0116368
-0.00023806
0.0116262
-0.000206295
0.0116168
-0.000175354
0.0116086
-0.000145103
0.0116016
-0.000115418
0.0115958
-8.61789e-05
0.0115912
-5.72706e-05
0.0115877
-2.8581e-05
0.0115854
0.0115843
-0.00154402
0.0112997
0.0016141
-0.00145575
0.0115878
-0.00135864
0.0117608
-0.00126003
0.0118486
-0.00116462
0.0118811
-0.00107478
0.0118812
-0.000991342
0.0118646
-0.000914283
0.0118405
-0.000843181
0.0118141
-0.000777466
0.011788
-0.000716554
0.0117633
-0.000659897
0.0117404
-0.000607005
0.0117194
-0.000557444
0.0117
-0.000510834
0.0116822
-0.000466838
0.0116658
-0.00042516
0.0116507
-0.000385531
0.0116368
-0.000347714
0.0116241
-0.000311491
0.0116125
-0.000276666
0.011602
-0.000243056
0.0115926
-0.000210496
0.0115842
-0.000178831
0.011577
-0.000147916
0.0115707
-0.000117614
0.0115655
-8.77948e-05
0.0115614
-5.83332e-05
0.0115583
-2.91078e-05
0.0115562
0.0115551
-0.00161744
0.0112158
0.00170133
-0.00151834
0.0114887
-0.00141262
0.0116551
-0.00130701
0.011743
-0.00120572
0.0117798
-0.00111081
0.0117863
-0.00102293
0.0117767
-0.000941952
0.0117595
-0.000867391
0.0117395
-0.000798623
0.0117192
-0.000735018
0.0116997
-0.000675991
0.0116814
-0.000621016
0.0116644