/*--------------------------------*- C++ -*----------------------------------*\
  =========                 |
  \\      /  F ield         | OpenFOAM: The Open Source CFD Toolbox
   \\    /   O peration     | Website:  https://openfoam.org
    \\  /    A nd           | Version:  7
     \\/     M anipulation  |
\*---------------------------------------------------------------------------*/
FoamFile
{
    version     2.0;
    format      ascii;
    class       volScalarField;
    location    "35";
    object      p;
}
// * * * * * * * * * * * * * * * * * * * * * * * * * * * * * * * * * * * * * //

dimensions      [0 2 -2 0 0 0 0];

internalField   nonuniform List<scalar> 
12150
(
-0.287161
-0.291587
-0.293362
-0.293759
-0.293199
-0.291757
-0.289547
-0.286684
-0.283267
-0.279391
-0.275148
-0.270635
-0.265933
-0.261067
-0.256277
-0.28839
-0.292637
-0.294289
-0.294581
-0.293924
-0.292394
-0.290103
-0.287163
-0.283673
-0.279725
-0.275409
-0.270828
-0.266069
-0.261116
-0.256147
-0.290833
-0.294724
-0.296131
-0.296215
-0.295365
-0.293659
-0.291206
-0.288114
-0.284477
-0.280384
-0.275925
-0.271207
-0.266338
-0.261218
-0.255714
-0.29446
-0.297825
-0.298867
-0.298639
-0.297502
-0.295534
-0.292839
-0.289518
-0.285661
-0.281352
-0.276679
-0.271757
-0.2667
-0.261323
-0.255739
-0.299232
-0.301903
-0.302465
-0.301826
-0.300308
-0.297991
-0.294975
-0.291353
-0.287205
-0.282611
-0.277652
-0.27246
-0.267138
-0.261378
-0.255664
-0.305096
-0.306917
-0.306887
-0.305737
-0.303747
-0.301
-0.297587
-0.293591
-0.289084
-0.284134
-0.278822
-0.273288
-0.267637
-0.261399
-0.255364
-0.311993
-0.312817
-0.312086
-0.310333
-0.307784
-0.304526
-0.300643
-0.296205
-0.291274
-0.285905
-0.28017
-0.274223
-0.268173
-0.261358
-0.25483
-0.319861
-0.319549
-0.318015
-0.315568
-0.312377
-0.308534
-0.304112
-0.29917
-0.293755
-0.287908
-0.281689
-0.27526
-0.268738
-0.261237
-0.254028
-0.328635
-0.327048
-0.324624
-0.3214
-0.317488
-0.312989
-0.307967
-0.302465
-0.296514
-0.29014
-0.283383
-0.276407
-0.269339
-0.261033
-0.252913
-0.338241
-0.335268
-0.331859
-0.327779
-0.323077
-0.31786
-0.312183
-0.306074
-0.299547
-0.292606
-0.285269
-0.277692
-0.270004
-0.260767
-0.251438
-0.348613
-0.344142
-0.339669
-0.334664
-0.329108
-0.323119
-0.316742
-0.309989
-0.302856
-0.295325
-0.287382
-0.279168
-0.270802
-0.260514
-0.249625
-0.35968
-0.35361
-0.348002
-0.342014
-0.335549
-0.328742
-0.321629
-0.314206
-0.306452
-0.298323
-0.289771
-0.280909
-0.271837
-0.260406
-0.247532
-0.371367
-0.363608
-0.356804
-0.34978
-0.342365
-0.334706
-0.326833
-0.318727
-0.310349
-0.301633
-0.292494
-0.282998
-0.273167
-0.26035
-0.244944
-0.383593
-0.37407
-0.36602
-0.357922
-0.349525
-0.340991
-0.332344
-0.323552
-0.314568
-0.305308
-0.295662
-0.285623
-0.274927
-0.260069
-0.240948
-0.396271
-0.384921
-0.375589
-0.366392
-0.356993
-0.347569
-0.338143
-0.328676
-0.31912
-0.309409
-0.299468
-0.289279
-0.278255
-0.262762
-0.24395
-0.409303
-0.396078
-0.385444
-0.375134
-0.364724
-0.354405
-0.344197
-0.334059
-0.323957
-0.313871
-0.303845
-0.293995
-0.284239
-0.276258
-0.281741
-0.422576
-0.407449
-0.395505
-0.384084
-0.372663
-0.361448
-0.350451
-0.339628
-0.328952
-0.318434
-0.308185
-0.298385
-0.289108
-0.282982
-0.290201
-0.435959
-0.418923
-0.405678
-0.393161
-0.38074
-0.368631
-0.356834
-0.345293
-0.33398
-0.322914
-0.312213
-0.302055
-0.292548
-0.286015
-0.28951
-0.449304
-0.430369
-0.415852
-0.402265
-0.388864
-0.375864
-0.36325
-0.350947
-0.338913
-0.327158
-0.315777
-0.304904
-0.294632
-0.286791
-0.285809
-0.462431
-0.441636
-0.425889
-0.411273
-0.396918
-0.383032
-0.369576
-0.35645
-0.343594
-0.330995
-0.318706
-0.306805
-0.295336
-0.285649
-0.280304
-0.475136
-0.452543
-0.435628
-0.420034
-0.404754
-0.389983
-0.375652
-0.361633
-0.34784
-0.334236
-0.320834
-0.307658
-0.294712
-0.282953
-0.27371
-0.487181
-0.462881
-0.444876
-0.428364
-0.412193
-0.396535
-0.381286
-0.366291
-0.351442
-0.336681
-0.321994
-0.307373
-0.292809
-0.278973
-0.266431
-0.498294
-0.472411
-0.453411
-0.436048
-0.41902
-0.402466
-0.386251
-0.370192
-0.35417
-0.338118
-0.322016
-0.305854
-0.289639
-0.273848
-0.258619
-0.508174
-0.480862
-0.460977
-0.44284
-0.424987
-0.407525
-0.390289
-0.373079
-0.355777
-0.338328
-0.320728
-0.302993
-0.285174
-0.26762
-0.250274
-0.516488
-0.487936
-0.467292
-0.448459
-0.429815
-0.41143
-0.393117
-0.374676
-0.356006
-0.337086
-0.317952
-0.298672
-0.279353
-0.260267
-0.241311
-0.522878
-0.493309
-0.472047
-0.452602
-0.433199
-0.413875
-0.394436
-0.374696
-0.354596
-0.33417
-0.313513
-0.292765
-0.272096
-0.251725
-0.2316
-0.526968
-0.496639
-0.474912
-0.454944
-0.434816
-0.414542
-0.393935
-0.37285
-0.35129
-0.329364
-0.307247
-0.285153
-0.263314
-0.241912
-0.220998
-0.528376
-0.497573
-0.475545
-0.455144
-0.434329
-0.413101
-0.391305
-0.368856
-0.345845
-0.322472
-0.298999
-0.27572
-0.252918
-0.230739
-0.20936
-0.526714
-0.495751
-0.473596
-0.452859
-0.431402
-0.409231
-0.386245
-0.36245
-0.338039
-0.313317
-0.288638
-0.264368
-0.24083
-0.218124
-0.196559
-0.521611
-0.490823
-0.468721
-0.44775
-0.425707
-0.402622
-0.378478
-0.353393
-0.32768
-0.301755
-0.27606
-0.251022
-0.226985
-0.203999
-0.182493
-0.512713
-0.482453
-0.460592
-0.439494
-0.416934
-0.392992
-0.367757
-0.341483
-0.314613
-0.287675
-0.261189
-0.235628
-0.211342
-0.188316
-0.167087
-0.499701
-0.470332
-0.448903
-0.427795
-0.404807
-0.380093
-0.353876
-0.32656
-0.298726
-0.271005
-0.243983
-0.218164
-0.193885
-0.171058
-0.150297
-0.482303
-0.454193
-0.43339
-0.412399
-0.389093
-0.363726
-0.336679
-0.308515
-0.279953
-0.251715
-0.224438
-0.198635
-0.174623
-0.152236
-0.132112
-0.460299
-0.433813
-0.413832
-0.393096
-0.369608
-0.343746
-0.316064
-0.287293
-0.258277
-0.22982
-0.202583
-0.177075
-0.153584
-0.131863
-0.112465
-0.433536
-0.409033
-0.390069
-0.369741
-0.346233
-0.32007
-0.291992
-0.262894
-0.233736
-0.205379
-0.178492
-0.153556
-0.130827
-0.109925
-0.0910517
-0.401937
-0.379758
-0.362007
-0.342252
-0.318915
-0.292683
-0.264485
-0.235377
-0.206417
-0.1785
-0.152285
-0.128214
-0.106498
-0.0865395
-0.0677167
-0.365502
-0.345972
-0.329626
-0.310623
-0.287673
-0.261636
-0.233632
-0.20486
-0.176456
-0.149333
-0.124122
-0.101221
-0.0807665
-0.0620033
-0.0446704
-0.324319
-0.307737
-0.292985
-0.274927
-0.252603
-0.227055
-0.199582
-0.171511
-0.144032
-0.118058
-0.0941808
-0.0727465
-0.0537853
-0.0363882
-0.0208862
-0.278567
-0.265201
-0.252227
-0.235316
-0.213876
-0.189132
-0.162543
-0.135547
-0.109363
-0.0848891
-0.0626631
-0.0429746
-0.0257645
-0.010008
0.003733
-0.228514
-0.218598
-0.20758
-0.192025
-0.171739
-0.148126
-0.122774
-0.0972261
-0.072706
-0.0500654
-0.0297911
-0.0121142
0.00309426
0.0169643
0.028922
-0.174526
-0.168242
-0.159352
-0.14537
-0.126496
-0.104334
-0.0806015
-0.0568615
-0.0343404
-0.0138449
0.00419876
0.0196157
0.0325868
0.0443261
0.0543598
-0.117034
-0.114534
-0.107929
-0.095699
-0.0785493
-0.0581684
-0.0363797
-0.0147815
0.00542845
0.0234987
0.0390619
0.0519954
0.0625119
0.0718358
0.0796452
-0.0564305
-0.0580533
-0.0537751
-0.0435058
-0.0283335
-0.0100348
0.00949423
0.028649
0.0462767
0.0616838
0.074554
0.0848107
0.0926539
0.0991163
0.104114
0.00645065
0.000810357
0.00258017
0.0107008
0.023657
0.0395961
0.0565855
0.0730412
0.087869
0.100435
0.110466
0.117923
0.122881
0.125748
0.126796
0.0710581
0.0613739
0.060541
0.0663539
0.0768783
0.0902149
0.104428
0.117981
0.129854
0.139483
0.146654
0.151388
0.153521
0.15237
0.148615
0.136696
0.122965
0.11947
0.122842
0.13075
0.14128
0.152527
0.163022
0.171838
0.178503
0.182904
0.18519
0.185017
0.180823
0.178139
0.202613
0.184882
0.178694
0.17952
0.184664
0.192228
0.200361
0.207683
0.213371
0.21705
0.218707
0.21857
0.216391
0.211302
0.209646
0.268032
0.246397
0.237514
0.235725
0.237999
0.242483
0.247402
0.251477
0.253991
0.254664
0.253552
0.250909
0.246572
0.240188
0.237555
0.332171
0.306767
0.29522
0.290784
0.290131
0.291473
0.29313
0.293931
0.293265
0.290937
0.287057
0.281888
0.275339
0.267321
0.262855
0.394249
0.36525
0.351103
0.344031
0.340442
0.338635
0.337037
0.33459
0.330784
0.3255
0.318889
0.311221
0.302461
0.292667
0.286107
0.453501
0.421116
0.404468
0.394815
0.388335
0.383429
0.378642
0.373026
0.366169
0.358019
0.348759
0.338661
0.327735
0.316131
0.307422
0.509191
0.473663
0.454646
0.44251
0.433239
0.425343
0.417489
0.40884
0.399072
0.388193
0.376412
0.363998
0.351002
0.337629
0.326815
0.560623
0.522224
0.501004
0.486528
0.474617
0.463898
0.453156
0.441661
0.429172
0.415747
0.401614
0.387043
0.372118
0.357074
0.34426
0.607151
0.566179
0.542953
0.526322
0.511975
0.498654
0.485258
0.471155
0.456178
0.440432
0.424159
0.407624
0.390945
0.374367
0.359708
0.648188
0.604965
0.579959
0.5614
0.544867
0.529214
0.513446
0.49702
0.479832
0.462026
0.443855
0.425583
0.407354
0.389412
0.373101
0.683213
0.638083
0.61155
0.591324
0.5729
0.555232
0.537418
0.518991
0.499906
0.480333
0.460538
0.44078
0.421227
0.402115
0.384376
0.711783
0.665105
0.637322
0.615723
0.59574
0.57641
0.556913
0.536845
0.516204
0.495187
0.474063
0.453092
0.43246
0.41239
0.393477
0.733535
0.685684
0.656946
0.634293
0.613112
0.592508
0.571722
0.550398
0.528569
0.506449
0.484312
0.462417
0.440966
0.420164
0.400351
0.748193
0.699553
0.67017
0.646803
0.62481
0.603344
0.581685
0.559512
0.53688
0.514016
0.491197
0.468679
0.446675
0.42538
0.404957
0.755568
0.706533
0.676825
0.653097
0.630695
0.608792
0.586693
0.564092
0.541056
0.517818
0.494654
0.471823
0.449541
0.427998
0.407268
0.755568
0.706533
0.676825
0.653097
0.630695
0.608792
0.586693
0.564092
0.541056
0.517818
0.494654
0.471823
0.449541
0.427998
0.407268
0.748193
0.699553
0.67017
0.646803
0.62481
0.603344
0.581685
0.559512
0.53688
0.514016
0.491197
0.468679
0.446675
0.42538
0.404957
0.733535
0.685684
0.656946
0.634293
0.613112
0.592508
0.571722
0.550398
0.528569
0.506449
0.484312
0.462417
0.440966
0.420164
0.400351
0.711783
0.665105
0.637322
0.615723
0.59574
0.57641
0.556913
0.536845
0.516204
0.495187
0.474063
0.453092
0.43246
0.41239
0.393477
0.683213
0.638083
0.61155
0.591324
0.5729
0.555232
0.537418
0.518991
0.499906
0.480333
0.460538
0.44078
0.421227
0.402115
0.384376
0.648188
0.604965
0.579959
0.5614
0.544867
0.529214
0.513446
0.49702
0.479832
0.462026
0.443855
0.425583
0.407354
0.389412
0.373101
0.607151
0.566179
0.542953
0.526322
0.511975
0.498654
0.485258
0.471155
0.456178
0.440432
0.424159
0.407624
0.390945
0.374367
0.359708
0.560623
0.522224
0.501004
0.486528
0.474617
0.463898
0.453156
0.441661
0.429172
0.415747
0.401614
0.387043
0.372118
0.357074
0.34426
0.509191
0.473663
0.454646
0.44251
0.433239
0.425343
0.417489
0.40884
0.399072
0.388193
0.376412
0.363998
0.351002
0.337629
0.326815
0.453501
0.421116
0.404468
0.394815
0.388335
0.383429
0.378642
0.373026
0.366169
0.358019
0.348759
0.338661
0.327735
0.316131
0.307422
0.394249
0.36525
0.351103
0.344031
0.340442
0.338635
0.337037
0.33459
0.330784
0.3255
0.318889
0.311221
0.302461
0.292667
0.286107
0.332171
0.306767
0.29522
0.290784
0.290131
0.291473
0.29313
0.293931
0.293265
0.290937
0.287057
0.281888
0.275339
0.267321
0.262855
0.268032
0.246397
0.237514
0.235725
0.237999
0.242483
0.247402
0.251477
0.253991
0.254664
0.253552
0.250909
0.246572
0.240188
0.237555
0.202613
0.184882
0.178694
0.17952
0.184664
0.192228
0.200361
0.207683
0.213371
0.21705
0.218707
0.21857
0.216391
0.211302
0.209646
0.136696
0.122965
0.11947
0.122842
0.13075
0.14128
0.152527
0.163022
0.171838
0.178503
0.182904
0.18519
0.185017
0.180823
0.178139
0.0710581
0.0613739
0.060541
0.0663539
0.0768783
0.0902149
0.104428
0.117981
0.129854
0.139483
0.146654
0.151388
0.153521
0.15237
0.148615
0.00645065
0.000810358
0.00258018
0.0107008
0.023657
0.0395961
0.0565855
0.0730412
0.087869
0.100435
0.110466
0.117923
0.122881
0.125748
0.126796
-0.0564305
-0.0580533
-0.0537751
-0.0435058
-0.0283335
-0.0100348
0.00949423
0.028649
0.0462767
0.0616838
0.074554
0.0848107
0.0926539
0.0991163
0.104114
-0.117034
-0.114534
-0.107929
-0.095699
-0.0785493
-0.0581684
-0.0363797
-0.0147815
0.00542845
0.0234987
0.0390619
0.0519954
0.0625119
0.0718358
0.0796452
-0.174526
-0.168242
-0.159352
-0.14537
-0.126496
-0.104334
-0.0806015
-0.0568615
-0.0343404
-0.0138449
0.00419876
0.0196157
0.0325868
0.0443261
0.0543598
-0.228514
-0.218598
-0.20758
-0.192025
-0.171739
-0.148126
-0.122774
-0.0972261
-0.072706
-0.0500654
-0.0297911
-0.0121142
0.00309426
0.0169643
0.028922
-0.278567
-0.265201
-0.252227
-0.235316
-0.213876
-0.189132
-0.162543
-0.135547
-0.109363
-0.084889
-0.0626631
-0.0429746
-0.0257645
-0.010008
0.003733
-0.324319
-0.307737
-0.292985
-0.274927
-0.252603
-0.227055
-0.199582
-0.171511
-0.144032
-0.118058
-0.0941808
-0.0727465
-0.0537853
-0.0363882
-0.0208862
-0.365502
-0.345972
-0.329626
-0.310623
-0.287673
-0.261636
-0.233632
-0.20486
-0.176456
-0.149333
-0.124122
-0.101221
-0.0807665
-0.0620033
-0.0446704
-0.401937
-0.379758
-0.362007
-0.342252
-0.318915
-0.292683
-0.264485
-0.235377
-0.206417
-0.1785
-0.152285
-0.128214
-0.106498
-0.0865395
-0.0677167
-0.433536
-0.409033
-0.390069
-0.369741
-0.346233
-0.32007
-0.291992
-0.262894
-0.233736
-0.205379
-0.178492
-0.153556
-0.130827
-0.109925
-0.0910517
-0.460299
-0.433813
-0.413832
-0.393096
-0.369608
-0.343746
-0.316064
-0.287293
-0.258277
-0.22982
-0.202583
-0.177075
-0.153584
-0.131863
-0.112465
-0.482303
-0.454193
-0.43339
-0.412399
-0.389093
-0.363726
-0.336679
-0.308515
-0.279953
-0.251715
-0.224438
-0.198635
-0.174623
-0.152236
-0.132112
-0.499701
-0.470332
-0.448903
-0.427795
-0.404807
-0.380093
-0.353876
-0.32656
-0.298726
-0.271005
-0.243983
-0.218164
-0.193885
-0.171058
-0.150297
-0.512713
-0.482453
-0.460592
-0.439494
-0.416934
-0.392992
-0.367757
-0.341483
-0.314613
-0.287675
-0.261189
-0.235628
-0.211342
-0.188316
-0.167087
-0.521611
-0.490823
-0.468721
-0.44775
-0.425707
-0.402622
-0.378478
-0.353393
-0.32768
-0.301755
-0.27606
-0.251022
-0.226985
-0.203999
-0.182493
-0.526714
-0.495751
-0.473596
-0.452859
-0.431402
-0.409231
-0.386245
-0.36245
-0.338039
-0.313317
-0.288638
-0.264368
-0.24083
-0.218124
-0.196559
-0.528376
-0.497573
-0.475545
-0.455144
-0.434329
-0.413101
-0.391305
-0.368856
-0.345845
-0.322472
-0.298999
-0.27572
-0.252918
-0.230739
-0.20936
-0.526968
-0.496639
-0.474912
-0.454944
-0.434816
-0.414542
-0.393935
-0.37285
-0.35129
-0.329364
-0.307247
-0.285153
-0.263314
-0.241912
-0.220998
-0.522878
-0.493309
-0.472047
-0.452602
-0.433199
-0.413875
-0.394436
-0.374696
-0.354596
-0.33417
-0.313513
-0.292765
-0.272096
-0.251725
-0.2316
-0.516488
-0.487936
-0.467292
-0.448459
-0.429815
-0.41143
-0.393117
-0.374676
-0.356006
-0.337086
-0.317952
-0.298672
-0.279353
-0.260267
-0.241311
-0.508174
-0.480862
-0.460977
-0.44284
-0.424987
-0.407525
-0.390289
-0.373079
-0.355777
-0.338328
-0.320728
-0.302993
-0.285174
-0.26762
-0.250274
-0.498294
-0.472411
-0.453411
-0.436048
-0.41902
-0.402466
-0.386251
-0.370192
-0.35417
-0.338118
-0.322016
-0.305854
-0.289639
-0.273848
-0.258619
-0.487181
-0.462881
-0.444876
-0.428364
-0.412193
-0.396535
-0.381286
-0.366291
-0.351442
-0.336681
-0.321994
-0.307373
-0.292809
-0.278973
-0.266431
-0.475136
-0.452543
-0.435628
-0.420034
-0.404754
-0.389983
-0.375652
-0.361633
-0.34784
-0.334236
-0.320834
-0.307658
-0.294712
-0.282953
-0.27371
-0.462431
-0.441636
-0.425889
-0.411273
-0.396918
-0.383032
-0.369576
-0.35645
-0.343594
-0.330995
-0.318706
-0.306805
-0.295336
-0.285649
-0.280304
-0.449304
-0.430369
-0.415852
-0.402265
-0.388864
-0.375864
-0.36325
-0.350947
-0.338913
-0.327158
-0.315777
-0.304904
-0.294632
-0.286791
-0.285809
-0.435959
-0.418923
-0.405678
-0.393161
-0.38074
-0.368631
-0.356834
-0.345293
-0.33398
-0.322914
-0.312213
-0.302055
-0.292548
-0.286015
-0.28951
-0.422576
-0.407449
-0.395505
-0.384084
-0.372663
-0.361448
-0.350451
-0.339628
-0.328952
-0.318434
-0.308185
-0.298385
-0.289108
-0.282982
-0.290201
-0.409303
-0.396078
-0.385444
-0.375134
-0.364724
-0.354405
-0.344197
-0.334059
-0.323957
-0.313871
-0.303845
-0.293995
-0.284239
-0.276258
-0.281741
-0.396271
-0.38492
-0.375589
-0.366392
-0.356993
-0.347569
-0.338143
-0.328676
-0.31912
-0.309409
-0.299468
-0.289279
-0.278255
-0.262762
-0.24395
-0.383593
-0.37407
-0.36602
-0.357922
-0.349525
-0.340991
-0.332344
-0.323552
-0.314568
-0.305308
-0.295662
-0.285623
-0.274927
-0.260069
-0.240948
-0.371367
-0.363608
-0.356804
-0.34978
-0.342365
-0.334706
-0.326833
-0.318727
-0.310349
-0.301633
-0.292494
-0.282998
-0.273167
-0.26035
-0.244944
-0.35968
-0.35361
-0.348002
-0.342014
-0.335549
-0.328742
-0.321629
-0.314206
-0.306452
-0.298323
-0.289771
-0.280909
-0.271837
-0.260406
-0.247532
-0.348613
-0.344142
-0.339669
-0.334664
-0.329108
-0.323119
-0.316742
-0.309989
-0.302856
-0.295325
-0.287382
-0.279168
-0.270802
-0.260514
-0.249625
-0.338241
-0.335268
-0.331859
-0.327779
-0.323077
-0.31786
-0.312183
-0.306074
-0.299547
-0.292606
-0.285269
-0.277692
-0.270004
-0.260767
-0.251438
-0.328635
-0.327048
-0.324624
-0.3214
-0.317488
-0.312989
-0.307967
-0.302465
-0.296514
-0.29014
-0.283383
-0.276407
-0.269339
-0.261033
-0.252913
-0.319861
-0.319549
-0.318015
-0.315568
-0.312377
-0.308534
-0.304112
-0.29917
-0.293755
-0.287908
-0.281689
-0.27526
-0.268738
-0.261237
-0.254028
-0.311993
-0.312817
-0.312086
-0.310333
-0.307784
-0.304526
-0.300643
-0.296205
-0.291274
-0.285905
-0.28017
-0.274223
-0.268173
-0.261358
-0.25483
-0.305096
-0.306917
-0.306887
-0.305737
-0.303747
-0.301
-0.297587
-0.293591
-0.289084
-0.284134
-0.278822
-0.273288
-0.267637
-0.261399
-0.255364
-0.299232
-0.301903
-0.302465
-0.301826
-0.300308
-0.297991
-0.294975
-0.291353
-0.287205
-0.282611
-0.277652
-0.27246
-0.267138
-0.261378
-0.255664
-0.29446
-0.297825
-0.298867
-0.298639
-0.297502
-0.295534
-0.292839
-0.289518
-0.285661
-0.281352
-0.276679
-0.271757
-0.2667
-0.261323
-0.255739
-0.290833
-0.294724
-0.296131
-0.296215
-0.295365
-0.293659
-0.291206
-0.288114
-0.284477
-0.280384
-0.275925
-0.271207
-0.266338
-0.261218
-0.255714
-0.28839
-0.292637
-0.294289
-0.294581
-0.293924
-0.292394
-0.290103
-0.287163
-0.283673
-0.279725
-0.275409
-0.270828
-0.266069
-0.261116
-0.256147
-0.287161
-0.291587
-0.293362
-0.293759
-0.293199
-0.291757
-0.289547
-0.286684
-0.283267
-0.279391
-0.275148
-0.270635
-0.265933
-0.261067
-0.256277
-0.250888
-0.240098
-0.230769
-0.220514
-0.210124
-0.199652
-0.1892
-0.178881
-0.16879
-0.159001
-0.149573
-0.140546
-0.131945
-0.123783
-0.116062
-0.108778
-0.101918
-0.095469
-0.0894123
-0.0837292
-0.0783996
-0.0734035
-0.0687211
-0.0643331
-0.0602209
-0.056367
-0.0527545
-0.0493677
-0.0461918
-0.0432129
-0.040418
-0.037795
-0.0353326
-0.0330204
-0.0308484
-0.0288076
-0.0268894
-0.0250861
-0.0233902
-0.021795
-0.020294
-0.0188814
-0.0175516
-0.0162995
-0.0151204
-0.0140098
-0.0129635
-0.0119777
-0.0110489
-0.0101736
-0.00934876
-0.00857144
-0.00783892
-0.00714869
-0.00649836
-0.00588574
-0.00530875
-0.00476549
-0.00425415
-0.00377306
-0.00332063
-0.00289541
-0.00249601
-0.00212114
-0.00176959
-0.0014402
-0.00113187
-0.000843571
-0.000574287
-0.000323029
-8.88148e-05
0.00012938
0.000332534
0.000522185
0.000697929
0.000869175
0.00100234
0.00125989
0.000936232
0.00303819
-0.251685
-0.24035
-0.231171
-0.220846
-0.210429
-0.19994
-0.189467
-0.179131
-0.169023
-0.159221
-0.14978
-0.14074
-0.132128
-0.123956
-0.116225
-0.108931
-0.102063
-0.0956049
-0.0895404
-0.0838497
-0.0785129
-0.0735101
-0.0688212
-0.0644272
-0.0603093
-0.05645
-0.0528324
-0.0494409
-0.0462605
-0.0432774
-0.0404786
-0.0378519
-0.0353861
-0.0330706
-0.0308955
-0.0288519
-0.0269311
-0.0251253
-0.0234271
-0.0218297
-0.0203266
-0.0189121
-0.0175805
-0.0163268
-0.0151461
-0.0140339
-0.0129863
-0.0119992
-0.0110692
-0.0101927
-0.00936682
-0.00858848
-0.00785502
-0.00716389
-0.00651272
-0.0058993
-0.00532157
-0.00477761
-0.00426561
-0.00378389
-0.00333088
-0.0029051
-0.00250519
-0.00212983
-0.00177782
-0.001448
-0.00113928
-0.000850619
-0.000581003
-0.000329448
-9.49771e-05
0.000123429
0.000326739
0.000516479
0.000692209
0.000863359
0.000996182
0.00125309
0.000930463
0.00301907
-0.253986
-0.240576
-0.231937
-0.22151
-0.211032
-0.200502
-0.189992
-0.179621
-0.169483
-0.159653
-0.150187
-0.141124
-0.13249
-0.124297
-0.116548
-0.109235
-0.10235
-0.0958757
-0.0897954
-0.0840898
-0.0787389
-0.0737226
-0.0690211
-0.0646149
-0.0604857
-0.0566157
-0.052988
-0.049587
-0.0463977
-0.0434062
-0.0405995
-0.0379655
-0.0354928
-0.0331708
-0.0309897
-0.0289404
-0.0270143
-0.0252036
-0.0235007
-0.0218989
-0.0203918
-0.0189734
-0.0176383
-0.0163812
-0.0151973
-0.0140823
-0.0130318
-0.0120422
-0.0111097
-0.0102309
-0.00940287
-0.00862251
-0.00788715
-0.00719423
-0.00654138
-0.00592638
-0.00534716
-0.00480179
-0.00428847
-0.00380551
-0.00335133
-0.00292445
-0.0025235
-0.00214718
-0.00179426
-0.00146359
-0.00115408
-0.000864691
-0.000594413
-0.000342267
-0.000107282
0.000111549
0.000315171
0.000505093
0.000680799
0.000851761
0.00098391
0.00123953
0.000919013
0.00298116
-0.25578
-0.24188
-0.23289
-0.222479
-0.211907
-0.201316
-0.190753
-0.180335
-0.170155
-0.160286
-0.150784
-0.141689
-0.133025
-0.124803
-0.117026
-0.109688
-0.102777
-0.0962788
-0.0901756
-0.0844481
-0.0790762
-0.0740401
-0.0693196
-0.0648956
-0.0607495
-0.0568634
-0.0532208
-0.0498056
-0.046603
-0.043599
-0.0407806
-0.0381355
-0.0356525
-0.0333208
-0.0311307
-0.0290729
-0.0271389
-0.0253207
-0.0236109
-0.0220025
-0.0204893
-0.0190652
-0.0177247
-0.0164626
-0.015274
-0.0141545
-0.0130999
-0.0121064
-0.0111702
-0.0102881
-0.00945679
-0.00867341
-0.0079352
-0.0072396
-0.00658423
-0.00596687
-0.00538542
-0.00483796
-0.00432266
-0.00383784
-0.00338191
-0.00295339
-0.00255089
-0.00217312
-0.00181884
-0.0014869
-0.00117622
-0.000885742
-0.000614475
-0.000361443
-0.000125689
9.37779e-05
0.000297871
0.000488072
0.000663757
0.000834449
0.000965636
0.00121935
0.000902056
0.00292515
-0.258614
-0.243226
-0.234148
-0.22371
-0.213017
-0.202349
-0.191722
-0.181247
-0.171016
-0.161102
-0.151558
-0.142424
-0.133723
-0.125465
-0.117654
-0.110283
-0.10334
-0.0968109
-0.090678
-0.084922
-0.0795229
-0.0744607
-0.0697155
-0.0652679
-0.0610995
-0.0571924
-0.0535298
-0.0500959
-0.0468756
-0.0438551
-0.0410211
-0.0383615
-0.0358647
-0.0335202
-0.0313181
-0.029249
-0.0273044
-0.0254763
-0.0237572
-0.0221402
-0.0206189
-0.0191872
-0.0178395
-0.0165707
-0.0153758
-0.0142505
-0.0131904
-0.0121917
-0.0112507
-0.010364
-0.00952838
-0.00874098
-0.00799899
-0.00729984
-0.00664113
-0.00602062
-0.00543622
-0.00488597
-0.00436805
-0.00388076
-0.00342251
-0.00299181
-0.00258726
-0.00220756
-0.00185148
-0.00151786
-0.00120562
-0.000913702
-0.000641124
-0.000386916
-0.000150138
7.01779e-05
0.000274905
0.00046549
0.000641169
0.000811527
0.000941519
0.00119269
0.000879853
0.00285198
-0.26205
-0.244824
-0.235644
-0.225151
-0.214316
-0.20356
-0.192863
-0.182326
-0.172041
-0.162079
-0.152491
-0.143314
-0.134571
-0.126274
-0.118423
-0.111013
-0.104033
-0.0974676
-0.0912991
-0.0855086
-0.0800764
-0.0749824
-0.0702068
-0.0657303
-0.0615344
-0.0576013
-0.0539141
-0.0504569
-0.0472148
-0.0441737
-0.0413204
-0.0386426
-0.0361288
-0.0337683
-0.0315512
-0.0294681
-0.0275103
-0.0256699
-0.0239393
-0.0223115
-0.02078
-0.0193388
-0.0179823
-0.0167051
-0.0155025
-0.0143698
-0.0133029
-0.0122977
-0.0113507
-0.0104583
-0.00961738
-0.00882497
-0.00807828
-0.00737471
-0.00671184
-0.00608742
-0.00549934
-0.00494563
-0.00442446
-0.00393411
-0.00347298
-0.00303956
-0.00263247
-0.00225038
-0.00189206
-0.00155636
-0.00124218
-0.00094848
-0.000674272
-0.000418603
-0.000180549
4.08292e-05
0.000246358
0.000437439
0.000613152
0.000783129
0.00091177
0.00115976
0.00085275
0.00276288
-0.265957
-0.246641
-0.237303
-0.226747
-0.215753
-0.204901
-0.194134
-0.183537
-0.173201
-0.163193
-0.153561
-0.144342
-0.135557
-0.127218
-0.119325
-0.111873
-0.104851
-0.0982435
-0.0920343
-0.0862042
-0.0807335
-0.0756024
-0.0707912
-0.0662807
-0.0620523
-0.0580884
-0.0543721
-0.0508874
-0.0476193
-0.0445537
-0.0416774
-0.0389779
-0.0364438
-0.0340643
-0.0318293
-0.0297294
-0.027756
-0.0259009
-0.0241565
-0.0225158
-0.0209722
-0.0195197
-0.0181525
-0.0168654
-0.0156535
-0.0145121
-0.0134369
-0.0124241
-0.0114698
-0.0105707
-0.00972342
-0.00892505
-0.00817275
-0.00746391
-0.0067961
-0.00616702
-0.00557456
-0.00501673
-0.00449168
-0.00399768
-0.00353312
-0.00309648
-0.00268636
-0.00230143
-0.00194045
-0.00160227
-0.00128578
-0.000989958
-0.00071381
-0.000456399
-0.000216821
5.83315e-06
0.000212336
0.000404039
0.000579847
0.000749418
0.000876647
0.00112083
0.000821176
0.00265925
-0.270282
-0.248633
-0.239052
-0.228431
-0.217271
-0.206321
-0.19549
-0.184842
-0.174464
-0.164417
-0.154747
-0.14549
-0.136666
-0.128284
-0.120348
-0.112852
-0.105785
-0.0991326
-0.0928785
-0.0870042
-0.0814904
-0.0763173
-0.0714657
-0.0669164
-0.0626511
-0.0586519
-0.054902
-0.0513856
-0.0480876
-0.0449937
-0.0420908
-0.0393663
-0.0368087
-0.0344071
-0.0321514
-0.0300322
-0.0280405
-0.0261684
-0.024408
-0.0227523
-0.0211948
-0.0197291
-0.0183496
-0.017051
-0.0158282
-0.0146767
-0.0135921
-0.0125703
-0.0116077
-0.0107007
-0.0098461
-0.00904082
-0.00828203
-0.0075671
-0.00689355
-0.00625908
-0.00566156
-0.00509896
-0.00456943
-0.00407122
-0.0036027
-0.00316233
-0.00274872
-0.00236051
-0.00199647
-0.00165542
-0.00133628
-0.001038
-0.000759608
-0.000500181
-0.000258834
-3.46903e-05
0.000172966
0.000365426
0.000541423
0.000710586
0.000836458
0.00107615
0.000785647
0.00254258
-0.274974
-0.250778
-0.240815
-0.23013
-0.218806
-0.207766
-0.196886
-0.186203
-0.175797
-0.165725
-0.156028
-0.14674
-0.137881
-0.129462
-0.121484
-0.113942
-0.106829
-0.100129
-0.0938266
-0.0879043
-0.0823432
-0.077124
-0.0722276
-0.0676351
-0.0633283
-0.0592895
-0.0555021
-0.05195
-0.0486181
-0.0454924
-0.0425594
-0.0398066
-0.0372224
-0.0347958
-0.0325167
-0.0303754
-0.0283631
-0.0264716
-0.0246931
-0.0230204
-0.0214469
-0.0199664
-0.0185729
-0.0172612
-0.0160262
-0.0148632
-0.0137678
-0.0127359
-0.0117638
-0.0108479
-0.00998498
-0.00917186
-0.00840572
-0.00768388
-0.00700384
-0.00636328
-0.00576002
-0.00519204
-0.00465744
-0.00415447
-0.00368147
-0.0032369
-0.00281933
-0.00242742
-0.00205992
-0.00171564
-0.00139349
-0.00109244
-0.00081152
-0.000549809
-0.000306452
-8.06048e-05
0.00012839
0.000321759
0.000498074
0.000666847
0.000791556
0.001026
0.000746786
0.00241437
-0.279688
-0.253033
-0.242514
-0.231768
-0.220298
-0.209184
-0.19828
-0.187586
-0.177174
-0.167094
-0.157385
-0.148077
-0.139192
-0.130739
-0.122721
-0.115137
-0.107976
-0.101227
-0.094874
-0.0889006
-0.0832886
-0.0780193
-0.0730741
-0.0684343
-0.0640819
-0.0599996
-0.0561705
-0.0525788
-0.0492095
-0.0460483
-0.0430819
-0.0402976
-0.0376837
-0.0352292
-0.0329239
-0.030758
-0.0287227
-0.0268096
-0.0250108
-0.0233192
-0.0217279
-0.0202307
-0.0188217
-0.0174953
-0.0162466
-0.0150708
-0.0139633
-0.0129202
-0.0119375
-0.0110117
-0.0101395
-0.00931764
-0.00854331
-0.00781378
-0.00712652
-0.00647918
-0.00586954
-0.00529557
-0.00475535
-0.00424708
-0.00376911
-0.00331987
-0.00289792
-0.00250191
-0.00213056
-0.0017827
-0.00145723
-0.0011531
-0.000869366
-0.000605114
-0.000359512
-0.000131749
7.87771e-05
0.000273217
0.000450016
0.000618437
0.000742342
0.000970661
0.000705374
0.00227593
-0.284215
-0.255365
-0.244074
-0.233266
-0.221682
-0.210524
-0.199627
-0.188953
-0.178561
-0.168496
-0.158793
-0.14948
-0.140578
-0.132099
-0.124047
-0.116421
-0.109214
-0.102415
-0.09601
-0.0899832
-0.0843175
-0.078995
-0.0739974
-0.0693067
-0.0649052
-0.0607756
-0.0569013
-0.0532666
-0.0498565
-0.0466566
-0.0436536
-0.0408348
-0.0381885
-0.0357035
-0.0333695
-0.0311767
-0.0291162
-0.0271793
-0.0253584
-0.023646
-0.0220352
-0.0205198
-0.0190936
-0.0177513
-0.0164876
-0.0152977
-0.0141771
-0.0131216
-0.0121274
-0.0111908
-0.0103083
-0.00947697
-0.00869369
-0.00795577
-0.00726063
-0.00660589
-0.00598931
-0.00540881
-0.00486245
-0.00434842
-0.00386504
-0.00341072
-0.002984
-0.00258352
-0.002208
-0.00185624
-0.00152714
-0.00121967
-0.000932865
-0.000665839
-0.000417776
-0.000187897
2.43472e-05
0.000220027
0.000397508
0.000565626
0.000689272
0.000910383
0.000662299
0.00212834
-0.287885
-0.257583
-0.245372
-0.234498
-0.222852
-0.211699
-0.200855
-0.190242
-0.179905
-0.169882
-0.160207
-0.150906
-0.142001
-0.133506
-0.125427
-0.117765
-0.110515
-0.103667
-0.0972106
-0.09113
-0.0854095
-0.080032
-0.0749802
-0.0702364
-0.0657833
-0.061604
-0.0576821
-0.054002
-0.0505485
-0.0473076
-0.0442657
-0.0414103
-0.0387294
-0.0362119
-0.0338472
-0.0316257
-0.0295381
-0.027576
-0.0257313
-0.0239967
-0.0223651
-0.0208301
-0.0193856
-0.0180262
-0.0167464
-0.0155414
-0.0144067
-0.0133381
-0.0123315
-0.0113832
-0.0104899
-0.00964836
-0.00885551
-0.00810861
-0.00740504
-0.00674238
-0.00611836
-0.00553088
-0.00497796
-0.00445777
-0.0039686
-0.00350885
-0.00307704
-0.00267178
-0.00229178
-0.00193585
-0.00160287
-0.00129182
-0.00100172
-0.000731714
-0.000480992
-0.000248811
-3.46633e-05
0.000162429
0.000340827
0.000508703
0.000632853
0.000845353
0.000618044
0.00197276
-0.291332
-0.259791
-0.246339
-0.235418
-0.223816
-0.212744
-0.202013
-0.191509
-0.181262
-0.17131
-0.161683
-0.152411
-0.143515
-0.135012
-0.126912
-0.119216
-0.111924
-0.105028
-0.0985184
-0.0923816
-0.0866032
-0.0811674
-0.0760575
-0.0712565
-0.0667478
-0.0625146
-0.0585409
-0.0548111
-0.0513103
-0.0480244
-0.04494
-0.0420442
-0.0393253
-0.0367719
-0.0343735
-0.0321203
-0.030003
-0.0280129
-0.026142
-0.0243827
-0.022728
-0.0211714
-0.0197067
-0.0183283
-0.0170307
-0.0158091
-0.0146588
-0.0135756
-0.0125553
-0.0115942
-0.0106889
-0.00983601
-0.00903259
-0.00827577
-0.00756289
-0.0068915
-0.00625929
-0.00566412
-0.00510398
-0.00457701
-0.00408147
-0.00361575
-0.00317833
-0.00276782
-0.00238292
-0.00202241
-0.00168517
-0.00137017
-0.00107645
-0.000803142
-0.000549466
-0.000314703
-9.83752e-05
0.000100396
0.000280054
0.000447838
0.000573592
0.000775486
0.000573157
0.00180949
-0.289635
-0.261215
-0.247426
-0.236487
-0.224971
-0.214012
-0.203423
-0.193053
-0.182918
-0.173052
-0.163486
-0.15425
-0.145367
-0.136855
-0.128729
-0.120994
-0.113651
-0.106695
-0.10012
-0.0939139
-0.0880641
-0.0825561
-0.0773743
-0.0725025
-0.0679247
-0.0636246
-0.0595865
-0.0557951
-0.0522356
-0.0488939
-0.0457565
-0.0428107
-0.0400446
-0.0374467
-0.0350065
-0.032714