/*--------------------------------*- C++ -*----------------------------------*\
  =========                 |
  \\      /  F ield         | OpenFOAM: The Open Source CFD Toolbox
   \\    /   O peration     | Website:  https://openfoam.org
    \\  /    A nd           | Version:  7
     \\/     M anipulation  |
\*---------------------------------------------------------------------------*/
FoamFile
{
    version     2.0;
    format      ascii;
    class       surfaceScalarField;
    location    "35";
    object      phi;
}
// * * * * * * * * * * * * * * * * * * * * * * * * * * * * * * * * * * * * * //

dimensions      [0 3 -1 0 0 0 0];

internalField   nonuniform List<scalar> 
24025
(
-4.35958e-06
4.35958e-06
5.26589e-13
-1.47168e-05
1.03572e-05
1.27615e-12
-2.92148e-05
1.4498e-05
1.98253e-12
-4.62185e-05
1.70037e-05
2.49089e-12
-6.42671e-05
1.80486e-05
2.85096e-12
-8.20624e-05
1.77953e-05
3.05603e-12
-9.84632e-05
1.64007e-05
3.20456e-12
-0.000112494
1.40312e-05
3.24029e-12
-0.000123378
1.08832e-05
3.16728e-12
-0.000130584
7.20636e-06
3.05232e-12
-0.000133913
3.32947e-06
2.90786e-12
-0.000133597
-3.16575e-07
2.70933e-12
-0.00013039
-3.20701e-06
2.50241e-12
-0.000125593
-4.79646e-06
2.29513e-12
-4.20099e-06
2.09145e-12
-0.000121392
-4.21968e-06
8.57926e-06
-1.41835e-05
2.0321e-05
-2.80351e-05
2.83497e-05
-4.41334e-05
3.3102e-05
-6.1005e-05
3.49202e-05
-7.73321e-05
3.41224e-05
-9.19456e-05
3.10143e-05
-0.000103833
2.59188e-05
-0.000112168
1.92176e-05
-0.000116359
1.13979e-05
-0.000116137
3.107e-06
-0.000111656
-4.79718e-06
-0.000103616
-1.12471e-05
-9.33273e-05
-1.50852e-05
-1.49324e-05
-8.25959e-05
-3.94257e-06
1.25218e-05
-1.31257e-05
2.95041e-05
-2.56938e-05
4.09178e-05
-3.99932e-05
4.74013e-05
-5.45257e-05
4.94527e-05
-6.79351e-05
4.75318e-05
-7.89982e-05
4.20774e-05
-8.66294e-05
3.35499e-05
-8.99055e-05
2.24937e-05
-8.81169e-05
9.60925e-06
-8.08503e-05
-4.15957e-06
-6.81029e-05
-1.75446e-05
-5.04046e-05
-2.89454e-05
-2.90457e-05
-3.6444e-05
-3.69505e-05
-7.02765e-06
-3.53331e-06
1.60551e-05
-1.15604e-05
3.75312e-05
-2.22252e-05
5.15825e-05
-3.38548e-05
5.9031e-05
-4.49148e-05
6.05127e-05
-5.3993e-05
5.66101e-05
-5.9788e-05
4.78724e-05
-6.11089e-05
3.48708e-05
-5.68945e-05
1.82793e-05
-4.62587e-05
-1.02649e-06
-2.85767e-05
-2.18416e-05
-3.61303e-06
-4.25083e-05
2.83312e-05
-6.08896e-05
6.61712e-05
-7.42841e-05
-7.83642e-05
0.000107585
-2.99885e-06
1.9054e-05
-9.51089e-06
4.40433e-05
-1.76766e-05
5.97482e-05
-2.57972e-05
6.71516e-05
-3.22906e-05
6.70061e-05
-3.56737e-05
5.99932e-05
-3.45465e-05
4.67452e-05
-2.75858e-05
2.791e-05
-1.35569e-05
4.25041e-06
8.64726e-06
-2.32306e-05
3.99284e-05
-5.31227e-05
8.08409e-05
-8.34208e-05
0.000131367
-0.000111416
0.000190636
-0.000133553
-0.000144137
0.00025641
-2.34728e-06
2.14013e-05
-7.00459e-06
4.87006e-05
-1.21043e-05
6.4848e-05
-1.59143e-05
7.09615e-05
-1.67946e-05
6.78865e-05
-1.31776e-05
5.63761e-05
-3.54888e-06
3.71165e-05
1.35652e-05
1.07959e-05
3.95975e-05
-2.17819e-05
7.59124e-05
-5.95455e-05
0.000123736
-0.000100946
0.000184003
-0.000143688
0.000257098
-0.00018451
0.000342453
-0.000218908
-0.000239402
0.000437718
-1.58717e-06
2.29884e-05
-4.07101e-06
5.11844e-05
-5.56897e-06
6.63459e-05
-4.3078e-06
6.97004e-05
1.42054e-06
6.21581e-05
1.32771e-05
4.45195e-05
3.29036e-05
1.74901e-05
6.19371e-05
-1.82375e-05
0.00010202
-6.18646e-05
0.000154789
-0.000112314
0.000221821
-0.000167979
0.000304492
-0.000226359
0.00040367
-0.000283689
0.000519197
-0.000334435
-0.000368911
0.000648705
-7.27401e-07
2.37158e-05
-7.3674e-07
5.11938e-05
1.86798e-06
6.37412e-05
8.91638e-06
6.2652e-05
2.21934e-05
4.88811e-05
4.34656e-05
2.32473e-05
7.45054e-05
-1.35497e-05
0.000117116
-6.08481e-05
0.000173148
-0.000117897
0.000244506
-0.000183673
0.000333121
-0.000256593
0.00044083
-0.000334068
0.000569072
-0.000411931
0.000718248
-0.000483611
-0.000536822
0.00088616
2.27329e-07
2.34885e-05
2.96047e-06
4.84606e-05
1.01424e-05
5.65593e-05
2.36545e-05
4.91399e-05
4.5368e-05
2.71676e-05
7.71621e-05
-8.54677e-06
0.000120947
-5.73342e-05
0.000178687
-0.000118588
0.000252427
-0.000191637
0.000344308
-0.000275554
0.000456577
-0.000368862
0.000591513
-0.000469004
0.000751168
-0.000571587
0.00093668
-0.000669122
-0.000746513
0.00114637
1.26441e-06
2.22241e-05
7.00538e-06
4.27197e-05
1.91998e-05
4.43648e-05
3.98029e-05
2.85368e-05
7.07808e-05
-3.81041e-06
0.000114132
-5.18983e-05
0.000171907
-0.000115109
0.000246223
-0.000192905
0.000339292
-0.000284706
0.000453443
-0.000389705
0.000591152
-0.000506571
0.000755049
-0.0006329
0.000947755
-0.000764293
0.00117128
-0.000892645
-0.00100012
0.00142489
2.38277e-06
1.98413e-05
1.13672e-05
3.37352e-05
2.89788e-05
2.67533e-05
5.72525e-05
2.63067e-07
9.82566e-05
-4.48145e-05
0.000154119
-0.00010776
0.000227028
-0.000188018
0.000319248
-0.000285125
0.000433126
-0.000398584
0.000571112
-0.00052769
0.000735795
-0.000671254
0.000929976
-0.000827081
0.00115667
-0.000990986
0.00141873
-0.00115471
-0.00129841
0.00171702
3.57512e-06
1.62662e-05
1.60208e-05
2.12896e-05
3.94173e-05
3.35672e-06
7.58793e-05
-3.61989e-05
0.000127593
-9.65285e-05
0.000196813
-0.00017698
0.000285869
-0.000277074
0.000397164
-0.00039642
0.000533155
-0.000534575
0.000696348
-0.000690884
0.000889312
-0.000864218
0.00111477
-0.00105254
0.00137579
-0.00125201
0.00167575
-0.00145466
-0.00164009
0.00201743
4.83547e-06
1.14307e-05
2.09374e-05
5.18763e-06
5.04396e-05
-2.61455e-05
9.55437e-05
-8.1303e-05
0.000158543
-0.000159528
0.000241823
-0.000260259
0.000347852
-0.000383104
0.000479164
-0.000527731
0.000638315
-0.000693726
0.000827831
-0.000880399
0.00105015
-0.00108654
0.00130768
-0.00131007
0.00160296
-0.00154729
0.00193912
-0.00179082
-0.00202335
0.00232238
6.15743e-06
5.27331e-06
2.60846e-05
-1.47395e-05
6.19627e-05
-6.20236e-05
0.000116069
-0.00013541
0.000190796
-0.000234255
0.000288644
-0.000358107
0.000412206
-0.000506666
0.000564135
-0.000679661
0.000747093
-0.000876684
0.000963659
-0.00109696
0.0012162
-0.00133908
0.00150672
-0.00160059
0.00183671
-0.00187727
0.00220697
-0.00216108
-0.00244203
0.00262565
7.53337e-06
-2.26006e-06
3.14249e-05
-3.8631e-05
7.38852e-05
-0.000104484
0.000137246
-0.00019877
0.00022397
-0.000320979
0.000336636
-0.000470773
0.000477919
-0.000647949
0.000650558
-0.0008523
0.000857316
-0.00108344
0.00110093
-0.00134058
0.00138408
-0.00162222
0.00170927
-0.00192579
0.00207815
-0.00224616
0.00248655
-0.00256948
-0.00288669
0.00293122
8.95458e-06
-1.12146e-05
3.69146e-05
-6.65911e-05
8.609e-05
-0.000153659
0.000158829
-0.000271509
0.000257612
-0.000419762
0.000385029
-0.00059819
0.000543745
-0.000806665
0.000736473
-0.00104503
0.000965963
-0.00131293
0.00123506
-0.00160968
0.00154691
-0.00193407
0.00190543
-0.0022843
0.00231713
-0.00265786
0.00280116
-0.00305351
-0.00349397
0.00340844
1.04116e-05
-2.16263e-05
4.25049e-05
-9.86843e-05
9.84462e-05
-0.000209601
0.000180544
-0.000353607
0.000291222
-0.00053044
0.000432973
-0.000739942
0.000608308
-0.000981999
0.000819702
-0.00125642
0.00106958
-0.00156281
0.00136035
-0.00190046
0.00169461
-0.00226832
0.00207545
-0.00266515
0.00250744
-0.00308985
0.00299836
-0.00354443
-0.00404317
0.00354756
1.18936e-05
-3.35198e-05
4.81422e-05
-0.000134933
0.000110812
-0.000272271
0.0002021
-0.000444895
0.000324277
-0.000652616
0.000479609
-0.000895274
0.00067027
-0.00117266
0.000898255
-0.00148441
0.00116531
-0.00182986
0.00147287
-0.00220803
0.00182213
-0.00261758
0.00221397
-0.00305698
0.00264889
-0.00352478
0.00312578
-0.00402132
-0.00454969
0.00363229
1.33882e-05
-4.69081e-05
5.37678e-05
-0.000175313
0.000123037
-0.00034154
0.000223194
-0.000545052
0.000356248
-0.00078567
0.000524096
-0.00106312
0.000728395
-0.00137696
0.000970432
-0.00172644
0.00125099
-0.00211042
0.00157024
-0.00252728
0.00192762
-0.00297496
0.00232163
-0.00345099
0.00274939
-0.00395253
0.00320503
-0.00447696
-0.00501887
0.00367422
1.48815e-05
-6.17896e-05
5.93161e-05
-0.000219747
0.000134955
-0.000417178
0.000243506
-0.000653603
0.000386594
-0.000928759
0.000565608
-0.00124214
0.000781525
-0.00159288
0.00103474
-0.00197966
0.00132491
-0.00240059
0.00165078
-0.00285315
0.00201007
-0.00333425
0.00239924
-0.00384016
0.0028131
-0.00436639
0.00324373
-0.00490759
-0.00545297
0.00367782
1.63566e-05
-7.81462e-05
6.47128e-05
-0.000268103
0.000146387
-0.000498852
0.000262693
-0.000769909
0.000414757
-0.00108082
0.000603323
-0.0014307
0.000828545
-0.0018181
0.0010898
-0.00224092
0.00138553
-0.00269631
0.00171308
-0.0031807
0.00206863
-0.0036898
0.00244708
-0.0042186
0.00284187
-0.00476119
0.00324455
-0.00531026
-0.00585222
0.0036438
1.77932e-05
-9.59394e-05
6.98732e-05
-0.000320183
0.000157133
-0.000586112
0.000280391
-0.000893167
0.000440158
-0.00124059
0.000636409
-0.00162695
0.00086837
-0.00205006
0.00113432
-0.00250687
0.00143148
-0.00299347
0.00175589
-0.00350512
0.00210249
-0.00403639
0.00246507
-0.00458119
0.0028365
-0.00513262
0.00320861
-0.00568237
-0.00621595
0.00357234
1.91674e-05
-0.000115107
7.47018e-05
-0.000375718
0.000166978
-0.000678388
0.000296215
-0.0010224
0.000462199
-0.00140657
0.00066404
-0.00182879
0.000899953
-0.00228597
0.0011671
-0.00277402
0.00146152
-0.00328789
0.00177816
-0.00382176
0.00211097
-0.00436921
0.00245318
-0.0049234
0.00279758
-0.00547702
0.00313683
-0.00602163
-0.00654324
0.00346413
2.04517e-05
-0.000135558
7.90938e-05
-0.00043436
0.000175691
-0.000774985
0.000309764
-0.00115648
0.000480285
-0.0015771
0.000685416
-0.00203393
0.000922326
-0.00252288
0.00118708
-0.00303877
0.00147466
-0.00357547
0.0017791
-0.0041262
0.00209375
-0.00468386
0.00241165
-0.0052413
0.00272599
-0.00579136
0.00303057
-0.0063262
-0.00683337
0.0033207
2.16161e-05
-0.000157175
8.29378e-05
-0.000495682
0.000183033
-0.000875081
0.000320642
-0.00129409
0.000493839
-0.00175029
0.000699798
-0.00223988
0.000934639
-0.00275772
0.00119341
-0.00329754
0.00147018
-0.00385224
0.00175835
-0.00441436
0.00205098
-0.00497648
0.00234129
-0.00553161
0.00262321
-0.00607327
0.00289184
-0.00659484
-0.00708601
0.00314448
2.26285e-05
-0.000179803
8.61197e-05
-0.000559173
0.00018877
-0.000977731
0.000328465
-0.00143378
0.000502334
-0.00192416
0.000706547
-0.0024441
0.00093622
-0.0029874
0.00118549
-0.00354681
0.00144775
-0.0041145
0.00171599
-0.00468261
0.00198332
-0.00524382
0.00224347
-0.00579176
0.00249131
-0.00632111
0.00272335
-0.00682689
-0.00730127
0.00293862
2.34563e-05
-0.000203259
8.85272e-05
-0.000624244
0.000192677
-0.00108188
0.000332886
-0.00157399
0.000505318
-0.00209659
0.000705158
-0.00264394
0.000926608
-0.00320885
0.00116306
-0.00378326
0.00140742
-0.00435886
0.0016526
-0.00492778
0.001892
-0.00548322
0.00212011
-0.00601986
0.0023329
-0.0065339
0.00252828
-0.00702226
-0.00747973
0.00270674
2.40679e-05
-0.000227327
9.00552e-05
-0.000690231
0.000194552
-0.00118638
0.00033361
-0.00171305
0.000502435
-0.00226542
0.00069529
-0.00283679
0.000905586
-0.00341914
0.00112615
-0.00400383
0.00134967
-0.00458238
0.0015692
-0.00514731
0.0017787
-0.00569273
0.00197358
-0.00621474
0.00215098
-0.00671131
0.00231012
-0.0071814
-0.00762229
0.00245268
2.44337e-05
-0.000251761
9.06095e-05
-0.000756407
0.000194225
-0.00128999
0.000330408
-0.00184923
0.000493446
-0.00242846
0.000676781
-0.00302013
0.000873189
-0.00361555
0.00107515
-0.00420579
0.00127534
-0.00478258
0.00146721
-0.00533918
0.00164548
-0.00587099
0.00180655
-0.00637581
0.00194875
-0.00685352
0.00207245
-0.00730509
-0.0077301
0.00218026
2.45274e-05
-0.000276288
9.01118e-05
-0.000821991
0.000191567
-0.00139145
0.000323126
-0.00198079
0.000478241
-0.00258357
0.00064966
-0.00319154
0.000829703
-0.00379559
0.00101071
-0.0043868
0.0011856
-0.00495746
0.00134838
-0.00550196
0.00149466
-0.00601726
0.00162188
-0.00650303
0.00172948
-0.00696112
0.00181881
-0.00739442
-0.00780446
0.00189316
2.43273e-05
-0.000300616
8.85024e-05
-0.000886166
0.000186489
-0.00148943
0.000311694
-0.002106
0.00045684
-0.00272872
0.000614137
-0.00334884
0.000775646
-0.0039571
0.000933786
-0.00454494
0.00108188
-0.00510556
0.00121469
-0.00563476
0.00132872
-0.0061313
0.00142248
-0.00659679
0.00149637
-0.00703501
0.00155256
-0.00745061
-0.00784672
0.00159482
2.38168e-05
-0.000324432
8.57423e-05
-0.000948092
0.000178955
-0.00158265
0.000296128
-0.00222317
0.000429392
-0.00286198
0.000570594
-0.00349004
0.000711736
-0.00409825
0.000845507
-0.00467871
0.000965815
-0.00522587
0.00106823
-0.00573717
0.00115021
-0.00621329
0.00121122
-0.00665779
0.00125249
-0.00707628
0.00127682
-0.00747494
-0.00785821
0.00128831
2.2985e-05
-0.000347417
8.18154e-05
-0.00100692
0.000168975
-0.00166981
0.000276527
-0.00233072
0.000396166
-0.00298162
0.000519565
-0.00361344
0.00063886
-0.00421754
0.000747181
-0.00478703
0.00083914
-0.00531783
0.000911168
-0.0058092
0.000961649
-0.00626377
0.000990852
-0.006687
0.00100069
-0.00708612
0.000994433
-0.00746868
-0.00784014
0.000976358
2.18273e-05
-0.000369245
7.67281e-05
-0.00106182
0.000156609
-0.00174969
0.000253067
-0.00242718
0.000357538
-0.00308609
0.000461708
-0.00371761
0.000558027
-0.00431386
0.000640214
-0.00486922
0.000703665
-0.00538128
0.000745677
-0.00585121
0.000765461
-0.00628355
0.000763971
-0.00668551
0.000743597
-0.00706575
0.000707893
-0.00743298
-0.00779358
0.000661337
2.03454e-05
-0.00038959
7.05092e-05
-0.00111199
0.00014196
-0.00182114
0.000225995
-0.00251121
0.000313971
-0.00317407
0.000397776
-0.00380142
0.000470333
-0.00438642
0.000526063
-0.00492495
0.000561192
-0.00541641
0.000573852
-0.00586387
0.000563978
-0.00627368
0.000533042
-0.00665457
0.000483695
-0.0070164
0.00041943
-0.00736871
-0.00771949
0.000345338
1.85471e-05
-0.000408137
6.32086e-05
-0.00115665
0.000125175
-0.0018831
0.000195616
-0.00258165
0.000266002
-0.00324445
0.000328588
-0.003864
0.000376916
-0.00443474
0.000406189
-0.00495422
0.000413474
-0.0054237
0.000397687
-0.00584808
0.000359381
-0.00623537
0.00030042
-0.00659561
0.000223628
-0.00693961
0.000132161
-0.00727724
-0.00761457
2.7238e-05
1.64461e-05
-0.000424583
5.48954e-05
-0.0011951
0.000106432
-0.00193464
0.000162286
-0.00263751
0.000214215
-0.00329638
0.000255005
-0.00390479
0.000278922
-0.00445866
0.000282007
-0.00495731
0.000262156
-0.00540384
0.000219
-0.00580493
0.000153606
-0.00616998
6.81258e-05
-0.00651013
-3.4506e-05
-0.00683698
-0.000150901
-0.00716085
-0.00748811
-0.000277359
1.40614e-05
-0.000438645
4.56559e-05
-0.00122669
8.59428e-05
-0.00197493
0.000126395
-0.00267796
0.000159229
-0.00332922
0.000177897
-0.00392346
0.000177476
-0.00445824
0.000154862
-0.00493469
0.000108752
-0.00535774
3.94027e-05
-0.00573558
-5.17229e-05
-0.00607885
-0.000162326
-0.00639953
-0.000289569
-0.00670973
-0.000430171
-0.00702025
-0.00733847
-0.000579814
1.14175e-05
-0.000450062
3.55916e-05
-0.00125087
6.39414e-05
-0.00200328
8.83615e-05
-0.00270238
0.000101683
-0.00334254
9.81326e-05
-0.00391991
7.36611e-05
-0.00443377
2.6019e-05
-0.00488705
-4.53609e-05
-0.00528636
-0.000139668
-0.00564127
-0.00025516
-0.00596336
-0.000389534
-0.00626515
-0.000540158
-0.00655911
-0.000703916
-0.00685649
-0.00716555
-0.00087683
8.54326e-06
-0.000458605
2.48171e-05
-0.00126714
4.06822e-05
-0.00201914
4.86211e-05
-0.00271032
4.2225e-05
-0.00333614
1.65818e-05
-0.00389427
-3.14927e-05
-0.00438569
-0.000103384
-0.00481516
-0.000198958
-0.00519078
-0.000316959
-0.00552327
-0.000455457
-0.00582487
-0.000612248
-0.00610836
-0.000785038
-0.00638632
-0.000971114
-0.00667041
-0.00697007
-0.0011666
5.47455e-06
-0.00046408
1.34594e-05
-0.00127512
1.64354e-05
-0.00202212
7.65026e-06
-0.00270153
-1.85053e-05
-0.00330999
-6.59935e-05
-0.00384678
-0.000137044
-0.00431464
-0.000232275
-0.00471993
-0.000350943
-0.00507211
-0.000491396
-0.00538282
-0.000651574
-0.00566469
-0.000829438
-0.0059305
-0.00102316
-0.0061926
-0.00123063
-0.00646293
-0.00675274
-0.00144796
2.29523e-06
-0.000466375
1.64591e-06
-0.00127448
-8.53145e-06
-0.00201194
-3.41891e-05
-0.00267588
-7.99224e-05
-0.00326425
-0.000148757
-0.00377795
-0.000242057
-0.00422134
-0.000359688
-0.0046023
-0.000500355
-0.00493145
-0.000662075
-0.0052211
-0.000842688
-0.00548407
-0.00104033
-0.00573285
-0.00125372
-0.00597921
-0.00148164
-0.00623501
-0.00651409
-0.00172029
-1.1604e-06
-0.000465215
-1.04993e-05
-0.00126514
-3.39431e-05
-0.0019885
-7.63669e-05
-0.00263345
-0.000141354
-0.00319927
-0.000230954
-0.00368835
-0.000345681
-0.00410661
-0.000484726
-0.00446325
-0.000646329
-0.00476984
-0.000828235
-0.00503919
-0.00102819
-0.00528412
-0.00124445
-0.0055166
-0.00147623
-0.00574743
-0.00172353
-0.00598772
-0.00625401
-0.00198361
-4.55488e-06
-0.00046066
-2.28035e-05
-0.00124689
-5.94961e-05
-0.00195181
-0.000118458
-0.00257449
-0.000202215
-0.00311551
-0.000311855
-0.00357871
-0.000447092
-0.00397138
-0.000606532
-0.00430381
-0.000788046
-0.00458833
-0.000989204
-0.00483803
-0.00120769
-0.00506563
-0.00144177
-0.00528252
-0.00169093
-0.00549827
-0.00195622
-0.00572242
-0.00597077
-0.00223947
-8.02767e-06
-0.000452632
-3.51398e-05
-0.00121978
-8.49167e-05
-0.00190203
-0.000160031
-0.00249938
-0.000261929
-0.00301361
-0.000390754
-0.00344988
-0.000545487
-0.00381664
-0.00072424
-0.00412506
-0.000924638
-0.00438793
-0.00114421
-0.00461846
-0.00138074
-0.0048291
-0.00163262
-0.00503064
-0.00189948
-0.00523141
-0.00218422
-0.00543768
-0.00566414
-0.00249084
-1.1501e-05
-0.000441131
-4.73665e-05
-0.00118391
-0.000109932
-0.00183946
-0.000200672
-0.00240864
-0.000319942
-0.00289434
-0.000466977
-0.00330285
-0.00064008
-0.00364354
-0.000836952
-0.00392819
-0.00105507
-0.00416982
-0.00129204
-0.00438148
-0.001546
-0.00457514
-0.00181585
-0.00476079
-0.00210124
-0.00494602
-0.00240265
-0.00513627
-0.00533041
-0.00273639
-1.49292e-05
-0.000426202
-5.93456e-05
-0.00113949
-0.000134284
-0.00176452
-0.000239993
-0.00230293
-0.000375747
-0.00275859
-0.000539906
-0.00313869
-0.000730146
-0.0034533
-0.000943797
-0.00371454
-0.00117821
-0.0039354
-0.0014311
-0.00412859
-0.00170081
-0.00430543
-0.00198646
-0.00447514
-0.00228791
-0.00464458
-0.00260626
-0.00481792
-0.004993
-0.00294366
-1.82718e-05
-0.00040793
-7.09488e-05
-0.00108682
-0.000157734
-0.00167774
-0.000277645
-0.00218302
-0.000428898
-0.00260733
-0.000609015
-0.00295857
-0.000815088
-0.00324723
-0.0010441
-0.00348552
-0.00129329
-0.00368622
-0.00156035
-0.00386152
-0.00184372
-0.00402207
-0.0021425
-0.00417635
-0.00245645
-0.00433063
-0.00278589
-0.00448849
-0.00464915
-0.00312974
-2.14915e-05
-0.000386439
-8.20596e-05
-0.00102625
-0.000180069
-0.00157973
-0.000313325
-0.00204976
-0.000479018
-0.00244164
-0.000673879
-0.00276371
-0.000894461
-0.00302665
-0.00113744
-0.00324254
-0.0013999
-0.00342376
-0.00167956
-0.00358187
-0.00197481
-0.00372681
-0.00228475
-0.00386641
-0.00260899
-0.00400638
-0.00294742
-0.00415006
-0.00429772
-0.00329885
-2.45545e-05
-0.000361884
-9.25735e-05
-0.00095823
-0.000201104
-0.0014712
-0.000346772
-0.00190409
-0.000525792
-0.00226262
-0.000734163
-0.00255534
-0.000967944
-0.00279287
-0.00122354
-0.00298695
-0.00149792
-0.00314938
-0.00178877
-0.00329101
-0.00209454
-0.00342105
-0.00241429
-0.00354666
-0.00274761
-0.00367306
-0.00309429
-0.00380339
-0.00393844
-0.00345357
-2.74304e-05
-0.000334454
-0.000102398
-0.000883262
-0.000220676
-0.00135292
-0.000377765
-0.001747
-0.000568967
-0.00207142
-0.000789606
-0.0023347
-0.0010353
-0.00254717
-0.00130223
-0.00272003
-0.00158727
-0.00286434
-0.00188812
-0.00299016
-0.00220326
-0.0031059
-0.00253183
-0.00321809
-0.00287345
-0.00333145
-0.00322798
-0.00344885
-0.00357136
-0.00359506
-3.00922e-05
-0.000304362
-0.000111453
-0.000801901
-0.000238646
-0.00122573
-0.000406119
-0.00157953
-0.000608331
-0.00186921
-0.000839999
-0.00210303
-0.00109636
-0.00229081
-0.00137339
-0.002443
-0.00166792
-0.00256981
-0.00197768
-0.0026804
-0.00230123
-0.00278236
-0.00263777
-0.00288155
-0.00298704
-0.00298218
-0.00334904
-0.00308686
-0.0031967
-0.0037237
-3.25162e-05
-0.000271845
-0.000119669
-0.000714749
-0.000254895
-0.0010905
-0.000431678
-0.00140275
-0.000643711
-0.00165718
-0.000885174
-0.00186157
-0.00115097
-0.00202501
-0.00143693
-0.00215704
-0.00173985
-0.00226689
-0.0020575
-0.00236274
-0.00238854
-0.00245132
-0.00273228
-0.0025378
-0.00308857
-0.00262589
-0.00345756
-0.00271787
-0.00281483
-0.00383943
-3.46817e-05
-0.000237164
-0.000126984
-0.000622446
-0.000269323
-0.000948164
-0.00045431
-0.00121776
-0.000674963
-0.00143652
-0.000924992
-0.00161154
-0.00119903
-0.00175097
-0.00149276
-0.00186331
-0.001803
-0.00195666
-0.00212757
-0.00203817
-0.00246521
-0.00211368
-0.00281537
-0.00218764
-0.00317801
-0.00226325
-0.00355342
-0.00234245
-0.00242627
-0.00394198
-3.65708e-05
-0.000200593
-0.000133348
-0.000525669
-0.000281843
-0.000799669
-0.000473905
-0.0010257
-0.000701965
-0.00120846
-0.000959335
-0.00135417
-0.00124042
-0.00146989
-0.00154081
-0.00156291
-0.00185731
-0.00164015
-0.00218783
-0.00170765
-0.0025312
-0.00177031
-0.00288697
-0.00183188
-0.00325522
-0.001895
-0.00363636
-0.00196131
-0.0020317
-0.00403093
-3.81682e-05
-0.000162425
-0.000138716
-0.000425121
-0.000292384
-0.000646001
-0.000490371
-0.000827711
-0.000724618
-0.000974214
-0.000988107
-0.00109068
-0.00127505
-0.00118294
-0.00158098
-0.00125698
-0.00190272
-0.00131842
-0.00223822
-0.00137214
-0.00258641
-0.00142212
-0.00294694
-0.00147135
-0.00331999
-0.00152195
-0.00370607
-0.00157522
-0.00163191
-0.00410586
-3.94614e-05
-0.000122963
-0.000143054
-0.000321529
-0.000300886
-0.000488169
-0.000503633
-0.000624965
-0.000742839
-0.000735008
-0.00101122
-0.000822296
-0.00130286
-0.000891311
-0.00161322
-0.000946617
-0.00193915
-0.000992489
-0.00227866
-0.00103263
-0.00263074
-0.00107004
-0.00299514
-0.00110695
-0.00337211
-0.00114498
-0.00376227
-0.00118507
-0.00122782
-0.00416636
-4.04401e-05
-8.25232e-05
-0.000146332
-0.000215637
-0.000307304
-0.000327197
-0.000513631
-0.000418638
-0.000756562
-0.000492077
-0.00102862
-0.000550238
-0.00132377
-0.000596161
-0.00163746
-0.000632926
-0.00196654
-0.000663413
-0.00230906
-0.000690107
-0.0026641
-0.000715008
-0.00303143
-0.000739619
-0.0034114
-0.000765004
-0.00380467
-0.000791807
-0.000820416
-0.00421207
-4.10968e-05
-4.14264e-05
-0.000148529
-0.000108205
-0.000311601
-0.000164125
-0.000520321
-0.000209918
-0.000765738
-0.000246661
-0.00104024
-0.000275732
-0.00133774
-0.000298667
-0.00165365
-0.000317018
-0.00198483
-0.000332233
-0.00232937
-0.00034556
-0.00268638
-0.000358
-0.00305569
-0.000370307
-0.00343769
-0.000383011
-0.00383306
-0.000396435
-0.000410774
-0.0042427
-4.14264e-05
4.09002e-13
-0.000149631
1.0674e-12
-0.000313756
1.50744e-12
-0.000523674
1.76053e-12
-0.000770334
1.83666e-12
-0.00104607
1.76742e-12
-0.00134473
1.58523e-12
-0.00166175
1.32463e-12
-0.00199398
1.02306e-12
-0.00233954
7.21747e-13
-0.00269754
4.24915e-13
-0.00306785
1.4076e-13
-0.00345086
-1.24377e-13
-0.0038473
-3.63496e-13
-5.7912e-13
-0.00425807
-4.14264e-05
4.14264e-05
-0.000149631
0.000108205
-0.000313756
0.000164125
-0.000523674
0.000209918
-0.000770334
0.000246661
-0.00104607
0.000275732
-0.00134473
0.000298667
-0.00166175
0.000317018
-0.00199398
0.000332233
-0.00233954
0.00034556
-0.00269754
0.000358
-0.00306785
0.000370307
-0.00345086
0.000383011
-0.0038473
0.000396435
0.000410774
-0.00425807
-4.10968e-05
8.25232e-05
-0.000148529
0.000215637
-0.000311601
0.000327197
-0.000520321
0.000418638
-0.000765738
0.000492077
-0.00104024
0.000550238
-0.00133774
0.000596161
-0.00165365
0.000632926
-0.00198483
0.000663413
-0.00232937
0.000690107
-0.00268638
0.000715008
-0.00305569
0.000739619
-0.00343769
0.000765004
-0.00383306
0.000791807
0.000820416
-0.0042427
-4.04401e-05
0.000122963
-0.000146332
0.000321529
-0.000307304
0.000488169
-0.000513631
0.000624965
-0.000756562
0.000735008
-0.00102862
0.000822296
-0.00132377
0.000891311
-0.00163746
0.000946617
-0.00196654
0.000992489
-0.00230906
0.00103263
-0.0026641
0.00107004
-0.00303143
0.00110695
-0.0034114
0.00114498
-0.00380467
0.00118507
0.00122782
-0.00421207
-3.94614e-05
0.000162425
-0.000143054
0.000425121
-0.000300886
0.000646001
-0.000503633
0.000827711
-0.000742839
0.000974214
-0.00101122
0.00109068
-0.00130286
0.00118294
-0.00161322
0.00125698
-0.00193915
0.00131842
-0.00227866
0.00137214
-0.00263074
0.00142212
-0.00299514
0.00147135
-0.00337211
0.00152195
-0.00376227
0.00157522
0.00163191
-0.00416636
-3.81682e-05
0.000200593
-0.000138716
0.000525669
-0.000292384
0.000799669
-0.000490371
0.0010257
-0.000724618
0.00120846
-0.000988107
0.00135417
-0.00127505
0.00146989
-0.00158098
0.00156291
-0.00190272
0.00164015
-0.00223822
0.00170765
-0.00258641
0.00177031
-0.00294694
0.00183188
-0.00331999
0.001895
-0.00370607
0.00196131
0.0020317
-0.00410586
-3.65708e-05
0.000237164
-0.000133348
0.000622446
-0.000281843
0.000948164
-0.000473905
0.00121776
-0.000701965
0.00143652
-0.000959335
0.00161154
-0.00124042
0.00175097
-0.00154081
0.00186331
-0.00185731
0.00195666
-0.00218783
0.00203817
-0.0025312
0.00211368
-0.00288697
0.00218764
-0.00325522
0.00226325
-0.00363636
0.00234245
0.00242627
-0.00403093
-3.46817e-05
0.000271845
-0.000126984
0.000714749
-0.000269323
0.0010905
-0.00045431
0.00140275
-0.000674963
0.00165718
-0.000924992
0.00186157
-0.00119903
0.00202501
-0.00149276
0.00215704
-0.001803
0.00226689
-0.00212757
0.00236274
-0.00246521
0.00245132
-0.00281537
0.0025378
-0.00317801
0.00262589
-0.00355342
0.00271787
0.00281483
-0.00394198
-3.25162e-05
0.000304362
-0.000119669
0.000801901
-0.000254895
0.00122573
-0.000431678
0.00157953
-0.000643711
0.00186921
-0.000885174
0.00210303
-0.00115097
0.00229081
-0.00143693
0.002443
-0.00173985
0.00256981
-0.0020575
0.0026804
-0.00238854
0.00278236
-0.00273228
0.00288155
-0.00308857
0.00298218
-0.00345756
0.00308686
0.0031967
-0.00383943
-3.00922e-05
0.000334454
-0.000111453
0.000883262
-0.000238646
0.00135292
-0.000406119
0.001747
-0.000608331
0.00207142
-0.000839999
0.0023347
-0.00109636
0.00254717
-0.00137339
0.00272003
-0.00166792
0.00286434
-0.00197768
0.00299016
-0.00230123
0.0031059
-0.00263777
0.00321809
-0.00298704
0.00333145
-0.00334904
0.00344885
0.00357136
-0.0037237
-2.74304e-05
0.000361884
-0.000102398
0.00095823
-0.000220676
0.0014712
-0.000377765
0.00190409
-0.000568967
0.00226262
-0.000789606
0.00255534
-0.0010353
0.00279287
-0.00130223
0.00298695
-0.00158727
0.00314938
-0.00188812
0.00329101
-0.00220326
0.00342105
-0.00253183
0.00354666
-0.00287345
0.00367306
-0.00322798
0.00380339
0.00393844
-0.00359506
-2.45545e-05
0.000386439
-9.25735e-05
0.00102625
-0.000201104
0.00157973
-0.000346772
0.00204976
-0.000525792
0.00244164
-0.000734163
0.00276371
-0.000967944
0.00302665
-0.00122354
0.00324254
-0.00149792
0.00342376
-0.00178877
0.00358187
-0.00209454
0.00372681
-0.00241429
0.00386641
-0.00274761
0.00400638
-0.00309429
0.00415006
0.00429772
-0.00345357
-2.14915e-05
0.00040793
-8.20596e-05
0.00108682
-0.000180069
0.00167774
-0.000313325
0.00218302
-0.000479018
0.00260733
-0.000673879
0.00295857
-0.000894461
0.00324723
-0.00113744
0.00348552
-0.0013999
0.00368622
-0.00167956
0.00386152
-0.00197481
0.00402207
-0.00228475
0.00417635
-0.00260899
0.00433063
-0.00294742
0.00448849
0.00464915
-0.00329885
-1.82718e-05
0.000426202
-7.09488e-05
0.00113949
-0.000157734
0.00176452
-0.000277645
0.00230293
-0.000428898
0.00275859
-0.000609015
0.00313869
-0.000815088
0.0034533
-0.0010441
0.00371454
-0.00129329
0.0039354
-0.00156035
0.00412859
-0.00184372
0.00430543
-0.0021425
0.00447514
-0.00245645
0.00464458
-0.00278589
0.00481792
0.004993
-0.00312974
-1.49292e-05
0.000441131
-5.93456e-05
0.00118391
-0.000134284
0.00183946
-0.000239993
0.00240864
-0.000375747
0.00289434
-0.000539906
0.00330285
-0.000730146
0.00364354
-0.000943797
0.00392819
-0.00117821
0.00416982
-0.0014311
0.00438148
-0.00170081
0.00457514
-0.00198646
0.00476079
-0.00228791
0.00494602
-0.00260626
0.00513627
0.00533041
-0.00294366
-1.1501e-05
0.000452632
-4.73665e-05
0.00121978
-0.000109932
0.00190203
-0.000200672
0.00249938
-0.000319942
0.00301361
-0.000466977
0.00344988
-0.00064008
0.00381664
-0.000836952
0.00412506
-0.00105507
0.00438793
-0.00129204
0.00461846
-0.001546
0.0048291
-0.00181585
0.00503064
-0.00210124
0.00523141
-0.00240265
0.00543768
0.00566414
-0.00273639
-8.02767e-06
0.00046066
-3.51398e-05
0.00124689
-8.49167e-05
0.00195181
-0.000160031
0.00257449
-0.000261929
0.00311551
-0.000390754
0.00357871
-0.000545487
0.00397138
-0.00072424
0.00430381
-0.000924638
0.00458833
-0.00114421
0.00483803
-0.00138074
0.00506563
-0.00163262
0.00528252
-0.00189948
0.00549827
-0.00218422
0.00572242
0.00597077
-0.00249084
-4.55488e-06
0.000465215
-2.28035e-05
0.00126514
-5.94961e-05
0.0019885
-0.000118458
0.00263345
-0.000202215
0.00319927
-0.000311855
0.00368835
-0.000447092
0.00410661
-0.000606532
0.00446325
-0.000788046
0.00476984
-0.000989204
0.00503919
-0.00120769
0.00528412
-0.00144177
0.0055166
-0.00169093
0.00574743
-0.00195622
0.00598772
0.00625401
-0.00223947
-1.1604e-06
0.000466375
-1.04993e-05
0.00127448
-3.39431e-05
0.00201194
-7.63669e-05
0.00267588
-0.000141354
0.00326425
-0.000230954
0.00377795
-0.000345681
0.00422134
-0.000484726
0.0046023
-0.000646329
0.00493145
-0.000828235
0.0052211
-0.00102819
0.00548407
-0.00124445
0.00573285
-0.00147623
0.00597921
-0.00172353
0.00623501
0.00651409
-0.00198361
2.29523e-06
0.00046408
1.64591e-06
0.00127512
-8.53145e-06
0.00202212
-3.41891e-05
0.00270153
-7.99224e-05
0.00330999
-0.000148757
0.00384678
-0.000242057
0.00431464
-0.000359688
0.00471993
-0.000500355
0.00507211
-0.000662075
0.00538282
-0.000842688
0.00566469
-0.00104033
0.0059305
-0.00125372
0.0061926
-0.00148164
0.00646293
0.00675274
-0.00172029
5.47455e-06
0.000458605
1.34594e-05
0.00126714
1.64354e-05
0.00201914
7.65026e-06
0.00271032
-1.85053e-05
0.00333614
-6.59935e-05
0.00389427
-0.000137044
0.00438569
-0.000232275
0.00481516
-0.000350943
0.00519078
-0.000491396
0.00552327
-0.000651574
0.00582487
-0.000829438
0.00610836
-0.00102316
0.00638632
-0.00123063
0.00667041
0.00697007
-0.00144796
8.54326e-06
0.000450062
2.48171e-05
0.00125087
4.06822e-05
0.00200328
4.86211e-05
0.00270238
4.2225e-05
0.00334254
1.65818e-05
0.00391991
-3.14926e-05
0.00443377
-0.000103384
0.00488705
-0.000198958
0.00528636
-0.000316959
0.00564127
-0.000455457
0.00596336
-0.000612248
0.00626515
-0.000785038
0.00655911
-0.000971114