/*--------------------------------*- C++ -*----------------------------------*\
  =========                 |
  \\      /  F ield         | OpenFOAM: The Open Source CFD Toolbox
   \\    /   O peration     | Website:  https://openfoam.org
    \\  /    A nd           | Version:  7
     \\/     M anipulation  |
\*---------------------------------------------------------------------------*/
FoamFile
{
    version     2.0;
    format      ascii;
    class       volVectorField;
    location    "35";
    object      U;
}
// * * * * * * * * * * * * * * * * * * * * * * * * * * * * * * * * * * * * * //

dimensions      [0 1 -1 0 0 0 0];

internalField   nonuniform List<vector> 
12150
(
(-0.000607476 0.000665346 -6.77612e-22)
(-0.00297771 0.00146453 6.80875e-22)
(-0.00708687 0.00187197 -3.2356e-21)
(-0.0116892 0.00199421 3.72623e-21)
(-0.016191 0.00190487 -3.65573e-21)
(-0.0202245 0.00166258 -5.34876e-21)
(-0.0235196 0.00131618 -3.29171e-23)
(-0.0259083 0.000907142 8.71032e-22)
(-0.0273129 0.000472326 -8.06707e-22)
(-0.0277329 4.64531e-05 8.17321e-23)
(-0.0272408 -0.000336086 4.5465e-21)
(-0.0259839 -0.000640388 3.8807e-21)
(-0.0241787 -0.000833369 -4.4774e-21)
(-0.0220638 -0.000889445 -4.17825e-21)
(-0.0200089 -0.000771391 -6.59488e-22)
(-0.000730604 0.00197003 1.93999e-21)
(-0.00319029 0.00433069 -1.94986e-21)
(-0.00722642 0.00552954 -3.61632e-21)
(-0.0116396 0.00588207 1.24963e-20)
(-0.0158595 0.00560698 -1.47486e-21)
(-0.0195344 0.00487844 -8.17339e-22)
(-0.0224075 0.00384152 1.14302e-20)
(-0.0243206 0.0026193 3.63091e-21)
(-0.0252028 0.00132131 1.5219e-21)
(-0.0250588 5.09366e-05 -1.99397e-21)
(-0.0239648 -0.00108897 -8.7443e-21)
(-0.0220736 -0.00199349 1.11091e-20)
(-0.0196139 -0.00256208 -3.79762e-21)
(-0.0168185 -0.00271323 -2.92624e-21)
(-0.0139807 -0.00233486 5.15378e-21)
(-0.000967683 0.00319768 1.79398e-20)
(-0.00359288 0.00701047 -1.30724e-20)
(-0.00747398 0.00893108 5.73066e-21)
(-0.0115027 0.009472 -1.68566e-20)
(-0.0151547 0.00899039 2.74005e-20)
(-0.0181103 0.007771 -1.10609e-20)
(-0.0201384 0.00605071 -1.07218e-20)
(-0.0211002 0.0040304 7.78811e-22)
(-0.0209389 0.00188903 -1.14967e-20)
(-0.0196692 -0.000203855 1.14748e-20)
(-0.0173744 -0.00207812 -1.59e-20)
(-0.0142173 -0.00355867 -7.81368e-21)
(-0.0104494 -0.00447535 -1.72356e-21)
(-0.00630359 -0.00466832 4.72925e-21)
(-0.001892 -0.00389227 3.74703e-21)
(-0.00130068 0.00430012 6.50491e-21)
(-0.00414098 0.00938708 2.70884e-21)
(-0.00776712 0.0119162 2.09735e-20)
(-0.0112038 0.0125776 2.79581e-20)
(-0.0139938 0.0118564 -1.53591e-20)
(-0.0158642 0.0101398 1.62031e-21)
(-0.0166222 0.0077494 -5.74896e-21)
(-0.0161575 0.00495754 3.70102e-21)
(-0.0144342 0.00200716 6.291e-21)
(-0.0114813 -0.000870414 9.92839e-21)
(-0.00739345 -0.0034405 -2.46806e-20)
(-0.00234788 -0.00545788 1.23338e-20)
(0.00338325 -0.00667955 2.76108e-20)
(0.00959906 -0.00683921 -4.12354e-20)
(0.0161365 -0.00552975 -3.3873e-21)
(-0.00170333 0.00523381 -1.67138e-20)
(-0.00476941 0.0113546 -3.14836e-22)
(-0.00801398 0.0143394 -1.8835e-20)
(-0.0106322 0.0150305 -5.49817e-20)
(-0.0122535 0.0140266 3.73702e-20)
(-0.0126654 0.0118068 -4.19898e-20)
(-0.0117245 0.00876755 3.2628e-20)
(-0.00935817 0.00524429 2.98009e-21)
(-0.00555739 0.00153625 2.84868e-20)
(-0.000371041 -0.00207015 -1.15707e-20)
(0.00609171 -0.00528004 7.46314e-21)
(0.0136334 -0.0077798 1.4042e-20)
(0.021957 -0.00924688 -3.15268e-20)
(0.0309168 -0.00928802 3.86109e-20)
(0.040284 -0.00732785 8.35755e-21)
(-0.00214196 0.0059612 2.81321e-20)
(-0.00539404 0.0128213 -4.82755e-20)
(-0.00809525 0.0160753 1.03083e-20)
(-0.00964388 0.0166864 4.73276e-20)
(-0.00977272 0.0153501 -3.85912e-20)
(-0.00834183 0.0126241 3.74656e-20)
(-0.00526779 0.00896847 2.37237e-20)
(-0.000523656 0.00477092 -3.89064e-20)
(0.00586571 0.00037726 8.97905e-21)
(0.013827 -0.00387974 2.59093e-20)
(0.0232324 -0.00765224 -3.36133e-20)
(0.0338599 -0.0105619 5.36164e-20)
(0.0453782 -0.0121999 -9.68348e-21)
(0.057698 -0.0120165 -2.52064e-20)
(0.0705658 -0.00922303 -1.03777e-20)
(-0.00257653 0.00645186 -4.19765e-20)
(-0.00591393 0.0137129 6.11168e-21)
(-0.00786686 0.0170229 2.47079e-20)
(-0.00806354 0.0174311 -5.06254e-20)
(-0.00635437 0.0157101 2.44413e-20)
(-0.00268237 0.0124822 3.31035e-20)
(0.00296694 0.00825708 3.34865e-20)
(0.0105667 0.00346333 -6.64312e-22)
(0.0200517 -0.00151814 -3.83553e-20)
(0.0313186 -0.00631933 -5.55702e-20)
(0.0442167 -0.01055 4.87436e-20)
(0.0584949 -0.0137743 6.14094e-21)
(0.0737785 -0.0154965 -1.09136e-20)
(0.0900326 -0.0149723 2.52358e-20)
(0.107019 -0.0111095 6.95005e-20)
(-0.00296175 0.00668314 2.1589e-20)
(-0.00621374 0.0139742 9.2618e-21)
(-0.0071632 0.0171096 -3.24036e-21)
(-0.00568892 0.0171848 1.60192e-20)
(-0.00176998 0.0150297 -2.07147e-20)
(0.00455889 0.0113151 -8.3809e-20)
(0.0132353 0.00658657 -2.27924e-20)
(0.0241715 0.0013005 -9.25809e-20)
(0.0372551 -0.00413938 7.1797e-20)
(0.0523461 -0.0093431 -2.4501e-20)
(0.0692649 -0.0138918 -9.14556e-22)
(0.0877275 -0.0173056 -2.97383e-20)
(0.107306 -0.0190094 -4.1708e-20)
(0.128021 -0.018028 -2.8871e-20)
(0.149695 -0.0128483 -3.09399e-21)
(-0.00324818 0.00664047 3.19243e-20)
(-0.0061668 0.0135722 7.0548e-21)
(-0.00580052 0.0162933 6.23664e-20)
(-0.00229511 0.0159058 -1.74469e-20)
(0.0042349 0.0132758 5.23946e-20)
(0.0136563 0.00910593 2.70775e-20)
(0.0258231 0.00396355 3.82327e-20)
(0.0405801 -0.00168016 1.33615e-21)
(0.0577601 -0.00741139 2.72411e-21)
(0.0771787 -0.0128325 1.10223e-20)
(0.09862 -0.0175131 -1.46691e-20)
(0.12176 -0.0209501 3.78137e-20)
(0.14611 -0.02251 9.05224e-21)
(0.171744 -0.0209635 -3.33834e-20)
(0.198617 -0.0142434 1.49098e-20)
(-0.00338252 0.00631849 -3.13693e-20)
(-0.00563762 0.0124958 -3.58435e-21)
(-0.003583 0.0145645 -4.5815e-20)
(0.00235947 0.0135939 1.21242e-20)
(0.0119339 0.0104632 -1.42955e-20)
(0.0249044 0.00589065 4.90493e-21)
(0.0410361 0.000451419 4.18865e-21)
(0.0601003 -0.00538061 -4.19691e-20)
(0.0818674 -0.0111934 3.81178e-20)
(0.106099 -0.0165956 2.29891e-20)
(0.132531 -0.0211643 -5.81746e-20)
(0.160791 -0.0244013 -5.71863e-20)
(0.190318 -0.0256525 3.23507e-20)
(0.221233 -0.0234394 -1.38916e-20)
(0.253711 -0.0150098 -6.09427e-21)
(-0.00331041 0.00572011 -8.46453e-20)
(-0.00448515 0.0107559 1.4818e-20)
(-0.000306141 0.0119488 1.8722e-21)
(0.00852541 0.0102925 1.2132e-20)
(0.0216099 0.00665652 3.46217e-20)
(0.0386059 0.00175961 -9.73204e-20)
(0.059186 -0.00382888 8.1623e-20)
(0.0830422 -0.00964328 -7.20081e-20)
(0.109875 -0.0152832 2.70781e-20)
(0.139379 -0.0203748 1.82042e-20)
(0.17123 -0.0245205 3.27744e-20)
(0.204991 -0.0272587 9.0972e-21)
(0.240014 -0.0279726 -1.66817e-21)
(0.276457 -0.0249824 -3.53705e-20)
(0.314822 -0.0147489 2.64834e-20)
(-0.00297619 0.00485661 2.65062e-20)
(-0.00256649 0.00838764 3.07603e-20)
(0.00423698 0.00850679 -1.3167e-19)
(0.0164548 0.00608864 4.18094e-20)
(0.033544 0.0019714 2.21155e-20)
(0.0550573 -0.00314158 -4.77719e-20)
(0.0805716 -0.00869992 -3.46444e-20)
(0.109695 -0.0142555 -5.96798e-20)
(0.142049 -0.0194263 1.25117e-20)
(0.177252 -0.023863 -4.39232e-21)
(0.2149 -0.0272046 4.34377e-20)
(0.254471 -0.029056 1.8184e-20)
(0.29521 -0.0289109 3.25993e-20)
(0.337291 -0.0249945 3.11732e-21)
(0.381655 -0.0129548 2.23558e-20)
(-0.00232449 0.00374812 2.02541e-20)
(0.000259346 0.0054499 -7.75165e-20)
(0.010248 0.00433471 7.47481e-20)
(0.0263907 0.0011151 -7.5936e-20)
(0.048003 -0.00342422 4.80445e-20)
(0.0745316 -0.00861238 2.0013e-20)
(0.105457 -0.0139303 3.39648e-20)
(0.140299 -0.0189561 7.48808e-20)
(0.178595 -0.0233305 -3.52082e-20)
(0.219873 -0.0267283 -2.96371e-20)
(0.263629 -0.0288247 -2.29145e-20)
(0.309228 -0.0293036 -9.06051e-21)
(0.355783 -0.0278269 2.55292e-20)
(0.403438 -0.0226446 -6.82427e-20)
(0.453721 -0.00878608 -1.78068e-20)
(-0.00130145 0.00242351 -2.43427e-20)
(0.00412768 0.00202523 -7.19592e-21)
(0.0179174 -0.000434751 -5.7305e-20)
(0.0385565 -0.00444936 3.66341e-20)
(0.065223 -0.00931138 -4.06824e-20)
(0.0972587 -0.0143989 -1.22077e-20)
(0.134046 -0.0192385 -1.47994e-21)
(0.175016 -0.0234443 3.50506e-20)
(0.219615 -0.0266839 2.03001e-19)
(0.267276 -0.028651 -1.44441e-19)
(0.317383 -0.0290392 9.2786e-20)
(0.369158 -0.0275808 -7.58041e-20)
(0.421524 -0.0240338 3.183e-20)
(0.474339 -0.0166239 -1.02335e-20)
(0.529401 -0.000541694 4.67669e-20)
(0.000143855 0.000920223 5.02442e-20)
(0.0091637 -0.00178032 1.18494e-20)
(0.0274166 -0.00563383 -2.99401e-20)
(0.0531455 -0.0103826 -3.91605e-20)
(0.0853959 -0.0154212 1.26878e-20)
(0.123405 -0.0201959 8.41901e-20)
(0.166456 -0.024296 2.77485e-20)
(0.213887 -0.0273867 -4.32953e-20)
(0.265058 -0.0291732 -6.34634e-20)
(0.319317 -0.0293705 4.29677e-20)
(0.37596 -0.0276765 1.17971e-19)
(0.434135 -0.0237917 -8.49504e-20)
(0.492709 -0.0172636 -3.62952e-20)
(0.550906 -0.00600753 9.03981e-21)
(0.609003 0.0123989 8.97738e-22)
(0.00205814 -0.000715922 -5.49438e-20)
(0.0154781 -0.005838 -1.66605e-20)
(0.0388901 -0.0110609 8.84575e-20)
(0.0703098 -0.01642 -4.86135e-21)
(0.108654 -0.0214372 -8.75401e-20)
(0.153054 -0.0256483 4.44127e-20)
(0.20269 -0.0287276 1.22863e-19)
(0.256801 -0.0304146 -3.71119e-20)
(0.314658 -0.0304784 -3.80644e-20)
(0.37554 -0.0286891 -3.25502e-20)
(0.438714 -0.0247884 -2.38347e-20)
(0.503455 -0.0184358 -1.94011e-21)
(0.569277 -0.0087974 5.27784e-20)
(0.636071 0.00578518 -4.43873e-20)
(0.702202 0.0201444 2.12652e-20)
(0.00448242 -0.00243091 3.90848e-20)
(0.0231629 -0.00999769 1.28232e-20)
(0.0524491 -0.0164832 2.07367e-20)
(0.0901507 -0.0222584 -4.69922e-20)
(0.135059 -0.0269995 -5.68026e-20)
(0.186194 -0.0303555 -4.63738e-20)
(0.242623 -0.0321107 -2.93236e-20)
(0.303472 -0.0321087 -7.82688e-20)
(0.367904 -0.0302219 8.72939e-21)
(0.435103 -0.0263365 5.0766e-20)
(0.504272 -0.0203415 3.68903e-20)
(0.574701 -0.0120888 -1.90393e-20)
(0.646088 -0.00110134 4.01001e-20)
(0.718462 0.0127039 2.65775e-20)
(0.788494 0.0215723 1.11203e-19)
(0.00745053 -0.0041633 6.57625e-20)
(0.0322873 -0.0140903 1.89893e-20)
(0.0681649 -0.0216409 1.04733e-19)
(0.112711 -0.0275629 -1.2995e-19)
(0.164593 -0.0317139 -1.07257e-21)
(0.222714 -0.0338805 -6.02139e-20)
(0.286011 -0.0339828 -6.65783e-20)
(0.353475 -0.0319971 8.45913e-20)
(0.424131 -0.0279335 2.01153e-20)
(0.49702 -0.0218352 5.25133e-20)
(0.571209 -0.0137858 -7.89256e-20)
(0.645837 -0.00389063 -7.7107e-20)
(0.720353 0.00790789 -1.0289e-20)
(0.794228 0.0208865 -4.67573e-20)
(0.863294 0.0280536 1.01338e-22)
(0.010988 -0.0058451 -3.37863e-20)
(0.0428938 -0.0179307 -3.62467e-20)
(0.0860628 -0.0262532 -6.35399e-20)
(0.137968 -0.0319763 -1.65382e-20)
(0.197155 -0.0351656 2.78028e-20)
(0.262397 -0.0357697 5.40403e-20)
(0.332491 -0.0338693 1.11587e-19)
(0.406268 -0.0295979 -1.12901e-19)
(0.482583 -0.0231275 -7.33848e-20)
(0.560302 -0.0146772 -2.91749e-20)
(0.638304 -0.00452786 1.01103e-19)
(0.71551 0.00699158 -2.46023e-20)
(0.791016 0.0196391 4.42504e-20)
(0.863712 0.032426 -3.73679e-20)
(0.929346 0.0399013 3.09907e-21)
(0.0151103 -0.00740275 -9.97752e-20)
(0.0549943 -0.0213218 -3.0691e-20)
(0.106117 -0.0300262 1.13647e-19)
(0.165827 -0.035131 -1.93997e-20)
(0.232552 -0.0369365 2.37003e-20)
(0.304928 -0.0355771 -3.70015e-20)
(0.381594 -0.0313172 -1.47571e-21)
(0.461208 -0.0244691 4.48202e-20)
(0.54244 -0.015383 5.06003e-20)
(0.623966 -0.00446044 6.64666e-20)
(0.70447 0.00783317 -9.77788e-20)
(0.782673 0.0209889 1.25308e-20)
(0.857388 0.034568 5.32864e-20)
(0.92716 0.0475507 -7.32656e-20)
(0.988084 0.055973 2.16037e-20)
(0.0198216 -0.00875831 4.38796e-20)
(0.0685666 -0.0240591 9.29938e-20)
(0.128246 -0.0326611 -4.44161e-20)
(0.196121 -0.0366624 1.93851e-20)
(0.270502 -0.0366237 -2.30276e-20)
(0.349886 -0.0328885 2.24212e-20)
(0.432746 -0.0259268 2.60421e-20)
(0.517562 -0.0162479 -9.45318e-20)
(0.602819 -0.00439157 5.22905e-20)
(0.687015 0.00905825 -7.89824e-20)
(0.768678 0.0234699 7.32852e-20)
(0.846386 0.0381952 -3.91157e-20)
(0.918806 0.0526723 6.61274e-20)
(0.984376 0.0659507 2.4502e-20)
(1.03974 0.0753096 -3.49815e-20)
(0.025113 -0.00983096 4.78404e-20)
(0.0835507 -0.0259355 -2.95087e-20)
(0.152309 -0.0338634 3.67291e-20)
(0.2286 -0.0362223 -2.98488e-20)
(0.310629 -0.033857 5.19876e-20)
(0.396751 -0.0273432 -2.65442e-20)
(0.485277 -0.0173761 5.89235e-20)
(0.574516 -0.0046769 -6.58028e-20)
(0.662789 0.0100181 8.42366e-21)
(0.748454 0.0259485 9.21993e-20)
(0.829943 0.0423377 -2.66529e-20)
(0.90579 0.0584353 1.001e-20)
(0.974653 0.0736121 -4.81374e-20)
(1.03507 0.087033 -4.96675e-20)
(1.0843 0.0969609 2.41418e-20)
(0.0309608 -0.0105387 -6.60468e-20)
(0.099846 -0.026747 -6.51671e-21)
(0.178103 -0.033353 -5.41055e-21)
(0.262938 -0.0334921 2.4967e-21)
(0.352468 -0.028316 4.94065e-20)
(0.444915 -0.0186527 -7.78743e-20)
(0.538438 -0.00543944 9.03647e-20)
(0.6312 0.0103801 -6.73772e-20)
(0.721397 0.0278727 -4.29146e-20)
(0.807309 0.0461138 1.61926e-20)
(0.887354 0.064208 -3.39697e-20)
(0.960125 0.0813408 1.27933e-20)
(1.02441 0.0968637 4.07264e-20)
(1.07899 0.110087 3.39931e-20)
(1.1218 0.120033 1.19689e-20)
(0.037325 -0.0108002 5.43044e-20)
(0.117309 -0.0262991 1.26782e-22)
(0.20536 -0.0308731 -1.4289e-20)
(0.298734 -0.0281957 -3.13306e-20)
(0.395475 -0.0197435 -6.28867e-21)
(0.493691 -0.00661414 2.3758e-20)
(0.591419 0.0100013 -4.23879e-20)
(0.686712 0.0289335 -1.30114e-20)
(0.777701 0.04906 1.3511e-20)
(0.862664 0.0693132 1.52948e-20)
(0.940098 0.0887126 1.88397e-20)
(1.00877 0.106422 7.43969e-21)
(1.0677 0.121823 -1.41665e-20)
(1.11605 0.134397 2.20532e-20)
(1.15238 0.143748 -4.7659e-21)
(0.0441486 -0.0105377 1.02502e-19)
(0.135754 -0.0244129 -3.11393e-20)
(0.233755 -0.0262008 -2.9213e-20)
(0.335514 -0.0201112 -5.55024e-20)
(0.439034 -0.0079582 2.88275e-20)
(0.542337 0.00887909 1.20439e-20)
(0.643377 0.0289517 4.59123e-20)
(0.740154 0.0508706 1.79512e-20)
(0.830805 0.0733426 -3.71758e-20)
(0.913696 0.0951892 -2.31419e-20)
(0.987502 0.115388 1.68837e-20)
(1.05125 0.133129 -3.43581e-20)
(1.10433 0.147873 -1.79407e-20)
(1.14629 0.159306 7.62671e-21)
(1.17632 0.167472 -2.65173e-20)
(0.0513567 -0.00967932 -4.41144e-20)
(0.15495 -0.0209328 1.67113e-20)
(0.262903 -0.0191561 3.30246e-20)
(0.372746 -0.0090808 -2.82892e-20)
(0.482477 0.00713663 1.99792e-20)
(0.590074 0.0278323 -5.1077e-20)
(0.693463 0.0513052 2.05928e-20)
(0.790659 0.0759644 6.44704e-20)
(0.879892 0.100377 -1.50409e-20)
(0.959705 0.123298 4.72897e-20)
(1.02905 0.143713 -6.86345e-20)
(1.0873 0.160895 4.78958e-20)
(1.13425 0.174434 -1.53664e-20)
(1.16992 0.184243 -1.46031e-20)
(1.19403 0.190708 2.48208e-20)
(0.0588568 -0.00816209 4.01768e-20)
(0.17463 -0.0157329 4.30618e-20)
(0.292372 -0.00961132 -3.6021e-20)
(0.409848 0.00497974 2.30406e-20)
(0.5251 0.0255465 -1.00537e-20)
(0.636113 0.0501474 -9.4157e-21)
(0.740851 0.0768483 -1.93237e-20)
(0.837427 0.103887 2.09896e-20)
(0.924249 0.129737 -1.28317e-20)
(1.00013 0.153139 -2.85735e-21)
(1.06438 0.173148 -2.09952e-20)
(1.1168 0.189172 7.71819e-22)
(1.1576 0.200981 -2.31009e-20)
(1.18726 0.208737 1.35781e-20)
(1.20598 0.213089 1.14532e-20)
(0.0665397 -0.0059354 2.97003e-21)
(0.194487 -0.00872408 -2.28156e-20)
(0.321688 0.00250147 4.33918e-21)
(0.446206 0.0220748 3.03448e-20)
(0.566185 0.0471827 -2.68897e-20)
(0.679679 0.0756257 1.5226e-20)
(0.784767 0.105269 -1.90554e-20)
(0.879747 0.134227 -2.76196e-21)
(0.963294 0.160934 5.80425e-21)
(1.03458 0.184181 1.16501e-20)
(1.09333 0.203155 -6.31768e-23)
(1.13978 0.217452 1.63015e-21)
(1.17463 0.227062 -9.09829e-22)
(1.19873 0.232412 -4.86135e-21)
(1.21272 0.234354 4.76294e-21)
(0.0742814 -0.00296375 3.70709e-21)
(0.21419 0.000139517 -4.46326e-21)
(0.350347 0.0171836 -3.86212e-20)
(0.481189 0.0421247 3.81477e-21)
(0.605019 0.0718618 1.41351e-21)
(0.720035 0.103973 2.4374e-21)
(0.824512 0.136172 -1.85902e-20)
(0.917018 0.166506 4.66493e-21)
(0.99658 0.19344 -8.38425e-21)
(1.06279 0.215885 7.30004e-21)
(1.11584 0.233221 -4.73692e-22)
(1.15644 0.24528 -1.95058e-21)
(1.18568 0.252301 3.16164e-21)
(1.20482 0.254977 5.66757e-21)
(1.21478 0.254326 1.14446e-21)
(0.0819457 0.000770307 5.15058e-21)
(0.233383 0.0108556 -6.6561e-22)
(0.377833 0.0343653 1.08752e-21)
(0.514167 0.0649634 -5.80617e-21)
(0.640918 0.0993094 9.99382e-21)
(0.756504 0.134809 6.00668e-21)
(0.859478 0.169087 -9.67247e-22)
(0.948761 0.200197 -2.30684e-21)
(1.0238 0.22671 4.18824e-22)
(1.08467 0.247725 2.21221e-21)
(1.13202 0.262871 -6.04241e-21)
(1.16703 0.272256 1.71875e-21)
(1.19119 0.276385 3.5845e-21)
(1.20601 0.276214 -5.15994e-21)
(1.21268 0.272889 4.66025e-22)
(0.0893873 0.00526389 -6.49836e-21)
(0.251699 0.0233696 2.45234e-21)
(0.403625 0.0539034 5.05008e-21)
(0.544531 0.0903404 -5.5285e-21)
(0.673248 0.129165 5.10267e-21)
(0.78849 0.167678 7.14923e-21)
(0.889169 0.20349 7.39172e-23)
(0.974626 0.234745 -6.43054e-21)
(1.04479 0.260194 5.53175e-21)
(1.10022 0.279194 -1.10475e-22)
(1.14207 0.291672 -4.13213e-21)
(1.17192 0.298037 -3.25009e-21)
(1.19158 0.299065 3.59977e-21)
(1.20281 0.295957 1.39545e-21)
(1.20691 0.289964 -1.02385e-21)
(0.0964561 0.010492 -1.08067e-20)
(0.268771 0.0375728 -1.01593e-20)
(0.427219 0.0755809 -6.19397e-21)
(0.571711 0.117924 -1.80276e-20)
(0.70144 0.160993 1.03253e-20)
(0.81549 0.202061 -1.40513e-20)
(0.913201 0.238817 -7.10297e-21)
(0.994393 0.269578 1.34739e-21)
(1.0595 0.293355 2.60797e-21)
(1.1096 0.309822 1.49169e-21)
(1.14627 0.31924 7.65281e-21)
(1.17149 0.322333 -8.91111e-21)
(1.18733 0.32014 2.25396e-21)
(1.19567 0.31408 4.81249e-21)
(1.19791 0.305497 1.76773e-21)
(0.103001 0.0164065 -2.87954e-20)
(0.284242 0.0533016 -1.78472e-20)
(0.448141 0.0991101 2.62174e-20)
(0.595189 0.147309 4.09637e-21)
(0.725006 0.19429 -1.87986e-20)
(0.837107 0.237393 1.35498e-20)
(0.931314 0.274478 1.2955e-20)
(1.00797 0.304125 -2.08312e-20)
(1.06802 0.325678 -1.2649e-20)
(1.11302 0.339174 3.437e-21)
(1.14498 0.345236 1.32987e-20)
(1.16617 0.344898 6.22884e-21)
(1.17887 0.339444 4.69181e-22)
(1.18504 0.330478 -3.02511e-21)
(1.18608 0.319444 -9.97597e-21)
(0.108876 0.0229358 4.58127e-20)
(0.297774 0.0703392 -2.47801e-21)
(0.465957 0.124137 -5.75494e-21)
(0.614519 0.178024 1.08878e-21)
(0.743552 0.228499 3.54258e-20)
(0.853054 0.273074 -4.23688e-20)
(0.943368 0.309873 7.78518e-21)
(1.01536 0.337829 -2.89315e-21)
(1.0705 0.356677 -3.82453e-21)
(1.11079 0.366858 -8.10564e-21)
(1.13858 0.369362 1.72275e-20)
(1.15639 0.365525 -2.27658e-20)
(1.16663 0.356841 7.91848e-21)
(1.1713 0.345059 -8.1007e-21)
(1.17177 0.331766 2.19844e-21)
(0.113941 0.0299857 -5.50037e-20)
(0.309061 0.0884191 -2.18492e-20)
(0.480294 0.150249 6.52672e-20)
(0.629337 0.209544 1.30359e-20)
(0.756787 0.263026 -7.18533e-20)
(0.863162 0.308483 4.60907e-20)
(0.949339 0.344406 -1.07407e-20)
(1.01671 0.370151 1.36309e-20)
(1.06722 0.3859 6.97283e-21)
(1.10326 0.39252 8.41442e-21)
(1.12748 0.391363 1.26278e-20)
(1.14256 0.384045 -7.41257e-21)
(1.15099 0.372222 -4.65014e-21)
(1.15477 0.357737 2.55476e-22)
(1.15514 0.342418 2.28781e-21)
(0.118073 0.0374404 3.58839e-20)
(0.317838 0.10723 -3.80739e-21)
(0.490843 0.176984 -6.8564e-20)
(0.639367 0.241301 4.46492e-20)
(0.764528 0.297249 3.93851e-20)
(0.867374 0.342996 -3.58981e-20)
(0.949312 0.377492 3.53417e-20)
(1.01224 0.400583 -1.7325e-20)
(1.05851 0.412935 -3.39608e-21)
(1.09085 0.415847 -3.32117e-20)
(1.11212 0.411022 1.95223e-20)
(1.12512 0.400321 -1.01014e-21)
(1.13235 0.38553 4.05825e-21)
(1.1357 0.368525 -4.01963e-21)
(1.13619 0.351353 -6.89616e-21)
(0.121163 0.0451652 -4.26096e-20)
(0.32389 0.126425 3.56128e-20)
(0.497374 0.20384 1.13993e-20)
(0.644433 0.272699 1.99631e-20)
(0.7667 0.330535 -2.34027e-20)
(0.865743 0.375996 3.4108e-20)
(0.943473 0.408571 -4.35085e-20)
(1.00223 0.42865 -2.77463e-20)
(1.04475 0.437404 2.37977e-20)
(1.07399 0.436558 1.46634e-20)
(1.09296 0.428143 -1.06555e-20)
(1.10451 0.414231 1.6944e-20)
(1.11109 0.396732 3.91144e-21)
(1.11448 0.377615 2.70042e-21)
(1.11547 0.358741 -1.23437e-21)
(0.123124 0.0530092 -4.36295e-20)
(0.327056 0.145624 2.58958e-20)
(0.499741 0.23029 5.0946e-21)
(0.64446 0.30313 9.4938e-21)
(0.763336 0.362254 -6.11348e-21)
(0.858426 0.406885 2.38967e-20)
(0.932098 0.437115 -4.1023e-20)
(0.987078 0.453915 9.37759e-21)
(1.02638 0.458966 -1.81881e-20)
(1.05315 0.454404 -2.19633e-21)
(1.07046 0.442547 -8.41775e-21)
(1.08114 0.425638 -4.3935e-21)
(1.08762 0.405676 8.58407e-21)
(1.09151 0.384723 8.26122e-21)
(1.09359 0.364445 -2.60387e-21)
(0.123894 0.0608086 -2.63089e-20)
(0.32724 0.164429 -3.35545e-20)
(0.497883 0.255792 3.30359e-20)
(0.639474 0.331981 1.10536e-20)
(0.754574 0.391791 5.98666e-23)
(0.845675 0.435094 1.46662e-20)
(0.915539 0.462634 -1.67265e-20)
(0.967198 0.475982 3.60435e-20)
(1.00387 0.477319 -2.01918e-22)
(1.0288 0.469162 3.05861e-21)
(1.04506 0.454076 1.02458e-20)
(1.05543 0.43443 -5.61743e-21)
(1.06223 0.412269 -2.60008e-21)
(1.06701 0.389686 -3.99708e-21)
(1.07053 0.368272 -8.24e-22)
(0.123436 0.0683915 1.9117e-20)
(0.32441 0.182432 7.44671e-20)
(0.49183 0.279802 -5.5451e-20)
(0.629601 0.358658 7.92764e-21)
(0.740648 0.418562 3.20228e-21)
(0.827831 0.460095 -2.53317e-21)
(0.894217 0.484684 -1.55534e-20)
(0.943065 0.494499 1.48212e-20)
(0.977716 0.492199 -3.46671e-22)
(1.00143 0.480641 -1.52765e-20)
(1.01722 0.462593 3.50146e-21)
(1.02775 0.440506 2.89151e-21)
(1.03527 0.416429 1.20807e-21)
(1.04123 0.392442 2.41946e-21)
(1.04639 0.370142 -1.01781e-21)
(0.121745 0.075583 -2.07601e-21)
(0.318599 0.199225 -1.61634e-20)
(0.481699 0.301791 3.42153e-20)
(0.615064 0.382592 -9.34908e-21)
(0.721883 0.44202 -1.63819e-20)
(0.805301 0.481408 5.31347e-22)
(0.868604 0.502871 1.5328e-20)
(0.915186 0.50916 -5.04229e-22)
(0.948423 0.503379 5.04736e-21)
(0.971522 0.488678 2.342e-21)
(0.987379 0.467979 -2.80097e-22)
(0.99852 0.443776 1.2833e-21)
(1.00706 0.41808 1.93217e-22)
(1.0144 0.392918 -4.29548e-21)
(1.02138 0.369973 5.06178e-21)
(0.118844 0.0822136 7.26394e-21)
(0.309903 0.214409 -2.71564e-20)
(0.467694 0.32125 -2.6031e-20)
(0.596168 0.403253 1.12206e-20)
(0.69868 0.461674 1.59312e-21)
(0.778563 0.498608 6.05937e-21)
(0.839222 0.516853 -3.79739e-21)
(0.884091 0.519708 4.78727e-21)
(0.916508 0.510671 -2.79029e-21)
(0.939566 0.493135 4.60949e-21)
(0.955993 0.470132 1.88696e-22)
(0.968127 0.444158 -1.53517e-20)
(0.977931 0.417152 5.46307e-21)
(0.986781 0.391024 -7.13123e-21)
(0.99569 0.367606 7.4481e-21)
(0.114766 0.0881128 -7.21272e-21)
(0.298493 0.227617 1.3071e-20)
(0.450099 0.337711 2.81867e-21)
(0.573301 0.42016 -1.65353e-21)
(0.671517 0.477087 -1.36261e-20)
(0.748149 0.511335 -2.01328e-21)
(0.806621 0.526352 -2.46015e-21)
(0.850321 0.525936 -3.90463e-21)
(0.882482 0.513925 -3.55857e-21)
(0.906032 0.493901 1.81728e-20)
(0.923498 0.468962 -5.75361e-21)
(0.93699 0.441578 1.21568e-20)
(0.948266 0.413584 2.31156e-20)
(0.958695 0.386669 -9.3889e-21)
(0.969637 0.362832 6.39231e-21)
(0.109602 0.0931022 -2.22668e-21)
(0.284605 0.23849 -1.00124e-20)
(0.429267 0.35076 3.4922e-21)
(0.546928 0.4329 -3.48682e-21)
(0.640927 0.487891 2.48317e-21)
(0.714628 0.519293 7.12479e-21)
(0.77137 0.531149 1.86206e-20)
(0.814419 0.527691 1.90534e-20)
(0.846841 0.513033 -5.72179e-21)
(0.871367 0.49089 -2.60747e-20)
(0.890305 0.464384 -9.5307e-21)
(0.905515 0.435947 -7.45283e-21)
(0.918504 0.407288 1.55765e-20)
(0.930656 0.379767 -2.27214e-20)
(0.943752 0.355532 -2.71161e-20)
(0.103463 0.0970507 7.26223e-21)
(0.268512 0.24672 -6.62644e-21)
(0.405619 0.360032 -1.9316e-20)
(0.51757 0.441123 4.78848e-21)
(0.607492 0.493795 -4.23693e-21)
(0.678601 0.522263 1.36216e-20)
(0.734056 0.531092 -4.30128e-21)
(0.776925 0.524877 1.0357e-20)
(0.810058 0.507934 -1.11484e-20)
(0.835968 0.484049 1.77277e-20)
(0.856745 0.456319 5.98652e-20)
(0.874007 0.427107 -4.28384e-20)
(0.889017 0.397974 -2.06549e-20)
(0.903196 0.369822 3.75343e-21)
(0.918471 0.345087 -1.18197e-21)
(0.0964736 0.099832 -2.01657e-20)
(0.250546 0.25205 -1.36511e-20)
(0.379635 0.36523 -5.76743e-21)
(0.485799 0.444559 2.66216e-20)
(0.571834 0.494583 -5.26422e-20)
(0.640695 0.520097 -2.81938e-21)
(0.695275 0.526102 3.09808e-20)
(0.738373 0.517468 -2.95587e-20)
(0.772583 0.498638 4.49655e-20)
(0.800178 0.473402 -2.00718e-20)
(0.823032 0.444777 -1.2368e-20)
(0.842553 0.414991 2.82334e-22)
(0.859844 0.385353 3.37383e-20)
(0.876338 0.355793 -3.03101e-20)
(0.891855 0.326642 1.19434e-20)
(0.0887821 0.101341 4.17102e-20)
(0.231081 0.254278 -2.5764e-20)
(0.351836 0.366131 5.64989e-21)
(0.452229 0.443017 -1.70495e-20)
(0.534601 0.490124 5.59125e-22)
(0.601553 0.512727 4.15668e-21)
(0.65563 0.516167 1.02351e-20)
(0.699304 0.505502 1.28414e-20)
(0.734869 0.485228 -4.45449e-20)
(0.764337 0.45909 -1.18384e-20)
(0.789355 0.429988 2.14237e-20)
(0.811159 0.400004 -4.9659e-20)
(0.830787 0.370329 3.14897e-20)
(0.849515 0.341007 1.81296e-20)
(0.86614 0.312702 -4.14713e-21)
(0.0805556 0.101499 1.12001e-20)
(0.210523 0.253253 3.52572e-20)
(0.322778 0.362589 8.21443e-21)
(0.417496 0.436388 -3.0098e-20)
(0.496461 0.480361 4.10179e-20)
(0.561831 0.500154 -4.09275e-20)
(0.615735 0.501339 -4.90803e-20)
(0.66027 0.489071 -6.95997e-20)
(0.697402 0.467835 1.01461e-19)
(0.728862 0.441285 1.77629e-20)
(0.756062 0.412194 -1.83245e-20)
(0.780063 0.382501 -1.68195e-20)
(0.801777 0.353303 3.27612e-20)
(0.822209 0.324771 -3.80354e-21)
(0.839966 0.29777 9.18352e-20)
(0.0719744 0.100252 -1.07676e-19)
(0.189299 0.248889 8.28881e-20)
(0.293039 0.354533 1.72062e-20)
(0.382257 0.424645 -3.85479e-20)
(0.458089 0.46532 7.43428e-20)
(0.522182 0.482447 -5.54838e-20)
(0.576197 0.48172 4.54774e-20)
(0.621824 0.468303 1.82292e-20)
(0.660685 0.446599 7.27428e-21)
(0.694222 0.420137 4.03745e-20)
(0.723624 0.391546 -2.13174e-20)
(0.74979 0.362632 -7.2513e-20)
(0.773511 0.334414 -4.55464e-20)
(0.795596 0.307148 6.7912e-21)
(0.81476 0.281705 3.56949e-21)
(0.0632272 0.0975779 9.45887e-21)
(0.167852 0.241163 -2.02081e-20)
(0.263207 0.341972 2.71414e-20)
(0.347166 0.407842 -1.968e-20)
(0.420152 0.445098 2.57023e-20)
(0.483249 0.45974 -3.48092e-20)
(0.537613 0.457466 4.5497e-20)
(0.584509 0.443357 -4.39823e-20)
(0.625207 0.421676 1.1007e-20)
(0.660871 0.395784 -3.04927e-22)
(0.692479 0.368148 -3.99868e-20)
(0.720791 0.340438 8.26271e-21)
(0.746493 0.313598 5.42962e-20)
(0.770266 0.287924 -7.34686e-20)
(0.790996 0.264195 2.2017e-20)
(0.0545061 0.0934802 -6.67381e-20)
(0.146626 0.230113 4.08719e-20)
(0.233867 0.324992 -3.38858e-20)
(0.312869 0.386112 5.35562e-20)
(0.383303 0.419867 -1.79256e-20)
(0.445653 0.432226 2.21007e-20)
(0.500555 0.428778 8.03651e-20)
(0.548838 0.414431 -9.62941e-20)
(0.591429 0.393244 1.06492e-20)
(0.629226 0.368374 -4.96276e-21)
(0.663015 0.342108 7.74744e-20)
(0.693433 0.315971 7.38888e-20)
(0.721083 0.290826 2.06955e-20)
(0.746548 0.266977 -1.79778e-20)
(0.768897 0.245072 1.99259e-21)
(0.0460024 0.0879921 5.0026e-20)
(0.126057 0.215839 -8.26349e-20)
(0.205587 0.303754 -3.42837e-21)
(0.279991 0.359666 -3.24523e-20)
(0.348166 0.389868 -1.88656e-20)
(0.409985 0.40016 -9.79444e-20)
(0.465559 0.395907 -5.54025e-20)
(0.515292 0.381757 -2.14445e-20)
(0.559778 0.361509 5.53821e-20)
(0.599667 0.338081 -1.02178e-19)
(0.635573 0.313559 6.98406e-21)
(0.668025 0.289319 1.25295e-20)
(0.697555 0.266135 -5.89484e-20)
(0.724674 0.2443 -1.12819e-20)
(0.748633 0.224322 -1.15117e-20)
(0.0379023 0.0811743 -7.58069e-20)
(0.106569 0.198501 -6.99044e-20)
(0.178915 0.278492 -3.87792e-21)
(0.249125 0.328785 4.70893e-20)
(0.315328 0.355407 1.37673e-20)
(0.376795 0.363853 1.28839e-19)
(0.433125 0.35915 3.99325e-20)
(0.484315 0.345608 9.35826e-20)
(0.530644 0.32671 -1.52711e-21)
(0.572535 0.305105 -2.76395e-20)
(0.610449 0.282663 -1.93919e-21)
(0.644825 0.260605 8.64625e-20)
(0.676134 0.239613 5.21067e-20)
(0.704825 0.219955 -7.03546e-21)
(0.730336 0.202007 -2.82336e-20)
(0.0303823 0.0731138 6.63125e-20)
(0.0885568 0.178314 6.38814e-20)
(0.154359 0.249506 -7.38041e-20)
(0.220819 0.293819 1.38895e-20)
(0.285331 0.316852 -7.8038e-21)
(0.346588 0.323666 -7.63884e-21)
(0.403708 0.318847 5.22899e-20)
(0.456305 0.306292 -7.66317e-20)
(0.504373 0.289119 1.7528e-20)
(0.548131 0.269679 6.73513e-20)
(0.587904 0.249616 -1.62568e-20)
(0.624055 0.229989 -5.90108e-20)
(0.657002 0.211388 -1.84819e-20)
(0.687148 0.194051 -7.63969e-20)
(0.714114 0.178237 3.98198e-20)
(0.0236059 0.0639223 -6.90989e-20)
(0.0723868 0.155545 -4.07956e-21)
(0.132386 0.217158 -5.92338e-21)
(0.195574 0.255179 -1.46379e-20)
(0.258665 0.274629 3.51082e-20)
(0.31982 0.280012 -6.89855e-20)
(0.377714 0.275382 2.41154e-20)
(0.431619 0.264152 -7.21124e-20)
(0.481274 0.249038 8.67269e-21)
(0.526718 0.232064 -2.95508e-20)
(0.568162 0.21464 2.56213e-20)
(0.605904 0.197661 2.7408e-20)
(0.640317 0.181626 -9.19182e-20)
(0.671767 0.166733 6.71437e-20)
(0.700051 0.153154 6.28597e-21)
(0.0177199 0.0537334 6.59717e-20)
(0.0583848 0.130508 -1.38145e-20)
(0.11341 0.181867 1.0697e-19)
(0.173832 0.213333 -8.86794e-21)
(0.23576 0.229213 -2.1902e-20)
(0.296887 0.233348 1.97253e-20)
(0.355498 0.229174 -1.04324e-20)
(0.410567 0.219566 2.20451e-20)
(0.461613 0.206797 -2.10843e-20)
(0.508525 0.19255 -6.04201e-20)
(0.551416 0.177986 -5.51409e-20)
(0.590533 0.163839 7.29488e-20)
(0.62621 0.150516 -2.3076e-20)
(0.658788 0.138178 -2.24599e-20)
(0.688221 0.126927 1.49607e-20)
(0.0128514 0.0427005 1.15512e-20)
(0.0468322 0.103558 -1.7984e-20)
(0.0977871 0.1441 -1.33954e-20)
(0.155971 0.168795 -2.67762e-20)
(0.216985 0.181121 1.18849e-20)
(0.278126 0.184165 -8.10823e-20)
(0.337359 0.180675 5.38387e-20)
(0.393408 0.172938 -3.91722e-20)
(0.445613 0.162754 -1.72963e-20)
(0.49374 0.151447 4.93689e-20)
(0.537826 0.139927 -3.3203e-20)
(0.578075 0.128765 -3.69644e-20)
(0.614792 0.118275 3.04242e-20)
(0.648298 0.108582 -7.35232e-21)
(0.678684 0.09974 7.37095e-20)
(0.00910543 0.0309935 4.50551e-21)
(0.0379599 0.0750829 -1.12762e-20)
(0.0858088 0.104363 -1.08222e-20)
(0.1423 0.122122 1.26708e-20)
(0.202638 0.130911 -1.07211e-20)
(0.263813 0.132992 2.16103e-20)
(0.32354 0.130366 -2.7266e-20)
(0.380353 0.124697 4.89833e-20)
(0.433455 0.117285 3.99959e-20)
(0.482517 0.109087 -8.71407e-21)
(0.52752 0.100755 6.3971e-23)
(0.568637 0.0926967 3.30582e-21)
(0.606151 0.0851357 -2.43318e-21)
(0.640368 0.0781599 -9.21301e-21)
(0.671488 0.0717936 -1.5722e-20)
(0.0065625 0.0187953 -6.04273e-21)
(0.0319451 0.0454989 -2.59316e-20)
(0.0776979 0.0631967 -1.60312e-21)
(0.133054 0.0738992 5.70846e-21)
(0.192945 0.0791665 1.49891e-20)
(0.254154 0.0803765 -2.04009e-20)