/*--------------------------------*- C++ -*----------------------------------*\
  =========                 |
  \\      /  F ield         | OpenFOAM: The Open Source CFD Toolbox
   \\    /   O peration     | Website:  https://openfoam.org
    \\  /    A nd           | Version:  7
     \\/     M anipulation  |
\*---------------------------------------------------------------------------*/
FoamFile
{
    version     2.0;
    format      ascii;
    class       volScalarField;
    location    "60";
    object      p;
}
// * * * * * * * * * * * * * * * * * * * * * * * * * * * * * * * * * * * * * //

dimensions      [0 2 -2 0 0 0 0];

internalField   nonuniform List<scalar> 
3700
(
-0.224781
-0.216163
-0.207747
-0.199643
-0.191852
-0.184413
-0.177355
-0.170684
-0.164397
-0.158487
-0.152946
-0.147765
-0.142934
-0.138443
-0.134281
-0.13044
-0.126908
-0.123676
-0.120733
-0.11807
-0.115679
-0.113551
-0.111678
-0.110055
-0.108674
-0.107531
-0.106622
-0.105943
-0.105492
-0.105267
-0.224306
-0.21604
-0.207996
-0.200234
-0.192755
-0.185598
-0.178794
-0.172351
-0.166266
-0.160535
-0.155153
-0.150111
-0.145401
-0.141016
-0.136947
-0.133185
-0.12972
-0.126545
-0.12365
-0.121028
-0.11867
-0.116569
-0.114719
-0.113114
-0.111748
-0.110616
-0.109716
-0.109043
-0.108596
-0.108373
-0.223496
-0.21553
-0.207824
-0.200383
-0.193203
-0.186326
-0.179779
-0.173568
-0.167694
-0.162153
-0.156939
-0.152047
-0.147471
-0.143203
-0.139236
-0.135564
-0.132177
-0.129069
-0.126232
-0.123659
-0.121343
-0.119277
-0.117457
-0.115876
-0.11453
-0.113414
-0.112526
-0.111862
-0.111421
-0.111201
-0.222388
-0.21469
-0.207314
-0.200184
-0.193289
-0.186678
-0.180379
-0.174399
-0.168736
-0.163386
-0.158346
-0.15361
-0.149173
-0.145029
-0.141173
-0.137597
-0.134296
-0.131262
-0.12849
-0.125973
-0.123706
-0.121682
-0.119897
-0.118345
-0.117023
-0.115927
-0.115054
-0.114402
-0.113968
-0.113751
-0.220992
-0.213536
-0.206506
-0.199685
-0.193063
-0.186706
-0.180647
-0.174891
-0.169435
-0.164275
-0.159408
-0.15483
-0.150535
-0.14652
-0.142778
-0.139304
-0.136094
-0.13314
-0.130439
-0.127983
-0.125769
-0.123792
-0.122046
-0.120527
-0.119233
-0.11816
-0.117304
-0.116664
-0.116239
-0.116026
-0.219308
-0.212062
-0.205416
-0.198901
-0.192538
-0.186428
-0.180605
-0.175068
-0.169816
-0.164844
-0.16015
-0.155729
-0.151578
-0.147692
-0.144068
-0.1407
-0.137584
-0.134714
-0.132087
-0.129698
-0.127541
-0.125613
-0.12391
-0.122429
-0.121165
-0.120116
-0.11928
-0.118654
-0.118238
-0.11803
-0.217302
-0.210284
-0.204066
-0.197828
-0.191713
-0.185851
-0.180262
-0.174943
-0.169892
-0.165106
-0.160583
-0.15632
-0.152314
-0.14856
-0.145055
-0.141796
-0.138777
-0.135995
-0.133446
-0.131125
-0.12903
-0.127155
-0.125498
-0.124055
-0.122824
-0.121802
-0.120987
-0.120377
-0.119971
-0.119769
-0.215018
-0.208243
-0.202472
-0.196457
-0.190593
-0.184983
-0.179628
-0.174524
-0.169672
-0.165071
-0.160719
-0.156615
-0.152754
-0.149134
-0.145751
-0.142602
-0.139684
-0.136992
-0.134523
-0.132275
-0.130243
-0.128424
-0.126815
-0.125414
-0.124217
-0.123224
-0.122432
-0.121838
-0.121444
-0.121247
-0.21243
-0.206078
-0.200623
-0.1948
-0.189203
-0.183844
-0.178717
-0.173824
-0.169169
-0.164752
-0.160572
-0.156626
-0.152912
-0.149426
-0.146167
-0.14313
-0.140314
-0.137714
-0.135329
-0.133155
-0.131189
-0.129428
-0.12787
-0.126512
-0.125352
-0.124389
-0.12362
-0.123045
-0.122662
-0.12247
-0.20965
-0.203799
-0.198459
-0.192899
-0.18757
-0.18245
-0.177542
-0.172856
-0.168396
-0.164163
-0.160154
-0.156367
-0.152799
-0.149449
-0.146314
-0.143391
-0.140679
-0.138174
-0.135873
-0.133775
-0.131877
-0.130176
-0.12867
-0.127357
-0.126236
-0.125303
-0.12456
-0.124003
-0.123632
-0.123447
-0.206716
-0.201253
-0.196051
-0.190787
-0.185705
-0.180811
-0.176118
-0.171637
-0.167371
-0.163319
-0.15948
-0.155851
-0.15243
-0.149216
-0.146206
-0.143398
-0.14079
-0.13838
-0.136166
-0.134146
-0.132317
-0.130677
-0.129225
-0.127958
-0.126876
-0.125976
-0.125258
-0.12472
-0.124361
-0.124183
-0.20359
-0.198429
-0.193442
-0.188451
-0.183609
-0.178937
-0.174458
-0.17018
-0.166106
-0.162234
-0.158564
-0.155092
-0.151817
-0.148739
-0.145854
-0.143161
-0.140659
-0.138345
-0.136219
-0.134277
-0.132518
-0.130941
-0.129543
-0.128324
-0.127281
-0.126414
-0.125722
-0.125204
-0.124859
-0.124686
-0.200258
-0.195372
-0.19063
-0.185896
-0.181288
-0.17684
-0.172573
-0.168498
-0.164614
-0.160921
-0.157418
-0.154102
-0.150973
-0.14803
-0.14527
-0.142693
-0.140297
-0.13808
-0.136041
-0.134178
-0.13249
-0.130976
-0.129634
-0.128462
-0.12746
-0.126627
-0.125962
-0.125463
-0.125131
-0.124965
-0.19673
-0.192113
-0.187618
-0.183132
-0.178757
-0.174532
-0.170478
-0.166603
-0.162908
-0.159392
-0.156055
-0.152894
-0.149911
-0.147102
-0.144467
-0.142005
-0.139714
-0.137594
-0.135643
-0.13386
-0.132244
-0.130793
-0.129507
-0.128383
-0.127423
-0.126623
-0.125985
-0.125506
-0.125188
-0.125029
-0.193023
-0.18867
-0.184418
-0.180176
-0.176032
-0.172029
-0.168185
-0.164509
-0.161
-0.15766
-0.154487
-0.151481
-0.148641
-0.145966
-0.143455
-0.141108
-0.138923
-0.136899
-0.135036
-0.133333
-0.131788
-0.130401
-0.129171
-0.128096
-0.127177
-0.126412
-0.1258
-0.125342
-0.125037
-0.124885
-0.189151
-0.185056
-0.181044
-0.177042
-0.173128
-0.169344
-0.165708
-0.162228
-0.158904
-0.155737
-0.152728
-0.149874
-0.147177
-0.144634
-0.142247
-0.140013
-0.137933
-0.136006
-0.134231
-0.132607
-0.131134
-0.129811
-0.128636
-0.12761
-0.126732
-0.126001
-0.125417
-0.12498
-0.124688
-0.124542
-0.185128
-0.181284
-0.17751
-0.173746
-0.170059
-0.166492
-0.163061
-0.159774
-0.156632
-0.153637
-0.150789
-0.148086
-0.14553
-0.143119
-0.140853
-0.138733
-0.136757
-0.134925
-0.133238
-0.131693
-0.130291
-0.129031
-0.127912
-0.126935
-0.126098
-0.125402
-0.124845
-0.124428
-0.12415
-0.124011
-0.180968
-0.177371
-0.173832
-0.170302
-0.166839
-0.163485
-0.160257
-0.15716
-0.154198
-0.151372
-0.148683
-0.146129
-0.143712
-0.141431
-0.139286
-0.137277
-0.135405
-0.133668
-0.132066
-0.1306
-0.129269
-0.128072
-0.127009
-0.12608
-0.125285
-0.124622
-0.124092
-0.123695
-0.123431
-0.123299
-0.176686
-0.17333
-0.170023
-0.166723
-0.163482
-0.160338
-0.157308
-0.154399
-0.151614
-0.148955
-0.146422
-0.144015
-0.141735
-0.139582
-0.137556
-0.135658
-0.133887
-0.132244
-0.130728
-0.129339
-0.128078
-0.126944
-0.125936
-0.125055
-0.1243
-0.123672
-0.123169
-0.122792
-0.122541
-0.122415
-0.172299
-0.16918
-0.1661
-0.163026
-0.160001
-0.157063
-0.154229
-0.151504
-0.148893
-0.146398
-0.144018
-0.141755
-0.13961
-0.137583
-0.135675
-0.133885
-0.132215
-0.130664
-0.129232
-0.127921
-0.126728
-0.125656
-0.124703
-0.123869
-0.123155
-0.12256
-0.122084
-0.121727
-0.121489
-0.12137
-0.167822
-0.164934
-0.162078
-0.159224
-0.156411
-0.153675
-0.151032
-0.148488
-0.146047
-0.143712
-0.141483
-0.139362
-0.137349
-0.135446
-0.133653
-0.13197
-0.130398
-0.128938
-0.12759
-0.126354
-0.12523
-0.124218
-0.123319
-0.122532
-0.121857
-0.121295
-0.120846
-0.120509
-0.120284
-0.120172
-0.163272
-0.160609
-0.157971
-0.155331
-0.152725
-0.150187
-0.14773
-0.145363
-0.143088
-0.14091
-0.138829
-0.136846
-0.134963
-0.133181
-0.131501
-0.129923
-0.128448
-0.127077
-0.125811
-0.124649
-0.123591
-0.12264
-0.121793
-0.121052
-0.120417
-0.119888
-0.119465
-0.119147
-0.118935
-0.118829
-0.158665
-0.15622
-0.153793
-0.151362
-0.148958
-0.146611
-0.144336
-0.142141
-0.140029
-0.138003
-0.136066
-0.134219
-0.132463
-0.130799
-0.129229
-0.127754
-0.126374
-0.125091
-0.123904
-0.122815
-0.121823
-0.12093
-0.120136
-0.119441
-0.118844
-0.118347
-0.117949
-0.11765
-0.117451
-0.117352
-0.154016
-0.151781
-0.149559
-0.147331
-0.145121
-0.14296
-0.140862
-0.138834
-0.13688
-0.135003
-0.133207
-0.131491
-0.129859
-0.128311
-0.126849
-0.125473
-0.124186
-0.122988
-0.12188
-0.120862
-0.119935
-0.1191
-0.118356
-0.117705
-0.117146
-0.11668
-0.116307
-0.116028
-0.115841
-0.115748
-0.149339
-0.147307
-0.145283
-0.143249
-0.141227
-0.139246
-0.137319
-0.135453
-0.133653
-0.131921
-0.13026
-0.128673
-0.127161
-0.125725
-0.124368
-0.123091
-0.121894
-0.120779
-0.119747
-0.118799
-0.117935
-0.117156
-0.116462
-0.115854
-0.115333
-0.114898
-0.114549
-0.114288
-0.114113
-0.114026
-0.144647
-0.14281
-0.140976
-0.139129
-0.137289
-0.135482
-0.13372
-0.13201
-0.130358
-0.128766
-0.127238
-0.125775
-0.124379
-0.123053
-0.121798
-0.120616
-0.119507
-0.118473
-0.117516
-0.116635
-0.115833
-0.115108
-0.114463
-0.113898
-0.113412
-0.113007
-0.112683
-0.112439
-0.112277
-0.112195
-0.139952
-0.138302
-0.13665
-0.134983
-0.133317
-0.131676
-0.130073
-0.128515
-0.127006
-0.125549
-0.124149
-0.122806
-0.121524
-0.120304
-0.119148
-0.118057
-0.117034
-0.116079
-0.115194
-0.11438
-0.113636
-0.112966
-0.112368
-0.111843
-0.111393
-0.111017
-0.110716
-0.11049
-0.110339
-0.110264
-0.135267
-0.133795
-0.132316
-0.13082
-0.129321
-0.12784
-0.12639
-0.124977
-0.123606
-0.12228
-0.121002
-0.119776
-0.118603
-0.117486
-0.116426
-0.115425
-0.114484
-0.113606
-0.112791
-0.11204
-0.111355
-0.110736
-0.110184
-0.1097
-0.109283
-0.108936
-0.108658
-0.108449
-0.108309
-0.108239
-0.130601
-0.129297
-0.127983
-0.126651
-0.125311
-0.123984
-0.12268
-0.121406
-0.120167
-0.118967
-0.117808
-0.116694
-0.115627
-0.114608
-0.11364
-0.112726
-0.111865
-0.111061
-0.110314
-0.109625
-0.108996
-0.108427
-0.10792
-0.107474
-0.107091
-0.106772
-0.106515
-0.106323
-0.106194
-0.10613
-0.125962
-0.124819
-0.123662
-0.122485
-0.121296
-0.120115
-0.118951
-0.11781
-0.116698
-0.115619
-0.114574
-0.113568
-0.112602
-0.111679
-0.1108
-0.109969
-0.109186
-0.108453
-0.107771
-0.107143
-0.106568
-0.106048
-0.105583
-0.105175
-0.104825
-0.104532
-0.104297
-0.10412
-0.104002
-0.103943
-0.121359
-0.120367
-0.119358
-0.118329
-0.117284
-0.116242
-0.115211
-0.114198
-0.113208
-0.112244
-0.111309
-0.110406
-0.109537
-0.108706
-0.107914
-0.107162
-0.106454
-0.10579
-0.105171
-0.1046
-0.104078
-0.103605
-0.103182
-0.10281
-0.102491
-0.102223
-0.102009
-0.101848
-0.10174
-0.101686
-0.116798
-0.115948
-0.11508
-0.11419
-0.113282
-0.112372
-0.111468
-0.110577
-0.109703
-0.108849
-0.108019
-0.107215
-0.106441
-0.105697
-0.104987
-0.104313
-0.103676
-0.103078
-0.102521
-0.102006
-0.101534
-0.101106
-0.100723
-0.100386
-0.100097
-0.0998542
-0.0996596
-0.0995134
-0.0994157
-0.0993669
-0.112283
-0.111568
-0.110832
-0.110075
-0.109296
-0.108512
-0.107729
-0.106954
-0.106191
-0.105443
-0.104713
-0.104004
-0.103319
-0.102659
-0.102029
-0.101428
-0.10086
-0.100326
-0.0998271
-0.0993653
-0.0989417
-0.0985573
-0.0982133
-0.0979103
-0.0976493
-0.0974309
-0.0972555
-0.0971236
-0.0970355
-0.0969914
-0.107821
-0.107232
-0.106622
-0.105989
-0.105334
-0.104668
-0.104001
-0.103336
-0.102678
-0.10203
-0.101396
-0.100778
-0.100178
-0.0995996
-0.0990445
-0.0985149
-0.0980126
-0.0975393
-0.0970967
-0.0966862
-0.0963091
-0.0959665
-0.0956594
-0.0953889
-0.0951555
-0.0949601
-0.0948031
-0.0946849
-0.094606
-0.0945665
-0.103414
-0.102945
-0.102453
-0.101938
-0.101399
-0.100846
-0.100288
-0.0997279
-0.0991703
-0.0986183
-0.098075
-0.0975432
-0.0970254
-0.096524
-0.0960412
-0.0955792
-0.0951399
-0.094725
-0.0943361
-0.0939747
-0.0936421
-0.0933395
-0.0930679
-0.0928283
-0.0926215
-0.0924481
-0.0923087
-0.0922038
-0.0921337
-0.0920986
-0.0990668
-0.0987098
-0.0983294
-0.0979258
-0.0974966
-0.0970514
-0.0965964
-0.096136
-0.0956737
-0.0952128
-0.0947562
-0.0943066
-0.0938666
-0.0934387
-0.0930249
-0.0926274
-0.0922482
-0.091889
-0.0915514
-0.0912369
-0.0909468
-0.0906824
-0.0904448
-0.0902348
-0.0900533
-0.089901
-0.0897785
-0.0896862
-0.0896245
-0.0895936
-0.0947814
-0.0945303
-0.0942553
-0.0939572
-0.0936319
-0.0932881
-0.0929312
-0.0925652
-0.0921934
-0.091819
-0.0914448
-0.0910734
-0.0907075
-0.0903494
-0.0900012
-0.0896652
-0.0893432
-0.089037
-0.0887483
-0.0884785
-0.088229
-0.0880011
-0.0877958
-0.0876141
-0.0874568
-0.0873246
-0.0872182
-0.087138
-0.0870843
-0.0870574
-0.0905606
-0.0904095
-0.0902341
-0.0900356
-0.0898088
-0.089561
-0.089297
-0.0890204
-0.0887345
-0.088442
-0.088146
-0.0878489
-0.0875532
-0.0872614
-0.0869756
-0.086698
-0.0864304
-0.0861746
-0.0859324
-0.0857051
-0.0854943
-0.085301
-0.0851265
-0.0849716
-0.0848374
-0.0847244
-0.0846333
-0.0845645
-0.0845185
-0.0844954
-0.0864069
-0.0863502
-0.0862691
-0.0861648
-0.0860311
-0.0858741
-0.0856981
-0.0855062
-0.0853015
-0.0850867
-0.0848647
-0.0846379
-0.0844089
-0.0841799
-0.0839532
-0.0837309
-0.0835149
-0.083307
-0.0831088
-0.0829219
-0.0827477
-0.0825873
-0.082442
-0.0823127
-0.0822003
-0.0821055
-0.0820289
-0.081971
-0.0819323
-0.0819128
-0.0823226
-0.0823551
-0.0823632
-0.082348
-0.0823025
-0.0822314
-0.0821386
-0.0820268
-0.0818988
-0.0817575
-0.0816054
-0.0814451
-0.0812791
-0.0811096
-0.0809388
-0.0807688
-0.0806016
-0.0804389
-0.0802825
-0.0801337
-0.0799941
-0.0798649
-0.0797472
-0.0796421
-0.0795504
-0.0794728
-0.07941
-0.0793625
-0.0793306
-0.0793146
-0.07831
-0.078427
-0.0785195
-0.0785887
-0.0786264
-0.0786366
-0.0786222
-0.078586
-0.0785306
-0.0784586
-0.0783725
-0.078275
-0.0781683
-0.0780549
-0.0779368
-0.0778162
-0.077695
-0.077575
-0.0774579
-0.0773452
-0.0772383
-0.0771384
-0.0770469
-0.0769645
-0.0768923
-0.076831
-0.0767812
-0.0767434
-0.076718
-0.0767052
-0.0743717
-0.0745686
-0.074741
-0.0748899
-0.0750063
-0.075093
-0.0751528
-0.0751879
-0.0752007
-0.0751939
-0.07517
-0.0751315
-0.0750807
-0.07502
-0.0749515
-0.0748773
-0.0747994
-0.0747195
-0.0746394
-0.0745605
-0.0744844
-0.0744122
-0.0743452
-0.0742843
-0.0742304
-0.0741844
-0.0741468
-0.0741182
-0.0740989
-0.0740892
-0.0705103
-0.0707827
-0.0710306
-0.0712549
-0.0714454
-0.0716043
-0.0717337
-0.0718358
-0.0719128
-0.0719673
-0.0720017
-0.0720185
-0.0720201
-0.0720088
-0.0719868
-0.0719561
-0.0719188
-0.0718765
-0.071831
-0.0717839
-0.0717365
-0.0716903
-0.0716462
-0.0716054
-0.0715688
-0.0715371
-0.0715109
-0.0714909
-0.0714773
-0.0714704
-0.0667285
-0.0670722
-0.0673915
-0.0676866
-0.0679469
-0.0681736
-0.0683684
-0.0685332
-0.0686703
-0.0687821
-0.068871
-0.0689396
-0.0689901
-0.069025
-0.0690464
-0.0690563
-0.0690568
-0.0690496
-0.0690365
-0.0690189
-0.0689985
-0.0689763
-0.0689537
-0.0689317
-0.0689111
-0.0688927
-0.0688773
-0.0688652
-0.068857
-0.0688528
-0.0630293
-0.0634401
-0.0638265
-0.0641881
-0.0645139
-0.064804
-0.06506
-0.0652834
-0.0654766
-0.0656417
-0.0657814
-0.0658981
-0.0659942
-0.0660719
-0.0661336
-0.0661813
-0.0662169
-0.0662423
-0.0662592
-0.0662692
-0.0662736
-0.0662739
-0.0662712
-0.0662666
-0.0662609
-0.0662549
-0.0662494
-0.0662448
-0.0662415
-0.0662398
-0.0594156
-0.0598894
-0.0603387
-0.0607626
-0.0611494
-0.0614986
-0.0618115
-0.0620894
-0.0623345
-0.0625492
-0.0627359
-0.0628971
-0.0630353
-0.0631527
-0.0632517
-0.0633342
-0.0634022
-0.0634577
-0.0635024
-0.0635377
-0.0635652
-0.0635862
-0.0636019
-0.0636133
-0.0636214
-0.0636269
-0.0636305
-0.0636328
-0.0636341
-0.0636346
-0.0558907
-0.0564233
-0.0569312
-0.057413
-0.0578564
-0.0582604
-0.0586259
-0.0589541
-0.0592471
-0.0595074
-0.0597373
-0.0599395
-0.0601164
-0.0602703
-0.0604034
-0.0605179
-0.0606158
-0.0606989
-0.0607689
-0.0608275
-0.0608761
-0.0609161
-0.0609487
-0.0609748
-0.0609955
-0.0610115
-0.0610236
-0.0610321
-0.0610376
-0.0610403
-0.0524578
-0.0530447
-0.0536068
-0.054142
-0.0546376
-0.055092
-0.0555057
-0.05588
-0.0562169
-0.0565188
-0.0567883
-0.0570279
-0.05724
-0.0574271
-0.0575914
-0.057735
-0.05786
-0.0579682
-0.0580614
-0.0581412
-0.058209
-0.0582663
-0.0583142
-0.0583537
-0.0583859
-0.0584115
-0.0584312
-0.0584455
-0.0584548
-0.0584594
-0.0491199
-0.0497568
-0.0503687
-0.0509527
-0.0514959
-0.0519961
-0.0524537
-0.0528698
-0.0532465
-0.0535862
-0.0538914
-0.0541647
-0.0544087
-0.0546257
-0.0548181
-0.054988
-0.0551374
-0.0552683
-0.0553823
-0.0554812
-0.0555664
-0.0556392
-0.0557009
-0.0557525
-0.0557951
-0.0558293
-0.0558559
-0.0558753
-0.0558881
-0.0558944
-0.0458802
-0.0465624
-0.0472193
-0.0478475
-0.0484335
-0.048975
-0.049472
-0.0499256
-0.0503379
-0.0507113
-0.0510484
-0.0513519
-0.0516243
-0.051868
-0.0520854
-0.0522787
-0.0524499
-0.052601
-0.0527336
-0.0528495
-0.0529501
-0.0530368
-0.0531108
-0.0531732
-0.053225
-0.0532669
-0.0532996
-0.0533237
-0.0533395
-0.0533473
-0.0427417
-0.0434644
-0.0441615
-0.0448289
-0.045453
-0.0460311
-0.0465629
-0.0470496
-0.0474933
-0.0478964
-0.0482616
-0.0485915
-0.0488889
-0.0491561
-0.0493955
-0.0496093
-0.0497996
-0.0499683
-0.0501173
-0.0502481
-0.0503622
-0.0504611
-0.050546
-0.0506179
-0.0506777
-0.0507264
-0.0507645
-0.0507926
-0.0508112
-0.0508204
-0.039707
-0.0404652
-0.0411974
-0.041899
-0.0425563
-0.043166
-0.043728
-0.0442433
-0.0447141
-0.0451428
-0.0455321
-0.0458849
-0.0462037
-0.0464911
-0.0467494
-0.0469809
-0.0471876
-0.0473716
-0.0475346
-0.0476783
-0.0478041
-0.0479135
-0.0480077
-0.0480878
-0.0481546
-0.0482091
-0.0482519
-0.0482836
-0.0483044
-0.0483148
-0.0367788
-0.0375672
-0.0383294
-0.03906
-0.0397453
-0.0403818
-0.0409692
-0.0415086
-0.042002
-0.0424522
-0.0428618
-0.0432337
-0.0435705
-0.0438748
-0.0441489
-0.0443952
-0.0446157
-0.0448125
-0.0449873
-0.0451418
-0.0452774
-0.0453957
-0.0454977
-0.0455847
-0.0456575
-0.0457169
-0.0457636
-0.0457982
-0.045821
-0.0458324
-0.033959
-0.0347722
-0.035559
-0.0363132
-0.0370212
-0.0376794
-0.0382873
-0.0388461
-0.0393579
-0.0398253
-0.0402512
-0.0406385
-0.0409897
-0.0413076
-0.0415945
-0.0418527
-0.0420844
-0.0422915
-0.0424758
-0.042639
-0.0427827
-0.0429081
-0.0430166
-0.0431091
-0.0431867
-0.0432502
-0.0433001
-0.0433371
-0.0433616
-0.0433737
-0.0312496
-0.0320821
-0.032888
-0.0336602
-0.0343856
-0.0350603
-0.0356839
-0.0362573
-0.036783
-0.0372635
-0.0377017
-0.0381005
-0.0384627
-0.0387909
-0.0390875
-0.0393548
-0.039595
-0.03981
-0.0400016
-0.0401716
-0.0403214
-0.0404524
-0.0405658
-0.0406627
-0.0407441
-0.0408106
-0.0408631
-0.040902
-0.0409277
-0.0409405
-0.0286518
-0.0294978
-0.0303168
-0.0311016
-0.0318388
-0.0325247
-0.0331587
-0.0337421
-0.034277
-0.0347663
-0.0352128
-0.0356195
-0.0359891
-0.0363242
-0.0366274
-0.036901
-0.037147
-0.0373675
-0.0375643
-0.037739
-0.0378931
-0.0380281
-0.038145
-0.038245
-0.0383291
-0.0383979
-0.0384522
-0.0384924
-0.0385191
-0.0385323
-0.0261667
-0.0270205
-0.027847
-0.0286384
-0.0293819
-0.0300736
-0.0307131
-0.0313015
-0.0318412
-0.032335
-0.0327858
-0.0331965
-0.03357
-0.0339089
-0.0342156
-0.0344926
-0.0347419
-0.0349655
-0.0351653
-0.0353427
-0.0354994
-0.0356367
-0.0357558
-0.0358577
-0.0359434
-0.0360137
-0.0360691
-0.0361102
-0.0361374
-0.0361509
-0.0237946
-0.0246499
-0.0254777
-0.0262699
-0.0270139
-0.0277059
-0.0283456
-0.0289342
-0.029474
-0.0299679
-0.0304189
-0.0308299
-0.0312037
-0.0315431
-0.0318504
-0.032128
-0.032378
-0.0326024
-0.0328029
-0.0329811
-0.0331387
-0.0332768
-0.0333966
-0.0334993
-0.0335856
-0.0336564
-0.0337122
-0.0337537
-0.0337811
-0.0337948
-0.0215358
-0.0223868
-0.02321
-0.023997
-0.0247358
-0.0254227
-0.0260575
-0.0266413
-0.0271766
-0.0276664
-0.0281136
-0.0285211
-0.0288918
-0.0292284
-0.0295333
-0.0298088
-0.0300569
-0.0302797
-0.0304789
-0.0306561
-0.0308128
-0.0309502
-0.0310695
-0.0311717
-0.0312576
-0.0313282
-0.0313839
-0.0314252
-0.0314525
-0.0314661
-0.0193892
-0.0202294
-0.0210416
-0.0218172
-0.0225448
-0.023221
-0.0238454
-0.0244195
-0.0249457
-0.025427
-0.0258663
-0.0262666
-0.0266307
-0.0269613
-0.0272608
-0.0275314
-0.0277753
-0.0279943
-0.0281901
-0.0283644
-0.0285185
-0.0286537
-0.0287711
-0.0288717
-0.0289564
-0.0290259
-0.0290808
-0.0291215
-0.0291485
-0.0291619
-0.0173547
-0.0181782
-0.0189733
-0.0197316
-0.0204423
-0.0211022
-0.0217111
-0.0222705
-0.0227831
-0.0232516
-0.0236791
-0.0240685
-0.0244227
-0.0247442
-0.0250355
-0.0252986
-0.0255358
-0.0257488
-0.0259393
-0.0261089
-0.0262588
-0.0263904
-0.0265047
-0.0266027
-0.0266852
-0.0267529
-0.0268063
-0.026846
-0.0268723
-0.0268853
-0.0154298
-0.0162296
-0.0170009
-0.0177353
-0.018423
-0.0190608
-0.0196488
-0.0201886
-0.0206828
-0.0211342
-0.021546
-0.0219209
-0.0222617
-0.022571
-0.0228512
-0.0231043
-0.0233324
-0.0235373
-0.0237205
-0.0238836
-0.0240278
-0.0241544
-0.0242644
-0.0243587
-0.0244381
-0.0245033
-0.0245548
-0.024593
-0.0246183
-0.024631
-0.0136138
-0.014384
-0.0151256
-0.0158303
-0.0164891
-0.0170994
-0.0176614
-0.0181768
-0.0186482
-0.0190785
-0.0194707
-0.0198276
-0.0201519
-0.0204461
-0.0207126
-0.0209532
-0.0211701
-0.0213648
-0.021539
-0.021694
-0.0218311
-0.0219515
-0.022056
-0.0221457
-0.0222212
-0.0222831
-0.0223321
-0.0223685
-0.0223925
-0.0224044
-0.0119024
-0.0126356
-0.0133402
-0.0140083
-0.014632
-0.0152088
-0.0157393
-0.0162253
-0.0166693
-0.0170743
-0.0174431
-0.0177785
-0.0180831
-0.0183593
-0.0186093
-0.0188351
-0.0190385
-0.0192211
-0.0193845
-0.0195298
-0.0196584
-0.0197712
-0.0198693
-0.0199534
-0.0200242
-0.0200823
-0.0201282
-0.0201623
-0.0201849
-0.0201962
-0.0102949
-0.0109856
-0.0116474
-0.0122732
-0.0128561
-0.0133943
-0.0138884
-0.0143404
-0.0147529
-0.0151287
-0.0154706
-0.0157814
-0.0160634
-0.016319
-0.0165503
-0.0167591
-0.0169471
-0.0171159
-0.0172668
-0.0174011
-0.0175199
-0.0176242
-0.0177147
-0.0177924
-0.0178578
-0.0179115
-0.0179539
-0.0179854
-0.0180063
-0.0180165
-0.00878472
-0.00942414
-0.0100352
-0.0106115
-0.0111471
-0.0116405
-0.0120928
-0.012506
-0.0128825
-0.0132251
-0.0135366
-0.0138194
-0.0140759
-0.0143082
-0.0145183
-0.0147078
-0.0148785
-0.0150317
-0.0151686
-0.0152905
-0.0153983
-0.0154928
-0.015575
-0.0156455
-0.0157048
-0.0157535
-0.015792
-0.0158206
-0.0158395
-0.0158491
-0.00737161
-0.00795496
-0.00850993
-0.00903129
-0.00951424
-0.0099581
-0.0103641
-0.0107342
-0.0110711
-0.0113772
-0.0116552
-0.0119074
-0.0121359
-0.0123428
-0.0125298
-0.0126985
-0.0128503
-0.0129865
-0.0131083
-0.0132166
-0.0133123
-0.0133964
-0.0134694
-0.013532
-0.0135847
-0.013628
-0.0136621
-0.0136875
-0.0137043
-0.0137124
-0.00604502
-0.00656175
-0.00705157
-0.00751013
-0.00793367
-0.00832194
-0.00867628
-0.00899876
-0.00929174
-0.00955766
-0.00979883
-0.0100174
-0.0102154
-0.0103944
-0.0105562
-0.0107021
-0.0108333
-0.010951
-0.0110562
-0.0111497
-0.0112324
-0.011305
-0.011368
-0.0114221
-0.0114676
-0.011505
-0.0115345
-0.0115564
-0.011571
-0.0115785
-0.00480692
-0.00525334
-0.00567346
-0.00606449
-0.00642401
-0.00675244
-0.00705135
-0.0073228
-0.00756901
-0.00779217
-0.00799436
-0.00817745
-0.00834314
-0.00849293
-0.00862818
-0.00875008
-0.00885971
-0.00895801
-0.00904583
-0.00912393
-0.00919297
-0.00925353
-0.00930614
-0.00935123
-0.0093892
-0.00942035
-0.00944496
-0.00946323
-0.00947528
-0.00948091
-0.00363895
-0.00400176
-0.00434163
-0.00465661
-0.00494511
-0.00520779
-0.00544623
-0.00566228
-0.00585789
-0.00603494
-0.00619515
-0.0063401
-0.00647116
-0.00658959
-0.00669646
-0.00679274
-0.00687931
-0.0069569
-0.00702622
-0.00708784
-0.00714231
-0.00719009
-0.00723159
-0.00726715
-0.0072971
-0.00732167
-0.00734108
-0.00735551
-0.00736518
-0.00737055
-0.00254849
-0.00282591
-0.00308259
-0.0033182
-0.00353237
-0.00372632
-0.00390175
-0.00406033
-0.00420369
-0.00433332
-0.00445054
-0.00455654
-0.00465234
-0.00473887
-0.00481693
-0.00488723
-0.00495042
-0.00500704
-0.0050576
-0.00510255
-0.00514227
-0.0051771
-0.00520735
-0.00523327
-0.00525509
-0.00527298
-0.0052871
-0.00529756
-0.00530435
-0.00530704
-0.00150116
-0.00167605
-0.00183703
-0.00198382
-0.00211633
-0.00223574
-0.0023434
-0.00244048
-0.0025281
-0.00260722
-0.0026787
-0.0027433
-0.00280166
-0.00285434
-0.00290185
-0.00294463
-0.00298307
-0.0030175
-0.00304825
-0.00307557
-0.00309971
-0.00312088
-0.00313926
-0.00315501
-0.00316826
-0.00317913
-0.0031877
-0.00319404
-0.0031984
-0.00320148
-0.000515059
-0.000588645
-0.000653316
-0.000709796
-0.0007591
-0.000802756
-0.000841804
-0.000876946
-0.000908708
-0.000937479
-0.000963555
-0.000987179
-0.00100856
-0.00102788
-0.0010453
-0.00106099
-0.00107508
-0.0010877
-0.00109895
-0.00110895
-0.00111778
-0.00112551
-0.00113222
-0.00113797
-0.0011428
-0.00114677
-0.00114989
-0.00115212
-0.00115315
-0.0011523
-0.229493
-0.228716
-0.227627
-0.226248
-0.224578
-0.222651
-0.220442
-0.217692
-0.215086
-0.2123
-0.209272
-0.206022
-0.202559
-0.198899
-0.195059
-0.191055
-0.1869
-0.18261
-0.1782
-0.173686
-0.169086
-0.164416
-0.159692
-0.154929
-0.150142
-0.145344
-0.140549
-0.135768
-0.13101
-0.126285
-0.121599
-0.116961
-0.112374
-0.107844
-0.103373
-0.0989663
-0.0946248
-0.0903515
-0.0861484
-0.0820176
-0.0779614
-0.0739819
-0.0700818
-0.0662637
-0.0625305
-0.0588852
-0.0553309
-0.051871
-0.0485087
-0.0452472
-0.0420896
-0.0390388
-0.0360974
-0.0332677
-0.0305517
-0.0279508
-0.0254662
-0.0230984
-0.0208477
-0.0187134
-0.016695
-0.0147908
-0.0129992
-0.0113178
-0.00974354
-0.00827366
-0.00690324
-0.00562897
-0.00444394
-0.0033427
-0.00231737
-0.00135471
-0.000449664
-0.233712
-0.232954
-0.231881
-0.230518
-0.22888
-0.226965
-0.224698
-0.222019
-0.219514
-0.216774
-0.213784
-0.210567
-0.207144
-0.203525
-0.199721
-0.195747
-0.191617
-0.187343
-0.182941
-0.178426
-0.173816
-0.169125
-0.16437
-0.159568
-0.154734
-0.149881
-0.145025
-0.140176
-0.135347
-0.130547
-0.125784
-0.121066
-0.116398
-0.111786
-0.107234
-0.102745
-0.0983214
-0.0939663
-0.0896815
-0.0854688
-0.0813301
-0.0772676
-0.0732833
-0.0693797
-0.0655593
-0.061825
-0.0581798
-0.054627
-0.0511696
-0.0478111
-0.0445547
-0.0414036
-0.0383606
-0.0354285
-0.0326096
-0.0299059
-0.0273189
-0.0248499
-0.0224993
-0.0202674
-0.0181539
-0.0161579
-0.0142784
-0.0125129
-0.0108608
-0.00931675
-0.00788164
-0.00654589
-0.00531361
-0.00416832
-0.00311902
-0.00213956
-0.00124278
-0.000393621
-0.236507
-0.235462
-0.234139
-0.232549
-0.230683
-0.228506
-0.22608
-0.223537
-0.220876
-0.217977
-0.214842
-0.211494
-0.207949
-0.204213
-0.200298
-0.196217
-0.191983
-0.187611
-0.183115
-0.178511
-0.173815
-0.169045
-0.164216
-0.159344
-0.154445
-0.149534
-0.144623
-0.139726
-0.134852
-0.130012
-0.125214
-0.120465
-0.11577
-0.111134
-0.106561
-0.102054
-0.0976162
-0.0932487
-0.0889536
-0.0847326
-0.0805876
-0.0765203
-0.0725328
-0.0686275
-0.0648068
-0.0610736
-0.0574308
-0.0538817
-0.0504294
-0.0470773
-0.0438287
-0.0406868
-0.0376544
-0.0347343
-0.0319288
-0.0292401
-0.0266695
-0.0242184
-0.0218873
-0.0196764
-0.0175857
-0.0156137
-0.0137605
-0.0120223
-0.0104004
-0.00888719
-0.00748729
-0.00618621
-0.00499614
-0.00388969
-0.00289301
-0.00195714
-0.00112924
-0.000332066
-0.23898
-0.237704
-0.236179
-0.234409
-0.232398
-0.230138
-0.227434
-0.224846
-0.222061
-0.219018
-0.215752
-0.212286
-0.20863
-0.20479
-0.200776
-0.196601
-0.192278
-0.187821
-0.183244
-0.178563
-0.173795
-0.168955
-0.164062
-0.15913
-0.154175
-0.149212
-0.144254
-0.139313
-0.1344
-0.129524
-0.124694
-0.119915
-0.115195
-0.110537
-0.105944
-0.101421
-0.0969681
-0.0925883
-0.0882829
-0.0840535
-0.0799017
-0.0758293
-0.0718382
-0.0679306
-0.064109
-0.0603761
-0.056735
-0.0531888
-0.0497406
-0.046394
-0.0431521
-0.0400182
-0.0369951
-0.0340856
-0.0312922
-0.0286168
-0.026061
-0.0236259
-0.0213124
-0.0191205
-0.0170502
-0.0151001
-0.0132706
-0.0115574
-0.00996292
-0.00847792
-0.00711032
-0.00584097
-0.0046902
-0.00361921
-0.00267291
-0.00177629
-0.00101745
-0.000265897
-0.241001
-0.23952
-0.237813
-0.235867
-0.233629
-0.231036
-0.228573
-0.225884
-0.22295
-0.219786
-0.216417
-0.212856
-0.209108
-0.205182
-0.201085
-0.196831
-0.192433
-0.187903
-0.183257
-0.178511
-0.173681
-0.168784
-0.163835
-0.158852
-0.153849
-0.148842
-0.143843
-0.138864
-0.133917
-0.129011
-0.124153
-0.11935
-0.114608
-0.10993
-0.105322
-0.100784
-0.0963193
-0.0919297
-0.0876163
-0.0833808
-0.0792245
-0.075149
-0.0711563
-0.0672485
-0.063428
-0.0596974
-0.0560598
-0.0525182
-0.0490759
-0.0457362
-0.0425024
-0.0393776
-0.0363648
-0.0334668
-0.030686
-0.0280243
-0.0254833
-0.0230643
-0.020768
-0.0185943
-0.0165437
-0.0146143
-0.0128071
-0.0111171
-0.00954807
-0.00808912
-0.00675125
-0.00551095
-0.00439657
-0.00335764
-0.00245919
-0.00159704
-0.000906898
-0.000193791
-0.243971
-0.242551
-0.240906
-0.239044
-0.236934
-0.234568
-0.232092
-0.22946
-0.22662
-0.22357
-0.220313
-0.216859
-0.213218
-0.209396
-0.205397
-0.201233
-0.196914
-0.192453
-0.187864
-0.183161
-0.178361
-0.17348
-0.168534
-0.16354
-0.158514
-0.153472
-0.148427
-0.143393
-0.138383
-0.133407
-0.128474
-0.123592
-0.118768
-0.114007
-0.109314
-0.104691
-0.100141
-0.0956668
-0.0912692
-0.0869499
-0.08271
-0.0785511
-0.0744746
-0.0704823
-0.0665763
-0.0627589
-0.0590327
-0.0554006
-0.0518656
-0.0484311
-0.0451002
-0.0418762
-0.0387623
-0.0357613
-0.0328761
-0.0301089
-0.0274617
-0.0249362
-0.0225335
-0.0202545
-0.0180989
-0.0160673
-0.0141578
-0.0123716
-0.0107035
-0.00915799
-0.00772307
-0.00641229
-0.00519842
-0.00411722
-0.00310689
-0.00225315
-0.00142034
-0.000798006
-0.000115115
-0.245241
-0.243669
-0.241899
-0.239939
-0.237754
-0.235245
-0.232704
-0.229991
-0.227066
-0.223937
-0.220609
-0.217089
-0.213385
-0.209502
-0.205446
-0.201228
-0.196857
-0.192347
-0.187711
-0.182964
-0.178122
-0.1732
-0.168216
-0.163186
-0.158126
-0.153051
-0.147976
-0.142914
-0.137877
-0.132877
-0.127922
-0.12302
-0.118178
-0.113401
-0.108694
-0.104059
-0.0994994
-0.095017
-0.0906133
-0.0862896
-0.0820472
-0.0778873
-0.0738115
-0.0698215
-0.0659191
-0.0621067
-0.0583869
-0.0547623
-0.0512361
-0.0478113
-0.0444912
-0.0412788
-0.0381774
-0.0351898
-0.0323186
-0.0295661
-0.0269344
-0.024425
-0.022039
-0.0197772
-0.0176394
-0.0156263
-0.0137358
-0.0119693
-0.0103215
-0.00879739
-0.00738431
-0.0060977
-0.00490742
-0.00385566
-0.00287025
-0.00205727
-0.00124828
-0.000692018
-2.96395e-05
-0.246095
-0.244408
-0.242533
-0.240451
-0.238112
-0.235691
-0.233085
-0.230282
-0.22728
-0.224086
-0.220701
-0.217129
-0.213375
-0.209445
-0.205345
-0.201085
-0.196675
-0.192128
-0.187457
-0.182676
-0.177802
-0.17285
-0.167837
-0.16278
-0.157693
-0.152593
-0.147495
-0.142411
-0.137353
-0.132333
-0.12736
-0.122442
-0.117584
-0.112794
-0.108075
-0.10343
-0.0988619
-0.0943729
-0.0899644
-0.0856378
-0.0813942
-0.077235
-0.0731615
-0.0691754
-0.0652786
-0.0614732
-0.0577617
-0.0541468
-0.0506314
-0.0472184
-0.0439111
-0.0407124
-0.0376254
-0.0346528
-0.0317972
-0.0290609
-0.0264457
-0.0239532
-0.0215844
-0.01934
-0.0172199
-0.0152247
-0.0133524
-0.0116043
-0.00997528
-0.00847049
-0.00707699
-0.00581148
-0.00464184
-0.0036154
-0.00265115
-0.00187417
-0.0010833
-0.000590354
6.27069e-05
-0.246606
-0.244832