/*--------------------------------*- C++ -*----------------------------------*\
  =========                 |
  \\      /  F ield         | OpenFOAM: The Open Source CFD Toolbox
   \\    /   O peration     | Website:  https://openfoam.org
    \\  /    A nd           | Version:  7
     \\/     M anipulation  |
\*---------------------------------------------------------------------------*/
FoamFile
{
    version     2.0;
    format      ascii;
    class       volVectorField;
    location    "65";
    object      U;
}
// * * * * * * * * * * * * * * * * * * * * * * * * * * * * * * * * * * * * * //

dimensions      [0 1 -1 0 0 0 0];

internalField   nonuniform List<vector> 
3500
(
(-0.00750606 0.00518796 -4.84726e-22)
(-0.0296268 0.00908433 9.69448e-22)
(0.0723769 0.0413897 -1.40928e-21)
(0.224911 0.0503674 1.85311e-21)
(0.377679 0.0419619 1.37402e-19)
(0.0723772 -0.0413978 1.40925e-21)
(0.224912 -0.0503773 -1.8531e-21)
(0.377679 -0.0419706 -1.37401e-19)
(0.484182 -0.0344243 -2.44987e-20)
(0.573018 -0.0286202 -4.15492e-20)
(0.643562 -0.024067 2.22398e-20)
(0.702406 -0.0204031 3.52799e-20)
(0.750688 -0.0173759 -3.24269e-20)
(0.791179 -0.0148011 -2.84327e-20)
(0.824979 -0.0127091 -1.95225e-20)
(0.0838525 -0.12294 1.66605e-19)
(0.238806 -0.149903 -1.18436e-19)
(0.389119 -0.124993 1.68674e-19)
(0.493327 -0.102561 -2.33983e-21)
(0.580386 -0.0853048 9.83966e-20)
(0.649602 -0.0717642 -8.09175e-21)
(0.707461 -0.0608637 -4.97947e-20)
(0.75504 -0.0518564 2.01285e-19)
(0.794884 -0.0442075 -4.72258e-20)
(0.827806 -0.0380189 -1.24787e-21)
(0.106315 -0.200794 -3.57582e-19)
(0.266142 -0.24581 4.16274e-20)
(0.411685 -0.205309 -2.27212e-19)
(0.511373 -0.16861 2.10426e-20)
(0.594928 -0.140361 1.95979e-19)
(0.661524 -0.118179 -1.32489e-19)
(0.717428 -0.100303 5.26105e-20)
(0.763613 -0.0855256 -4.90876e-20)
(0.802196 -0.073008 1.30343e-19)
(0.833451 -0.0629556 -1.73368e-19)
(0.138811 -0.272659 -5.71486e-21)
(0.306028 -0.335797 5.12265e-19)
(0.444758 -0.281178 2.79315e-19)
(0.537837 -0.231232 -1.35971e-19)
(0.616275 -0.192729 -1.59998e-19)
(0.679033 -0.16246 2.39757e-19)
(0.732053 -0.138047 -9.19934e-20)
(0.776178 -0.117864 -5.75306e-20)
(0.812955 -0.100811 -1.91881e-19)
(0.841897 -0.087226 2.44767e-19)
(0.179994 -0.336498 1.57003e-19)
(0.357157 -0.417696 -2.27209e-19)
(0.487403 -0.350993 -6.27108e-19)
(0.571986 -0.289247 2.98246e-19)
(0.643848 -0.241533 -2.65791e-19)
(0.701652 -0.203975 -3.75767e-19)
(0.750912 -0.173624 2.90047e-20)
(0.792364 -0.148465 -1.21549e-20)
(0.826905 -0.127207 2.73533e-19)
(0.853067 -0.110431 -1.27527e-19)
(0.228308 -0.390671 2.66045e-19)
(0.417864 -0.48947 -1.52289e-19)
(0.538413 -0.413296 7.74229e-19)
(0.612938 -0.341539 -3.62103e-19)
(0.677034 -0.285793 -3.54497e-20)
(0.728961 -0.241782 4.12374e-19)
(0.773686 -0.206118 1.26874e-19)
(0.81188 -0.176555 -1.05657e-19)
(0.843831 -0.151687 -1.76676e-19)
(0.866887 -0.132267 9.49044e-20)
(0.281873 -0.433502 -4.76779e-21)
(0.486126 -0.549365 4.0614e-19)
(0.596205 -0.467018 -4.45001e-19)
(0.659549 -0.38732 3.05526e-19)
(0.714884 -0.325012 -7.52686e-20)
(0.760081 -0.275765 -2.47028e-19)
(0.799484 -0.235845 4.06168e-19)
(0.833854 -0.202697 1.56497e-19)
(0.863115 -0.174598 -1.35896e-19)
(0.883115 -0.152533 -6.85032e-20)
(0.338282 -0.463422 -1.36536e-19)
(0.559687 -0.596179 -6.39859e-19)
(0.659117 -0.511371 6.21526e-19)
(0.710656 -0.425881 -1.65229e-19)
(0.756591 -0.358447 -3.61015e-19)
(0.794603 -0.304929 1.73684e-19)
(0.828289 -0.261276 3.54627e-20)
(0.858501 -0.224785 1.9033e-19)
(0.885024 -0.19387 -2.19605e-19)
(0.901916 -0.170294 1.46608e-19)
(0.394718 -0.47941 2.36167e-19)
(0.636032 -0.62918 -4.93132e-20)
(0.725425 -0.545843 -2.20349e-19)
(0.764993 -0.456824 8.94114e-20)
(0.801116 -0.385883 3.44345e-19)
(0.831571 -0.329456 -3.81271e-19)
(0.858955 -0.283457 -2.45535e-19)
(0.884048 -0.245256 -1.99629e-19)
(0.907233 -0.21299 1.60818e-19)
(0.921982 -0.188135 -1.20222e-19)
(0.448047 -0.48104 -5.32715e-20)
(0.712365 -0.647991 9.31091e-20)
(0.79332 -0.570165 5.60868e-20)
(0.821269 -0.479931 -1.4598e-19)
(0.847449 -0.407074 -2.39796e-20)
(0.870283 -0.348842 2.11982e-19)
(0.891322 -0.301069 -2.18755e-19)
(0.911141 -0.260871 3.09291e-19)
(0.931226 -0.22604 1.53809e-19)
(0.94645 -0.199849 -5.28826e-20)
(0.495112 -0.468695 -4.27188e-21)
(0.786028 -0.652955 -2.88755e-20)
(0.86101 -0.584272 -8.99675e-20)
(0.878195 -0.4952 -6.15276e-20)
(0.894591 -0.422011 5.98732e-20)
(0.909944 -0.363136 1.56206e-19)
(0.924829 -0.314598 -6.72367e-20)
(0.939086 -0.273999 -8.12252e-20)
(0.95393 -0.240693 -2.98062e-19)
(0.968294 -0.217153 1.68501e-19)
(0.531745 -0.442729 1.85876e-19)
(0.854021 -0.644497 1.82315e-20)
(0.926609 -0.588362 -2.91691e-20)
(0.934511 -0.502887 4.8836e-20)
(0.941577 -0.430887 -1.46726e-19)
(0.949713 -0.37248 -7.58451e-20)
(0.958763 -0.324059 -9.71055e-20)
(0.967658 -0.283657 1.77087e-19)
(0.976932 -0.250757 7.21688e-20)
(0.987689 -0.223575 -6.87168e-20)
(0.555611 -0.4064 9.9051e-20)
(0.913806 -0.624162 -1.43371e-19)
(0.988584 -0.582538 -2.0128e-20)
(0.989024 -0.503433 6.41486e-21)
(0.987525 -0.433985 3.59894e-20)
(0.988863 -0.37706 -9.35722e-21)
(0.992477 -0.329435 1.76496e-19)
(0.996631 -0.289439 -1.44822e-19)
(1.00091 -0.256686 -1.08106e-20)
(1.00727 -0.227745 1.97152e-19)
(0.565528 -0.362266 -3.71031e-19)
(0.96134 -0.592282 -1.07955e-19)
(1.04506 -0.567712 -1.02883e-20)
(1.04059 -0.497396 -9.1088e-22)
(1.03164 -0.431735 6.10594e-21)
(1.02675 -0.377222 7.88256e-20)
(1.02542 -0.33106 -1.14852e-19)
(1.0256 -0.291915 2.6729e-20)
(1.02594 -0.259746 -3.2648e-20)
(1.0282 -0.230846 -5.33436e-20)
(0.560374 -0.312019 8.96584e-21)
(0.994135 -0.550436 2.93281e-19)
(1.09402 -0.545133 3.07857e-20)
(1.08811 -0.485233 -1.68415e-20)
(1.07319 -0.424677 -2.29832e-22)
(1.06289 -0.373458 3.16383e-21)
(1.0571 -0.329465 1.93804e-20)
(1.05395 -0.291677 -2.80621e-20)
(1.05134 -0.26046 3.90867e-21)
(1.0501 -0.232523 -1.84227e-21)
(0.539074 -0.257943 7.34911e-20)
(1.01064 -0.500703 -1.37296e-19)
(1.13315 -0.515666 4.84662e-20)
(1.13064 -0.467738 6.28058e-20)
(1.11158 -0.413581 -4.53516e-20)
(1.09674 -0.36631 -3.38001e-21)
(1.08711 -0.32506 -1.22174e-20)
(1.08113 -0.289122 1.48214e-20)
(1.07624 -0.259006 -2.11477e-20)
(1.07214 -0.232683 2.08189e-20)
(0.50143 -0.20282 1.0108e-19)
(1.00907 -0.444713 1.73941e-19)
(1.16041 -0.480311 9.90581e-20)
(1.16706 -0.445944 -1.06822e-19)
(1.14646 -0.399095 9.76599e-20)
(1.12805 -0.356282 -4.19185e-20)
(1.11516 -0.318342 -5.84937e-21)
(1.10662 -0.284579 -5.31914e-21)
(1.10007 -0.255671 1.65901e-21)
(1.09359 -0.231397 -1.18408e-20)
(0.448581 -0.14954 2.60129e-19)
(0.987522 -0.384027 -1.36855e-19)
(1.17398 -0.440094 7.82417e-20)
(1.19596 -0.42067 7.21429e-20)
(1.17718 -0.381934 -3.18388e-20)
(1.15664 -0.343988 4.89757e-20)
(1.14119 -0.309609 1.50078e-20)
(1.13028 -0.278374 1.57455e-20)
(1.12228 -0.250733 8.7752e-21)
(1.11442 -0.228757 3.81054e-21)
(0.383223 -0.100874 -9.51674e-20)
(0.944278 -0.320291 -1.32363e-19)
(1.17181 -0.395937 -8.74429e-20)
(1.21595 -0.392569 -8.01216e-20)
(1.20302 -0.362774 -2.80011e-20)
(1.18214 -0.329979 3.64808e-20)
(1.16499 -0.299235 -1.46947e-20)
(1.15219 -0.270741 2.97682e-21)
(1.14286 -0.244818 -7.9528e-21)
(1.13435 -0.224928 4.79182e-21)
(0.309635 -0.0594097 2.46309e-20)
(0.878034 -0.255291 -5.38082e-21)
(1.15137 -0.348679 2.21121e-20)
(1.2253 -0.362081 1.45406e-20)
(1.22324 -0.342139 1.26798e-20)
(1.20425 -0.314789 -2.93876e-20)
(1.18639 -0.287697 1.31101e-20)
(1.17238 -0.26203 -1.21942e-20)
(1.1618 -0.238002 -2.99118e-21)
(1.15259 -0.21994 -3.96687e-21)
(0.233365 -0.0274643 1.02532e-21)
(0.788362 -0.191099 -7.80414e-22)
(1.10983 -0.299226 -5.22268e-21)
(1.22163 -0.329467 6.68818e-20)
(1.23668 -0.320304 -1.81396e-20)
(1.22266 -0.298861 -2.08717e-20)
(1.20534 -0.27544 3.81113e-21)
(1.19066 -0.252534 -3.83598e-21)
(1.17938 -0.230337 -9.05185e-21)
(1.16926 -0.213873 -1.99419e-20)
(0.160484 -0.00665857 -9.85801e-20)
(0.676202 -0.130291 2.13854e-20)
(1.04414 -0.24841 -1.83531e-19)
(1.20163 -0.294773 -6.95568e-20)
(1.24147 -0.297309 -2.57597e-20)
(1.23672 -0.282437 -7.60572e-21)
(1.22177 -0.262821 -1.95176e-20)
(1.20725 -0.242597 -1.8593e-20)
(1.19527 -0.221941 5.65046e-21)
(1.18489 -0.206841 1.38497e-20)
(0.096579 0.00296473 1.66759e-19)
(0.546156 -0.0765569 -9.35404e-20)
(0.951671 -0.197254 1.43842e-19)
(1.16086 -0.257816 7.36636e-20)
(1.23447 -0.272851 -4.32751e-20)
(1.24522 -0.265581 1.3363e-19)
(1.23538 -0.250019 -2.79745e-20)
(1.22194 -0.232455 5.12674e-20)
(1.21024 -0.213356 3.52862e-21)
(1.19947 -0.198901 5.08427e-20)
(0.0455344 0.00344223 -1.02987e-19)
(0.408341 -0.0347382 4.276e-19)
(0.830767 -0.147142 -9.38917e-20)
(1.09383 -0.218454 -7.97325e-20)
(1.21104 -0.246413 2.03677e-19)
(1.24547 -0.247905 -9.05126e-20)
(1.24543 -0.237119 -4.69125e-20)
(1.23498 -0.222281 -2.52536e-20)
(1.22333 -0.204692 -9.59368e-20)
(1.21376 -0.190526 3.43862e-20)
(0.00856568 -0.00166477 -1.86431e-19)
(0.277089 -0.00955094 -2.53912e-19)
(0.68288 -0.100403 2.00637e-19)
(0.994758 -0.176969 5.63976e-20)
(1.16439 -0.217166 -1.45468e-19)
(1.23323 -0.228799 -1.47312e-19)
(1.24961 -0.223653 7.84614e-21)
(1.2455 -0.212067 -9.58821e-20)
(1.23605 -0.196485 1.45962e-19)
(1.2259 -0.181328 -2.0985e-20)
(-0.0156879 -0.00882901 8.29202e-20)
(0.16583 -0.00193634 3.96749e-19)
(0.517142 -0.0613403 -4.98159e-20)
(0.859484 -0.134267 1.40214e-20)
(1.08598 -0.184347 -3.3095e-20)
(1.20064 -0.206783 1.93078e-19)
(1.24425 -0.209207 6.54092e-20)
(1.25191 -0.201188 1.11315e-19)
(1.24597 -0.18839 -1.01776e-19)
(1.23945 -0.17271 6.11939e-20)
(-0.030089 -0.0158709 -6.13778e-19)
(0.0812725 -0.00713545 1.56062e-19)
(0.353382 -0.0357662 -1.99266e-19)
(0.690415 -0.093366 2.40269e-19)
(0.966225 -0.147282 -5.93359e-20)
(1.13732 -0.180573 -3.38747e-19)
(1.22021 -0.191718 1.81365e-19)
(1.25082 -0.18952 -6.78338e-20)
(1.25383 -0.180073 6.16656e-20)
(1.24787 -0.162717 1.84524e-19)
(-0.0374131 -0.0220015 2.874e-19)
(0.0226977 -0.0184646 -4.32131e-19)
(0.213714 -0.0265975 -5.34816e-20)
(0.504041 -0.0607921 -2.66876e-19)
(0.80095 -0.108113 -3.29653e-19)
(1.02805 -0.14784 1.62391e-19)
(1.16634 -0.170256 -2.01893e-19)
(1.23129 -0.173757 -2.42971e-20)
(1.25479 -0.17181 -1.89488e-20)
(1.25876 -0.153329 -2.35793e-19)
(-0.039769 -0.0270484 2.66945e-19)
(-0.0145517 -0.0312979 -1.02219e-19)
(0.109342 -0.0306155 9.74972e-20)
(0.329116 -0.0431313 -1.44607e-19)
(0.603839 -0.0738748 1.42278e-19)
(0.863575 -0.110684 2.63675e-19)
(1.05941 -0.14014 1.56292e-19)
(1.18266 -0.154568 -7.74564e-21)
(1.2353 -0.157709 -1.74171e-19)
(1.26007 -0.143284 1.39742e-19)
(-0.0388765 -0.0311291 3.1059e-19)
(-0.0359009 -0.0435014 9.95892e-20)
(0.0389945 -0.041615 1.66989e-19)
(0.189372 -0.0409202 4.90602e-20)
(0.407924 -0.0530497 -2.38675e-19)
(0.657774 -0.0765735 7.15714e-20)
(0.887957 -0.105533 -2.72073e-19)
(1.06814 -0.122348 3.76579e-19)
(1.1882 -0.144656 2.25923e-19)
(1.23262 -0.120158 6.03246e-20)
(-0.0360684 -0.0344156 -4.39447e-19)
(-0.0461833 -0.0541708 -1.09387e-19)
(-0.00450459 -0.0545287 -1.27489e-19)
(0.0913934 -0.0487014 7.41871e-20)
(0.245345 -0.0475907 3.01518e-19)
(0.447738 -0.0555722 -2.42731e-19)
(0.672147 -0.0742802 -1.05372e-19)
(0.879821 -0.0873409 -1.32969e-19)
(1.0527 -0.111524 -4.24661e-19)
(1.19646 -0.116433 1.07865e-19)
(-0.0323076 -0.0369588 -1.79328e-19)
(-0.0493821 -0.0627452 3.92389e-20)
(-0.0293045 -0.0662484 1.95952e-20)
(0.028596 -0.0599052 -1.20026e-19)
(0.128045 -0.0524363 -1.92169e-19)
(0.272006 -0.0516699 5.07751e-19)
(0.450398 -0.0510963 7.13749e-20)
(0.660045 -0.0648427 2.21892e-19)
(0.81406 -0.0699914 -4.3722e-20)
(1.07753 -0.0958892 1.67156e-19)
(-0.0282561 -0.0386622 3.19921e-19)
(-0.0485234 -0.0686439 7.15698e-20)
(-0.0424554 -0.0748341 -3.38255e-19)
(-0.00998582 -0.0697765 1.88496e-19)
(0.0501341 -0.0608008 3.0683e-19)
(0.14484 -0.05664 -2.99017e-19)
(0.260544 -0.0401796 2.55098e-19)
(0.453033 -0.0569132 -1.38631e-19)
(0.535646 -0.0401318 2.01753e-19)
(0.869133 -0.0681763 -3.1691e-19)
(-0.024259 -0.0392939 6.15133e-20)
(-0.0456273 -0.0712432 -4.61227e-19)
(-0.0492018 -0.079065 4.48323e-19)
(-0.0342076 -0.0754987 -2.56723e-20)
(-0.000972933 -0.0671642 -1.49191e-19)
(0.0573229 -0.0611069 -5.14873e-21)
(0.122644 -0.0426273 -3.9284e-19)
(0.273419 -0.0519412 3.53152e-19)
(0.304133 -0.0310491 -2.82514e-19)
(0.60796 -0.0467707 1.96947e-19)
(-0.0204086 -0.038468 9.22434e-20)
(-0.041964 -0.0700249 -4.63112e-20)
(-0.0529397 -0.0782946 -1.58685e-19)
(-0.05084 -0.0758243 -1.94848e-19)
(-0.0364706 -0.0687728 4.41653e-20)
(-0.00425843 -0.0617172 -2.16865e-19)
(0.0292576 -0.0486364 -7.22229e-21)
(0.127477 -0.0451306 -3.28492e-20)
(0.143414 -0.037648 9.75139e-20)
(0.348515 -0.0342734 4.53841e-21)
(-0.0167607 -0.0357692 -2.6454e-19)
(-0.0382918 -0.0647349 1.8938e-19)
(-0.0554749 -0.0724104 2.66488e-19)
(-0.0636001 -0.0705808 -1.14941e-20)
(-0.0630006 -0.064844 8.80188e-20)
(-0.050132 -0.0579347 -8.27519e-20)
(-0.0375002 -0.0500857 3.30932e-19)
(0.0173902 -0.0387068 -1.06597e-19)
(0.0279445 -0.0424647 -3.38803e-19)
(0.139609 -0.0213283 1.60245e-19)
(-0.0134383 -0.0309397 -1.86574e-20)
(-0.0350271 -0.0554284 -2.13141e-19)
(-0.0575396 -0.0617831 -1.68587e-19)
(-0.073876 -0.0603326 1.64287e-19)
(-0.0838435 -0.0557103 -1.21171e-19)
(-0.0861422 -0.049913 5.51968e-20)
(-0.0865534 -0.0448856 4.13649e-20)
(-0.0623306 -0.032362 1.93239e-20)
(-0.0612867 -0.0370159 1.00448e-19)
(-0.00597628 -0.0106941 -1.89503e-19)
(-0.0106378 -0.0239845 1.45885e-19)
(-0.0324039 -0.0425145 1.84203e-19)
(-0.0592675 -0.0471586 5.74635e-21)
(-0.0819431 -0.0460214 -1.47723e-19)
(-0.0999778 -0.0425567 2.41232e-20)
(-0.113061 -0.0383016 3.79081e-20)
(-0.122743 -0.0341478 -5.75321e-20)
(-0.120154 -0.0252113 3.00027e-20)
(-0.126081 -0.0269291 3.07956e-20)
(-0.104596 -0.00674204 -3.1654e-20)
(-0.00859171 -0.0152162 -2.08034e-20)
(-0.0305712 -0.0267448 2.87059e-20)
(-0.0605517 -0.0295382 -1.28172e-19)
(-0.0875972 -0.0287847 3.3314e-20)
(-0.111125 -0.0266227 -7.34542e-20)
(-0.130991 -0.0240029 1.98999e-20)
(-0.147253 -0.0210911 3.58478e-20)
(-0.15716 -0.0161589 -6.41616e-20)
(-0.168067 -0.0157346 -7.43781e-21)
(-0.165043 -0.00525654 2.86616e-20)
(-0.00750728 -0.005229 -1.4327e-20)
(-0.0296281 -0.0091452 3.0596e-21)
(-0.0612406 -0.0100725 6.83121e-20)
(-0.090522 -0.00980262 2.71243e-20)
(-0.116821 -0.00906124 -1.59667e-20)
(-0.13996 -0.00816359 9.06425e-21)
(-0.159672 -0.00711011 -1.21454e-20)
(-0.175066 -0.0055555 1.87321e-20)
(-0.188865 -0.00512155 1.24077e-20)
(-0.194131 -0.00200602 5.23223e-24)
(0.850301 -0.0114708 4.31406e-20)
(0.869908 -0.0091954 -2.59384e-20)
(0.886554 -0.00826373 9.67313e-21)
(0.900985 -0.00684279 -6.5217e-21)
(0.913365 -0.0060942 1.33188e-20)
(0.92423 -0.00515443 -7.46361e-21)
(0.93363 -0.00457688 4.6994e-22)
(0.941943 -0.00393193 8.32875e-21)
(0.949195 -0.00349089 -1.83724e-22)
(0.955643 -0.00303318 3.392e-22)
(0.961308 -0.00269444 -4.02576e-21)
(0.966364 -0.00235835 4.98581e-21)
(0.97084 -0.00209419 -8.46179e-21)
(0.974858 -0.00184223 3.31062e-21)
(0.978435 -0.00164146 6.10414e-21)
(0.981627 -0.00145753 -8.74016e-21)
(0.984446 -0.00129758 3.29108e-22)
(0.986954 -0.0011483 3.51297e-21)
(0.989167 -0.00101603 -3.48248e-21)
(0.991124 -0.000892691 2.24892e-21)
(0.99284 -0.000781726 -1.37684e-21)
(0.994342 -0.000677839 3.43943e-21)
(0.99564 -0.000582691 -1.3011e-21)
(0.996753 -0.000492889 -2.87788e-21)
(0.997689 -0.000409162 1.35558e-21)
(0.99846 -0.000329383 2.93669e-22)
(0.999073 -0.000253715 3.99182e-22)
(0.999532 -0.000180376 9.73329e-22)
(0.999838 -0.00010846 2.40654e-23)
(0.999994 -3.61625e-05 3.55271e-22)
(0.852225 -0.0343539 -1.56916e-20)
(0.871414 -0.0275082 -2.88254e-20)
(0.887733 -0.0247155 4.56285e-20)
(0.90197 -0.0204513 1.31743e-21)
(0.914142 -0.018218 -2.14042e-20)
(0.924879 -0.0154067 2.06537e-20)
(0.934143 -0.0136859 -5.1729e-20)
(0.942371 -0.0117586 8.97468e-21)
(0.949536 -0.0104438 -1.15962e-20)
(0.955927 -0.00907613 4.73075e-20)
(0.961536 -0.00806549 -2.14984e-20)
(0.966554 -0.00706175 -1.53364e-21)
(0.97099 -0.00627502 1.36577e-21)
(0.974974 -0.00552442 8.69723e-22)
(0.978516 -0.00492439 4.13644e-21)
(0.98169 -0.00436812 3.41194e-21)
(0.984498 -0.00388599 -1.19366e-20)
(0.986996 -0.0034367 8.25734e-22)
(0.9892 -0.00304093 -9.10255e-21)
(0.991149 -0.00267149 7.62654e-21)
(0.992859 -0.00233977 -1.43818e-21)
(0.994355 -0.00202876 -2.9211e-21)
(0.995648 -0.00174413 -2.69048e-21)
(0.996757 -0.00147528 -1.06962e-21)
(0.99769 -0.0012247 3.42863e-21)
(0.998459 -0.000985841 6.14231e-22)
(0.999069 -0.00075933 -3.24919e-21)
(0.999528 -0.000539742 1.30798e-22)
(0.999836 -0.000324473 -7.37303e-22)
(0.999994 -0.000108151 -8.59927e-22)
(0.856119 -0.0570151 -2.133e-20)
(0.874468 -0.0455684 8.86285e-20)
(0.890104 -0.0409393 -4.29631e-20)
(0.903936 -0.0338369 9.85726e-20)
(0.915687 -0.0301576 -1.11537e-20)
(0.926165 -0.0254979 -1.00812e-19)
(0.935159 -0.022667 3.57725e-21)
(0.943217 -0.0194779 3.69075e-20)
(0.950208 -0.0173119 3.22716e-20)
(0.956488 -0.0150485 -4.22585e-20)
(0.961985 -0.0133806 5.07612e-20)
(0.966928 -0.0117197 -1.27513e-20)
(0.971284 -0.0104203 9.59324e-22)
(0.975203 -0.00917375 8.67992e-21)
(0.978683 -0.008169 -3.49134e-20)
(0.981825 -0.00723407 6.55185e-21)
(0.984607 -0.00644556 1.80061e-20)
(0.987082 -0.00569847 1.29333e-20)
(0.989266 -0.00504593 -1.84699e-20)
(0.9912 -0.00443216 1.45082e-20)
(0.992896 -0.00388321 2.84009e-21)
(0.994381 -0.00336685 -7.51974e-21)
(0.995665 -0.00289505 1.11187e-20)
(0.996766 -0.00244869 -7.58095e-21)
(0.997692 -0.00203291 2.34043e-21)
(0.998456 -0.00163627 1.95958e-21)
(0.999063 -0.00126022 2.44028e-21)
(0.999521 -0.000895492 1.79627e-22)
(0.999831 -0.000538102 3.51246e-21)
(0.999993 -0.000179252 1.26205e-21)
(0.86205 -0.0792845 -5.20322e-20)
(0.879115 -0.0632551 1.10553e-19)
(0.893679 -0.0568637 -7.7388e-20)
(0.906878 -0.0469415 1.21387e-19)
(0.917978 -0.0418711 -1.17547e-19)
(0.928069 -0.0353884 7.50449e-20)
(0.936656 -0.031487 -1.97608e-20)
(0.944466 -0.0270586 9.13686e-21)
(0.9512 -0.0240688 -6.73043e-20)
(0.957316 -0.0209271 2.53768e-21)
(0.962648 -0.0186209 -1.42912e-20)
(0.967482 -0.0163161 9.52561e-20)
(0.971728 -0.0145158 -5.8462e-20)
(0.975562 -0.0127767 -1.0289e-21)
(0.978951 -0.0113634 -2.068e-20)
(0.982022 -0.0100443 6.15726e-21)
(0.984759 -0.00895539 -3.0563e-21)
(0.987209 -0.00792006 -9.62451e-21)
(0.989364 -0.0070159 1.61001e-20)
(0.991278 -0.0061642 -7.14819e-21)
(0.992952 -0.00540205 1.20448e-20)
(0.994422 -0.00468447 -5.8542e-21)
(0.995691 -0.00402856 -6.81879e-21)
(0.996782 -0.00340742 9.68973e-21)
(0.997698 -0.00282898 -9.0134e-21)
(0.998453 -0.00227683 8.03222e-22)
(0.999054 -0.00175326 9.18595e-22)
(0.999511 -0.00124523 -8.54745e-21)
(0.999825 -0.000747749 4.5148e-21)
(0.999992 -0.000248882 -1.98207e-21)
(0.87005 -0.100899 1.57577e-19)
(0.885384 -0.0803527 6.02554e-20)
(0.898472 -0.072332 -1.66653e-19)
(0.910804 -0.0596319 -5.97008e-20)
(0.921017 -0.053257 3.55445e-20)
(0.930588 -0.0449942 2.19149e-20)
(0.938629 -0.0400813 2.68964e-20)
(0.946111 -0.0344479 2.33867e-20)
(0.952503 -0.0306731 -8.97406e-20)
(0.958405 -0.0266781 1.10304e-20)
(0.963519 -0.023759 6.37876e-20)
(0.96821 -0.0208284 -4.29554e-20)
(0.972314 -0.0185461 -4.19283e-20)
(0.976049 -0.0163306 1.01301e-20)
(0.97933 -0.0145214 1.53771e-20)
(0.982305 -0.0128111 1.09005e-20)
(0.984964 -0.0113911 -1.91706e-20)
(0.987377 -0.0100856 1.2646e-20)
(0.989496 -0.00894167 2.16377e-20)
(0.991381 -0.00785618 -1.24341e-20)
(0.99303 -0.00688758 7.73848e-21)
(0.994479 -0.00597359 -4.41893e-20)
(0.99573 -0.00513759 2.2205e-20)
(0.996806 -0.00434577 -4.02914e-21)
(0.997708 -0.00360856 -8.18168e-21)
(0.998453 -0.00290383 7.93432e-21)
(0.999047 -0.00223537 -6.27601e-21)
(0.999501 -0.00158657 8.088e-21)
(0.999819 -0.000951803 -7.7306e-21)
(0.999991 -0.000316452 -1.65103e-21)
(0.880154 -0.121697 -1.40169e-19)
(0.893308 -0.0968002 -2.19404e-20)
(0.904492 -0.0873899 2.41062e-19)
(0.915697 -0.0719906 -1.77938e-19)
(0.924774 -0.0644137 1.27445e-19)
(0.933691 -0.0544044 2.10455e-20)
(0.941047 -0.0485232 3.36568e-21)
(0.948126 -0.0417038 -3.22556e-20)
(0.954097 -0.0371663 -7.47565e-20)
(0.959739 -0.0323322 4.35963e-20)
(0.964586 -0.0288147 3.00501e-20)
(0.969103 -0.0252694 -1.69362e-20)
(0.973035 -0.022516 3.85172e-20)
(0.976655 -0.0198372 -5.10086e-20)
(0.979824 -0.0176497 4.77385e-20)
(0.982705 -0.0155622 -4.92504e-20)
(0.985242 -0.013799 3.75071e-20)
(0.987572 -0.0121708 1.35102e-20)
(0.989659 -0.0107825 -2.53374e-20)
(0.991515 -0.00949597 -3.30554e-21)
(0.993129 -0.00832729 2.1366e-21)
(0.994555 -0.00722336 1.43143e-20)
(0.995783 -0.00621608 -1.7283e-20)
(0.99684 -0.00525997 6.42769e-21)
(0.997726 -0.00436749 5.0573e-21)
(0.998459 -0.00351342 1.05927e-20)
(0.999042 -0.00270347 -3.54031e-22)
(0.999493 -0.00191711 -3.58585e-21)
(0.999813 -0.00114855 3.19957e-21)
(0.99999 -0.000381335 3.54906e-21)
(0.892279 -0.141394 3.4962e-20)
(0.902826 -0.1123 -3.85382e-20)
(0.911707 -0.101692 2.15568e-20)
(0.921577 -0.0836571 9.09739e-21)
(0.929279 -0.0750022 1.18951e-19)
(0.93742 -0.0633287 -1.75146e-19)
(0.943948 -0.0565723 1.67091e-19)
(0.950544 -0.0486372 -7.32425e-20)
(0.956007 -0.043399 4.29983e-20)
(0.961337 -0.0377753 -5.14517e-20)
(0.965864 -0.0336991 -4.71787e-21)
(0.970172 -0.029572 -6.14452e-20)
(0.973897 -0.0263732 -7.00558e-21)
(0.977377 -0.0232536 7.35958e-20)
(0.980416 -0.0207122 -3.84323e-21)
(0.98321 -0.0182826 -3.16813e-20)
(0.985658 -0.0162157 4.23908e-20)
(0.987879 -0.0142622 -2.74001e-20)
(0.989844 -0.0125863 2.03925e-20)
(0.991656 -0.0110435 -4.33986e-20)
(0.993254 -0.00969204 2.53204e-20)
(0.994649 -0.00843514 3.86755e-21)
(0.995849 -0.00726912 1.72307e-20)
(0.996888 -0.00614137 -1.5959e-20)
(0.997756 -0.00509863 -1.67657e-20)
(0.998473 -0.00410156 8.83301e-21)
(0.999043 -0.00315478 9.90042e-21)
(0.999488 -0.00223407 -3.71867e-21)
(0.99981 -0.00133595 -4.8604e-21)
(0.99999 -0.000442773 3.92976e-21)
(0.90652 -0.159863 -9.71294e-20)
(0.914164 -0.126789 3.22634e-20)
(0.920238 -0.115552 4.28387e-21)
(0.928478 -0.0951651 1.14627e-19)
(0.934493 -0.0856119 5.47532e-20)
(0.941698 -0.072368 5.17648e-20)
(0.947252 -0.0647394 -9.65343e-20)
(0.953289 -0.0556952 -1.42751e-19)
(0.958172 -0.0497236 -2.34128e-21)
(0.963148 -0.0432948 1.78727e-19)
(0.967315 -0.0386309 2.70114e-20)
(0.97139 -0.0339056 3.08234e-21)
(0.974882 -0.0302412 -8.88134e-20)
(0.978202 -0.0266677 -6.91577e-20)
(0.981087 -0.0237588 2.19459e-20)
(0.983776 -0.0209842 9.63362e-20)
(0.986129 -0.0186352 -1.05785e-21)
(0.988288 -0.0164107 -6.61729e-20)
(0.990176 -0.0144604 5.58873e-21)
(0.991875 -0.0126353 6.05856e-20)
(0.993369 -0.0110406 -7.25436e-20)
(0.994737 -0.00954946 7.3047e-21)
(0.995941 -0.00820348 1.22962e-22)
(0.996963 -0.00695923 1.06322e-20)
(0.997799 -0.00579194 7.74216e-21)
(0.998498 -0.00466725 -1.55036e-20)
(0.999054 -0.00358377 7.46479e-21)
(0.999492 -0.00253378 2.91336e-21)
(0.99981 -0.00151117 2.79235e-22)
(0.99999 -0.000499784 -5.43889e-23)
(0.922775 -0.177173 -2.0053e-19)
(0.926832 -0.140239 2.02138e-19)
(0.92989 -0.128196 -6.52685e-20)
(0.936315 -0.1053 -3.29959e-20)
(0.940546 -0.0948316 4.16675e-20)
(0.946701 -0.0801017 -5.81953e-21)
(0.951183 -0.0717568 1.44472e-19)
(0.956556 -0.0617542 -1.66955e-19)
(0.960779 -0.0552087 1.4671e-19)
(0.965325 -0.048109 -1.70821e-19)
(0.969073 -0.0429829 -2.28923e-20)
(0.972862 -0.0377619 -1.83212e-20)
(0.97608 -0.033723 1.47901e-20)
(0.979205 -0.0297681 6.74009e-20)
(0.981906 -0.0265524 -1.74926e-20)
(0.98446 -0.0234759 6.53877e-21)
(0.986688 -0.0208772 3.16813e-20)
(0.988755 -0.0184209 -4.63382e-20)
(0.990566 -0.0162809 7.82988e-21)
(0.992216 -0.0142588 -6.73886e-21)
(0.993657 -0.0124371 5.11617e-21)
(0.99494 -0.0107233 1.54196e-21)
(0.996032 -0.00919374 7.74981e-21)
(0.997003 -0.00777556 -9.75451e-21)
(0.997838 -0.00644755 4.91572e-22)
(0.998535 -0.0051823 -1.19296e-20)
(0.999083 -0.00398151 1.15294e-20)
(0.999506 -0.00281089 -3.29778e-21)
(0.999818 -0.00167139 -1.76734e-21)
(0.999991 -0.000550792 -4.9944e-21)
(0.943377 -0.19113 1.19463e-19)
(0.943129 -0.151434 9.44233e-20)
(0.942288 -0.139641 -2.40305e-19)
(0.946235 -0.116223 -8.06445e-21)
(0.948 -0.105209 -2.84481e-20)
(0.952694 -0.0896822 1.0432e-19)
(0.955789 -0.0804603 -6.1131e-20)
(0.960342 -0.0695561 1.05356e-20)
(0.963752 -0.062187 2.0714e-20)
(0.967802 -0.0542884 3.96963e-20)
(0.971052 -0.0484752 -7.83807e-20)
(0.974522 -0.0426011 2.091e-19)
(0.977422 -0.0380092 -9.50138e-20)
(0.980335 -0.0335349 -4.92945e-20)
(0.982826 -0.029878 2.09455e-20)
(0.985233 -0.0263906 5.04099e-21)
(0.987319 -0.0234398 -2.78791e-20)
(0.989282 -0.020659 1.10385e-20)
(0.990992 -0.0182414 1.65675e-20)
(0.992569 -0.0159727 4.26722e-22)
(0.993944 -0.0139514 -4.20356e-20)
(0.99518 -0.0120525 9.34032e-21)
(0.996237 -0.0103192 7.81882e-21)
(0.997166 -0.00866492 2.55386e-20)
(0.997944 -0.00714824 4.7319e-21)
(0.998593 -0.00571439 -1.9589e-20)
(0.999115 -0.0043718 2.06933e-20)
(0.999533 -0.00306701 -6.31661e-21)
(0.999833 -0.00181308 1.23202e-21)
(0.999995 -0.00059712 -5.2555e-21)
(0.966912 -0.194167 0)
(0.963005 -0.150682 0)
(0.95679 -0.143165 0)
(0.958519 -0.116967 0)
(0.957857 -0.107818 0)
(0.961186 -0.0908923 0)
(0.962685 -0.0824277 0)
(0.966249 -0.0708833 0)
(0.968579 -0.0638155 0)
(0.971927 -0.0556062 0)
(0.974445 -0.0499068 0)
(0.977417 -0.043865 0)
(0.979815 -0.0393047 0)
(0.982369 -0.0347255 0)
(0.984512 -0.0310597 0)
(0.986659 -0.0274941 0)
(0.988499 -0.0245117 0)
(0.990271 -0.0216614 0)
(0.991804 -0.0191952 0)
(0.993239 -0.0168575 0)
(0.994483 -0.0147806 0)
(0.995616 -0.0128161 0)
(0.996587 -0.0110246 0)
(0.997444 -0.00931408 0)
(0.998155 -0.00772226 0)
(0.998752 -0.00619109 0)
(0.999228 -0.00473405 0)
(0.999602 -0.0033233 0)
(0.99986 -0.00196887 0)
(0.999996 -0.000651656 0)
(0.984456 -0.176089 0)
(0.979446 -0.146446 0)
(0.972804 -0.138994 0)
(0.971684 -0.116209 0)
(0.969591 -0.10795 0)
(0.970881 -0.0918774 0)
(0.971182 -0.0842104 0)
(0.973353 -0.0727932 0)
(0.974733 -0.066153 0)
(0.977107 -0.0578427 0)
(0.978894 -0.052291 0)
(0.981171 -0.0460791 0)
(0.983016 -0.0415066 0)
(0.985067 -0.0367429 0)
(0.986794 -0.0329865 0)
(0.988572 -0.029243 0)
(0.990101 -0.0261391 0)
(0.9916 -0.0231258 0)
(0.9929 -0.0205305 0)
(0.994131 -0.0180454 0)
(0.9952 -0.0158415 0)
(0.996182 -0.0137425 0)
(0.997027 -0.0118339 0)
(0.997777 -0.0100112 0)
(0.998401 -0.00831536 0)
(0.998929 -0.00667971 0)
(0.999346 -0.00512251 0)
(0.99967 -0.00360851 0)
(0.999885 -0.00214735 0)
(0.999997 -0.00071085 0)
(0.998249 -0.162848 0)
(0.992434 -0.140502 0)
(0.98614 -0.133321 0)
(0.983338 -0.114648 0)
(0.980449 -0.106712 0)
(0.980055 -0.0923739 0)
(0.979444 -0.0849718 0)
(0.980321 -0.0742228 0)
(0.980904 -0.0677371 0)
(0.982317 -0.0596297 0)
(0.98345 -0.0541209 0)
(0.985017 -0.0479112 0)
(0.986342 -0.0433028 0)
(0.987866 -0.0384575 0)
(0.989186 -0.0346193 0)
(0.990572 -0.0307629 0)
(0.991787 -0.0275557 0)
(0.992994 -0.0244217 0)
(0.994054 -0.0217166 0)
(0.995067 -0.0191132 0)
(0.995954 -0.016799 0)
(0.996774 -0.0145857 0)
(0.997483 -0.0125701 0)
(0.998115 -0.0106414 0)
(0.998646 -0.00884548 0)
(0.999096 -0.0071128 0)
(0.999453 -0.00546402 0)
(0.999725 -0.00385754 0)
(0.999905 -0.00230078 0)
(0.999998 -0.000762487 0)
(1.00969 -0.152563 0)
(1.00343 -0.133976 0)
(0.997243 -0.127424 0)
(0.993453 -0.111746 0)
(0.990024 -0.10432 0)
(0.988448 -0.091683 0)
(0.987077 -0.0845653 0)
(0.986901 -0.0746655 0)
(0.98677 -0.0683327 0)
(0.98734 -0.0606136 0)
(0.987868 -0.0551674 0)
(0.988779 -0.0491054 0)
(0.989612 -0.0444963 0)
(0.990634 -0.0396756 0)
(0.991563 -0.0357962 0)
(0.992566 -0.0319032 0)
(0.993474 -0.0286313 0)
(0.99439 -0.0254322 0)
(0.995213 -0.0226511 0)
(0.996007 -0.0199707 0)
(0.996713 -0.0175758 0)
(0.997369 -0.0152809 0)
(0.997942 -0.0131827 0)
(0.998455 -0.0111706 0)
(0.998889 -0.00929179 0)
(0.999259 -0.00747781 0)
(0.999552 -0.00574972 0)
(0.999776 -0.00406391 0)
(0.999923 -0.00242612 0)
(0.999998 -0.000804581 0)
(1.01925 -0.143296 0)
(1.01275 -0.127233 0)
(1.0066 -0.121527 0)
(1.00216 -0.10795 0)
(0.998333 -0.101207 0)
(0.995928 -0.0899991 0)
(0.993951 -0.0833183 0)
(0.992954 -0.0742543 0)
(0.992204 -0.0681707 0)
(0.992064 -0.0609026 0)
(0.992044 -0.0555849 0)
(0.992377 -0.0497448 0)
(0.992751 -0.0451862 0)
(0.993313 -0.0404558 0)
(0.99387 -0.0365773 0)
(0.994513 -0.0327008 0)
(0.995125 -0.0293997 0)
(0.995762 -0.026177 0)
(0.996354 -0.0233492 0)
(0.996934 -0.0206243 0)
(0.997461 -0.0181737 0)
(0.997956 -0.015824 0)
(0.998396 -0.0136652 0)
(0.998791 -0.0115923 0)
(0.999129 -0.00964995 0)
(0.999418 -0.00777279 0)
(0.999648 -0.00598049 0)
(0.999824 -0.00423015 0)
(0.999939 -0.00252639 0)
(0.999998 -0.000838174 0)
(1.02721 -0.134524 0)
(1.02056 -0.120469 0)
(1.01449 -0.115612 0)
(1.00962 -0.103663 0)
(1.00552 -0.0976405 0)
(1.00251 -0.0876156 0)
(1.00007 -0.0814555 0)
(0.998428 -0.07316 0)
(0.997163 -0.0674079 0)
(0.996434 -0.0606002 0)
(0.995932 -0.0554769 0)
(0.995762 -0.0498951 0)
(0.995719 -0.0454391 0)
(0.995868 -0.0408405 0)
(0.996078 -0.037005 0)
(0.99639 -0.0331835 0)
(0.99672 -0.0298874 0)
(0.997094 -0.0266739 0)
(0.997462 -0.0238278 0)
(0.997838 -0.0210857 0)
(0.998191 -0.0186028 0)
(0.998531 -0.0162208 0)
(0.998839 -0.0140216 0)
(0.99912 -0.0119079 0)
(0.999364 -0.00992024 0)
(0.999573 -0.00799743 0)
(0.999742 -0.0061568 0)
(0.99987 -0.0043575 0)
(0.999955 -0.00260307 0)
(0.999999 -0.000863901 0)
(1.03379 -0.126149 0)
(1.02708 -0.113784 0)
(1.02114 -0.109674 0)
(1.01598 -0.0990903 0)
(1.01171 -0.0937507 0)
(1.00826 -0.0847418 0)
(1.00546 -0.0791169 0)
(1.00332 -0.0715243 0)
(1.00164 -0.0661471 0)
(1.00043 -0.0597939 0)
(0.999511 -0.0549131 0)
(0.998908 -0.0496097 0)
(0.998493 -0.0453004 0)
(0.998275 -0.0408627 0)
(0.998167 -0.037108 0)
(0.998175 -0.0333714 0)
(0.998243 -0.0301123 0)
(0.998373 -0.0269358 0)
(0.998528 -0.0240981 0)
(0.99871 -0.021363 0)
(0.998897 -0.0188704 0)
(0.999087 -0.0164771 0)
(0.999268 -0.0142567 0)
(0.999439 -0.0121206 0)
(0.999591 -0.0101049 0)
(0.999724 -0.00815292 0)
(0.999832 -0.0062797 0)
(0.999915 -0.0044469 0)
(0.999971 -0.00265699 0)
(0.999999 -0.000882065 0)
(1.03921 -0.118149 0)
(1.0325 -0.107236 0)
(1.0267 -0.10375 0)
(1.02139 -0.094351 0)
(1.01702 -0.0896273 0)
(1.01325 -0.0815206 0)
(1.0102 -0.0764095 0)
(1.00767 -0.0694666 0)
(1.00565 -0.0644764 0)
(1.00404 -0.0585673 0)
(1.00277 -0.0539569 0)
(1.0018 -0.0489441 0)
(1.00106 -0.0448133 0)