/*--------------------------------*- C++ -*----------------------------------*\
  =========                 |
  \\      /  F ield         | OpenFOAM: The Open Source CFD Toolbox
   \\    /   O peration     | Website:  https://openfoam.org
    \\  /    A nd           | Version:  7
     \\/     M anipulation  |
\*---------------------------------------------------------------------------*/
FoamFile
{
    version     2.0;
    format      ascii;
    class       surfaceScalarField;
    location    "35.001";
    object      phi;
}
// * * * * * * * * * * * * * * * * * * * * * * * * * * * * * * * * * * * * * //

dimensions      [0 3 -1 0 0 0 0];

internalField   nonuniform List<scalar> 
22580
(
-0.00108266
2.44718e-05
-0.0011051
2.25167e-05
-0.00112575
2.07305e-05
-0.00114472
1.90587e-05
-0.00116214
1.75141e-05
-0.00117812
1.60835e-05
-0.00119275
1.47513e-05
-0.00120613
1.35034e-05
-0.00121834
1.23261e-05
-0.00122941
1.12069e-05
-0.00123942
1.01342e-05
-0.00124839
9.09759e-06
-0.00125635
8.08822e-06
-0.00126333
7.099e-06
-0.00126934
6.12521e-06
-0.00127441
5.16463e-06
-0.00127854
4.2169e-06
-0.00128176
3.28169e-06
-0.00128407
2.35721e-06
-0.00128548
1.44135e-06
-0.00128601
5.28266e-07
-0.00128569
-3.46926e-07
-0.00128455
-1.1847e-06
-0.00128258
-2.05427e-06
-0.00127975
-2.93901e-06
-0.00127605
-3.83523e-06
-0.00127148
-4.7422e-06
-0.00126603
-5.66007e-06
-0.00125968
-6.58925e-06
-0.00125242
-7.53014e-06
-0.00124423
-8.48294e-06
-0.00123512
-9.44767e-06
-0.00122505
-1.04242e-05
-0.00121402
-1.14116e-05
-0.00120202
-1.24081e-05
-0.00118902
-1.34152e-05
-0.00117503
-1.44321e-05
-0.00116001
-1.54582e-05
-0.00114397
-1.64926e-05
-0.00112689
-1.75341e-05
-0.00110876
-1.85814e-05
-0.00108957
-1.96333e-05
-0.0010693
-2.06884e-05
-0.00104796
-2.17451e-05
-0.00102554
-2.28018e-05
-0.00100204
-2.3857e-05
-0.00097744
-2.49092e-05
-0.000951757
-2.59565e-05
-0.000924994
-2.69928e-05
-0.000897154
-2.80206e-05
-0.000868244
-2.90383e-05
-0.000838273
-3.00443e-05
-0.000807251
-3.10372e-05
-0.000775191
-3.20154e-05
-0.000742108
-3.29772e-05
-0.000708019
-3.39215e-05
-0.000672942
-3.48482e-05
-0.000636902
-3.5749e-05
-0.000599924
-3.66278e-05
-0.000562033
-3.74842e-05
-0.000523254
-3.83168e-05
-0.000483616
-3.91246e-05
-0.000443148
-3.99068e-05
-0.000401876
-4.0668e-05
-0.000359841
-4.1393e-05
-0.000317076
-4.20912e-05
-0.000273613
-4.27618e-05
-0.000229487
-4.34037e-05
-0.00018473
-4.40211e-05
-0.000139383
-4.46028e-05
-9.34817e-05
-4.51555e-05
-4.70611e-05
-4.56801e-05
-1.56636e-07
-4.61754e-05
4.71881e-05
-4.66337e-05
9.49439e-05
-4.70687e-05
0.000143074
-4.74725e-05
0.000191542
-4.78458e-05
0.000240313
-4.81892e-05
0.000289353
-4.85029e-05
0.000338628
-4.87872e-05
0.000388105
-4.90423e-05
0.000437753
-4.92686e-05
0.00048754
-4.94664e-05
0.000537437
-4.96361e-05
0.000587414
-4.97782e-05
0.000637444
-4.98932e-05
0.000687499
-4.99816e-05
0.000737554
-5.0044e-05
0.000787585
-5.00809e-05
0.000837568
-5.00932e-05
0.000887482
-5.00816e-05
0.000937304
-5.00468e-05
0.000987017
-4.99897e-05
0.0010366
-4.99111e-05
0.00108604
-4.98121e-05
0.00113532
-4.96937e-05
0.00118442
-4.9557e-05
0.00123334
-4.94031e-05
0.00128205
-4.92332e-05
0.00133056
-4.90488e-05
0.00137884
-4.88513e-05
0.00142691
-4.86421e-05
0.00147474
-4.84228e-05
0.00152234
-4.81954e-05
0.0015697
-4.79616e-05
5.98587e-07
0.00161683
-4.77235e-05
5.95851e-07
0.00166372
-4.74837e-05
5.88689e-07
0.00171039
-4.72443e-05
5.77226e-07
0.00175684
-4.70091e-05
5.61605e-07
0.00180308
-4.67802e-05
5.41963e-07
0.00184912
-4.65644e-05
5.18427e-07
0.00189499
-4.63608e-05
4.91118e-07
0.00194072
-4.61875e-05
4.60091e-07
0.00198632
-4.60302e-05
4.25439e-07
0.00203188
-4.5938e-05
3.86902e-07
0.0020774
-4.5873e-05
3.44935e-07
0.002123
-4.58894e-05
2.9703e-07
0.00216888
-4.61334e-05
2.50056e-07
-4.6096e-05
1.75257e-07
-0.00103552
4.80026e-05
-0.00105718
4.41706e-05
-0.00107711
4.06649e-05
-0.00109541
3.73595e-05
-0.00111219
3.42949e-05
-0.00112756
3.14508e-05
-0.00114161
2.87989e-05
-0.00115442
2.63124e-05
-0.00116606
2.39655e-05
-0.00117658
2.17339e-05
-0.00118604
1.95955e-05
-0.00119448
1.75299e-05
-0.00120191
1.55196e-05
-0.00120836
1.35506e-05
-0.00121385
1.16134e-05
-0.00121839
9.70406e-06
-0.00122199
7.8222e-06
-0.00122468
5.96725e-06
-0.00122646
4.13571e-06
-0.00122734
2.32582e-06
-0.00122732
5.08993e-07
-0.0012265
-1.16634e-06
-0.00122484
-2.84233e-06
-0.00122234
-4.56011e-06
-0.00121898
-6.30247e-06
-0.00121475
-8.06522e-06
-0.00120964
-9.84798e-06
-0.00120365
-1.16517e-05
-0.00119676
-1.34778e-05
-0.00118896
-1.53275e-05
-0.00118024
-1.72016e-05
-0.00117059
-1.91007e-05
-0.00115999
-2.1025e-05
-0.00114843
-2.29734e-05
-0.0011359
-2.4941e-05
-0.00112238
-2.69326e-05
-0.00110786
-2.89472e-05
-0.00109234
-3.09836e-05
-0.00107579
-3.30403e-05
-0.00105821
-3.51151e-05
-0.00103958
-3.72058e-05
-0.00101991
-3.93099e-05
-0.000999172
-4.14247e-05
-0.000977369
-4.35472e-05
-0.000954497
-4.56744e-05
-0.000930551
-4.78027e-05
-0.000905531
-4.99294e-05
-0.000879435
-5.20518e-05
-0.000852275
-5.41532e-05
-0.000824054
-5.62413e-05
-0.00079478
-5.83125e-05
-0.000764462
-6.03625e-05
-0.000733111
-6.23879e-05
-0.000700742
-6.43851e-05
-0.000667369
-6.63502e-05
-0.00063301
-6.82801e-05
-0.000597681
-7.01772e-05
-0.000561412
-7.20178e-05
-0.000524227
-7.38128e-05
-0.000486151
-7.55606e-05
-0.00044721
-7.72578e-05
-0.000407433
-7.89012e-05
-0.000366851
-8.04894e-05
-0.000325485
-8.20333e-05
-0.000283381
-8.34968e-05
-0.000240571
-8.49014e-05
-0.000197088
-8.62448e-05
-0.000152969
-8.75227e-05
-0.000108238
-8.87523e-05
-6.29434e-05
-8.98976e-05
-1.71185e-05
-9.09805e-05
2.91993e-05
-9.19979e-05
7.59737e-05
-9.29498e-05
0.000123173
-9.38334e-05
0.000170758
-9.4653e-05
0.000218692
-9.54067e-05
0.000266941
-9.6095e-05
0.000315471
-9.67189e-05
0.000364247
-9.72792e-05
0.000413236
-9.77768e-05
0.000462407
-9.82129e-05
0.000511727
-9.85888e-05
0.000561167
-9.89057e-05
0.000610696
-9.91651e-05
0.000660286
-9.93684e-05
0.00070991
-9.95173e-05
0.000759542
-9.96135e-05
0.000809156
-9.96586e-05
0.00085873
-9.96546e-05
0.00090824
-9.96033e-05
0.000957665
-9.95067e-05
0.00100699
-9.93669e-05
0.00105618
-9.91859e-05
0.00110524
-9.89661e-05
0.00115413
-9.87096e-05
0.00120286
-9.84189e-05
0.0012514
-9.80964e-05
0.00129974
-9.77446e-05
0.00134787
-9.73662e-05
0.00139579
-9.6964e-05
0.00144348
-9.65408e-05
0.00149094
-9.60999e-05
0.00153816
-9.56444e-05
0.00158514
-9.51777e-05
0.00163188
-9.47038e-05
0.00167838
-9.42266e-05
0.00172465
-9.37509e-05
0.00177069
-9.32812e-05
0.0018165
-9.28245e-05
0.00186211
-9.23847e-05
0.00190752
-9.19756e-05
0.00195275
-9.15949e-05
0.00199784
-9.12782e-05
0.00204281
-9.09977e-05
0.00208772
-9.08461e-05
0.00213261
-9.07587e-05
0.00217754
-9.08195e-05
0.00222273
-9.13292e-05
-9.13584e-05
-0.000941775
6.98154e-05
-0.000961893
6.42888e-05
-0.000980447
5.92187e-05
-0.000997464
5.4377e-05
-0.00101303
4.98603e-05
-0.00102723
4.56544e-05
-0.00104016
4.17229e-05
-0.00105187
3.80293e-05
-0.00106245
3.45376e-05
-0.00107193
3.12137e-05
-0.00108036
2.80254e-05
-0.00108777
2.49435e-05
-0.00109419
2.19418e-05
-0.00109964
1.89994e-05
-0.00110413
1.61019e-05
-0.00110767
1.32434e-05
-0.00111027
1.04246e-05
-0.00111195
7.6453e-06
-0.00111272
4.90652e-06
-0.0011126
2.20469e-06
-0.00111158
-5.06064e-07
-0.0011098
-2.95169e-06
-0.00110715
-5.49315e-06
-0.00110364
-8.07103e-06
-0.00109926
-1.06772e-05
-0.00109402
-1.33101e-05
-0.00108789
-1.59708e-05
-0.00108088
-1.86616e-05
-0.00107298
-2.13848e-05
-0.00106416
-2.41425e-05
-0.00105443
-2.69364e-05
-0.00104376
-2.97674e-05
-0.00103215
-3.26364e-05
-0.00101958
-3.55429e-05
-0.00100605
-3.84738e-05
-0.000991538
-4.14417e-05
-0.00097604
-4.44447e-05
-0.000959544
-4.74805e-05
-0.000942037
-5.0547e-05
-0.000923511
-5.36411e-05
-0.000903957
-5.67595e-05
-0.000883369
-5.98984e-05
-0.00086174
-6.30536e-05
-0.000839066
-6.62209e-05
-0.000815345
-6.93956e-05
-0.000790575
-7.25725e-05
-0.000764757
-7.57478e-05
-0.000737886
-7.89226e-05
-0.000709981
-8.20576e-05
-0.000681048
-8.51747e-05
-0.000651094
-8.82668e-05
-0.000620129
-9.1327e-05
-0.000588168
-9.43495e-05
-0.000555224
-9.73286e-05
-0.000521316
-0.000100258
-0.000486462
-0.000103134
-0.000450675
-0.000105965
-0.00041399
-0.000108703
-0.000376431
-0.000111371
-0.000338025
-0.000113967
-0.000298798
-0.000116484
-0.000258782
-0.000118918
-0.000218011
-0.00012126
-0.00017649
-0.000123554
-0.000134283
-0.000125704
-9.14154e-05
-0.000127769
-4.79184e-05
-0.000129742
-3.82022e-06
-0.000131621
4.08068e-05
-0.000133379
8.59626e-05
-0.000135053
0.000131606
-0.000136623
0.000177697
-0.00013809
0.000224201
-0.000139453
0.000271082
-0.000140714
0.000318303
-0.000141874
0.00036583
-0.000142933
0.000413627
-0.000143893
0.000461662
-0.000144754
0.000509901
-0.000145518
0.000558313
-0.000146188
0.000606865
-0.000146765
0.000655527
-0.000147251
0.000704271
-0.000147649
0.000753067
-0.000147961
0.000801888
-0.00014819
0.000850709
-0.000148338
0.000899504
-0.000148409
0.00094825
-0.000148405
0.000996924
-0.000148329
0.00104551
-0.000148185
0.00109397
-0.000147975
0.00114231
-0.000147704
0.0011905
-0.000147374
0.00123852
-0.00014699
0.00128637
-0.000146554
0.00133402
-0.00014607
0.00138146
-0.000145543
0.0014287
-0.000144975
0.0014757
-0.000144372
0.00152247
-0.000143737
0.00156901
-0.000143075
0.0016153
-0.00014239
0.00166134
-0.000141688
0.00170714
-0.000140972
0.00175268
-0.00014025
0.00179798
-0.000139527
0.00184304
-0.00013881
0.00188787
-0.000138105
0.00193247
-0.000137424
0.00197685
-0.00013677
0.00202104
-0.000136166
0.00206505
-0.000135607
0.00210892
-0.000135144
0.00215266
-0.000134739
0.00219633
-0.000134517
0.00223998
-0.000134407
0.00228364
-0.000134478
0.00232752
-0.000135205
-0.000135345
-0.000802272
8.91813e-05
-0.000820217
8.22338e-05
-0.000836827
7.58291e-05
-0.000852051
6.96006e-05
-0.000865928
6.37371e-05
-0.000878521
5.82479e-05
-0.000889895
5.30971e-05
-0.00090011
4.82436e-05
-0.000909216
4.36442e-05
-0.000917259
3.92569e-05
-0.000924276
3.50418e-05
-0.000930294
3.09616e-05
-0.000935335
2.69824e-05
-0.000939411
2.30758e-05
-0.000942531
1.92222e-05
-0.000944702
1.54137e-05
-0.000945931
1.16537e-05
-0.000946235
7.95003e-06
-0.000945646
4.31707e-06
-0.000944046
6.05139e-07
-0.000941823
-2.72968e-06
-0.000938672
-6.10213e-06
-0.000934651
-9.51443e-06
-0.000929763
-1.29592e-05
-0.000924005
-1.64346e-05
-0.000917374
-1.99416e-05
-0.000909862
-2.34831e-05
-0.000901461
-2.70623e-05
-0.000892163
-3.06826e-05
-0.000881959
-3.43469e-05
-0.000870838
-3.80575e-05
-0.000858789
-4.1816e-05
-0.000845801
-4.56245e-05
-0.000831857
-4.94869e-05
-0.000816962
-5.3369e-05
-0.000801103
-5.73008e-05
-0.000784269
-6.12782e-05
-0.000766452
-6.52976e-05
-0.000747643
-6.93559e-05
-0.000727835
-7.34489e-05
-0.000707023
-7.75722e-05
-0.0006852
-8.17205e-05
-0.000662366
-8.58885e-05
-0.000638516
-9.00701e-05
-0.000613653
-9.42591e-05
-0.000587777
-9.84482e-05
-0.000560891
-0.000102634
-0.000532983
-0.00010683
-0.000504087
-0.000110954
-0.000474207
-0.000115055
-0.000443352
-0.000119122
-0.000411535
-0.000123144
-0.000378771
-0.000127113
-0.000345079
-0.000131021
-0.000310478
-0.000134859
-0.000274993
-0.000138619
-0.000238617
-0.00014234
-0.000201406
-0.000145914
-0.000163383
-0.000149394
-0.000124573
-0.000152777
-8.50028e-05
-0.000156055
-4.46966e-05
-0.000159224
-3.67131e-06
-0.000162286
3.79488e-05
-0.000165174
8.02202e-05
-0.000167976
0.000123096
-0.000170644
0.000166534
-0.00017318
0.000210495
-0.000175582
0.000254955
-0.00017784
0.000299867
-0.000179965
0.000345197
-0.000181953
0.00039091
-0.000183803
0.00043697
-0.000185514
0.000483344
-0.000187087
0.000529995
-0.000188525
0.000576889
-0.000189828
0.000623994
-0.000190998
0.000671277
-0.000192037
0.000718706
-0.000192947
0.000766251
-0.000193732
0.00081388
-0.000194395
0.000861566
-0.000194937
0.000909281
-0.000195364
0.000956998
-0.000195678
0.00100469
-0.000195883
0.00105234
-0.000195984
0.00109991
-0.000195984
0.00114739
-0.000195887
0.00119476
-0.000195698
0.001242
-0.000195422
0.00128909
-0.000195062
0.00133601
-0.000194624
0.00138274
-0.000194112
0.00142929
-0.000193531
0.00147562
-0.000192886
0.00152173
-0.000192182
0.00156761
-0.000191423
0.00161325
-0.000190617
0.00165865
-0.000189767
0.00170379
-0.00018888
0.00174868
-0.000187961
0.0017933
-0.000187017
0.00183767
-0.000186053
0.00188177
-0.000185077
0.00192562
-0.000184097
0.00196921
-0.000183119
0.00201255
-0.000182153
0.00205566
-0.000181208
0.00209853
-0.000180297
0.00214118
-0.000179426
0.00218364
-0.000178624
0.00222592
-0.000177883
0.00226804
-0.00017727
0.00231005
-0.00017674
0.00235196
-0.000176431
0.00239385
-0.000176298
0.00243571
-0.00017634
0.00247772
-0.000177218
-0.000177508
-0.000617883
0.000105566
-0.000633205
9.75552e-05
-0.00064747
9.00947e-05
-0.000660552
8.26821e-05
-0.000672431
7.56163e-05
-0.000683132
6.89487e-05
-0.000692693
6.26583e-05
-0.000701156
5.67063e-05
-0.000708558
5.10462e-05
-0.000714932
4.56316e-05
-0.000720308
4.04177e-05
-0.000724707
3.53608e-05
-0.000728145
3.04201e-05
-0.000730629
2.55596e-05
-0.00073216
2.07533e-05
-0.000732737
1.59905e-05
-0.000732365
1.12815e-05
-0.000731062
6.64742e-06
-0.000728783
2.03839e-06
-0.000725828
-2.35027e-06
-0.000721982
-6.57538e-06
-0.000717246
-1.08383e-05
-0.000711632
-1.51283e-05
-0.000705143
-1.94482e-05
-0.000697778
-2.37994e-05
-0.000689535
-2.81855e-05
-0.000680407
-3.2611e-05
-0.000670389
-3.70803e-05
-0.000659474
-4.15974e-05
-0.000647655
-4.61659e-05
-0.000634924
-5.07888e-05
-0.000621272
-5.54676e-05
-0.000606689
-6.02078e-05
-0.000591149
-6.50263e-05
-0.000574675
-6.98431e-05
-0.000557253
-7.47227e-05
-0.000538875
-7.96567e-05
-0.000519533
-8.46393e-05
-0.000499223
-8.96663e-05
-0.000477939
-9.47324e-05
-0.00045568
-9.98317e-05
-0.000432443
-0.000104958
-0.000408228
-0.000110103
-0.000383037
-0.000115261
-0.000356874
-0.000120422
-0.000329746
-0.000125577
-0.000301661
-0.000130719
-0.000272581
-0.000135911
-0.000242574
-0.000140961
-0.000211639
-0.000145989
-0.000179787
-0.000150974
-0.000147032
-0.000155899
-0.00011339
-0.000160754
-7.88806e-05
-0.000165531
-4.35168e-05
-0.000170223
-7.30742e-06
-0.000174828
2.96153e-05
-0.000179263
6.73224e-05
-0.000183621
0.000105783
-0.000187855
0.000144962
-0.000191956
0.000184824
-0.000195917
0.000225335
-0.000199735
0.000266456
-0.000203407
0.000308183
-0.0002069
0.000350453
-0.000210247
0.000393238
-0.000213429
0.000436503
-0.000216445
0.000480213
-0.000219291
0.000524335
-0.000221962
0.000568832
-0.000224462
0.000613669
-0.00022679
0.00065881
-0.000228944
0.000704221
-0.000230925
0.000749869
-0.000232735
0.000795719
-0.000234376
0.00084174
-0.000235849
0.000887899
-0.000237157
0.000934165
-0.000238303
0.000980507
-0.00023929
0.0010269
-0.000240123
0.00107331
-0.000240805
0.00111971
-0.000241341
0.00116608
-0.000241735
0.0012124
-0.000241992
0.00125863
-0.000242116
0.00130476
-0.000242114
0.00135077
-0.000241991
0.00139663
-0.000241751
0.00144234
-0.000241402
0.00148786
-0.000240947
0.00153319
-0.000240394
0.00157832
-0.000239748
0.00162322
-0.000239015
0.00166789
-0.000238202
0.00171232
-0.000237314
0.0017565
-0.000236358
0.00180041
-0.000235341
0.00184407
-0.000234268
0.00188745
-0.000233148
0.00193055
-0.000231986
0.00197338
-0.000230791
0.00201593
-0.000229569
0.00205821
-0.000228329
0.00210021
-0.00022708
0.00214195
-0.000225829
0.00218341
-0.000224587
0.00222463
-0.000223365
0.00226559
-0.000222172
0.00230632
-0.000221027
0.00234683
-0.000219935
0.00238714
-0.000218932
0.00242726
-0.000218008
0.00246723
-0.000217238
0.00250707
-0.000216583
0.00254681
-0.000216167
0.00258652
-0.000216006
0.00262616
-0.000215984
0.00266588
-0.000216939
-0.000217399
-0.000388908
0.000118747
-0.000401557
0.000110204
-0.000413333
0.000101871
-0.000424159
9.35084e-05
-0.000433965
8.54227e-05
-0.000442719
7.77021e-05
-0.000450425
7.03649e-05
-0.000457104
6.33849e-05
-0.000462774
5.67166e-05
-0.000467456
5.03134e-05
-0.000471167
4.41287e-05
-0.000473922
3.81157e-05
-0.00047573
3.22277e-05
-0.000476592
2.64215e-05
-0.0004765
2.06621e-05
-0.000475441
1.49311e-05
-0.00047342
9.26071e-06
-0.000470454
3.68132e-06
-0.000466628
-1.78777e-06
-0.000462093
-6.88472e-06
-0.000456624
-1.2045e-05
-0.000450256
-1.72059e-05
-0.000442999
-2.23855e-05
-0.000434857
-2.75898e-05
-0.000425832
-3.28246e-05
-0.000415921
-3.80962e-05
-0.000405122
-4.34104e-05
-0.00039343
-4.87724e-05
-0.00038084
-5.41869e-05
-0.000367349
-5.96575e-05
-0.000352951
-6.51868e-05
-0.000337642
-7.07767e-05
-0.000321414
-7.64357e-05
-0.000304222
-8.22183e-05
-0.000286117
-8.79478e-05
-0.000267083
-9.3757e-05
-0.000247113
-9.96268e-05
-0.000226203
-0.000105549
-0.000204351
-0.000111518
-0.000181555
-0.000117528
-0.000157817
-0.00012357
-0.000133136
-0.000129638
-0.000107516
-0.000135724
-8.09582e-05
-0.000141818
-5.34668e-05
-0.000147913
-2.50391e-05
-0.000154004
4.32588e-06
-0.000160084
3.44389e-05
-0.000166024
6.54809e-05
-0.000172003
9.74099e-05
-0.000177918
0.000130198
-0.000183762
0.000163823
-0.000189524
0.000198263
-0.000195195
0.000233495
-0.000200763
0.000269491
-0.000206219
0.000306219
-0.000211556
0.000343686
-0.00021673
0.000381836
-0.000221771
0.000420642
-0.000226661
0.000460073
-0.000231387
0.000500099
-0.000235943
0.000540686
-0.000240322
0.000581799
-0.00024452
0.000623415
-0.000248516
0.000665492
-0.000252323
0.000707994
-0.000255932
0.000750888
-0.000259338
0.000794137
-0.000262541
0.00083771
-0.000265535
0.00088157
-0.000268322
0.000925682
-0.000270902
0.000970014
-0.000273275
0.00101453
-0.000275442
0.0010592
-0.000277405
0.00110399
-0.000279167
0.00114887
-0.00028073
0.00119382
-0.000282098
0.00123879
-0.000283275
0.00128376
-0.000284265
0.00132871
-0.000285074
0.00137361
-0.000285706
0.00141844
-0.000286167
0.00146317
-0.000286463
0.00150778
-0.0002866
0.00155224
-0.000286584
0.00159655
-0.000286421
0.00164068
-0.000286119
0.00168461
-0.000285685
0.00172833
-0.000285124
0.00177183
-0.000284444
0.00181509
-0.000283653
0.0018581
-0.000282757
0.00190085
-0.000281764
0.00194333
-0.000280682
0.00198553
-0.000279517
0.00202745
-0.000278278
0.00206909
-0.000276973
0.00211043
-0.000275608
0.00215147
-0.000274193
0.00219222
-0.000272736
0.00223268
-0.000271245
0.00227284
-0.00026973
0.0023127
-0.000268199
0.00235229
-0.000266662
0.00239159
-0.000265131
0.00243062
-0.000263616
0.00246939
-0.000262131
0.0025079
-0.000260686
0.00254617
-0.000259302
0.00258423
-0.000257987
0.00262207
-0.000256778
0.00265974
-0.000255671
0.00269723
-0.000254737
0.00273461
-0.000253956
0.00277186
-0.000253415
0.00280907
-0.000253216
0.00284619
-0.000253104
0.00288331
-0.000254063
-0.000254684
-0.000114687
-0.000125167
0.000120684
-0.000134636
0.00011134
-0.000143438
0.000102311
-0.000151423
9.34079e-05
-0.000158484
8.47622e-05
-0.000164588
7.64693e-05
-0.000169731
6.85281e-05
-0.000173913
6.08984e-05
-0.000177137
5.35374e-05
-0.00017941
4.64013e-05
-0.000180737
3.94431e-05
-0.000181122
3.26128e-05
-0.000180559
2.58589e-05
-0.000179029
1.9132e-05
-0.000176509
1.24108e-05
-0.00017304
5.79138e-06
-0.000168494
-8.6477e-07
-0.00016346
-6.82126e-06
-0.000157416
-1.29289e-05
-0.00015046
-1.90008e-05
-0.000142596
-2.50702e-05
-0.00013383
-3.11509e-05
-0.000124168
-3.7252e-05
-0.00011361
-4.33825e-05
-0.000102156
-4.95504e-05
-8.9804e-05
-5.57626e-05
-7.65507e-05
-6.20256e-05
-6.23928e-05
-6.83448e-05
-4.73251e-05
-7.47252e-05
-3.1341e-05
-8.11709e-05
-1.44298e-05
-8.76879e-05
3.41008e-06
-9.42756e-05
2.20107e-05
-0.000100819
4.1568e-05
-0.000107505
6.20582e-05
-0.000114247
8.34731e-05
-0.000121042
0.000105808
-0.000127884
0.00012906
-0.00013477
0.000153224
-0.000141691
0.000178294
-0.000148641
0.000204266
-0.00015561
0.00023113
-0.000162588
0.000258879
-0.000169567
0.0002875
-0.000176535
0.000316979
-0.000183483
0.000347292
-0.000190397
0.000378483
-0.000197215
0.00041048
-0.000204
0.000443273
-0.000210711
0.000476844
-0.000217333
0.000511172
-0.000223852
0.000546234
-0.000230257
0.000582006
-0.000236535
0.00061846
-0.000242673
0.000655566
-0.000248662
0.000693309
-0.000254473
0.000731651
-0.000260113
0.00077056
-0.000265569
0.000810004
-0.000270831
0.00084995
-0.000275889
0.000890365
-0.000280737
0.000931214
-0.000285369
0.000972469
-0.000289771
0.00101409
-0.000293945
0.00105605
-0.000297886
0.0010983
-0.000301591
0.00114081
-0.000305057
0.00118356
-0.000308282
0.00122651
-0.000311266
0.00126961
-0.000314009
0.00131285
-0.000316513
0.00135619
-0.000318779
0.00139959
-0.000320811
0.00144304
-0.000322611
0.00148649
-0.000324183
0.00152992
-0.000325532
0.00157331
-0.000326663
0.00161663
-0.000327582
0.00165985
-0.000328295
0.00170295
-0.000328808
0.00174591
-0.000329128
0.00178871
-0.000329262
0.00183133
-0.000329218
0.00187375
-0.000329002
0.00191595
-0.000328624
0.00195792
-0.000328091
0.00199965
-0.000327411
0.00204112
-0.000326592
0.00208232
-0.000325643
0.00212323
-0.000324572
0.00216386
-0.000323388
0.0022042
-0.000322099
0.00224423
-0.000320714
0.00228396
-0.000319242
0.00232337
-0.000317692
0.00236247
-0.000316073
0.00240125
-0.000314393
0.00243972
-0.000312663
0.00247788
-0.000310892
0.00251573
-0.00030909
0.00255326
-0.000307267
0.0025905
-0.000305434
0.00262744
-0.000303602
0.00266409
-0.000301783
0.00270046
-0.000299989
0.00273657
-0.000298236
0.00277242
-0.000296536
0.00280803
-0.000294912
0.00284341
-0.000293373
0.00287859
-0.000291957
0.00291359
-0.000290666
0.00294841
-0.000289562
0.00298311
-0.000288654
0.00301767
-0.000287973
0.00305217
-0.000287723
0.00308658
-0.000287507
0.00312092
-0.000288404
-0.000289152
0.000197397
0.000129736
0.000189395
0.000119342
0.000181911
0.000109795
0.000175064
0.000100255
0.000169038
9.07885e-05
0.000163906
8.16015e-05
0.000159696
7.27381e-05
0.000156427
6.41674e-05
0.00015411
5.58541e-05
0.000152749
4.77619e-05
0.000152345
3.98472e-05
0.0001529
3.20585e-05
0.000154422
2.43361e-05
0.000156941
1.66133e-05
0.000160488
8.86379e-06
0.000165257
1.02273e-06
0.000170373
-5.98145e-06
0.000176612
-1.306e-05
0.000183767
-2.00835e-05
0.000191851
-2.70849e-05
0.000200861
-3.40805e-05
0.000210791
-4.10804e-05
0.000221635
-4.80966e-05
0.000233392
-5.51398e-05
0.000246061
-6.22187e-05
0.000259639
-6.93407e-05
0.000274126
-7.65126e-05
0.000289521
-8.374e-05
0.000305823
-9.10272e-05
0.00032303
-9.83776e-05
0.000341137
-0.000105795
0.000360138
-0.000113277
0.000380085
-0.000120766
0.000400925
-0.000128345
0.00042266
-0.000135982
0.000445286
-0.000143668
0.000468801
-0.000151399
0.000493198
-0.000159167
0.00051847
-0.000166964
0.00054461
-0.000174781
0.000571607
-0.000182607
0.00059945
-0.000190431
0.000628126
-0.000198243
0.000657619
-0.000206028
0.000687913
-0.000213777
0.000718989
-0.000221472
0.00075085
-0.000229077
0.000783459
-0.000236609
0.000816794
-0.000244046
0.000850832
-0.00025137
0.000885548
-0.000258569
0.000920918
-0.000265627
0.000956914
-0.00027253
0.000993507
-0.000279266
0.00103067
-0.00028582
0.00106837
-0.000292174
0.00110658
-0.000298322
0.00114526
-0.000304254
0.00118439
-0.000309958
0.00122392
-0.000315425
0.00126383
-0.000320648
0.00130408
-0.000325619
0.00134464
-0.00033033
0.00138548
-0.000334778
0.00142655
-0.000338959
0.00146783
-0.00034287
0.00150928
-0.000346508
0.00155087
-0.000349873
0.00159257
-0.000352964
0.00163434
-0.000355783
0.00167616
-0.000358333
0.001718
-0.000360615
0.00175982
-0.000362633
0.0018016
-0.000364391
0.00184331
-0.000365896
0.00188493
-0.000367152
0.00192643
-0.000368166
0.0019678
-0.000368944
0.002009
-0.000369495
0.00205001
-0.000369825
0.00209083
-0.000369943
0.00213142
-0.000369858
0.00217178
-0.000369577
0.00221189
-0.000369111
0.00225174
-0.000368468
0.0022913
-0.000367657
0.00233058
-0.000366688
0.00236956
-0.000365571
0.00240823
-0.000364315
0.00244659
-0.00036293
0.00248462
-0.000361425
0.00252234
-0.000359811
0.00255972
-0.000358097
0.00259677
-0.000356294
0.00263349
-0.000354412
0.00266988
-0.00035246
0.00270593
-0.000350449
0.00274166
-0.00034839
0.00277706
-0.000346293
0.00281214
-0.00034417
0.00284691
-0.000342032
0.00288136
-0.00033989
0.00291552
-0.000337758
0.00294938
-0.000335649
0.00298297
-0.000333575
0.00301629
-0.000331555
0.00304935
-0.000329601
0.00308218
-0.000327737
0.00311478
-0.000325977
0.00314718
-0.000324354
0.0031794
-0.000322883
0.00321144
-0.000321605
0.00324336
-0.000320572
0.00327513
-0.00031974
0.00330683
-0.000319423
0.00333842
-0.000319097
0.0033699
-0.000319884
-0.000320707
0.000569152
0.000138946
0.000561016
0.000127478
0.000553404
0.000117407
0.000546394
0.000107265
0.000540198
9.69845e-05
0.000534916
8.6884e-05
0.000530588
7.70659e-05
0.000527244
6.75115e-05
0.000524902
5.81956e-05
0.000523572
4.90921e-05
0.000523255
4.01636e-05
0.000523955
3.13591e-05
0.000525682
2.26092e-05
0.000528483
1.38124e-05
0.000532502
4.84429e-06
0.000537198
-3.67307e-06
0.000542935
-1.17186e-05
0.000549637
-1.97618e-05
0.000557314
-2.77605e-05
0.000565963
-3.57342e-05
0.000575574
-4.36913e-05
0.000586139
-5.16453e-05
0.000597652
-5.96101e-05
0.00061011
-6.75971e-05
0.000623506
-7.5615e-05
0.000637837
-8.36715e-05
0.000653097
-9.17733e-05
0.000669283
-9.99258e-05
0.000686389
-0.000108133
0.000704409
-0.000116398
0.000723336
-0.000124722
0.000743163
-0.000133104
0.000763911
-0.000141513
0.00078555
-0.000149984
0.000808072
-0.000158504
0.00083147
-0.000167066
0.000855734
-0.000175663
0.000880853
-0.000184286
0.000906816
-0.000192927
0.000933609
-0.000201574
0.000961217
-0.000210216
0.000989627
-0.00021884
0.00101882
-0.000227435
0.00104878
-0.000235985
0.00107948
-0.000244476
0.0011109
-0.000252893
0.00114303
-0.000261209
0.00117584
-0.000269421
0.00120931
-0.000277511
0.0012434
-0.000285464
0.00127809
-0.000293263
0.00131336
-0.000300893
0.00134917
-0.000308339
0.00138549
-0.000315586
0.00142229
-0.00032262
0.00145954
-0.000329425
0.00149721
-0.000335991
0.00153526
-0.000342306
0.00157366
-0.000348361
0.00161238
-0.000354146
0.00165139
-0.000359652
0.00169064
-0.000364872
0.00173011
-0.0003698
0.00176976
-0.000374431
0.00180957
-0.000378762
0.00184949
-0.00038279
0.00188949
-0.000386514
0.00192955
-0.000389933
0.00196964
-0.000393049
0.00200972
-0.000395863
0.00204976
-0.000398379
0.00208975
-0.0004006
0.00212965
-0.000402531
0.00216943
-0.000404177
0.00220908
-0.000405545
0.00224857
-0.000406642
0.00228788
-0.000407476
0.00232699
-0.000408054
0.00236588
-0.000408385
0.00240453
-0.000408479
0.00244294
-0.000408344
0.00248107
-0.000407991
0.00251892
-0.00040743
0.00255648
-0.00040667
0.00259374
-0.000405723
0.00263068
-0.000404599
0.0026673
-0.000403309
0.00270359
-0.000401863
0.00273955
-0.000400272
0.00277517
-0.000398548
0.00281044
-0.000396701
0.00284537
-0.000394743
0.00287996
-0.000392683
0.0029142
-0.000390535
0.0029481
-0.000388307
0.00298165
-0.000386013
0.00301486
-0.000383664
0.00304774
-0.00038127
0.00308029
-0.000378844
0.00311252
-0.000376398
0.00314443
-0.000373944
0.00317604
-0.000371495
0.00320735
-0.000369066
0.00323837
-0.00036667
0.00326911
-0.000364322
0.0032996
-0.000362039
0.00332984
-0.000359838
0.00335984
-0.000357742
0.00338963
-0.000355767
0.00341922
-0.000353943
0.00344863
-0.000352298
0.00347788
-0.000350846
0.00350699
-0.000349689
0.00353596
-0.000348705
0.00356484
-0.000348305
0.00359361
-0.000347869
0.00362224
-0.000348514
-0.000349357
0.000994159
0.000151446
0.000983211
0.000138426
0.000973156
0.000127462
0.000963939
0.000116482
0.000955733
0.00010519
0.000948618
9.39993e-05
0.000942621
8.30629e-05
0.000937762
7.23705e-05
0.000934052
6.19054e-05
0.000931492
5.16521e-05
0.000930076
4.15795e-05
0.000929796
3.16394e-05
0.000930648
2.17574e-05
0.000932661
1.1799e-05
0.000936048
1.4573e-06
0.000940153
-7.77789e-06
0.00094542
-1.69854e-05
0.000951764
-2.61066e-05
0.000959167
-3.51633e-05
0.000967609
-4.41761e-05
0.000977076
-5.31581e-05
0.000987556
-6.21256e-05
0.000999041
-7.10944e-05
0.00101152
-8.00764e-05
0.00102498
-8.908e-05
0.00103943
-9.81124e-05
0.00105483
-0.000107181
0.0010712
-0.00011629
0.00108851
-0.000125444
0.00110675
-0.000134644
0.00112592
-0.000143892
0.00114601
-0.000153185
0.001167
-0.000162509
0.00118889
-0.000171874
0.00121166
-0.000181272
0.00123529
-0.000190699
0.00125977
-0.000200145
0.00128509
-0.000209601
0.00131122
-0.000219058
0.00133815
-0.000228502
0.00136586
-0.000237923
0.00139432
-0.000247305
0.00142352
-0.000256636
0.00145344
-0.000265899
0.00148404
-0.000275078
0.0015153
-0.000284158
0.00154721
-0.000293116
0.00157973
-0.000301941
0.00161283
-0.000310615
0.00164649
-0.000319122
0.00168067
-0.000327445
0.00171535
-0.000335568
0.00175049
-0.000343476
0.00178605
-0.000351151
0.00182201
-0.000358582
0.00185834
-0.000365751
0.001895
-0.000372648
0.00193195
-0.000379261
0.00196917
-0.00038558
0.00200662
-0.000391595
0.00204427
-0.000397298
0.00208208
-0.000402682
0.00212002
-0.000407741
0.00215806
-0.000412472
0.00219617
-0.000416871
0.00223431
-0.000420936
0.00227247
-0.000424668
0.0023106
-0.000428066
0.00234869
-0.000431133
0.00238669
-0.000433871
0.0024246
-0.000436284
0.00246238
-0.000438379
0.00250001
-0.000440159
0.00253746
-0.000441634
0.00257473
-0.000442809
0.00261178
-0.000443693
0.0026486
-0.000444295
0.00268517
-0.000444626
0.00272148
-0.000444693
0.00275751
-0.000444509
0.00279325
-0.000444084
0.00282868
-0.000443428
0.00286381
-0.000442554
0.00289861
-0.000441473
0.00293308
-0.000440196
0.00296722
-0.000438735
0.00300102
-0.000437103
0.00303446
-0.000435311
0.00306756
-0.000433371
0.00310031
-0.000431296
0.00313271
-0.000429097
0.00316475
-0.000426786
0.00319644
-0.000424376
0.00322779
-0.000421879
0.00325879
-0.000419306
0.00328944
-0.00041667
0.00331976
-0.000413984
0.00334975
-0.00041126
0.00337942
-0.00040851
0.00340877
-0.000405748
0.00343781
-0.000402988
0.00346656
-0.000400242
0.00349502
-0.000397526
0.0035232
-0.000394855
0.00355113
-0.000392244
0.0035788
-0.000389712
0.00360624
-0.000387277
0.00363346
-0.000384959
0.00366047
-0.000382783
0.00368729
-0.000380766
0.00371396
-0.000378959
0.00374045
-0.000377339
0.00376682
-0.000376062
0.00379305
-0.000374931
0.00381918
-0.000374435
0.0038452
-0.000373894
0.00387107
-0.000374382
-0.000375194
0.00147557
0.00145825
0.000155752
0.00144259
0.00014312
0.0014284
0.000130677
0.0014157
0.000117883
0.00140451
0.000105194
0.00139479
9.27824e-05
0.00138653
8.06326e-05
0.0013797