/*--------------------------------*- C++ -*----------------------------------*\
  =========                 |
  \\      /  F ield         | OpenFOAM: The Open Source CFD Toolbox
   \\    /   O peration     | Website:  https://openfoam.org
    \\  /    A nd           | Version:  7
     \\/     M anipulation  |
\*---------------------------------------------------------------------------*/
FoamFile
{
    version     2.0;
    format      ascii;
    class       surfaceScalarField;
    location    "35";
    object      phi;
}
// * * * * * * * * * * * * * * * * * * * * * * * * * * * * * * * * * * * * * //

dimensions      [0 3 -1 0 0 0 0];

internalField   nonuniform List<scalar> 
21496
(
-1.1393e-05
1.1393e-05
2.25597e-13
-3.73527e-05
2.59597e-05
-7.80288e-13
-7.24048e-05
3.50521e-05
-5.25212e-13
-0.000112222
3.98173e-05
-3.99227e-13
-0.000153217
4.09952e-05
-3.21041e-13
-0.00019234
3.91227e-05
-2.73157e-13
-0.000226932
3.45916e-05
-2.45593e-13
-0.000254608
2.76768e-05
-2.23796e-13
-0.000273173
1.85642e-05
-2.02569e-13
-0.00028055
7.37716e-06
-1.77213e-13
-0.000274754
-5.79583e-06
-1.39655e-13
-0.000253882
-2.08721e-05
-9.03676e-14
-0.000216142
-3.77401e-05
-3.01641e-14
-0.000159938
-5.6204e-05
4.43364e-14
-8.40176e-05
-7.59202e-05
1.31888e-13
1.22948e-05
-9.63123e-05
2.29995e-13
0.000128785
-0.000116491
3.36209e-13
0.000263948
-0.000135163
4.51616e-13
0.000414291
-0.000150343
5.8112e-13
-0.000158955
7.2816e-13
0.000573246
-9.94036e-06
2.13334e-05
-3.20268e-05
4.80462e-05
-6.09596e-05
6.39848e-05
-9.24781e-05
7.13358e-05
-0.000122997
7.1514e-05
-0.00014942
6.55455e-05
-0.000169007
5.41787e-05
-0.000179266
3.79364e-05
-0.000177871
1.71687e-05
-0.000162596
-7.89754e-06
-0.000131287
-3.71047e-05
-8.18362e-05
-7.03233e-05
-1.22071e-05
-0.000107369
7.95079e-05
-0.000147919
0.000194966
-0.000191378
0.000335362
-0.000236708
0.000501097
-0.000282226
0.000691297
-0.000325363
0.00090297
-0.000362016
-0.000385495
0.00112951
-7.18437e-06
2.85177e-05
-2.18634e-05
6.27252e-05
-3.90382e-05
8.11596e-05
-5.45588e-05
8.68564e-05
-6.4832e-05
8.17872e-05
-6.66687e-05
6.73822e-05
-5.71713e-05
4.46813e-05
-3.36418e-05
1.4407e-05
6.48808e-06
-2.29612e-05
6.57127e-05
-6.71221e-05
0.000146494
-0.000117886
0.000251276
-0.000175105
0.000382493
-0.000238587
0.000542549
-0.000307975
0.000733742
-0.000382572
0.00095811
-0.000461076
0.00121711
-0.000541221
0.00151101
-0.000619268
0.00183783
-0.000688832
-0.000738585
0.00219092
-3.37979e-06
3.18975e-05
-7.70407e-06
6.70495e-05
-8.32491e-06
8.17805e-05
-1.21245e-06
7.97439e-05
1.72549e-05
6.33198e-05
5.04042e-05
3.42329e-05
0.000101353
-6.26785e-06
0.000173072
-5.73114e-05
0.000268446
-0.000118335
0.000390308
-0.000188984
0.000541467
-0.000269045
0.00072473
-0.000358368
0.000942919
-0.000456776
0.00119888
-0.000563937
0.00149548
-0.000679173
0.00183554
-0.000801134
0.0022216
-0.000927277
0.00265532
-0.00105299
0.00313613
-0.00116964
-0.00126017
0.00365771
1.18612e-06
3.07114e-05
9.48044e-06
5.87552e-05
2.92013e-05
6.20596e-05
6.42759e-05
4.46694e-05
0.000118376
9.21949e-06
0.000194989
-4.23796e-05
0.00029747
-0.000108749
0.000429085
-0.000188927
0.000593027
-0.000282277
0.000792431
-0.000388388
0.00103038
-0.000506992
0.0013099
-0.000637888
0.00163397
-0.000780852
0.00200556
-0.000935525
0.00242763
-0.00110124
0.00290319
-0.0012767
0.00343528
-0.00145937
0.00402655
-0.00164426
0.004678
-0.00182109
-0.00196689
0.00538472
6.26848e-06
2.44429e-05
2.8824e-05
3.61997e-05
7.17069e-05
1.91767e-05
0.000138755
-2.23791e-05
0.000233681
-8.57062e-05
0.000360106
-0.000168805
0.00052157
-0.000270213
0.000721534
-0.000388891
0.000963365
-0.000524108
0.00125031
-0.000675331
0.00158545
-0.000842137
0.0019717
-0.00102413
0.00241171
-0.00122087
0.00290794
-0.00143176
0.00346264
-0.00165593
0.00407795
-0.00189201
0.00475612
-0.00213754
0.00549956
-0.0023877
0.00631039
-0.00263192
-0.00284395
0.00718745
1.17141e-05
1.27288e-05
4.97148e-05
-1.80092e-06
0.000117776
-4.88841e-05
0.000219618
-0.000124222
0.000358915
-0.000225003
0.000539286
-0.000349176
0.000764269
-0.000495195
0.00103726
-0.000661885
0.00136148
-0.00084832
0.00173984
-0.0010537
0.00217496
-0.00127725
0.00266899
-0.00151816
0.00322359
-0.00177547
0.00383986
-0.00204803
0.00451834
-0.00233441
0.0052591
-0.00263277
0.00606206
-0.00294051
0.00692757
-0.0032532
0.00785779
-0.00356214
-0.0038455
0.00885934
1.74711e-05
-4.74227e-06
7.17818e-05
-5.61116e-05
0.000166403
-0.000143505
0.000304773
-0.000262592
0.000490322
-0.000410552
0.000726387
-0.000585242
0.00101612
-0.000784931
0.0013624
-0.00100816
0.00176768
-0.0012536
0.00223394
-0.00151996
0.00276252
-0.00180583
0.00335407
-0.00210971
0.00400846
-0.00242986
0.00472476
-0.00276432
0.0055012
-0.00311085
0.0063353
-0.00346687
0.00722406
-0.00382926
0.00816413
-0.00419328
0.00915276
-0.00455077
-0.00489616
0.0102034
2.35177e-05
-2.826e-05
9.4794e-05
-0.000127388
0.000216713
-0.000265424
0.000392161
-0.00043804
0.000623942
-0.000642333
0.000914625
-0.000875925
0.00126638
-0.00113669
0.00168083
-0.0014226
0.00215886
-0.00173164
0.00270057
-0.00206166
0.0033051
-0.00241037
0.00397068
-0.00277529
0.00469463
-0.00315381
0.00547348
-0.00354317
0.00630326
-0.00394063
0.00717988
-0.00434349
0.00809985
-0.00474923
0.00906219
-0.00515562
0.0100738
-0.00556234
-0.00597501
0.0111526
2.98268e-05
-5.80868e-05
0.000118363
-0.000215924
0.000267491
-0.000414552
0.000479064
-0.000649612
0.000754689
-0.000917958
0.00109548
-0.00121672
0.00150183
-0.00154304
0.0019732
-0.00189397
0.00250795
-0.00226639
0.00310327
-0.00265698
0.00375514
-0.00306223
0.00445837
-0.00347852
0.00520674
-0.00390218
0.00599321
-0.00432964
0.00681015
-0.00475758
0.00764966
-0.00518301
0.00850388
-0.00560345
0.00936537
-0.00601711
0.0102262
-0.00642322
-0.0068193
0.0110705
3.6264e-05
-9.43508e-05
0.000141782
-0.000321442
0.000316836
-0.000589607
0.000561608
-0.000894385
0.000875795
-0.00123214
0.00125826
-0.00159919
0.00170679
-0.00199156
0.00221784
-0.00240502
0.00278653
-0.00283508
0.0034066
-0.00327705
0.00407057
-0.0037262
0.00476993
-0.00417788
0.00549552
-0.00462776
0.00623782
-0.00507195
0.0069874
-0.00550716
0.00773523
-0.00593084
0.00847297
-0.00634118
0.00919294
-0.00673709
0.00988734
-0.00711762
-0.0074792
0.0105472
4.25606e-05
-0.000136911
0.000163895
-0.000442777
0.000361982
-0.000787694
0.000634601
-0.001167
0.000978773
-0.00157632
0.00139037
-0.00201078
0.00186385
-0.00246505
0.00239223
-0.0029334
0.0029671
-0.00340995
0.00357889
-0.00388884
0.00421721
-0.00436452
0.00487134
-0.00483201
0.00553069
-0.00528711
0.00618534
-0.0057266
0.00682649
-0.0061483
0.00744681
-0.00655116
0.0080407
-0.00693507
0.0086043
-0.00730069
0.00913543
-0.00764875
-0.00797791
0.00963415
4.83154e-05
-0.000185227
0.000183151
-0.000577613
0.000399468
-0.00100401
0.000691945
-0.00145948
0.00105427
-0.00193865
0.0014788
-0.00243531
0.0019564
-0.00294265
0.00247664
-0.00345364
0.00302803
-0.00396135
0.00359862
-0.00445942
0.00417648
-0.00494238
0.0047504
-0.00540594
0.00531045
-0.00584716
0.00584846
-0.00626461
0.00635837
-0.00665822
0.0068364
-0.00702918
0.00728097
-0.00737965
0.00769259
-0.00771231
0.00807351
-0.00802967
-0.00833244
0.00842804
5.30364e-05
-0.000238263
0.000197772
-0.000722348
0.000425564
-0.0012318
0.000727467
-0.00176138
0.00109348
-0.00230466
0.00151231
-0.00285414
0.00197149
-0.00340184
0.00245779
-0.00393994
0.00295779
-0.00446135
0.00345859
-0.00496022
0.00394852
-0.00543231
0.00441776
-0.00587517
0.00485881
-0.00628821
0.00526673
-0.00667252
0.00563916
-0.00703065
0.00597615
-0.00736617
0.00627974
-0.00768323
0.00655351
-0.00798609
0.0068022
-0.00827836
-0.00856192
0.00703169
5.62075e-05
-0.000294471
0.000206005
-0.000872146
0.000436822
-0.00146262
0.000735897
-0.00206046
0.00108959
-0.00265835
0.00148337
-0.00324792
0.00190225
-0.00382071
0.0023314
-0.00436909
0.00275697
-0.00488692
0.00316681
-0.00537007
0.00355116
-0.00581666
0.00390301
-0.00622703
0.00421829
-0.00660349
0.00449571
-0.00694994
0.0047364
-0.00727135
0.00494342
-0.00757318
0.00512108
-0.00786089
0.00527439
-0.0081394
0.00540862
-0.00841259
-0.0086826
0.0055293
5.7358e-05
-0.000351829
0.000206375
-0.00102116
0.000430604
-0.00168685
0.000713699
-0.00234355
0.00103892
-0.00298357
0.00138942
-0.00359842
0.0017489
-0.0041802
0.00210245
-0.00472263
0.0024373
-0.00522177
0.00274352
-0.00567629
0.00301434
-0.00608748
0.0032462
-0.00645889
0.00343851
-0.00679579
0.0035931
-0.00710453
0.00371362
-0.00739188
0.00380482
-0.00766438
0.00387186
-0.00792793
0.00391982
-0.00818736
0.00395336
-0.00844613
-0.00870606
0.00397682
5.61254e-05
-0.000407954
0.000197889
-0.00116293
0.000405452
-0.00189441
0.000659577
-0.00259768
0.000941412
-0.00326541
0.00123304
-0.00389005
0.0015183
-0.00446546
0.00178361
-0.00498794
0.00201857
-0.00545673
0.0022163
-0.00587403
0.00237343
-0.00624461
0.00248968
-0.00657514
0.00256728
-0.00687339
0.0026102
-0.00714745
0.00262338
-0.00740506
0.00261206
-0.00765305
0.00258119
-0.00789706
0.00253516
-0.00814133
0.00247756
-0.00838853
-0.00864003
0.00241153
5.22994e-05
-0.000460253
0.000180155
-0.00129078
0.000361258
-0.00207551
0.000574572
-0.00281099
0.000800425
-0.00349126
0.00102124
-0.00411086
0.00122233
-0.00466655
0.00139258
-0.00515818
0.00152468
-0.00558883
0.00161507
-0.00596443
0.00166351
-0.00629305
0.00167233
-0.00658395
0.0016456
-0.00684666
0.00158834
-0.00709019
0.00150576
-0.00732247
0.00140272
-0.00755002
0.00128343
-0.00777777
0.00115122
-0.00800912
0.00100861
-0.00824592
-0.00848894
0.000857524
4.58455e-05
-0.000506099
0.000153423
-0.00139836
0.000299235
-0.00222133
0.000461816
-0.00297357
0.000622091
-0.00365153
0.000764138
-0.00425291
0.000875843
-0.00477826
0.000949203
-0.00523154
0.000980216
-0.00561984
0.000968384
-0.00595259
0.000915935
-0.0062406
0.000826921
-0.00649494
0.000706326
-0.00672607
0.000559311
-0.00694318
0.000390668
-0.00715383
0.000204489
-0.00736384
4.03036e-06
-0.00757731
-0.000208294
-0.0077968
-0.000431012
-0.0080232
-0.00825661
-0.000663345
3.69059e-05
-0.000543005
0.000118535
-0.00147999
0.000221716
-0.00232451
0.000326044
-0.0030779
0.000414391
-0.00373988
0.000473577
-0.00431209
0.000494728
-0.00479941
0.000473198
-0.00521001
0.000408064
-0.00555471
0.000301297
-0.00584583
0.000156827
-0.00609613
-2.04211e-05
-0.00631769
-0.000225324
-0.00652116
-0.000453147
-0.00671535
-0.000699871
-0.00690711
-0.000962311
-0.0071014
-0.00123808
-0.00730155
-0.00152549
-0.00750939
-0.00182335
-0.00772534
-0.00794909
-0.00213086
2.57854e-05
-0.00056879
7.68221e-05
-0.00153103
0.000131867
-0.00237955
0.000172996
-0.00311903
0.000186216
-0.0037531
0.000161806
-0.00428768
9.443e-05
-0.00473203
-1.73439e-05
-0.00509824
-0.000171874
-0.00540018
-0.000365374
-0.00565233
-0.000592967
-0.00586854
-0.000849531
-0.00606113
-0.00113032
-0.00624037
-0.00143137
-0.00641431
-0.00174956
-0.00658891
-0.00208265
-0.00676831
-0.00242902
-0.00695518
-0.00278744
-0.00715097
-0.00315681
-0.00735597
-0.00756961
-0.0035363
1.29763e-05
-0.000581767
2.99754e-05
-0.00154802
3.33762e-05
-0.00238295
8.98207e-06
-0.00309464
-5.33902e-05
-0.00369073
-0.000159464
-0.00418161
-0.000311069
-0.00458043
-0.000506823
-0.00490248
-0.000743071
-0.00516393
-0.00101493
-0.00538047
-0.00131718
-0.00556629
-0.00164495
-0.00573336
-0.00199417
-0.00589116
-0.00236171
-0.00604677
-0.00274541
-0.00620521
-0.00314386
-0.00636985
-0.0035562
-0.00654284
-0.00398163
-0.00672554
-0.00441889
-0.0069187
-0.00712214
-0.00486637
-1.32034e-06
-0.000580446
-2.02498e-05
-0.00152909
-7.00098e-05
-0.00233319
-0.000160086
-0.00300456
-0.000296018
-0.0035548
-0.000479651
-0.00399797
-0.000709588
-0.00435049
-0.000982106
-0.00462997
-0.00129215
-0.00485388
-0.00163427
-0.00503835
-0.00200333
-0.00519723
-0.00239497
-0.00534172
-0.00280586
-0.00548026
-0.00323372
-0.00561891
-0.00367717
-0.00576176
-0.00413557
-0.00591145
-0.00460878
-0.00606962
-0.00509669
-0.00623764
-0.00559786
-0.00641753
-0.00660852
-0.00611147
-1.59671e-05
-0.000564479
-7.17302e-05
-0.00147333
-0.000174374
-0.00223055
-0.000328085
-0.00285085
-0.000533785
-0.0033491
-0.000789461
-0.0037423
-0.00109089
-0.00404906
-0.00143257
-0.00428829
-0.00180856
-0.00447788
-0.00221329
-0.00463362
-0.00264199
-0.00476853
-0.00309097
-0.00489273
-0.00355768
-0.00501356
-0.00404054
-0.00513605
-0.00453882
-0.00526348
-0.00505241
-0.00539786
-0.00558177
-0.00554027
-0.00612818
-0.00569122
-0.00669293
-0.00585278
-0.00603349
-0.00726796
-3.08735e-05
-0.000533606
-0.000122688
-0.00138152
-0.000276151
-0.00207709
-0.00048981
-0.00263719
-0.00075995
-0.00307896
-0.00108105
-0.0034212
-0.00144651
-0.00368359
-0.00184953
-0.00388527
-0.00228374
-0.00404368
-0.00274374
-0.00417362
-0.00322534
-0.00428694
-0.00372563
-0.00439244
-0.0042429
-0.0044963
-0.0047764
-0.00460255
-0.00532624
-0.00471364
-0.00589321
-0.00483089
-0.00647853
-0.00495495
-0.00708333
-0.00508643
-0.00771044
-0.00522567
-0.00536826
-0.00837567
-4.52698e-05
-0.000488336
-0.000171297
-0.00125549
-0.000372089
-0.0018763
-0.0006406
-0.00236868
-0.000968742
-0.00275082
-0.00134788
-0.00304206
-0.00176952
-0.00326195
-0.00222591
-0.00342888
-0.00271051
-0.00355908
-0.00321821
-0.00366593
-0.00374534
-0.0037598
-0.00428959
-0.00384819
-0.00484972
-0.00393617
-0.00542534
-0.00402693
-0.00601665
-0.00412233
-0.00662421
-0.00422333
-0.00724876
-0.00433039
-0.00789154
-0.00444365
-0.00855476
-0.00456246
-0.0046858
-0.00923723
-5.86529e-05
-0.000429683
-0.000215964
-0.00109818
-0.000459379
-0.00163288
-0.000776566
-0.00205149
-0.00115549
-0.00237189
-0.00158489
-0.00261267
-0.00205476
-0.00279208
-0.00255676
-0.00292688
-0.00308437
-0.00303147
-0.00363287
-0.00311744
-0.00419912
-0.00319354
-0.00478136
-0.00326595
-0.00537878
-0.00333875
-0.00599131
-0.0034144
-0.00661934
-0.0034943
-0.0072635
-0.00357917
-0.00792457
-0.00366932
-0.00860342
-0.0037648
-0.0093007
-0.00386518
-0.00397027
-0.0100162
-7.05553e-05
-0.000359128
-0.000255308
-0.000913425
-0.00053564
-0.00135255
-0.000894484
-0.00169265
-0.0013164
-0.00194997
-0.00178797
-0.0021411
-0.00229806
-0.00228199
-0.00283798
-0.00238696
-0.00340135
-0.0024681
-0.00398383
-0.00253495
-0.00458282
-0.00259456
-0.00519697
-0.0026518
-0.0058259
-0.00270982
-0.00646982
-0.00277049
-0.00712928
-0.00283483
-0.00780508
-0.00290337
-0.00849807
-0.00297633
-0.00920915
-0.00305372
-0.00993904
-0.00313529
-0.00322104
-0.0106883
-8.05747e-05
-0.000278553
-0.00028817
-0.00070583
-0.000598928
-0.00104179
-0.000991775
-0.0012998
-0.00144849
-0.00149325
-0.00195396
-0.00163563
-0.00249626
-0.00173969
-0.00306648
-0.00181674
-0.00365845
-0.00187614
-0.0042682
-0.00192519
-0.00489355
-0.00196921
-0.00553356
-0.00201179
-0.00618813
-0.00205524
-0.00685772
-0.0021009
-0.00754307
-0.00214948
-0.00824511
-0.00220134
-0.0089648
-0.00225664
-0.00970313
-0.00231539
-0.010461
-0.00237739
-0.00244273
-0.0112393
-8.83822e-05
-0.000190171
-0.000313626
-0.000480586
-0.00064771
-0.000707706
-0.00106644
-0.000881073
-0.00154947
-0.00101022
-0.00208047
-0.00110464
-0.00264693
-0.00117323
-0.00323988
-0.00122379
-0.00385331
-0.00126271
-0.00448359
-0.00129491
-0.00512886
-0.00132394
-0.00578846
-0.00135219
-0.00646255
-0.00138115
-0.00715176
-0.00141168
-0.007857
-0.00144424
-0.00857928
-0.00147906
-0.00931968
-0.00151623
-0.0100793
-0.00155576
-0.0108592
-0.00159752
-0.00164158
-0.0116603
-9.37278e-05
-9.64429e-05
-0.000330982
-0.000243332
-0.000680853
-0.000357835
-0.00111701
-0.000444919
-0.00161769
-0.000509535
-0.00216574
-0.000556588
-0.00274832
-0.000590646
-0.00335642
-0.000615684
-0.00398419
-0.000634941
-0.00462821
-0.000650897
-0.00528682
-0.000665325
-0.00595961
-0.000679411
-0.00664687
-0.000693892
-0.00734936
-0.00070919
-0.00806807
-0.000725528
-0.00880412
-0.000743014
-0.00955866
-0.000761696
-0.0103328
-0.000781573
-0.0111278
-0.00080258
-0.000824761
-0.0119446
-9.64429e-05
-3.04491e-14
-0.000339775
-7.81734e-14
-0.00069761
-7.10071e-14
-0.00114253
-1.02619e-13
-0.00165206
-1.10476e-13
-0.00220865
-1.09857e-13
-0.0027993
-1.02077e-13
-0.00341498
-9.4279e-14
-0.00404992
-8.61087e-14
-0.00470082
-7.66569e-14
-0.00536614
-6.83674e-14
-0.00604556
-6.35046e-14
-0.00673945
-6.14592e-14
-0.00744864
-6.22677e-14
-0.00817416
-6.53617e-14
-0.00891718
-7.09993e-14
-0.00967887
-7.80267e-14
-0.0104604
-8.51046e-14
-0.011263
-9.15228e-14
-9.82826e-14
-0.0120878
-9.64429e-05
9.64429e-05
-0.000339775
0.000243332
-0.00069761
0.000357835
-0.00114253
0.000444919
-0.00165206
0.000509535
-0.00220865
0.000556588
-0.0027993
0.000590646
-0.00341498
0.000615684
-0.00404992
0.000634941
-0.00470082
0.000650897
-0.00536614
0.000665325
-0.00604556
0.000679411
-0.00673945
0.000693892
-0.00744864
0.00070919
-0.00817416
0.000725528
-0.00891718
0.000743014
-0.00967887
0.000761696
-0.0104604
0.000781573
-0.011263
0.00080258
0.000824761
-0.0120878
-9.37278e-05
0.000190171
-0.000330982
0.000480586
-0.000680853
0.000707706
-0.00111701
0.000881073
-0.00161769
0.00101022
-0.00216574
0.00110464
-0.00274832
0.00117323
-0.00335642
0.00122379
-0.00398419
0.00126271
-0.00462821
0.00129491
-0.00528682
0.00132394
-0.00595961
0.00135219
-0.00664687
0.00138115
-0.00734936
0.00141168
-0.00806807
0.00144424
-0.00880412
0.00147906
-0.00955866
0.00151623
-0.0103328
0.00155576
-0.0111278
0.00159752
0.00164158
-0.0119446
-8.83822e-05
0.000278553
-0.000313626
0.00070583
-0.00064771
0.00104179
-0.00106644
0.0012998
-0.00154947
0.00149325
-0.00208047
0.00163563
-0.00264693
0.00173969
-0.00323988
0.00181674
-0.00385331
0.00187614
-0.00448359
0.00192519
-0.00512886
0.00196921
-0.00578846
0.00201179
-0.00646255
0.00205524
-0.00715176
0.0021009
-0.007857
0.00214948
-0.00857928
0.00220134
-0.00931968
0.00225664
-0.0100793
0.00231539
-0.0108592
0.00237739
0.00244273
-0.0116603
-8.05747e-05
0.000359128
-0.00028817
0.000913425
-0.000598928
0.00135255
-0.000991775
0.00169265
-0.00144849
0.00194997
-0.00195396
0.0021411
-0.00249626
0.00228199
-0.00306648
0.00238696
-0.00365845
0.0024681
-0.0042682
0.00253495
-0.00489355
0.00259456
-0.00553356
0.0026518
-0.00618813
0.00270982
-0.00685772
0.00277049
-0.00754307
0.00283483
-0.00824511
0.00290337
-0.0089648
0.00297633
-0.00970313
0.00305372
-0.010461
0.00313529
0.00322104
-0.0112393
-7.05553e-05
0.000429683
-0.000255308
0.00109818
-0.00053564
0.00163288
-0.000894484
0.00205149
-0.0013164
0.00237189
-0.00178797
0.00261267
-0.00229806
0.00279208
-0.00283798
0.00292688
-0.00340135
0.00303147
-0.00398383
0.00311744
-0.00458282
0.00319354
-0.00519697
0.00326595
-0.0058259
0.00333875
-0.00646982
0.0034144
-0.00712928
0.0034943
-0.00780508
0.00357917
-0.00849807
0.00366932
-0.00920915
0.0037648
-0.00993904
0.00386518
0.00397027
-0.0106883
-5.86529e-05
0.000488336
-0.000215964
0.00125549
-0.000459379
0.0018763
-0.000776566
0.00236868
-0.00115549
0.00275082
-0.00158489
0.00304206
-0.00205476
0.00326195
-0.00255676
0.00342888
-0.00308437
0.00355908
-0.00363287
0.00366593
-0.00419912
0.0037598
-0.00478136
0.00384819
-0.00537878
0.00393617
-0.00599131
0.00402693
-0.00661934
0.00412233
-0.0072635
0.00422333
-0.00792457
0.00433039
-0.00860342
0.00444365
-0.0093007
0.00456246
0.0046858
-0.0100162
-4.52698e-05
0.000533606
-0.000171297
0.00138152
-0.000372089
0.00207709
-0.0006406
0.00263719
-0.000968742
0.00307896
-0.00134788
0.0034212
-0.00176952
0.00368359
-0.00222591
0.00388527
-0.00271051
0.00404368
-0.00321821
0.00417362
-0.00374534
0.00428694
-0.00428959
0.00439244
-0.00484972
0.0044963
-0.00542534
0.00460255
-0.00601665
0.00471364
-0.00662421
0.00483089
-0.00724876
0.00495495
-0.00789154
0.00508643
-0.00855476
0.00522567
0.00536826
-0.00923723
-3.08735e-05
0.000564479
-0.000122688
0.00147333
-0.000276151
0.00223055
-0.00048981
0.00285085
-0.00075995
0.0033491
-0.00108105
0.0037423
-0.00144651
0.00404906
-0.00184953
0.00428829
-0.00228374
0.00447788
-0.00274374
0.00463362
-0.00322534
0.00476853
-0.00372563
0.00489273
-0.0042429
0.00501356
-0.0047764
0.00513605
-0.00532624
0.00526348
-0.00589321
0.00539786
-0.00647853
0.00554027
-0.00708333
0.00569122
-0.00771044
0.00585278
0.00603349
-0.00837567
-1.59671e-05
0.000580446
-7.17302e-05
0.00152909
-0.000174374
0.00233319
-0.000328085
0.00300456
-0.000533785
0.0035548
-0.000789461
0.00399797
-0.00109089
0.00435049
-0.00143257
0.00462997
-0.00180856
0.00485388
-0.00221329
0.00503835
-0.00264199
0.00519723
-0.00309097
0.00534172
-0.00355768
0.00548026
-0.00404054
0.00561891
-0.00453882
0.00576176
-0.00505241
0.00591145
-0.00558177
0.00606962
-0.00612818
0.00623764
-0.00669293
0.00641753
0.00660852
-0.00726796
-1.32034e-06
0.000581767
-2.02498e-05
0.00154802
-7.00098e-05
0.00238295
-0.000160086
0.00309464
-0.000296018
0.00369073
-0.000479651
0.00418161
-0.000709588
0.00458043
-0.000982106
0.00490248
-0.00129215
0.00516393
-0.00163427
0.00538047
-0.00200333
0.00556629
-0.00239497
0.00573336
-0.00280586
0.00589116
-0.00323372
0.00604677
-0.00367717
0.00620521
-0.00413557
0.00636985
-0.00460878
0.00654284
-0.00509669
0.00672554
-0.00559786
0.0069187
0.00712214
-0.00611147
1.29763e-05
0.00056879
2.99754e-05
0.00153103
3.33762e-05
0.00237955
8.98207e-06
0.00311903
-5.33902e-05
0.0037531
-0.000159464
0.00428768
-0.000311069
0.00473203
-0.000506823
0.00509824
-0.000743071
0.00540018
-0.00101493
0.00565233
-0.00131718
0.00586854
-0.00164495
0.00606113
-0.00199417
0.00624037
-0.00236171
0.00641431
-0.00274541
0.00658891
-0.00314386
0.00676831
-0.0035562
0.00695518
-0.00398163
0.00715097
-0.00441889
0.00735597
0.00756961
-0.00486637
2.57854e-05
0.000543005
7.68221e-05
0.00147999
0.000131867
0.00232451
0.000172996
0.0030779
0.000186216
0.00373988
0.000161806
0.00431209
9.443e-05
0.00479941
-1.73439e-05
0.00521001
-0.000171874
0.00555471
-0.000365374
0.00584583
-0.000592967
0.00609613
-0.000849531
0.00631769
-0.00113032
0.00652116
-0.00143137
0.00671535
-0.00174956
0.00690711
-0.00208265
0.0071014
-0.00242902
0.00730155
-0.00278744
0.00750939
-0.00315681
0.00772534
0.00794909
-0.0035363
3.69059e-05
0.000506099
0.000118535
0.00139836
0.000221716
0.00222133
0.000326044
0.00297357
0.000414391
0.00365153
0.000473577
0.00425291
0.000494728
0.00477826
0.000473198
0.00523154
0.000408064
0.00561984
0.000301297
0.00595259
0.000156827
0.0062406
-2.04211e-05
0.00649494
-0.000225324
0.00672607
-0.000453147
0.00694318
-0.000699871
0.00715383
-0.000962311
0.00736384
-0.00123808
0.00757731
-0.00152549
0.0077968
-0.00182335
0.0080232
0.00825661
-0.00213086
4.58455e-05
0.000460253
0.000153423
0.00129078
0.000299235
0.00207551
0.000461816
0.00281099
0.000622091
0.00349126
0.000764138
0.00411086
0.000875843
0.00466655
0.000949203
0.00515818
0.000980216
0.00558883
0.000968384
0.00596443
0.000915935
0.00629305
0.000826921
0.00658395
0.000706326
0.00684666
0.000559311
0.00709019
0.000390668
0.00732247
0.000204489
0.00755002
4.03036e-06
0.00777777
-0.000208294
0.00800912
-0.000431012
0.00824592
0.00848894
-0.000663345
5.22994e-05
0.000407954
0.000180155
0.00116293
0.000361258
0.00189441
0.000574572
0.00259768
0.000800425
0.00326541
0.00102124
0.00389005
0.00122233
0.00446546
0.00139258
0.00498794
0.00152468
0.00545673
0.00161507
0.00587403
0.00166351
0.00624461
0.00167233
0.00657514
0.0016456
0.00687339
0.00158834
0.00714745
0.00150576
0.00740506
0.00140272
0.00765305
0.00128343
0.00789706
0.00115122
0.00814133
0.00100861
0.00838853
0.00864003
0.000857524
5.61254e-05
0.000351829
0.000197889
0.00102116
0.000405452
0.00168685
0.000659577
0.00234355
0.000941412
0.00298357
0.00123304
0.00359842
0.0015183
0.0041802
0.00178361
0.00472263
0.00201857
0.00522177
0.0022163
0.00567629
0.00237343
0.00608748
0.00248968
0.00645889
0.00256728
0.00679579
0.0026102
0.00710453
0.00262338
0.00739188
0.00261206
0.00766438
0.00258119
0.00792793
0.00253516
0.00818736
0.00247756
0.00844613
0.00870606
0.00241153
5.7358e-05
0.000294471
0.000206375
0.000872146
0.000430604
0.00146262
0.000713699
0.00206046
0.00103892
0.00265835
0.00138942
0.00324792
0.0017489
0.00382071
0.00210245
0.00436909
0.0024373
0.00488692
0.00274352
0.00537007
0.00301434
0.00581666
0.0032462
0.00622703
0.00343851
0.00660349
0.0035931
0.00694994
0.00371362
0.00727135
0.00380482
0.00757318
0.00387186
0.00786089
0.00391982
0.0081394
0.00395336
0.00841259
0.0086826
0.00397682
5.62075e-05
0.000238263
0.000206005
0.000722348
0.000436822
0.0012318
0.000735897
0.00176138
0.00108959
0.00230466
0.00148337
0.00285414
0.00190225
0.00340184
0.0023314
0.00393994
0.00275697
0.00446135
0.00316681
0.00496022
0.00355116
0.00543231
0.00390301
0.00587517
0.00421829
0.00628821
0.00449571
0.00667252
0.0047364
0.00703065
0.00494342
0.00736617
0.00512108
0.00768323
0.00527439
0.00798609
0.00540862
0.00827836
0.00856192
0.0055293
5.30364e-05
0.000185227
0.000197772
0.000577613
0.000425564
0.00100401
0.000727467
0.00145948
0.00109348
0.00193865
0.00151231
0.00243531
0.00197149
0.00294265
0.00245779
0.00345364
0.00295779
0.00396135
0.00345859
0.00445942
0.00394852
0.00494238
0.00441776
0.00540594
0.00485881
0.00584716
0.00526673
0.00626461
0.00563916
0.00665822
0.00597615
0.00702918
0.00627974
0.00737965
0.00655351
0.00771231
0.0068022
0.00802967
0.00833244
0.00703169
4.83154e-05
0.000136911
0.000183151
0.000442777
0.000399468
0.000787694
0.000691945
0.001167
0.00105427
0.00157632
0.0014788
0.00201078
0.0019564
0.00246505
0.00247664
0.0029334
0.00302803
0.00340995
0.00359862
0.00388884
0.00417648
0.00436452
0.0047504
0.00483201
0.00531045
0.00528711
0.00584846
0.0057266
0.00635837
0.0061483
0.0068364
0.00655116
0.00728097
0.00693507
0.00769259
0.00730069
0.00807351
0.00764875
0.00797791
0.00842804
4.25606e-05
9.43508e-05
0.000163895
0.000321442
0.000361982
0.000589607
0.000634601
0.000894385
0.000978773
0.00123214
0.00139037
0.00159919
0.00186385
0.00199156
0.00239223
0.00240502
0.0029671
0.00283508
0.00357889
0.00327705
0.00421721
0.0037262
0.00487134
0.00417788
0.00553069
0.00462776
0.00618534
0.00507195
0.00682649
0.00550716
0.00744681
0.00593084
0.0080407
0.00634118
0.0086043
0.00673709
0.00913543
0.00711762
0.0074792
0.00963415
3.6264e-05
5.80868e-05
0.000141782
0.000215924
0.000316836
0.000414552
0.000561608
0.000649612
0.000875795
0.000917958
0.00125826
0.00121672
0.00170679
0.00154304
0.00221784
0.00189397
0.00278653
0.00226639
0.0034066
0.00265698
0.00407057
0.00306223
0.00476993
0.00347852
0.00549552
0.00390218
0.00623782
0.00432964
0.0069874
0.00475758
0.00773523
0.00518301
0.00847297
0.00560345
0.00919294
0.00601711
0.00988734
0.00642322
0.0068193
0.0105472
2.98268e-05
2.826e-05
0.000118363
0.000127388
0.000267491
0.000265424
0.000479064
0.00043804
0.000754689
0.000642333
0.00109548
0.000875925
0.00150183
0.00113669
0.0019732
0.0014226
0.00250795
0.00173164
0.00310327
0.00206166
0.00375514
0.00241037
0.00445837
0.00277529
0.00520674
0.00315381
0.00599321
0.00354317
0.00681015
0.00394063
0.00764966
0.00434349
0.00850388
0.00474923
0.00936537
0.00515562
0.0102262
0.00556234
0.00597501
0.0110705
2.35177e-05
4.74227e-06
9.4794e-05
5.61116e-05
0.000216713
0.000143505
0.000392161
0.000262592
0.000623942
0.000410552
0.000914625
0.000585242
0.00126638
0.000784931
0.00168083
0.00100816
0.00215886
0.0012536
0.00270057
0.00151996
0.0033051
0.00180583
0.00397068
0.00210971
0.00469463
0.00242986
0.00547348
0.00276432
0.00630326
0.00311085
0.00717988
0.00346687
0.00809985
0.00382926
0.00906219
0.00419328
0.0100738
0.00455077
0.00489616
0.0111526
1.74711e-05
-1.27288e-05
7.17818e-05
1.80092e-06
0.000166403
4.88841e-05
0.000304773
0.000124222
0.000490322
0.000225003
0.000726387
0.000349176
0.00101612
0.000495195
0.0013624
0.000661885
0.00176768
0.00084832
0.00223394
0.0010537
0.00276252
0.00127725
0.00335407
0.00151816
0.00400846
0.00177547
0.00472476
0.00204803
0.0055012
0.00233441
0.0063353
0.00263277
0.00722406
0.00294051
0.00816413
0.0032532
0.00915276
0.00356214
0.0038455
0.0102034
1.17141e-05
-2.44429e-05
4.97148e-05
-3.61997e-05
0.000117776
-1.91767e-05
0.000219618
2.23791e-05
0.000358915
8.57062e-05
0.000539286
0.000168805
0.000764269
0.000270213
0.00103726
0.000388891
0.00136148
0.000524108
0.00173984
0.000675331
0.00217496
0.000842137
0.00266899
0.00102413
0.00322359
0.00122087
0.00383986
0.00143176
0.00451834
0.00165593
0.0052591
0.00189201
0.00606206
0.00213754
0.00692757
0.0023877
0.00785779
0.00263192
0.00284395
0.00885934
6.26848e-06
-3.07114e-05
2.8824e-05
-5.87552e-05
7.17069e-05
-6.20596e-05
0.000138755
-4.46694e-05
0.000233681
-9.21949e-06
0.000360106
4.23796e-05
0.00052157
0.000108749
0.000721534
0.000188927
0.000963365
0.000282277
0.00125031
0.000388388
0.00158545
0.000506992
0.0019717
0.000637888
0.00241171
0.000780852
0.00290794
0.000935525
0.00346264
0.00110124
0.00407795
0.0012767
0.00475612
0.00145937
0.00549956
0.00164426
0.00631039
0.00182109
0.00196689
0.00718745
1.18612e-06
-3.18975e-05
9.48044e-06
-6.70495e-05
2.92013e-05
-8.17805e-05
6.42759e-05
-7.97439e-05
0.000118376
-6.33198e-05
0.000194989
-3.42329e-05
0.00029747
6.26785e-06
0.000429085
5.73114e-05
0.000593027
0.000118335
0.000792431
0.000188984
0.00103038
0.000269045
0.0013099
0.000358368
0.00163397
0.000456776
0.00200556
0.000563937
0.00242763
0.000679173
0.00290319
0.000801134
0.00343528
0.000927277
0.00402655
0.00105299
0.004678
0.00116964
0.00126017
0.00538472
-3.37979e-06
-2.85177e-05
-7.70407e-06
-6.27252e-05
-8.32491e-06
-8.11596e-05
-1.21245e-06
-8.68564e-05
1.72549e-05
-8.17872e-05
5.04042e-05
-6.73822e-05
0.000101353
-4.46813e-05
0.000173072
-1.4407e-05
0.000268446
2.29612e-05
0.000390308
6.71221e-05
0.000541467
0.000117886
0.00072473
0.000175105
0.000942919
0.000238587
0.00119888
0.000307975
0.00149548
0.000382572
0.00183554
0.000461076
0.0022216
0.000541221
0.00265532
0.000619268
0.00313613
0.000688832
0.000738585
0.00365771
-7.18437e-06
-2.13334e-05
-2.18634e-05
-4.80462e-05
-3.90382e-05
-6.39848e-05
-5.45588e-05
-7.13358e-05
-6.4832e-05
-7.1514e-05
-6.66687e-05
-6.55455e-05
-5.71713e-05
-5.41787e-05
-3.36418e-05
-3.79364e-05
6.48808e-06
-1.71687e-05
6.57127e-05
7.89754e-06
0.000146494
3.71047e-05
0.000251276
7.03233e-05
0.000382493
0.000107369
0.000542549
0.000147919
0.000733742
0.000191378
0.00095811
0.000236708
0.00121711
0.000282226
0.00151101
0.000325363
0.00183783
0.000362016
0.000385495
0.00219092
-9.94036e-06
-1.1393e-05
-3.20268e-05
-2.59597e-05
-6.09596e-05