/*--------------------------------*- C++ -*----------------------------------*\
  =========                 |
  \\      /  F ield         | OpenFOAM: The Open Source CFD Toolbox
   \\    /   O peration     | Website:  https://openfoam.org
    \\  /    A nd           | Version:  7
     \\/     M anipulation  |
\*---------------------------------------------------------------------------*/
FoamFile
{
    version     2.0;
    format      ascii;
    class       volScalarField;
    location    "85";
    object      p;
}
// * * * * * * * * * * * * * * * * * * * * * * * * * * * * * * * * * * * * * //

dimensions      [0 2 -2 0 0 0 0];

internalField   nonuniform List<scalar> 
3500
(
-0.18796
-0.185453
-0.182902
-0.180313
-0.177684
-0.175017
-0.1723
-0.169587
-0.166837
-0.164045
-0.161224
-0.158376
-0.155503
-0.152606
-0.149688
-0.146752
-0.143799
-0.140832
-0.137851
-0.134859
-0.131857
-0.128847
-0.12583
-0.122807
-0.119779
-0.116751
-0.113724
-0.1107
-0.107676
-0.10465
-0.101619
-0.0985962
-0.0955796
-0.092563
-0.0895298
-0.0865591
-0.0836031
-0.0806597
-0.07773
-0.0748059
-0.0718988
-0.0690123
-0.066153
-0.0633166
-0.0605214
-0.0577721
-0.0550654
-0.0524061
-0.049798
-0.047245
-0.0447512
-0.0423208
-0.0399573
-0.0376641
-0.035444
-0.0332993
-0.0312318
-0.0292426
-0.0273326
-0.025502
-0.0237504
-0.0220773
-0.0204817
-0.0189625
-0.0175179
-0.0161457
-0.0148436
-0.0136086
-0.0124382
-0.0113302
-0.0102816
-0.0092887
-0.00834771
-0.00745753
-0.0066097
-0.005785
-0.00509702
-0.00445056
-0.00389334
-0.00320463
-0.00260852
-0.00207292
-0.001586
-0.00114345
-0.000743891
-0.000387431
-7.42756e-05
0.000191989
0.00042189
0.000550436
0.000860924
-0.186094
-0.183471
-0.18083
-0.178174
-0.175509
-0.172842
-0.170182
-0.167467
-0.164735
-0.161983
-0.159296
-0.15662
-0.153943
-0.151264
-0.148581
-0.145905
-0.143234
-0.140566
-0.137901
-0.135236
-0.132569
-0.129898
-0.12722
-0.124526
-0.121805
-0.119073
-0.11633
-0.113571
-0.110788
-0.107972
-0.105102
-0.102267
-0.0994204
-0.0965567
-0.0936871
-0.0907363
-0.0877091
-0.0847263
-0.081719
-0.0786949
-0.0756594
-0.0726169
-0.0695737
-0.0665361
-0.0635124
-0.0605097
-0.0575338
-0.0545917
-0.0516901
-0.0488359
-0.0460358
-0.0432962
-0.0406234
-0.0380229
-0.0355
-0.0330593
-0.0307048
-0.0284396
-0.0262666
-0.0241876
-0.022204
-0.0203166
-0.0185255
-0.0168303
-0.0152302
-0.0137237
-0.0123088
-0.0109832
-0.00974466
-0.00859031
-0.0075171
-0.00652171
-0.00560064
-0.00475061
-0.00396733
-0.00324742
-0.00259685
-0.0019893
-0.00138475
-0.00100682
-0.00063064
-0.000287765
1.00972e-05
0.000262459
0.000467774
0.000626895
0.000742
0.000810385
0.000852358
0.000788217
0.000938565
-0.184809
-0.182081
-0.179352
-0.176629
-0.173919
-0.171228
-0.16856
-0.165917
-0.163307
-0.160742
-0.158142
-0.15556
-0.153001
-0.150457
-0.147914
-0.145483
-0.143078
-0.140686
-0.138305
-0.135928
-0.133552
-0.13117
-0.128782
-0.126348
-0.123844
-0.121391
-0.118921
-0.116418
-0.113875
-0.11129
-0.108678
-0.105957
-0.103175
-0.100341
-0.0974589
-0.0945193
-0.091523
-0.0884783
-0.0853855
-0.0822503
-0.079079
-0.0758781
-0.0726554
-0.0694194
-0.0661793
-0.0629444
-0.059724
-0.0565272
-0.0533637
-0.0502425
-0.0471726
-0.0441627
-0.041221
-0.038355
-0.0355718
-0.0328778
-0.0302784
-0.0277786
-0.0253824
-0.0230931
-0.0209131
-0.0188444
-0.0168878
-0.015044
-0.0133125
-0.0116925
-0.0101827
-0.00878113
-0.00748548
-0.00629306
-0.00520079
-0.00420529
-0.00330301
-0.00249029
-0.00176334
-0.00111869
-0.000553468
-6.19164e-05
0.000357111
0.000681056
0.000939446
0.00113855
0.00128266
0.0013722
0.00141113
0.0014013
0.00135009
0.00125281
0.00114721
0.000921916
0.000928255
-0.181297
-0.178503
-0.175732
-0.17299
-0.170282
-0.167615
-0.164992
-0.162418
-0.159899
-0.15743
-0.155011
-0.152646
-0.150337
-0.148094
-0.145807
-0.143561
-0.141352
-0.139172
-0.13701
-0.134859
-0.132709
-0.13055
-0.128367
-0.126196
-0.123935
-0.121619
-0.119248
-0.116819
-0.114329
-0.111779
-0.109152
-0.106443
-0.103651
-0.100775
-0.0978168
-0.0947782
-0.0916661
-0.0884852
-0.0852413
-0.0819418
-0.0785952
-0.075211
-0.0717995
-0.0683719
-0.0649393
-0.0615133
-0.0581051
-0.0547263
-0.0513879
-0.0481007
-0.044875
-0.0417206
-0.0386463
-0.0356606
-0.0327709
-0.029984
-0.0273055
-0.0247405
-0.0222931
-0.0199665
-0.0177631
-0.0156846
-0.0137319
-0.0119052
-0.0102039
-0.00862705
-0.0071729
-0.00583929
-0.00462359
-0.00352276
-0.0025334
-0.00165188
-0.000874322
-0.000196749
0.000384815
0.00087427
0.00127557
0.00159149
0.00182311
0.00197858
0.00206523
0.00208973
0.00205671
0.00197212
0.00183906
0.00167163
0.0014592
0.00126151
0.000934232
0.000838937
-0.181044
-0.178204
-0.175399
-0.172638
-0.169928
-0.167273
-0.164679
-0.162147
-0.159681
-0.157279
-0.154943
-0.152671
-0.150462
-0.148313
-0.14621
-0.14415
-0.142126
-0.140128
-0.138144
-0.136165
-0.134178
-0.132172
-0.130143
-0.128092
-0.125992
-0.12383
-0.121598
-0.119286
-0.116889
-0.114402
-0.111817
-0.109132
-0.106346
-0.103459
-0.10047
-0.0973849
-0.094208
-0.0909459
-0.087606
-0.0841973
-0.0807298
-0.0772148
-0.0736641
-0.0700902
-0.0665059
-0.0629243
-0.0593582
-0.0558205
-0.0523237
-0.0488796
-0.0454998
-0.042195
-0.0389749
-0.0358487
-0.0328247
-0.02991
-0.0271111
-0.0244334
-0.0218813
-0.0194586
-0.017168
-0.0150114
-0.0129899
-0.011104
-0.00935343
-0.00773712
-0.00625357
-0.00490066
-0.00367576
-0.00257579
-0.00159729
-0.000736415
1.09326e-05
0.000649098
0.00118258
0.00161602
0.00195411
0.00220165
0.00236363
0.00244678
0.00245801
0.00240502
0.0022937
0.00213418
0.00192915
0.00170078
0.00142992
0.00119556
0.00083642
0.000694167
-0.18117
-0.178311
-0.175495
-0.17273
-0.170025
-0.167386
-0.164818
-0.162324
-0.159907
-0.157566
-0.155302
-0.15311
-0.150988
-0.148928
-0.146923
-0.144966
-0.143048
-0.14116
-0.13929
-0.137426
-0.135554
-0.133662
-0.131739
-0.129772
-0.12775
-0.125659
-0.123489
-0.121231
-0.118877
-0.116419
-0.113854
-0.111175
-0.108383
-0.105477
-0.10246
-0.0993339
-0.096106
-0.0927833
-0.0893746
-0.0858897
-0.0823399
-0.0787374
-0.0750951
-0.0714264
-0.0677453
-0.0640656
-0.0604013
-0.0567659
-0.0531725
-0.0496339
-0.0461621
-0.0427681
-0.0394624
-0.0362545
-0.0331528
-0.0301649
-0.0272975
-0.024556
-0.0219453
-0.0194691
-0.0171303
-0.014931
-0.0128724
-0.010955
-0.00917865
-0.00754234
-0.00604458
-0.00468326
-0.00345573
-0.00235884
-0.00138898
-0.000542161
0.000185998
0.000800205
0.00130545
0.00170703
0.00201049
0.00222183
0.00234728
0.00239421
0.0023697
0.00228295
0.00214029
0.00195544
0.00172934
0.00149144
0.0012159
0.000991194
0.000662699
0.000524481
-0.178608
-0.175799
-0.173045
-0.170353
-0.167731
-0.165184
-0.162716
-0.160328
-0.158022
-0.155797
-0.153649
-0.151575
-0.149568
-0.14762
-0.145722
-0.143865
-0.142038
-0.140228
-0.138422
-0.136608
-0.134772
-0.132901
-0.130982
-0.129001
-0.126947
-0.124809
-0.122577
-0.120243
-0.117798
-0.115239
-0.112562
-0.109765
-0.106849
-0.103816
-0.100671
-0.0974198
-0.0940699
-0.0906308
-0.0871131
-0.0835285
-0.0798897
-0.07621
-0.0725034
-0.0687841
-0.0650662
-0.061364
-0.0576912
-0.0540613
-0.050487
-0.0469805
-0.043553
-0.040215
-0.036976
-0.0338446
-0.0308284
-0.027934
-0.0251672
-0.0225327
-0.0200342
-0.0176749
-0.0154567
-0.0133811
-0.0114485
-0.00965886
-0.00801124
-0.00650417
-0.00513555
-0.00390271
-0.00280246
-0.00183111
-0.000984507
-0.000258075
0.00035319
0.000854645
0.00125211
0.00155168
0.00176014
0.00188431
0.00193242
0.00191173
0.00183291
0.00170202
0.0015355
0.00133269
0.00112698
0.00089094
0.000710369
0.000455647
0.00035876
-0.176097
-0.173381
-0.170725
-0.168135
-0.165617
-0.163174
-0.160811
-0.158527
-0.156321
-0.154192
-0.152135
-0.150144
-0.148211
-0.146329
-0.144486
-0.142673
-0.140877
-0.139084
-0.137283
-0.135458
-0.133598
-0.131688
-0.129716
-0.12767
-0.12554
-0.123315
-0.120986
-0.118549
-0.115996
-0.113326
-0.110536
-0.107628
-0.104604
-0.101468
-0.0982271
-0.0948888
-0.0914623
-0.0879582
-0.0843883
-0.0807649
-0.0771015
-0.0734116
-0.0697094
-0.0660088
-0.0623237
-0.0586676
-0.0550538
-0.0514949
-0.0480026
-0.0445881
-0.0412616
-0.0380326
-0.0349095
-0.0318998
-0.0290101
-0.0262461
-0.0236124
-0.0211131
-0.0187511
-0.0165286
-0.014447
-0.0125069
-0.0107082
-0.00905025
-0.00753155
-0.00615008
-0.00490324
-0.00378784
-0.0028002
-0.00193611
-0.0011909
-0.000559392
-3.60368e-05
0.000385303
0.000711007
0.00094833
0.00110435
0.00118791
0.00120627
0.00117102
0.0010879
0.000974516
0.000829825
0.000686956
0.00052196
0.000408983
0.000250506
0.000216798
-0.176019
-0.173356
-0.170746
-0.168196
-0.165712
-0.163299
-0.16096
-0.158696
-0.156505
-0.154387
-0.152336
-0.150348
-0.148416
-0.14653
-0.144683
-0.142863
-0.141058
-0.139257
-0.137446
-0.135614
-0.133746
-0.131831
-0.129855
-0.127808
-0.12568
-0.123461
-0.121142
-0.118719
-0.116185
-0.113538
-0.110777
-0.107902
-0.104916
-0.101824
-0.0986303
-0.0953433
-0.0919719
-0.0885259
-0.0850167
-0.0814561
-0.0778566
-0.0742314
-0.0705938
-0.066957
-0.0633345
-0.059739
-0.0561834
-0.0526796
-0.0492392
-0.0458729
-0.0425906
-0.0394014
-0.0363137
-0.0333347
-0.0304711
-0.0277284
-0.0251114
-0.022624
-0.0202692
-0.0180494
-0.0159661
-0.0140201
-0.0122113
-0.0105393
-0.00900266
-0.00759956
-0.00632749
-0.00518338
-0.00416364
-0.0032641
-0.00248013
-0.00180653
-0.00123772
-0.000767474
-0.000389344
-9.59175e-05
0.000119915
0.000267151
0.000353015
0.000389139
0.000381269
0.000346409
0.000284495
0.000224929
0.000150233
0.000119128
6.43695e-05
0.000105082
-0.17332
-0.1708
-0.168322
-0.165894
-0.16352
-0.161205
-0.158952
-0.156762
-0.154634
-0.152565
-0.150551
-0.148587
-0.146667
-0.144782
-0.142922
-0.141078
-0.139239
-0.137393
-0.135529
-0.133635
-0.131698
-0.129708
-0.127655
-0.125527
-0.123317
-0.121016
-0.11862
-0.116122
-0.11352
-0.110812
-0.107999
-0.105082
-0.102066
-0.0989543
-0.0957548
-0.0924751
-0.0891242
-0.0857123
-0.0822504
-0.07875
-0.0752232
-0.0716825
-0.0681404
-0.0646091
-0.061101
-0.0576279
-0.0542014
-0.0508325
-0.0475315
-0.0443081
-0.0411712
-0.0381288
-0.0351884
-0.0323563
-0.0296382
-0.027039
-0.0245626
-0.0222124
-0.0199906
-0.0178991
-0.0159389
-0.0141101
-0.0124124
-0.0108448
-0.00940553
-0.00809235
-0.00690238
-0.00583221
-0.00487784
-0.00403477
-0.00329794
-0.00266188
-0.00212044
-0.00166725
-0.00129503
-0.000996732
-0.000763617
-0.000588457
-0.000460349
-0.000373136
-0.000311865
-0.00027459
-0.000237745
-0.000211374
-0.000152879
-0.000104539
1.39798e-05
-0.171027
-0.168644
-0.166294
-0.163982
-0.161715
-0.159495
-0.157324
-0.155205
-0.153136
-0.151114
-0.149137
-0.1472
-0.145296
-0.143419
-0.141559
-0.139709
-0.137857
-0.135995
-0.134112
-0.132197
-0.130241
-0.128232
-0.126162
-0.124023
-0.121806
-0.119506
-0.117118
-0.114637
-0.112061
-0.109389
-0.106622
-0.103763
-0.100814
-0.0977814
-0.0946705
-0.0914891
-0.0882456
-0.0849494
-0.0816104
-0.0782394
-0.0748471
-0.0714449
-0.0680441
-0.0646558
-0.0612911
-0.0579609
-0.0546755
-0.0514448
-0.0482781
-0.0451841
-0.0421709
-0.0392458
-0.0364154
-0.0336856
-0.0310615
-0.0285475
-0.0261472
-0.0238636
-0.021699
-0.0196548
-0.017732
-0.0159309
-0.014251
-0.0126913
-0.0112503
-0.00992576
-0.00871512
-0.00761511
-0.00662198
-0.00573149
-0.00493889
-0.00423899
-0.00362605
-0.00309402
-0.00263617
-0.00224575
-0.00191492
-0.00163661
-0.00140149
-0.00120296
-0.0010293
-0.000876278
-0.000727489
-0.000585532
-0.000424077
-0.000264306
-6.12786e-05
-0.165992
-0.163863
-0.161747
-0.15965
-0.157578
-0.155534
-0.15352
-0.151537
-0.149585
-0.147661
-0.145764
-0.143889
-0.142032
-0.140187
-0.138348
-0.136506
-0.134656
-0.132787
-0.130894
-0.128966
-0.126996
-0.124978
-0.122902
-0.120764
-0.118557
-0.116277
-0.11392
-0.111484
-0.108967
-0.10637
-0.103693
-0.100938
-0.0981093
-0.0952113
-0.0922495
-0.0892304
-0.0861613
-0.0830503
-0.0799057
-0.0767368
-0.0735527
-0.0703631
-0.0671775
-0.0640054
-0.0608563
-0.0577393
-0.0546633
-0.0516368
-0.0486677
-0.0457636
-0.0429313
-0.0401774
-0.0375075
-0.0349268
-0.0324398
-0.0300505
-0.0277622
-0.0255775
-0.0234984
-0.0215265
-0.0196625
-0.0179067
-0.016259
-0.0147185
-0.0132838
-0.011953
-0.0107239
-0.00959348
-0.00855845
-0.00761503
-0.00675898
-0.00598565
-0.00528995
-0.00466644
-0.00410923
-0.00361219
-0.00316868
-0.00277212
-0.00241505
-0.00209091
-0.00179119
-0.00151038
-0.00123807
-0.000972386
-0.000698543
-0.000425319
-0.000128786
-0.161158
-0.159236
-0.157313
-0.155395
-0.153486
-0.15159
-0.149707
-0.147839
-0.145987
-0.144148
-0.142322
-0.140505
-0.138693
-0.136883
-0.135069
-0.133246
-0.131409
-0.12955
-0.127664
-0.125745
-0.123786
-0.121782
-0.119727
-0.117617
-0.115447
-0.113214
-0.110915
-0.108549
-0.106115
-0.103613
-0.101045
-0.0984117
-0.095717
-0.0929647
-0.0901597
-0.0873074
-0.084414
-0.0814863
-0.0785315
-0.0755572
-0.0725714
-0.0695821
-0.0665974
-0.0636255
-0.0606745
-0.0577522
-0.0548662
-0.0520238
-0.0492321
-0.0464974
-0.0438261
-0.0412236
-0.038695
-0.0362451
-0.0338777
-0.0315965
-0.0294043
-0.0273037
-0.0252966
-0.0233842
-0.0215675
-0.0198467
-0.0182217
-0.0166919
-0.015256
-0.0139124
-0.0126592
-0.0114938
-0.0104132
-0.00941411
-0.00849288
-0.00764534
-0.00686708
-0.00615325
-0.00549883
-0.00489834
-0.00434627
-0.00383664
-0.00336364
-0.002921
-0.00250276
-0.00210288
-0.00171518
-0.00133521
-0.000955523
-0.000577175
-0.000188258
-0.156037
-0.154318
-0.152587
-0.150847
-0.149102
-0.147355
-0.145608
-0.143861
-0.142116
-0.140372
-0.138628
-0.136882
-0.135132
-0.133374
-0.131604
-0.12982
-0.128016
-0.126188
-0.124331
-0.122441
-0.120514
-0.118544
-0.116529
-0.114464
-0.112347
-0.110175
-0.107946
-0.10566
-0.103316
-0.100914
-0.0984568
-0.0959453
-0.0933824
-0.0907716
-0.0881172
-0.0854237
-0.0826966
-0.0799415
-0.0771646
-0.0743724
-0.0715716
-0.0687689
-0.0659713
-0.0631858
-0.0604192
-0.0576782
-0.0549693
-0.052299
-0.049673
-0.0470972
-0.0445768
-0.0421166
-0.0397213
-0.0373947
-0.0351405
-0.0329619
-0.0308614
-0.0288413
-0.0269033
-0.0250487
-0.0232782
-0.0215922
-0.0199906
-0.0184729
-0.0170382
-0.015685
-0.0144115
-0.0132157
-0.0120951
-0.0110466
-0.0100671
-0.00915311
-0.0083007
-0.00750568
-0.00676382
-0.0060703
-0.00542062
-0.00480942
-0.00423225
-0.00368327
-0.00315841
-0.00265148
-0.00215921
-0.00167543
-0.00119758
-0.000721085
-0.000242426
-0.151014
-0.149475
-0.147914
-0.146335
-0.144739
-0.14313
-0.141509
-0.139879
-0.138239
-0.13659
-0.134931
-0.133261
-0.131579
-0.129881
-0.128167
-0.126433
-0.124675
-0.122891
-0.121078
-0.119231
-0.117348
-0.115426
-0.113462
-0.111454
-0.109399
-0.107297
-0.105145
-0.102943
-0.100692
-0.0983927
-0.0960455
-0.0936528
-0.0912169
-0.0887411
-0.0862288
-0.0836842
-0.0811117
-0.0785163
-0.0759031
-0.0732777
-0.0706456
-0.0680128
-0.0653851
-0.0627685
-0.0601686
-0.0575914
-0.0550424
-0.052527
-0.0500505
-0.0476176
-0.0452331
-0.0429011
-0.0406257
-0.0384104
-0.0362583
-0.0341722
-0.0321545
-0.0302073
-0.028332
-0.0265298
-0.0248015
-0.0231475
-0.0215678
-0.0200618
-0.0186289
-0.017268
-0.0159774
-0.0147554
-0.0135998
-0.0125081
-0.0114775
-0.0105051
-0.00958743
-0.00872095
-0.00790209
-0.00712662
-0.0063909
-0.00569017
-0.005021
-0.004378
-0.00375852
-0.0031563
-0.0025702
-0.00199266
-0.00142482
-0.000857447
-0.000293836
-0.146075
-0.144705
-0.143303
-0.141874
-0.14042
-0.138944
-0.137447
-0.135931
-0.134396
-0.132844
-0.131274
-0.129686
-0.128079
-0.126451
-0.124801
-0.123126
-0.121426
-0.119697
-0.117938
-0.116146
-0.114319
-0.112455
-0.110552
-0.108608
-0.106623
-0.104594
-0.102523
-0.100408
-0.0982504
-0.0960505
-0.0938099
-0.0915304
-0.0892142
-0.086864
-0.0844831
-0.0820749
-0.0796434
-0.0771927
-0.0747273
-0.072252
-0.0697715
-0.0672909
-0.0648151
-0.0623492
-0.0598983
-0.0574672
-0.0550609
-0.0526839
-0.0503408
-0.0480358
-0.0457729
-0.0435559
-0.0413882
-0.039273
-0.0372129
-0.0352106
-0.0332682
-0.0313873
-0.0295694
-0.0278157
-0.0261268
-0.0245031
-0.0229446
-0.0214511
-0.0200218
-0.0186559
-0.0173521
-0.0161088
-0.0149242
-0.0137961
-0.0127222
-0.0116998
-0.0107263
-0.00979836
-0.00891309
-0.00806681
-0.00725655
-0.00647806
-0.00572876
-0.00500364
-0.00430112
-0.00361487
-0.00294544
-0.00228403
-0.00163487
-0.000984398
-0.000342056
-0.14129
-0.140075
-0.138821
-0.137532
-0.136211
-0.13486
-0.13348
-0.132075
-0.130644
-0.129188
-0.127709
-0.126205
-0.124676
-0.123122
-0.121542
-0.119934
-0.118298
-0.116632
-0.114935
-0.113204
-0.11144
-0.10964
-0.107803
-0.105929
-0.104016
-0.102065
-0.100075
-0.0980459
-0.0959794
-0.093876
-0.091737
-0.0895642
-0.0873597
-0.085126
-0.0828658
-0.0805823
-0.078279
-0.0759594
-0.0736274
-0.0712871
-0.0689426
-0.0665982
-0.0642583
-0.0619272
-0.0596092
-0.0573086
-0.0550296
-0.0527762
-0.0505523
-0.0483615
-0.0462075
-0.0440934
-0.0420224
-0.039997
-0.0380199
-0.0360931
-0.0342187
-0.0323981
-0.0306328
-0.0289236
-0.0272712
-0.0256761
-0.0241383
-0.0226575
-0.0212334
-0.019865
-0.0185513
-0.0172911
-0.0160827
-0.0149243
-0.013814
-0.0127495
-0.0117284
-0.010748
-0.00980587
-0.00889875
-0.00802424
-0.00717855
-0.00635976
-0.00556314
-0.00478803
-0.00402796
-0.00328489
-0.00254885
-0.00182682
-0.00110111
-0.000386925
-0.136681
-0.135607
-0.134489
-0.13333
-0.132133
-0.1309
-0.129633
-0.128334
-0.127003
-0.125643
-0.124253
-0.122834
-0.121386
-0.119909
-0.118402
-0.116865
-0.115298
-0.113699
-0.112069
-0.110405
-0.108707
-0.106975
-0.105208
-0.103406
-0.101567
-0.0996938
-0.0977847
-0.0958408
-0.0938629
-0.091852
-0.0898096
-0.0877372
-0.085637
-0.0835111
-0.0813622
-0.0791929
-0.0770063
-0.0748056
-0.0725941
-0.0703755
-0.0681532
-0.0659311
-0.0637129
-0.0615023
-0.0593031
-0.057119
-0.0549536
-0.0528105
-0.050693
-0.0486044
-0.0465477
-0.0445258
-0.0425413
-0.0405966
-0.0386941
-0.0368355
-0.0350226
-0.0332569
-0.0315395
-0.0298712
-0.0282528
-0.0266846
-0.0251667
-0.023699
-0.0222811
-0.0209123
-0.0195918
-0.0183185
-0.0170909
-0.0159077
-0.0147671
-0.0136671
-0.0126059
-0.011581
-0.0105903
-0.00963113
-0.00870143
-0.0077978
-0.00691887
-0.00606015
-0.00522172
-0.00439695
-0.00358907
-0.00278691
-0.00200003
-0.00120682
-0.000427915
-0.13226
-0.131316
-0.130323
-0.129285
-0.128204
-0.127082
-0.125922
-0.124724
-0.123491
-0.122223
-0.120921
-0.119587
-0.11822
-0.116821
-0.115389
-0.113926
-0.11243
-0.110901
-0.109339
-0.107745
-0.106116
-0.104454
-0.102758
-0.101029
-0.0992656
-0.0974691
-0.0956398
-0.0937784
-0.0918858
-0.0899633
-0.0880123
-0.0860344
-0.0840314
-0.0820055
-0.079959
-0.0778943
-0.0758142
-0.0737216
-0.0716193
-0.0695105
-0.0673984
-0.0652862
-0.0631772
-0.0610746
-0.0589818
-0.056902
-0.0548384
-0.0527939
-0.0507717
-0.0487744
-0.0468049
-0.0448656
-0.0429589
-0.0410868
-0.0392515
-0.0374545
-0.0356974
-0.0339815
-0.0323079
-0.0306773
-0.0290904
-0.0275476
-0.026049
-0.0245945
-0.0231837
-0.0218163
-0.0204914
-0.0192082
-0.0179655
-0.016762
-0.0155963
-0.0144668
-0.0133717
-0.0123091
-0.0112771
-0.0102734
-0.00929636
-0.00834282
-0.00741191
-0.0064993
-0.00560573
-0.00472438
-0.0038596
-0.00299911
-0.00215484
-0.00130153
-0.000464899
-0.128036
-0.127211
-0.126335
-0.125409
-0.124436
-0.123419
-0.122359
-0.121258
-0.120118
-0.11894
-0.117724
-0.116473
-0.115186
-0.113865
-0.112509
-0.111118
-0.109694
-0.108237
-0.106745
-0.105221
-0.103662
-0.102071
-0.100447
-0.0987895
-0.0971003
-0.0953795
-0.0936277
-0.091846
-0.0900353
-0.0881969
-0.0863322
-0.0844428
-0.0825305
-0.0805973
-0.0786453
-0.0766767
-0.074694
-0.0726998
-0.0706966
-0.0686873
-0.0666747
-0.0646616
-0.0626509
-0.0606455
-0.0586482
-0.056662
-0.0546896
-0.0527336
-0.0507968
-0.0488816
-0.0469903
-0.0451253
-0.0432885
-0.0414818
-0.0397071
-0.0379658
-0.0362594
-0.0345889
-0.0329553
-0.0313595
-0.0298019
-0.0282829
-0.0268028
-0.0253614
-0.0239586
-0.0225939
-0.0212667
-0.0199763
-0.0187218
-0.0175019
-0.0163157
-0.0151615
-0.014038
-0.0129435
-0.0118765
-0.0108348
-0.00981711
-0.00882063
-0.00784484
-0.00688553
-0.005944
-0.00501327
-0.00409868
-0.00318695
-0.00229211
-0.00138565
-0.000497902
-0.124019
-0.123304
-0.122534
-0.121711
-0.12084
-0.11992
-0.118955
-0.117946
-0.116894
-0.115802
-0.11467
-0.113499
-0.11229
-0.111045
-0.109763
-0.108446
-0.107093
-0.105706
-0.104285
-0.10283
-0.101341
-0.0998196
-0.0982657
-0.09668
-0.0950631
-0.0934158
-0.091739
-0.0900337
-0.088301
-0.0865423
-0.0847589
-0.0829525
-0.0811247
-0.0792774
-0.0774126
-0.0755323
-0.0736388
-0.0717344
-0.0698215
-0.0679025
-0.06598
-0.0640564
-0.0621345
-0.0602166
-0.0583054
-0.0564033
-0.0545129
-0.0526366
-0.0507765
-0.048935
-0.0471141
-0.0453159
-0.0435421
-0.0417945
-0.0400746
-0.0383838
-0.0367233
-0.0350942
-0.0334974
-0.0319335
-0.0304031
-0.0289067
-0.0274442
-0.0260158
-0.0246214
-0.0232605
-0.0219327
-0.0206374
-0.0193738
-0.0181409
-0.0169378
-0.0157633
-0.0146161
-0.0134947
-0.0123979
-0.0113238
-0.0102714
-0.009238
-0.00822351
-0.00722379
-0.00624065
-0.00526693
-0.00430885
-0.00335226
-0.00241308
-0.00145986
-0.000527102
-0.120213
-0.119597
-0.118926
-0.118199
-0.117421
-0.116593
-0.115716
-0.114793
-0.113826
-0.112815
-0.111763
-0.110669
-0.109536
-0.108365
-0.107156
-0.105909
-0.104627
-0.103309
-0.101956
-0.100569
-0.0991491
-0.097696
-0.0962108
-0.0946943
-0.0931474
-0.0915709
-0.089966
-0.0883336
-0.086675
-0.0849915
-0.0832845
-0.0815557
-0.0798065
-0.0780389
-0.0762546
-0.0744555
-0.0726438
-0.0708215
-0.0689908
-0.0671539
-0.0653131
-0.0634707
-0.0616289
-0.0597901
-0.0579565
-0.0561303
-0.0543138
-0.052509
-0.0507181
-0.048943
-0.0471856
-0.0454476
-0.0437307
-0.0420364
-0.0403661
-0.0387211
-0.0371024
-0.0355111
-0.0339479
-0.0324135
-0.0309085
-0.0294331
-0.0279875
-0.0265719
-0.0251861
-0.0238299
-0.0225028
-0.0212045
-0.0199341
-0.018691
-0.0174743
-0.016283
-0.015116
-0.013972
-0.0128501
-0.0117484
-0.0106664
-0.00960133
-0.00855352
-0.00751891
-0.00649973
-0.00548868
-0.00449277
-0.00349703
-0.00251911
-0.00152496
-0.000552768
-0.116621
-0.116097
-0.115515
-0.114877
-0.114185
-0.113442
-0.112648
-0.111806
-0.110918
-0.109984
-0.109007
-0.107988
-0.106927
-0.105827
-0.104687
-0.10351
-0.102295
-0.101044
-0.0997584
-0.0984378
-0.0970836
-0.0956966
-0.0942777
-0.0928279
-0.0913481
-0.0898394
-0.0883028
-0.0867396
-0.0851509
-0.0835382
-0.0819028
-0.0802463
-0.0785703
-0.0768763
-0.0751663
-0.073442
-0.0717052
-0.069958
-0.0682023
-0.0664401
-0.0646736
-0.0629047
-0.0611356
-0.0593682
-0.0576047
-0.055847
-0.0540972
-0.0523571
-0.0506285
-0.0489133
-0.0472131
-0.0455295
-0.0438639
-0.0422179
-0.0405926
-0.0389891
-0.0374085
-0.0358517
-0.0343194
-0.0328122
-0.0313306
-0.029875
-0.0284456
-0.0270424
-0.0256654
-0.0243144
-0.0229892
-0.0216893
-0.0204141
-0.0191631
-0.0179355
-0.0167304
-0.0155471
-0.0143842
-0.013241
-0.012116
-0.0110086
-0.00991653
-0.00884011
-0.00777545
-0.00672515
-0.00568177
-0.00465304
-0.00362327
-0.00261162
-0.00158179
-0.000575207
-0.113245
-0.112805
-0.112305
-0.111748
-0.111136
-0.110471
-0.109754
-0.108988
-0.108173
-0.107313
-0.106407
-0.105457
-0.104466
-0.103433
-0.10236
-0.101248
-0.100098
-0.0989121
-0.0976899
-0.096433
-0.0951422
-0.0938186
-0.0924632
-0.091077
-0.0896611
-0.0882167
-0.0867448
-0.0852468
-0.0837239
-0.0821775
-0.080609
-0.0790198
-0.0774116
-0.0757858
-0.0741443
-0.0724886
-0.0708206
-0.069142
-0.0674547
-0.0657606
-0.0640616
-0.0623594
-0.0606561
-0.0589534
-0.0572533
-0.0555575
-0.0538679
-0.0521861
-0.0505138
-0.0488527
-0.0472041
-0.0455697
-0.0439506
-0.0423483
-0.0407637
-0.039198
-0.0376521
-0.0361268
-0.0346228
-0.0331406
-0.0316808
-0.0302437
-0.0288296
-0.0274384
-0.0260702
-0.024725
-0.0234024
-0.0221022
-0.0208238
-0.0195668
-0.0183306
-0.0171144
-0.0159175
-0.0147389
-0.0135779
-0.0124331
-0.0113043
-0.0101891
-0.00908814
-0.00799766
-0.00692056
-0.00584928
-0.00479215
-0.0037329
-0.00269202
-0.00163119
-0.000594738
-0.110085
-0.109721
-0.109296
-0.108814
-0.108275
-0.107682
-0.107036
-0.10634
-0.105595
-0.104802
-0.103963
-0.103079
-0.102152
-0.101183
-0.100173
-0.099124
-0.0980363
-0.0969112
-0.0957498
-0.0945534
-0.093323
-0.0920596
-0.0907644
-0.0894385
-0.0880831
-0.0866993
-0.0852884
-0.0838516
-0.0823903
-0.0809058
-0.0793994
-0.0778727
-0.0763272
-0.0747644
-0.0731858
-0.0715932
-0.0699881
-0.0683723
-0.0667474
-0.0651153
-0.0634775
-0.061836
-0.0601923
-0.0585482
-0.0569054
-0.0552656
-0.0536304
-0.0520013
-0.0503798
-0.0487675
-0.0471656
-0.0455756
-0.0439986
-0.0424358
-0.0408882
-0.0393568
-0.0378425
-0.0363459
-0.0348678
-0.0334088
-0.0319692
-0.0305494
-0.0291496
-0.02777
-0.0264106
-0.0250713
-0.023752
-0.0224524
-0.0211722
-0.0199108
-0.0186679
-0.0174427
-0.0162348
-0.0150431
-0.0138672
-0.0127058
-0.0115588
-0.0104239
-0.00930205
-0.00818947
-0.00708935
-0.00599406
-0.00491246
-0.00382777
-0.0027616
-0.00167397
-0.000611671
-0.107141
-0.106846
-0.106489
-0.106074
-0.105603
-0.105076
-0.104496
-0.103864
-0.103183
-0.102453
-0.101676
-0.100854
-0.0999877
-0.0990788
-0.0981284
-0.0971378
-0.0961082
-0.0950409
-0.093937
-0.0927978
-0.0916243
-0.0904177
-0.0891792
-0.0879101
-0.0866115
-0.0852846
-0.0839307
-0.082551
-0.081147
-0.07972
-0.0782713
-0.0768024
-0.0753148
-0.0738098
-0.0722891
-0.0707542
-0.0692067
-0.0676482
-0.0660802
-0.0645044
-0.0629224
-0.0613357
-0.0597461
-0.0581551
-0.0565641
-0.0549749
-0.0533888
-0.0518072
-0.0502317
-0.0486634
-0.0471037
-0.0455538
-0.0440149
-0.0424878
-0.0409738
-0.0394735
-0.0379879
-0.0365176
-0.0350633
-0.0336254
-0.0322045
-0.0308008
-0.0294146
-0.028046
-0.0266952
-0.025362
-0.0240465
-0.0227482
-0.0214672
-0.0202028
-0.0189547
-0.0177225
-0.0165055
-0.0153031
-0.0141148
-0.0129395
-0.011777
-0.0106255
-0.00948588
-0.00835443
-0.00723462
-0.00611874
-0.00501612
-0.00390954
-0.00282162
-0.00171088
-0.000626296
-0.104412
-0.104178
-0.103883
-0.10353
-0.103119
-0.102653
-0.102133
-0.101561
-0.100938
-0.100267
-0.0995475
-0.0987823
-0.0979726
-0.0971195
-0.0962245
-0.0952888
-0.0943138
-0.0933006
-0.0922505
-0.0911648
-0.0900446
-0.0888912
-0.0877058
-0.0864897
-0.085244
-0.0839701
-0.0826693
-0.0813428
-0.0799919
-0.0786181
-0.0772226
-0.0758069
-0.0743725
-0.0729206
-0.071453
-0.0699709
-0.0684759
-0.0669695
-0.0654532
-0.0639285
-0.062397
-0.0608602
-0.0593195
-0.0577763
-0.0562323
-0.0546887
-0.0531469
-0.0516082
-0.0500741
-0.0485456
-0.047024
-0.0455103
-0.0440057
-0.042511
-0.0410273
-0.0395553
-0.0380957
-0.0366494
-0.0352167
-0.0337983
-0.0323946
-0.0310058
-0.0296324
-0.0282743
-0.0269318
-0.0256047
-0.0242932
-0.022997
-0.0217158
-0.0204495
-0.0191977
-0.0179599
-0.0167357
-0.0155245
-0.0143259
-0.0131389
-0.0119636
-0.010798
-0.00964328
-0.00849578
-0.00735919
-0.00622572
-0.00510511
-0.00397976
-0.00287317
-0.00174259
-0.00063888
-0.101894
-0.101715
-0.101477
-0.101179
-0.100823
-0.100412
-0.0999469
-0.0994292
-0.0988606
-0.0982425
-0.0975765
-0.096864
-0.0961064
-0.095305
-0.0944613
-0.0935766
-0.0926522
-0.0916893
-0.0906892
-0.0896532
-0.0885826
-0.0874787
-0.0863426
-0.0851757
-0.0839791
-0.0827543
-0.0815025
-0.080225
-0.0789231
-0.0775982
-0.0762517
-0.0748848
-0.0734991
-0.0720958
-0.0706765
-0.0692425
-0.0677952
-0.0663362
-0.0648668
-0.0633885
-0.0619027
-0.0604109
-0.0589143
-0.0574144
-0.0559126
-0.0544101
-0.0529082
-0.0514083
-0.0499114
-0.0484187
-0.0469313
-0.0454503
-0.0439767
-0.0425112
-0.0410549
-0.0396084
-0.0381726
-0.0367479
-0.035335
-0.0339344
-0.0325465
-0.0311716
-0.0298099
-0.0284618
-0.0271272
-0.0258062
-0.0244989
-0.023205
-0.0219245
-0.0206571
-0.0194026
-0.0181605
-0.0169306
-0.0157122
-0.0145052
-0.0133085
-0.0121224
-0.0109449
-0.00977752
-0.00861643
-0.00746558
-0.00631714
-0.00518119
-0.00403982
-0.00291729
-0.00176974
-0.000649669
-0.0995847
-0.0994565
-0.0992675
-0.0990195
-0.0987141
-0.0983528
-0.0979373
-0.097469
-0.0969494
-0.0963802
-0.0957627
-0.0950983
-0.0943886
-0.0936348
-0.0928383
-0.0920005
-0.0911226
-0.0902061
-0.0892522
-0.0882621
-0.0872373
-0.0861789
-0.0850882
-0.0839666
-0.0828153
-0.0816357
-0.0804289
-0.0791964
-0.0779394
-0.0766593
-0.0753574
-0.0740351
-0.0726937
-0.0713346
-0.0699592
-0.0685688
-0.0671649
-0.0657487
-0.0643217
-0.0628853
-0.0614407
-0.0599893
-0.0585325
-0.0570715
-0.0556076
-0.0541421
-0.0526761
-0.0512109
-0.0497474
-0.0482869
-0.0468303
-0.0453786
-0.0439328
-0.0424937
-0.041062
-0.0396386
-0.0382241
-0.0368191
-0.0354242
-0.0340398
-0.0326663
-0.0313041
-0.0299535
-0.0286145
-0.0272875
-0.0259724
-0.0246693
-0.0233781
-0.0220987
-0.0208309
-0.0195745
-0.0183292
-0.0170948
-0.0158706
-0.0146567
-0.0134521
-0.012257
-0.0110696
-0.00989152
-0.00871897
-0.00755607
-0.00639494
-0.00524598
-0.00409099
-0.00295489
-0.00179289
-0.00065888
-0.0974821
-0.0973983
-0.0972539
-0.0970507
-0.09679
-0.0964735
-0.0961026
-0.0956789
-0.0952038
-0.0946788
-0.0941053
-0.0934847
-0.0928185
-0.092108
-0.0913546
-0.0905596
-0.0897243
-0.0888502
-0.0879385
-0.0869905
-0.0860075
-0.0849908
-0.0839417
-0.0828615
-0.0817515
-0.0806131
-0.0794474
-0.0782558
-0.0770397
-0.0758003
-0.074539
-0.0732571
-0.0719559
-0.0706367
-0.069301
-0.06795
-0.066585
-0.0652074
-0.0638185
-0.0624196
-0.0610121
-0.059597
-0.0581758
-0.0567497
-0.0553198
-0.0538873
-0.0524534
-0.0510192
-0.0495857
-0.0481539
-0.0467249
-0.0452995
-0.0438786
-0.042463
-0.0410535
-0.0396508
-0.0382555
-0.0368682
-0.0354895
-0.0341198
-0.0327594
-0.0314089
-0.0300683
-0.028738
-0.027418
-0.0261086
-0.0248097
-0.0235212
-0.0222432
-0.0209756
-0.019718
-0.0184704
-0.0172325
-0.0160037
-0.0147842
-0.013573
-0.0123705
-0.011175
-0.00998789
-0.00880572
-0.00763268
-0.00646084
-0.00530088
-0.00413437
-0.00298678
-0.00181252
-0.000666707
-0.0955382
-0.0954333
-0.0952698
-0.0950491
-0.0947725
-0.0944415
-0.0940577
-0.0936224
-0.0931372
-0.0926033
-0.0920222
-0.0913952
-0.0907238
-0.0900094
-0.0892531
-0.0884565
-0.0876208
-0.0867473
-0.0858373
-0.0848923
-0.0839134
-0.082902
-0.0818593
-0.0807867
-0.0796855
-0.078557
-0.0774025
-0.0762232
-0.0750205
-0.0737958
-0.0725502
-0.0712851
-0.0700018
-0.0687017
-0.067386
-0.0660559
-0.0647128
-0.063358
-0.0619927
-0.0606181
-0.0592355
-0.057846
-0.0564509
-0.0550513
-0.0536482
-0.0522429
-0.0508362
-0.0494293
-0.0480231
-0.0466186
-0.0452165
-0.0438178
-0.0424232
-0.0410335
-0.0396492
-0.0382711
-0.0368997
-0.0355356
-0.0341791
-0.0328306
-0.0314906
-0.0301592
-0.0288368
-0.0275234
-0.0262193
-0.0249244
-0.0236388
-0.0223625
-0.0210953
-0.0198372
-0.0185878
-0.0173473
-0.0161149
-0.0148909
-0.0136744
-0.0124658
-0.0112634
-0.0100689
-0.00887871