/*--------------------------------*- C++ -*----------------------------------*\
  =========                 |
  \\      /  F ield         | OpenFOAM: The Open Source CFD Toolbox
   \\    /   O peration     | Website:  https://openfoam.org
    \\  /    A nd           | Version:  7
     \\/     M anipulation  |
\*---------------------------------------------------------------------------*/
FoamFile
{
    version     2.0;
    format      ascii;
    class       surfaceScalarField;
    location    "85";
    object      phi;
}
// * * * * * * * * * * * * * * * * * * * * * * * * * * * * * * * * * * * * * //

dimensions      [0 3 -1 0 0 0 0];

internalField   nonuniform List<scalar> 
6868
(
-0.00247562
-6.32733e-05
-0.00245356
-5.4408e-05
-0.00242967
-4.45307e-05
-0.00240393
-3.37362e-05
-0.0023764
-2.21562e-05
-0.00234688
-9.99061e-06
-0.00231545
2.96314e-06
-0.0022824
1.67574e-05
-0.00224736
3.05112e-05
-0.00221029
4.43233e-05
-0.00217128
5.81787e-05
-0.00213031
7.17831e-05
-0.00208736
8.49269e-05
-0.00204243
9.74246e-05
-0.00199551
0.000109098
-0.00194661
0.000119772
-0.00189574
0.00012925
-0.0018429
0.000137354
-0.00178811
0.000143926
-0.00173136
0.000148822
-0.00167267
0.000151922
-0.00161207
0.000153127
-0.00154958
0.000152342
-0.00148523
0.00014952
-0.00141914
0.000144752
-0.0013514
0.000137933
-0.00128207
0.000129047
-0.00121117
0.00011813
-0.00113874
0.000105224
-0.00106483
9.04148e-05
-0.000989623
7.39526e-05
-0.000913254
5.59059e-05
-0.000835762
3.62833e-05
-0.000757
1.50657e-05
-0.000677526
-6.75837e-06
-0.000597692
-2.92644e-05
-0.000517253
-5.29981e-05
-0.000436707
-7.70273e-05
-0.000355455
-0.000101282
-0.000274063
-0.000125652
-0.000192681
-0.000149904
-0.000111448
-0.000173795
-3.04506e-05
-0.000197103
5.01338e-05
-0.00021958
0.000130265
-0.000241108
0.000209797
-0.000261519
0.000288746
-0.000280583
0.000367036
-0.000298153
0.000444616
-0.0003141
0.000521454
-0.000328303
0.000597532
-0.000340659
0.000672849
-0.000351079
0.000747424
-0.000359491
0.000821286
-0.000365841
0.000894477
-0.000370091
0.000967048
-0.000372223
0.00103906
-0.000372233
0.00111056
-0.000370134
0.00118163
-0.000365955
0.00125233
-0.000359743
0.00132271
-0.000351557
0.00139282
-0.000341472
0.00146272
-0.000329572
0.00153245
-0.000315957
0.00160204
-0.000300736
0.00167151
-0.000284028
0.00174088
-0.000265967
0.00181015
-0.000246697
0.00187931
-0.000226367
0.00194834
-0.00020513
0.00201723
-0.000183145
0.00208596
-0.000160582
0.00215445
-0.000137618
0.0022227
-0.000114413
0.00229073
-9.11352e-05
0.0023585
-6.79802e-05
0.00242563
-4.51488e-05
0.00249231
-2.27041e-05
0.00255836
-7.46138e-07
0.00262428
1.98021e-05
0.00268969
3.97588e-05
0.00275458
5.85464e-05
0.002819
7.593e-05
0.00288296
9.1783e-05
0.00294649
0.000105888
0.00300964
0.00011802
0.00307246
0.000127908
-0.000190733
0.00313502
0.0001353
-0.000197855
0.00319746
0.00013966
-0.000202106
0.00325973
0.000141197
-0.000203462
0.000136711
-0.00019862
-0.00202723
-8.49764e-05
-0.00200363
-7.80138e-05
-0.0019781
-7.00596e-05
-0.00195063
-6.12075e-05
-0.00192121
-5.15702e-05
-0.00188993
-4.12714e-05
-0.00185652
-3.04517e-05
-0.00182052
-1.92371e-05
-0.00178203
-7.98625e-06
-0.00174135
3.64893e-06
-0.00169896
1.57842e-05
-0.00165443
2.72558e-05
-0.00160764
3.81359e-05
-0.00155851
4.83008e-05
-0.00150701
5.75942e-05
-0.00145325
6.6013e-05
-0.00139725
7.3248e-05
-0.00133901
7.91173e-05
-0.00127856
8.34692e-05
-0.0012159
8.61685e-05
-0.00115108
8.70984e-05
-0.00108411
8.61617e-05
-0.00101505
8.32783e-05
-0.00094383
7.83022e-05
-0.00087075
7.1672e-05
-0.000795962
6.31446e-05
-0.000719541
5.26253e-05
-0.000641556
4.01445e-05
-0.000562045
2.5713e-05
-0.00048081
9.18028e-06
-0.000398761
-8.09614e-06
-0.000316173
-2.66825e-05
-0.00023299
-4.68993e-05
-0.000149537
-6.83871e-05
-6.54923e-05
-9.08035e-05
1.90909e-05
-0.000113848
0.000103216
-0.000137123
0.000187174
-0.000160985
0.000270818
-0.000184927
0.000353923
-0.000208756
0.000436283
-0.000232264
0.00051772
-0.000255232
0.000598068
-0.000277452
0.000677216
-0.000298727
0.000755004
-0.000318896
0.000831287
-0.000337802
0.000905989
-0.000355285
0.000979046
-0.00037121
0.00105041
-0.000385466
0.00112006
-0.000397954
0.001188
-0.000408595
0.00125424
-0.000417323
0.00131884
-0.000424091
0.00138187
-0.000428865
0.0014434
-0.000431628
0.00150356
-0.000432377
0.00156245
-0.000431125
0.00162021
-0.000427895
0.00167698
-0.000422726
0.00173291
-0.000415668
0.00178813
-0.000406783
0.0018428
-0.000396143
0.00189706
-0.000383833
0.00195105
-0.000369944
0.00200489
-0.00035458
0.00205872
-0.000337853
0.00211263
-0.000319883
0.00216674
-0.000300801
0.00222111
-0.000280743
0.00227584
-0.000259852
0.00233097
-0.000238278
0.00238656
-0.000216173
0.00244264
-0.000193698
0.00249924
-0.000171014
0.00255639
-0.000148286
0.0026141
-0.000125686
0.00267234
-0.000103388
0.00273118
-8.1548e-05
0.00279077
-6.03369e-05
0.00285059
-4.00141e-05
0.00291096
-2.06149e-05
0.00297179
-2.27931e-06
0.00303334
1.43768e-05
0.00309542
2.97072e-05
0.00315801
4.32895e-05
0.00322111
5.49232e-05
0.0032847
6.43162e-05
0.00334867
7.13294e-05
0.00341306
7.52769e-05
0.00347737
7.68873e-05
7.26954e-05
-0.00114641
-0.0011201
-0.000104324
-0.00109172
-9.84424e-05
-0.00106123
-9.16961e-05
-0.00102861
-8.419e-05
-0.000993842
-7.60367e-05
-0.000956936
-6.73573e-05
-0.000917863
-5.83101e-05
-0.000876774
-4.90756e-05
-0.000833316
-3.98087e-05
-0.000786945
-3.05866e-05
-0.000737998
-2.1692e-05
-0.000686512
-1.33495e-05
-0.000632392
-5.81903e-06
-0.000575515
7.16828e-07
-0.000516876
7.37384e-06
-0.00045595
1.23223e-05
-0.000392648
1.58155e-05
-0.000326963
1.77835e-05
-0.000258922
1.81282e-05
-0.000188573
1.67494e-05
-0.000115949
1.35377e-05
-4.10312e-05
8.36018e-06
3.6289e-05
9.81964e-07
0.000114598
-6.63737e-06
0.00019434
-1.6597e-05
0.000275521
-2.85553e-05
0.000358011
-4.23455e-05
0.000441579
-5.78553e-05
0.000525731
-7.4972e-05
0.000611065
-9.34299e-05
0.000697436
-0.000113054
0.000784301
-0.000133765
0.000871298
-0.000155384
0.000958187
-0.000177693
0.00104481
-0.000200467
0.00113113
-0.000223442
0.00121668
-0.000246539
0.00130127
-0.000269517
0.00138467
-0.000292152
0.00146664
-0.000314238
0.00154699
-0.000335578
0.00162552
-0.000355983
0.00170207
-0.000375278
0.00177648
-0.00039331
0.00184862
-0.00040994
0.00191838
-0.000425041
0.00198567
-0.000438507
0.00205046
-0.00045025
0.00211271
-0.000460201
0.00217242
-0.000468306
0.00222962
-0.000474531
0.00228439
-0.000478855
0.0023368
-0.000481273
0.00238696
-0.000481793
0.00243502
-0.000480437
0.00248113
-0.000477237
0.00252548
-0.000472237
0.00256824
-0.00046549
0.00260963
-0.000457058
0.00264986
-0.000447011
0.00268915
-0.000435428
0.00272771
-0.000422394
0.00276576
-0.000408
0.00280353
-0.000392346
0.00284121
-0.000375536
0.00287901
-0.000357683
0.00291711
-0.000338904
0.00295569
-0.000319323
0.00299491
-0.000299068
0.0030349
-0.000278273
0.00307581
-0.000257078
0.00311774
-0.000235626
0.00316079
-0.000214064
0.00320505
-0.000192543
0.00325058
-0.000171219
0.00329744
-0.000150248
0.00334568
-0.000129785
0.00339533
-0.000109995
0.00344637
-9.10532e-05
0.00349886
-7.3104e-05
0.0035529
-5.63153e-05
0.00360818
-4.0908e-05
0.00366487
-2.69828e-05
0.00372292
-1.47616e-05
0.00378223
-4.38686e-06
0.00384275
3.79977e-06
0.00390421
9.86819e-06
0.00396655
1.29375e-05
0.00402912
1.43227e-05
1.00758e-05
0.000111582
-0.00013252
0.000142
-0.00012886
0.000174675
-0.000124371
0.000209642
-0.000119157
0.000246941
-0.000113335
0.000286616
-0.000107032
0.000328695
-0.000100389
0.00037317
-9.35512e-05
0.000420018
-8.66561e-05
0.00046931
-7.9879e-05
0.000521038
-7.34198e-05
0.000575156
-6.74676e-05
0.000631547
-6.22097e-05
0.000690085
-5.78213e-05
0.000751761
-5.43026e-05
0.000816008
-5.19247e-05
0.000882663
-5.08398e-05
0.000951616
-5.11693e-05
0.00102276
-5.30183e-05
0.00109599
-5.64765e-05
0.00117115
-6.16276e-05
0.00124805
-6.85375e-05
0.00132612
-7.70877e-05
0.00140664
-8.71573e-05
0.00148894
-9.88968e-05
0.00157268
-0.00011229
0.0016576
-0.000127265
0.00174346
-0.000143716
0.00182999
-0.000161503
0.00191701
-0.00018045
0.00200436
-0.000200403
0.00209179
-0.000221204
0.00217907
-0.000242659
0.00226594
-0.000264558
0.00235216
-0.000286691
0.00243755
-0.000308831
0.00252181
-0.000330798
0.00260467
-0.000352384
0.00268591
-0.000373384
0.00276527
-0.000393604
0.00284255
-0.00041286
0.00291755
-0.000430983
0.00299009
-0.000447817
0.00306001
-0.000463226
0.00312716
-0.000477093
0.00319144
-0.000489318
0.00325275
-0.000499822
0.00331105
-0.000508544
0.00336629
-0.000515443
0.00341848
-0.000520495
0.00346764
-0.000523694
0.00351384
-0.00052505
0.00355715
-0.000524586
0.0035977
-0.00052234
0.00363562
-0.000518357
0.00367108
-0.000512697
0.00370426
-0.000505425
0.00373539
-0.000496615
0.00376468
-0.000486346
0.00379237
-0.000474702
0.00381871
-0.000461774
0.00384397
-0.000447653
0.00386841
-0.000432438
0.0038923
-0.000416228
0.00391589
-0.000399127
0.00393944
-0.000381241
0.00396322
-0.00036268
0.00398746
-0.000343558
0.00401238
-0.000323989
0.0040382
-0.000304095
0.00406512
-0.000283997
0.00409331
-0.000263822
0.00412295
-0.0002437
0.00415417
-0.000223762
0.00418709
-0.000204144
0.00422183
-0.000184984
0.00425847
-0.000166422
0.00429707
-0.0001486
0.00433768
-0.000131663
0.00438033
-0.000115754
0.00442503
-0.000101016
0.00447174
-8.76165e-05
0.00452043
-7.56723e-05
0.00457105
-6.53832e-05
0.00462347
-5.68069e-05
0.00467758
-5.03142e-05
0.00473307
-4.56159e-05
0.00478982
-4.38124e-05
0.00484714
-4.29982e-05
-4.77918e-05
0.00160199
-0.000159228
0.00163107
-0.000157947
0.00166257
-0.000155865
0.0016965
-0.000153087
0.00173289
-0.000149726
0.00177176
-0.00014591
0.00181315
-0.000141776
0.00185707
-0.000137472
0.00190356
-0.000133146
0.00195264
-0.00012896
0.00200431
-0.000125086
0.00205854
-0.000121697
0.00211528
-0.000118952
0.00217445
-0.000116986
0.00223607
-0.000115931
0.0023001
-0.000115954
0.00236646
-0.000117195
0.00243505
-0.000119766
0.0025058
-0.00012376
0.00257857
-0.00012925
0.00265323
-0.000136288
0.0027296
-0.000144905
0.00280755
-0.000155045
0.00288706
-0.000166668
0.00296794
-0.000179771
0.00304996
-0.000194316
0.00313292
-0.000210222
0.00321659
-0.00022738
0.00330073
-0.000245649
0.00338515
-0.000264866
0.00346961
-0.000284862
0.00355386
-0.000305456
0.00363766
-0.000326455
0.00372075
-0.000347653
0.0038029
-0.000368842
0.00388388
-0.00038981
0.00396344
-0.000410356
0.00404134
-0.000430281
0.00411735
-0.000449393
0.00419125
-0.000467509
0.00426285
-0.00048446
0.00433196
-0.000500093
0.00439842
-0.000514273
0.00446208
-0.000526882
0.00452281
-0.000537825
0.00458052
-0.000547026
0.00463512
-0.000554428
0.00468657
-0.000559997
0.00473485
-0.000563717
0.00477995
-0.000565591
0.00482189
-0.000565638
0.00486073
-0.000563893
0.00489655
-0.000560406
0.00492945
-0.000555238
0.00495955
-0.000548462
0.00498702
-0.000540159
0.00501201
-0.000530416
0.00503472
-0.000519327
0.00505537
-0.000506991
0.00507417
-0.000493509
0.00509138
-0.000478984
0.00510725
-0.000463522
0.00512204
-0.000447228
0.00513602
-0.000430211
0.00514947
-0.000412576
0.00516266
-0.000394432
0.00517587
-0.000375885
0.00518935
-0.000357043
0.00520338
-0.000338016
0.0052182
-0.000318912
0.00523404
-0.000299841
0.00525113
-0.000280914
0.00526968
-0.000262244
0.00528986
-0.000243945
0.00531185
-0.000226131
0.00533578
-0.00020892
0.00536179
-0.000192428
0.00538996
-0.000176776
0.00542038
-0.000162079
0.00545309
-0.000148463
0.00548811
-0.000136036
0.00552543
-0.000124942
0.00556501
-0.00011525
0.00560679
-0.000107166
0.00565062
-0.00010063
0.00569639
-9.60881e-05
0.00574375
-9.29767e-05
0.00579263
-9.26922e-05
0.0058423
-9.26648e-05
-9.84178e-05
0.00325476
0.00327816
-0.000181356
0.00330422
-0.000181918
0.00333293
-0.0001818
0.00336432
-0.000181112
0.00339838
-0.000179977
0.00343513
-0.000178527
0.00347457
-0.000176905
0.00351668
-0.000175257
0.00356146
-0.000173736
0.00360887
-0.000172501
0.00365888
-0.00017171
0.00371144
-0.000171513
0.00376651
-0.000172049
0.00382402
-0.000173448
0.00388391
-0.000175843
0.00394607
-0.000179351
0.00401038
-0.000184073
0.00407671
-0.000190091
0.00414492
-0.000197465
0.00421487
-0.000206235
0.00428638
-0.000216415
0.00435931
-0.000227979
0.00443353
-0.000240887
0.00450886
-0.000255094
0.00458507
-0.000270534
0.00466197
-0.000287115
0.00473931
-0.000304719
0.00481686
-0.000323207
0.00489441
-0.000342417
0.00497173
-0.000362177
0.00504858
-0.000382303
0.00512472
-0.000402599
0.00519993
-0.000422865
0.00527399
-0.000442896
0.00534666
-0.00046249
0.00541776
-0.000481448
0.00548706
-0.000499581
0.00555437
-0.000516708
0.00561952
-0.00053266
0.00568235
-0.000547284
0.0057427
-0.000560445
0.00580045
-0.000572025
0.00585549
-0.000581926
0.00590774
-0.000590074
0.00595713
-0.000596411
0.0060036
-0.000600903
0.00604714
-0.000603536
0.00608774
-0.000604315
0.00612541
-0.000603262
0.00616019
-0.000600418
0.00619213
-0.000595837
0.00622132
-0.000589587
0.00624783
-0.000581749
0.00627178
-0.000572414
0.0062933
-0.000561679
0.00631253
-0.000549648
0.00632964
-0.000536433
0.00634479
-0.000522146
0.00635818
-0.000506902
0.00637002
-0.000490819
0.00638051
-0.000474014
0.00638989
-0.000456603
0.00639838
-0.0004387
0.00640622
-0.000420422
0.00641367
-0.000401878
0.00642096
-0.00038318
0.00642835
-0.000364435
0.00643609
-0.00034575
0.00644441
-0.000327228
0.00645354
-0.000308974
0.00646371
-0.000291087
0.00647514
-0.000273668
0.00648801
-0.000256817
0.00650251
-0.000240631
0.00651879
-0.000225208
0.00653701
-0.000210643
0.00655727
-0.000197036
0.00657967
-0.000184474
0.00660426
-0.000173061
0.00663109
-0.000162866
0.00666017
-0.000154018
0.00669144
-0.000146523
0.00672488
-0.000140602
0.00676031
-0.00013606
0.00679768
-0.000133458
0.0068366
-0.000131902
0.00687711
-0.000133203
0.00691842
-0.000133967
-0.000140855
0.00497864
0.00499508
-0.000198361
0.0050144
-0.000201122
0.00503659
-0.000203305
0.00506165
-0.00020503
0.00508955
-0.000206426
0.00512027
-0.000207629
0.00515379
-0.00020878
0.00519008
-0.000210021
0.00522908
-0.000211499
0.00527073
-0.00021336
0.00531496
-0.000215743
0.00536169
-0.000218779
0.00541083
-0.000222592
0.00546228
-0.000227296
0.00551593
-0.000232994
0.00557163
-0.000239774
0.00562924
-0.000247703
0.00568861
-0.000256831
0.00574955
-0.000267184
0.00581191
-0.000278767
0.00587549
-0.000291558
0.00594011
-0.000305513
0.00600559
-0.000320573
0.00607172
-0.000336659
0.00613827
-0.000353668
0.00620503
-0.000371481
0.00627178
-0.000389955
0.00633829
-0.000408933
0.00640436
-0.000428242
0.00646976
-0.000447702
0.00653428
-0.000467123
0.00659773
-0.000486311
0.0066599
-0.000505072
0.00672063
-0.000523213
0.00677973
-0.000540548
0.00683704
-0.000556899
0.00689244
-0.000572101
0.00694578
-0.000586001
0.00699696
-0.000598463
0.00704588
-0.000609368
0.00709247
-0.000618617
0.00713668
-0.000626132
0.00717846
-0.000631852
0.00721779
-0.00063574
0.00725466
-0.000637777
0.00728909
-0.000637966
0.0073211
-0.000636325
0.00735073
-0.000632892
0.00737803
-0.000627721
0.00740307
-0.000620878
0.00742593
-0.000612444
0.00744669
-0.000602509
0.00746545
-0.000591175
0.00748232
-0.000578549
0.00749742
-0.000564745
0.00751087
-0.000549883
0.00752281
-0.000534085
0.00753338
-0.000517475
0.00754274
-0.000500178
0.00755105
-0.000482319
0.00755846
-0.000464022
0.00756517
-0.000445409
0.00757135
-0.000426601
0.00757719
-0.000407715
0.00758287
-0.000388865
0.0075886
-0.000370162
0.00759456
-0.000351713
0.00760096
-0.000333622
0.00760797
-0.000315989
0.0076158
-0.000298912
0.00762461
-0.000282484
0.00763459
-0.000266794
0.00764589
-0.000251929
0.00765865
-0.000237974
0.00767302
-0.000225005
0.00768909
-0.000213106
0.00770695
-0.000202339
0.00772668
-0.000192792
0.00774831
-0.000184493
0.00777186
-0.000177568
0.00779728
-0.000171946
0.00782457
-0.000167893
0.00785356
-0.000165045
0.00788424
-0.000164139
0.00791622
-0.000163883
0.00794964
-0.000166624
0.0079837
-0.000168024
-0.000175951
0.00660386
-0.000202985
0.00661155
-0.000208811
0.00662226
-0.000214018
0.00663595
-0.000218724
0.00665258
-0.000223057
0.0066721
-0.000227149
0.00669446
-0.000231135
0.00671959
-0.000235151
0.00674742
-0.000239333
0.00677788
-0.000243816
0.00681086
-0.00024873
0.00684628
-0.000254195
0.00688401
-0.000260324
0.00692394
-0.000267221
0.00696592
-0.000274974
0.0070098
-0.000283658
0.00705543
-0.000293332
0.00710263
-0.000304032
0.00715123
-0.000315779
0.00720103
-0.000328569
0.00725185
-0.000342377
0.00730349
-0.000357156
0.00735576
-0.000372842
0.00740845
-0.000389349
0.00746135
-0.000406573
0.00751427
-0.000424394
0.00756698
-0.000442672
0.00761931
-0.000461255
0.00767104
-0.000479979
0.00772201
-0.000498669
0.00777203
-0.000517147
0.00782095
-0.00053523
0.00786862
-0.000552739
0.0079149
-0.000569494
0.00795968
-0.000585324
0.00800284
-0.000600069
0.00804432
-0.000613579
0.00808404
-0.000625717
0.00812194
-0.000636364
0.00815799
-0.00064542
0.00819217
-0.0006528
0.00822448
-0.00065844
0.00825493
-0.000662296
0.00828353
-0.000664341
0.00831032
-0.00066457
0.00833535
-0.000662996
0.00835867
-0.000659646
0.00838035
-0.000654566
0.00840044
-0.000647816
0.00841903
-0.000639469
0.0084362
-0.00062961
0.00845202
-0.000618334
0.00846659
-0.000605745
0.00848
-0.000591954
0.00849233
-0.000577078
0.00850369
-0.000561239
0.00851416
-0.000544562
0.00852386
-0.000527174
0.00853289
-0.000509203
0.00854134
-0.000490777
0.00854935
-0.000472024
0.00855701
-0.00045307
0.00856444
-0.000434039
0.00857178
-0.00041505
0.00857914
-0.000396221
0.00858664
-0.000377666
0.00859442
-0.000359495
0.00860261
-0.000341811
0.00861134
-0.000324716
0.00862073
-0.000308305
0.00863091
-0.000292667
0.00864201
-0.00027789
0.00865413
-0.00026405
0.00866739
-0.000251228
0.00868187
-0.000239485
0.00869765
-0.000228895
0.00871481
-0.000219498
0.0087334
-0.000211378
0.00875343
-0.000204519
0.00877492
-0.000199061
0.00879782
-0.00019485
0.00882215
-0.00019222
0.00884773
-0.000190619
0.0088746
-0.000191012
0.00890238
-0.000191669
0.00893128
-0.00019552
0.00896058
-0.000197325
-0.000205998
0.00797421
0.00797137
-0.000205971
0.00797155
-0.000214203
0.00797469
-0.00022186
0.0079807
-0.000229067
0.00798951
-0.000235957
0.00800103
-0.000242659
0.00801519
-0.000249306
0.00803188
-0.000256028
0.00805101
-0.00026295
0.00807248
-0.000270194
0.00809616
-0.000277872
0.00812192
-0.000286088
0.00814963
-0.000294935
0.00817915
-0.000304492
0.00821032
-0.000314824
0.00824297
-0.000325982
0.00827693
-0.000337996
0.00831203
-0.000350878
0.00834808
-0.000364623
0.00838491
-0.000379201
0.00842232
-0.000394567
0.00846013
-0.000410655
0.00849816
-0.000427379
0.00853623
-0.00044464
0.00857416
-0.00046232
0.00861177
-0.000480288
0.00864892
-0.0004984
0.00868544
-0.000516502
0.0087212
-0.000534433
0.00875608
-0.000552027
0.00878997
-0.000569117
0.00882277
-0.000585539
0.00885441
-0.000601129
0.00888482
-0.000615734
0.00891396
-0.000629209
0.0089418
-0.00064142
0.00896833
-0.000652248
0.00899355
-0.000661588
0.00901748
-0.000669351
0.00904015
-0.000675465
0.00906159
-0.000679878
0.00908185
-0.000682553
0.00910098
-0.000683473
0.00911904
-0.000682638
0.00913612
-0.000680066
0.00915226
-0.000675789
0.00916755
-0.000669856
0.00918206
-0.000662325
0.00919586
-0.000653272
0.00920903
-0.000642781
0.00922164
-0.000630945
0.00923376
-0.000617867
0.00924547
-0.000603657
0.00925682
-0.000588429
0.00926789
-0.000572305
0.00927873
-0.000555407
0.00928942
-0.000537862
0.00930001
-0.000519796
0.00931058
-0.000501338
0.00932117
-0.000482615
0.00933185
-0.000463753
0.00934269
-0.000444876
0.00935374
-0.000426107
0.00936508
-0.000407562
0.00937678
-0.000389358
0.00938888
-0.000371603
0.00940148
-0.000354405
0.00941462
-0.000337863
0.00942839
-0.000322072
0.00944285
-0.000307121
0.00945805
-0.000293095
0.00947407
-0.000280066
0.00949095
-0.00026811
0.00950874
-0.000257279
0.00952749
-0.000247646
0.00954723
-0.000239229
0.00956796
-0.000232115
0.0095897
-0.000226251
0.00961244
-0.000221801
0.00963611
-0.000218527
0.00966074
-0.00021685
0.00968616
-0.000216033
0.00971241
-0.000217269
0.00973919
-0.000218442
0.00976663
-0.000222967
0.00979425
-0.000224938
-0.00023398
0.00895655
-0.00019544
0.00894895
-0.000206606
0.00894421
-0.000217114
0.00894223
-0.000227085
0.00894291
-0.000236641
0.00894616
-0.000245908
0.00895186
-0.000255011
0.00895991
-0.000264073
0.00897017
-0.000273214
0.00898253
-0.000282547
0.00899683
-0.000292177
0.00901295
-0.000302202
0.00903072
-0.000312708
0.00905
-0.00032377
0.00907062
-0.000335446
0.00909242
-0.000347783
0.00911523
-0.00036081
0.00913889
-0.000374537
0.00916323
-0.000388959
0.00918808
-0.000404049
0.00921327
-0.000419765
0.00923866
-0.000436045
0.0092641
-0.000452812
0.00928943
-0.000469971
0.00931452
-0.000487415
0.00933926
-0.000505023
0.00936352
-0.000522662
0.00938721
-0.000540193
0.00941025
-0.000557468
0.00943256
-0.000574336
0.00945408
-0.000590646
0.00947479
-0.000606248
0.00949466
-0.000620996
0.00951368
-0.000634749
0.00953184
-0.000647377
0.00954918
-0.00065876
0.00956573
-0.00066879
0.00958151
-0.000677374
0.00959659
-0.000684431
0.00961103
-0.000689899
0.00962488
-0.000693731
0.00963822
-0.000695895
0.00965113
-0.000696379
0.00966367
-0.000695182
0.00967593
-0.000692322
0.00968797
-0.00068783
0.00969986
-0.000681752
0.00971168
-0.000674146
0.00972349
-0.000665081
0.00973535
-0.00065464
0.00974732
-0.000642911
0.00975944
-0.000629993
0.00977178
-0.000615991
0.00978436
-0.000601017
0.00979725
-0.000585187
0.00981046
-0.000568621
0.00982404
-0.00055144
0.00983801
-0.00053377
0.00985241
-0.000515736
0.00986726
-0.000497463
0.00988258
-0.000479074
0.0098984
-0.000460694
0.00991473
-0.000442442
0.00993161
-0.000424437
0.00994904
-0.000406791
0.00996705
-0.000389616
0.00998566
-0.000373015
0.0100049
-0.000357089
0.0100247
-0.000341933
0.0100453
-0.000327632
0.0100664
-0.00031427
0.0100883
-0.000301917
0.0101108
-0.000290646
0.010134
-0.000280504
0.010158
-0.000271561
0.0101826
-0.000263821
0.0102078
-0.00025738
0.0102337
-0.000252149
0.0102602
-0.000248324
0.0102873
-0.000245593
0.0103149
-0.000244459
0.0103429
-0.000244037
0.0103713
-0.000245701
0.0104
-0.000247069
0.0104289
-0.000251855
0.0104577
-0.000253822
-0.000262709
0.0145857
-0.000160075
0.0145528
-0.000173647
0.0145222
-0.000186598
0.0144942
-0.000199033
0.0144686
-0.000211057
0.0144455
-0.00022278
0.0144248
-0.00023431
0.0144065
-0.000245751
0.0143904
-0.000257205
0.0143767
-0.000268764
0.014365
-0.000280516
0.0143553
-0.000292538
0.0143475
-0.000304896
0.0143414
-0.000317648
0.0143368
-0.000330835
0.0143335
-0.000344487
0.0143313
-0.000358619
0.01433
-0.000373233
0.0143294
-0.000388311
0.0143291
-0.000403825
0.0143291
-0.000419728
0.014329
-0.00043596
0.0143286
-0.000452449
0.0143278
-0.000469107
0.0143262
-0.000485839
0.0143237
-0.000502537
0.0143201
-0.000519086
0.0143153
-0.000535367
0.0143091
-0.000551255
0.0143014
-0.000566623
0.0142921
-0.000581346
0.0142811
-0.0005953
0.0142685
-0.000608366
0.0142542
-0.00062043
0.0142382
-0.000631389
0.0142206
-0.000641146
0.0142014
-0.000649618
0.0141808
-0.000656731
0.0141588
-0.000662427
0.0141355
-0.000666658
0.0141112
-0.000669392
0.0140859
-0.00067061
0.0140598
-0.000670306
0.0140331
-0.000668489
0.014006
-0.00066518
0.0139786
-0.000660411
0.0139511
-0.000654227
0.0139236
-0.000646684
0.0138964
-0.000637848
0.0138695
-0.000627793
0.0138432
-0.000616601
0.0138176
-0.000604362
0.0137928
-0.000591172
0.0137689
-0.000577131
0.013746
-0.000562345
0.0137243
-0.000546922
0.0137039
-0.000530972
0.0136847
-0.000514609
0.0136669
-0.000497945
0.0136505
-0.000481094
0.0136356
-0.000464169
0.0136222
-0.000447282
0.0136103
-0.000430541
0.0135999
-0.000414056
0.0135911
-0.000397929
0.0135837
-0.00038226
0.0135779
-0.000367147
0.0135734
-0.000352678
0.0135704
-0.000338941
0.0135688
-0.000326013
0.0135685
-0.000313971
0.0135695
-0.000302874
0.0135716
-0.000292792
0.0135749
-0.000283758
0.0135792
-0.000275843
0.0135844
-0.000269031
0.0135904
-0.000263429
0.0135972
-0.000258913
0.0136046
-0.000255709
0.0136124
-0.000253448
0.0136207
-0.000252695
0.0136291
-0.000252473
0.0136377
-0.000254252
0.0136461
-0.000255554
0.0136544
-0.000260142
0.0136625
-0.000261877
-0.000270119
0.0156474
-0.000127335
0.0156161
-0.000142329
0.0155863
-0.000156757
0.0155579
-0.000170704
0.0155311
-0.000184257
0.0155059
-0.000197508
0.0154821
-0.000210544
0.0154598
-0.000223453
0.0154389
-0.000236316
0.0154194
-0.00024921
0.0154011
-0.000262202
0.0153839
-0.000275354
0.0153677
-0.000288719
0.0153524
-0.000302337
0.0153378
-0.00031624
0.0153237
-0.000330447
0.0153101
-0.000344965
0.0152966
-0.000359788
0.0152832
-0.000374899
0.0152697
-0.000390266
0.0152558
-0.000405847
0.0152414
-0.000421587
0.0152264
-0.00043742
0.0152106
-0.000453272
0.0151938
-0.000469058
0.0151759
-0.000484686
0.0151569
-0.00050006
0.0151366
-0.000515079
0.015115
-0.000529638
0.015092
-0.000543633
0.0150676
-0.00055696
0.0150418
-0.000569517
0.0150147
-0.000581208
0.0149862
-0.000591941
0.0149564
-0.000601632
0.0149255
-0.000610204
0.0148935
-0.000617591
0.0148605
-0.000623736
0.0148266
-0.000628592
0.0147921
-0.000632126
0.014757
-0.000634313
0.0147216
-0.000635142
0.0146859
-0.000634613
0.0146501
-0.000632735
0.0146145
-0.000629531
0.0145791
-0.000625031
0.0145441
-0.000619279
0.0145098
-0.000612324
0.0144761
-0.000604225
0.0144434
-0.000595049
0.0144117
-0.000584871
0.0143811
-0.000573768
0.0143517
-0.000561827
0.0143237
-0.000549137
0.0142972
-0.000535791
0.0142722
-0.000521885
0.0142487
-0.000507517
0.0142269
-0.000492788
0.0142067
-0.000477799
0.0141883
-0.00046265
0.0141716
-0.000447442
0.0141566
-0.000432275
0.0141433
-0.000417248
0.0141317
-0.000402455
0.0141217
-0.00038799
0.0141134
-0.000373942
0.0141067
-0.000360398
0.0141014
-0.000347439
0.0140976
-0.000335141
0.0140952
-0.000323574
0.014094
-0.000312808
0.014094
-0.000302892
0.0140951
-0.000293892
0.0140972
-0.00028583
0.0141001
-0.000278777
0.0141038
-0.000272706
0.0141081
-0.000267726
0.0141129
-0.0002637
0.0141181
-0.000260864
0.0141234
-0.000258833
0.0141289
-0.000258181
0.0141344
-0.000257938
0.0141397
-0.000259542
0.0141447
-0.000260622
0.0141493
-0.000264729
0.0141536
-0.000266189
-0.000273563
0.0161369
-0.000101735
0.0161119
-0.000117395
0.0160877
-0.000132531
0.0160642
-0.000147218
0.0160415
-0.00016153
0.0160195
-0.000175543
0.0159983
-0.000189328
0.0159778
-0.000202953
0.015958
-0.000216485
0.0159388
-0.000229983
0.0159201
-0.000243503
0.0159018
-0.000257093
0.0158839
-0.000270791
0.0158662
-0.000284631
0.0158486
-0.000298634
0.0158309
-0.000312812
0.0158131
-0.000327169
0.015795
-0.000341697
0.0157765
-0.000356377
0.0157574
-0.00037118
0.0157376
-0.00038607
0.0157171
-0.000400998
0.0156955
-0.000415908
0.015673
-0.000430736
0.0156494
-0.000445411
0.0156245
-0.000459856
0.0155985
-0.000473992
0.0155711
-0.000487733
0.0155425
-0.000500995
0.0155125
-0.000513691
0.0154813
-0.000525736
0.0154488
-0.000537048
0.0154152
-0.000547547
0.0153804
-0.00055716
0.0153446
-0.000565819
0.0153078
-0.000573462
0.0152703
-0.000580036
0.015232
-0.000585496
0.0151933
-0.000589805
0.0151541
-0.000592937
0.0151146
-0.000594874
0.0150751
-0.000595609
0.0150356
-0.000595144
0.0149964
-0.000593488
0.0149575
-0.000590662
0.0149192
-0.000586696
0.0148815
-0.000581625
0.0148447
-0.000575494
0.0148088
-0.000568356
0.014774
-0.000560269
0.0147405
-0.000551296
0.0147082
-0.000541508
0.0146774
-0.000530979
0.014648
-0.000519786
0.0146202
-0.000508012
0.0145941
-0.000495741
0.0145696
-0.000483059
0.0145469
-0.000470053
0.0145259
-0.000456813
0.0145067
-0.000443428
0.0144892
-0.000429986
0.0144735
-0.000416576
0.0144596
-0.000403283
0.0144473
-0.000390193
0.0144367
-0.000377388
0.0144277
-0.000364947
0.0144203
-0.000352946
0.0144143
-0.000341457
0.0144097
-0.000330549
0.0144064
-0.000320282
0.0144043
-0.000310718
0.0144033
-0.0003019
0.0144033
-0.000293887
0.0144042
-0.000286696
0.0144058
-0.000280393
0.014408
-0.000274948
0.0144108
-0.000270465
0.0144139
-0.000266809
0.0144172
-0.000264209
0.0144207
-0.000262297
0.0144241
-0.000261617
0.0144274
-0.000261265
0.0144305
-0.000262574
0.0144332
-0.000263384
0.0144354
-0.00026691
0.0144373
-0.000268089
-0.000274491
0.0163047
-8.22632e-05
0.0162854
-9.80992e-05
0.0162663
-0.000113462
0.0162475
-0.000128409
0.016229
-0.000143
0.0162107
-0.000157292
0.0161927
-0.000171345
0.016175
-0.000185211
0.0161575
-0.000198945
0.0161401
-0.000212593
0.0161228
-0.000226199
0.0161055
-0.0002398
0.0160881
-0.000253427
0.0160706
-0.000267103
0.0160528
-0.000280845
0.0160346
-0.000294662
0.016016
-0.000308553
0.0159968
-0.00032251
0.015977
-0.000336516
0.0159563
-0.000350548
0.0159348
-0.000364571
0.0159124
-0.000378547
0.0158889
-0.000392427
0.0158643
-0.000406159
0.0158386
-0.000419685
0.0158117
-0.00043294
0.0157836
-0.00044586
0.0157542
-0.000458375
0.0157236
-0.000470415
0.0156918
-0.00048191
0.0156589
-0.000492791
0.0156248
-0.000502992
0.0155897
-0.000512447
0.0155537
-0.000521097
0.0155167
-0.000528886
0.015479
-0.000535766
0.0154407
-0.000541693
0.0154018
-0.000546632
0.0153626
-0.000550552
0.0153231
-0.000553433
0.0152835
-0.000555262
0.0152439
-0.000556033
0.0152045
-0.000555748
0.0151654
-0.000554418
0.0151268
-0.000552061
0.0150888
-0.000548701
0.0150516
-0.000544371
0.0150152
-0.000539109
0.0149798
-0.00053296
0.0149455
-0.000525976
0.0149124
-0.00051821
0.0148806
-0.000509724
0.0148502
-0.000500582
0.0148213
-0.000490851
0.0147939
-0.000480603
0.0147681
-0.000469911
0.0147439
-0.00045885
0.0147213
-0.000447497
0.0147004
-0.000435929
0.0146812
-0.000424224
0.0146637
-0.00041246
0.0146478
-0.000400713
0.0146336
-0.000389061
0.014621
-0.000377576
0.0146099
-0.000366331
0.0146004
-0.000355396
0.0145923
-0.000344838
0.0145855
-0.000334719
0.0145801
-0.000325099
0.0145758
-0.000316032
0.0145727
-0.000307573
0.0145705
-0.000299757
0.0145693
-0.000292639
0.0145688
-0.000286232
0.014569
-0.000280595
0.0145698
-0.000275699
0.014571
-0.00027164
0.0145724
-0.000268295
0.0145741
-0.000265871
0.0145758
-0.000264038
0.0145775
-0.000263289
0.0145791
-0.000262815
0.0145803
-0.000263808
0.0145813
-0.00026436
0.0145817
-0.000267302
0.0145818
-0.000268219
-0.000273692
0.0163226
-6.67858e-05
0.0163071
-8.25516e-05
0.0162915
-9.788e-05
0.0162759
-0.000112818
0.0162603
-0.000127412
0.0162447