/*--------------------------------*- C++ -*----------------------------------*\
  =========                 |
  \\      /  F ield         | OpenFOAM: The Open Source CFD Toolbox
   \\    /   O peration     | Website:  https://openfoam.org
    \\  /    A nd           | Version:  7
     \\/     M anipulation  |
\*---------------------------------------------------------------------------*/
FoamFile
{
    version     2.0;
    format      ascii;
    class       volScalarField;
    location    "50.001";
    object      p;
}
// * * * * * * * * * * * * * * * * * * * * * * * * * * * * * * * * * * * * * //

dimensions      [0 2 -2 0 0 0 0];

internalField   nonuniform List<scalar> 
11400
(
-0.227741
-0.229981
-0.230972
-0.231785
-0.232509
-0.233178
-0.233825
0.646361
0.625601
0.612482
0.594805
0.57358
0.550418
0.526394
0.502275
0.64636
0.6256
0.612481
0.594804
0.573579
0.550418
0.526394
0.502275
0.478557
0.455554
0.433457
0.412375
0.392358
0.373419
0.355547
0.338712
0.322873
0.307982
0.294
0.280914
0.641838
0.621345
0.608605
0.591329
0.57047
0.54763
0.523887
0.500015
0.476513
0.4537
0.431773
0.41084
0.390955
0.372134
0.354368
0.337628
0.32187
0.307048
0.293135
0.280154
0.632831
0.612869
0.600884
0.584405
0.564275
0.542074
0.518891
0.495509
0.472438
0.450006
0.428414
0.407778
0.388158
0.369572
0.352017
0.335466
0.319871
0.305185
0.29141
0.278637
0.619418
0.600243
0.589377
0.574083
0.555038
0.53379
0.511441
0.488789
0.46636
0.444494
0.423402
0.403209
0.383982
0.365748
0.348507
0.332238
0.316887
0.302403
0.288833
0.276366
0.601713
0.58357
0.574175
0.560443
0.542828
0.522838
0.501588
0.4799
0.458319
0.4372
0.416769
0.397162
0.378454
0.360683
0.343858
0.327961
0.312932
0.298717
0.285417
0.273349
0.579867
0.562988
0.555398
0.543586
0.527734
0.509294
0.489401
0.468903
0.448368
0.428172
0.408556
0.389672
0.371606
0.354407
0.338095
0.322659
0.30803
0.294147
0.281178
0.269595
0.554066
0.538666
0.533192
0.523638
0.509866
0.493256
0.474966
0.455873
0.436574
0.417467
0.398815
0.380786
0.363479
0.346956
0.331252
0.31636
0.302205
0.288718
0.276136
0.265116
0.524533
0.510805
0.507732
0.500751
0.489354
0.474838
0.458381
0.440897
0.423013
0.405155
0.387608
0.370557
0.354121
0.338374
0.323365
0.309098
0.295489
0.282459
0.270317
0.259927
0.491519
0.479637
0.479218
0.475097
0.466349
0.454171
0.439763
0.424077
0.407775
0.391314
0.375003
0.359049
0.343587
0.328709
0.314479
0.300912
0.287917
0.275401
0.263747
0.254046
0.455309
0.44542
0.447875
0.446868
0.441018
0.431402
0.41924
0.405526
0.390961
0.376033
0.361079
0.34633
0.331939
0.318016
0.304642
0.291846
0.279529
0.26758
0.256457
0.247493
0.416215
0.408439
0.41395
0.416278
0.413546
0.406691
0.396953
0.385368
0.372679
0.359408
0.345923
0.332477
0.319246
0.306356
0.293909
0.281948
0.270367
0.259038
0.248482
0.240293
0.374574
0.369002
0.37771
0.383557
0.384133
0.380214
0.373056
0.363739
0.353049
0.341546
0.329626
0.317572
0.30558
0.293795
0.282339
0.271269
0.260478
0.249814
0.239857
0.23247
0.330745
0.32744
0.339444
0.348952
0.352992
0.352157
0.347711
0.340782
0.332198
0.322558
0.31229
0.301705
0.291021
0.280403
0.269993
0.259868
0.249914
0.239956
0.23062
0.224052
0.285107
0.2841
0.299454
0.312724
0.320348
0.322717
0.321093
0.316649
0.31026
0.302562
0.294019
0.284968
0.275651
0.266255
0.25694
0.247802
0.238727
0.229508
0.220811
0.215066
0.238055
0.239349
0.25806
0.275145
0.286438
0.292099
0.293381
0.291499
0.287374
0.281683
0.274923
0.26746
0.25956
0.251429
0.24325
0.235138
0.226978
0.218524
0.210469
0.205539
0.189996
0.193561
0.215589
0.236498
0.251506
0.260516
0.26476
0.265495
0.263685
0.260048
0.255116
0.249281
0.242836
0.236005
0.228993
0.221941
0.214728
0.207058
0.199629
0.19549
0.141347
0.147121
0.172383
0.197074
0.215801
0.228185
0.235423
0.238805
0.239341
0.237789
0.234713
0.230536
0.225573
0.220067
0.214246
0.208278
0.202051
0.195185
0.188341
0.18493
0.0925275
0.10042
0.128786
0.157168
0.179578
0.195328
0.205562
0.211599
0.214492
0.215037
0.213833
0.21133
0.207867
0.203703
0.199084
0.194219
0.189018
0.182992
0.176648
0.173815
0.0439582
0.0538478
0.0851493
0.117079
0.143091
0.162166
0.175371
0.184048
0.189289
0.191928
0.192594
0.191768
0.189811
0.186997
0.183583
0.17982
0.175687
0.17061
0.164729
0.162114
-0.00394292
0.00778972
0.0418243
0.0771025
0.106596
0.128921
0.145044
0.156322
0.163883
0.168594
0.171115
0.171956
0.171501
0.17004
0.167832
0.165157
0.162111
0.158171
0.152907
0.149515
-0.0507624
-0.0373724
-0.000838538
0.0375309
0.0703439
0.0958111
0.114773
0.12859
0.138421
0.145166
0.149514
0.151998
0.153029
0.152914
0.151909
0.150289
0.148257
0.14559
0.141689
0.136448
-0.0961115
-0.0812471
-0.0425004
-0.00135473
0.0345802
0.0630502
0.0847435
0.101015
0.11305
0.121774
0.127904
0.131996
0.134484
0.135697
0.135893
0.135326
0.134266
0.132833
0.130682
0.126555
-0.139729
-0.123403
-0.0828629
-0.0392882
-0.000455007
0.0308454
0.0551369
0.0737579
0.0879093
0.0985421
0.106396
0.112049
0.115955
0.118466
0.119852
0.12035
0.120244
0.119887
0.119267
0.11664
-0.181171
-0.163578
-0.121744
-0.0760115
-0.0345281
-0.000605268
0.0261259
0.0469701
0.0631345
0.0755899
0.0850969
0.0922511
0.0975245
0.10129
0.103835
0.105385
0.106208
0.106746
0.107184
0.105671
-0.220051
-0.200946
-0.15928
-0.111262
-0.0674164
-0.031116
-0.00212598
0.020797
0.0388538
0.0530311
0.0641066
0.0726913
0.0792715
0.0842366
0.0878892
0.0904537
0.0921714
0.0935012
0.0947325
0.0940685
-0.25615
-0.235867
-0.194342
-0.1448
-0.0989101
-0.0605126
-0.0294645
-0.0046255
0.0151875
0.0309725
0.0435203
0.0534541
0.0612708
0.0673718
0.0720731
0.0756025
0.0781828
0.0802645
0.0822013
0.0823245
-0.289264
-0.268095
-0.226594
-0.176486
-0.128799
-0.0886354
-0.0557447
-0.029171
-0.00775303
0.00951347
0.0234267
0.0346184
0.0435936
0.0507618
0.0564494
0.0608913
0.0642994
0.0671055
0.0697059
0.0705996
-0.319177
-0.29734
-0.256197
-0.205702
-0.157113
-0.115342
-0.0808323
-0.052726
-0.0298662
-0.0112549
0.00390756
0.0162579
0.0263068
0.0344687
0.0410778
0.0463768
0.0505702
0.0540643
0.0572834
0.0589162
-0.345726
-0.323401
-0.283063
-0.232637
-0.183426
-0.140448
-0.104607
-0.0751889
-0.0510606
-0.0312501
-0.0149632
-0.00156019
0.00947173
0.018549
0.026011
0.0321077
0.0370378
0.0411768
0.044968
0.0473032
-0.368809
-0.346152
-0.307002
-0.257156
-0.207656
-0.163868
-0.126963
-0.096469
-0.071255
-0.050399
-0.0331204
-0.018776
-0.00685671
0.00305325
0.0112963
0.0181281
0.0237425
0.0284822
0.0328022
0.035804
-0.388372
-0.365517
-0.327874
-0.279099
-0.229746
-0.185518
-0.147878
-0.116467
-0.0903811
-0.0686378
-0.0505082
-0.0353361
-0.0226303
-0.0119733
-0.00302386
0.00447803
0.0107226
0.0160188
0.0208269
0.0244581
-0.404412
-0.381481
-0.345617
-0.298368
-0.249625
-0.205323
-0.16724
-0.135194
-0.10838
-0.0859132
-0.0670801
-0.0511936
-0.0378082
-0.0264909
-0.0169119
-0.00880632
-0.00198717
0.00381938
0.00907456
0.0132965
-0.416982
-0.394082
-0.360222
-0.314918
-0.267232
-0.223229
-0.184995
-0.152564
-0.125242
-0.102222
-0.0827821
-0.0663107
-0.0523566
-0.0404643
-0.0303361
-0.0216942
-0.0143567
-0.00808991
-0.00243292
0.00234331
-0.426185
-0.403412
-0.371731
-0.328737
-0.282533
-0.239208
-0.20112
-0.168542
-0.140916
-0.117505
-0.0976202
-0.0806866
-0.0662349
-0.0538651
-0.0432709
-0.0341603
-0.0263598
-0.0196846
-0.0136796
-0.00839013
-0.432177
-0.409616
-0.380226
-0.339847
-0.295525
-0.253247
-0.215607
-0.183118
-0.155382
-0.131743
-0.111559
-0.0942799
-0.0794478
-0.0666897
-0.0556922
-0.0461846
-0.0379783
-0.0309379
-0.0246471
-0.018924
-0.435161
-0.412894
-0.385837
-0.348306
-0.306229
-0.265356
-0.228461
-0.196298
-0.168641
-0.144933
-0.124586
-0.107077
-0.0919728
-0.0789123
-0.067593
-0.0577589
-0.0492148
-0.0418201
-0.0352793
-0.0293291
-0.435379
-0.413491
-0.388737
-0.354213
-0.314694
-0.275561
-0.239699
-0.208096
-0.180706
-0.157084
-0.136703
-0.119079
-0.103801
-0.0905237
-0.0789601
-0.0688645
-0.0600406
-0.0523496
-0.0455804
-0.0395362
-0.43311
-0.411687
-0.389147
-0.357705
-0.320998
-0.283908
-0.249356
-0.218538
-0.191597
-0.168211
-0.147923
-0.130292
-0.114934
-0.101524
-0.089788
-0.0794934
-0.0704483
-0.0625174
-0.055523
-0.0492675
-0.428655
-0.407792
-0.387326
-0.358958
-0.325246
-0.290462
-0.257477
-0.227661
-0.201345
-0.178338
-0.158264
-0.14073
-0.125383
-0.111918
-0.100079
-0.0896458
-0.0804327
-0.0723054
-0.0650973
-0.0585849
-0.422338
-0.402129
-0.383567
-0.358182
-0.327568
-0.295309
-0.264124
-0.235514
-0.20999
-0.187498
-0.167752
-0.150413
-0.135163
-0.121719
-0.109843
-0.099327
-0.0899952
-0.0817144
-0.0743337
-0.0676118
-0.414487
-0.39503
-0.378182
-0.355617
-0.328125
-0.298548
-0.269367
-0.242152
-0.217578
-0.19573
-0.176419
-0.159368
-0.144294
-0.130942
-0.11909
-0.108548
-0.0991469
-0.0907594
-0.0832585
-0.0763974
-0.40543
-0.38682
-0.371497
-0.351531
-0.327096
-0.300298
-0.273287
-0.24764
-0.224163
-0.203081
-0.184305
-0.167625
-0.152802
-0.139607
-0.12784
-0.117324
-0.107902
-0.0994542
-0.0918785
-0.08494
-0.395484
-0.377812
-0.363835
-0.346206
-0.324687
-0.300692
-0.275976
-0.252047
-0.229804
-0.2096
-0.191452
-0.175223
-0.160718
-0.147741
-0.136113
-0.125672
-0.116276
-0.107809
-0.100193
-0.0932231
-0.384948
-0.368297
-0.355505
-0.339933
-0.32112
-0.29988
-0.277534
-0.255445
-0.234559
-0.215339
-0.197907
-0.1822
-0.168076
-0.155372
-0.143932
-0.133612
-0.124284
-0.115835
-0.108204
-0.101239
-0.374093
-0.358535
-0.346794
-0.332999
-0.316629
-0.298026
-0.278069
-0.257912
-0.238491
-0.220354
-0.203718
-0.1886
-0.174914
-0.162533
-0.151325
-0.141166
-0.131941
-0.123546
-0.115925
-0.108995
-0.36316
-0.348754
-0.337954
-0.325677
-0.311456
-0.295307
-0.277699
-0.259527
-0.241662
-0.224696
-0.208933
-0.194467
-0.181269
-0.169256
-0.15832
-0.148357
-0.139269
-0.130959
-0.12337
-0.1165
-0.352356
-0.339142
-0.329198
-0.318211
-0.305837
-0.291908
-0.276549
-0.260375
-0.244132
-0.228417
-0.213599
-0.199843
-0.187183
-0.175577
-0.164948
-0.155213
-0.14629
-0.138094
-0.130559
-0.12377
-0.34185
-0.329851
-0.320699
-0.310812
-0.299997
-0.288019
-0.274756
-0.260543
-0.24596
-0.231565
-0.217759
-0.204771
-0.192694
-0.181532
-0.171242
-0.161763
-0.153028
-0.144971
-0.13751
-0.130819
-0.331776
-0.320996
-0.31259
-0.303648
-0.294134
-0.283827
-0.27246
-0.260124
-0.247208
-0.234182
-0.221451
-0.209287
-0.197839
-0.187157
-0.177235
-0.168035
-0.159509
-0.151612
-0.144242
-0.137662
-0.322234
-0.312656
-0.304964
-0.296847
-0.288415
-0.279509
-0.269807
-0.259219
-0.247936
-0.23631
-0.224708
-0.213424
-0.202651
-0.192485
-0.182958
-0.17406
-0.16576
-0.158041
-0.150775
-0.144317
-0.313293
-0.304882
-0.297878
-0.290496
-0.282969
-0.275221
-0.266943
-0.257933
-0.248211
-0.237986
-0.227556
-0.217207
-0.207157
-0.197545
-0.188441
-0.179867
-0.171807
-0.16428
-0.157132
-0.150801
-0.304999
-0.2977
-0.29136
-0.284647
-0.277886
-0.27109
-0.264003
-0.256377
-0.248104
-0.239251
-0.230018
-0.220651
-0.211376
-0.202361
-0.193711
-0.185484
-0.177678
-0.170354
-0.163333
-0.157132
-0.297369
-0.291113
-0.285415
-0.279322
-0.273223
-0.267211
-0.261105
-0.254661
-0.247692
-0.240146
-0.232111
-0.223766
-0.215318
-0.206948
-0.198789
-0.190934
-0.1834
-0.176288
-0.169402
-0.16333
-0.290407
-0.285113
-0.28003
-0.274517
-0.269005
-0.263649
-0.258345
-0.252888
-0.24706
-0.240721
-0.233854
-0.226554
-0.21898
-0.211308
-0.203685
-0.196236
-0.188994
-0.182105
-0.175361
-0.169413
-0.284099
-0.279676
-0.275178
-0.270214
-0.265234
-0.260439
-0.255795
-0.251149
-0.246291
-0.241033
-0.235272
-0.229014
-0.222352
-0.215432
-0.208397
-0.201398
-0.194477
-0.18783
-0.181232
-0.175402
-0.278421
-0.274775
-0.270826
-0.266383
-0.261895
-0.257592
-0.253499
-0.249517
-0.245465
-0.241145
-0.236396
-0.231147
-0.225415
-0.219296
-0.212908
-0.206413
-0.199856
-0.193476
-0.187044
-0.181316
-0.273338
-0.270373
-0.266935
-0.262987
-0.258961
-0.255103
-0.25148
-0.248043
-0.244652
-0.241121
-0.237268
-0.232962
-0.228149
-0.222865
-0.217182
-0.211256
-0.205122
-0.199057
-0.192806
-0.18721
-0.268808
-0.266432
-0.263464
-0.259983
-0.256397
-0.252951
-0.249742
-0.246761
-0.243908
-0.241027
-0.237937
-0.234478
-0.230542
-0.2261
-0.221168
-0.215878
-0.210236
-0.204562
-0.198554
-0.19309
-0.264784
-0.262907
-0.260371
-0.25733
-0.254162
-0.251106
-0.248274
-0.245683
-0.243272
-0.240916
-0.238457
-0.235729
-0.232592
-0.228966
-0.224807
-0.220207
-0.215142
-0.209938
-0.204249
-0.199201
-0.261212
-0.259755
-0.25761
-0.254982
-0.252215
-0.249532
-0.24705
-0.244806
-0.242764
-0.240833
-0.238882
-0.23676
-0.234317
-0.231441
-0.228041
-0.224165
-0.219717
-0.215151
-0.20978
-0.20538
-0.258031
-0.25693
-0.255137
-0.252896
-0.250511
-0.248186
-0.246038
-0.24411
-0.242387
-0.240804
-0.239257
-0.23762
-0.235752
-0.233531
-0.230833
-0.227662
-0.223899
-0.219848
-0.215553
-0.21092
-0.255183
-0.254387
-0.252909
-0.251028
-0.249005
-0.247024
-0.245196
-0.243565
-0.242127
-0.240836
-0.239613
-0.238357
-0.236947
-0.235263
-0.233184
-0.230627
-0.227633
-0.223894
-0.220946
-0.215392
-0.25262
-0.252073
-0.250882
-0.249335
-0.247654
-0.246003
-0.244481
-0.243132
-0.241955
-0.240918
-0.239961
-0.239004
-0.23795
-0.236685
-0.235125
-0.233048
-0.230839
-0.227168
-0.22545
-0.218919
-0.250281
-0.249952
-0.249017
-0.247779
-0.246418
-0.245078
-0.243849
-0.242767
-0.241835
-0.241026
-0.240294
-0.239577
-0.238797
-0.237852
-0.236702
-0.234979
-0.233483
-0.229719
-0.229202
-0.221562
-0.248117
-0.247981
-0.247283
-0.246325
-0.24526
-0.244212
-0.243258
-0.242429
-0.241725
-0.241126
-0.240592
-0.240074
-0.239509
-0.238809
-0.237964
-0.236519
-0.235577
-0.231733
-0.232326
-0.223472
-0.246085
-0.246129
-0.245649
-0.244944
-0.24415
-0.243372
-0.242672
-0.242078
-0.241588
-0.241181
-0.240825
-0.240478
-0.240088
-0.239582
-0.238951
-0.237761
-0.237147
-0.233423
-0.234757
-0.224914
-0.244152
-0.244373
-0.244089
-0.243615
-0.243066
-0.242531
-0.242065
-0.241685
-0.24139
-0.241159
-0.240963
-0.240765
-0.240522
-0.240174
-0.239696
-0.238753
-0.238246
-0.234923
-0.236406
-0.226217
-0.242294
-0.242695
-0.242588
-0.242321
-0.241992
-0.241675
-0.241416
-0.241229
-0.241109
-0.241035
-0.240981
-0.240915
-0.240797
-0.240578
-0.240216
-0.239493
-0.238959
-0.236234
-0.237314
-0.227629
-0.240496
-0.241082
-0.241139
-0.241056
-0.24092
-0.240795
-0.240718
-0.2407
-0.240732
-0.240795
-0.240865
-0.240912
-0.2409
-0.240785
-0.240519
-0.239968
-0.239374
-0.237267
-0.237671
-0.22917
-0.238753
-0.239531
-0.239737
-0.239817
-0.23985
-0.23989
-0.23997
-0.240096
-0.240258
-0.240439
-0.240614
-0.240754
-0.240828
-0.240797
-0.240608
-0.240177
-0.239549
-0.237944
-0.237697
-0.230674
-0.237069
-0.238044
-0.238386
-0.23861
-0.238789
-0.238969
-0.23918
-0.239427
-0.239698
-0.239975
-0.240235
-0.240451
-0.240593
-0.240624
-0.240495
-0.240143
-0.239518
-0.238255
-0.237568
-0.231962
-0.235456
-0.23663
-0.237096
-0.237445
-0.237748
-0.238045
-0.238366
-0.238711
-0.23907
-0.239424
-0.239751
-0.240026
-0.240218
-0.240294
-0.240208
-0.239909
-0.239311
-0.238243
-0.237423
-0.23293
-0.233931
-0.235303
-0.235881
-0.236337
-0.236744
-0.237138
-0.237547
-0.237972
-0.2384
-0.238814
-0.239192
-0.239509
-0.239738
-0.239845
-0.239791
-0.239528
-0.238969
-0.237998
-0.23736
-0.233551
-0.232518
-0.234078
-0.234757
-0.235305
-0.235798
-0.236271
-0.23675
-0.237236
-0.237718
-0.238177
-0.238592
-0.238939
-0.239193
-0.239323
-0.239292
-0.239057
-0.238562
-0.237796
-0.236899
-0.234279
-0.231241
-0.232977
-0.233743
-0.234369
-0.234932
-0.235466
-0.236
-0.236534
-0.237055
-0.237547
-0.237989
-0.238358
-0.238628
-0.238773
-0.238761
-0.238556
-0.238125
-0.237477
-0.236544
-0.234929
-0.230126
-0.23202
-0.23286
-0.233548
-0.234167
-0.23475
-0.235325
-0.235894
-0.236445
-0.236961
-0.237421
-0.237803
-0.238085
-0.238241
-0.238245
-0.23807
-0.237698
-0.237135
-0.236299
-0.235243
-0.229198
-0.231226
-0.232125
-0.232864
-0.233526
-0.234145
-0.234751
-0.235345
-0.235917
-0.236449
-0.236921
-0.237312
-0.237602
-0.237766
-0.237784
-0.237637
-0.237316
-0.236824
-0.236114
-0.235351
-0.228481
-0.230612
-0.231558
-0.232333
-0.233027
-0.233672
-0.234299
-0.234911
-0.235496
-0.236038
-0.236518
-0.236915
-0.237209
-0.23738
-0.23741
-0.237285
-0.237004
-0.23657
-0.235971
-0.235363
-0.227991
-0.230194
-0.23117
-0.231971
-0.232684
-0.233346
-0.233986
-0.234609
-0.235203
-0.235752
-0.236236
-0.236636
-0.236933
-0.237108
-0.237146
-0.237037
-0.236783
-0.23639
-0.235869
-0.23534
-0.227742
-0.229982
-0.230974
-0.231786
-0.23251
-0.233179
-0.233826
-0.234454
-0.235052
-0.235603
-0.23609
-0.236491
-0.236789
-0.236966
-0.237008
-0.236908
-0.236667
-0.236294
-0.235813
-0.235316
0.269971
0.260781
0.252218
0.244275
0.236872
0.229978
0.223544
0.217538
0.211923
0.206669
0.201749
0.197136
0.192808
0.188743
0.184922
0.181328
0.177945
0.174757
0.171753
0.16892
0.166246
0.163721
0.161337
0.159083
0.156954
0.15494
0.153035
0.151228
0.149515
0.147897
0.14637
0.144929
0.143569
0.142286
0.141076
0.139935
0.13886
0.137848
0.136897
0.136003
0.135165
0.134381
0.133648
0.132965
0.13233
0.131741
0.131197
0.130698
0.130241
0.129825
0.129451
0.129116
0.128821
0.128565
0.128346
0.128165
0.128022
0.127917
0.127849
0.127818
0.269329
0.260221
0.251721
0.243834
0.236478
0.229626
0.223229
0.217254
0.211667
0.206439
0.20154
0.196946
0.192635
0.188584
0.184777
0.181194
0.177821
0.174643
0.171647
0.168821
0.166153
0.163634
0.161255
0.159007
0.156881
0.154872
0.15297
0.151168
0.149459
0.147842
0.146318
0.144878
0.14352
0.142239
0.14103
0.13989
0.138817
0.137806
0.136856
0.135964
0.135127
0.134343
0.133611
0.132928
0.132294
0.131706
0.131163
0.130664
0.130207
0.129792
0.129418
0.129084
0.128789
0.128533
0.128315
0.128134
0.127991
0.127885
0.127818
0.127787
0.268045
0.259101
0.250728
0.242952
0.235692
0.228923
0.222599
0.216689
0.211157
0.205978
0.201122
0.196566
0.192288
0.188268
0.184486
0.180927
0.177574
0.174414
0.171435
0.168623
0.165968
0.163461
0.161093
0.158854
0.156737
0.154735
0.152841
0.151049
0.149349
0.147736
0.146214
0.144778
0.143423
0.142145
0.140939
0.139802
0.138731
0.137723
0.136775
0.135884
0.135049
0.134267
0.133537
0.132856
0.132222
0.131636
0.131094
0.130595
0.13014
0.129726
0.129353
0.129019
0.128725
0.128469
0.128251
0.128071
0.127928
0.127823
0.127756
0.127725
0.266122
0.257424
0.249241
0.241632
0.234514
0.227871
0.221656
0.215842
0.210394
0.205288
0.200497
0.195998
0.19177
0.187794
0.184051
0.180527
0.177205
0.174072
0.171117
0.168327
0.165692
0.163203
0.16085
0.158625
0.156521
0.154531
0.152649
0.150868
0.149179
0.147571
0.146056
0.144627
0.143278
0.142004
0.140803
0.13967
0.138602
0.137598
0.136653
0.135765
0.134933
0.134154
0.133425
0.132747
0.132115
0.13153
0.13099
0.130494
0.130039
0.129627
0.129254
0.128922
0.128629
0.128374
0.128157
0.127977
0.127835
0.12773
0.127663
0.127632
0.26356
0.25519
0.247261
0.239876
0.232949
0.226473
0.220404
0.214717
0.209381
0.204372
0.199667
0.195243
0.191082
0.187164
0.183474
0.179995
0.176714
0.173618
0.170695
0.167934
0.165325
0.162859
0.160527
0.158321
0.156234
0.154259
0.152391
0.150625
0.148953
0.147366
0.145856
0.14443
0.143086
0.141818
0.140622
0.139494
0.138432
0.137432
0.136491
0.135608
0.134779
0.134003
0.133278
0.132602
0.131973
0.131391
0.130853
0.130358
0.129906
0.129495
0.129124
0.128793
0.128501
0.128247
0.128031
0.127853
0.127711
0.127607
0.12754
0.127509
0.260364
0.252403
0.244793
0.237687
0.230998
0.224732
0.218844
0.213316
0.208119
0.203232
0.198633
0.194304
0.190225
0.186381
0.182755
0.179334
0.176104
0.173053
0.170171
0.167446
0.164869
0.162432
0.160126
0.157943
0.155877
0.153921
0.15207
0.15032
0.148667
0.147098
0.145595
0.14418
0.142846
0.141586
0.140397
0.139276
0.13822
0.137225
0.13629
0.135411
0.134587
0.133815
0.133094
0.132422
0.131796
0.131217
0.130682
0.13019
0.12974
0.129331
0.128962
0.128633
0.128342
0.12809
0.127875
0.127697
0.127557
0.127453
0.127386
0.127355
0.25654
0.249069
0.24184
0.23507
0.228667
0.222652
0.216981
0.211643
0.206612
0.201871
0.1974
0.193183
0.189203
0.185446
0.181898
0.178545
0.175376
0.172379
0.169545
0.166863
0.164325
0.161922
0.159647
0.157492
0.155452
0.153519
0.151688
0.149956
0.14832
0.146774
0.145303
0.143893
0.142564
0.141311
0.14013
0.139017
0.137967
0.13698
0.13605
0.135178
0.134359
0.133592
0.132875
0.132207
0.131585
0.131009
0.130478
0.129989
0.129541
0.129135
0.128769
0.128441
0.128153
0.127902
0.127688
0.127512
0.127372
0.127269
0.127202
0.127171
0.252094
0.245192
0.238407
0.23203
0.225961
0.220237
0.214819
0.209702
0.204864
0.200292
0.19597
0.191883
0.188018
0.184363
0.180904
0.177631
0.174532
0.171598
0.16882
0.166188
0.163694
0.161331
0.159092
0.15697
0.154958
0.153052
0.151245
0.149534
0.147916
0.146389
0.144943
0.143552
0.142235
0.140993
0.139821
0.138716
0.137675
0.136695
0.135773
0.134907
0.134094
0.133333
0.132621
0.131958
0.131341
0.130769
0.130241
0.129755
0.129311
0.128908
0.128544
0.128219
0.127933
0.127684
0.127472
0.127297
0.127158
0.127056
0.126989
0.126958
0.247035
0.24078
0.234502
0.228573
0.222884
0.217494
0.212364
0.207499
0.20288
0.1985
0.194346
0.190408
0.186674
0.183133
0.179777
0.176594
0.173575
0.170712
0.167997
0.165422
0.162979
0.160662
0.158463
0.156378
0.154399
0.152523
0.150743
0.149056
0.147458
0.145949
0.144527
0.143177
0.141866
0.140634
0.139472
0.138377
0.137345
0.136373
0.135459
0.1346
0.133794
0.133039
0.132334
0.131676
0.131064
0.130497
0.129973
0.129491
0.129051
0.128651
0.12829
0.127967
0.127683
0.127436
0.127226
0.127052
0.126915
0.126814
0.126747
0.126716
0.241375
0.235842
0.230132
0.224706
0.219444
0.214427
0.20962
0.205037
0.200664
0.196499
0.192534
0.188762
0.185173
0.181762
0.178519
0.175436
0.172507
0.169724
0.16708
0.164568
0.162182
0.159915
0.157762
0.155717
0.153776
0.151933
0.150183
0.148523
0.146949
0.145458
0.14405
0.142725
0.141468
0.140239
0.139085
0.138
0.136977
0.136015
0.135109
0.134259
0.13346
0.132712
0.132013
0.131361
0.130755
0.130193
0.129674
0.129196
0.12876
0.128363
0.128006
0.127686
0.127405
0.12716
0.126952
0.12678
0.126644
0.126543
0.126477
0.126445
0.235127
0.230389
0.225305
0.220437
0.215647
0.211044
0.206593
0.202322
0.19822
0.194294
0.190537
0.186947
0.18352
0.180251
0.177133
0.174162
0.171332
0.168637
0.166071
0.163629
0.161305
0.159094
0.156991
0.154991
0.15309
0.151284
0.149567
0.147937
0.14639
0.144922
0.143532
0.142219
0.140984
0.139814
0.138673
0.137592
0.136578
0.135623
0.134725
0.133883
0.133093
0.132353
0.131661
0.131015
0.130415
0.129858
0.129344
0.128872
0.12844
0.128047
0.127693
0.127377
0.127098
0.126856
0.126649
0.126479
0.126345
0.126245
0.126179
0.126147
0.228307
0.224433
0.220031
0.215774
0.2115
0.20735
0.20329
0.19936
0.195555
0.191889
0.188359
0.18497
0.181719
0.178604
0.175624
0.172774
0.170052
0.167452
0.164972
0.162606
0.16035
0.1582
0.156151
0.154201
0.152344
0.150578
0.148897
0.147299
0.145782
0.14434
0.142973
0.141678
0.140454
0.139302
0.138214
0.137156
0.136129
0.135191
0.134309
0.133476
0.132695
0.131963
0.131278
0.130639
0.130045
0.129495
0.128986
0.128519
0.128091
0.127703
0.127352
0.12704
0.126764
0.126524
0.12632
0.126152
0.126019
0.12592
0.125854
0.125822
0.220933
0.217986
0.214321
0.210726
0.207012
0.203353
0.199716
0.196156
0.192674
0.189289
0.186007
0.182834
0.179773
0.176827
0.173995
0.171276
0.16867
0.166174
0.163786
0.161502
0.159319
0.157235
0.155246
0.153349
0.15154
0.149816
0.148175
0.146612
0.145126
0.143714
0.142372
0.141099
0.139893
0.138751
0.137673
0.136661
0.135706
0.134758
0.133863
0.13304
0.132267
0.131543
0.130866
0.130234
0.129647
0.129103
0.1286
0.128138
0.127715
0.127331
0.126985
0.126676
0.126403
0.126166
0.125964
0.125798
0.125667
0.125569
0.125503
0.12547
0.213022
0.211064
0.208185
0.205302
0.20219
0.19906
0.195879
0.192718
0.189582
0.1865
0.183483
0.180543
0.177687
0.174921
0.172249
0.169672
0.167191
0.164806
0.162516
0.16032
0.158217
0.156203
0.154277
0.152437
0.150679
0.149002
0.147402
0.145877
0.144425
0.143043
0.141729
0.140482
0.139297
0.138173
0.137108
0.136102
0.135157
0.134267
0.133414
0.132584
0.131807
0.131095
0.130427
0.129801
0.129221
0.128684
0.128187
0.12773
0.127313
0.126934
0.126591
0.126286
0.126016
0.125782
0.125583
0.125419
0.125289
0.125192
0.125126
0.125094
0.204591
0.203679
0.201635
0.199512
0.197043
0.194479
0.191786
0.189051
0.186285
0.183528
0.180794
0.178103
0.175466
0.172893
0.17039
0.167964
0.165616
0.16335
0.161165
0.159064
0.157044
0.155106
0.153248
0.151468
0.149764
0.148136
0.146581
0.145096
0.14368
0.142331
0.141047
0.139826
0.138666
0.137564
0.136519
0.135529
0.134593
0.133709
0.132879
0.132099
0.131356
0.130633
0.12995
0.129338
0.12877
0.128239
0.127748
0.127298
0.126886
0.126511
0.126173
0.125871
0.125605
0.125374
0.125178
0.125015
0.124887
0.124791
0.124725
0.124692
0.195655
0.195845
0.194679
0.193366
0.191579
0.189618
0.187444
0.185162
0.182791
0.180378
0.177946
0.175519
0.173114
0.170746
0.168424
0.166157
0.163951
0.16181
0.159737
0.157735
0.155805
0.153946
0.152159
0.150444
0.148798
0.147222
0.145713
0.144271
0.142893
0.141579
0.140326
0.139134
0.137999
0.136921
0.135897
0.134927
0.134007
0.133137
0.132315
0.131541
0.130815
0.130136
0.129502
0.128883
0.128299
0.127766
0.127285
0.126842
0.126434
0.126064
0.125731
0.125433
0.125171
0.124942
0.124748
0.124588
0.124461
0.124366
0.1243
0.124267
0.186212
0.187568
0.187327
0.186874
0.185809
0.184487
0.182861
0.181059
0.179105
0.177057
0.174943
0.172796
0.170637
0.168484
0.166353
0.164255
0.162198
0.16019
0.158235
0.156338
0.154501
0.152727
0.151015
0.149367
0.147782
0.14626
0.144801
0.143403
0.142066
0.140788
0.139569
0.138406
0.137299
0.136245
0.135244
0.134294
0.133394
0.132541
0.131734
0.130972
0.130253
0.129579
0.128951
0.128363
0.127816
0.127302
0.126815
0.126364
0.125956
0.125594
0.125267
0.124973
0.124713
0.124488
0.124297
0.124139
0.124013
0.123919
0.123853
0.12382
0.176245
0.178861
0.179587
0.180047
0.179739
0.179091
0.178042
0.176745
0.175229
0.173564
0.171785
0.169931
0.16803
0.166105
0.164174
0.162253
0.160354
0.158485
0.156655
0.154868
0.153131
0.151444
0.149812
0.148235
0.146714
0.14525
0.143843
0.142492
0.141198
0.139959
0.138774
0.137643
0.136564
0.135537
0.13456
0.133632
0.132751
0.131916
0.131127
0.13038
0.129676
0.129014
0.128393
0.127812
0.127271
0.126769
0.126304
0.125876
0.125482
0.125116
0.124785
0.124488
0.124233
0.124013
0.123824
0.123668
0.123544
0.12345
0.123384
0.123351
0.16571
0.169702
0.171446
0.172897
0.173396
0.173464
0.173021
0.172257
0.1712
0.169939
0.168511
0.166967
0.165336
0.16365
0.161929
0.160194
0.158459
0.156736
0.155035
0.153364
0.151729
0.150134
0.148583
0.14708
0.145625
0.14422
0.142866
0.141563
0.140312
0.139112
0.137963
0.136864
0.135814
0.134813
0.13386
0.132954
0.132093
0.131276
0.130503
0.129772
0.129083
0.128434
0.127824
0.127253
0.12672
0.126224
0.125765
0.125343
0.124957
0.124604
0.124285
0.124001
0.123745
0.123522
0.123332
0.123176
0.123053
0.12296
0.122896
0.122863
0.153992
0.159848
0.162758
0.165335
0.166693
0.167533
0.167742
0.167552
0.166989
0.166158
0.165104
0.163886
0.16254
0.161104
0.159602
0.15806
0.156495
0.154922
0.153354
0.1518
0.15027
0.148768
0.147301
0.145872
0.144483
0.143139
0.141839
0.140585
0.139378
0.138218
0.137105
0.136039
0.135019
0.134045
0.133117
0.132233
0.131393
0.130596
0.129841
0.129126
0.128452
0.127817
0.127221
0.126662
0.12614
0.125654
0.125203
0.124788
0.124407
0.12406
0.123747
0.123468
0.12322
0.123004
0.122819
0.122667
0.122544
0.122451
0.122387
0.122356
0.14086
0.148748
0.15336
0.1568
0.15898
0.160476
0.161279
0.161614
0.16153
0.161134
0.160477
0.159619
0.158602
0.157464
0.156234
0.154939
0.153599
0.152231
0.15085
0.149467
0.148092
0.146733
0.145396
0.144086
0.142807
0.141563
0.140355
0.139186
0.138056
0.136968
0.13592
0.134915
0.133951
0.133029
0.132148
0.131308
0.130508
0.129748
0.129027
0.128344
0.127699
0.127091
0.12652
0.125984
0.125483
0.125017
0.124584
0.124185
0.123819
0.123485
0.123183
0.122914
0.122676
0.122468
0.12229
0.122144
0.122027
0.121938
0.12188
0.121851
0.133439
0.140235
0.145452
0.149374
0.152115
0.154082
0.155342
0.156092
0.156395
0.156357
0.156031
0.15548
0.154747
0.153871
0.152884
0.151812
0.150679
0.149502
0.148297
0.147077
0.145853
0.144632
0.143424
0.142232
0.141063
0.13992
0.138806
0.137724
0.136675
0.135661
0.134683
0.133742
0.132837
0.13197
0.13114
0.130347
0.129591
0.128872
0.128188
0.12754
0.126927
0.126349
0.125805
0.125294
0.124817
0.124372
0.123959
0.123578
0.123228
0.122908
0.12262
0.122361
0.122133
0.121934
0.121764
0.121623
0.121511
0.121427
0.121372
0.121346
0.127291
0.133418
0.138595
0.142676
0.145744
0.148037
0.149645
0.150729
0.151358
0.15163
0.151599
0.151327
0.150856
0.150227
0.14947
0.148614
0.147681
0.146691
0.14566
0.144602
0.143528
0.142447
0.141369
0.140298
0.139241
0.138202
0.137185
0.136193
0.135228
0.134291
0.133385
0.132511
0.131669
0.130859
0.130083
0.12934
0.128631
0.127954
0.12731
0.126699
0.126121
0.125574
0.125059
0.124576
0.124123
0.123701
0.123309
0.122947
0.122614
0.122311
0.122036
0.12179
0.121572
0.121383
0.121221
0.121086
0.120979
0.1209
0.120848
0.120824
0.121229
0.127133
0.132238
0.136401
0.139687
0.142236
0.144135
0.145511
0.146434
0.14699
0.147233
0.147223
0.147001
0.146606
0.14607
0.145421
0.144683
0.143875
0.143014
0.142114
0.141188
0.140245
0.139294
0.138343
0.137397
0.136462
0.135541
0.134639
0.133757
0.132898
0.132064
0.131257
0.130477
0.129726
0.129004
0.128311
0.127648
0.127015
0.126412
0.125838
0.125294
0.12478
0.124294
0.123838
0.123411
0.123012
0.122641
0.122299
0.121983
0.121696
0.121436
0.121202
0.120995
0.120815
0.120662
0.120534
0.120432
0.120357
0.120308
0.120286
0.115455
0.12123
0.126291
0.130524
0.133968
0.136724
0.138866
0.140495
0.141677
0.142489
0.142983
0.143214
0.143222
0.143047
0.14272
0.142268
0.141715
0.141081
0.140383
0.139636
0.138853
0.138044
0.137218
0.136383
0.135546
0.134713
0.133886
0.133072
0.132272
0.13149
0.130728
0.129988
0.12927
0.128577
0.127908
0.127266
0.126649
0.126059
0.125496
0.12496
0.124451
0.123969
0.123513
0.123085
0.122683
0.122307
0.121958
0.121634
0.121337
0.121066
0.12082
0.120599
0.120403
0.120233
0.120088
0.119967
0.119871
0.1198
0.119754
0.119733
0.110082
0.115727
0.120737
0.125022
0.128582
0.131503
0.133843
0.135687
0.137096
0.138135
0.138855
0.139306
0.139527
0.139557
0.139424
0.139158
0.13878
0.138312
0.13777
0.13717
0.136525
0.135845
0.135141
0.13442
0.133689
0.132954
0.132221
0.131494
0.130775
0.130069
0.129378
0.128703
0.128047