/*--------------------------------*- C++ -*----------------------------------*\
  =========                 |
  \\      /  F ield         | OpenFOAM: The Open Source CFD Toolbox
   \\    /   O peration     | Website:  https://openfoam.org
    \\  /    A nd           | Version:  7
     \\/     M anipulation  |
\*---------------------------------------------------------------------------*/
FoamFile
{
    version     2.0;
    format      ascii;
    class       volVectorField;
    location    "50.001";
    object      U;
}
// * * * * * * * * * * * * * * * * * * * * * * * * * * * * * * * * * * * * * //

dimensions      [0 1 -1 0 0 0 0];

internalField   nonuniform List<vector> 
11400
(
(-0.00142508 0.00123001 3.94715e-21)
(-0.00776394 0.0027698 -1.42833e-20)
(-0.0190033 0.00368704 -1.17967e-21)
(-0.0318852 0.0041929 -2.19415e-21)
(-0.045456 0.00441675 -1.27626e-20)
(-0.0590473 0.00445444 -1.2252e-20)
(-0.0722224 0.004374 -2.27988e-21)
(0.0173072 0.0129598 1.10373e-20)
(0.0779444 0.0238293 -3.88577e-20)
(0.166955 0.0261713 -3.14778e-21)
(0.249897 0.0249859 -5.64216e-21)
(0.323897 0.0227904 -3.12996e-20)
(0.389249 0.0205863 -2.87927e-20)
(0.446953 0.0186206 -5.04464e-21)
(0.498162 0.0168979 1.78091e-20)
(0.0173073 -0.0129641 -1.10373e-20)
(0.0779445 -0.0238373 3.88576e-20)
(0.166955 -0.0261804 3.14778e-21)
(0.249897 -0.0249949 5.64216e-21)
(0.323897 -0.0227988 3.12995e-20)
(0.389249 -0.0205941 2.87927e-20)
(0.446953 -0.0186278 5.04463e-21)
(0.498162 -0.0169046 -1.78091e-20)
(0.543807 -0.0153901 -4.2735e-21)
(0.584663 -0.0140528 -5.72773e-21)
(0.621372 -0.0128668 -1.40789e-20)
(0.65447 -0.0118104 -1.84888e-20)
(0.68441 -0.0108656 1.72167e-21)
(0.711574 -0.0100174 8.04692e-21)
(0.736287 -0.00925308 -2.84094e-20)
(0.758827 -0.00856261 -2.48204e-21)
(0.779437 -0.00793659 1.05135e-20)
(0.798325 -0.00736353 1.05108e-20)
(0.815662 -0.00683239 -9.9491e-22)
(0.831569 -0.00634978 -2.62238e-21)
(0.0192747 -0.0387687 1.0059e-19)
(0.0814351 -0.0713235 8.67469e-21)
(0.170703 -0.0783601 -4.22801e-20)
(0.253422 -0.0748272 2.8182e-20)
(0.327066 -0.0682605 -3.92282e-20)
(0.39207 -0.0616635 -3.29359e-21)
(0.449468 -0.0557787 -3.40419e-20)
(0.500412 -0.0506209 2.69341e-20)
(0.545827 -0.0460878 -7.42495e-21)
(0.586483 -0.042085 4.04937e-20)
(0.623016 -0.0385347 2.94896e-20)
(0.65596 -0.0353724 1.35682e-20)
(0.685765 -0.0325442 4.71525e-20)
(0.71281 -0.0300047 -3.5941e-20)
(0.737415 -0.0277166 3.18891e-20)
(0.75986 -0.0256493 3.0634e-20)
(0.780388 -0.0237749 2.73134e-21)
(0.799209 -0.0220586 -2.67179e-20)
(0.81648 -0.0204682 6.09806e-21)
(0.832285 -0.0190251 3.01435e-20)
(0.0231844 -0.0642165 -1.10713e-19)
(0.0883809 -0.11827 2.73172e-20)
(0.178166 -0.130025 1.22361e-19)
(0.260444 -0.124215 -5.37846e-20)
(0.333382 -0.113341 -5.05741e-20)
(0.397694 -0.102401 -2.15945e-20)
(0.454482 -0.0926378 3.18824e-20)
(0.504897 -0.0840794 -1.02953e-20)
(0.549854 -0.0765571 -8.89373e-20)
(0.590111 -0.0699142 -8.18947e-20)
(0.626294 -0.0640219 -7.07339e-21)
(0.658932 -0.058773 2.43825e-21)
(0.688468 -0.0540783 -1.08668e-20)
(0.715273 -0.0498625 2.31101e-20)
(0.739666 -0.0460636 9.35626e-21)
(0.761921 -0.0426312 3.63311e-20)
(0.782285 -0.0395181 -5.2624e-20)
(0.800972 -0.0366665 3.12816e-20)
(0.818113 -0.0340249 -1.46389e-20)
(0.833716 -0.0316348 -5.16399e-20)
(0.0289864 -0.089074 -5.43468e-20)
(0.0987122 -0.164321 -3.30362e-20)
(0.189282 -0.180838 -2.10004e-19)
(0.270911 -0.172866 -4.66431e-20)
(0.342801 -0.157789 -1.0909e-19)
(0.406081 -0.142588 -3.76206e-20)
(0.46196 -0.129013 1.00141e-19)
(0.511588 -0.117111 5.71958e-20)
(0.555863 -0.106648 2.12169e-21)
(0.595523 -0.097407 7.26782e-20)
(0.631187 -0.0892094 -1.5842e-20)
(0.663368 -0.0819061 1.95352e-21)
(0.692501 -0.0753728 -4.85356e-20)
(0.718951 -0.0695054 1.50179e-20)
(0.743027 -0.0642176 -1.21224e-19)
(0.764998 -0.0594393 -1.01048e-19)
(0.785117 -0.0551037 -4.79328e-20)
(0.803604 -0.0511299 1.39568e-20)
(0.820551 -0.0474505 3.49001e-20)
(0.835857 -0.0441352 2.8324e-20)
(0.0366062 -0.113113 1.31015e-19)
(0.112325 -0.209129 -1.18619e-19)
(0.203956 -0.230464 -9.62041e-20)
(0.284745 -0.220493 -1.59722e-20)
(0.355257 -0.201359 2.09235e-19)
(0.417176 -0.182011 5.98697e-20)
(0.471855 -0.164716 1.624e-20)
(0.520442 -0.149548 -4.62137e-20)
(0.563813 -0.136212 -3.95905e-20)
(0.602687 -0.124432 5.57021e-20)
(0.637663 -0.11398 1.31351e-19)
(0.66924 -0.104667 -2.00813e-19)
(0.697841 -0.0963345 7.9693e-20)
(0.723821 -0.0888496 1.86325e-20)
(0.747477 -0.0821032 9.09958e-20)
(0.769073 -0.0760057 5.65872e-20)
(0.788868 -0.0704704 1.48262e-19)
(0.80709 -0.0653925 -2.93175e-20)
(0.823783 -0.0606937 1.23025e-20)
(0.838701 -0.0564826 7.79274e-20)
(0.0459459 -0.136116 -1.40379e-19)
(0.129081 -0.252357 4.83824e-20)
(0.222062 -0.27858 3.06509e-19)
(0.301841 -0.266815 1.63771e-19)
(0.370662 -0.24381 -1.49096e-19)
(0.430904 -0.22046 -9.81296e-20)
(0.484098 -0.199563 8.46608e-20)
(0.5314 -0.181229 7.80511e-20)
(0.573655 -0.165107 4.55869e-20)
(0.611557 -0.150863 -1.63097e-19)
(0.645682 -0.138221 1.53717e-20)
(0.676513 -0.126955 1.00038e-19)
(0.704457 -0.116872 -8.13049e-20)
(0.729855 -0.107814 -1.21989e-19)
(0.752994 -0.099647 3.42768e-20)
(0.774126 -0.0922643 -1.29348e-19)
(0.793518 -0.0855583 -4.78987e-20)
(0.811411 -0.0793998 2.18578e-20)
(0.82779 -0.073704 -6.17911e-20)
(0.842238 -0.0686333 -4.02243e-20)
(0.0568844 -0.157872 2.4758e-19)
(0.14881 -0.293679 -1.64063e-19)
(0.243446 -0.324873 -2.83385e-20)
(0.322071 -0.311561 -6.8152e-20)
(0.38891 -0.28491 -5.64863e-20)
(0.44717 -0.257735 9.56719e-20)
(0.498611 -0.233378 -1.56436e-19)
(0.544391 -0.211998 -4.06818e-21)
(0.585326 -0.193193 4.05626e-20)
(0.622077 -0.176575 2.63087e-20)
(0.655196 -0.161823 -3.66368e-20)
(0.685143 -0.148671 -8.96043e-20)
(0.712309 -0.136899 -3.39691e-20)
(0.737019 -0.126319 8.274e-20)
(0.759545 -0.116778 -3.19231e-20)
(0.780127 -0.108151 9.27257e-20)
(0.799042 -0.10031 7.35799e-20)
(0.816542 -0.0930988 -2.4061e-20)
(0.832553 -0.0864329 -4.18669e-20)
(0.846457 -0.0805443 6.63629e-20)
(0.0692792 -0.178188 4.93408e-20)
(0.171309 -0.332786 -2.30863e-21)
(0.267924 -0.369043 5.28017e-20)
(0.34528 -0.354472 4.81345e-21)
(0.409871 -0.324438 -1.25644e-19)
(0.465867 -0.293643 -1.71701e-19)
(0.515296 -0.265991 -1.15881e-19)
(0.559331 -0.241706 -2.11589e-19)
(0.598751 -0.220339 -4.9322e-20)
(0.634182 -0.201451 7.80844e-20)
(0.666145 -0.184679 -6.65483e-20)
(0.695078 -0.169723 1.22226e-19)
(0.721351 -0.156329 1.79331e-19)
(0.745272 -0.144289 -1.73361e-19)
(0.767093 -0.133429 9.02282e-20)
(0.787046 -0.123606 -1.24222e-19)
(0.805409 -0.11467 -9.4452e-20)
(0.822456 -0.106439 -1.03301e-19)
(0.838048 -0.0988334 2.01439e-19)
(0.851342 -0.0921727 2.52754e-21)
(0.0829674 -0.196884 -2.48807e-19)
(0.196346 -0.369388 7.02611e-20)
(0.295283 -0.410805 2.75581e-19)
(0.371293 -0.3953 -3.68724e-20)
(0.433399 -0.362182 1.05726e-20)
(0.486868 -0.328 -7.41123e-20)
(0.534044 -0.297243 1.11971e-19)
(0.576123 -0.270211 1.1348e-19)
(0.613844 -0.246419 2.58784e-20)
(0.647796 -0.22538 -8.90886e-20)
(0.678464 -0.206691 2.09972e-19)
(0.70626 -0.19002 -9.6408e-20)
(0.731531 -0.175085 -1.1463e-19)
(0.754566 -0.161654 -1.89401e-19)
(0.775598 -0.149535 -4.38278e-20)
(0.794843 -0.13857 -5.51819e-20)
(0.812587 -0.128586 2.34885e-21)
(0.829121 -0.119374 4.23307e-20)
(0.844247 -0.110861 -2.01672e-19)
(0.856877 -0.103477 5.53293e-20)
(0.0977673 -0.213795 -1.20399e-19)
(0.223659 -0.403214 -8.17548e-20)
(0.325283 -0.449894 -7.42776e-20)
(0.39991 -0.433814 -9.38009e-20)
(0.459328 -0.397944 1.3321e-19)
(0.51003 -0.360638 -4.80902e-20)
(0.554731 -0.326983 -2.49567e-19)
(0.594658 -0.297381 3.3357e-19)
(0.630512 -0.271315 1.03148e-19)
(0.662834 -0.248256 2.1542e-19)
(0.692077 -0.227766 -2.79508e-19)
(0.718621 -0.209479 2.54239e-19)
(0.742789 -0.19309 -3.33e-20)
(0.764848 -0.178345 2.76918e-20)
(0.785012 -0.165035 3.22904e-19)
(0.803478 -0.152988 9.29839e-20)
(0.820537 -0.142009 1.40895e-19)
(0.836502 -0.131859 -6.69857e-21)
(0.851119 -0.122474 1.01161e-19)
(0.863041 -0.114417 -1.4594e-19)
(0.11348 -0.22878 1.87218e-19)
(0.252959 -0.434017 -1.00726e-19)
(0.35766 -0.486061 2.0654e-19)
(0.430912 -0.469797 -1.51735e-19)
(0.487477 -0.431542 1.2821e-19)
(0.5352 -0.391397 7.38644e-20)
(0.577222 -0.355073 4.37725e-19)
(0.614818 -0.323093 -2.91933e-19)
(0.648647 -0.294919 -2.19456e-19)
(0.679205 -0.269985 2.40006e-20)
(0.706902 -0.247817 -3.02113e-20)
(0.732088 -0.228024 -1.1616e-19)
(0.755059 -0.210277 1.83533e-19)
(0.776061 -0.194301 6.67222e-20)
(0.795283 -0.179875 -1.07269e-19)
(0.812904 -0.166812 -2.05868e-19)
(0.829217 -0.154896 -1.65435e-20)
(0.844561 -0.143853 1.19901e-19)
(0.858632 -0.133634 -1.08111e-19)
(0.869813 -0.124954 1.05443e-19)
(0.129893 -0.241715 -1.59426e-19)
(0.283932 -0.461576 -5.39658e-20)
(0.392124 -0.519081 -1.44315e-19)
(0.464058 -0.503053 1.63825e-19)
(0.517646 -0.462808 2.55341e-19)
(0.562207 -0.420134 1.88286e-19)
(0.60137 -0.381389 -8.33455e-20)
(0.636474 -0.347237 -1.4172e-19)
(0.668137 -0.317133 2.70961e-19)
(0.696806 -0.290477 -1.19082e-19)
(0.72285 -0.266766 1.895e-21)
(0.746583 -0.245583 1.23013e-19)
(0.768273 -0.22658 2.57843e-19)
(0.788141 -0.209464 -2.01987e-19)
(0.806354 -0.194001 -1.328e-19)
(0.823072 -0.179993 2.19224e-19)
(0.838584 -0.167204 -1.81548e-19)
(0.853258 -0.155321 3.78841e-21)
(0.86675 -0.144306 2.01318e-19)
(0.877168 -0.135051 5.78058e-20)
(0.14678 -0.252501 1.04664e-19)
(0.316243 -0.485699 -1.08182e-19)
(0.428363 -0.548753 -3.44579e-20)
(0.499089 -0.533403 -1.26093e-20)
(0.549623 -0.491592 -3.93019e-19)
(0.590871 -0.446721 -2.66356e-19)
(0.627018 -0.405817 1.2348e-19)
(0.659488 -0.369714 1.09573e-19)
(0.688861 -0.337868 -1.7531e-19)
(0.715532 -0.309653 -2.17951e-19)
(0.739826 -0.284541 1.39485e-19)
(0.76202 -0.262094 -4.0744e-19)
(0.782353 -0.241944 -1.4334e-19)
(0.801021 -0.223784 2.67819e-19)
(0.818166 -0.207368 -2.87616e-20)
(0.833926 -0.192492 -5.14675e-20)
(0.848587 -0.178898 1.32562e-20)
(0.862549 -0.166231 -1.41807e-19)
(0.875437 -0.15446 -1.05835e-19)
(0.885081 -0.144677 -1.02807e-19)
(0.163903 -0.261061 -8.19314e-20)
(0.349532 -0.50622 2.83771e-19)
(0.466045 -0.574899 3.65208e-19)
(0.53573 -0.56069 -9.17158e-20)
(0.583179 -0.517761 2.28938e-19)
(0.621001 -0.471045 4.11613e-20)
(0.654001 -0.428259 -1.87731e-19)
(0.683714 -0.390436 3.13959e-20)
(0.71069 -0.357047 -2.19092e-19)
(0.735269 -0.327445 1.31757e-19)
(0.75773 -0.301081 -9.0244e-20)
(0.778311 -0.2775 3.65435e-19)
(0.797221 -0.256317 9.77332e-20)
(0.81463 -0.237213 9.96828e-20)
(0.830655 -0.219934 -1.61719e-19)
(0.845408 -0.20427 8.07235e-21)
(0.859176 -0.189944 1.2663e-19)
(0.872387 -0.176557 1.03656e-19)
(0.884654 -0.164073 8.96646e-20)
(0.893527 -0.153802 4.28061e-20)
(0.18102 -0.267346 -1.77791e-19)
(0.383426 -0.52301 -4.69155e-20)
(0.504818 -0.59737 -9.35932e-20)
(0.573688 -0.584778 2.82966e-20)
(0.618078 -0.541201 -2.76617e-20)
(0.652396 -0.49301 1.26175e-19)
(0.682144 -0.448633 -1.44958e-19)
(0.709001 -0.409331 2.06887e-19)
(0.73349 -0.374604 -2.32743e-19)
(0.755898 -0.343793 9.75181e-21)
(0.776456 -0.316333 2.84161e-19)
(0.795362 -0.291753 -7.8305e-20)
(0.812792 -0.269657 -1.71154e-19)
(0.828892 -0.249715 -1.18051e-19)
(0.843752 -0.231667 1.98901e-19)
(0.857459 -0.215299 1.07663e-19)
(0.870293 -0.200323 -1.43608e-20)
(0.882724 -0.186286 -1.0718e-19)
(0.894365 -0.173132 -1.09574e-19)
(0.902483 -0.162405 1.3326e-19)
(0.197881 -0.271331 2.18845e-19)
(0.417535 -0.53597 -1.39094e-19)
(0.544312 -0.616042 8.04544e-20)
(0.612657 -0.605556 -2.43102e-20)
(0.654069 -0.561819 -1.74597e-19)
(0.684847 -0.512538 -1.19876e-19)
(0.711269 -0.466873 1.8316e-19)
(0.735193 -0.426338 -1.36614e-19)
(0.757124 -0.390486 3.68373e-19)
(0.777298 -0.35865 -1.88386e-20)
(0.795897 -0.330252 -1.89931e-19)
(0.813077 -0.304813 2.68977e-20)
(0.828983 -0.281926 1.69857e-19)
(0.843733 -0.261253 7.00095e-20)
(0.857393 -0.242529 2.04537e-21)
(0.870016 -0.225541 -1.31399e-19)
(0.881877 -0.209992 -3.74676e-20)
(0.893502 -0.195381 -1.5545e-19)
(0.90453 -0.181613 -4.25957e-20)
(0.911934 -0.170467 5.32364e-20)
(0.214235 -0.27302 4.21267e-20)
(0.451457 -0.545037 1.68919e-19)
(0.584144 -0.630823 -1.39544e-19)
(0.652317 -0.622933 -1.64327e-20)
(0.690892 -0.579541 3.29088e-20)
(0.718139 -0.52957 2.52389e-20)
(0.74119 -0.482925 4.1082e-20)
(0.762127 -0.441413 -8.00201e-20)
(0.78145 -0.404652 1.76662e-19)
(0.799344 -0.371978 4.16855e-20)
(0.815941 -0.342806 2.0893e-19)
(0.831357 -0.316649 -2.10583e-19)
(0.845702 -0.293097 -1.14804e-19)
(0.859069 -0.271806 8.59198e-20)
(0.871499 -0.252506 1.05793e-20)
(0.883008 -0.234995 9.55214e-21)
(0.893854 -0.218975 2.76889e-20)
(0.904643 -0.2039 4.37657e-20)
(0.915099 -0.189595 -1.27333e-19)
(0.921877 -0.17803 -2.63099e-19)
(0.229833 -0.272444 -3.99993e-20)
(0.484782 -0.550186 -9.75992e-20)
(0.623917 -0.641648 -5.64191e-20)
(0.692336 -0.636848 -3.26667e-20)
(0.728283 -0.594315 7.16186e-20)
(0.752053 -0.544064 2.52615e-20)
(0.771721 -0.496757 -3.45488e-21)
(0.78964 -0.454526 6.85743e-20)
(0.806324 -0.417074 1.45703e-21)
(0.821909 -0.38375 -1.44595e-19)
(0.836478 -0.353968 -1.72405e-19)
(0.850103 -0.327237 6.36022e-20)
(0.862862 -0.303146 9.95101e-20)
(0.874825 -0.281345 -1.9372e-19)
(0.886011 -0.261562 -1.79823e-19)
(0.896395 -0.243596 -1.00496e-19)
(0.906192 -0.227161 9.32315e-20)
(0.916097 -0.211674 -1.84602e-20)
(0.926038 -0.196895 1.58901e-20)
(0.932368 -0.18499 2.12287e-19)
(0.244428 -0.269662 -5.4244e-20)
(0.517096 -0.551427 3.66744e-20)
(0.663223 -0.648486 6.1809e-20)
(0.732375 -0.64726 6.45256e-20)
(0.765968 -0.606111 5.98277e-20)
(0.786366 -0.555998 -1.21865e-19)
(0.802672 -0.508351 -5.22998e-20)
(0.817569 -0.465659 1.34985e-19)
(0.831602 -0.427737 -1.1966e-19)
(0.844865 -0.393953 6.99087e-20)
(0.857392 -0.363725 9.55844e-20)
(0.869215 -0.336564 -3.56886e-20)
(0.880373 -0.31206 -3.64363e-20)
(0.890913 -0.289865 9.14145e-20)
(0.900838 -0.269706 9.2951e-20)
(0.910081 -0.251399 5.73443e-20)
(0.918766 -0.234691 5.99359e-20)
(0.927634 -0.219021 -1.05808e-20)
(0.93704 -0.204072 -4.75723e-20)
(0.943395 -0.192048 -7.19118e-20)
(0.257784 -0.264763 1.76617e-20)
(0.547982 -0.548808 1.12592e-20)
(0.701645 -0.651333 -2.987e-20)
(0.772083 -0.654159 3.98605e-20)
(0.803668 -0.614918 -5.92702e-20)
(0.820852 -0.565367 9.10816e-20)
(0.833853 -0.517705 1.06802e-19)
(0.845748 -0.474813 -2.82637e-19)
(0.857139 -0.436638 -1.57499e-20)
(0.868085 -0.402582 6.56095e-20)
(0.878573 -0.372071 1.31366e-19)
(0.888591 -0.344623 3.81518e-20)
(0.898145 -0.319831 1.76522e-19)
(0.907254 -0.297349 -5.60974e-20)
(0.915916 -0.276903 -2.11324e-20)
(0.924045 -0.258301 1.99432e-20)
(0.931661 -0.241295 -1.60079e-19)
(0.939425 -0.225307 4.70587e-20)
(0.948252 -0.210008 -3.81739e-20)
(0.95572 -0.197907 1.00385e-19)
(0.269686 -0.257868 3.73923e-20)
(0.577021 -0.542411 6.39555e-21)
(0.738761 -0.65022 3.61592e-21)
(0.811106 -0.65756 -9.36174e-21)
(0.841104 -0.620747 -3.33183e-20)
(0.855285 -0.572186 -4.47972e-20)
(0.865076 -0.524835 -3.43504e-20)
(0.874014 -0.482 7.80405e-20)
(0.882793 -0.443788 -5.13545e-21)
(0.891443 -0.409646 -1.26351e-20)
(0.899907 -0.379013 -8.49543e-20)
(0.908135 -0.351417 2.76534e-20)
(0.916093 -0.326459 -4.68988e-20)
(0.923773 -0.3038 -7.78832e-23)
(0.931167 -0.283168 1.33909e-19)
(0.938201 -0.264368 -1.14854e-20)
(0.944809 -0.247194 9.76716e-20)
(0.951337 -0.231328 1.56769e-20)
(0.958606 -0.21713 2.52556e-20)
(0.966828 -0.206197 -4.10248e-20)
(0.279965 -0.249134 -2.58308e-21)
(0.603788 -0.532344 2.05154e-20)
(0.774148 -0.645222 5.39289e-20)
(0.849086 -0.657509 7.49743e-21)
(0.877992 -0.623629 -2.89324e-20)
(0.889441 -0.576486 3.98685e-20)
(0.896154 -0.529772 2.76589e-20)
(0.902208 -0.487249 3.42725e-20)
(0.908423 -0.449211 1.05279e-19)
(0.914816 -0.415163 -1.24167e-19)
(0.921287 -0.384566 -9.26348e-20)
(0.927749 -0.356958 -3.02535e-20)
(0.934131 -0.331953 -9.34153e-20)
(0.940395 -0.309223 5.98904e-20)
(0.94652 -0.288499 -1.60291e-20)
(0.952452 -0.26958 -1.14925e-19)
(0.958096 -0.252274 1.75825e-20)
(0.963498 -0.236448 4.64085e-20)
(0.969136 -0.222497 -3.05856e-20)
(0.976298 -0.209989 1.77497e-19)
(0.288415 -0.23864 -1.45046e-19)
(0.627879 -0.518731 -7.73886e-20)
(0.807392 -0.63648 -1.28298e-19)
(0.885666 -0.654071 -6.36764e-21)
(0.914047 -0.62361 -1.26865e-20)
(0.923095 -0.578315 1.37005e-20)
(0.926905 -0.532564 -2.1307e-20)
(0.930173 -0.490602 -1.05479e-19)
(0.933893 -0.452943 1.21113e-19)
(0.938083 -0.419164 -5.152e-20)
(0.942607 -0.388754 6.59988e-20)
(0.947339 -0.361267 4.75592e-20)
(0.952179 -0.336329 7.19659e-20)
(0.957053 -0.313625 1.23504e-20)
(0.961923 -0.292891 -5.18554e-20)
(0.966757 -0.273906 1.7395e-20)
(0.971483 -0.256472 7.01598e-21)
(0.975973 -0.240569 3.905e-20)
(0.980326 -0.226585 -8.63559e-20)
(0.986047 -0.213171 -1.24676e-19)
(0.294806 -0.226532 1.31268e-21)
(0.648721 -0.50169 1.6112e-19)
(0.838197 -0.624212 1.28275e-19)
(0.920501 -0.647333 5.39618e-20)
(0.948985 -0.620756 1.24142e-20)
(0.956026 -0.57774 -3.30256e-21)
(0.957149 -0.533271 -8.85388e-21)
(0.957759 -0.492113 2.67079e-20)
(0.959073 -0.45503 -8.06785e-20)
(0.961129 -0.42169 -1.3655e-20)
(0.963763 -0.391613 -3.38432e-20)
(0.966816 -0.364373 1.19502e-20)
(0.970155 -0.339612 -5.60805e-20)
(0.973682 -0.317027 -1.57928e-20)
(0.977336 -0.296361 3.70014e-20)
(0.981099 -0.277381 -5.03166e-20)
(0.984943 -0.259885 -1.92547e-21)
(0.988668 -0.24395 5.17007e-20)
(0.992089 -0.229991 8.44494e-20)
(0.996587 -0.216138 2.88731e-20)
(0.299106 -0.213025 -5.06188e-20)
(0.666082 -0.481769 -1.15453e-19)
(0.866027 -0.608648 -1.15096e-20)
(0.953311 -0.637285 1.03459e-19)
(0.98253 -0.61514 -3.99382e-20)
(0.988016 -0.574841 2.57164e-20)
(0.986715 -0.531968 9.23929e-22)
(0.984822 -0.49185 1.3102e-22)
(0.983836 -0.455533 -2.77678e-20)
(0.983844 -0.422791 4.53405e-20)
(0.98466 -0.393186 4.14773e-20)
(0.986093 -0.366315 -3.87462e-20)
(0.987986 -0.341835 5.59838e-21)
(0.990217 -0.319461 -9.58473e-20)
(0.992706 -0.298948 6.60169e-20)
(0.995442 -0.280059 -1.92054e-20)
(0.998427 -0.262597 2.36806e-20)
(1.00143 -0.246703 1.1499e-20)
(1.00406 -0.232807 -1.12845e-19)
(1.0075 -0.218721 -2.91877e-20)
(0.301222 -0.198467 1.46758e-19)
(0.679866 -0.459278 1.7559e-19)
(0.890159 -0.589686 -7.42509e-20)
(0.983666 -0.62414 -7.72154e-20)
(1.01437 -0.606853 -3.52096e-20)
(1.01885 -0.569708 -2.72465e-20)
(1.01543 -0.528742 -1.61761e-20)
(1.01122 -0.489891 -7.77533e-21)
(1.00806 -0.454522 3.27775e-20)
(1.00612 -0.422529 -3.35265e-20)
(1.0052 -0.393526 1.03413e-20)
(1.00509 -0.367138 2.1248e-20)
(1.0056 -0.343042 1.42842e-21)
(1.00659 -0.320969 -2.57897e-20)
(1.00797 -0.30069 -2.70915e-20)
(1.00973 -0.281976 -4.39516e-20)
(1.01187 -0.264632 3.00693e-20)
(1.01413 -0.248827 -1.47786e-20)
(1.01599 -0.23499 2.67677e-20)
(1.01844 -0.220819 8.05515e-22)
(0.301065 -0.183101 -1.42377e-19)
(0.689756 -0.434356 1.65325e-19)
(0.910359 -0.567657 6.99566e-20)
(1.01102 -0.608058 -5.38864e-20)
(1.04429 -0.596024 6.54418e-20)
(1.0483 -0.562465 -4.06821e-20)
(1.04314 -0.523689 4.44132e-20)
(1.03683 -0.486327 8.17905e-21)
(1.03165 -0.452074 -2.31214e-21)
(1.02787 -0.420971 -1.2209e-20)
(1.02531 -0.392693 3.32301e-21)
(1.02373 -0.366895 -1.31683e-20)
(1.02292 -0.343278 -1.90031e-20)
(1.02274 -0.321591 2.46764e-20)
(1.02307 -0.301623 2.36405e-21)
(1.02389 -0.283159 6.22848e-20)
(1.0252 -0.266001 -5.3331e-20)
(1.02672 -0.250321 -4.8564e-21)
(1.02782 -0.23655 -4.90574e-20)
(1.02932 -0.222421 3.78087e-20)
(0.298588 -0.167153 9.68889e-20)
(0.695439 -0.407305 -1.50384e-19)
(0.926483 -0.542845 3.06832e-21)
(1.03498 -0.589245 -2.40565e-20)
(1.07192 -0.582853 -8.07882e-20)
(1.07619 -0.553168 9.6205e-20)
(1.06968 -0.516907 -1.3856e-20)
(1.06152 -0.481256 -3.45891e-20)
(1.05448 -0.44828 -4.72143e-21)
(1.04899 -0.418196 5.26467e-21)
(1.04489 -0.390753 -5.37546e-21)
(1.04193 -0.365644 -5.32132e-21)
(1.03989 -0.342594 1.47144e-20)
(1.0386 -0.321372 1.23745e-20)
(1.03793 -0.301786 -8.99019e-21)
(1.03786 -0.283636 -4.10069e-20)
(1.03836 -0.266726 2.54739e-20)
(1.03915 -0.251211 3.09276e-20)
(1.03953 -0.237532 1.78425e-20)
(1.04015 -0.223554 -1.20071e-21)
(0.2938 -0.150867 1.15118e-20)
(0.69668 -0.37851 1.81843e-20)
(0.938185 -0.515555 -1.28568e-19)
(1.05537 -0.567937 4.96353e-20)
(1.09688 -0.567414 1.02226e-19)
(1.10225 -0.541963 -1.04191e-19)
(1.09489 -0.508516 1.32396e-20)
(1.08518 -0.474788 4.16863e-20)
(1.07646 -0.443234 -9.16795e-21)
(1.06941 -0.414286 5.85086e-21)
(1.06389 -0.387781 -1.42016e-20)
(1.05964 -0.36345 1.35983e-21)
(1.05644 -0.341046 2.90201e-21)
(1.05411 -0.32036 -6.7774e-22)
(1.05252 -0.30122 5.60203e-21)
(1.0516 -0.283444 2.60411e-20)
(1.05132 -0.266839 -2.34784e-20)
(1.05139 -0.251533 1.03498e-20)
(1.05109 -0.237979 -3.23565e-20)
(1.05091 -0.224239 -8.31164e-21)
(0.28676 -0.134491 7.8743e-20)
(0.69332 -0.348374 -9.42615e-20)
(0.945094 -0.486092 1.20059e-19)
(1.07181 -0.544309 -5.08885e-20)
(1.11892 -0.549868 3.22465e-20)
(1.12627 -0.528995 4.97325e-20)
(1.11864 -0.49865 -1.91283e-20)
(1.10769 -0.467034 -4.76628e-20)
(1.09752 -0.437035 1.62296e-20)
(1.08904 -0.409332 1.48671e-20)
(1.08222 -0.383855 1.72345e-20)
(1.07679 -0.36038 4.03288e-21)
(1.07253 -0.338693 1.06647e-20)
(1.06923 -0.318608 -2.90696e-21)
(1.06677 -0.299971 -7.15442e-22)
(1.06505 -0.282623 -3.18469e-21)
(1.06404 -0.266374 -9.80786e-21)
(1.06342 -0.251318 2.67201e-21)
(1.06249 -0.237921 1.88461e-20)
(1.06157 -0.224487 -1.69796e-21)
(0.277564 -0.118271 -1.03893e-19)
(0.685267 -0.317306 -1.61352e-19)
(0.946904 -0.454785 -6.94228e-20)
(1.08394 -0.518576 -2.01184e-21)
(1.13778 -0.530388 1.06131e-20)
(1.14804 -0.514412 -1.27542e-19)
(1.14078 -0.487427 6.34454e-20)
(1.12896 -0.458107 -2.97434e-20)
(1.11756 -0.429799 -3.92654e-20)
(1.10783 -0.403426 4.30486e-21)
(1.09984 -0.379056 -2.28829e-20)
(1.09334 -0.356505 -1.91271e-20)
(1.08809 -0.335598 -1.32359e-20)
(1.08391 -0.316169 3.81553e-21)
(1.08064 -0.298087 5.39429e-21)
(1.07819 -0.281213 2.32605e-21)
(1.07647 -0.265365 4.05887e-21)
(1.0752 -0.250599 -1.0387e-20)
(1.07369 -0.237387 9.30828e-21)
(1.07211 -0.224308 -8.06206e-21)
(0.266354 -0.102443 5.31555e-20)
(0.672507 -0.285737 4.56924e-20)
(0.943367 -0.421995 -2.14191e-19)
(1.09141 -0.490986 7.23045e-20)
(1.15313 -0.509144 -1.45559e-19)
(1.16732 -0.498342 9.72148e-20)
(1.16114 -0.474974 -8.73084e-21)
(1.14892 -0.448128 5.54512e-20)
(1.13653 -0.421622 7.12023e-20)
(1.12572 -0.396677 -2.91488e-21)
(1.11668 -0.373474 3.53522e-20)
(1.10922 -0.351897 3.03701e-20)
(1.1031 -0.331826 -8.33084e-21)
(1.09811 -0.313101 -1.10159e-20)
(1.0941 -0.295617 -1.23821e-21)
(1.09096 -0.279256 2.48626e-21)
(1.08859 -0.263849 2.13208e-21)
(1.08672 -0.249409 4.57011e-21)
(1.08468 -0.236402 -5.8885e-22)
(1.0825 -0.223716 1.11785e-21)
(0.253312 -0.0872319 1.26613e-19)
(0.655099 -0.254106 1.35774e-19)
(0.934296 -0.388103 -4.50894e-20)
(1.09389 -0.4618 2.23281e-19)
(1.16465 -0.486306 4.35525e-20)
(1.18388 -0.480914 -1.56251e-19)
(1.17958 -0.461411 1.07316e-19)
(1.16744 -0.437216 -1.22323e-20)
(1.15438 -0.412625 -7.06015e-21)
(1.14268 -0.389171 -2.6043e-20)
(1.13273 -0.367184 1.36376e-20)
(1.12441 -0.346645 1.04139e-20)
(1.1175 -0.327447 -2.35221e-20)
(1.11179 -0.309458 -2.63253e-21)
(1.10711 -0.292611 -5.07146e-21)
(1.10334 -0.276798 -8.18339e-21)
(1.10037 -0.261866 8.26053e-21)
(1.09794 -0.247786 -3.04317e-21)
(1.09543 -0.235001 -4.60682e-22)
(1.0927 -0.222733 -1.33948e-21)
(0.238658 -0.0728416 -2.63913e-19)
(0.633189 -0.222859 7.99271e-20)
(0.919557 -0.353511 1.57211e-21)
(1.09107 -0.431291 -1.37038e-19)
(1.172 -0.46205 1.54522e-20)
(1.19746 -0.462253 -3.48728e-20)
(1.19592 -0.446852 -3.26587e-20)
(1.18443 -0.425484 -4.48125e-20)
(1.17104 -0.402914 -2.22927e-21)
(1.15865 -0.381009 -1.99967e-20)
(1.14795 -0.360287 -3.50631e-20)
(1.1389 -0.340814 -1.40438e-20)
(1.13129 -0.322518 3.24601e-20)
(1.12493 -0.30531 1.72022e-20)
(1.11965 -0.289125 4.84538e-21)
(1.11532 -0.273881 1.30536e-20)
(1.11179 -0.259454 -1.54443e-20)
(1.10885 -0.245766 3.01425e-21)
(1.10593 -0.23321 2.06694e-21)
(1.10274 -0.221366 5.98143e-22)
(0.222645 -0.0594516 1.88981e-19)
(0.607015 -0.192435 -1.61946e-19)
(0.89909 -0.318634 -6.55814e-20)
(1.08267 -0.399743 1.54707e-19)
(1.17485 -0.436553 1.25899e-20)
(1.20776 -0.442482 1.37395e-21)
(1.20998 -0.431402 5.15637e-20)
(1.19979 -0.413037 -7.23039e-20)
(1.18645 -0.392591 1.1639e-20)
(1.17361 -0.372292 3.86947e-20)
(1.16231 -0.352868 -1.4739e-20)
(1.15264 -0.334484 -3.65302e-20)
(1.14444 -0.317117 1.36953e-21)
(1.13751 -0.300709 -1.27066e-20)
(1.1317 -0.285206 -1.31552e-20)
(1.12686 -0.270553 -2.60216e-20)
(1.12284 -0.256658 1.45058e-20)
(1.11943 -0.243399 -1.1638e-21)
(1.11616 -0.231076 7.92744e-22)
(1.11259 -0.219665 -3.59408e-21)
(0.205554 -0.0472127 -1.70128e-19)
(0.576912 -0.163255 1.54468e-19)
(0.872912 -0.283892 -2.37552e-20)
(1.06842 -0.367456 -1.40042e-20)
(1.17282 -0.409996 1.74195e-20)
(1.21448 -0.421715 -2.42296e-20)
(1.22155 -0.415156 -1.6529e-21)
(1.21341 -0.399971 7.59317e-20)
(1.20055 -0.381755 -3.32254e-21)
(1.18752 -0.363114 4.74365e-21)
(1.17578 -0.345013 2.6184e-21)
(1.16563 -0.327734 5.10772e-21)
(1.15693 -0.311311 -1.35436e-20)
(1.14952 -0.295715 3.24361e-20)
(1.14325 -0.280911 3.11257e-21)
(1.13797 -0.266864 1.55845e-20)
(1.13351 -0.253508 -5.28106e-21)
(1.12966 -0.240701 1.88796e-21)
(1.12608 -0.228654 -7.14563e-21)
(1.12234 -0.217606 6.03042e-21)
(0.187683 -0.0362421 7.31329e-20)
(0.543305 -0.13571 -6.34071e-20)
(0.841145 -0.249714 -2.24414e-20)
(1.04813 -0.334742 -2.29768e-20)
(1.16555 -0.382566 3.04298e-20)
(1.21726 -0.400059 7.43771e-21)
(1.23038 -0.398194 3.96621e-20)
(1.22513 -0.386366 -8.27247e-20)
(1.21328 -0.370494 4.55498e-20)
(1.20035 -0.353564 2.96998e-20)
(1.18837 -0.336807 -1.90399e-20)
(1.17784 -0.32064 3.69162e-20)
(1.16875 -0.305166 4.25432e-22)
(1.16095 -0.290389 8.51855e-21)
(1.15428 -0.276293 1.07803e-20)
(1.14862 -0.262859 -1.37277e-20)
(1.14378 -0.250044 9.87045e-21)
(1.13956 -0.237721 3.00156e-21)
(1.13569 -0.226054 1.0332e-22)
(1.13181 -0.21538 -3.93229e-21)
(0.169342 -0.0266213 -3.85933e-20)
(0.506709 -0.110152 1.11964e-20)
(0.804021 -0.216524 6.952e-20)
(1.02164 -0.301924 -1.42954e-20)
(1.15268 -0.354452 1.66766e-20)
(1.21572 -0.377613 -9.80537e-21)
(1.23616 -0.380581 1.19026e-20)
(1.23478 -0.372289 -8.29366e-21)
(1.22456 -0.358883 -4.77793e-20)
(1.21209 -0.343724 2.9794e-21)
(1.20006 -0.328329 1.65257e-21)
(1.1893 -0.313276 -2.60761e-20)
(1.17991 -0.298748 9.41632e-21)
(1.17179 -0.284788 -1.79871e-21)
(1.1648 -0.271401 -1.48338e-20)
(1.15881 -0.258583 1.23204e-20)
(1.15365 -0.246313 -1.66173e-20)
(1.14911 -0.234486 -5.32781e-21)
(1.14495 -0.223224 3.77644e-21)
(1.14085 -0.212895 -1.59832e-21)
(0.150842 -0.0183935 4.33879e-20)
(0.467714 -0.0868817 1.42308e-20)
(0.761895 -0.184741 -1.95922e-20)
(0.988878 -0.26934 -7.77538e-21)
(1.13386 -0.325851 -3.13523e-20)
(1.20942 -0.35447 -2.95371e-21)
(1.23856 -0.362363 -6.84875e-21)
(1.24214 -0.357784 1.18452e-21)
(1.23427 -0.346981 -4.42625e-21)
(1.22268 -0.333662 -8.74272e-21)
(1.21084 -0.31965 -4.15495e-21)
(1.19999 -0.30571 9.91075e-21)
(1.1904 -0.29212 1.43571e-21)
(1.18204 -0.278969 -7.68643e-21)
(1.17479 -0.266285 2.67147e-21)
(1.16853 -0.25408 2.28791e-21)
(1.1631 -0.242352 8.29749e-21)
(1.1583 -0.231014 -2.92792e-21)
(1.15388 -0.22014 -2.72497e-21)
(1.14954 -0.210142 -9.08317e-22)
(0.132488 -0.0115639 -9.15771e-21)
(0.426979 -0.0661383 2.20235e-20)
(0.715259 -0.154765 7.40578e-21)
(0.949889 -0.237339 -3.33307e-21)
(1.10874 -0.296973 -8.02842e-21)
(1.1979 -0.33072 9.91089e-21)
(1.23715 -0.343573 7.99924e-21)
(1.24691 -0.342877 -1.30889e-20)
(1.24225 -0.334829 3.37717e-21)
(1.23206 -0.323436 -1.36134e-21)
(1.2207 -0.310836 3.65586e-22)
(1.20992 -0.298007 -3.87813e-21)
(1.20024 -0.285341 -4.52115e-21)
(1.19172 -0.272985 9.784e-22)
(1.18428 -0.260994 3.11623e-22)
(1.17781 -0.249392 -4.95692e-21)
(1.17215 -0.238196 4.5104e-22)
(1.16713 -0.227335 2.82919e-21)
(1.1625 -0.216836 2.61808e-21)
(1.15797 -0.207162 -9.06886e-23)
(0.114566 -0.00610123 -8.99104e-22)
(0.385204 -0.0480905 1.87032e-20)
(0.664744 -0.12697 1.94322e-21)
(0.90484 -0.206282 3.37425e-21)
(1.07706 -0.26804 -1.41309e-20)
(1.18066 -0.306453 2.44767e-20)
(1.23142 -0.324227 -7.39202e-21)
(1.24873 -0.327566 -4.49377e-21)
(1.24828 -0.322442 -1.96535e-21)
(1.24012 -0.313082 -5.15831e-21)
(1.2296 -0.301937 8.2443e-21)
(1.21909 -0.290222 -9.30127e-21)
(1.20943 -0.278468 -5.85264e-21)
(1.20083 -0.266888 3.03621e-22)
(1.19326 -0.255572 1.78364e-21)
(1.18663 -0.24456 -9.45215e-22)
(1.18081 -0.233882 -3.15268e-21)
(1.1756 -0.22349 3.26362e-21)
(1.17082 -0.213362 4.39825e-21)
(1.16618 -0.203992 3.12817e-21)
(0.0973377 -0.00194059 6.32863e-20)
(0.343112 -0.0328294 1.57887e-20)
(0.611113 -0.10169 -3.54718e-20)
(0.854056 -0.176538 1.65923e-20)
(1.03862 -0.239299 -5.08472e-20)
(1.15718 -0.28177 -1.61432e-21)
(1.22082 -0.304329 -1.77251e-20)
(1.24715 -0.311827 2.13748e-20)
(1.25208 -0.309809 2.61462e-21)
(1.24672 -0.302617 -1.75217e-20)
(1.23748 -0.292992 -1.64226e-20)
(1.22749 -0.282404 5.4915e-21)
(1.21799 -0.271549 4.99009e-21)
(1.2094 -0.260725 -7.82274e-21)
(1.20176 -0.250063 2.11717e-21)
(1.19503 -0.239624 2.61305e-21)
(1.18907 -0.22945 1.52563e-20)
(1.18374 -0.219518 -2.80254e-21)
(1.17885 -0.209763 -8.00086e-21)
(1.17414 -0.200663 5.20782e-21)
(0.0810302 0.00101184 -4.59654e-20)
(0.30142 -0.0203651 -5.04705e-21)
(0.555256 -0.079206 9.2551e-20)
(0.798051 -0.14848 -4.84827e-20)
(0.993342 -0.211024 5.53703e-20)
(1.12697 -0.256787 -1.32363e-20)
(1.2047 -0.283881 -4.17426e-21)
(1.24158 -0.295614 -5.31363e-21)
(1.25323 -0.29689 -4.43102e-20)
(1.25162 -0.292029 -1.51662e-20)
(1.24425 -0.284017 1.6721e-20)
(1.23508 -0.274588 -3.35832e-20)
(1.22592 -0.264626 -1.87655e-20)
(1.21743 -0.25454 8.92575e-21)
(1.20979 -0.244509 -1.68525e-20)
(1.203 -0.234622 5.46443e-21)
(1.19697 -0.224933 -2.61564e-20)
(1.19154 -0.215449 1.10565e-20)
(1.18657 -0.206074 -5.26619e-21)
(1.18184 -0.197203 1.07163e-20)
(0.0658316 0.00287322 3.50287e-20)
(0.260808 -0.0106276 7.35225e-22)
(0.498152 -0.0597271 -5.41616e-20)
(0.737541 -0.122479 -2.75893e-20)
(0.941325 -0.183519 4.77158e-20)
(1.08959 -0.231651 -2.09594e-20)
(1.18236 -0.262889 1.52227e-20)
(1.23133 -0.278862 -4.01684e-21)
(1.25122 -0.283613 -6.13874e-22)
(1.25451 -0.281276 1.11628e-20)
(1.24973 -0.275005 -6.1843e-21)
(1.24181 -0.266792 5.3985e-20)
(1.2332 -0.257734 8.65526e-21)