4 	-3.95101 	3.46945e-18 	1.22404 	0.000355785 	0
4 	-3.85303 	3.46945e-18 	1.22423 	0.00106957 	0
4 	-3.75506 	2.08167e-18 	1.22459 	0.00178995 	0
4 	-3.65708 	2.42861e-18 	1.22513 	0.00252143 	0
4 	-3.5591 	4.16334e-18 	1.22586 	0.0032685 	0
4 	-3.46112 	2.77556e-18 	1.22676 	0.00403565 	0
4 	-3.36314 	-3.46945e-19 	1.22784 	0.00482735 	0
4 	-3.26517 	-2.08167e-18 	1.22908 	0.00564807 	0
4 	-3.16719 	-2.08167e-18 	1.23049 	0.00650233 	0
4 	-3.06921 	-2.08167e-18 	1.23206 	0.00739466 	0
4 	-2.97123 	-3.46945e-19 	1.23379 	0.00832958 	0
4 	-2.87325 	1.38778e-18 	1.23566 	0.00931162 	0
4 	-2.77528 	1.38778e-18 	1.23768 	0.0103453 	0
4 	-2.6773 	-3.46945e-19 	1.23982 	0.0114351 	0
4 	-2.57932 	-3.46945e-19 	1.24209 	0.0125855 	0
4 	-2.48134 	1.38778e-18 	1.24448 	0.0138007 	0
4 	-2.38336 	1.38778e-18 	1.24697 	0.0150849 	0
4 	-2.28539 	1.38778e-18 	1.24958 	0.0164423 	0
4 	-2.18741 	1.38778e-18 	1.25229 	0.0178768 	0
4 	-2.08943 	1.38778e-18 	1.25512 	0.0193928 	0
4 	-1.99145 	1.38778e-18 	1.25805 	0.0209955 	0
4 	-1.89347 	1.38778e-18 	1.26105 	0.0226913 	0
4 	-1.7955 	1.38778e-18 	1.264 	0.0244892 	0
4 	-1.69752 	1.38778e-18 	1.26664 	0.0264033 	0
4 	-1.59954 	3.1225e-18 	1.26834 	0.028457 	0
4 	-1.50156 	4.85723e-18 	1.26782 	0.0306807 	0
4 	-1.40358 	4.85723e-18 	1.26243 	0.0331563 	0
4 	-1.30561 	4.85723e-18 	1.24746 	0.0358619 	0
4 	-1.20763 	4.51028e-18 	1.2158 	0.0392052 	0
4 	-1.10965 	1.04083e-18 	1.15899 	0.0410722 	0
4 	-1.04542 	-3.46945e-18 	1.10094 	0.0443813 	6.62144e-22
4 	-1.0147 	-7.76824e-18 	1.0651 	0.0451851 	-2.92969e-20
4 	-0.983543 	-5.2012e-18 	1.02498 	0.0457544 	-3.84705e-21
4 	-0.951948 	-1.71115e-18 	0.980811 	0.0461302 	-1.56358e-20
4 	-0.928914 	-1.94291e-18 	0.932886 	0.0462088 	-4.06039e-21
4 	-0.912798 	-9.33325e-20 	0.932383 	0.0445602 	1.94256e-20
4 	-0.887488 	-1.73472e-18 	0.88044 	0.0444165 	-5.20601e-21
4 	-0.854642 	-3.46945e-18 	0.825569 	0.0439658 	5.84024e-21
4 	-0.8214 	-6.40567e-18 	0.768281 	0.0432063 	6.69509e-21
4 	-0.787774 	-9.63346e-18 	0.709118 	0.0421449 	5.57771e-21
4 	-0.753776 	-9.18428e-18 	0.648635 	0.0407962 	-8.83432e-21
4 	-0.731907 	-8.07525e-18 	0.58738 	0.0391816 	-4.41738e-21
4 	-0.714639 	-7.32293e-18 	0.583493 	0.0379985 	7.51346e-21
4 	-0.684714 	-3.46945e-18 	0.521557 	0.0362288 	-3.55584e-21
4 	-0.649678 	0 	0.459947 	0.0342522 	-9.27891e-21
4 	-0.614324 	5.58548e-19 	0.399123 	0.032105 	-2.20575e-21
4 	-0.578667 	2.07135e-18 	0.3395 	0.029825 	-3.03334e-21
4 	-0.542723 	6.39841e-18 	0.281453 	0.0274505 	3.0453e-21
4 	-0.506508 	1.3047e-17 	0.225325 	0.0250184 	4.16434e-21
4 	-0.470037 	1.71594e-17 	0.171428 	0.0225635 	-8.55351e-22
4 	-0.4486 	1.74349e-17 	0.120063 	0.0201169 	3.33531e-21
4 	-0.430188 	1.74574e-17 	0.114992 	0.0196102 	-1.14034e-20
4 	-0.396401 	1.45717e-17 	0.0665671 	0.0172969 	4.15813e-21
4 	-0.35927 	9.36751e-18 	0.0212913 	0.0150449 	9.30079e-22
4 	-0.321954 	5.89806e-18 	-0.0205534 	0.0128715 	1.2702e-22
4 	-0.284472 	5.89806e-18 	-0.0586816 	0.0107887 	-2.02631e-21
4 	-0.246843 	5.89806e-18 	-0.092807 	0.00880277 	-8.03064e-22
4 	-0.209085 	3.1225e-18 	-0.122648 	0.00691465 	9.32946e-22
4 	-0.171219 	2.82508e-18 	-0.147937 	0.00512016 	8.77619e-22
4 	-0.133263 	6.32035e-18 	-0.168429 	0.00341127 	-1.58464e-21
4 	-0.0952381 	1.08799e-17 	-0.183911 	0.00176777 	2.3508e-22
4 	-0.0571629 	1.10573e-17 	-0.194221 	0.000188994 	-4.139e-22
4 	-0.0190576 	7.36665e-18 	-0.199222 	-0.0013437 	-3.05175e-23
4 	0.0190576 	-5.41647e-19 	-0.198874 	-0.00287715 	7.02499e-23
4 	0.0571629 	-1.21585e-18 	-0.193177 	-0.00442213 	2.5777e-22
4 	0.0952381 	-1.35622e-19 	-0.182191 	-0.00598961 	-1.43724e-22
4 	0.133263 	1.18715e-19 	-0.166037 	-0.0076044 	1.53228e-21
4 	0.171219 	-8.17836e-19 	-0.144888 	-0.00928429 	-1.05207e-21
4 	0.209085 	3.46945e-19 	-0.118956 	-0.0110431 	-1.15836e-21
4 	0.246843 	4.85723e-18 	-0.0884904 	-0.0128908 	1.70124e-21
4 	0.284472 	6.59195e-18 	-0.0537607 	-0.0148332 	8.84183e-22
4 	0.321954 	8.32667e-18 	-0.0150509 	-0.0168718 	1.01837e-21
4 	0.35927 	1.45717e-17 	0.0273487 	-0.0189998 	-4.60957e-22
4 	0.396401 	1.45717e-17 	0.0731473 	-0.0212075 	-6.13729e-21
4 	0.430188 	1.20329e-17 	0.122056 	-0.0234817 	1.25851e-20
4 	0.4486 	1.09695e-17 	0.127272 	-0.0252667 	-2.8755e-21
4 	0.470037 	7.79193e-18 	0.179102 	-0.0276435 	-6.37897e-22
4 	0.506508 	4.72031e-18 	0.233408 	-0.0300348 	-3.93186e-21
4 	0.542723 	2.14834e-18 	0.289879 	-0.0324108 	-3.21054e-21
4 	0.578667 	8.7873e-19 	0.34819 	-0.034738 	2.69492e-21
4 	0.614324 	2.22822e-18 	0.40799 	-0.0369795 	2.55577e-21
4 	0.649678 	4.16334e-18 	0.468898 	-0.0390967 	1.05739e-20
4 	0.684714 	4.16334e-18 	0.530496 	-0.0410502 	1.21645e-21
4 	0.714639 	3.50654e-18 	0.592325 	-0.042802 	-4.45795e-21
4 	0.731907 	3.10116e-18 	0.596465 	-0.0449154 	2.93562e-21
4 	0.753776 	2.95878e-18 	0.657533 	-0.0464716 	9.59833e-21
4 	0.787774 	1.20856e-18 	0.717739 	-0.0477621 	-5.88871e-21
4 	0.8214 	9.66901e-19 	0.776548 	-0.0487622 	-5.94759e-21
4 	0.854642 	3.81639e-18 	0.833416 	-0.0494542 	-6.44849e-21
4 	0.887488 	4.51028e-18 	0.887815 	-0.049828 	5.1527e-21
4 	0.912798 	4.77709e-18 	0.939247 	-0.0498825 	-1.90106e-20
4 	0.928914 	8.13168e-18 	0.93978 	-0.0521721 	4.92538e-21
4 	0.951948 	9.39108e-18 	0.987121 	-0.0519571 	1.62058e-20
4 	0.983543 	1.0498e-17 	1.03068 	-0.0514308 	3.55326e-21
4 	1.0147 	8.6249e-18 	1.07018 	-0.0507048 	2.93818e-20
4 	1.04542 	2.08167e-18 	1.10539 	-0.0497177 	-5.77064e-22
4 	1.10965 	-2.42861e-18 	1.16234 	-0.0459504 	0
4 	1.20763 	-2.77556e-18 	1.21789 	-0.0438741 	0
4 	1.30561 	-1.04083e-18 	1.24868 	-0.0400337 	0
4 	1.40358 	-6.93889e-19 	1.26307 	-0.0368754 	0
4 	1.50156 	-6.93889e-19 	1.26808 	-0.0339639 	0
4 	1.59954 	-6.93889e-19 	1.26837 	-0.031338 	0
4 	1.69752 	-2.42861e-18 	1.26651 	-0.0289243 	0
4 	1.7955 	-2.42861e-18 	1.26377 	-0.0266909 	0
4 	1.89347 	-2.08167e-18 	1.26074 	-0.0246118 	0
4 	1.99145 	-6.59195e-18 	1.25769 	-0.0226689 	0
4 	2.08943 	-9.71445e-18 	1.25473 	-0.0208495 	0
4 	2.18741 	-9.71445e-18 	1.25188 	-0.0191434 	0
4 	2.28539 	-8.67362e-18 	1.24916 	-0.0175424 	0
4 	2.38336 	-7.63278e-18 	1.24655 	-0.0160391 	0
4 	2.48134 	-6.245e-18 	1.24406 	-0.0146271 	0
4 	2.57932 	-6.59195e-18 	1.24168 	-0.0132999 	0
4 	2.6773 	-8.32667e-18 	1.23942 	-0.0120515 	0
4 	2.77528 	-8.32667e-18 	1.23728 	-0.0108757 	0
4 	2.87325 	-9.71445e-18 	1.23528 	-0.00976668 	0
4 	2.97123 	-1.11022e-17 	1.23342 	-0.00871848 	0
4 	3.06921 	-8.32667e-18 	1.23171 	-0.00772534 	0
4 	3.16719 	-5.55112e-18 	1.23015 	-0.00678166 	0
4 	3.26517 	-5.55112e-18 	1.22876 	-0.00588191 	0
4 	3.36314 	-5.55112e-18 	1.22752 	-0.00502066 	0
4 	3.46112 	-6.93889e-18 	1.22646 	-0.00419258 	0
4 	3.5591 	-6.93889e-18 	1.22556 	-0.00339245 	0
4 	3.65708 	-5.55112e-18 	1.22484 	-0.0026151 	0
4 	3.75506 	-7.28584e-18 	1.2243 	-0.00185542 	0
4 	3.85303 	-7.28584e-18 	1.22394 	-0.00110828 	0
4 	3.95101 	-7.12062e-18 	1.22376 	-0.000368593 	0
