/*--------------------------------*- C++ -*----------------------------------*\
  =========                 |
  \\      /  F ield         | OpenFOAM: The Open Source CFD Toolbox
   \\    /   O peration     | Website:  https://openfoam.org
    \\  /    A nd           | Version:  7
     \\/     M anipulation  |
\*---------------------------------------------------------------------------*/
FoamFile
{
    version     2.0;
    format      ascii;
    class       volScalarField;
    location    "55";
    object      p;
}
// * * * * * * * * * * * * * * * * * * * * * * * * * * * * * * * * * * * * * //

dimensions      [0 2 -2 0 0 0 0];

internalField   nonuniform List<scalar> 
6000
(
-0.250922
-0.250601
-0.250217
-0.249782
-0.249372
-0.250949
-0.250616
-0.250219
-0.249764
-0.249338
-0.251025
-0.250671
-0.25025
-0.24976
-0.249303
-0.250764
-0.250309
-0.249769
-0.249259
-0.250891
-0.250392
-0.249787
-0.249191
-0.251047
-0.250494
-0.249816
-0.249078
-0.251227
-0.250609
-0.249856
-0.248892
-0.251425
-0.250729
-0.249918
-0.248599
-0.251635
-0.250843
-0.250016
-0.248141
-0.251851
-0.250933
-0.250183
-0.247466
-0.252066
-0.250987
-0.250405
-0.246752
-0.25107
-0.250324
-0.246348
-0.251138
-0.250268
-0.245756
-0.251117
-0.250257
-0.244986
-0.250978
-0.250256
-0.244051
-0.250229
-0.242956
-0.250136
-0.241721
-0.249926
-0.240386
-0.239011
-0.237663
-0.236395
-0.249009
-0.247988
-0.247125
-0.246005
-0.24483
-0.243521
-0.242113
-0.240596
-0.238978
-0.237257
-0.235433
-0.23351
-0.231489
-0.22937
-0.227156
-0.224846
-0.222442
-0.219945
-0.217355
-0.214673
-0.2119
-0.209036
-0.206082
-0.203041
-0.199916
-0.196708
-0.193422
-0.190055
-0.186611
-0.18309
-0.1795
-0.175843
-0.172117
-0.168334
-0.164497
-0.160611
-0.15668
-0.152711
-0.148709
-0.144679
-0.140629
-0.136566
-0.132496
-0.128427
-0.124363
-0.120313
-0.116282
-0.112267
-0.108287
-0.104344
-0.100442
-0.0965907
-0.0927914
-0.0890488
-0.0853679
-0.0817519
-0.078205
-0.0747348
-0.0713387
-0.0680183
-0.0647843
-0.0616327
-0.0585661
-0.0555857
-0.0526917
-0.0498865
-0.0471703
-0.0445431
-0.0420044
-0.0395539
-0.0371906
-0.0349136
-0.032721
-0.0306086
-0.0285791
-0.0266298
-0.0247581
-0.0229609
-0.0212387
-0.019588
-0.0180065
-0.0164938
-0.0150467
-0.0136638
-0.0123435
-0.0110844
-0.00988541
-0.00874501
-0.00766234
-0.00663614
-0.00566729
-0.00475166
-0.00389695
-0.00308551
-0.00235739
-0.00162313
-0.00108878
-0.000290003
-0.000293675
0.00131034
-0.249046
-0.247977
-0.247121
-0.245991
-0.244813
-0.243501
-0.242093
-0.240577
-0.238962
-0.237246
-0.235432
-0.23352
-0.231512
-0.229409
-0.227212
-0.224922
-0.222539
-0.220064
-0.217497
-0.214838
-0.212087
-0.209244
-0.206306
-0.20328
-0.200181
-0.196993
-0.193713
-0.19035
-0.186906
-0.183381
-0.179782
-0.17611
-0.172367
-0.168562
-0.164697
-0.160779
-0.156814
-0.152806
-0.148763
-0.144692
-0.140598
-0.136491
-0.132378
-0.128266
-0.124163
-0.120074
-0.116008
-0.111966
-0.107961
-0.103999
-0.100083
-0.096221
-0.092418
-0.0886778
-0.0850054
-0.0814044
-0.0778788
-0.0744259
-0.0710543
-0.0677626
-0.0645689
-0.0614573
-0.0584318
-0.0554934
-0.0526428
-0.0498817
-0.047209
-0.044624
-0.0421259
-0.0397137
-0.0373861
-0.0351418
-0.032979
-0.0308914
-0.0288841
-0.0269527
-0.0250945
-0.0233064
-0.0215911
-0.0199424
-0.0183592
-0.016839
-0.0153815
-0.0139851
-0.0126484
-0.0113701
-0.0101495
-0.00898546
-0.00787772
-0.00682521
-0.00582929
-0.00488637
-0.00400458
-0.00316691
-0.00241383
-0.00165756
-0.00110267
-0.00029349
-0.000279802
0.00129487
-0.249163
-0.248002
-0.247164
-0.246019
-0.244838
-0.243523
-0.242114
-0.2406
-0.238988
-0.237279
-0.235473
-0.233573
-0.231579
-0.229492
-0.227313
-0.225042
-0.22268
-0.220227
-0.217683
-0.215049
-0.21232
-0.20949
-0.20658
-0.203592
-0.200495
-0.197316
-0.194047
-0.190689
-0.187245
-0.183717
-0.180109
-0.176423
-0.172664
-0.168835
-0.164944
-0.160994
-0.156994
-0.152948
-0.148865
-0.144751
-0.140614
-0.136464
-0.132307
-0.128153
-0.124009
-0.119882
-0.11578
-0.11171
-0.10768
-0.103696
-0.099765
-0.0958934
-0.092086
-0.0883471
-0.0846814
-0.0810923
-0.0775854
-0.0741595
-0.070821
-0.067572
-0.0643972
-0.0613155
-0.0583242
-0.0554219
-0.0526153
-0.049899
-0.047269
-0.0447251
-0.0422663
-0.0398909
-0.0375973
-0.0353836
-0.0332487
-0.0311857
-0.0292022
-0.0272891
-0.0254449
-0.0236686
-0.0219542
-0.0203045
-0.0187174
-0.0171902
-0.0157219
-0.0143116
-0.0129579
-0.0116602
-0.0104178
-0.00923011
-0.00809729
-0.00701854
-0.00599575
-0.0050257
-0.00411716
-0.00325346
-0.00247591
-0.00169775
-0.00112267
-0.000303676
-0.000269668
0.00126669
-0.249361
-0.248055
-0.247252
-0.246086
-0.244903
-0.243584
-0.242174
-0.240661
-0.239053
-0.23735
-0.235553
-0.233664
-0.231684
-0.229613
-0.227452
-0.2252
-0.222859
-0.220428
-0.217907
-0.215297
-0.212578
-0.209786
-0.206905
-0.203922
-0.200846
-0.197679
-0.194419
-0.191066
-0.187624
-0.184092
-0.180476
-0.176777
-0.173
-0.169149
-0.16523
-0.16125
-0.157215
-0.153132
-0.149009
-0.144853
-0.140674
-0.13648
-0.132281
-0.128084
-0.1239
-0.119736
-0.1156
-0.1115
-0.107444
-0.10344
-0.0994932
-0.0956112
-0.0917989
-0.0880607
-0.0844013
-0.0808234
-0.0773328
-0.0739279
-0.0706128
-0.0673908
-0.0642572
-0.0612165
-0.0582688
-0.0554136
-0.0526423
-0.0499589
-0.047365
-0.0448579
-0.0424353
-0.040095
-0.0378345
-0.0356514
-0.0335419
-0.0315075
-0.0295376
-0.0276365
-0.0258013
-0.0240313
-0.0223212
-0.0206708
-0.0190792
-0.017544
-0.0160644
-0.0146396
-0.0132688
-0.0119513
-0.0106871
-0.00947591
-0.00831819
-0.00721352
-0.00616429
-0.00516758
-0.00423291
-0.00334375
-0.00254251
-0.001743
-0.00114837
-0.000320468
-0.000263735
0.00122642
-0.249639
-0.248129
-0.24738
-0.246187
-0.245002
-0.24368
-0.242268
-0.240757
-0.239152
-0.237456
-0.235668
-0.233791
-0.231824
-0.229769
-0.227625
-0.225393
-0.223072
-0.220663
-0.218163
-0.215562
-0.212889
-0.210119
-0.207251
-0.204289
-0.20123
-0.198075
-0.194824
-0.191477
-0.188035
-0.184501
-0.180876
-0.177164
-0.17337
-0.169497
-0.165553
-0.161543
-0.157474
-0.153354
-0.149192
-0.144996
-0.140774
-0.136538
-0.132297
-0.12806
-0.123837
-0.119636
-0.115467
-0.111337
-0.107256
-0.103231
-0.0992695
-0.0953769
-0.0915593
-0.0878211
-0.0841688
-0.0806013
-0.0771252
-0.0737404
-0.0704494
-0.067254
-0.0641516
-0.0611435
-0.0582289
-0.0554069
-0.0526773
-0.0500363
-0.0474821
-0.0450124
-0.0426247
-0.0403163
-0.0380845
-0.0359264
-0.0338393
-0.0318259
-0.0298757
-0.0279887
-0.0261633
-0.0243985
-0.0226906
-0.0210386
-0.0194413
-0.0178973
-0.0164058
-0.0149661
-0.0135778
-0.0122406
-0.0109548
-0.00972021
-0.00853798
-0.0074079
-0.0063329
-0.00531026
-0.00435036
-0.00343657
-0.00261268
-0.00179269
-0.00117936
-0.000343719
-0.000262378
0.00117501
-0.249995
-0.248211
-0.24754
-0.246316
-0.24513
-0.243805
-0.242392
-0.240882
-0.239282
-0.237592
-0.235813
-0.233947
-0.231994
-0.229955
-0.227828
-0.225615
-0.223315
-0.220925
-0.218437
-0.215882
-0.213223
-0.210473
-0.207628
-0.204684
-0.20164
-0.198498
-0.195256
-0.191914
-0.188474
-0.184936
-0.181304
-0.17758
-0.17377
-0.169876
-0.165906
-0.161867
-0.157766
-0.153611
-0.14941
-0.145175
-0.140913
-0.136637
-0.132355
-0.128079
-0.123818
-0.119582
-0.11538
-0.111222
-0.107117
-0.103071
-0.0990955
-0.0951929
-0.09137
-0.087632
-0.0839834
-0.0804265
-0.0769648
-0.0735991
-0.0703311
-0.0671613
-0.064088
-0.0611114
-0.0582302
-0.0554428
-0.0527481
-0.0501424
-0.047623
-0.045187
-0.0428316
-0.0405536
-0.0383497
-0.0362167
-0.034152
-0.032156
-0.0302212
-0.028346
-0.0265286
-0.0247675
-0.02306
-0.0214049
-0.0198011
-0.0182475
-0.0167435
-0.0152885
-0.0138826
-0.0125257
-0.0112183
-0.00996085
-0.00875467
-0.00759989
-0.00649998
-0.00545236
-0.0044683
-0.003531
-0.00268569
-0.00184634
-0.00121529
-0.000373239
-0.000265842
0.0011137
-0.250431
-0.248286
-0.247727
-0.246466
-0.245281
-0.243952
-0.242539
-0.241031
-0.239435
-0.237752
-0.235983
-0.234129
-0.232189
-0.230165
-0.228056
-0.225862
-0.22358
-0.221204
-0.218761
-0.21621
-0.213581
-0.210852
-0.208026
-0.205099
-0.202071
-0.198941
-0.195708
-0.192372
-0.188933
-0.185393
-0.181754
-0.178019
-0.174192
-0.170278
-0.166285
-0.162218
-0.158085
-0.153897
-0.149661
-0.145387
-0.141087
-0.136772
-0.132452
-0.128138
-0.123841
-0.11957
-0.11534
-0.111154
-0.107026
-0.102962
-0.098971
-0.0950585
-0.091231
-0.087493
-0.083849
-0.0803014
-0.0768532
-0.0735052
-0.0702584
-0.0671129
-0.0640669
-0.0611199
-0.05827
-0.055515
-0.0528524
-0.0502789
-0.0477913
-0.0453862
-0.0430601
-0.0408094
-0.0386306
-0.0365202
-0.0344755
-0.0324943
-0.0305721
-0.0287062
-0.0268947
-0.0251357
-0.0234271
-0.0217677
-0.0201564
-0.0185924
-0.0170753
-0.0156048
-0.0141811
-0.0128046
-0.0114761
-0.0101962
-0.00896682
-0.00778819
-0.00666438
-0.00559289
-0.00458593
-0.00362638
-0.00276098
-0.00190361
-0.00125585
-0.000408808
-0.000274224
0.00104395
-0.250954
-0.24834
-0.247932
-0.246628
-0.245444
-0.244115
-0.242702
-0.241197
-0.239606
-0.23793
-0.236171
-0.234329
-0.232403
-0.230395
-0.228303
-0.226125
-0.223859
-0.221523
-0.219089
-0.216567
-0.213955
-0.211247
-0.208439
-0.20553
-0.202516
-0.199399
-0.196175
-0.192844
-0.189407
-0.185864
-0.182219
-0.178473
-0.174632
-0.170698
-0.166683
-0.16259
-0.158428
-0.154208
-0.149938
-0.14563
-0.141292
-0.13694
-0.132584
-0.128235
-0.123905
-0.119604
-0.115343
-0.111133
-0.106983
-0.102902
-0.0988968
-0.0949754
-0.0911433
-0.0874054
-0.0837657
-0.0802268
-0.0767912
-0.0734595
-0.0702324
-0.0671093
-0.0640886
-0.0611687
-0.0583473
-0.0556217
-0.0529887
-0.0504448
-0.0479861
-0.0456088
-0.0433089
-0.0410825
-0.0389257
-0.0368349
-0.0348068
-0.0328387
-0.0309266
-0.0290678
-0.0272601
-0.0255016
-0.0237905
-0.0221255
-0.0205057
-0.0189305
-0.0173997
-0.0159134
-0.014472
-0.0130762
-0.011727
-0.0104254
-0.00917351
-0.00797201
-0.00682543
-0.00573131
-0.00470278
-0.00372237
-0.00283827
-0.0019643
-0.0013008
-0.00045019
-0.000287473
0.000967389
-0.251582
-0.248355
-0.248149
-0.246793
-0.245612
-0.244284
-0.242873
-0.241372
-0.239787
-0.238119
-0.23637
-0.23454
-0.232629
-0.230635
-0.228559
-0.2264
-0.224162
-0.221844
-0.219432
-0.216931
-0.214338
-0.211649
-0.20886
-0.205968
-0.20297
-0.199864
-0.196649
-0.193324
-0.189889
-0.186344
-0.182693
-0.178938
-0.175085
-0.171128
-0.167093
-0.162976
-0.158788
-0.154538
-0.150237
-0.145896
-0.141526
-0.13714
-0.13275
-0.128368
-0.124007
-0.119677
-0.11539
-0.111157
-0.106987
-0.102889
-0.0988723
-0.0949428
-0.0911067
-0.087369
-0.0837335
-0.0802028
-0.0767789
-0.0734624
-0.0702534
-0.0671509
-0.0641531
-0.0612578
-0.0584623
-0.0557633
-0.053157
-0.0506396
-0.0482066
-0.0458539
-0.0435771
-0.0413718
-0.039234
-0.0371597
-0.0351454
-0.0331879
-0.0312835
-0.0294296
-0.0276237
-0.025864
-0.0241488
-0.022477
-0.0208478
-0.0192608
-0.017716
-0.0162137
-0.0147547
-0.0133398
-0.0119704
-0.0106477
-0.00937437
-0.00815106
-0.00698291
-0.00586747
-0.00481874
-0.00381893
-0.00291748
-0.00202839
-0.00134998
-0.000497146
-0.000305416
0.000885692
-0.252324
-0.248298
-0.24837
-0.246951
-0.245775
-0.244451
-0.243043
-0.241548
-0.239971
-0.238312
-0.236574
-0.234757
-0.232859
-0.230884
-0.228828
-0.226677
-0.224475
-0.222168
-0.219778
-0.217298
-0.214725
-0.212055
-0.209286
-0.206407
-0.203419
-0.200327
-0.197121
-0.193802
-0.190369
-0.186824
-0.183168
-0.179404
-0.175537
-0.17157
-0.167515
-0.163375
-0.159162
-0.154885
-0.150555
-0.146184
-0.141783
-0.137366
-0.132945
-0.128534
-0.124144
-0.119788
-0.115478
-0.111223
-0.107036
-0.102924
-0.0988963
-0.0949598
-0.0911204
-0.0873832
-0.0837518
-0.0802288
-0.0768158
-0.0735132
-0.0703207
-0.0672371
-0.06426
-0.0613869
-0.0586146
-0.0559392
-0.0533566
-0.0508625
-0.0484521
-0.0461208
-0.0438638
-0.0416765
-0.0395545
-0.0374937
-0.0354904
-0.0335409
-0.031642
-0.0297907
-0.0279847
-0.0262221
-0.0245015
-0.0228217
-0.0211822
-0.0195828
-0.0180237
-0.0165054
-0.0150289
-0.0135953
-0.0122063
-0.0108635
-0.00956953
-0.00832553
-0.00713704
-0.00600162
-0.00493407
-0.0039163
-0.00299876
-0.00209597
-0.00140332
-0.000549448
-0.0003278
0.00080054
-0.252931
-0.248348
-0.24852
-0.247107
-0.245923
-0.244607
-0.243204
-0.241717
-0.240148
-0.2385
-0.236773
-0.23497
-0.233086
-0.231122
-0.229066
-0.226982
-0.224772
-0.222487
-0.220117
-0.217657
-0.215104
-0.212452
-0.209698
-0.206838
-0.203868
-0.200786
-0.197589
-0.194276
-0.190846
-0.1873
-0.18364
-0.179868
-0.175991
-0.172011
-0.167938
-0.163779
-0.159543
-0.155242
-0.150886
-0.146488
-0.14206
-0.137615
-0.133167
-0.12873
-0.124315
-0.119936
-0.115604
-0.111331
-0.107128
-0.103004
-0.0989672
-0.0950248
-0.0911831
-0.0874468
-0.0838196
-0.0803038
-0.0769009
-0.073611
-0.0704336
-0.0673668
-0.0644083
-0.0615549
-0.058803
-0.0561484
-0.0535865
-0.0511126
-0.0487215
-0.0464083
-0.0441679
-0.0419955
-0.0398863
-0.0378361
-0.0358409
-0.0338971
-0.0320012
-0.0301505
-0.0283426
-0.0265756
-0.0248481
-0.0231594
-0.0215089
-0.0198966
-0.0183229
-0.0167886
-0.0152949
-0.0138431
-0.0124352
-0.011073
-0.00975953
-0.00849599
-0.00728839
-0.00613433
-0.00504926
-0.00401493
-0.00308245
-0.00216727
-0.0014608
-0.000606881
-0.000354328
0.000713508
-0.253308
-0.248559
-0.248562
-0.247258
-0.246048
-0.24474
-0.243346
-0.241868
-0.24031
-0.238674
-0.236961
-0.235172
-0.233305
-0.231364
-0.229361
-0.227244
-0.225061
-0.222797
-0.220447
-0.218007
-0.215472
-0.212839
-0.210102
-0.207257
-0.204301
-0.20123
-0.198042
-0.194735
-0.191309
-0.187764
-0.184101
-0.180324
-0.176437
-0.172445
-0.168358
-0.164182
-0.159927
-0.155605
-0.151227
-0.146805
-0.142353
-0.137884
-0.133413
-0.128952
-0.124516
-0.120116
-0.115767
-0.111478
-0.107262
-0.103127
-0.0990831
-0.0951363
-0.091293
-0.0875581
-0.0839351
-0.0804262
-0.0770327
-0.0737544
-0.0705904
-0.0675387
-0.0645966
-0.0617604
-0.0590263
-0.0563895
-0.0538453
-0.0513884
-0.0490135
-0.0467153
-0.0444884
-0.0423277
-0.0402284
-0.038186
-0.0361964
-0.0342558
-0.0323608
-0.0305087
-0.0286971
-0.0269242
-0.0251889
-0.0234903
-0.0218281
-0.0202026
-0.0186142
-0.017064
-0.0155534
-0.014084
-0.012658
-0.0112773
-0.00994528
-0.00866335
-0.00743784
-0.00626641
-0.00516505
-0.00411547
-0.00316901
-0.0022426
-0.0015225
-0.000669245
-0.000384705
0.000626015
-0.25371
-0.248731
-0.248563
-0.247366
-0.246139
-0.244841
-0.243459
-0.241993
-0.240448
-0.238825
-0.237127
-0.235353
-0.233497
-0.231558
-0.229572
-0.227493
-0.225332
-0.223088
-0.220757
-0.218336
-0.21582
-0.213205
-0.210485
-0.207655
-0.204712
-0.201653
-0.198475
-0.195175
-0.191753
-0.188209
-0.184545
-0.180764
-0.176871
-0.17287
-0.16877
-0.16458
-0.16031
-0.15597
-0.151572
-0.147131
-0.142659
-0.13817
-0.133678
-0.129198
-0.124743
-0.120327
-0.115963
-0.111662
-0.107435
-0.103292
-0.0992421
-0.0952921
-0.0914482
-0.0877152
-0.0840965
-0.0805942
-0.0772093
-0.0739414
-0.0707894
-0.0677509
-0.0648229
-0.0620016
-0.0592826
-0.056661
-0.0541314
-0.0516886
-0.0493268
-0.0470405
-0.0448241
-0.0426722
-0.04058
-0.0385427
-0.0365561
-0.0346164
-0.0327204
-0.0308651
-0.0290483
-0.0272683
-0.0255241
-0.0238149
-0.0221406
-0.0205015
-0.0188985
-0.0173326
-0.0158056
-0.0143192
-0.0128757
-0.0114774
-0.0101279
-0.00882873
-0.00758646
-0.00639889
-0.00528234
-0.00421867
-0.003259
-0.00232234
-0.00158851
-0.00073635
-0.000418655
0.000539265
-0.254108
-0.248897
-0.248509
-0.24742
-0.246188
-0.244898
-0.243531
-0.242081
-0.240551
-0.238945
-0.237262
-0.235507
-0.233677
-0.231791
-0.229787
-0.22772
-0.225577
-0.223352
-0.22104
-0.218638
-0.216141
-0.213543
-0.210839
-0.208025
-0.205096
-0.202049
-0.19888
-0.195588
-0.192172
-0.188631
-0.184967
-0.181184
-0.177286
-0.173279
-0.16917
-0.164969
-0.160686
-0.156332
-0.151919
-0.147462
-0.142973
-0.138468
-0.13396
-0.129465
-0.124996
-0.120566
-0.11619
-0.111879
-0.107644
-0.103496
-0.0994416
-0.0954899
-0.0916464
-0.0879159
-0.0843016
-0.0808056
-0.0774285
-0.0741699
-0.0710284
-0.0680014
-0.0650855
-0.0622766
-0.0595701
-0.0569608
-0.0544432
-0.0520115
-0.0496599
-0.0473825
-0.0451737
-0.0430279
-0.0409401
-0.0389054
-0.0369196
-0.0349788
-0.0330798
-0.0312197
-0.0293964
-0.0276082
-0.0258542
-0.0241338
-0.022447
-0.0207943
-0.0191768
-0.0175956
-0.0160526
-0.0145498
-0.0130898
-0.0116748
-0.0103088
-0.00899341
-0.00773546
-0.00653285
-0.00540209
-0.00432534
-0.00335303
-0.00240688
-0.00165896
-0.000808007
-0.000455945
0.000454231
-0.254458
-0.249064
-0.248385
-0.247406
-0.246182
-0.2449
-0.243552
-0.242121
-0.24061
-0.239022
-0.237357
-0.235617
-0.233786
-0.231914
-0.22995
-0.227908
-0.225786
-0.223581
-0.221289
-0.218906
-0.216426
-0.213846
-0.211159
-0.20836
-0.205445
-0.20241
-0.199252
-0.195969
-0.192559
-0.189023
-0.185361
-0.181578
-0.177678
-0.173667
-0.169553
-0.165344
-0.161052
-0.156687
-0.152264
-0.147794
-0.143293
-0.138776
-0.134256
-0.129749
-0.125269
-0.120831
-0.116446
-0.112128
-0.107888
-0.103735
-0.0996794
-0.0957273
-0.0918853
-0.0881577
-0.084548
-0.0810578
-0.0776879
-0.0744376
-0.0713051
-0.0682877
-0.0653818
-0.0625832
-0.0598868
-0.0572872
-0.0547787
-0.0523554
-0.0500111
-0.04774
-0.045536
-0.0433937
-0.0413078
-0.0392735
-0.0372864
-0.0353427
-0.033439
-0.0315727
-0.0297417
-0.0279445
-0.02618
-0.024448
-0.0227485
-0.0210822
-0.0194503
-0.0178542
-0.0162958
-0.0147773
-0.0133015
-0.0118709
-0.0104893
-0.00915872
-0.00788607
-0.00666942
-0.00552526
-0.00443629
-0.00345168
-0.00249657
-0.00173397
-0.00088402
-0.000496379
0.000371647
-0.254711
-0.249226
-0.24818
-0.24731
-0.246107
-0.244835
-0.243508
-0.2421
-0.24061
-0.239044
-0.237401
-0.235686
-0.233899
-0.232023
-0.230075
-0.228053
-0.225951
-0.223766
-0.221494
-0.21913
-0.216669
-0.214106
-0.211436
-0.208653
-0.205752
-0.202731
-0.199584
-0.196311
-0.192909
-0.189379
-0.185722
-0.181942
-0.178042
-0.17403
-0.169913
-0.165701
-0.161403
-0.157033
-0.152602
-0.148125
-0.143616
-0.139091
-0.134563
-0.130049
-0.125562
-0.121117
-0.116728
-0.112406
-0.108163
-0.104009
-0.0999528
-0.0960018
-0.0921621
-0.0884381
-0.084833
-0.0813485
-0.077985
-0.0747418
-0.071617
-0.0686075
-0.0657097
-0.0629191
-0.0602303
-0.057638
-0.0551361
-0.0527185
-0.050379
-0.0481114
-0.0459099
-0.0437687
-0.0416825
-0.0396464
-0.0376561
-0.0357078
-0.0337981
-0.0319244
-0.0300847
-0.0282776
-0.0265022
-0.0247583
-0.0230461
-0.0213664
-0.0197204
-0.0181098
-0.0165366
-0.0150032
-0.0135125
-0.012067
-0.0106708
-0.00932594
-0.00803947
-0.00680966
-0.00565276
-0.00455224
-0.00355547
-0.00259173
-0.00181367
-0.000964172
-0.000539793
0.000292028
-0.254792
-0.249365
-0.247888
-0.247114
-0.245947
-0.244686
-0.243385
-0.242004
-0.24054
-0.238999
-0.237381
-0.235685
-0.23391
-0.232059
-0.230139
-0.228141
-0.226062
-0.223898
-0.221646
-0.219302
-0.216861
-0.214316
-0.211663
-0.208896
-0.206011
-0.203004
-0.19987
-0.196608
-0.193216
-0.189694
-0.186044
-0.182269
-0.178374
-0.174364
-0.170248
-0.166035
-0.161737
-0.157364
-0.152931
-0.148451
-0.143939
-0.139409
-0.134878
-0.130361
-0.125871
-0.121424
-0.117033
-0.11271
-0.108467
-0.104314
-0.100259
-0.0963108
-0.0924744
-0.0887544
-0.0851541
-0.0816749
-0.0783172
-0.07508
-0.0719615
-0.0689583
-0.0660667
-0.0632819
-0.0605987
-0.0580112
-0.0555134
-0.0530991
-0.0507619
-0.0484956
-0.0462942
-0.0441518
-0.0420633
-0.0400236
-0.0380285
-0.036074
-0.0341571
-0.032275
-0.0304259
-0.0286084
-0.0268217
-0.0250657
-0.0233408
-0.0216479
-0.0199883
-0.0183637
-0.0167764
-0.0152288
-0.0137239
-0.0122644
-0.0108545
-0.00949626
-0.00819675
-0.00695452
-0.0057854
-0.00467382
-0.00366485
-0.00269258
-0.00189811
-0.00104822
-0.000586037
0.000215693
-0.254611
-0.249441
-0.247501
-0.246796
-0.245681
-0.244438
-0.243165
-0.241817
-0.240385
-0.238874
-0.237284
-0.235615
-0.233856
-0.232031
-0.230138
-0.228165
-0.226109
-0.223968
-0.221738
-0.219414
-0.216993
-0.214467
-0.211833
-0.209084
-0.206215
-0.203222
-0.200103
-0.196854
-0.193474
-0.189963
-0.186323
-0.182556
-0.178668
-0.174664
-0.170553
-0.166345
-0.162049
-0.157679
-0.153248
-0.148769
-0.144258
-0.139729
-0.135199
-0.130683
-0.126194
-0.121748
-0.117359
-0.113038
-0.108797
-0.104647
-0.100596
-0.0966515
-0.0928193
-0.0891039
-0.0855084
-0.0820342
-0.0786816
-0.0754496
-0.072336
-0.0693376
-0.0664503
-0.0636694
-0.0609895
-0.0584047
-0.0559088
-0.0534954
-0.0511583
-0.048891
-0.0466876
-0.0445423
-0.0424496
-0.0404047
-0.0384032
-0.0364415
-0.0345162
-0.0326249
-0.0307658
-0.0289374
-0.0271393
-0.0253712
-0.0236338
-0.0219279
-0.0202551
-0.0186172
-0.0170164
-0.0154554
-0.0139371
-0.0124644
-0.0110415
-0.00967071
-0.00835881
-0.0071048
-0.00592379
-0.00480151
-0.00378012
-0.00279923
-0.00198729
-0.00113589
-0.000634963
0.000142811
-0.254077
-0.249386
-0.247005
-0.246335
-0.245286
-0.24407
-0.242831
-0.241521
-0.240126
-0.238651
-0.237094
-0.235455
-0.233714
-0.231909
-0.230051
-0.228109
-0.226081
-0.223965
-0.221758
-0.219458
-0.217057
-0.214552
-0.211937
-0.209207
-0.206356
-0.203381
-0.200278
-0.197044
-0.193679
-0.190181
-0.186553
-0.182798
-0.178921
-0.174927
-0.170825
-0.166625
-0.162337
-0.157974
-0.153549
-0.149076
-0.144571
-0.140048
-0.135523
-0.131012
-0.126528
-0.122088
-0.117703
-0.113387
-0.109152
-0.105007
-0.100961
-0.0970212
-0.0931942
-0.0894839
-0.0858932
-0.0824238
-0.0790757
-0.0758477
-0.0727378
-0.0697427
-0.0668581
-0.0640793
-0.0614007
-0.0588165
-0.0563203
-0.0539059
-0.0515667
-0.0492966
-0.0470893
-0.0449391
-0.0428407
-0.0407891
-0.0387801
-0.03681
-0.0348756
-0.0329745
-0.0311048
-0.0292654
-0.0274556
-0.0256756
-0.0239259
-0.0222075
-0.020522
-0.0188713
-0.0172578
-0.015684
-0.0141531
-0.012668
-0.0112328
-0.0098501
-0.00852638
-0.00726107
-0.00606841
-0.0049356
-0.00390143
-0.00291164
-0.00208114
-0.00122686
-0.000686405
7.34322e-05
-0.253109
-0.249107
-0.246378
-0.245711
-0.244735
-0.243559
-0.242362
-0.241098
-0.239747
-0.238314
-0.236798
-0.235201
-0.233517
-0.231712
-0.229877
-0.227966
-0.225967
-0.223879
-0.221699
-0.219423
-0.217046
-0.214563
-0.21197
-0.209261
-0.20643
-0.203474
-0.20039
-0.197174
-0.193825
-0.190344
-0.186733
-0.182993
-0.17913
-0.17515
-0.171061
-0.166874
-0.162598
-0.158247
-0.153833
-0.149371
-0.144876
-0.140364
-0.135848
-0.131346
-0.126872
-0.122439
-0.118063
-0.113755
-0.109527
-0.105389
-0.10135
-0.0974174
-0.0935963
-0.0898915
-0.0863059
-0.0828408
-0.0794966
-0.0762719
-0.0731645
-0.0701712
-0.0672877
-0.0645092
-0.0618302
-0.0592446
-0.0567463
-0.0543289
-0.0519859
-0.049711
-0.0474982
-0.0453416
-0.043236
-0.0411766
-0.039159
-0.0371796
-0.0352354
-0.0333239
-0.0314434
-0.0295928
-0.0277716
-0.0259798
-0.024218
-0.0224876
-0.0207899
-0.019127
-0.0175014
-0.0159156
-0.0143727
-0.0128759
-0.0114291
-0.010035
-0.00869995
-0.00742371
-0.0062195
-0.00507622
-0.00402881
-0.00302967
-0.0021795
-0.00132076
-0.000740174
7.53092e-06
-0.251656
-0.248493
-0.245583
-0.244901
-0.244
-0.242882
-0.241737
-0.240527
-0.239229
-0.237846
-0.236377
-0.234819
-0.233156
-0.231357
-0.229579
-0.227717
-0.225756
-0.223701
-0.22155
-0.219301
-0.21695
-0.214493
-0.211924
-0.209238
-0.20643
-0.203496
-0.200433
-0.197238
-0.19391
-0.190449
-0.186856
-0.183136
-0.179291
-0.17533
-0.171259
-0.167089
-0.16283
-0.158495
-0.154098
-0.149652
-0.145172
-0.140673
-0.136172
-0.131683
-0.127221
-0.122802
-0.118437
-0.11414
-0.109922
-0.105793
-0.101762
-0.0978371
-0.0940229
-0.090324
-0.0867435
-0.0832826
-0.0799416
-0.0767193
-0.0736134
-0.0706207
-0.0677369
-0.0649571
-0.0622759
-0.0596873
-0.0571851
-0.054763
-0.0524144
-0.0501332
-0.0479134
-0.0457491
-0.0436352
-0.0415668
-0.0395398
-0.0375504
-0.0355959
-0.0336736
-0.0317821
-0.0299203
-0.0280876
-0.0262843
-0.0245109
-0.0227688
-0.0210595
-0.0193851
-0.0177479
-0.0161507
-0.0145966
-0.0130887
-0.0116308
-0.0102259
-0.00887979
-0.00759289
-0.00637712
-0.00522329
-0.0041621
-0.00315302
-0.00228213
-0.0014172
-0.000796046
-5.4965e-05
-0.249698
-0.247433
-0.244577
-0.243881
-0.243055
-0.242014
-0.240936
-0.23979
-0.238554
-0.23723
-0.235816
-0.234312
-0.232717
-0.231014
-0.229199
-0.227362
-0.22544
-0.223422
-0.221304
-0.219086
-0.216764
-0.214335
-0.211793
-0.209133
-0.206351
-0.203442
-0.200403
-0.197233
-0.193929
-0.190491
-0.186922
-0.183225
-0.179403
-0.175465
-0.171416
-0.167268
-0.163031
-0.158718
-0.154341
-0.149915
-0.145455
-0.140976
-0.136493
-0.132021
-0.127576
-0.123172
-0.118822
-0.114538
-0.110332
-0.106215
-0.102194
-0.0982779
-0.0944712
-0.0907787
-0.0872033
-0.0837465
-0.0804082
-0.0771875
-0.0740821
-0.0710887
-0.0682032
-0.0654208
-0.0627359
-0.0601428
-0.0576351
-0.0552067
-0.0528512
-0.0505623
-0.0483342
-0.046161
-0.0440377
-0.0419595
-0.0399223
-0.0379225
-0.0359571
-0.0340239
-0.0321213
-0.0302482
-0.0284043
-0.0265897
-0.0248051
-0.0230518
-0.0213314
-0.019646
-0.0179979
-0.0163899
-0.0148251
-0.0133066
-0.0118382
-0.0104228
-0.00906595
-0.00776855
-0.00654112
-0.00537655
-0.00430101
-0.00328128
-0.00238868
-0.00151574
-0.000853766
-0.000114148
-0.247255
-0.245851
-0.243306
-0.242625
-0.241877
-0.240933
-0.239938
-0.238869
-0.237707
-0.236452
-0.235103
-0.233659
-0.232114
-0.230438
-0.228604
-0.226858
-0.225
-0.22303
-0.220953
-0.21877
-0.216481
-0.214083
-0.211573
-0.208943
-0.206189
-0.203309
-0.200299
-0.197156
-0.19388
-0.19047
-0.186929
-0.183259
-0.179465
-0.175553
-0.171532
-0.167411
-0.163201
-0.158913
-0.154562
-0.150161
-0.145725
-0.141269
-0.136809
-0.132359
-0.127934
-0.123548
-0.119215
-0.114948
-0.110757
-0.106653
-0.102644
-0.0987369
-0.0949386
-0.091253
-0.0876828
-0.0842297
-0.0808938
-0.077674
-0.0745682
-0.0715731
-0.0686848
-0.0658983
-0.0632085
-0.0606094
-0.0580949
-0.0556589
-0.0532951
-0.0509974
-0.0487598
-0.0465768
-0.0444432
-0.0423545
-0.0403065
-0.0382957
-0.0363193
-0.034375
-0.0324612
-0.030577
-0.028722
-0.0268965
-0.025101
-0.023337
-0.021606
-0.0199101
-0.0182517
-0.0166335
-0.0150585
-0.0135299
-0.0120512
-0.0106258
-0.00925827
-0.00795045
-0.00671119
-0.00553561
-0.00444512
-0.00341394
-0.00249876
-0.00161591
-0.000913057
-0.000170112
-0.244369
-0.243728
-0.241719
-0.241103
-0.240448
-0.239624
-0.23873
-0.237752
-0.236675
-0.2355
-0.234226
-0.232852
-0.231377
-0.229798
-0.228122
-0.226265
-0.22444
-0.222523
-0.220491
-0.218349
-0.216098
-0.213735
-0.211259
-0.208664
-0.205943
-0.203095
-0.200117
-0.197007
-0.193762
-0.190384
-0.186875
-0.183237
-0.179475
-0.175595
-0.171606
-0.167516
-0.163337
-0.159081
-0.15476
-0.150388
-0.145981
-0.141553
-0.137119
-0.132693
-0.128292
-0.123929
-0.119616
-0.115367
-0.111193
-0.107104
-0.103107
-0.0992118
-0.0954226
-0.0917441
-0.0881794
-0.0847299
-0.0813959
-0.0781764
-0.0750694
-0.0720717
-0.0691795
-0.066388
-0.0636919
-0.0610857
-0.0585633
-0.0561185
-0.0537453
-0.0514377
-0.0491897
-0.046996
-0.0448515
-0.0427517
-0.0406924
-0.0386703
-0.0366826
-0.0347271
-0.0328022
-0.030907
-0.0290412
-0.027205
-0.0253991
-0.0236247
-0.0218836
-0.0201777
-0.0185094
-0.0168815
-0.0152967
-0.0137584
-0.0122699
-0.0108345
-0.00945646
-0.00813818
-0.00688687
-0.00569993
-0.00459391
-0.00355042
-0.00261191
-0.00171722
-0.000973629
-0.00022294
-0.241134
-0.239779
-0.239291
-0.238757
-0.238077
-0.237304
-0.236431
-0.235453
-0.234369
-0.233181
-0.231886
-0.230484
-0.228962
-0.227294
-0.225485
-0.223739
-0.22189
-0.219914
-0.21782
-0.21561
-0.213289
-0.210852
-0.208295
-0.205611
-0.2028
-0.199859
-0.196784
-0.193576
-0.190235
-0.186761
-0.18316
-0.179434
-0.175591
-0.171638
-0.167585
-0.163442
-0.159221
-0.154935
-0.150597
-0.146222
-0.141826
-0.137422
-0.133025
-0.128651
-0.124312
-0.120023
-0.115795
-0.111639
-0.107566
-0.103584
-0.0997003
-0.0959208
-0.09225
-0.0886907
-0.0852447
-0.0819123
-0.0786927
-0.0755838
-0.0725827
-0.0696857
-0.0668881
-0.0641849
-0.0615705
-0.059039
-0.0565846
-0.054201
-0.0518826
-0.0496235
-0.0474184
-0.0452624
-0.0431509
-0.04108
-0.0390463
-0.0370472
-0.0350804
-0.0331445
-0.0312385
-0.029362
-0.0275155
-0.0256994
-0.0239151
-0.0221642
-0.0204488
-0.018771
-0.0171337
-0.0155396
-0.0139919
-0.0124937
-0.0110485
-0.00966
-0.00833118
-0.00706758
-0.00586885
-0.00474677
-0.00369004
-0.0027276
-0.00181918
-0.00103518
-0.00027269
-0.238154
-0.237474
-0.237174
-0.236802
-0.236289
-0.235656
-0.234905
-0.234039
-0.233058
-0.231965
-0.230759
-0.22944
-0.228004
-0.226455
-0.224786
-0.222925
-0.221128
-0.219219
-0.217181
-0.21502
-0.212744
-0.210352
-0.207837
-0.205196
-0.202426
-0.199525
-0.196491
-0.193323
-0.190022
-0.18659
-0.183029
-0.179345
-0.175543
-0.171631
-0.167618
-0.163516
-0.159334
-0.155087
-0.150787
-0.146449
-0.142088
-0.137718
-0.133353
-0.129008
-0.124697
-0.120433
-0.116228
-0.112093
-0.108037
-0.104071
-0.1002
-0.0964306
-0.0927677
-0.0892141
-0.0857715
-0.0824404
-0.0792201
-0.0761088
-0.0731037
-0.070201
-0.0673966
-0.0646853
-0.0620619
-0.0595205
-0.0570555
-0.0546609
-0.0523309
-0.0500601
-0.047843
-0.0456749
-0.0435515
-0.0414687
-0.0394233
-0.0374127
-0.0354346
-0.0334877
-0.031571
-0.0296842
-0.0278275
-0.0260016
-0.0242078
-0.0224476
-0.0207229
-0.0190361
-0.0173898
-0.0157865
-0.0142297
-0.0127219
-0.0112671
-0.0098681
-0.00852861
-0.00725246
-0.00604152
-0.0049029
-0.00383201
-0.00284524
-0.00192122
-0.0010974
-0.000319363
-0.234906
-0.234834
-0.23476
-0.234586
-0.234263
-0.233788
-0.233175
-0.232432
-0.231565
-0.230577
-0.22947
-0.228244
-0.226896
-0.225417
-0.223785
-0.222019
-0.220259
-0.218412
-0.216437
-0.214328
-0.212101
-0.209758
-0.207291
-0.204696
-0.201972
-0.199116
-0.196127
-0.193004
-0.189748
-0.186361
-0.182845
-0.179206
-0.175449
-0.171582
-0.167614
-0.163556
-0.159418
-0.155213
-0.150955
-0.146658
-0.142335
-0.138001
-0.133671
-0.129358
-0.125077
-0.120841
-0.11666
-0.112547
-0.108511
-0.104561
-0.100704
-0.0969457
-0.0932912
-0.0897435
-0.0863045
-0.0829747
-0.0797536
-0.0766396
-0.07363
-0.0707214
-0.0679096
-0.0651898
-0.0625567
-0.060005
-0.0575289
-0.0551227
-0.0527807
-0.0504977
-0.0482684
-0.046088
-0.0439523
-0.0418575
-0.0398004
-0.0377783
-0.0357891
-0.0338313
-0.0319042
-0.0300073
-0.0281408
-0.0263054
-0.0245024
-0.0227331
-0.0209997
-0.0193041
-0.017649
-0.0160369
-0.0144711
-0.012954
-0.0114896
-0.01008
-0.00872972
-0.00744076
-0.00621715
-0.00506159
-0.00397564
-0.00296427
-0.00202286
-0.00115996
-0.000362896
-0.231534
-0.231946
-0.232114
-0.232166
-0.232048
-0.231747
-0.231282
-0.23067
-0.229921
-0.229042
-0.228036
-0.226904
-0.225643
-0.224252
-0.22273
-0.221067
-0.219246
-0.217467
-0.215572
-0.21353
-0.211363
-0.209076
-0.206663
-0.204119
-0.201445
-0.198639
-0.195699
-0.192625
-0.189418
-0.18608
-0.182613