/*--------------------------------*- C++ -*----------------------------------*\
  =========                 |
  \\      /  F ield         | OpenFOAM: The Open Source CFD Toolbox
   \\    /   O peration     | Website:  https://openfoam.org
    \\  /    A nd           | Version:  7
     \\/     M anipulation  |
\*---------------------------------------------------------------------------*/
FoamFile
{
    version     2.0;
    format      ascii;
    class       surfaceScalarField;
    location    "55";
    object      phi;
}
// * * * * * * * * * * * * * * * * * * * * * * * * * * * * * * * * * * * * * //

dimensions      [0 3 -1 0 0 0 0];

internalField   nonuniform List<scalar> 
11835
(
-0.000553169
3.19897e-05
-0.000587627
3.26053e-05
-0.000623091
3.37082e-05
-0.000660133
3.54368e-05
3.80415e-05
-0.000699564
-0.000544916
6.48197e-05
-0.000578126
6.58152e-05
-0.000612142
6.77241e-05
-0.000647533
7.08275e-05
7.56276e-05
-0.000685119
-0.000528346
-0.000559072
9.6541e-05
-0.0005902
9.88528e-05
-0.000622293
0.00010292
0.000109516
-0.000656182
-0.000530569
0.000123574
-0.000557397
0.00012568
-0.000584561
0.000130084
0.000137833
-0.000612878
-0.000492755
0.000145748
-0.000513903
0.000146829
-0.000534539
0.00015072
0.000158671
-0.000555377
-0.000445758
0.000161944
-0.0004599
0.00016097
-0.000472453
0.000163273
0.000170081
-0.000483862
-0.000389663
0.000171089
-0.000395519
0.000166826
-0.000398504
0.000166258
0.000170095
-0.000398518
-0.000324447
0.000172145
-0.000320784
0.000163163
-0.00031279
0.000158264
0.000156817
-0.000299511
-0.000249924
0.000164064
-0.000235519
0.000148757
-0.00021517
0.000137915
0.000128694
-0.000187048
-0.000165701
0.000145737
-0.000139318
0.000122375
-0.000104852
0.000103449
8.56652e-05
-6.18229e-05
-7.10808e-05
-3.19316e-05
8.3226e-05
2.00413e-05
5.1476e-05
2.60697e-05
7.96367e-05
8.89901e-05
2.91426e-05
0.000156089
-1.56225e-05
-5.68878e-05
0.000239046
0.000224041
-4.19164e-05
0.000309361
-0.000100943
-0.000163305
0.000415778
0.000374551
-0.000132083
0.000480468
-0.00020686
-0.000294902
0.000612066
0.000541927
0.000670893
-0.000335826
-0.000453687
0.000829677
0.000881798
-0.000490457
-0.000641646
0.00106976
0.00111356
-0.000673242
-0.000860353
0.00133227
0.0013654
-0.00111039
0.00161544
-0.00139066
0.00191525
-0.00169772
0.0022251
0.00253586
-0.000723284
2.22081e-05
-0.000742197
1.84229e-05
-0.000759959
1.84829e-05
-0.000775577
1.77845e-05
-0.000789561
1.78013e-05
-0.000801945
1.80574e-05
-0.000812848
1.86046e-05
-0.000822343
1.93763e-05
-0.000830511
2.02994e-05
-0.0008374
2.13264e-05
-0.000843051
2.23686e-05
-0.000847513
2.33342e-05
-0.000850833
2.41318e-05
-0.000853043
2.47123e-05
-0.000854171
2.50083e-05
-0.000854241
2.49587e-05
-0.000853272
2.44988e-05
-0.000851281
2.35702e-05
-0.000848281
2.21199e-05
-0.000844283
2.01048e-05
-0.000839297
1.74936e-05
-0.000833333
1.42694e-05
-0.000826396
1.04213e-05
-0.000818493
5.9462e-06
-0.000809608
8.45266e-07
-0.000799794
-4.72963e-06
-0.000789024
-1.08527e-05
-0.000777305
-1.74142e-05
-0.000764633
-2.43236e-05
-0.000751035
-3.15093e-05
-0.000736513
-3.88386e-05
-0.000721062
-4.61941e-05
-0.000704707
-5.34805e-05
-0.000687455
-6.055e-05
-0.000669318
-6.72684e-05
-0.000650311
-7.35115e-05
-0.000630447
-7.91551e-05
-0.000609743
-8.40824e-05
-0.000588221
-8.81921e-05
-0.000565898
-9.13806e-05
-0.000542797
-9.3567e-05
-0.000518946
-9.46888e-05
-0.000494367
-9.46869e-05
-0.000469088
-9.35306e-05
-0.000443136
-9.12081e-05
-0.000416539
-8.77235e-05
-0.00038932
-8.31129e-05
-0.000361534
-7.74614e-05
-0.000333205
-7.07991e-05
-0.000304361
-6.32123e-05
-0.000275047
-5.48293e-05
-0.000245307
-4.57672e-05
-0.00021517
-3.61468e-05
-0.000184678
-2.61142e-05
-0.000153875
-1.58232e-05
-0.000122783
-5.45205e-06
-9.14631e-05
4.89981e-06
-5.99481e-05
1.50328e-05
-2.82703e-05
2.47835e-05
3.53707e-06
3.40209e-05
3.54198e-05
4.26345e-05
6.73535e-05
5.04506e-05
9.93079e-05
5.73629e-05
0.000131253
6.32714e-05
0.000163154
6.81182e-05
0.000194982
7.18148e-05
0.000226712
7.43065e-05
0.000258319
7.55636e-05
0.000289781
7.55728e-05
0.000321074
7.43383e-05
0.000352178
7.18812e-05
0.000383073
6.82382e-05
0.000413744
6.34594e-05
0.000444163
5.76434e-05
0.000474316
5.0844e-05
0.000504188
4.31572e-05
0.000533767
3.46859e-05
0.00056303
2.55654e-05
0.000591965
1.59012e-05
0.000620565
5.80773e-06
0.00064881
-4.55672e-06
0.000676695
-1.50827e-05
0.000704209
-2.56345e-05
0.000731349
-3.60744e-05
0.000758107
-4.62785e-05
0.000784482
-5.61204e-05
0.000810472
-6.54767e-05
0.000836083
-7.42306e-05
0.000861317
-8.22718e-05
0.000886184
-8.94896e-05
0.000910693
-9.57789e-05
0.00093486
-0.000101038
0.000958698
-0.000105165
0.000982235
-0.000108037
0.00100548
-0.000109573
0.00102848
-0.000109517
0.0010513
-0.000108017
0.00107383
-0.000103916
0.00109658
-9.95033e-05
-8.66364e-05
-0.000708516
4.56047e-05
-0.000726999
3.69063e-05
-0.000744415
3.58993e-05
-0.000759707
3.30763e-05
-0.000773375
3.14693e-05
-0.000785456
3.01384e-05
-0.000796063
2.92116e-05
-0.000805274
2.85875e-05
-0.000813161
2.8186e-05
-0.000819774
2.79398e-05
-0.00082516
2.77545e-05
-0.000829362
2.75361e-05
-0.000832424
2.71933e-05
-0.000834377
2.6666e-05
-0.000835252
2.58827e-05
-0.000835072
2.47789e-05
-0.000833858
2.32851e-05
-0.000831628
2.13399e-05
-0.000828395
1.88868e-05
-0.000824169
1.58795e-05
-0.000818964
1.22884e-05
-0.000812799
8.10375e-06
-0.000805646
3.26819e-06
-0.000797535
-2.16437e-06
-0.000788535
-8.15451e-06
-0.000778553
-1.47115e-05
-0.000767636
-2.17702e-05
-0.000755789
-2.9261e-05
-0.000743016
-3.70966e-05
-0.000729332
-4.51931e-05
-0.000714745
-5.34261e-05
-0.000699258
-6.16805e-05
-0.000682892
-6.98471e-05
-0.000665655
-7.77871e-05
-0.000647561
-8.53619e-05
-0.000628626
-9.24464e-05
-0.000608865
-9.89165e-05
-0.000588293
-0.000104654
-0.000566932
-0.000109553
-0.000544799
-0.000113513
-0.000521916
-0.000116451
-0.000498306
-0.000118298
-0.000473992
-0.000119001
-0.000448997
-0.000118525
-0.000423346
-0.000116859
-0.000397062
-0.000114008
-0.000370172
-0.000110003
-0.000342712
-0.000104921
-0.000314709
-9.88017e-05
-0.00028619
-9.17317e-05
-0.00025719
-8.38296e-05
-0.000227743
-7.52133e-05
-0.000197882
-6.60087e-05
-0.000167637
-5.63583e-05
-0.000137049
-4.6412e-05
-0.000106162
-3.63386e-05
-7.49927e-05
-2.62697e-05
-4.35817e-05
-1.63782e-05
-1.19647e-05
-6.83346e-06
1.98316e-05
2.22452e-06
5.17389e-05
1.07273e-05
8.37472e-05
1.84423e-05
0.000115823
2.52868e-05
0.000147942
3.11528e-05
0.000180053
3.60075e-05
0.000212129
3.97386e-05
0.000244144
4.22909e-05
0.000276071
4.36375e-05
0.000307878
4.37648e-05
0.00033954
4.26763e-05
0.000371029
4.03922e-05
0.00040232
3.69478e-05
0.000433396
3.2383e-05
0.000464212
2.68272e-05
0.000494754
2.03023e-05
0.000524999
1.2912e-05
0.000554936
4.74928e-06
0.000584527
-4.02585e-06
0.000613759
-1.3331e-05
0.000642611
-2.3044e-05
0.000671075
-3.30205e-05
0.000699131
-4.31389e-05
0.000726767
-5.32702e-05
0.000753974
-6.3282e-05
0.000780746
-7.30499e-05
0.000807077
-8.24516e-05
0.000832967
-9.13668e-05
0.000858419
-9.96826e-05
0.000883437
-0.00010729
0.000908032
-0.000114085
0.000932215
-0.000119962
0.000956006
-0.000124829
0.00097942
-0.000128578
0.00100249
-0.000131108
0.00102524
-0.000132323
0.00104771
-0.000131985
0.00106998
-0.00013029
0.00109197
-0.000125901
0.00111421
-0.000121745
-0.000108333
-0.000678963
6.83858e-05
-0.000696624
5.45679e-05
-0.000713392
5.26666e-05
-0.000728077
4.77621e-05
-0.000741166
4.45581e-05
-0.000752698
4.16698e-05
-0.000762774
3.92885e-05
-0.000771474
3.72874e-05
-0.000778865
3.55763e-05
-0.000784996
3.40715e-05
-0.000789915
3.26728e-05
-0.00079366
3.12818e-05
-0.000796273
2.98061e-05
-0.000797785
2.81784e-05
-0.000798226
2.63233e-05
-0.000797621
2.41738e-05
-0.000795991
2.16553e-05
-0.000793354
1.87029e-05
-0.000789724
1.52563e-05
-0.000785111
1.12665e-05
-0.000779549
6.72628e-06
-0.000772969
1.52394e-06
-0.000765513
-4.18739e-06
-0.000757125
-1.05524e-05
-0.000747779
-1.75005e-05
-0.000737511
-2.49797e-05
-0.000726323
-3.29581e-05
-0.000714227
-4.13572e-05
-0.00070123
-5.0093e-05
-0.000687349
-5.90749e-05
-0.00067259
-6.81845e-05
-0.000656965
-7.7306e-05
-0.000640489
-8.63225e-05
-0.000623175
-9.51011e-05
-0.000605039
-0.000103498
-0.000586097
-0.000111388
-0.000566365
-0.000118649
-0.000545859
-0.00012516
-0.000524599
-0.000130813
-0.000502604
-0.000135509
-0.000479892
-0.000139163
-0.000456486
-0.000141705
-0.000432406
-0.000143081
-0.000407673
-0.000143259
-0.000382308
-0.000142224
-0.000356332
-0.000139984
-0.00032977
-0.000136565
-0.000302649
-0.000132042
-0.000274992
-0.000126458
-0.000246823
-0.000119901
-0.000218173
-0.00011248
-0.000189068
-0.000104318
-0.000159535
-9.55411e-05
-0.000129605
-8.62891e-05
-9.93102e-05
-7.67064e-05
-6.86795e-05
-6.69693e-05
-3.77466e-05
-5.72026e-05
-6.54083e-06
-4.7584e-05
2.4905e-05
-3.82793e-05
5.65421e-05
-2.94126e-05
8.83707e-05
-2.11013e-05
0.000120332
-1.35192e-05
0.000152393
-6.7741e-06
0.000184555
-1.00922e-06
0.000216723
3.83984e-06
0.000248895
7.56637e-06
0.000281039
1.0147e-05
0.000313121
1.15555e-05
0.000345108
1.17781e-05
0.000376966
1.08177e-05
0.000408664
8.69445e-06
0.000440168
5.44357e-06
0.000471473
1.07822e-06
0.000502501
-4.20026e-06
0.000533248
-1.04453e-05
0.000563686
-1.75262e-05
0.000593776
-2.53407e-05
0.00062351
-3.3759e-05
0.000652853
-4.26748e-05
0.000681781
-5.1972e-05
0.000710277
-6.15159e-05
0.000738321
-7.11829e-05
0.000765897
-8.08464e-05
0.000792994
-9.0379e-05
0.000819602
-9.96584e-05
0.000845717
-0.000108566
0.000871336
-0.000116986
0.000896462
-0.000124808
0.0009211
-0.000131928
0.000945262
-0.000138247
0.000968961
-0.000143661
0.000992219
-0.000148088
0.00101506
-0.000151417
0.00103751
-0.000153562
0.00105962
-0.000154427
0.00108141
-0.000153776
0.001103
-0.000151883
0.00112429
-0.000147196
0.00114587
-0.000143321
-0.000129488
-0.000634763
9.02701e-05
-0.000651241
7.10462e-05
-0.000667075
6.85006e-05
-0.000680895
6.15823e-05
-0.00069316
5.68226e-05
-0.000703912
5.24227e-05
-0.000713242
4.86179e-05
-0.000721223
4.52682e-05
-0.000727918
4.22713e-05
-0.000733377
3.95305e-05
-0.000737642
3.69382e-05
-0.000740752
3.43916e-05
-0.000742742
3.1796e-05
-0.000743644
2.90803e-05
-0.000743486
2.61654e-05
-0.000742295
2.29829e-05
-0.000740092
1.94524e-05
-0.000736895
1.55064e-05
-0.000732716
1.10773e-05
-0.000727598
6.14774e-06
-0.000721429
5.57828e-07
-0.000714478
-5.42772e-06
-0.000706539
-1.21256e-05
-0.000697677
-1.94144e-05
-0.000687901
-2.72769e-05
-0.000677219
-3.56615e-05
-0.000665645
-4.45328e-05
-0.000653188
-5.38134e-05
-0.000639861
-6.342e-05
-0.000625679
-7.32575e-05
-0.000610652
-8.32111e-05
-0.000594794
-9.31639e-05
-0.000578122
-0.000102994
-0.000560648
-0.000112575
-0.000542392
-0.000121754
-0.00052337
-0.00013041
-0.0005036
-0.000138419
-0.000483098
-0.000145661
-0.000461885
-0.000152027
-0.000439977
-0.000157417
-0.000417393
-0.000161746
-0.000394155
-0.000164943
-0.00037028
-0.000166956
-0.000345787
-0.000167752
-0.000320694
-0.000167316
-0.000295019
-0.000165659
-0.000268786
-0.000162798
-0.000242013
-0.000158815
-0.000214721
-0.00015375
-0.000186929
-0.000147693
-0.000158663
-0.000140746
-0.000129944
-0.000133037
-0.000100794
-0.000124691
-7.12379e-05
-0.000115845
-4.13087e-05
-0.000106636
-1.10289e-05
-9.7249e-05
1.9588e-05
-8.78196e-05
5.05018e-05
-7.84977e-05
8.16751e-05
-6.94526e-05
0.000113077
-6.08143e-05
0.000144691
-5.2715e-05
0.000176476
-4.53044e-05
0.0002084
-3.86981e-05
0.000240389
-3.29988e-05
0.000272479
-2.82503e-05
0.0003046
-2.45545e-05
0.000336715
-2.19681e-05
0.000368789
-2.05183e-05
0.000400786
-2.02183e-05
0.000432668
-2.1065e-05
0.000464401
-2.30384e-05
0.000495948
-2.61036e-05
0.000527249
-3.02222e-05
0.000558316
-3.5268e-05
0.000589087
-4.12164e-05
0.000619529
-4.79679e-05
0.000649606
-5.54177e-05
0.000679293
-6.3446e-05
0.000708561
-7.19428e-05
0.00073738
-8.07911e-05
0.000765727
-8.98628e-05
0.000793581
-9.90363e-05
0.000820922
-0.000108188
0.000847736
-0.000117194
0.000874014
-0.000125936
0.000899747
-0.0001343
0.000924934
-0.000142173
0.000949577
-0.000149452
0.000973683
-0.000156033
0.000997263
-0.000161827
0.00102033
-0.000166732
0.00104292
-0.000170673
0.00106505
-0.000173543
0.00108675
-0.000175266
0.00110808
-0.000175756
0.00112906
-0.000174762
0.00114985
-0.00017267
0.00117033
-0.000167673
0.0011911
-0.000164089
-0.000149971
-0.000576085
0.000110978
-0.000591072
8.60333e-05
-0.000605716
8.31446e-05
-0.000618441
7.43068e-05
-0.000629664
6.80458e-05
-0.000639436
6.2195e-05
-0.000647827
5.70092e-05
-0.000654908
5.23485e-05
-0.000660734
4.80978e-05
-0.000665354
4.41501e-05
-0.000668806
4.039e-05
-0.000671124
3.67098e-05
-0.00067234
3.30124e-05
-0.000672486
2.92256e-05
-0.000671587
2.52667e-05
-0.000669672
2.10679e-05
-0.000666761
1.65415e-05
-0.000662866
1.16117e-05
-0.000658051
6.2621e-06
-0.000652151
2.47733e-07
-0.000645552
-6.04107e-06
-0.000637924
-1.30559e-05
-0.000629403
-2.0647e-05
-0.000619976
-2.88412e-05
-0.000609657
-3.75959e-05
-0.000598462
-4.68568e-05
-0.000586402
-5.65921e-05
-0.000573492
-6.67236e-05
-0.000559744
-7.71678e-05
-0.000545175
-8.78269e-05
-0.000529798
-9.85877e-05
-0.00051363
-0.000109333
-0.000496687
-0.000119937
-0.000478983
-0.00013028
-0.00046054
-0.000140197
-0.000441378
-0.000149572
-0.000421513
-0.000158284
-0.000400964
-0.00016621
-0.00037975
-0.000173242
-0.000357888
-0.000179278
-0.000335397
-0.000184238
-0.000312295
-0.000188045
-0.000288601
-0.00019065
-0.00026433
-0.000192022
-0.000239498
-0.000192148
-0.000214121
-0.000191037
-0.000188219
-0.0001887
-0.000161805
-0.000185229
-0.000134896
-0.000180659
-0.000107506
-0.000175083
-7.96593e-05
-0.000168593
-5.13718e-05
-0.000161324
-2.26623e-05
-0.0001534
6.44688e-06
-0.000144955
3.59671e-05
-0.000136156
6.58364e-05
-0.000127118
9.60382e-05
-0.000118021
0.000126552
-0.000109011
0.000157347
-0.000100248
0.000188396
-9.18633e-05
0.000219675
-8.39938e-05
0.000251148
-7.67776e-05
0.000282779
-7.03291e-05
0.00031453
-6.47494e-05
0.000346375
-6.00958e-05
0.000378278
-5.64571e-05
0.000410196
-5.38862e-05
0.00044209
-5.24125e-05
0.000473921
-5.20494e-05
0.000505649
-5.27929e-05
0.000537234
-5.46227e-05
0.000568633
-5.75032e-05
0.000599797
-6.13861e-05
0.000630705
-6.61763e-05
0.00066131
-7.18209e-05
0.00069157
-7.82279e-05
0.000721447
-8.52951e-05
0.000750909
-9.29075e-05
0.000779922
-0.000100956
0.000808454
-0.000109324
0.000836479
-0.000117888
0.000863972
-0.000126529
0.000890912
-0.000135128
0.000917283
-0.000143565
0.000943072
-0.000151725
0.000968272
-0.000159499
0.00099288
-0.00016678
0.0010169
-0.00017347
0.00104033
-0.000179469
0.0010632
-0.000184693
0.00108551
-0.000189047
0.0011073
-0.000192463
0.0011286
-0.000194839
0.00114944
-0.000196105
0.00116988
-0.000196198
0.00118995
-0.000194831
0.00120983
-0.000192544
0.00122938
-0.000187226
0.00124922
-0.000183927
-0.000169664
-0.000503087
0.000130203
-0.000516367
9.93134e-05
-0.000529597
9.63747e-05
-0.000541036
8.57459e-05
-0.00055104
7.80493e-05
-0.000559666
7.0821e-05
-0.000566964
6.43078e-05
-0.000572998
5.83821e-05
-0.000577817
5.29169e-05
-0.000581464
4.77971e-05
-0.000583974
4.29e-05
-0.000585377
3.81129e-05
-0.0005857
3.33356e-05
-0.000584973
2.84983e-05
-0.000583221
2.35148e-05
-0.00058047
1.83172e-05
-0.000576739
1.28098e-05
-0.00057209
6.96325e-06
-0.000566357
5.28409e-07
-0.000559963
-6.1453e-06
-0.000552529
-1.34754e-05
-0.000544224
-2.13605e-05
-0.000535026
-2.9846e-05
-0.000524949
-3.89181e-05
-0.000514007
-4.85373e-05
-0.000502221
-5.86432e-05
-0.000489602
-6.92106e-05
-0.000476166
-8.01593e-05
-0.000461929
-9.14051e-05
-0.000446908
-0.000102848
-0.000431119
-0.000114377
-0.00041458
-0.000125871
-0.000397313
-0.000137204
-0.000379326
-0.000148267
-0.000360648
-0.000158875
-0.0003413
-0.00016892
-0.000321299
-0.000178285
-0.000300664
-0.000186845
-0.000279415
-0.000194491
-0.00025757
-0.000201123
-0.000235144
-0.000206663
-0.000212158
-0.00021103
-0.000188629
-0.00021418
-0.000164569
-0.000216082
-0.000139993
-0.000216724
-0.000114912
-0.000216118
-8.93494e-05
-0.000214263
-6.33093e-05
-0.000211269
-3.68075e-05
-0.000207161
-9.86268e-06
-0.000202028
1.75392e-05
-0.000195994
4.5369e-05
-0.000189154
7.3605e-05
-0.000181636
0.000102236
-0.000173585
0.000131239
-0.000165159
0.000160604
-0.000156483
0.000190309
-0.000147726
0.000220332
-0.000139035
0.000250648
-0.000130564
0.000281232
-0.000122447
0.000312058
-0.00011482
0.000343094
-0.000107814
0.000374306
-0.000101541
0.000405659
-9.61024e-05
0.000437121
-9.15577e-05
0.000468654
-8.79905e-05
0.000500218
-8.54496e-05
0.00053177
-8.39646e-05
0.000563269
-8.35481e-05
0.000594671
-8.41952e-05
0.000625933
-8.58849e-05
0.00065701
-8.85806e-05
0.000687854
-9.22301e-05
0.00071843
-9.67514e-05
0.00074869
-0.000102081
0.000778591
-0.000108129
0.000808091
-0.000114796
0.000837154
-0.00012197
0.000865742
-0.000129544
0.000893821
-0.000137403
0.000921361
-0.000145428
0.000948335
-0.000153503
0.00097472
-0.000161513
0.0010005
-0.000169343
0.00102566
-0.000176883
0.00105019
-0.000184028
0.00107408
-0.000190677
0.00109735
-0.000196737
0.00111999
-0.000202114
0.00114203
-0.000206731
0.00116348
-0.000210498
0.00118437
-0.000213353
0.00120474
-0.000215206
0.00122462
-0.000215983
0.00124408
-0.000215663
0.00126315
-0.000213898
0.00128202
-0.000211418
0.00130057
-0.00020577
0.00131938
-0.000202733
-0.00018846
-0.000415859
0.000147543
-0.00042737
0.000110825
-0.000438991
0.000107996
-0.000449007
9.57617e-05
-0.000457662
8.67046e-05
-0.000465023
7.8182e-05
-0.000471121
7.04053e-05
-0.000476006
6.32674e-05
-0.000479722
5.6633e-05
-0.000482305
5.03805e-05
-0.000483786
4.43812e-05
-0.00048419
3.85168e-05
-0.000483539
3.26842e-05
-0.000481861
2.68199e-05
-0.000479177
2.08308e-05
-0.000475514
1.46546e-05
-0.000470925
8.22109e-06
-0.000465288
1.32636e-06
-0.000458972
-5.78813e-06
-0.000451646
-1.34712e-05
-0.00044346
-2.16617e-05
-0.000434391
-3.04297e-05
-0.000424461
-3.97757e-05
-0.000413681
-4.96982e-05
-0.000402064
-6.01537e-05
-0.000389637
-7.10709e-05
-0.000376411
-8.2436e-05
-0.000362405
-9.41658e-05
-0.000347635
-0.000106175
-0.000332121
-0.000118363
-0.000315882
-0.000130616
-0.000298938
-0.000142815
-0.000281312
-0.00015483
-0.000263011
-0.000166567
-0.00024407
-0.000177816
-0.000224509
-0.000188481
-0.000204348
-0.000198445
-0.000183607
-0.000207586
-0.000162305
-0.000215793
-0.000140461
-0.000222967
-0.00011809
-0.000229035
-9.52115e-05
-0.000233909
-7.18412e-05
-0.00023755
-4.79926e-05
-0.00023993
-2.36803e-05
-0.000241036
1.06827e-06
-0.000240866
2.63064e-05
-0.000239501
5.19632e-05
-0.000236926
7.80446e-05
-0.000233243
0.000104545
-0.000228529
0.000131451
-0.0002229
0.000158756
-0.000216459
0.000186451
-0.000209332
0.000214525
-0.00020166
0.000242963
-0.000193596
0.000271753
-0.000185274
0.000300879
-0.000176852
0.000330322
-0.000168478
0.000360059
-0.000160302
0.00039007
-0.000152458
0.00042033
-0.000145079
0.000450808
-0.000138292
0.000481473
-0.000132206
0.000512289
-0.000126918
0.000543225
-0.000122494
0.000574242
-0.000119007
0.000605298
-0.000116506
0.000636351
-0.000115017
0.000667356
-0.000114553
0.000698269
-0.000115108
0.000729042
-0.000116658
0.000759629
-0.000119168
0.00078998
-0.000122581
0.000820053
-0.000126825
0.000849801
-0.000131828
0.000879176
-0.000137504
0.000908134
-0.000143754
0.000936634
-0.000150471
0.000964638
-0.000157548
0.000992109
-0.000164873
0.00101901
-0.000172333
0.00104532
-0.000179814
0.00107101
-0.000187204
0.00109607
-0.000194395
0.00112047
-0.000201282
0.0011442
-0.000207765
0.00116727
-0.000213748
0.00118968
-0.000219144
0.00121143
-0.000223867
0.00123255
-0.000227845
0.00125305
-0.000230994
0.00127295
-0.00023326
0.00129231
-0.000234565
0.00131116
-0.000234829
0.00132958
-0.000234084
0.00134758
-0.000231896
0.00136539
-0.000229227
0.00138286
-0.000223244
0.00140056
-0.000220436
-0.000206272
-0.000314354
0.000162386
-0.00032429
0.000120761
-0.000334115
0.000117821
-0.000342638
0.000104284
-0.00034988
9.39464e-05
-0.000355915
8.42178e-05
-0.00036076
7.52501e-05
-0.000364451
6.6958e-05
-0.000367021
5.92035e-05
-0.000368502
5.18607e-05
-0.000368916
4.47955e-05
-0.000368284
3.78851e-05
-0.000366622
3.10222e-05
-0.000363956
2.41538e-05
-0.000360307
1.71822e-05
-0.000355718
1.00652e-05
-0.000350133
2.63616e-06
-0.000343807
-4.99919e-06
-0.000336531
-1.30648e-05
-0.000328403
-2.15993e-05
-0.0003194
-3.06646e-05
-0.000309548
-4.02818e-05
-0.000298865
-5.04581e-05
-0.000287361
-6.12021e-05
-0.00027505
-7.24647e-05
-0.000261962
-8.41589e-05
-0.000248113
-9.62856e-05
-0.00023352
-0.000108759
-0.000218203
-0.000121492
-0.000202183
-0.000134382
-0.000185482
-0.000147317
-0.000168123
-0.000160174
-0.000150132
-0.000172821
-0.000131509
-0.00018519
-0.000112297
-0.000197028
-9.25199e-05
-0.000208259
-7.21962e-05
-0.000218769
-5.13461e-05
-0.000228436
-2.9989e-05
-0.00023715
-8.1406e-06
-0.000244815
1.41594e-05
-0.000251335
3.69164e-05
-0.000256666
6.01172e-05
-0.000260751
8.3745e-05
-0.000263558
0.000107788
-0.00026508
0.000132241
-0.000265319
0.000157085
-0.000264344
0.000182321
-0.000262162
0.000207942
-0.000258864
0.000233944
-0.000254531
0.000260318
-0.000249274
0.00028706
-0.0002432
0.000314164
-0.000236436
0.000341625
-0.000229121
0.00036943
-0.000221401
0.000397572
-0.000213416
0.000426038
-0.000205317
0.000454812
-0.000197252
0.000483877
-0.000189367
0.000513212
-0.000181793
0.000542796
-0.000174663
0.0005726
-0.000168096
0.000602594
-0.000162201
0.000632744
-0.000157069
0.000663018
-0.000152768
0.000693378
-0.000149367
0.000723781
-0.000146909
0.000754185
-0.000145421
0.000784543
-0.000144912
0.00081481
-0.000145375
0.000844937
-0.000146785
0.000874875
-0.000149105
0.000904573
-0.000152279
0.000933985
-0.000156237
0.000963062
-0.000160905
0.000991755
-0.000166197
0.00102002
-0.000172016
0.00104781
-0.000178259
0.00107508
-0.000184821
0.0011018
-0.000191594
0.00112793
-0.000198466
0.00115345
-0.000205329
0.00117832
-0.000212076
0.00120253
-0.000218604
0.00122606
-0.000224812
0.0012489
-0.000230606
0.00127105
-0.000235897
0.00129251
-0.000240603
0.00131329
-0.000244646
0.0013334
-0.000247959
0.00135287
-0.000250468
0.00137174
-0.000252121
0.00139003
-0.000252862
0.00140779
-0.00025259
0.00142512
-0.000251413
0.00144201
-0.000248783
0.00145871
-0.000245927
0.00147508
-0.000239611
0.00149162
-0.000236984
-0.000223032
-0.000198286
0.000173624
-0.000207259
0.000129734
-0.000215082
0.000125643
-0.000222125
0.000111328
-0.00022797
9.97908e-05
-0.000232694
8.89418e-05
-0.000236304
7.88604e-05
-0.000238821
6.94748e-05
-0.000240267
6.065e-05
-0.000240665
5.22587e-05
-0.000240033
4.41635e-05
-0.000238385
3.62369e-05
-0.00023573
2.83676e-05
-0.000232096
2.05189e-05
-0.000227495
1.25813e-05
-0.000221951
4.52176e-06
-0.000215582
-3.7326e-06
-0.000208351
-1.22307e-05
-0.000200255
-2.11605e-05
-0.000191295
-3.05592e-05
-0.000181495
-4.04653e-05
-0.000170874
-5.09024e-05
-0.000159453
-6.18789e-05
-0.00014724
-7.34158e-05
-0.000134248
-8.54566e-05
-0.000120512
-9.78941e-05
-0.000106052
-0.000110746
-9.08849e-05
-0.000123926
-7.50328e-05
-0.000137344
-5.85172e-05
-0.000150898
-4.13596e-05
-0.000164475
-2.35804e-05
-0.000177953
-5.1822e-06
-0.000191219
1.36847e-05
-0.000204057
3.30965e-05
-0.00021644
5.30449e-05
-0.000228207
7.34967e-05
-0.000239221
9.44254e-05
-0.000249365
0.000115808
-0.000258532
0.000137621
-0.000266629
0.000159852
-0.000273566
0.00018248
-0.000279293
0.000205489
-0.00028376
0.00022887
-0.000286939
0.000252612
-0.000288822
0.00027671
-0.000289418
0.000301151
-0.000288785
0.000325936
-0.000286947
0.000351061
-0.000283989
0.000376523
-0.000279993
0.000402319
-0.00027507
0.000428447
-0.000269328
0.000454906
-0.000262895
0.000481691
-0.000255906
0.000508797
-0.000248507
0.000536218
-0.000240837
0.000563945
-0.000233044
0.000591966
-0.000225273
0.000620266
-0.000217666
0.000648827
-0.000210355
0.00067763
-0.000203466
0.000706649
-0.000197115
0.000735856
-0.000191407
0.000765218
-0.000186431
0.000794703
-0.000182254
0.000824274
-0.000178937
0.000853888
-0.000176523
0.000883503
-0.000175035
0.000913072
-0.000174481
0.000942548
-0.000174851
0.000971882
-0.000176119
0.00100102
-0.000178246
0.00102992
-0.000181177
0.00105852
-0.000184841
0.00108679
-0.000189166
0.00111465
-0.000194065
0.00114208
-0.000199443
0.00116902
-0.0002052
0.00119543
-0.000211234
0.00122128
-0.000217438
0.00124652
-0.000223707
0.00127113
-0.000229936
0.00129507
-0.000236022
0.00131833
-0.000241867
0.0013409
-0.000247377
0.00136276
-0.000252464
0.00138391
-0.000257044
0.00140434
-0.000261042
0.00142408
-0.000264386
0.00144314
-0.000267016
0.00146154
-0.00026887
0.00147932
-0.000269893
0.00149651
-0.000270058
0.00151316
-0.000269236
0.00152937
-0.000267623
0.00154512
-0.000264537
0.00156069
-0.000261497
0.00157594
-0.000254855
0.00159131
-0.000252357
-0.000238695
-6.67219e-05
0.000178523
-7.64438e-05
0.000139456
-8.17718e-05
0.000130971
-8.75379e-05
0.000117094
-9.20991e-05
0.000104352
-9.56151e-05
9.24577e-05
-9.80931e-05
8.13384e-05
-9.95362e-05
7.09178e-05
-9.99552e-05
6.1069e-05
-9.93636e-05
5.16671e-05
-9.77731e-05
4.25731e-05
-9.51909e-05
3.36547e-05
-9.16163e-05
2.4793e-05
-8.70697e-05
1.59723e-05
-8.1616e-05
7.12761e-06
-7.52218e-05
-1.87238e-06
-6.80809e-05
-1.08735e-05
-6.00416e-05
-2.02701e-05
-5.11456e-05
-3.00565e-05
-4.14099e-05
-4.02949e-05
-3.08524e-05
-5.10228e-05
-1.94891e-05
-6.22657e-05
-7.32865e-06
-7.40393e-05
5.55326e-06
-8.62977e-05
1.9095e-05
-9.89984e-05
3.33772e-05
-0.000112176
4.83606e-05
-0.000125729
6.40192e-05
-0.000139584
8.03267e-05
-0.000153651
9.72571e-05
-0.000167828
0.000114784
-0.000182002
0.00013288
-0.000196049
0.000151513
-0.000209852
0.00017068
-0.000223224
0.000190338
-0.000236098
0.000210459
-0.000248328
0.00023102
-0.000259782
0.000251999
-0.000270344
0.000273373
-0.000279906
0.000295122
-0.000288378
0.00031723
-0.000295674
0.000339679
-0.000301742
0.000362454
-0.000306535
0.000385544
-0.000310029
0.000408942
-0.00031222
0.000432643
-0.000313119
0.000456637
-0.000312778
0.000480924
-0.000311235
0.000505505
-0.000308569
0.000530378
-0.000304866
0.000555543
-0.000300235
0.000581002
-0.000294787
0.000606755
-0.000288648
0.000632802
-0.000281954
0.000659141
-0.000274846
0.000685769
-0.000267464
0.00071268
-0.000259955
0.000739865
-0.000252458
0.000767312
-0.000245113
0.000795006
-0.000238049
0.00082293
-0.000231389
0.000851061
-0.000225246
0.000879371
-0.000219718
0.000907831
-0.000214891
0.000936409
-0.000210832
0.000965068
-0.000207596
0.000993768
-0.000205222
0.00102246
-0.000203732
0.00105111
-0.00020313
0.00107966
-0.000203403
0.00110807
-0.000204526
0.00113628
-0.000206456
0.00116424
-0.000209139
0.00119191
-0.000212505
0.00121922
-0.00021648
0.00124614
-0.000220979
0.0012726
-0.000225909
0.00129857
-0.000231172
0.00132401
-0.000236668
0.00134886
-0.000242295
0.00137311
-0.00024795
0.00139671
-0.000253534
0.00141963
-0.000258949
0.00144187
-0.000264101
0.00146339
-0.000268902
0.0014842
-0.00027327
0.00150428
-0.000277127
0.00152364
-0.000280406
0.0015423
-0.000283042
0.00156026
-0.000284978
0.00157756
-0.000286169
0.00159422
-0.000286552
0.0016103
-0.000286138
0.00162582
-0.000284755
0.0016409
-0.00028271
0.00165553
-0.000279159
0.00166996
-0.000275933
0.00168409
-0.00026898
0.00169828
-0.000266556
-0.00025324
7.83984e-05
0.000179762
6.9349e-05
0.000148505
6.57201e-05
0.0001346
6.11702e-05
0.000121644
5.76801e-05
0.000107842
5.51646e-05
9.49732e-05
5.36175e-05
8.28854e-05
5.30545e-05
7.14809e-05
5.34778e-05
6.06457e-05
5.48828e-05
5.02621e-05
5.72637e-05
4.01922e-05
6.06201e-05
3.02983e-05
6.49601e-05
2.0453e-05
7.02285e-05
1.07039e-05
7.65259e-05
8.30163e-07
8.34448e-05
-8.79127e-06
9.13151e-05
-1.87439e-05
0.00010003
-2.89848e-05
0.000109582
-3.96085e-05
0.000119949
-5.06623e-05
0.000131111
-6.21846e-05
0.000143045
-7.41993e-05
0.000155725
-8.67194e-05
0.000169139
-9.97122e-05
0.000183274
-0.000113133
0.000198089
-0.000126992
0.000213561
-0.000141202
0.000229667
-0.00015569
0.000246381
-0.000170365
0.000263675
-0.000185123
0.000281522
-0.000199849
0.000299894
-0.000214421
0.00031876
-0.000228717
0.000338105
-0.00024257
0.000357893
-0.000255886
0.000378094
-0.00026853
0.000398685
-0.000280373
0.00041964
-0.000291299
0.000440937
-0.000301203
0.000462554
-0.000309995
0.000484475
-0.000317595
0.000506683
-0.000323949
0.000529163
-0.000329015
0.000551904
-0.000332771
0.0005749
-0.000335216
0.000598146
-0.000336365
0.000621634
-0.000336267
0.000645368
-0.000334968
0.000669346
-0.000332547
0.000693572
-0.000329092
0.000718047
-0.00032471
0.000742775
-0.000319515
0.000767759
-0.000313633
0.000793003
-0.000307197
0.000818506
-0.000300349
0.000844268
-0.000293227
0.000870287
-0.000285973
0.000896556
-0.000278727
0.000923067
-0.000271624
0.000949806
-0.000264789
0.000976759
-0.000258342
0.0010039
-0.000252391
0.00103122
-0.000247031
0.00105867
-0.000242345
0.00108623
-0.000238394
0.00111387
-0.000235232
0.00114154
-0.000232892
0.0011692
-0.000231394
0.00119681
-0.000230738
0.00122432
-0.000230911
0.00125168
-0.000231884
0.00127883
-0.000233614
0.00130574
-0.000236045
0.00133235
-0.000239109
0.0013586
-0.000242731
0.00138444
-0.000246826
0.00140984
-0.000251303
0.00143473
-0.000256068
0.00145909
-0.000261023
0.00148286
-0.000266068
0.00150602
-0.000271107
0.00152852
-0.000276041
0.00155036
-0.000280781
0.00157149
-0.000285236
0.00159191
-0.000289324
0.00161161
-0.00029297
0.00163059
-0.000296102
0.00164884
-0.000298658
0.00166638
-0.000300583
0.00168323
-0.000301824
0.00169941
-0.000302351
0.00171495
-0.000302092
0.00172991
-0.000301101
0.00174431
-0.000299153
0.00175828
-0.000296682
0.00177179
-0.000292664
0.0017851
-0.00028925
0.00179813
-0.000282007
0.00181118
-0.000279604
-0.000266667
0.000237576
0.000181232
0.000231177
0.000154905
0.000227686
0.000138091
0.000224244
0.000125086
0.000221474
0.000110612
0.000219612
9.68347e-05
0.000218672
8.38258e-05
0.000218682
7.14705e-05
0.000219659
5.9669e-05
0.000221605
4.8316e-05
0.00022452
3.72771e-05
0.000228413
2.6405e-05
0.000233312
1.55548e-05
0.000239188
4.82764e-06
0.000245757
-5.73921e-06
0.0002533
-1.63337e-05
0.000261674
-2.71179e-05
0.000270899
-3.82102e-05
0.000280951
-4.96604e-05
0.000291806
-6.15177e-05
0.000303443
-7.38207e-05
0.000315835
-8.6592e-05
0.000328958