/*--------------------------------*- C++ -*----------------------------------*\
  =========                 |
  \\      /  F ield         | OpenFOAM: The Open Source CFD Toolbox
   \\    /   O peration     | Website:  https://openfoam.org
    \\  /    A nd           | Version:  7
     \\/     M anipulation  |
\*---------------------------------------------------------------------------*/
FoamFile
{
    version     2.0;
    format      ascii;
    class       volVectorField;
    location    "55";
    object      U;
}
// * * * * * * * * * * * * * * * * * * * * * * * * * * * * * * * * * * * * * //

dimensions      [0 1 -1 0 0 0 0];

internalField   nonuniform List<vector> 
6000
(
(-0.16227 0.000945548 -2.13857e-21)
(-0.166001 0.000878589 2.25768e-21)
(-0.169487 0.00086449 -4.12756e-21)
(-0.17285 0.000910787 2.04652e-21)
(-0.17633 0.00103212 2.02708e-21)
(-0.160181 0.00358663 1.0068e-20)
(-0.163659 0.00333795 3.53596e-21)
(-0.166864 0.00323323 -3.49691e-21)
(-0.169911 0.00329471 -2.1774e-21)
(-0.173045 0.0035642 -2.16359e-21)
(-0.155977 0.00616382 -9.40823e-21)
(-0.158951 0.00571768 2.52961e-21)
(-0.161597 0.00550798 1.77147e-20)
(-0.164011 0.0055772 -2.9981e-21)
(-0.166444 0.00599713 3.7399e-22)
(-0.151874 0.00796893 3.09854e-21)
(-0.153684 0.00762905 -6.27744e-21)
(-0.155154 0.00769172 7.96162e-21)
(-0.156516 0.00826263 1.17009e-20)
(-0.142415 0.0100492 -8.74253e-22)
(-0.143118 0.00954129 -5.12201e-21)
(-0.14334 0.00957317 -1.78682e-20)
(-0.143235 0.0102876 -4.85705e-21)
(-0.130546 0.0119263 4.20721e-21)
(-0.129874 0.011198 1.36648e-20)
(-0.128561 0.0111608 2.2637e-20)
(-0.126555 0.0119933 -1.10792e-20)
(-0.116214 0.0135822 -1.87224e-20)
(-0.113898 0.012566 -2.89782e-20)
(-0.110793 0.0124039 -4.4906e-20)
(-0.106403 0.0132962 1.73378e-20)
(-0.0993248 0.0150169 -6.09753e-21)
(-0.0950881 0.0136326 1.38134e-20)
(-0.0899783 0.0132713 7.50334e-20)
(-0.0826683 0.0141196 -1.45133e-20)
(-0.0797365 0.0162519 3.25366e-20)
(-0.0732719 0.0144147 -2.16311e-20)
(-0.0659963 0.0137599 -5.03787e-20)
(-0.0552048 0.0144562 2.75147e-21)
(-0.057248 0.0173286 2.63712e-21)
(-0.0481945 0.0149707 -2.06076e-20)
(-0.0385828 0.0138598 -2.71989e-20)
(-0.0238446 0.0145024 2.07377e-20)
(-0.0315896 0.0182999 -3.81641e-20)
(-0.0195558 0.0154116 -6.78522e-21)
(-0.0071984 0.0134926 2.7076e-20)
(0.0117218 0.0144862 -2.23941e-20)
(0.0129349 0.0158181 3.45453e-21)
(0.0286839 0.0129997 1.17139e-21)
(0.0523587 0.0141344 1.94427e-20)
(0.0498711 0.0162721 1.31988e-20)
(0.0693161 0.0127431 -1.06802e-21)
(0.0987631 0.0133676 -1.93956e-20)
(0.0918273 0.0168666 -1.47432e-20)
(0.115256 0.012767 2.92537e-20)
(0.151549 0.0126966 2.93722e-20)
(0.139354 0.0177031 -2.37823e-20)
(0.167059 0.0131784 -2.91172e-20)
(0.211396 0.0125119 -6.20798e-20)
(0.225199 0.0140962 -3.83557e-20)
(0.278866 0.013169 7.48084e-20)
(0.290023 0.0156118 5.2901e-20)
(0.354225 0.0149873 1.03605e-20)
(0.361688 0.0178175 4.41461e-20)
(0.437274 0.0182178 -9.10586e-20)
(0.527171 0.0230193 1.63312e-20)
(0.622289 0.0294427 3.98306e-20)
(0.720167 0.0374139 -1.20535e-20)
(-0.181341 0.0012584 -5.63402e-22)
(-0.187178 0.00109748 5.84158e-22)
(-0.191812 0.00117214 -3.98989e-22)
(-0.196386 0.00121623 3.65386e-22)
(-0.200303 0.00131479 -6.95871e-22)
(-0.203898 0.00143924 7.94664e-22)
(-0.207074 0.001591 -1.58303e-22)
(-0.209899 0.00176461 2.11343e-22)
(-0.212375 0.00195169 1.99205e-23)
(-0.214524 0.00214808 -8.46284e-23)
(-0.216352 0.00234234 1.10453e-22)
(-0.217872 0.00252544 -1.09866e-22)
(-0.219094 0.00268613 1.65349e-22)
(-0.220028 0.00281935 -1.02215e-22)
(-0.22068 0.00291741 1.11256e-22)
(-0.221057 0.00297337 -2.26989e-22)
(-0.221162 0.00297988 4.10621e-22)
(-0.221001 0.00293028 -4.9648e-22)
(-0.220575 0.00281853 4.87285e-22)
(-0.219887 0.00263975 -7.12348e-23)
(-0.218939 0.00239034 -4.47587e-22)
(-0.217732 0.00206741 2.08726e-22)
(-0.216268 0.00167128 -1.5312e-22)
(-0.214548 0.00120537 4.17301e-22)
(-0.21257 0.000674373 -2.67402e-22)
(-0.210338 6.40659e-05 3.11866e-22)
(-0.207853 -0.000605157 -1.16672e-22)
(-0.205115 -0.00132462 -1.79844e-22)
(-0.202121 -0.00208423 -6.11084e-23)
(-0.198874 -0.00287715 7.02499e-23)
(-0.195378 -0.00368635 2.16747e-22)
(-0.191631 -0.00449884 -6.2186e-23)
(-0.187636 -0.00530615 -8.2617e-23)
(-0.183395 -0.00608791 2.71696e-22)
(-0.178912 -0.00682872 -9.94618e-23)
(-0.174188 -0.00751425 -4.73995e-23)
(-0.169227 -0.00812996 4.82664e-23)
(-0.164031 -0.0086622 -1.38061e-22)
(-0.158607 -0.00909936 1.75325e-22)
(-0.152957 -0.00942916 1.10218e-22)
(-0.147087 -0.00964214 -5.67688e-23)
(-0.141003 -0.0097314 4.94548e-23)
(-0.134711 -0.00968969 -1.73382e-22)
(-0.128216 -0.00951347 1.65397e-22)
(-0.121526 -0.00920144 1.17792e-22)
(-0.114647 -0.00875408 -5.54959e-23)
(-0.107584 -0.0081761 2.06067e-24)
(-0.100349 -0.00748009 3.30332e-23)
(-0.0929509 -0.00666607 -4.49377e-23)
(-0.0853952 -0.00574448 -1.1353e-22)
(-0.0776918 -0.00473097 3.20042e-23)
(-0.0698529 -0.00363984 1.09427e-22)
(-0.0618866 -0.00248482 -1.8001e-22)
(-0.0538021 -0.0012828 6.92968e-23)
(-0.0456107 -5.20527e-05 3.64544e-23)
(-0.0373209 0.0011893 4.69743e-23)
(-0.0289435 0.00241651 6.73555e-23)
(-0.0204908 0.00361534 -1.41513e-23)
(-0.011971 0.00477039 -8.48096e-23)
(-0.00339266 0.00586427 3.68204e-23)
(0.00523181 0.00688152 4.2621e-24)
(0.013892 0.00780344 3.36998e-23)
(0.0225812 0.00861698 -1.99726e-23)
(0.0312919 0.00931039 -3.18917e-24)
(0.0400144 0.00987855 4.85569e-23)
(0.0487395 0.0103093 -6.54094e-24)
(0.0574609 0.0105964 1.25808e-23)
(0.0661715 0.0107365 -8.20476e-24)
(0.0748647 0.0107283 1.25565e-23)
(0.083534 0.0105721 -1.60027e-23)
(0.0921733 0.0102706 -6.52474e-24)
(0.100777 0.0098282 1.49375e-23)
(0.10934 0.00925141 1.83452e-23)
(0.117856 0.00855139 -1.41931e-23)
(0.126319 0.00773432 1.3471e-23)
(0.134726 0.00681167 6.00893e-24)
(0.143071 0.0057958 -2.29409e-23)
(0.15135 0.00470193 2.93083e-23)
(0.159558 0.00354373 -8.38865e-25)
(0.167692 0.00233564 -9.03195e-24)
(0.175747 0.00109097 -4.54761e-24)
(0.183721 -0.000172243 9.13899e-24)
(0.191609 -0.00143813 -2.09649e-25)
(0.199411 -0.00269226 -1.39016e-24)
(0.207124 -0.00391841 3.6264e-24)
(0.214747 -0.00510202 -8.67962e-25)
(0.222279 -0.00622851 -1.41281e-24)
(0.229721 -0.00728387 3.79072e-24)
(0.237071 -0.00825532 -3.21954e-24)
(0.244335 -0.00912917 1.67784e-24)
(0.251509 -0.00989316 1.11279e-24)
(0.258608 -0.0105349 4.02148e-25)
(0.265608 -0.0110425 -1.90606e-25)
(0.272582 -0.0114008 9.17795e-25)
(0.279379 -0.0116007 9.62045e-26)
(0.286368 -0.0116112 -1.22653e-25)
(0.292721 -0.0114472 2.35859e-26)
(0.300381 -0.010983 3.43544e-26)
(0.304956 -0.0104505 6.05229e-27)
(0.316385 -0.00897497 -1.42066e-25)
(-0.177795 0.00410728 9.37072e-22)
(-0.183627 0.00337718 -1.14202e-22)
(-0.18811 0.00332099 -1.5508e-21)
(-0.192604 0.00311417 1.50091e-21)
(-0.196426 0.00302186 -9.90563e-22)
(-0.199936 0.00295929 -4.37531e-22)
(-0.203028 0.00293772 1.54794e-21)
(-0.205773 0.00294683 -1.60191e-21)
(-0.20817 0.00297732 1.22724e-21)
(-0.210241 0.003023 -1.08643e-21)
(-0.211993 0.00307323 1.35387e-21)
(-0.213438 0.00311689 -1.06432e-21)
(-0.214586 0.00314335 6.57394e-22)
(-0.215445 0.0031461 -1.04385e-22)
(-0.216022 0.003117 -9.13787e-23)
(-0.216323 0.00304869 -7.02092e-22)
(-0.216353 0.00293334 9.67318e-22)
(-0.216115 0.00276398 6.62623e-23)
(-0.215613 0.00253424 -2.67882e-22)
(-0.21485 0.00223908 9.89956e-23)
(-0.213826 0.00187435 -1.15856e-21)
(-0.212545 0.00143813 1.20162e-21)
(-0.211006 0.000937435 -1.37102e-21)
(-0.209211 0.000359633 4.70181e-22)
(-0.207167 -0.000296113 5.98007e-22)
(-0.204873 -0.00102357 -8.32461e-22)
(-0.202324 -0.00180849 -2.01526e-22)
(-0.199523 -0.00264252 1.9385e-24)
(-0.196474 -0.00351643 -2.75865e-22)
(-0.193177 -0.00442213 2.5777e-22)
(-0.189636 -0.00534374 -3.72449e-22)
(-0.18585 -0.00626769 3.39801e-22)
(-0.181824 -0.00718195 2.65729e-22)
(-0.177561 -0.00807008 -1.31111e-21)
(-0.173063 -0.00891602 3.05232e-22)
(-0.168334 -0.00970505 8.05005e-22)
(-0.163377 -0.0104226 -2.362e-22)
(-0.158196 -0.0110548 -6.05573e-22)
(-0.152796 -0.0115894 -1.98237e-22)
(-0.14718 -0.0120144 -4.22332e-22)
(-0.141354 -0.0123202 4.02574e-22)
(-0.135323 -0.0124991 6.75751e-22)
(-0.129092 -0.0125444 -7.16902e-22)
(-0.122667 -0.0124525 2.20181e-22)
(-0.116054 -0.0122217 2.70971e-22)
(-0.109257 -0.0118527 -7.64154e-23)
(-0.102282 -0.0113494 3.76798e-23)
(-0.0951389 -0.0107211 -2.49017e-22)
(-0.0878335 -0.00997215 -6.95734e-23)
(-0.0803717 -0.00911266 3.23908e-23)
(-0.0727615 -0.00815792 -1.5785e-22)
(-0.0650122 -0.00712084 1.68482e-22)
(-0.0571309 -0.00601578 1.66237e-22)
(-0.0491252 -0.00485968 -3.19153e-22)
(-0.0410048 -0.00366997 2.50266e-22)
(-0.0327797 -0.00246549 -7.4897e-23)
(-0.0244576 -0.0012683 -1.27989e-22)
(-0.0160456 -9.40602e-05 6.34405e-23)
(-0.00755337 0.00104288 -7.7585e-23)
(0.00101029 0.0021175 3.14011e-22)
(0.00963359 0.00310962 -1.55056e-22)
(0.0183059 0.00401493 1.09455e-22)
(0.0270215 0.00481778 -5.34603e-23)
(0.035774 0.0055053 -4.11928e-23)
(0.044552 0.00607214 -1.13416e-22)
(0.0533441 0.00650535 8.45483e-23)
(0.0621445 0.00679813 -4.74725e-23)
(0.0709452 0.00694722 -6.35818e-23)
(0.0797381 0.0069511 1.14472e-22)
(0.0885152 0.00681019 -9.07149e-23)
(0.0972687 0.0065269 -9.00799e-24)
(0.105991 0.00610549 -5.84656e-23)
(0.114677 0.00555138 3.68102e-23)
(0.123317 0.00487808 -4.43241e-24)
(0.131902 0.00409023 1.22061e-24)
(0.140427 0.00319968 2.44294e-23)
(0.148886 0.00221941 -5.48261e-23)
(0.157274 0.00115823 -8.18736e-24)
(0.165582 3.45479e-05 -2.96304e-23)
(0.173804 -0.00113564 -1.00033e-23)
(0.181937 -0.00233999 1.4355e-23)
(0.189976 -0.00356137 7.32852e-24)
(0.197916 -0.00478444 -3.80343e-23)
(0.205755 -0.00599375 3.1479e-23)
(0.213488 -0.00717474 -2.45214e-23)
(0.221115 -0.0083129 -1.00213e-23)
(0.228634 -0.00939381 5.23953e-25)
(0.236045 -0.010404 -8.4797e-24)
(0.243348 -0.0113304 4.65009e-24)
(0.250548 -0.0121606 -9.7223e-25)
(0.257641 -0.0128821 -5.66705e-26)
(0.264644 -0.0134834 8.01853e-25)
(0.271533 -0.0139522 -5.16406e-24)
(0.278383 -0.0142753 -1.54725e-24)
(0.285042 -0.0144422 -2.55489e-24)
(0.291886 -0.0144242 1.42925e-24)
(0.298088 -0.0142403 -4.55133e-25)
(0.305585 -0.0137459 2.66522e-25)
(0.310033 -0.0132439 -1.40207e-25)
(0.321258 -0.0117024 9.90576e-25)
(-0.170678 0.00689281 -1.63961e-21)
(-0.176507 0.00557253 -7.69691e-22)
(-0.180693 0.00540171 -7.41615e-22)
(-0.185036 0.00494749 7.28062e-22)
(-0.188675 0.00466682 1.40316e-21)
(-0.192022 0.00441996 9.05886e-22)
(-0.194957 0.00422692 -3.22637e-21)
(-0.197549 0.0040737 2.88641e-21)
(-0.199799 0.00395047 1.27827e-21)
(-0.201725 0.00384819 -2.97164e-21)
(-0.203338 0.00375554 1.55588e-21)
(-0.204645 0.00366123 -2.14833e-21)
(-0.205657 0.00355454 2.91516e-21)
(-0.206381 0.00342797 -1.79143e-21)
(-0.206824 0.00327292 2.3159e-21)
(-0.206992 0.00308173 -4.01209e-21)
(-0.206889 0.00284602 2.4586e-21)
(-0.206521 0.00255853 8.23499e-22)
(-0.205889 0.00221266 -4.08021e-22)
(-0.204996 0.00180265 -7.53111e-23)
(-0.203845 0.00132428 -4.89372e-22)
(-0.202434 0.000791208 4.29546e-22)
(-0.200772 0.000168591 -2.37866e-22)
(-0.198865 -0.000535548 3.6805e-22)
(-0.196706 -0.00131627 1.4531e-21)
(-0.194294 -0.00215265 7.71466e-23)
(-0.191635 -0.00304745 -1.33231e-21)
(-0.188729 -0.00399193 3.82921e-23)
(-0.18558 -0.00497609 5.66652e-22)
(-0.182191 -0.00598961 -1.43724e-22)
(-0.178564 -0.00701852 -1.75745e-21)
(-0.174702 -0.00804919 1.88793e-21)
(-0.170607 -0.0090682 -4.00675e-23)
(-0.166285 -0.0100598 -3.76561e-22)
(-0.161738 -0.0110073 6.09095e-22)
(-0.156971 -0.011896 1.44826e-21)
(-0.151987 -0.0127114 -1.47358e-21)
(-0.146791 -0.0134395 2.06823e-22)
(-0.141387 -0.0140677 -2.23258e-22)
(-0.13578 -0.0145842 5.58759e-22)
(-0.129974 -0.0149791 2.64066e-22)
(-0.123974 -0.0152444 4.97063e-22)
(-0.117786 -0.0153735 -2.95558e-22)
(-0.111413 -0.0153628 -1.45858e-22)
(-0.104861 -0.0152105 -4.3944e-22)
(-0.0981342 -0.0149175 6.34445e-22)
(-0.0912378 -0.0144871 -5.60571e-22)
(-0.0841781 -0.0139281 2.69481e-22)
(-0.0769603 -0.0132455 -3.28289e-22)
(-0.0695895 -0.0124497 -2.11178e-22)
(-0.0620721 -0.011554 1.03602e-22)
(-0.0544151 -0.0105725 9.06627e-22)
(-0.0466241 -0.00952011 -1.47643e-22)
(-0.0387052 -0.00841342 -3.25071e-22)
(-0.0306669 -0.00726964 -2.5348e-22)
(-0.0225166 -0.00610922 6.29549e-22)
(-0.0142609 -0.00494548 -1.1739e-22)
(-0.00590649 -0.0037999 -4.93692e-22)
(0.00253589 -0.00269087 3.62013e-22)
(0.0110558 -0.00163894 7.21601e-24)
(0.0196503 -0.000663983 7.09607e-23)
(0.0283105 0.000228744 -2.15574e-22)
(0.0370245 0.00102486 9.60067e-24)
(0.0457876 0.00171221 -9.48548e-23)
(0.0545872 0.00226484 4.15432e-22)
(0.0634111 0.00268913 -2.00828e-22)
(0.0722533 0.0029801 -5.62609e-23)
(0.0811053 0.00313276 2.17761e-22)
(0.0899574 0.0031449 -8.51187e-23)
(0.0988005 0.00301669 9.00503e-23)
(0.107625 0.00275062 7.01263e-23)
(0.116421 0.00235137 -1.96913e-23)
(0.125184 0.00182532 3.3919e-24)
(0.133901 0.0011694 4.64363e-23)
(0.142561 0.000405606 -5.47751e-25)
(0.151158 -0.000455319 -5.95415e-23)
(0.159682 -0.00140184 6.4506e-23)
(0.168127 -0.00242551 -3.08454e-23)
(0.176485 -0.00350925 1.02689e-22)
(0.184749 -0.00463765 3.41035e-23)
(0.192912 -0.00579548 -3.19469e-23)
(0.200967 -0.00696863 -5.00864e-24)
(0.208911 -0.0081422 2.18521e-23)
(0.216737 -0.00930088 -1.47121e-23)
(0.224443 -0.0104303 1.82629e-24)
(0.232027 -0.0115161 1.23614e-23)
(0.239486 -0.0125446 -8.13028e-24)
(0.246822 -0.0135026 2.53749e-23)
(0.254033 -0.0143774 -1.83684e-23)
(0.261124 -0.0151572 6.87465e-24)
(0.268092 -0.0158297 1.16287e-23)
(0.274957 -0.0163846 -1.08173e-24)
(0.281692 -0.016809 2.73346e-24)
(0.288377 -0.0170918 6.99554e-24)
(0.294858 -0.0172218 1.3111e-24)
(0.301517 -0.0171713 -1.04153e-24)
(0.307525 -0.0169669 2.55182e-24)
(0.314822 -0.016441 5.55811e-26)
(0.319106 -0.0159731 6.91944e-26)
(0.330061 -0.0143791 -2.40931e-26)
(-0.159987 0.00957662 1.4959e-21)
(-0.16582 0.00763228 -6.60213e-21)
(-0.169567 0.00737344 5.79372e-21)
(-0.173691 0.00667773 -2.78009e-21)
(-0.177067 0.00621283 -3.83507e-22)
(-0.180178 0.00578613 -4.56782e-21)
(-0.182885 0.00542469 4.81165e-21)
(-0.185258 0.00511203 -2.8546e-21)
(-0.187297 0.00483698 1.07076e-21)
(-0.189018 0.00458882 -5.7615e-22)
(-0.19043 0.00435538 5.36514e-21)
(-0.191541 0.00412491 -5.73694e-21)
(-0.19236 0.0038865 4.27017e-21)
(-0.192893 0.00363201 -3.97465e-22)
(-0.193148 0.00335245 2.73189e-22)
(-0.193129 0.00303993 -9.2314e-22)
(-0.192843 0.00268555 -2.60118e-21)
(-0.192291 0.00228204 -9.26251e-23)
(-0.191479 0.00182205 1.90221e-21)
(-0.190409 0.00129803 8.01864e-22)
(-0.189075 0.000731106 2.25154e-23)
(-0.187496 6.48882e-05 -1.57089e-21)
(-0.185676 -0.000687419 1.06515e-21)
(-0.183601 -0.00150975 -1.46654e-21)
(-0.181277 -0.00239411 2.68088e-21)
(-0.178708 -0.00334024 -1.67081e-21)
(-0.175897 -0.00434367 -7.65662e-22)
(-0.172846 -0.00539551 -9.76692e-22)
(-0.169558 -0.00648608 7.68665e-22)
(-0.166037 -0.0076044 1.53228e-21)
(-0.162288 -0.00873694 3.00062e-22)
(-0.158312 -0.00987002 -6.90519e-22)
(-0.154115 -0.0109896 -3.80298e-22)
(-0.1497 -0.0120803 -3.57112e-22)
(-0.145072 -0.0131248 -1.22959e-21)
(-0.140236 -0.0141086 9.67874e-22)
(-0.135197 -0.0150172 4.58055e-22)
(-0.129959 -0.0158364 -2.39448e-22)
(-0.124526 -0.0165535 3.88908e-22)
(-0.118903 -0.0171567 -1.0369e-21)
(-0.113095 -0.0176361 1.22245e-21)
(-0.107107 -0.0179833 6.49632e-22)
(-0.100942 -0.0181921 -1.76796e-21)
(-0.0946061 -0.0182587 2.03912e-21)
(-0.088102 -0.0181815 -1.21041e-21)
(-0.0814332 -0.0179613 9.83374e-22)
(-0.0746051 -0.017601 -2.80689e-22)
(-0.0676219 -0.0171094 -8.45929e-22)
(-0.0604871 -0.0164917 -2.49786e-22)
(-0.0532048 -0.0157585 4.39142e-22)
(-0.04578 -0.0149217 9.68696e-22)
(-0.0382181 -0.0139966 -7.90307e-22)
(-0.0305228 -0.0129979 -4.75397e-22)
(-0.0226985 -0.0119418 -8.62002e-23)
(-0.0147529 -0.0108446 5.42524e-22)
(-0.00669099 -0.00972823 -2.29734e-22)
(0.00148179 -0.00860723 8.97738e-23)
(0.00975848 -0.00750151 1.9478e-22)
(0.0181313 -0.00643096 -1.82971e-22)
(0.0265919 -0.00540874 3.42013e-22)
(0.0351354 -0.00444954 3.19874e-23)
(0.0437533 -0.00357343 -3.81878e-22)
(0.0524359 -0.00279254 1.90043e-22)
(0.06117 -0.0021181 -2.44362e-22)
(0.0699496 -0.00157329 1.21747e-23)
(0.0787701 -0.00115317 2.63209e-22)
(0.0876175 -0.000863089 -2.18234e-22)
(0.0964812 -0.000707931 -1.82369e-23)
(0.105351 -0.000689823 -3.0854e-23)
(0.114217 -0.00080847 9.48801e-23)
(0.123069 -0.00106123 -1.52835e-22)
(0.131895 -0.00144318 7.57184e-24)
(0.140683 -0.00194771 2.81175e-23)
(0.149424 -0.0025777 3.7033e-23)
(0.158112 -0.00331218 9.55852e-23)
(0.166733 -0.00414074 -1.42869e-22)
(0.175275 -0.00505241 6.40734e-23)
(0.18373 -0.0060327 4.65323e-23)
(0.19209 -0.00706951 8.62834e-23)
(0.200345 -0.00814928 -1.17801e-22)
(0.208488 -0.00925626 5.31108e-23)
(0.216512 -0.0103764 -2.17723e-23)
(0.22441 -0.0114948 2.14608e-24)
(0.232178 -0.0125969 5.04155e-23)
(0.239811 -0.0136684 -1.81903e-24)
(0.247306 -0.0146956 3.2686e-23)
(0.254661 -0.0156651 -3.51182e-23)
(0.261877 -0.0165644 3.20366e-23)
(0.268953 -0.0173812 -1.7373e-23)
(0.275895 -0.0181043 7.46716e-24)
(0.282698 -0.0187219 -7.70266e-24)
(0.289385 -0.0192245 -5.75975e-24)
(0.295927 -0.0195993 5.26037e-24)
(0.30241 -0.0198369 -7.66559e-24)
(0.308674 -0.0199264 -1.37225e-24)
(0.315115 -0.0198398 -6.77726e-25)
(0.320891 -0.0196142 1.65282e-25)
(0.327954 -0.0190553 -7.10993e-25)
(0.332041 -0.0186233 4.33416e-25)
(0.342664 -0.0169923 -6.10656e-25)
(-0.145709 0.0121224 -3.11055e-22)
(-0.151564 0.00951015 1.88019e-21)
(-0.154735 0.0091988 -6.12343e-21)
(-0.158583 0.00827008 4.83519e-21)
(-0.16162 0.00762668 -2.67914e-21)
(-0.164431 0.00702627 1.76403e-21)
(-0.166848 0.00650066 -3.86219e-23)
(-0.168942 0.00603235 1.16391e-21)
(-0.170712 0.0056087 -6.28785e-21)
(-0.172172 0.00521765 4.56682e-21)
(-0.17333 0.00484616 -1.81374e-21)
(-0.174193 0.0044819 3.36738e-21)
(-0.174768 0.00411371 -2.41444e-21)
(-0.175062 0.00373319 3.50963e-21)
(-0.17508 0.00333098 9.50904e-22)
(-0.174827 0.0028993 -4.68281e-21)
(-0.17431 0.00242889 2.27908e-21)
(-0.173531 0.00191075 2.67604e-21)
(-0.172495 0.0013382 -1.75763e-21)
(-0.171193 0.000730957 -1.73544e-21)
(-0.169651 2.33726e-05 2.74643e-21)
(-0.167873 -0.000776609 -3.90926e-21)
(-0.165837 -0.00163574 -1.06009e-21)
(-0.163555 -0.00256209 7.51536e-21)
(-0.16103 -0.00355472 -1.57467e-21)
(-0.158266 -0.00460731 -5.94244e-21)
(-0.155266 -0.00571599 5.25525e-21)
(-0.152034 -0.0068718 -1.55024e-21)
(-0.148573 -0.00806501 -1.28549e-21)
(-0.144888 -0.00928429 -1.05207e-21)
(-0.140983 -0.0105163 2.29889e-21)
(-0.136863 -0.0117472 9.48118e-22)
(-0.132533 -0.0129626 -1.40124e-21)
(-0.127997 -0.0141477 1.1636e-21)
(-0.123261 -0.0152841 1.34118e-21)
(-0.11833 -0.0163577 -1.99873e-21)
(-0.113211 -0.0173541 1.6123e-21)
(-0.107906 -0.0182591 -3.75861e-22)
(-0.102423 -0.0190597 -7.02188e-22)
(-0.096764 -0.0197442 -5.81003e-23)
(-0.0909352 -0.0203028 -4.50819e-22)
(-0.0849405 -0.0207269 1.29523e-21)
(-0.0787845 -0.0210105 -6.40204e-22)
(-0.0724706 -0.0211498 -1.05751e-21)
(-0.0660024 -0.0211433 -1.52443e-22)
(-0.0593817 -0.0209921 2.09297e-22)
(-0.0526139 -0.0206977 4.72736e-22)
(-0.0457015 -0.0202708 -1.22378e-21)
(-0.0386462 -0.0197154 1.33141e-21)
(-0.0314511 -0.0190426 -7.16899e-22)
(-0.0241199 -0.0182633 -3.82688e-22)
(-0.0166567 -0.0173935 5.13284e-22)
(-0.00906309 -0.0164479 5.95785e-22)
(-0.00134172 -0.0154423 -5.11953e-22)
(0.00650031 -0.0143945 5.23777e-22)
(0.0144592 -0.0133223 -4.45722e-22)
(0.0225324 -0.0122446 3.54369e-23)
(0.0307131 -0.0111783 5.69681e-22)
(0.0389949 -0.0101432 -6.33945e-22)
(0.0473709 -0.00915395 7.79372e-22)
(0.0558356 -0.00822697 -2.77071e-22)
(0.064381 -0.00737953 4.95584e-23)
(0.0729983 -0.00662535 -6.66133e-23)
(0.0816762 -0.00597638 1.48849e-22)
(0.0904072 -0.00543571 -2.58382e-22)
(0.0991842 -0.00501727 -4.10233e-23)
(0.107994 -0.00472796 -1.19823e-23)
(0.116827 -0.00457094 -1.05592e-22)
(0.12567 -0.00454763 1.92857e-22)
(0.134513 -0.0046575 -2.10257e-22)
(0.143345 -0.00489796 -1.65015e-22)
(0.152153 -0.00526458 -4.08682e-23)
(0.160923 -0.00575177 3.91006e-22)
(0.169645 -0.00634602 -3.10102e-22)
(0.17831 -0.00704369 9.67853e-23)
(0.186903 -0.00783351 -5.61921e-23)
(0.195413 -0.0087031 -7.29091e-23)
(0.203829 -0.00963806 6.119e-23)
(0.212141 -0.0106261 3.06062e-24)
(0.22034 -0.0116534 1.15296e-22)
(0.228415 -0.0127053 -1.48654e-22)
(0.23636 -0.0137674 4.82431e-23)
(0.244167 -0.0148254 5.26808e-23)
(0.25183 -0.0158652 2.39274e-24)
(0.259345 -0.016873 7.119e-24)
(0.266709 -0.0178357 -1.75407e-23)
(0.273918 -0.0187402 2.16871e-23)
(0.280974 -0.0195748 -2.85319e-23)
(0.287876 -0.0203276 -8.15382e-24)
(0.29463 -0.0209882 -1.75671e-23)
(0.301232 -0.0215453 5.13341e-24)
(0.307705 -0.0219903 9.03542e-24)
(0.31402 -0.0223109 -3.06453e-24)
(0.320268 -0.0224987 -2.144e-24)
(0.326282 -0.0225447 7.14846e-24)
(0.332475 -0.022418 7.35116e-25)
(0.337986 -0.0221711 6.22441e-25)
(0.344785 -0.0215777 2.11447e-25)
(0.348648 -0.0211814 -6.9414e-25)
(0.358879 -0.0195296 2.30315e-24)
(-0.127809 0.0144955 -4.19603e-23)
(-0.13372 0.0111687 3.12111e-21)
(-0.13619 0.0108447 -2.33738e-21)
(-0.139712 0.00969443 -6.0707e-22)
(-0.14235 0.00887977 2.83074e-21)
(-0.144802 0.00811345 -3.8662e-21)
(-0.146877 0.00742923 -1.21437e-21)
(-0.148643 0.00681013 -2.18879e-21)
(-0.150095 0.00624207 3.25858e-21)
(-0.151248 0.00571191 -4.26701e-21)
(-0.152108 0.00520571 3.1198e-21)
(-0.15268 0.0047106 2.48139e-21)
(-0.152969 0.0042151 -3.6691e-21)
(-0.152981 0.00371095 2.09427e-21)
(-0.152722 0.00318854 -1.8896e-21)
(-0.152197 0.00264027 -2.41983e-21)
(-0.151411 0.002055 -5.77165e-22)
(-0.150368 0.00142749 2.60135e-21)
(-0.149059 0.000768795 2.13036e-21)
(-0.147514 2.11396e-05 -3.5326e-21)
(-0.145736 -0.000825997 3.74911e-21)
(-0.1437 -0.00172006 -4.63974e-21)
(-0.141421 -0.00268381 1.04609e-21)
(-0.138902 -0.00371671 1.29091e-21)
(-0.136145 -0.00481403 -2.90969e-21)
(-0.133155 -0.00596945 1.06042e-21)
(-0.129937 -0.0071797 -1.24354e-21)
(-0.126495 -0.00843556 3.09871e-21)
(-0.122833 -0.00972722 -4.23588e-21)
(-0.118956 -0.0110431 -1.15836e-21)
(-0.114871 -0.0123699 2.49888e-21)
(-0.110582 -0.0136937 -8.63726e-22)
(-0.106095 -0.0149997 -2.18653e-21)
(-0.101416 -0.0162741 3.59976e-21)
(-0.096549 -0.0174968 -5.50154e-22)
(-0.0915033 -0.0186544 8.28061e-22)
(-0.0862835 -0.0197328 -5.94624e-22)
(-0.0808948 -0.0207176 -6.64529e-22)
(-0.0753427 -0.0215957 -3.74522e-21)
(-0.0696323 -0.0223556 4.45868e-22)
(-0.0637677 -0.0229877 2.73262e-21)
(-0.0577535 -0.0234829 -6.86529e-22)
(-0.051594 -0.0238356 -5.79353e-22)
(-0.0452922 -0.0240422 -6.99267e-22)
(-0.0388513 -0.0241015 1.74977e-21)
(-0.0322715 -0.0240145 -5.5766e-22)
(-0.0255584 -0.0237813 1.87282e-22)
(-0.0187136 -0.023415 -1.1845e-21)
(-0.0117364 -0.0229184 5.00964e-22)
(-0.004629 -0.0223023 -6.04526e-22)
(0.00260593 -0.0215795 1.33148e-21)
(0.0099654 -0.0207637 -1.01705e-21)
(0.0174498 -0.0198695 3.42897e-22)
(0.0250576 -0.0189133 -1.24102e-21)
(0.0327841 -0.0179148 9.06904e-22)
(0.0406263 -0.0168874 2.26798e-22)
(0.0485824 -0.0158521 5.32391e-22)
(0.0566473 -0.014826 -7.79366e-22)
(0.0648157 -0.0138276 -4.94584e-23)
(0.0730818 -0.0128727 -3.5462e-22)
(0.0814403 -0.0119774 -1.12437e-22)
(0.0898839 -0.0111573 -5.04849e-22)
(0.0984043 -0.010426 3.5857e-22)
(0.106991 -0.00979522 -2.97606e-23)
(0.115637 -0.00927097 -6.012e-22)
(0.124332 -0.00886449 9.39068e-22)
(0.133065 -0.00858163 -4.24098e-22)
(0.141824 -0.00842576 2.0035e-22)
(0.150598 -0.00839831 -4.05416e-23)
(0.159374 -0.00849874 -4.52461e-22)
(0.16814 -0.00872454 3.07208e-22)
(0.176882 -0.00907139 -8.75085e-24)
(0.185586 -0.00953312 -1.12369e-22)
(0.194241 -0.0100988 1.06738e-22)
(0.202834 -0.0107623 -2.62662e-22)
(0.211351 -0.0115128 6.17897e-23)
(0.21978 -0.0123383 1.0866e-22)
(0.228108 -0.0132255 -5.83494e-23)
(0.236325 -0.0141615 1.25675e-23)
(0.244419 -0.0151327 -1.0189e-22)
(0.252381 -0.0161251 4.13568e-23)
(0.260201 -0.0171246 -6.2e-24)
(0.267873 -0.0181174 -1.16812e-22)
(0.275389 -0.0190898 9.20529e-23)
(0.282744 -0.0200287 -6.76806e-23)
(0.289936 -0.0209213 -1.63362e-23)
(0.296961 -0.0217554 -3.96034e-23)
(0.303819 -0.0225199 5.62218e-23)
(0.310511 -0.0232034 -9.89517e-24)
(0.317043 -0.0237964 -1.279e-23)
(0.32341 -0.024288 -1.04579e-23)
(0.329638 -0.0246706 -6.90503e-24)
(0.335696 -0.0249329 -3.23544e-24)
(0.341681 -0.0250667 2.23519e-25)
(0.347417 -0.0250665 -1.00408e-23)
(0.353336 -0.0248962 5.08281e-25)
(0.358556 -0.0246281 -3.11914e-24)
(0.365065 -0.0239986 2.90365e-25)
(0.368683 -0.0236361 -5.91003e-26)
(0.378471 -0.0219793 -1.94939e-24)
(-0.106214 0.0166607 8.95074e-21)
(-0.11225 0.0125846 -4.33033e-21)
(-0.113903 0.0122828 3.96384e-21)
(-0.117064 0.0109267 -6.38705e-21)
(-0.119255 0.0099493 3.11271e-21)
(-0.121305 0.00902622 1.98822e-21)
(-0.122998 0.00819026 5.78412e-21)
(-0.124397 0.00742618 -2.86134e-21)
(-0.125496 0.0067187 -1.72133e-21)
(-0.126307 0.00605383 -6.39244e-22)
(-0.126835 0.00541686 1.47884e-21)
(-0.127083 0.00479432 -3.41879e-21)
(-0.127055 0.00417446 6.88021e-21)
(-0.126756 0.00354964 -5.56125e-21)
(-0.12619 0.00290972 4.4543e-21)
(-0.125363 0.00224705 -7.06501e-21)
(-0.124279 0.0015535 5.56299e-21)
(-0.122933 0.000834034 -3.43018e-21)
(-0.121352 4.09811e-05 -3.99111e-22)
(-0.119539 -0.000850458 3.96503e-21)
(-0.117472 -0.00178161 -4.75784e-21)
(-0.115165 -0.00278155 3.37323e-21)
(-0.11262 -0.00384952 -4.05862e-21)
(-0.10984 -0.00498507 5.21231e-21)
(-0.106827 -0.0061837 -2.81109e-21)
(-0.10359 -0.00743811 -2.04716e-21)
(-0.100133 -0.00874593 3.47303e-21)
(-0.0964597 -0.0100976 -1.80678e-21)
(-0.092577 -0.0114832 1.18481e-21)
(-0.0884904 -0.0128908 1.70124e-21)
(-0.0842062 -0.0143073 -2.36357e-21)
(-0.0797306 -0.0157186 -1.23591e-21)
(-0.0750716 -0.0171096 2.22098e-21)
(-0.0702327 -0.0184684 8.70247e-22)
(-0.0652208 -0.0197714 1.51336e-21)
(-0.0600458 -0.0210069 -3.07746e-21)
(-0.0547129 -0.0221609 1.062e-21)
(-0.0492276 -0.0232191 2.8133e-21)
(-0.0435958 -0.0241684 -2.50573e-21)
(-0.0378232 -0.0249971 -1.58599e-21)
(-0.0319137 -0.0256965 4.37502e-21)
(-0.0258715 -0.0262564 -1.47926e-21)
(-0.0197015 -0.026672 9.90726e-22)
(-0.013406 -0.02694 -3.02212e-21)
(-0.00698798 -0.0270589 1.44348e-21)
(-0.00044571 -0.0270291 9.11709e-22)
(0.00621469 -0.0268557 -8.48715e-22)
(0.0129917 -0.0265441 -4.68353e-22)
(0.0198895 -0.0261018 -2.99695e-22)
(0.0269052 -0.0255387 -9.79075e-22)
(0.0340383 -0.0248691 1.4045e-21)
(0.0412875 -0.0241043 -5.31576e-22)
(0.0486536 -0.0232595 -1.22255e-22)
(0.0561363 -0.0223514 3.45775e-22)
(0.0637333 -0.0213987 -7.88618e-22)
(0.0714427 -0.0204161 7.46388e-22)
(0.0792634 -0.0194233 2.55285e-22)
(0.0871917 -0.0184375 2.32289e-23)
(0.0952235 -0.0174767 -9.10981e-22)
(0.103354 -0.0165565 2.3639e-22)
(0.111579 -0.0156929 1.74101e-22)
(0.11989 -0.0149009 -6.28308e-23)
(0.128282 -0.0141936 2.65846e-22)
(0.136743 -0.0135826 -8.43731e-22)
(0.145266 -0.0130754 4.55035e-22)
(0.153841 -0.0126812 2.55535e-22)
(0.162457 -0.0124054 -2.26108e-22)
(0.171101 -0.0122514 2.26926e-22)
(0.179762 -0.0122206 -2.97511e-22)
(0.188426 -0.0123124 1.05811e-22)
(0.19708 -0.0125239 -2.12716e-22)
(0.20571 -0.012851 -3.94314e-24)
(0.214301 -0.0132872 4.78294e-22)
(0.22284 -0.0138234 -7.86571e-24)
(0.231314 -0.0144515 -6.72953e-23)
(0.239708 -0.015161 1.08909e-22)
(0.248008 -0.0159404 -4.28937e-23)
(0.256202 -0.0167768 -6.7326e-23)
(0.264276 -0.0176575 9.78449e-23)
(0.272221 -0.0185692 -1.11112e-23)
(0.280024 -0.0194982 -7.19612e-25)
(0.287677 -0.020431 -4.76446e-23)
(0.295171 -0.0213543 4.34595e-23)
(0.302499 -0.0222549 -1.61437e-22)
(0.309656 -0.0231202 8.09345e-23)
(0.316638 -0.0239381 -4.25575e-23)
(0.323443 -0.0246972 6.70825e-23)
(0.330071 -0.0253868 1.40483e-23)
(0.33652 -0.0259963 -1.22927e-23)
(0.3428 -0.0265171 2.81633e-23)
(0.348904 -0.026939 1.23207e-23)
(0.354861 -0.0272552 2.05471e-24)
(0.360635 -0.0274556 -7.3952e-24)
(0.366335 -0.0275317 -7.06795e-25)
(0.37177 -0.0274833 3.0001e-25)
(0.377394 -0.0272662 1.07068e-24)
(0.382302 -0.0269769 -5.4079e-25)
(0.388498 -0.0263102 8.82054e-25)
(0.391859 -0.0259777 -2.79308e-25)
(0.401157 -0.0243307 9.72023e-25)
(-0.0808059 0.0185628 -8.65492e-21)
(-0.0870737 0.013754 1.79431e-22)
(-0.0878164 0.0134896 1.19069e-20)
(-0.0905958 0.0119499 2.07578e-23)
(-0.0923112 0.0108197 -5.55536e-22)
(-0.0939307 0.00975006 5.6628e-21)
(-0.0952178 0.00877043 -1.4456e-20)
(-0.096226 0.00786796 -3.78134e-21)
(-0.0969513 0.00702672 1.06906e-20)
(-0.0974004 0.00623208 -1.29083e-21)
(-0.0975762 0.00546868 -3.73552e-21)
(-0.0974816 0.00472253 5.17782e-21)
(-0.0971173 0.00398152 -7.74939e-21)
(-0.0964879 0.00323896 1.52014e-21)
(-0.0955973 0.00248435 9.58169e-21)
(-0.0944501 0.00171349 -2.7136e-21)
(-0.0930457 0.000922702 -7.57736e-21)
(-0.0914043 7.83096e-05 5.36962e-21)
(-0.0895319 -0.000857168 -2.07247e-21)
(-0.0874139 -0.00183212 -1.1654e-21)
(-0.0850557 -0.0028692 5.15535e-21)
(-0.0824613 -0.00397128 6.5301e-23)
(-0.0796352 -0.00513939 -6.20281e-21)
(-0.0765812 -0.00637428 1.05795e-21)
(-0.0733011 -0.00767087 -1.13674e-21)
(-0.0698037 -0.00902009 1.68049e-21)
(-0.0660957 -0.0104212 -1.54364e-21)
(-0.0621813 -0.0118641 4.51861e-21)
(-0.0580674 -0.0133387 -2.1845e-21)
(-0.0537607 -0.0148332 8.84183e-22)
(-0.0492684 -0.0163341 -1.31156e-21)
(-0.0445975 -0.0178271 6.65696e-22)
(-0.0397581 -0.0192969 -4.56003e-22)
(-0.0347528 -0.0207353 7.16381e-22)
(-0.0295884 -0.0221125 -2.23313e-22)
(-0.0242778 -0.0234191 -2.39634e-21)
(-0.0188261 -0.0246422 2.04466e-21)
(-0.0132393 -0.0257671 -2.57259e-21)
(-0.00752353 -0.0267809 2.36472e-21)
(-0.0016852 -0.0276721 -9.07337e-22)
(0.00427222 -0.0284307 -3.03643e-21)
(0.0103446 -0.029049 4.09722e-21)
(0.0165265 -0.0295214 -1.70922e-21)
(0.0228162 -0.0298444 -2.40456e-21)
(0.0292114 -0.0300167 2.20928e-21)
(0.0357129 -0.0300384 -1.1125e-21)
(0.0423178 -0.0299189 8.10535e-22)
(0.0490246 -0.0296568 1.37697e-21)
(0.0558371 -0.029264 1.5308e-22)
(0.0627544 -0.02875 -2.34586e-21)
(0.0697772 -0.028128 2.60393e-22)
(0.0769058 -0.0274104 1.57947e-21)
(0.0841418 -0.0266121 -1.77165e-21)
(0.0914859 -0.0257497 6.83832e-22)
(0.0989377 -0.0248407 3.60551e-22)
(0.106496 -0.0239012 8.81435e-23)
(0.114162 -0.0229497 -2.04689e-22)
(0.121932 -0.0220033 -3.30229e-23)
(0.129803 -0.0210794 -5.60345e-22)
(0.137771 -0.0201939 -1.35406e-23)
(0.145833 -0.0193621 3.55044e-22)
(0.153983 -0.0185986 3.26901e-22)