/*--------------------------------*- C++ -*----------------------------------*\
  =========                 |
  \\      /  F ield         | OpenFOAM: The Open Source CFD Toolbox
   \\    /   O peration     | Website:  https://openfoam.org
    \\  /    A nd           | Version:  7
     \\/     M anipulation  |
\*---------------------------------------------------------------------------*/
FoamFile
{
    version     2.0;
    format      ascii;
    class       surfaceScalarField;
    location    "10";
    object      phi;
}
// * * * * * * * * * * * * * * * * * * * * * * * * * * * * * * * * * * * * * //

dimensions      [0 3 -1 0 0 0 0];

internalField   nonuniform List<scalar> 
6484
(
-5.54259e-05
5.54259e-05
-0.000186051
0.000130625
-0.000365422
0.000179371
-0.000573528
0.000208106
-0.000797525
0.000223997
-0.00103064
0.000233111
-0.00127014
0.0002395
-0.00151545
0.000245309
-0.00176687
0.000251426
-0.00202501
0.000258138
-0.00229054
0.00026553
-0.00256417
0.000273634
-0.00284663
0.000282453
-0.00313862
0.000291992
0.000302573
-0.00344119
-5.49524e-05
0.000110378
-0.000184683
0.000260355
-0.000363056
0.000357745
-0.000570213
0.000415263
-0.000793347
0.000447131
-0.00102566
0.000465422
-0.00126439
0.000478232
-0.00150894
0.000489858
-0.0017596
0.000502089
-0.00201697
0.000515503
-0.00228171
0.000530271
-0.00255453
0.000546459
-0.00283615
0.000564072
-0.00312728
0.000583119
0.000604222
-0.00342893
-5.40075e-05
0.000164386
-0.00018195
0.000388298
-0.000358328
0.000534122
-0.000563585
0.00062052
-0.000784989
0.000668534
-0.0010157
0.000696132
-0.00125289
0.000715427
-0.00149593
0.00073289
-0.00174506
0.000751228
-0.00200089
0.000771324
-0.00226405
0.000793437
-0.00253526
0.000817668
-0.00281522
0.000844026
-0.00310461
0.000872516
0.000904022
-0.00340441
-5.25956e-05
0.000216981
-0.00017786
0.000513562
-0.000351241
0.000707503
-0.000553645
0.000822925
-0.000772451
0.00088734
-0.00100076
0.00092444
-0.00123565
0.000950322
-0.00147642
0.000973652
-0.00172328
0.000998089
-0.00197679
0.00102484
-0.00223761
0.00105425
-0.0025064
0.00108646
-0.00278387
0.00112149
-0.00307067
0.00115932
0.00120105
-0.0033677
-5.0723e-05
0.000267704
-0.000172421
0.00063526
-0.000341802
0.000876885
-0.000540394
0.00102152
-0.00075573
0.00110268
-0.000980838
0.00114955
-0.00121267
0.00118216
-0.00145042
0.0012114
-0.00169426
0.00124193
-0.00194471
0.0012753
-0.00220241
0.00131195
-0.00246801
0.00135206
-0.00274218
0.00139566
-0.00302554
0.00144269
0.00149439
-0.00331888
-4.83984e-05
0.000316103
-0.000165646
0.000752508
-0.000330022
0.00104126
-0.000523834
0.00121533
-0.000734823
0.00131366
-0.000955927
0.00137065
-0.00118394
0.00141017
-0.00141794
0.00144539
-0.00165802
0.00148201
-0.00190469
0.00152196
-0.00215853
0.00156579
-0.00242017
0.0016137
-0.00269024
0.00166573
-0.00296934
0.00172178
0.00178313
-0.00325808
-4.56326e-05
0.000361735
-0.000157553
0.000864428
-0.000315911
0.00119962
-0.000503965
0.00140338
-0.00070972
0.00151942
-0.000926019
0.00158695
-0.00114947
0.00163362
-0.00137899
0.00167491
-0.00161461
0.00171763
-0.00185677
0.00176412
-0.00210603
0.00181505
-0.00236299
0.00187066
-0.00262822
0.00193096
-0.00290224
0.00199581
0.0020664
-0.00318552
-4.24391e-05
0.000404175
-0.000148162
0.000970151
-0.000299484
0.00135094
-0.000480789
0.00158469
-0.000680411
0.00171904
-0.000891097
0.00179764
-0.00110923
0.00185176
-0.00133356
0.00189924
-0.00156402
0.00194808
-0.00180099
0.00200109
-0.002045
0.00205907
-0.00229659
0.00212225
-0.00255628
0.00219066
-0.0028245
0.00226403
0.00234338
-0.00310149
-3.8834e-05
0.000443009
-0.000137499
0.00106882
-0.000280759
0.0014942
-0.000454306
0.00175823
-0.00064688
0.00191162
-0.000851136
0.00200189
-0.00106321
0.00206384
-0.00128165
0.00211768
-0.00150627
0.0021727
-0.00173739
0.00223222
-0.00197552
0.00229719
-0.00222113
0.00236786
-0.00247469
0.00244422
-0.00273648
0.00252581
0.00261333
-0.00300642
-3.48368e-05
0.000477845
-0.000125595
0.00115957
-0.000259759
0.00162837
-0.000424516
0.00192299
-0.000609106
0.00209621
-0.0008061
0.00219889
-0.00101137
0.00226911
-0.00122322
0.00232953
-0.00144133
0.00239081
-0.00166598
0.00245687
-0.00189761
0.00252882
-0.0021367
0.00260695
-0.00238363
0.00269115
-0.0026385
0.00278068
0.00287568
-0.00290085
-3.0471e-05
0.000508316
-0.00011249
0.00124159
-0.000236516
0.00175239
-0.000391429
0.0020779
-0.000567069
0.00227185
-0.000755952
0.00238777
-0.000953661
0.00246682
-0.00115823
0.0025341
-0.0013692
0.00260178
-0.00158678
0.00267445
-0.0018114
0.00275344
-0.00204356
0.00283911
-0.00228365
0.00293124
-0.00253151
0.00302854
0.00313
-0.00278583
-2.57649e-05
0.000534081
-9.82352e-05
0.00131406
-0.000211075
0.00186523
-0.000355056
0.00222188
-0.00052074
0.00243753
-0.000700621
0.00256765
-0.00088997
0.00265617
-0.00108652
0.00273065
-0.00128963
0.00280489
-0.00149944
0.00288425
-0.00171635
0.00297035
-0.00194089
0.00306365
-0.00217371
0.00316406
-0.0024147
0.00326953
0.00337674
-0.00266143
-2.0753e-05
0.000554834
-8.28988e-05
0.00137621
-0.000183502
0.00196584
-0.000315434
0.00235382
-0.00047012
0.00259222
-0.000640089
0.00273762
-0.000820291
0.00283637
-0.00100814
0.0029185
-0.00120282
0.00299957
-0.00140445
0.00308589
-0.00161351
0.00317941
-0.00183057
0.00328071
-0.00205671
0.0033902
-0.0022929
0.00350571
0.00361729
-0.00253345
-1.54766e-05
0.000570311
-6.65695e-05
0.0014273
-0.000153891
0.00205316
-0.000272622
0.00247255
-0.000415211
0.00273481
-0.000574281
0.00289669
-0.000744441
0.00300653
-0.000922703
0.00309676
-0.00110795
0.00318482
-0.00130018
0.00327811
-0.00149976
0.00337899
-0.00170697
0.00348792
-0.00192255
0.00360578
-0.00215076
0.00373392
0.0038593
-0.00239277
-9.98936e-06
0.0005803
-4.93678e-05
0.00146668
-0.000122371
0.00212616
-0.000226724
0.0025769
-0.000356071
0.00286415
-0.00050322
0.00304384
-0.000662449
0.00316576
-0.000830346
0.00326466
-0.00100554
0.00336001
-0.00118804
0.00346062
-0.00137878
0.00356973
-0.00157924
0.00368838
-0.00179044
0.00381699
-0.00201357
0.00395705
0.00413371
-0.00228798
-4.42851e-06
0.000584729
-3.14393e-05
0.00149369
-8.91157e-05
0.00218384
-0.000177903
0.00266569
-0.000292823
0.00297907
-0.000426977
0.00317799
-0.00057432
0.0033131
-0.000730948
0.00342129
-0.000895072
0.00352413
-0.00106639
0.00363193
-0.00124541
0.00374875
-0.00143294
0.0038759
-0.00163013
0.00401417
-0.00183983
0.00416675
0.00433064
-0.00203676
1.02519e-06
0.000583703
-1.2822e-05
0.00150754
-5.43253e-05
0.00222534
-0.000126389
0.00273775
-0.000225661
0.00307835
-0.000345691
0.00329802
-0.000480131
0.00344754
-0.000624493
0.00356565
-0.000776402
0.00367604
-0.000935001
0.00379053
-0.0011002
0.00391395
-0.0012721
0.0040478
-0.0014505
0.00419257
-0.00163456
0.00435081
0.00452674
-0.00183066
7.21098e-06
0.000576493
6.24483e-06
0.0015085
-1.80812e-05
0.00224967
-7.24786e-05
0.00279215
-0.000154895
0.00316076
-0.000259654
0.00340278
-0.00038021
0.0035681
-0.000511478
0.00369692
-0.000650436
0.003815
-0.000795712
0.00393581
-0.000946843
0.00406508
-0.00110378
0.00420474
-0.00126669
0.00435548
-0.00143555
0.00451967
0.00470225
-0.00161105
1.26166e-05
0.000563876
2.49892e-05
0.00149613
1.85906e-05
0.00225606
-1.63929e-05
0.00282713
-8.09946e-05
0.00322536
-0.000169273
0.00349106
-0.000275049
0.00367387
-0.000392567
0.00381444
-0.00051816
0.00394059
-0.000649997
0.00406764
-0.000787353
0.00420244
-0.000930107
0.00434749
-0.00107846
0.00450384
-0.00123232
0.00467353
0.00486096
-0.00139104
1.78531e-05
0.000546023
4.35575e-05
0.00147043
5.52937e-05
0.00224433
4.04441e-05
0.00284198
-3.92644e-06
0.00326973
-7.49958e-05
0.00356213
-0.000165122
0.003764
-0.000268241
0.00391756
-0.000380113
0.00405247
-0.000498394
0.00418593
-0.000622071
0.00432612
-0.000750893
0.00447631
-0.000884975
0.00463792
-0.00102424
0.0048128
0.0050049
-0.00116818
2.28079e-05
0.000523215
6.16339e-05
0.0014316
9.20213e-05
0.00221394
9.8021e-05
0.00283598
7.38749e-05
0.00329388
2.22489e-05
0.00361375
-5.09516e-05
0.0038372
-0.000138913
0.00400552
-0.000236636
0.00415019
-0.000341158
0.00429045
-0.000451135
0.00443609
-0.00056616
0.00459134
-0.000686269
0.00475803
-0.000811394
0.00493792
0.00513465
-0.000941148
2.73739e-05
0.000495841
7.8877e-05
0.0013801
0.000128029
0.00216479
0.000155859
0.00280815
0.000153779
0.00329596
0.000122265
0.00364527
6.70377e-05
0.00389243
-4.98417e-06
0.00407754
-8.80266e-05
0.00423323
-0.000178512
0.00438093
-0.000274694
0.00453228
-0.000375904
0.00469255
-0.000482129
0.00486425
-0.00059317
0.00504896
0.00525006
-0.000708576
3.1418e-05
0.000464423
9.48971e-05
0.00131662
0.000162654
0.00209703
0.000212936
0.00275787
0.000234077
0.00327482
0.000224307
0.00365504
0.000188345
0.00392839
0.000133278
0.00413261
6.5441e-05
0.00430107
-1.08165e-05
0.00445719
-9.30328e-05
0.00461449
-0.00018038
0.0047799
-0.000272875
0.00495675
-0.000370089
0.00514618
0.00535054
-0.000470571
3.48312e-05
0.000429592
0.000109296
0.00124215
0.000195137
0.00201119
0.000268236
0.00268477
0.000313761
0.00322929
0.000327294
0.00364151
0.00031214
0.00394354
0.000275198
0.00416955
0.000223439
0.00435283
0.000162018
0.00451861
9.38834e-05
0.00468263
2.04258e-05
0.00485335
-5.78264e-05
0.005035
-0.000141307
0.00522966
0.00543712
-0.000227885
3.7522e-05
0.00039207
0.000121688
0.00115799
0.00022468
0.0019082
0.000320618
0.00258883
0.000391549
0.00315836
0.000430017
0.00360304
0.000437419
0.00393614
0.000420087
0.00418688
0.000385413
0.0043875
0.000339385
0.00456464
0.000285801
0.00473621
0.000226559
0.0049126
0.000162091
0.00509947
9.14886e-05
0.00530026
0.00551981
8.79584e-06
3.94185e-05
0.000352651
0.000131711
0.0010657
0.000250456
0.00178945
0.000368798
0.00247049
0.000465893
0.00306127
0.000530941
0.00353799
0.000562867
0.00390422
0.000566942
0.0041828
0.000550714
0.00440373
0.000520994
0.00459436
0.000482503
0.0047747
0.000437858
0.00495724
0.000388199
0.00514913
0.000333984
0.00535448
0.00557586
0.000277934
4.04719e-05
0.000312179
0.000139047
0.000967121
0.00027164
0.00165686
0.000411375
0.00233075
0.000534984
0.00293766
0.00062815
0.00344482
0.000686754
0.00384561
0.000714393
0.00415517
0.000718369
0.00439976
0.000706202
0.00460653
0.000683672
0.00479723
0.000654402
0.00498651
0.00062035
0.00518318
0.00058251
0.00539232
0.00561703
0.000541341
4.06612e-05
0.000271518
0.000143451
0.000864332
0.000287463
0.00151285
0.000446886
0.00217133
0.000596765
0.00278778
0.000719314
0.00332227
0.000806845
0.00375808
0.000860559
0.00410145
0.00088694
0.00437337
0.000893938
0.00459953
0.000888387
0.00480278
0.000875008
0.00499989
0.000856564
0.00520163
0.000834476
0.0054144
0.00564206
0.000809444
3.99994e-05
0.000231519
0.000144775
0.000759556
0.000297283
0.00136034
0.000473899
0.00199471
0.000649002
0.00261268
0.000801689
0.00316959
0.00092032
0.00363945
0.00100293
0.00401884
0.00105441
0.00432189
0.00108267
0.00457127
0.00109543
0.00479002
0.00109861
0.00499671
0.00109597
0.00520426
0.00108967
0.0054207
0.0056507
0.00108103
3.85366e-05
0.000192982
0.000143006
0.000655086
0.000300668
0.00120268
0.000491146
0.00180424
0.000689409
0.00241442
0.000872178
0.00298682
0.00102375
0.00348788
0.00113825
0.00390435
0.00121806
0.00424208
0.00127032
0.00451901
0.00130334
0.00475701
0.00132419
0.00497586
0.0013379
0.00519055
0.00134754
0.00541107
0.0056432
0.00135504
3.63592e-05
0.000156623
0.000138275
0.000553171
0.000297468
0.00104349
0.000497678
0.00160403
0.00071585
0.00219624
0.000927488
0.00277518
0.00111315
0.00330222
0.00126245
0.00375504
0.0013743
0.00413023
0.00145409
0.00443921
0.00151009
0.00470101
0.00155041
0.00493554
0.00158141
0.00515955
0.00160731
0.00538518
0.00561969
0.00163081
3.35872e-05
0.000123036
0.000130865
0.000455893
0.00028788
0.000886472
0.000493036
0.00139887
0.000726602
0.00196268
0.000964397
0.00253738
0.00118408
0.00308253
0.00137064
0.00356849
0.00151847
0.0039824
0.00163009
0.00432759
0.00171279
0.0046183
0.00177525
0.00487308
0.00182515
0.00510965
0.00186807
0.00534226
0.00557999
0.00190777
3.03651e-05
9.26708e-05
0.0001212
0.000365058
0.000272463
0.000735209
0.000477386
0.00119395
0.000720654
0.00171941
0.00098013
0.00227791
0.00123205
0.00283061
0.00145715
0.00334339
0.00164471
0.00379484
0.00179306
0.00417924
0.00190727
0.00450409
0.00199573
0.00478462
0.00206712
0.00503826
0.00212855
0.00528083
0.00552342
0.00218512
2.68521e-05
6.58188e-05
0.00010981
0.000282101
0.00025212
0.000592899
0.000451594
0.000994472
0.000697984
0.00147302
0.000972848
0.00200304
0.00125294
0.00255052
0.00151599
0.00308034
0.00174606
0.00356476
0.00193619
0.00398911
0.00208771
0.00435257
0.00220742
0.00466491
0.00230431
0.00494138
0.00238683
0.00519831
0.0054486
0.00246166
2.32089e-05
4.26099e-05
9.72878e-05
0.000208022
0.000228019
0.000462168
0.000417194
0.000805297
0.000659731
0.00123048
0.000942133
0.00172064
0.0012438
0.00224885
0.00154145
0.00278269
0.0018148
0.00329141
0.00205104
0.00375287
0.00224623
0.00415738
0.00240388
0.00450725
0.00253199
0.00481327
0.00263978
0.00509051
0.00535297
0.00273541
1.95854e-05
2.30245e-05
8.42372e-05
0.00014337
0.000201484
0.000344921
0.000376254
0.000630528
0.000608193
0.000998543
0.000889336
0.0014395
0.00120359
0.0019346
0.00152915
0.00245713
0.00184334
0.00297722
0.00212794
0.00346827
0.00237272
0.00391261
0.00257603
0.00430395
0.00274297
0.00464633
0.00288229
0.00495118
0.00523229
0.00300298
1.61099e-05
6.91466e-06
7.122e-05
8.82597e-05
0.000173862
0.000242279
0.000331152
0.000473238
0.000546608
0.000783086
0.00081764
0.00116847
0.00113382
0.00161842
0.00147724
0.00211371
0.0018256
0.00262886
0.00215709
0.00313678
0.00245526
0.00361444
0.00271181
0.0040474
0.00292673
0.00443142
0.00310622
0.00477169
0.00507989
0.00325862
1.2882e-05
-5.9673e-06
5.87153e-05
4.24264e-05
0.000146397
0.000154597
0.000284313
0.000335321
0.000478768
0.000588632
0.000731753
0.000915482
0.00103872
0.00131146
0.00138738
0.00176504
0.00175875
0.0022575
0.00213043
0.0027651
0.00248146
0.00326341
0.00279662
0.00373223
0.00306887
0.00415917
0.00329933
0.00454123
0.0048862
0.00349302
9.9692e-06
-1.59365e-05
4.70945e-05
5.30108e-06
0.000120138
8.15538e-05
0.000237961
0.000217498
0.000408544
0.000418049
0.000637277
0.000686749
0.00092481
0.00102392
0.00126511
0.00142474
0.00164473
0.00187788
0.00204411
0.00236571
0.00244103
0.00286649
0.00281504
0.00335822
0.00315155
0.00382266
0.00344428
0.0042485
0.00463869
0.00369179
7.41102e-06
-2.33475e-05
3.66172e-05
-2.39051e-05
9.58896e-05
2.22814e-05
0.000193951
0.000119436
0.000339474
0.000272526
0.000539951
0.000486272
0.000799979
0.000763896
0.00111924
0.00110549
0.0014908
0.00150632
0.00190068
0.00195583
0.00232924
0.00243793
0.00275443
0.00293303
0.00315593
0.00342116
0.0035195
0.00388493
0.00432313
0.00383506
5.22509e-06
-2.85726e-05
2.74447e-05
-4.61248e-05
7.42153e-05
-2.44892e-05
0.00015369
3.99612e-05
0.000274469
0.000151747
0.000444972
0.000315769
0.000672276
0.000536592
0.00096045
0.000817311
0.00130868
0.00115808
0.00170979
0.00155472
0.00214987
0.00199786
0.00260959
0.00247331
0.003067
0.00296375
0.00350211
0.00344982
0.00392783
0.0038974
3.41508e-06
-3.19877e-05
1.96627e-05
-6.23724e-05
5.54654e-05
-6.02918e-05
0.000118146
-2.27197e-05
0.000215703
5.41904e-05
0.000356558
0.000174914
0.000548906
0.000344244
0.000799579
0.000566639
0.00111247
0.000845189
0.00148683
0.00118036
0.00191587
0.00156881
0.00238647
0.00200272
0.00288
0.00247022
0.00337526
0.00295456
0.00344777
0.00385532
1.97687e-06
-3.39646e-05
1.33007e-05
-7.36963e-05
3.98161e-05
-8.68072e-05
8.78896e-05
-7.07932e-05
0.000164603
-2.25234e-05
0.00027775
6.17672e-05
0.000435568
0.000186426
0.00064611
0.000356096
0.000916185
0.000575114
0.00124992
0.000846628
0.00164721
0.00117153
0.00210248
0.00154744
0.00260422
0.00196848
0.00313585
0.00242294
0.0028949
0.00368872
8.99326e-07
-3.48639e-05
8.33851e-06
-8.11355e-05
2.72904e-05
-0.000105759
6.31365e-05
-0.000106639
0.000121903
-8.12896e-05
0.000210387
-2.67176e-05
0.000336146
6.06675e-05
0.000507246
0.000184996
0.000731695
0.000350666
0.0010165
0.000561822
0.00136643
0.000821592
0.00178272
0.00113116
0.0022624
0.00148879
0.00279722
0.00188812
0.00228777
0.00340436
1.61994e-07
-3.50259e-05
4.69983e-06
-8.56733e-05
1.77556e-05
-0.000118815
4.37636e-05
-0.000132647
8.76811e-05
-0.000125207
0.000155164
-9.42005e-05
0.000252682
-3.68506e-05
0.00038751
5.01677e-05
0.000567517
0.000170659
0.000800677
0.000328662
0.0010943
0.000527968
0.00145407
0.000771387
0.00188338
0.00105948
0.00238458
0.00138692
0.00166368
0.00300867
-2.79594e-07
-3.47463e-05
2.23789e-06
-8.81908e-05
1.09114e-05
-0.000127488
2.93115e-05
-0.000151047
6.14031e-05
-0.000157299
0.000111714
-0.000144511
0.00018549
-0.000110627
0.000288798
-5.31398e-05
0.000428507
3.09497e-05
0.000612089
0.00014508
0.000847135
0.000292922
0.00114053
0.000477991
0.00149683
0.000703182
0.00191444
0.000969309
-4.7747e-07
-3.42688e-05
7.33381e-07
-8.94016e-05
6.28779e-06
-0.000133043
1.89995e-05
-0.000163759
4.19731e-05
-0.000180272
7.87351e-05
-0.000181273
0.000133377
-0.000165269
0.000210685
-0.000130448
0.00031621
-7.45749e-05
0.000456225
5.06455e-06
0.000637487
0.00011166
0.000866739
0.000248738
0.0011502
0.000419724
-5.14901e-07
-3.37539e-05
-9.85557e-08
-8.9818e-05
3.26873e-06
-0.00013641
1.17769e-05
-0.000172267
2.78296e-05
-0.000196325
5.41429e-05
-0.000207587
9.38562e-05
-0.000204982
0.00015065
-0.000187241
0.000228848
-0.000152774
0.000333487
-9.95742e-05
0.000470314
-2.51665e-05
0.000645772
7.328e-05
0.000198258
-4.84041e-07
-3.32699e-05
-6.01775e-07
-8.97002e-05
1.1437e-06
-0.000138155
6.423e-06
-0.000177547
1.71067e-05
-0.000207009
3.53107e-05
-0.000225791
6.34738e-05
-0.000233145
0.000104454
-0.000228221
0.000161641
-0.00020996
0.000239078
-0.000177011
0.000341621
-0.00012771
0.000475187
-6.0286e-05
-4.76806e-07
-3.27931e-05
-1.09727e-06
-8.90798e-05
-8.00699e-07
-0.000138452
1.6945e-06
-0.000180042
7.86989e-06
-0.000213184
1.94282e-05
-0.000237349
3.83417e-05
-0.000252059
6.69291e-05
-0.000256809
0.000107961
-0.000250992
0.000164806
-0.000233856
0.000241643
-0.000204546
-5.76376e-07
-3.22167e-05
-1.8863e-06
-8.77699e-05
-3.19796e-06
-0.00013714
-3.5128e-06
-0.000179727
-1.61917e-06
-0.000215078
3.91187e-06
-0.00024288
1.47608e-05
-0.000262908
3.29155e-05
-0.000274964
6.07643e-05
-0.000278841
0.000101231
-0.000274323
-0.000261283
-8.42876e-07
-3.13738e-05
-3.18188e-06
-8.54308e-05
-6.50454e-06
-0.000133818
-1.00068e-05
-0.000176225
-1.26584e-05
-0.000212426
-1.32099e-05
-0.000242328
-1.01767e-05
-0.000265941
-1.79406e-06
-0.000283346
1.4053e-05
-0.000294688
3.99331e-05
-0.000300203
-1.30537e-06
-3.00684e-05
-5.08747e-06
-8.16487e-05
-1.09467e-05
-0.000127959
-1.81949e-05
-0.000168976
-2.59226e-05
-0.000204699
-3.30141e-05
-0.000235237
-3.81415e-05
-0.000260814
-3.97383e-05
-0.000281749
-3.59529e-05
-0.000298474
-0.000311566
-1.95737e-06
-2.81111e-05
-7.58236e-06
-7.60238e-05
-1.6489e-05
-0.000119052
-2.80398e-05
-0.000157426
-4.14044e-05
-0.000191334
-5.55802e-05
-0.000221061
-6.93955e-05
-0.000246998
-8.14997e-05
-0.000269645
-9.03423e-05
-0.000289631
-2.75766e-06
-2.53534e-05
-1.05263e-05
-6.82551e-05
-2.28495e-05
-0.000106729
-3.9087e-05
-0.000141188
-5.84588e-05
-0.000171962
-8.00669e-05
-0.000199453
-0.000102907
-0.000224158
-0.000125872
-0.00024668
-0.000267751
-3.63598e-06
-2.17174e-05
-1.36816e-05
-5.82095e-05
-2.95479e-05
-9.08624e-05
-5.05535e-05
-0.000120182
-7.59475e-05
-0.000146568
-0.000104931
-0.00017047
-0.000136672
-0.000192416
-0.000170324
-0.000213028
-0.00023304
-4.50286e-06
-1.72146e-05
-1.67479e-05
-4.59644e-05
-3.59817e-05
-7.16286e-05
-6.1459e-05
-9.47052e-05
-9.2443e-05
-0.000115584
-0.000128224
-0.000134689
-0.000168138
-0.000152502
-0.000211587
-0.000169578
-0.000186562
-5.26234e-06
-1.19522e-05
-1.94066e-05
-3.18201e-05
-4.15155e-05
-4.95197e-05
-7.07752e-05
-6.54455e-05
-0.000106454
-7.99058e-05
-0.000147915
-9.3228e-05
-0.000194639
-0.000105778
-0.000246246
-0.000117972
-0.000130285
-5.82603e-06
-6.12621e-06
-2.13664e-05
-1.62798e-05
-4.55731e-05
-2.5313e-05
-7.75754e-05
-3.34433e-05
-0.000116641
-4.08403e-05
-0.000162187
-4.7682e-05
-0.000213799
-5.41659e-05
-0.000271257
-6.05136e-05
-6.12622e-06
-2.2406e-05
-4.7719e-05
-8.11622e-05
-0.000122002
-0.000169684
-0.00022385
-0.00404674
0.000605552
-0.00433159
0.000284842
-0.00455972
0.000228136
-0.00465997
0.000100249
-0.00475873
9.87636e-05
-0.00478978
3.10485e-05
-0.00483143
4.16496e-05
-0.0048324
9.69635e-07
-0.00484369
1.12896e-05
-0.00482867
-1.50244e-05
-0.00482125
-7.42075e-06
-0.00479643
-2.48178e-05
-0.004776
-2.04319e-05
-0.00474413
-3.18665e-05
-3.00848e-05
-0.00403371
0.00121033
-0.00431913
0.000570267
-0.00454788
0.00045688
-0.00464921
0.000201579
-0.00474884
0.0001984
-0.00478102
6.32241e-05
-0.00482355
8.41857e-05
-0.00482562
3.03132e-06
-0.00483778
2.34535e-05
-0.00482385
-2.89581e-05
-0.00481733
-1.3932e-05
-0.00479356
-4.85949e-05
-0.00477405
-3.9937e-05
-0.00474319
-6.27321e-05
-5.92264e-05
-0.0040076
0.00181352
-0.00429425
0.000856917
-0.0045242
0.000686832
-0.0046277
0.000305079
-0.00472908
0.000299781
-0.00476351
9.76523e-05
-0.00480781
0.000128488
-0.00481206
7.283e-06
-0.00482598
3.73657e-05
-0.00481422
-4.07186e-05
-0.00480952
-1.86253e-05
-0.00478782
-7.02958e-05
-0.00477017
-5.75894e-05
-0.0047413
-9.15995e-05
-8.64836e-05
-0.00396838
0.0024142
-0.00425701
0.00114554
-0.00448874
0.000918572
-0.0045955
0.000411838
-0.0046995
0.000403778
-0.0047373
0.000135454
-0.00478425
0.000175432
-0.00479178
1.48209e-05
-0.00480832
5.39041e-05
-0.0047998
-4.92378e-05
-0.00479783
-2.05943e-05
-0.00477924
-8.88952e-05
-0.00476436
-7.2465e-05
-0.00473848
-0.000117479
-0.000110919
-0.00391599
0.00301131
-0.00420749
0.00143704
-0.00444157
0.00115266
-0.00455269
0.000522953
-0.00466017
0.000511263
-0.00470246
0.000177743
-0.00475292
0.000225888
-0.00476483
2.67333e-05
-0.00478488
7.39505e-05
-0.00478065
-5.34656e-05
-0.0047823
-1.89407e-05
-0.00476782
-0.000103379
-0.00475664
-8.36438e-05
-0.00473473
-0.00013939
-0.000131602
-0.0038504
0.00360363
-0.0041458
0.00173244
-0.00438279
0.00138965
-0.00449935
0.000639512
-0.0046112
0.00062311
-0.00465908
0.000225623
-0.00471391
0.000280723
-0.00473127
4.40937e-05
-0.00475571
9.83921e-05
-0.00475681
-5.23695e-05
-0.00476298
-1.27716e-05
-0.0047536
-0.000112761
-0.00474703
-9.02116e-05
-0.00473005
-0.000156367
-0.000147609
-0.00377159
0.00418971
-0.00407192
0.00203276
-0.00431253
0.00163026
-0.00443562
0.000762595
-0.0045527
0.000740197
-0.00460726
0.000280179
-0.00466734
0.000340802
-0.0046912
6.79565e-05
-0.00472094
0.000128127
-0.00472831
-4.49977e-05
-0.00473995
-1.1329e-06
-0.00473659
-0.000116119
-0.00473556
-9.12423e-05
-0.00472447
-0.00016746
-0.000158029
-0.00367964
0.00476786
-0.00398591
0.00233904
-0.00423098
0.00187533
-0.00436164
0.000893252
-0.00448485
0.000863408
-0.00454715
0.000342479
-0.00461333
0.000406985
-0.00464473
9.93537e-05
-0.00468064
0.00016403
-0.00469541
-3.02245e-05
-0.0047131
1.65574e-05
-0.00471687
-0.000112352
-0.00472226
-8.58475e-05
-0.00471798
-0.00017174
-0.000161965
-0.00357469
0.00533613
-0.00388789
0.00265224
-0.00413837
0.00212581
-0.00427762
0.0010325
-0.00440784
0.000993624
-0.00447892
0.000413561
-0.00455206
0.000480124
-0.00459199
0.000139288
-0.00463491
0.000206949
-0.00465793
-7.20176e-06
-0.00468277
4.139e-05
-0.00469447
-0.000100652
-0.00470716
-7.31505e-05
-0.00471061
-0.000168291
-0.000158533
-0.00345705
0.00589232
-0.00377801
0.0029732
-0.00403499
0.0023828
-0.00418378
0.00118128
-0.00432189
0.00113173
-0.00440276
0.000494438
-0.0044837
0.000561058
-0.00453311
0.000188697
-0.00458405
0.000257893
-0.00461596
2.47125e-05
-0.00464889
7.43181e-05
-0.00466948
-8.00608e-05
-0.00469032
-5.23177e-05
-0.00470238
-0.000156224
-0.000146871
-0.00332717
0.00643367
-0.00365649
0.00330252
-0.00392122
0.00264753
-0.00408042
0.00134048
-0.00422729
0.0012786
-0.00431894
0.000586089
-0.00440846
0.000650583
-0.00446827
0.000248502
-0.00452796
0.000317582
-0.00456988
6.66345e-05
-0.00461163
0.00011607
-0.00464197
-4.97174e-05
-0.00467176
-2.253e-05
-0.00469331
-0.000134679
-0.000126132
-0.00318594
0.00695817
-0.00352368
0.00364026
-0.00379753
0.00292138
-0.00396798
0.00151094
-0.00412436
0.00143497
-0.00422775
0.000689479
-0.0043266
0.000749434
-0.00439769
0.000319593
-0.00446687
0.000386765
-0.00451969
0.000119451
-0.00457109
0.000167467
-0.00461202
-8.7867e-06
-0.00465153
1.69774e-05
-0.00468341
-0.000102797
-9.54952e-05
-0.00303438
0.00745911
-0.0033797
0.00398559
-0.00366416
0.00320584
-0.00384665
0.00169342
-0.00401326
0.00160158
-0.00412936
0.000805585
-0.00423828
0.000858352
-0.00432154
0.000402856
-0.00440101
0.000466228
-0.00446552
0.000183969
-0.00452744
0.000229384
-0.00457962
4.33901e-05
-0.00462968
6.70439e-05
-0.00467272
-5.97608e-05
-5.41695e-05
-0.00287698
0.00794332
-0.00322624
0.00433485
-0.00352238
0.00350198
-0.00371747
0.0018885
-0.00389468
0.0017788
-0.00402434
0.000935243
-0.00414395
0.000977969
-0.00424016
0.000499066
-0.00433063
0.000556695
-0.0044076
0.000260942
-0.00448071
0.00030249
-0.00454498
0.000107664
-0.00460633
0.000128393
-0.00466127
-4.82019e-06
-1.39771e-06
-0.00272891
0.00838425
-0.00307924
0.00468519
-0.00338589
0.00380863
-0.00359053
0.00209314
-0.00377798
0.00196625
-0.00391735
0.00107461
-0.00404878
0.0011094
-0.00415549
0.000605779
-0.0042585
0.000659702
-0.00434663
0.000349065
-0.00443243
0.000388296
-0.00450817
0.000183406
-0.00458233
0.000202546
-0.00464884
6.16954e-05
6.38061e-05
-0.0267953
0.0073958
0.0277837
-0.0261383
0.00402814
-0.0266585
0.0043289
-0.0267884
0.00222298
-0.0273
0.00247784
-0.0274703
0.0012449
-0.0278351
0.00147425
-0.0279521
0.000722799
-0.0282019
0.000909486
-0.0282677
0.000414822
-0.0284338
0.000554462
-0.0284616
0.000211191
-0.0285643
0.000305193
-0.0285484
4.58335e-05
0.000101192
-0.0277893
0.00609813
0.029087
-0.0275797
0.00381853
-0.0273509
0.00410014
-0.0274626
0.00233462
-0.0276293
0.00264461
-0.0277832
0.00139876
-0.0279924
0.00168342
-0.0280996
0.000830076
-0.0282708
0.00108064
-0.0283341
0.00047812
-0.0284569
0.000677281
-0.0284876
0.000241928
-0.0285657
0.000383301
-0.0285559
3.59814e-05
0.000131085
-0.028716
0.00503944
0.0297747
-0.0284231
0.00352568
-0.0280396
0.00371664
-0.0280534
0.00234835
-0.0279882
0.00257941
-0.0281023
0.00151291
-0.0281506
0.00173173
-0.0282664
0.000945802
-0.0283339
0.00114822
-0.0284206
0.000564741
-0.0284735
0.000730222
-0.0285265
0.000294897
-0.0285561
0.000412937
-0.0285778
5.76376e-05
0.000139111
-0.0293207
0.0041981
0.030162
-0.0289609
0.00316594
-0.0285449
0.00330061
-0.0284845
0.00228796
-0.0283169
0.00241177
-0.0283691
0.00156515
-0.0283275
0.00169011
-0.028413
0.00103129
-0.028416
0.00115121
-0.0284926
0.000641408
-0.0285016
0.00073919
-0.028555
0.000348283
-0.0285579
0.000415846
-0.0285915
9.12162e-05
0.000133416
-0.0296644
0.0035311
0.0303314
-0.0292983
0.00279986
-0.0289064
0.0029087
-0.0287762
0.0021577
-0.0285808
0.00221639
-0.0285709
0.00155526
-0.0284873
0.00160649
-0.0285279
0.00107196
-0.0284976
0.00112085
-0.0285477
0.000691489
-0.0285348
0.00072631
-0.0285755
0.000389047
-0.0285663
0.000406599
-0.0285971
0.000122025
0.00012209
-0.029839
0.00298616
0.0303839
-0.0294973
0.00245818
-0.0291444
0.00255586
-0.0289771
0.00199041
-0.0287763
0.00201556
-0.0287199
0.00149885
-0.0286173
0.00150389
-0.0286173
0.00107194
-0.0285685
0.00107212
-0.0285904
0.000713354
-0.028566
0.000701901
-0.0285905
0.000413496
-0.0285757
0.000391805
-0.028598
0.000144372
0.00010987
-0.0299083
0.002537
0.0303574
-0.0296013
0.00215126
-0.0292875
0.00224197
-0.029108
0.00181098
-0.0289121
0.00181958
-0.0288261
0.00141286
-0.0287158
0.00139359
-0.0286854
0.00104164
-0.0286256
0.00101228
-0.0286239
0.000711618
-0.0285923
0.000670371
-0.0286016
0.000422761
-0.0285838
0.000373984
-0.028597
0.000157622
9.86208e-05
-0.0299111
0.00216477
0.0302833
-0.0296401
0.00188029
-0.0293629
0.00196468
-0.029185
0.00163313
-0.0289995
0.00163404
-0.028898
0.00131136
-0.028785
0.00128062
-0.0287353
0.000991932
-0.0286689
0.000945842
-0.0286495
0.000692295
-0.028613
0.000633876
-0.02861
0.00041971
-0.0285901
0.000354086
-0.0285957
0.000163181
8.87565e-05
-0.0298719
0.00185458
0.0301821
-0.0296348
0.00164317
-0.0293912
0.00172109
-0.0292221
0.00146403
-0.0290498
0.00146172
-0.0289423
0.00120385
-0.0288304
0.00116868
-0.0287689
0.000930508
-0.0286997
0.000876579
-0.0286683
0.000660931
-0.0286283
0.000593908
-0.0286161
0.000407477
-0.0285947
0.000332641
-0.0285944
0.000162923
8.0134e-05
-0.0298072
0.00159461
0.0300672
-0.0296006
0.00143657
-0.0293874
0.00150789
-0.0292306
0.00130718
-0.0290726
0.0013038
-0.0289651
0.00109632
-0.028857
0.00106055
-0.0287895
0.00086301
-0.0287196
0.00080672
-0.028681
0.000622302
-0.0286389
0.000551857
-0.0286203
0.000388827
-0.0285978
0.000310156
-0.0285934
0.00015855
7.24929e-05
-0.0297281
0.00137557
0.0299472
-0.0295484
0.0012569
-0.0293622
0.00132164
-0.029219
0.00116395
-0.0290756
0.00116042
-0.0289717
0.000992423
-0.0288692
0.000958083
-0.0287997
0.00079343
-0.0287309
0.000737971
-0.0286882
0.000579604
-0.0286456
0.000509243
-0.0286228
0.000366029
-0.0285998
0.00028716
-0.0285927
0.000151414
6.56154e-05
-0.0296422
0.00119014
0.0298276
-0.029486
0.0011007
-0.0293234
0.0011591
-0.0291939
0.00103446
-0.0290647
0.00103115
-0.0289665
0.00089429
-0.0288708
0.000862379
-0.0288019
0.000724484
-0.0287356
0.000671641
-0.0286911
0.000535146
-0.028649
0.000467094
-0.0286239
0.000341003
-0.0286009
0.000264165
-0.028592
0.00014253
5.93563e-05
-0.0295544
0.00103247
0.029712
-0.0294185
0.00096487
-0.0292767
0.00101725
-0.0291604
0.000918183
-0.0290444
0.000915184
-0.0289532
0.000803038
-0.0288648
0.000773955
-0.0287982
0.000657948
-0.0287352
0.000608644
-0.0286907
0.000490619
-0.0286498
0.000426186
-0.0286238
0.00031504
-0.0286014
0.000241722
-0.0285915
0.000132657
5.36211e-05
-0.029468
0.000897855
0.0296026
-0.0293498
0.000846654
-0.029226
0.00089341
-0.029122
0.000814254
-0.0290184
0.000811535
-0.0289345
0.000719124
-0.0288534
0.000692933
-0.0287904
0.000594922
-0.0287313
0.000549555
-0.0286879
0.000447212
-0.0286488
0.000387106
-0.0286229
0.000289051
-0.0286013
0.000220157
-0.0285911
0.000122435
4.83437e-05
-0.0293852
0.000782499
0.0295006
-0.0292822
0.000743657
-0.029174
0.000785226
-0.0290814
0.000721658
-0.028989
0.00071915
-0.0289125