/*--------------------------------*- C++ -*----------------------------------*\
  =========                 |
  \\      /  F ield         | OpenFOAM: The Open Source CFD Toolbox
   \\    /   O peration     | Website:  https://openfoam.org
    \\  /    A nd           | Version:  7
     \\/     M anipulation  |
\*---------------------------------------------------------------------------*/
FoamFile
{
    version     2.0;
    format      ascii;
    class       surfaceScalarField;
    location    "55";
    object      phi;
}
// * * * * * * * * * * * * * * * * * * * * * * * * * * * * * * * * * * * * * //

dimensions      [0 3 -1 0 0 0 0];

internalField   nonuniform List<scalar> 
6869
(
-0.000194195
0.0146988
0.000225207
-0.000161976
0.015734
-0.000134834
0.0162026
-0.000112896
0.0163538
-9.47175e-05
0.0163591
-7.91613e-05
0.016308
-6.55659e-05
0.0162391
-5.35741e-05
0.0161669
-4.29899e-05
0.0160959
-3.36912e-05
0.0160271
-2.55838e-05
0.0159607
-1.85825e-05
0.0158964
-1.26024e-05
0.0158343
-7.56837e-06
0.0157746
-3.39536e-06
0.0157174
-1.24474e-08
0.0156631
2.67646e-06
0.0156117
4.71873e-06
0.0155636
6.185e-06
0.0155187
7.13984e-06
0.0154772
7.63874e-06
0.0154393
7.74088e-06
0.015405
7.4973e-06
0.0153744
6.95747e-06
0.0153475
6.16847e-06
0.0153244
5.17526e-06
0.0153051
4.02082e-06
0.0152896
2.74615e-06
0.015278
1.39231e-06
0.0152702
0.0152664
-0.000214196
0.0146691
0.000243829
-0.000182392
0.0157022
-0.000154965
0.0161752
-0.000132384
0.0163312
-0.000113441
0.0163402
-9.70805e-05
0.0162917
-8.26701e-05
0.0162247
-6.98622e-05
0.0161541
-5.8464e-05
0.0160845
-4.83541e-05
0.016017
-3.94388e-05
0.0159518
-3.16339e-05
0.0158886
-2.48585e-05
0.0158275
-1.90322e-05
0.0157687
-1.40755e-05
0.0157125
-9.90958e-06
0.0156589
-6.46879e-06
0.0156083
-3.67669e-06
0.0155608
-1.46977e-06
0.0155165
2.13523e-07
0.0154755
1.43984e-06
0.0154381
2.25692e-06
0.0154042
2.71909e-06
0.0153739
2.87714e-06
0.0153473
2.77913e-06
0.0153245
2.47095e-06
0.0153054
1.99708e-06
0.0152901
1.39883e-06
0.0152786
7.19312e-07
0.0152709
0.0152671
-0.000233573
0.0146408
0.0002619
-0.00020218
0.0156708
-0.000174489
0.0161475
-0.000151304
0.016308
-0.000131628
0.0163205
-0.000114495
0.0162745
-9.92995e-05
0.0162095
-8.57056e-05
0.0161405
-7.35232e-05
0.0160723
-6.2631e-05
0.0160061
-5.29364e-05
0.0159421
-4.43561e-05
0.01588
-3.68104e-05
0.01582
-3.02192e-05
0.0157622
-2.45048e-05
0.0157068
-1.95917e-05
0.015654
-1.54078e-05
0.0156041
-1.18835e-05
0.0155572
-8.95246e-06
0.0155135
-6.55163e-06
0.0154731
-4.62449e-06
0.0154362
-3.11192e-06
0.0154027
-1.96117e-06
0.0153728
-1.12132e-06
0.0153465
-5.43686e-07
0.0153239
-1.81605e-07
0.015305
9.86701e-09
0.0152899
7.67571e-08
0.0152785
5.91873e-08
0.0152709
0.0152671
-0.000252334
0.0146137
0.000279427
-0.000221343
0.0156399
-0.000193412
0.0161196
-0.000169656
0.0162843
-0.00014928
0.0163001
-0.000131404
0.0162567
-0.000115454
0.0161936
-0.000101104
0.0161261
-8.81669e-05
0.0160594
-7.65213e-05
0.0159945
-6.60753e-05
0.0159316
-5.67469e-05
0.0158707
-4.84568e-05
0.0158117
-4.11266e-05
0.0157548
-3.46793e-05
0.0157003
-2.90404e-05
0.0156484
-2.41374e-05
0.0155992
-1.9902e-05
0.015553
-1.62679e-05
0.0155099
-1.31727e-05
0.0154701
-1.05573e-05
0.0154336
-8.36472e-06
0.0154005
-6.54078e-06
0.015371
-5.03394e-06
0.015345
-3.79476e-06
0.0153227
-2.77571e-06
0.015304
-1.93074e-06
0.015289
-1.21609e-06
0.0152778
-5.87058e-07
0.0152703
0.0152665
-0.000270484
0.0145878
0.000296417
-0.000239887
0.0156093
-0.000211738
0.0160914
-0.000187441
0.01626
-0.000166397
0.0162791
-0.00014781
0.0162381
-0.000131135
0.0161769
-0.000116059
0.016111
-0.000102395
0.0160457
-9.00241e-05
0.0159821
-7.88545e-05
0.0159205
-6.88047e-05
0.0158606
-5.97963e-05
0.0158027
-5.17522e-05
0.0157468
-4.45961e-05
0.0156932
-3.8254e-05
0.015642
-3.26544e-05
0.0155936
-2.77288e-05
0.0155481
-2.34117e-05
0.0155056
-1.96407e-05
0.0154663
-1.63558e-05
0.0154303
-1.35003e-05
0.0153976
-1.10198e-05
0.0153685
-8.86193e-06
0.0153428
-6.97673e-06
0.0153208
-5.31595e-06
0.0153023
-3.83305e-06
0.0152875
-2.48255e-06
0.0152764
-1.21979e-06
0.015269
0.0152653
-0.000288029
0.0145629
0.000312873
-0.000257814
0.015579
-0.000229469
0.0160631
-0.000204662
0.0162352
-0.00018298
0.0162574
-0.000163711
0.0162188
-0.000146342
0.0161595
-0.000130568
0.0160953
-0.000116207
0.0160313
-0.000103139
0.0159691
-9.12731e-05
0.0159086
-8.05285e-05
0.0158499
-7.08277e-05
0.015793
-6.20945e-05
0.015738
-5.42534e-05
0.0156853
-4.7231e-05
0.015635
-4.09566e-05
0.0155873
-3.53619e-05
0.0155425
-3.03817e-05
0.0155006
-2.59534e-05
0.0154619
-2.20174e-05
0.0154263
-1.85165e-05
0.0153941
-1.53959e-05
0.0153654
-1.2603e-05
0.01534
-1.00872e-05
0.0153183
-7.79963e-06
0.0153
-5.69305e-06
0.0152854
-3.72118e-06
0.0152745
-1.83865e-06
0.0152671
0.0152635
-0.000304974
0.0145391
0.0003288
-0.000275129
0.0155492
-0.000246605
0.0160346
-0.000221318
0.0162099
-0.00019903
0.0162351
-0.00017911
0.0161989
-0.000161076
0.0161415
-0.000144633
0.0160788
-0.000129603
0.0160163
-0.000115866
0.0159553
-0.000103331
0.0158961
-9.19176e-05
0.0158385
-8.15499e-05
0.0157826
-7.21522e-05
0.0157286
-6.36497e-05
0.0156768
-5.59698e-05
0.0156273
-4.90423e-05
0.0155804
-4.27994e-05
0.0155362
-3.71759e-05
0.015495
-3.21095e-05
0.0154568
-2.75405e-05
0.0154218
-2.34116e-05
0.01539
-1.96677e-05
0.0153616
-1.62558e-05
0.0153366
-1.31249e-05
0.0153151
-1.02257e-05
0.0152972
-7.51009e-06
0.0152827
-4.93138e-06
0.0152719
-2.44336e-06
0.0152647
0.015261
-0.000321322
0.0145162
0.000344199
-0.000291834
0.0155197
-0.000263149
0.0160059
-0.000237411
0.0161842
-0.000214547
0.0162122
-0.000194006
0.0161784
-0.000175337
0.0161228
-0.000158255
0.0160617
-0.000142583
0.0160006
-0.000128204
0.0159409
-0.000115027
0.0158829
-0.000102971
0.0158264
-9.19621e-05
0.0157716
-8.19243e-05
0.0157186
-7.27839e-05
0.0156677
-6.44691e-05
0.015619
-5.69102e-05
0.0155728
-5.00397e-05
0.0155294
-4.37928e-05
0.0154887
-3.81073e-05
0.0154511
-3.29236e-05
0.0154166
-2.81842e-05
0.0153853
-2.38338e-05
0.0153573
-1.98192e-05
0.0153326
-1.6089e-05
0.0153114
-1.25933e-05
0.0152937
-9.28361e-06
0.0152794
-6.1127e-06
0.0152687
-3.0337e-06
0.0152616
0.015258
-0.000337076
0.0144943
0.00035907
-0.000307931
0.0154906
-0.000279103
0.0159771
-0.000252941
0.016158
-0.000229533
0.0161888
-0.000208401
0.0161572
-0.000189125
0.0161035
-0.000171432
0.016044
-0.000155148
0.0159843
-0.000140154
0.015926
-0.000126361
0.0158691
-0.00011369
0.0158137
-0.000102064
0.01576
-9.14101e-05
0.015708
-8.16552e-05
0.0156579
-7.27279e-05
0.0156101
-6.45591e-05
0.0155647
-5.70817e-05
0.0155219
-5.02312e-05
0.0154819
-4.39457e-05
0.0154448
-3.81656e-05
0.0154108
-3.28332e-05
0.0153799
-2.78932e-05
0.0153523
-2.32922e-05
0.015328
-1.89785e-05
0.0153071
-1.49017e-05
0.0152896
-1.10131e-05
0.0152755
-7.26478e-06
0.015265
-3.60945e-06
0.0152579
0.0152544
-0.000352239
0.0144731
0.000373414
-0.000323422
0.0154618
-0.000294466
0.0159481
-0.00026791
0.0161314
-0.000243987
0.0161649
-0.000222295
0.0161355
-0.000202443
0.0160837
-0.000184167
0.0160258
-0.000167298
0.0159675
-0.000151717
0.0159104
-0.000137335
0.0158547
-0.000124072
0.0158005
-0.000111855
0.0157478
-0.000100609
0.0156967
-9.0263e-05
0.0156476
-8.07455e-05
0.0156006
-7.19882e-05
0.0155559
-6.39245e-05
0.0155138
-5.64903e-05
0.0154745
-4.96237e-05
0.015438
-4.32653e-05
0.0154044
-3.73576e-05
0.015374
-3.1845e-05
0.0153468
-2.6674e-05
0.0153228
-2.17927e-05
0.0153022
-1.71505e-05
0.0152849
-1.26981e-05
0.0152711
-8.38734e-06
0.0152607
-4.17049e-06
0.0152537
0.0152502
-0.000366811
0.0144527
0.000387229
-0.000338309
0.0154332
-0.000309241
0.015919
-0.000282319
0.0161045
-0.000257912
0.0161405
-0.000235689
0.0161133
-0.000215289
0.0160633
-0.00019646
0.0160069
-0.000179034
0.01595
-0.000162893
0.0158942
-0.000147947
0.0158398
-0.00013412
0.0157867
-0.000121335
0.015735
-0.000109522
0.0156849
-9.8607e-05
0.0156367
-8.85215e-05
0.0155905
-7.9197e-05
0.0155466
-7.05675e-05
0.0155052
-6.25692e-05
0.0154665
-5.51406e-05
0.0154305
-4.82222e-05
0.0153975
-4.17566e-05
0.0153676
-3.56885e-05
0.0153407
-2.9964e-05
0.0153171
-2.45311e-05
0.0152968
-1.9339e-05
0.0152797
-1.43382e-05
0.0152661
-9.48013e-06
0.0152558
-4.71667e-06
0.0152489
0.0152455
-0.000380794
0.0144329
0.000400513
-0.000352593
0.015405
-0.000323429
0.0158899
-0.000296168
0.0160773
-0.000271307
0.0161156
-0.000248584
0.0160906
-0.000227667
0.0160424
-0.000208313
0.0159876
-0.000190357
0.0159321
-0.000173682
0.0158776
-0.0001582
0.0158243
-0.000143832
0.0157723
-0.000130505
0.0157216
-0.000118147
0.0156725
-0.000106687
0.0156252
-9.60557e-05
0.0155798
-8.61852e-05
0.0155367
-7.70103e-05
0.015496
-6.84675e-05
0.0154579
-6.04957e-05
0.0154225
-5.30355e-05
0.0153901
-4.60298e-05
0.0153606
-3.94231e-05
0.0153341
-3.31617e-05
0.0153109
-2.71933e-05
0.0152908
-2.14671e-05
0.015274
-1.59332e-05
0.0152605
-1.0543e-05
0.0152504
-5.24792e-06
0.0152436
0.0152403
-0.00039419
0.0144139
0.000413264
-0.000366276
0.0153771
-0.000337032
0.0158606
-0.00030946
0.0160497
-0.000284175
0.0160904
-0.000260982
0.0160674
-0.000239577
0.016021
-0.000219726
0.0159677
-0.000201268
0.0159136
-0.000184087
0.0158604
-0.000168094
0.0158083
-0.000153211
0.0157574
-0.000139366
0.0157078
-0.000126487
0.0156597
-0.000114504
0.0156132
-0.000103348
0.0155687
-9.29527e-05
0.0155263
-8.32527e-05
0.0154863
-7.4185e-05
0.0154488
-6.56888e-05
0.0154141
-5.7705e-05
0.0153821
-5.01767e-05
0.015353
-4.30485e-05
0.015327
-3.62666e-05
0.0153041
-2.97789e-05
0.0152843
-2.35342e-05
0.0152678
-1.74828e-05
0.0152545
-1.15756e-05
0.0152445
-5.76414e-06
0.0152378
0.0152345
-0.000406998
0.0143954
0.00042548
-0.00037936
0.0153495
-0.000350051
0.0158313
-0.000322194
0.0160218
-0.000296517
0.0160647
-0.000272884
0.0160438
-0.000251021
0.0159991
-0.000230701
0.0159474
-0.000211769
0.0158947
-0.000194107
0.0158427
-0.000177629
0.0157918
-0.000162257
0.015742
-0.000147917
0.0156935
-0.000134541
0.0156463
-0.000122057
0.0156007
-0.000110399
0.015557
-9.94998e-05
0.0155154
-8.92948e-05
0.0154761
-7.97216e-05
0.0154393
-7.07197e-05
0.0154051
-6.22305e-05
0.0153736
-5.41972e-05
0.015345
-4.65644e-05
0.0153194
-3.92787e-05
0.0152968
-3.22877e-05
0.0152773
-2.55404e-05
0.015261
-1.89869e-05
0.0152479
-1.25781e-05
0.0152381
-6.26528e-06
0.0152315
0.0152282
-0.000419219
0.0143774
0.000437158
-0.000391846
0.0153221
-0.000362488
0.015802
-0.000334375
0.0159937
-0.000308335
0.0160386
-0.000284293
0.0160197
-0.000262
0.0159768
-0.000241241
0.0159267
-0.000221861
0.0158753
-0.000203746
0.0158246
-0.000186808
0.0157749
-0.000170971
0.0157262
-0.000156161
0.0156786
-0.00014231
0.0156324
-0.000129349
0.0155878
-0.000117209
0.0155449
-0.000105827
0.015504
-9.51368e-05
0.0154654
-8.50775e-05
0.0154292
-7.55886e-05
0.0153956
-6.6612e-05
0.0153646
-5.80911e-05
0.0153365
-4.99708e-05
0.0153113
-4.21977e-05
0.015289
-3.47196e-05
0.0152698
-2.74855e-05
0.0152538
-2.04454e-05
0.0152409
-1.35503e-05
0.0152312
-6.75131e-06
0.0152247
0.0152215
-0.000430854
0.01436
0.000448296
-0.000403738
0.015295
-0.000374345
0.0157726
-0.000346003
0.0159654
-0.000319631
0.0160123
-0.000295211
0.0159953
-0.000272517
0.0159541
-0.000251347
0.0159055
-0.000231547
0.0158555
-0.000213005
0.0158061
-0.000195633
0.0157575
-0.000179355
0.0157099
-0.000164099
0.0156634
-0.000149796
0.0156181
-0.000136379
0.0155743
-0.00012378
0.0155323
-0.000111934
0.0154922
-0.000100779
0.0154543
-9.0253e-05
0.0154187
-8.02958e-05
0.0153856
-7.08498e-05
0.0153552
-6.18586e-05
0.0153275
-5.32677e-05
0.0153027
-4.50237e-05
0.0152808
-3.70745e-05
0.0152619
-2.93694e-05
0.0152461
-2.18583e-05
0.0152334
-1.44922e-05
0.0152238
-7.22222e-06
0.0152175
0.0152143
-0.000441905
0.014343
0.00045889
-0.000415036
0.0152681
-0.000385626
0.0157432
-0.000357081
0.0159368
-0.000330408
0.0159856
-0.000305639
0.0159705
-0.000282575
0.0159311
-0.000261022
0.0158839
-0.000240829
0.0158353
-0.000221886
0.0157871
-0.000204105
0.0157397
-0.000187411
0.0156932
-0.000171732
0.0156477
-0.000157
0.0156034
-0.000143149
0.0155605
-0.000130111
0.0155193
-0.000117824
0.0154799
-0.000106223
0.0154427
-9.52489e-05
0.0154077
-8.48417e-05
0.0153752
-7.4944e-05
0.0153453
-6.55001e-05
0.015318
-5.64553e-05
0.0152936
-4.77568e-05
0.0152721
-3.93527e-05
0.0152535
-3.11922e-05
0.0152379
-2.32256e-05
0.0152254
-1.54037e-05
0.015216
-7.67802e-06
0.0152097
0.0152066
-0.000452372
0.0143264
0.00046894
-0.000425744
0.0152415
-0.000396332
0.0157137
-0.000367612
0.0159081
-0.000340669
0.0159587
-0.000315582
0.0159454
-0.000292177
0.0159077
-0.000270268
0.015862
-0.00024971
0.0158148
-0.000230392
0.0157678
-0.000212227
0.0157216
-0.00019514
0.0156761
-0.000179062
0.0156316
-0.000163924
0.0155883
-0.00014966
0.0155462
-0.000136205
0.0155058
-0.000123496
0.0154672
-0.000111469
0.0154306
-0.000100066
0.0153963
-8.92269e-05
0.0153644
-7.88954e-05
0.0153349
-6.90158e-05
0.0153082
-5.9534e-05
0.0152841
-5.03973e-05
0.0152629
-4.15542e-05
0.0152447
-3.29541e-05
0.0152293
-2.45474e-05
0.015217
-1.62851e-05
0.0152077
-8.11874e-06
0.0152016
0.0151985
-0.000462258
0.0143103
0.000478443
-0.000435865
0.0152151
-0.000406469
0.0156843
-0.000377601
0.0158792
-0.000350417
0.0159315
-0.000325042
0.0159201
-0.000301326
0.0158839
-0.00027909
0.0158398
-0.000258193
0.0157939
-0.000238525
0.0157481
-0.000220002
0.015703
-0.000202547
0.0156587
-0.000186092
0.0156152
-0.00017057
0.0155727
-0.000155915
0.0155316
-0.000142063
0.015492
-0.000128951
0.0154541
-0.000116518
0.0154182
-0.000104705
0.0153845
-9.34524e-05
0.0153531
-8.27045e-05
0.0153242
-7.24064e-05
0.0152979
-6.25042e-05
0.0152742
-5.29456e-05
0.0152534
-4.36794e-05
0.0152354
-3.46553e-05
0.0152203
-2.58238e-05
0.0152082
-1.71363e-05
0.0151991
-8.54443e-06
0.015193
0.0151899
-0.000471564
0.0142944
0.000487398
-0.000445402
0.015189
-0.000416039
0.015655
-0.000387051
0.0158503
-0.000359656
0.0159041
-0.000334024
0.0158944
-0.000310025
0.0158599
-0.00028749
0.0158173
-0.000266281
0.0157727
-0.00024629
0.0157281
-0.000227431
0.0156842
-0.000209632
0.0156409
-0.000192823
0.0155984
-0.000176939
0.0155569
-0.000161915
0.0155166
-0.000147687
0.0154777
-0.000134193
0.0154406
-0.000121372
0.0154054
-0.000109167
0.0153723
-9.7519e-05
0.0153415
-8.63723e-05
0.015313
-7.56726e-05
0.0152872
-6.53665e-05
0.0152639
-5.54022e-05
0.0152434
-4.57287e-05
0.0152257
-3.6296e-05
0.0152109
-2.70552e-05
0.0151989
-1.79576e-05
0.01519
-8.95516e-06
0.015184
0.015181
-0.000480295
0.0142789
0.000495806
-0.000454361
0.015163
-0.000425047
0.0156257
-0.000395966
0.0158212
-0.000368391
0.0158765
-0.000342532
0.0158686
-0.000318279
0.0158357
-0.000295472
0.0157944
-0.000273977
0.0157512
-0.000253688
0.0157079
-0.00023452
0.015665
-0.000216399
0.0156228
-0.00019926
0.0155812
-0.000183035
0.0155406
-0.000167662
0.0155012
-0.000153078
0.0154631
-0.000139221
0.0154267
-0.000126033
0.0153922
-0.000113454
0.0153597
-0.000101428
0.0153294
-8.98997e-05
0.0153015
-7.88151e-05
0.0152761
-6.81216e-05
0.0152532
-5.77675e-05
0.0152331
-4.77024e-05
0.0152156
-3.78767e-05
0.015201
-2.82417e-05
0.0151893
-1.8749e-05
0.0151805
-9.351e-06
0.0151746
0.0151716
-0.000488452
0.0142637
0.000503666
-0.000462746
0.0151373
-0.000433499
0.0155964
-0.000404351
0.015792
-0.000376626
0.0158488
-0.00035057
0.0158425
-0.000326092
0.0158112
-0.000303041
0.0157714
-0.000281287
0.0157294
-0.000260725
0.0156873
-0.00024127
0.0156456
-0.000222852
0.0156043
-0.000205403
0.0155638
-0.00018886
0.0155241
-0.000173159
0.0154855
-0.000158239
0.0154482
-0.000144039
0.0154125
-0.000130501
0.0153787
-0.000117567
0.0153468
-0.000105181
0.015317
-9.32878e-05
0.0152896
-8.18351e-05
0.0152646
-7.07703e-05
0.0152422
-6.00424e-05
0.0152223
-4.96013e-05
0.0152052
-3.93978e-05
0.0151908
-2.93836e-05
0.0151793
-1.95109e-05
0.0151706
-9.73207e-06
0.0151648
0.0151619
-0.000496041
0.0142488
0.00051098
-0.000470563
0.0151118
-0.000441401
0.0155673
-0.000412214
0.0157628
-0.000384368
0.0158209
-0.000358144
0.0158163
-0.000333469
0.0157865
-0.000310202
0.0157481
-0.000288214
0.0157074
-0.000267403
0.0156665
-0.000247687
0.0156258
-0.000228994
0.0155856
-0.000211258
0.015546
-0.000194417
0.0155072
-0.000178409
0.0154695
-0.000163172
0.015433
-0.000148648
0.015398
-0.000134779
0.0153648
-0.000121507
0.0153335
-0.000108778
0.0153043
-9.6538e-05
0.0152774
-8.47336e-05
0.0152528
-7.33136e-05
0.0152307
-6.22275e-05
0.0152112
-5.14258e-05
0.0151944
-4.08597e-05
0.0151803
-3.04814e-05
0.0151689
-2.02433e-05
0.0151604
-1.00985e-05
0.0151546
0.0151518
-0.000503068
0.0142341
0.00051775
-0.000477818
0.0150866
-0.00044876
0.0155382
-0.000419559
0.0157336
-0.000391622
0.015793
-0.000365259
0.0157899
-0.000340416
0.0157617
-0.000316959
0.0157247
-0.000294763
0.0156852
-0.000273728
0.0156454
-0.000253773
0.0156059
-0.000234828
0.0155667
-0.000216827
0.015528
-0.000199709
0.0154901
-0.000183414
0.0154532
-0.000167881
0.0154174
-0.000153051
0.0153832
-0.000138869
0.0153506
-0.000125278
0.0153199
-0.000112223
0.0152913
-9.96517e-05
0.0152648
-8.75118e-05
0.0152407
-7.57525e-05
0.015219
-6.43238e-05
0.0151998
-5.31767e-05
0.0151833
-4.2263e-05
0.0151694
-3.15353e-05
0.0151582
-2.09467e-05
0.0151498
-1.04504e-05
0.0151441
0.0151413
-0.000509536
0.0142196
0.000523979
-0.000484519
0.0150616
-0.000455581
0.0155093
-0.000426394
0.0157045
-0.000398395
0.015765
-0.000371922
0.0157635
-0.000346938
0.0157367
-0.000323318
0.0157011
-0.00030094
0.0156628
-0.000279705
0.0156242
-0.000259534
0.0155857
-0.000240359
0.0155475
-0.000222114
0.0155098
-0.000204741
0.0154728
-0.000188177
0.0154366
-0.000172367
0.0154016
-0.00015725
0.0153681
-0.000142773
0.0153361
-0.000128879
0.015306
-0.000115516
0.0152779
-0.00010263
0.0152519
-9.01711e-05
0.0152282
-7.80881e-05
0.0152069
-6.63321e-05
0.0151881
-5.48547e-05
0.0151718
-4.36083e-05
0.0151581
-3.2546e-05
0.0151471
-2.16212e-05
0.0151388
-1.07879e-05
0.0151333
0.0151305
-0.000515455
0.0142054
0.000529672
-0.000490672
0.0150368
-0.000461875
0.0154805
-0.000432727
0.0156753
-0.000404693
0.015737
-0.00037814
0.0157369
-0.000353043
0.0157116
-0.000329285
0.0156773
-0.000306749
0.0156403
-0.000285338
0.0156028
-0.000264975
0.0155653
-0.000245591
0.0155281
-0.000227124
0.0154913
-0.000209514
0.0154551
-0.000192703
0.0154198
-0.000176633
0.0153856
-0.000161249
0.0153527
-0.000146494
0.0153214
-0.000132315
0.0152918
-0.00011866
0.0152642
-0.000105476
0.0152387
-9.27129e-05
0.0152155
-8.03217e-05
0.0151945
-6.82536e-05
0.015176
-5.64609e-05
0.01516
-4.48964e-05
0.0151465
-3.35138e-05
0.0151357
-2.22673e-05
0.0151276
-1.11112e-05
0.0151222
0.0151194
-0.00052083
0.0141914
0.000534834
-0.000496287
0.0150122
-0.000467648
0.0154518
-0.000438565
0.0156462
-0.000410526
0.0157089
-0.000383919
0.0157103
-0.000358736
0.0156864
-0.000334866
0.0156534
-0.000312196
0.0156176
-0.000290633
0.0155812
-0.000270099
0.0155448
-0.000250528
0.0155086
-0.000231859
0.0154727
-0.000214034
0.0154373
-0.000196994
0.0154028
-0.000180684
0.0153693
-0.000165049
0.0153371
-0.000150034
0.0153064
-0.000135587
0.0152774
-0.000121656
0.0152503
-0.00010819
0.0152253
-9.51387e-05
0.0152024
-8.24547e-05
0.0151818
-7.00894e-05
0.0151636
-5.79959e-05
0.0151479
-4.61278e-05
0.0151347
-3.44394e-05
0.0151241
-2.28853e-05
0.015116
-1.14204e-05
0.0151107
0.015108
-0.000525672
0.0141776
0.000539471
-0.000501374
0.0149879
-0.000472911
0.0154234
-0.000443918
0.0156172
-0.0004159
0.0156809
-0.000389268
0.0156837
-0.000364024
0.0156612
-0.000340068
0.0156295
-0.000317289
0.0155949
-0.000295596
0.0155595
-0.000274914
0.0155241
-0.000255177
0.0154888
-0.000236326
0.0154538
-0.000218304
0.0154193
-0.000201054
0.0153855
-0.000184522
0.0153527
-0.000168654
0.0153212
-0.000153396
0.0152911
-0.000138697
0.0152627
-0.000124506
0.0152361
-0.000110774
0.0152115
-9.74504e-05
0.0151891
-8.44884e-05
0.0151689
-7.18407e-05
0.015151
-5.94609e-05
0.0151355
-4.73035e-05
0.0151225
-3.53233e-05
0.0151121
-2.34755e-05
0.0151042
-1.17158e-05
0.0150989
0.0150963
-0.000529988
0.014164
0.000543591
-0.000505941
0.0149639
-0.000477673
0.0153951
-0.000448795
0.0155884
-0.000420826
0.0156529
-0.000394194
0.015657
-0.000368916
0.0156359
-0.000344898
0.0156054
-0.000322033
0.015572
-0.000300233
0.0155377
-0.000279423
0.0155033
-0.000259541
0.015469
-0.000240528
0.0154348
-0.000222328
0.0154011
-0.000204887
0.0153681
-0.000188151
0.015336
-0.000172067
0.0153051
-0.000156583
0.0152756
-0.000141649
0.0152478
-0.000127214
0.0152217
-0.000113231
0.0151976
-9.96495e-05
0.0151755
-8.64244e-05
0.0151556
-7.35087e-05
0.0151381
-6.08569e-05
0.0151229
-4.84242e-05
0.0151101
-3.6166e-05
0.0150998
-2.40384e-05
0.0150921
-1.19976e-05
0.0150869
0.0150843
-0.000533789
0.0141506
0.000547201
-0.000510001
0.0149401
-0.000481945
0.015367
-0.000453206
0.0155596
-0.000425311
0.015625
-0.000398706
0.0156304
-0.000373419
0.0156106
-0.000349363
0.0155814
-0.000326435
0.0155491
-0.000304549
0.0155159
-0.000283634
0.0154824
-0.000263627
0.0154489
-0.000244471
0.0154156
-0.000226112
0.0153827
-0.000208498
0.0153505
-0.000191575
0.0153191
-0.000175292
0.0152888
-0.000159598
0.0152599
-0.000144445
0.0152326
-0.000129782
0.015207
-0.000115562
0.0151833
-0.000101738
0.0151617
-8.82642e-05
0.0151422
-7.50948e-05
0.0151249
-6.21851e-05
0.01511
-4.94908e-05
0.0150974
-3.69684e-05
0.0150873
-2.45745e-05
0.0150797
-1.22659e-05
0.0150746
0.015072
-0.000537086
0.0141374
0.00055031
-0.000513564
0.0149166
-0.000485738
0.0153392
-0.000457162
0.015531
-0.000429367
0.0155972
-0.000402814
0.0156039
-0.000377542
0.0155853
-0.000353471
0.0155573
-0.000330503
0.0155261
-0.000308553
0.0154939
-0.000287552
0.0154614
-0.000267439
0.0154288
-0.000248159
0.0153964
-0.00022966
0.0153642
-0.00021189
0.0153327
-0.000194797
0.015302
-0.000178332
0.0152724
-0.000162445
0.015244
-0.000147087
0.0152172
-0.000132211
0.0151921
-0.00011777
0.0151689
-0.000103718
0.0151476
-9.00097e-05
0.0151285
-7.66005e-05
0.0151115
-6.34465e-05
0.0150968
-5.05043e-05
0.0150845
-3.7731e-05
0.0150745
-2.50841e-05
0.015067
-1.25211e-05
0.015062
0.0150595
-0.000539892
0.0141243
0.000552931
-0.000516643
0.0148933
-0.000489065
0.0153116
-0.000460673
0.0155026
-0.000433003
0.0155696
-0.000406526
0.0155774
-0.000381294
0.0155601
-0.000357231
0.0155333
-0.000334244
0.0155031
-0.00031225
0.0154719
-0.000291183
0.0154403
-0.000270984
0.0154086
-0.000251599
0.015377
-0.000232977
0.0153456
-0.000215068
0.0153148
-0.000197823
0.0152847
-0.000181191
0.0152557
-0.000165126
0.015228
-0.000149579
0.0152017
-0.000134505
0.0151771
-0.000119858
0.0151542
-0.000105591
0.0151334
-9.16626e-05
0.0151145
-7.80273e-05
0.0150979
-6.46424e-05
0.0150834
-5.14656e-05
0.0150713
-3.84546e-05
0.0150615
-2.55677e-05
0.0150541
-1.27633e-05
0.0150492
0.0150467
-0.000542218
0.0141115
0.000555072
-0.000519251
0.0148704
-0.000491937
0.0152843
-0.000463752
0.0154745
-0.00043623
0.0155421
-0.000409854
0.015551
-0.000384684
0.0155349
-0.000360651
0.0155092
-0.000337665
0.0154801
-0.000315649
0.0154499
-0.000294535
0.0154192
-0.000274268
0.0153884
-0.000254796
0.0153575
-0.000236069
0.0153269
-0.000218038
0.0152967
-0.000200655
0.0152673
-0.000183873
0.0152389
-0.000167645
0.0152117
-0.000151925
0.015186
-0.000136667
0.0151618
-0.000121827
0.0151394
-0.00010736
0.0151189
-9.32246e-05
0.0151004
-7.93766e-05
0.015084
-6.57742e-05
0.0150698
-5.23757e-05
0.0150579
-3.914e-05
0.0150483
-2.60259e-05
0.015041
-1.29928e-05
0.0150362
0.0150338
-0.000544077
0.0140988
0.000556748
-0.000521401
0.0148477
-0.000494368
0.0152573
-0.000466411
0.0154465
-0.00043906
0.0155147
-0.000412807
0.0155248
-0.000387721
0.0155099
-0.000363739
0.0154852
-0.000340776
0.0154572
-0.000318756
0.0154279
-0.000297614
0.0153981
-0.000277298
0.015368
-0.000257755
0.015338
-0.000238939
0.0153081
-0.000220803
0.0152786
-0.000203299
0.0152498
-0.000186382
0.015222
-0.000170006
0.0151954
-0.000154126
0.0151701
-0.000138699
0.0151464
-0.00012368
0.0151244
-0.000109027
0.0151042
-9.46978e-05
0.0150861
-8.06502e-05
0.01507
-6.68431e-05
0.015056
-5.32358e-05
0.0150443
-3.97879e-05
0.0150348
-2.64592e-05
0.0150277
-1.32098e-05
0.0150229
0.0150205
-0.000545485
0.0140863
0.000557971
-0.000523108
0.0148253
-0.000496371
0.0152305
-0.000468662
0.0154188
-0.000441503
0.0154875
-0.000415396
0.0154987
-0.000390415
0.0154849
-0.000366505
0.0154613
-0.000343584
0.0154342
-0.000321579
0.0154059
-0.000300428
0.0153769
-0.000280079
0.0153477
-0.000260483
0.0153184
-0.000241595
0.0152892
-0.000223369
0.0152604
-0.000205759
0.0152322
-0.000188721
0.015205
-0.000172212
0.0151789
-0.000156187
0.0151541
-0.000140604
0.0151308
-0.00012542
0.0151092
-0.000110594
0.0150894
-9.60841e-05
0.0150716
-8.18497e-05
0.0150557
-6.78505e-05
0.015042
-5.40468e-05
0.0150305
-4.03991e-05
0.0150212
-2.68681e-05
0.0150142
-1.34147e-05
0.0150095
0.0150071
-0.000546455
0.014074
0.000558754
-0.000524385
0.0148033
-0.00049796
0.0152041
-0.000470518
0.0153914
-0.000443573
0.0154606
-0.000417631
0.0154727
-0.000392777
0.01546
-0.000368959
0.0154375
-0.000346099
0.0154114
-0.000324126
0.0153839
-0.000302983
0.0153558
-0.000282619
0.0153273
-0.000262986
0.0152987
-0.000244041
0.0152702
-0.00022574
0.0152421
-0.00020804
0.0152145
-0.000190896
0.0151878
-0.000174268
0.0151622
-0.000158111
0.0151379
-0.000142386
0.0151151
-0.00012705
0.0150939
-0.000112064
0.0150744
-9.73856e-05
0.0150569
-8.29768e-05
0.0150413
-6.87979e-05
0.0150278
-5.481e-05
0.0150165
-4.09745e-05
0.0150073
-2.72531e-05
0.0150004
-1.36077e-05
0.0149958
0.0149935
-0.000547003
0.0140619
0.000559113
-0.000525248
0.0147815
-0.000499149
0.015178
-0.000471993
0.0153642
-0.000445281
0.0154339
-0.000419526
0.015447
-0.000394817
0.0154353
-0.000371109
0.0154138
-0.000348328
0.0153886
-0.000326406
0.015362
-0.000305288
0.0153347
-0.000284924
0.015307
-0.00026527
0.0152791
-0.000246284
0.0152513
-0.000227923
0.0152237
-0.000210146
0.0151968
-0.000192911
0.0151706
-0.000176177
0.0151455
-0.000159902
0.0151216
-0.000144048
0.0150992
-0.000128573
0.0150784
-0.000113438
0.0150593
-9.86043e-05
0.015042
-8.40333e-05
0.0150267
-6.96867e-05
0.0150135
-5.55264e-05
0.0150023
-4.1515e-05
0.0149933
-2.7615e-05
0.0149865
-1.3789e-05
0.014982
0.0149797
-0.000547144
0.01405
0.000559061
-0.000525713
0.0147601
-0.000499954
0.0151523
-0.0004731
0.0153373
-0.000446641
0.0154074
-0.000421091
0.0154214
-0.000396546
0.0154108
-0.000372966
0.0153902
-0.000350281
0.0153659
-0.000328427
0.0153401
-0.000307349
0.0153136
-0.000287002
0.0152866
-0.000267342
0.0152594
-0.000248329
0.0152322
-0.000229923
0.0152053
-0.000212083
0.0151789
-0.000194769
0.0151533
-0.000177943
0.0151287
-0.000161563
0.0151053
-0.000145592
0.0150833
-0.00012999
0.0150628
-0.00011472
0.015044
-9.97425e-05
0.0150271
-8.50211e-05
0.015012
-7.05184e-05
0.014999
-5.61974e-05
0.014988
-4.20215e-05
0.0149792
-2.79541e-05
0.0149725
-1.3959e-05
0.014968
0.0149658
-0.000546895
0.0140383
0.000558616
-0.000525795
0.014739
-0.000500389
0.0151269
-0.000473854
0.0153108
-0.000447665
0.0153812
-0.000422338
0.0153961
-0.000397975
0.0153864
-0.00037454
0.0153668
-0.000351968
0.0153433
-0.000330197
0.0153184
-0.000309176
0.0152926
-0.00028886
0.0152663
-0.000269208
0.0152398
-0.000250183
0.0152132
-0.000231745
0.0151869
-0.000213856
0.015161
-0.000196477
0.0151359
-0.00017957
0.0151118
-0.000163098
0.0150888
-0.000147022
0.0150672
-0.000131306
0.0150471
-0.000115911
0.0150286
-0.000100802
0.015012
-8.59421e-05
0.0149972
-7.12946e-05
0.0149843
-5.68241e-05
0.0149735
-4.24948e-05
0.0149648
-2.82712e-05
0.0149583
-1.41181e-05
0.0149539
0.0149517
-0.000546271
0.0140268
0.000557792
-0.000525511
0.0147182
-0.00050047
0.0151018
-0.000474268
0.0152846
-0.000448366
0.0153553
-0.000423279
0.015371
-0.000399115
0.0153622
-0.000375842
0.0153435
-0.000353399
0.0153209
-0.000331726
0.0152967
-0.000310775
0.0152716
-0.000290505
0.015246
-0.000270876
0.0152201
-0.000251851
0.0151942
-0.000233395
0.0151684
-0.000215469
0.0151431
-0.000198037
0.0151185
-0.000181064
0.0150948
-0.000164511
0.0150722
-0.000148342
0.015051
-0.000132523
0.0150313
-0.000117016
0.0150131
-0.000101786
0.0149967
-8.67981e-05
0.0149822
-7.20169e-05
0.0149695
-5.74077e-05
0.0149589
-4.29359e-05
0.0149504
-2.85669e-05
0.0149439
-1.42664e-05
0.0149396
0.0149374
-0.000545291
0.0140154
0.000556607
-0.000524877
0.0146978
-0.000500212
0.0150772
-0.000474359
0.0152588
-0.000448759
0.0153297
-0.000423928
0.0153462
-0.000399978
0.0153383
-0.000376881
0.0153204
-0.000354581
0.0152986
-0.000333022
0.0152751
-0.000312156
0.0152508
-0.000291945
0.0152258
-0.000272351
0.0152006
-0.000253341
0.0151752
-0.000234878
0.01515
-0.000216928
0.0151252
-0.000199456
0.015101
-0.000182427
0.0150778
-0.000165805
0.0150556
-0.000149556
0.0150348
-0.000133644
0.0150153
-0.000118036
0.0149975
-0.000102696
0.0149814
-8.7591e-05
0.0149671
-7.26868e-05
0.0149546
-5.79496e-05
0.0149442
-4.33457e-05
0.0149357
-2.88418e-05
0.0149294
-1.44043e-05
0.0149251
0.014923
-0.00054397
0.0140043
0.000555079
-0.000523909
0.0146777
-0.000499631
0.0150529
-0.000474139
0.0152333
-0.000448856
0.0153045
-0.000424296
0.0153216
-0.000400574
0.0153146
-0.000377669
0.0152975
-0.000355527
0.0152765
-0.000334094
0.0152537
-0.000313326
0.01523
-0.000293187
0.0152057
-0.000273642
0.015181
-0.000254658
0.0151562
-0.000236201
0.0151315
-0.000218239
0.0151072
-0.000200738
0.0150835
-0.000183665
0.0150607
-0.000166985
0.0150389
-0.000150665
0.0150184
-0.000134673
0.0149994
-0.000118973
0.0149818
-0.000103535
0.0149659
-8.8323e-05
0.0149519
-7.33061e-05
0.0149396
-5.8451e-05
0.0149293
-4.37253e-05
0.014921
-2.90965e-05
0.0149148
-1.45321e-05
0.0149106
0.0149085
-0.000542327
0.0139934
0.000553223
-0.000522625
0.014658
-0.000498743
0.015029
-0.000473625
0.0152081
-0.000448671
0.0152795
-0.000424396
0.0152973
-0.000400917
0.0152911
-0.000378217
0.0152748
-0.000356245
0.0152545
-0.000334951
0.0152324
-0.000314295
0.0152093
-0.00029424
0.0151856
-0.000274755
0.0151615
-0.000255809
0.0151372
-0.00023737
0.0151131
-0.000219407
0.0150892
-0.000201888
0.015066
-0.000184781
0.0150436
-0.000168054
0.0150222
-0.000151675
0.0150021
-0.000135612
0.0149833
-0.000119832
0.014966
-0.000104304
0.0149504
-8.8996e-05
0.0149365
-7.38763e-05
0.0149245
-5.89133e-05
0.0149144
-4.40756e-05
0.0149062
-2.93317e-05
0.0149
-1.46502e-05
0.0148959
0.0148938