/*--------------------------------*- C++ -*----------------------------------*\
  =========                 |
  \\      /  F ield         | OpenFOAM: The Open Source CFD Toolbox
   \\    /   O peration     | Website:  https://openfoam.org
    \\  /    A nd           | Version:  7
     \\/     M anipulation  |
\*---------------------------------------------------------------------------*/
FoamFile
{
    version     2.0;
    format      ascii;
    class       volVectorField;
    location    "55";
    object      U;
}
// * * * * * * * * * * * * * * * * * * * * * * * * * * * * * * * * * * * * * //

dimensions      [0 1 -1 0 0 0 0];

internalField   nonuniform List<vector> 
3500
(
(1.12054 0.0266197 0)
(1.19944 0.0243086 0)
(1.23495 0.0194507 0)
(1.24627 0.0165114 0)
(1.24654 0.0138056 0)
(1.24255 0.0115924 0)
(1.23722 0.00965882 0)
(1.23166 0.00794881 0)
(1.2262 0.00643786 0)
(1.22092 0.00510705 0)
(1.21581 0.00394189 0)
(1.21087 0.00293068 0)
(1.2061 0.0020621 0)
(1.20152 0.00132561 0)
(1.19713 0.000710251 0)
(1.19297 0.000204619 0)
(1.18903 -0.000200569 0)
(1.18533 -0.000514928 0)
(1.18189 -0.000748198 0)
(1.17872 -0.000908701 0)
(1.17581 -0.00100447 0)
(1.17319 -0.00104317 0)
(1.17084 -0.00103209 0)
(1.16878 -0.000978044 0)
(1.16701 -0.000887507 0)
(1.16553 -0.000766594 0)
(1.16435 -0.000621201 0)
(1.16346 -0.00045709 0)
(1.16286 -0.000279321 0)
(1.16257 -9.42402e-05 0)
(1.11823 0.0292432 0)
(1.19701 0.0270347 0)
(1.23287 0.0222004 0)
(1.24458 0.0191711 0)
(1.24512 0.016373 0)
(1.24133 0.0140532 0)
(1.23616 0.0120095 0)
(1.23072 0.0101898 0)
(1.22536 0.00856958 0)
(1.22018 0.00712966 0)
(1.21516 0.00585573 0)
(1.21031 0.00473633 0)
(1.20562 0.00376035 0)
(1.20111 0.00291729 0)
(1.19679 0.00219637 0)
(1.19268 0.00158639 0)
(1.18879 0.00107816 0)
(1.18515 0.000662089 0)
(1.18175 0.000328445 0)
(1.17862 6.88703e-05 0)
(1.17575 -0.000124575 0)
(1.17315 -0.000259633 0)
(1.17083 -0.000343787 0)
(1.1688 -0.000383882 0)
(1.16704 -0.000386493 0)
(1.16558 -0.000357881 0)
(1.16441 -0.000304072 0)
(1.16353 -0.000230967 0)
(1.16294 -0.000143837 0)
(1.16265 -4.90714e-05 0)
(1.11603 0.0317868 0)
(1.1946 0.0296772 0)
(1.23077 0.0248666 0)
(1.24283 0.0217528 0)
(1.24365 0.0188665 0)
(1.24005 0.016444 0)
(1.23503 0.0142943 0)
(1.22971 0.0123691 0)
(1.22446 0.0106436 0)
(1.21938 0.00909853 0)
(1.21445 0.0077197 0)
(1.20968 0.00649588 0)
(1.20507 0.00541615 0)
(1.20063 0.00447002 0)
(1.19638 0.00364687 0)
(1.19233 0.00293584 0)
(1.1885 0.0023276 0)
(1.18491 0.00181263 0)
(1.18156 0.00138136 0)
(1.17846 0.00102536 0)
(1.17563 0.000736693 0)
(1.17306 0.000507557 0)
(1.17077 0.000330379 0)
(1.16876 0.000198256 0)
(1.16703 0.00010451 0)
(1.16558 4.27561e-05 0)
(1.16442 6.8246e-06 0)
(1.16355 -9.2617e-06 0)
(1.16297 -1.09673e-05 0)
(1.16268 -4.77629e-06 0)
(1.11392 0.0342518 0)
(1.19223 0.0322367 0)
(1.22865 0.0274495 0)
(1.24105 0.0242566 0)
(1.24212 0.0212861 0)
(1.23872 0.0187649 0)
(1.23384 0.0165135 0)
(1.22864 0.0144867 0)
(1.22351 0.01266 0)
(1.21852 0.0110136 0)
(1.21369 0.00953366 0)
(1.209 0.00820914 0)
(1.20447 0.00702922 0)
(1.2001 0.00598349 0)
(1.19592 0.00506148 0)
(1.19193 0.00425257 0)
(1.18816 0.00354735 0)
(1.18461 0.00293635 0)
(1.18131 0.0024102 0)
(1.17825 0.00196042 0)
(1.17545 0.00157898 0)
(1.17292 0.00125809 0)
(1.17066 0.000990119 0)
(1.16867 0.000768102 0)
(1.16696 0.000585266 0)
(1.16553 0.000435119 0)
(1.16438 0.000311365 0)
(1.16352 0.000207938 0)
(1.16294 0.000119203 0)
(1.16266 3.86143e-05 0)
(1.1119 0.0366387 0)
(1.18988 0.0347137 0)
(1.22652 0.0299494 0)
(1.23922 0.0266828 0)
(1.24055 0.0236319 0)
(1.23733 0.0210161 0)
(1.2326 0.018667 0)
(1.22752 0.0165428 0)
(1.22249 0.0146186 0)
(1.2176 0.0128747 0)
(1.21286 0.0112975 0)
(1.20826 0.00987595 0)
(1.20381 0.00859939 0)
(1.19952 0.00745749 0)
(1.1954 0.00643992 0)
(1.19147 0.00553626 0)
(1.18776 0.00473708 0)
(1.18426 0.00403296 0)
(1.18101 0.00341466 0)
(1.17799 0.0028737 0)
(1.17523 0.00240198 0)
(1.17273 0.00199168 0)
(1.17049 0.00163518 0)
(1.16853 0.00132543 0)
(1.16684 0.00105557 0)
(1.16542 0.000819031 0)
(1.16429 0.000609413 0)
(1.16344 0.000420535 0)
(1.16287 0.000246612 0)
(1.16259 8.10818e-05 0)
(1.10997 0.0389484 0)
(1.18757 0.0371086 0)
(1.22437 0.0323667 0)
(1.23734 0.0290315 0)
(1.23892 0.025904 0)
(1.23589 0.0231975 0)
(1.2313 0.0207549 0)
(1.22635 0.0185372 0)
(1.22143 0.0165194 0)
(1.21663 0.0146819 0)
(1.21198 0.0130111 0)
(1.20747 0.0114962 0)
(1.2031 0.0101265 0)
(1.19888 0.00889182 0)
(1.19483 0.00778197 0)
(1.19096 0.00678669 0)
(1.1873 0.00589654 0)
(1.18386 0.00510218 0)
(1.18065 0.00439448 0)
(1.17768 0.00376492 0)
(1.17495 0.00320541 0)
(1.17249 0.00270808 0)
(1.17028 0.00226532 0)
(1.16834 0.00187002 0)
(1.16667 0.00151525 0)
(1.16527 0.00119434 0)
(1.16415 0.000900833 0)
(1.16331 0.00062843 0)
(1.16275 0.000371213 0)
(1.16247 0.000122613 0)
(1.10812 0.0411813 0)
(1.18528 0.0394218 0)
(1.2222 0.0347018 0)
(1.23544 0.031303 0)
(1.23724 0.0281025 0)
(1.2344 0.0253093 0)
(1.22995 0.0227773 0)
(1.22512 0.02047 0)
(1.22031 0.0183625 0)
(1.21561 0.0164351 0)
(1.21105 0.0146745 0)
(1.20663 0.0130697 0)
(1.20233 0.0116104 0)
(1.19819 0.0102863 0)
(1.1942 0.00908744 0)
(1.1904 0.00800363 0)
(1.1868 0.00702551 0)
(1.18341 0.00614378 0)
(1.18025 0.0053494 0)
(1.17732 0.00463386 0)
(1.17463 0.00398904 0)
(1.17219 0.00340708 0)
(1.17002 0.00288036 0)
(1.1681 0.0024017 0)
(1.16645 0.00196413 0)
(1.16508 0.00156091 0)
(1.16397 0.00118551 0)
(1.16314 0.000831539 0)
(1.16259 0.000492961 0)
(1.16231 0.000163194 0)
(1.10634 0.043338 0)
(1.18302 0.0416536 0)
(1.22002 0.036955 0)
(1.23349 0.0334972 0)
(1.23553 0.0302275 0)
(1.23286 0.0273516 0)
(1.22856 0.0247343 0)
(1.22384 0.0223414 0)
(1.21914 0.020148 0)
(1.21454 0.0181344 0)
(1.21007 0.0162875 0)
(1.20573 0.0145965 0)
(1.20152 0.013051 0)
(1.19744 0.0116409 0)
(1.19353 0.0103562 0)
(1.18979 0.00918695 0)
(1.18625 0.00812381 0)
(1.18291 0.00715756 0)
(1.17979 0.00627922 0)
(1.17691 0.0054803 0)
(1.17426 0.00475268 0)
(1.17186 0.00408849 0)
(1.16971 0.0034801 0)
(1.16782 0.00292031 0)
(1.16619 0.00240208 0)
(1.16483 0.00191862 0)
(1.16374 0.00146335 0)
(1.16292 0.00102979 0)
(1.16237 0.000611813 0)
(1.1621 0.00020281 0)
(1.10463 0.0454187 0)
(1.18079 0.0438043 0)
(1.21783 0.0391265 0)
(1.23152 0.0356143 0)
(1.23376 0.0322791 0)
(1.23127 0.0293244 0)
(1.22711 0.0266259 0)
(1.22252 0.0241513 0)
(1.21792 0.0218757 0)
(1.21342 0.0197798 0)
(1.20905 0.0178503 0)
(1.20479 0.0160766 0)
(1.20065 0.0144483 0)
(1.19666 0.0129554 0)
(1.19281 0.0115881 0)
(1.18914 0.0103365 0)
(1.18565 0.00919131 0)
(1.18237 0.00814337 0)
(1.1793 0.00718379 0)
(1.17645 0.00630409 0)
(1.17384 0.00549617 0)
(1.17147 0.00475215 0)
(1.16935 0.00406441 0)
(1.16749 0.00342571 0)
(1.16589 0.00282898 0)
(1.16454 0.00226738 0)
(1.16347 0.00173427 0)
(1.16266 0.00122314 0)
(1.16212 0.000727732 0)
(1.16185 0.000241449 0)
(1.10299 0.0474236 0)
(1.17858 0.0458739 0)
(1.21563 0.0412167 0)
(1.22951 0.0376543 0)
(1.23196 0.0342573 0)
(1.22964 0.031228 0)
(1.22562 0.0284523 0)
(1.22115 0.0258999 0)
(1.21666 0.023546 0)
(1.21226 0.0213713 0)
(1.20797 0.0193629 0)
(1.2038 0.0175099 0)
(1.19975 0.0158022 0)
(1.19582 0.0142299 0)
(1.19205 0.0127831 0)
(1.18843 0.0114522 0)
(1.18501 0.0102279 0)
(1.18177 0.0091011 0)
(1.17875 0.00806298 0)
(1.17595 0.0071051 0)
(1.17338 0.00621937 0)
(1.17104 0.00539793 0)
(1.16896 0.00463316 0)
(1.16712 0.00391779 0)
(1.16554 0.00324472 0)
(1.16421 0.00260709 0)
(1.16315 0.00199821 0)
(1.16235 0.00141152 0)
(1.16182 0.000840687 0)
(1.16155 0.0002791 0)
(1.10141 0.0493529 0)
(1.1764 0.0478627 0)
(1.21342 0.0432256 0)
(1.22747 0.0396173 0)
(1.23012 0.0361622 0)
(1.22796 0.0330625 0)
(1.22409 0.0302136 0)
(1.21974 0.0275874 0)
(1.21535 0.0251588 0)
(1.21105 0.0229091 0)
(1.20686 0.0208252 0)
(1.20277 0.0188965 0)
(1.19879 0.0171128 0)
(1.19494 0.0154643 0)
(1.19124 0.0139412 0)
(1.18769 0.012534 0)
(1.18432 0.0112335 0)
(1.18114 0.0100307 0)
(1.17816 0.00891669 0)
(1.1754 0.00788323 0)
(1.17287 0.00692219 0)
(1.17057 0.00602573 0)
(1.16851 0.00518624 0)
(1.1667 0.00439645 0)
(1.16514 0.00364922 0)
(1.16384 0.00293769 0)
(1.16279 0.00225511 0)
(1.162 0.0015949 0)
(1.16147 0.000950653 0)
(1.16121 0.000315755 0)
(1.09988 0.0512068 0)
(1.17424 0.0497707 0)
(1.21121 0.0451537 0)
(1.22541 0.0415035 0)
(1.22824 0.037994 0)
(1.22625 0.0348279 0)
(1.22251 0.03191 0)
(1.21828 0.0292137 0)
(1.214 0.0267143 0)
(1.2098 0.0243932 0)
(1.2057 0.0222375 0)
(1.2017 0.0202366 0)
(1.1978 0.0183802 0)
(1.19402 0.0166587 0)
(1.19038 0.0150624 0)
(1.1869 0.0135819 0)
(1.18359 0.0122081 0)
(1.18046 0.010932 0)
(1.17753 0.00974487 0)
(1.17482 0.00863841 0)
(1.17232 0.00760455 0)
(1.17006 0.00663548 0)
(1.16803 0.00572359 0)
(1.16625 0.00486162 0)
(1.16471 0.00404243 0)
(1.16342 0.00325911 0)
(1.16239 0.00250493 0)
(1.16161 0.00177324 0)
(1.16109 0.00105761 0)
(1.16083 0.000351408 0)
(1.0984 0.0529851 0)
(1.1721 0.0515982 0)
(1.20898 0.0470011 0)
(1.22332 0.0433131 0)
(1.22633 0.0397529 0)
(1.2245 0.0365246 0)
(1.2209 0.0335417 0)
(1.21679 0.0307792 0)
(1.21261 0.0282128 0)
(1.20851 0.0258239 0)
(1.2045 0.0235999 0)
(1.20058 0.0215301 0)
(1.19676 0.0196044 0)
(1.19306 0.0178131 0)
(1.18949 0.0161467 0)
(1.18607 0.014596 0)
(1.18281 0.0131517 0)
(1.17974 0.0118051 0)
(1.17686 0.0105475 0)
(1.17419 0.0093706 0)
(1.17174 0.0082664 0)
(1.16951 0.00722711 0)
(1.16751 0.00624515 0)
(1.16575 0.00531326 0)
(1.16423 0.00442429 0)
(1.16296 0.00357133 0)
(1.16195 0.00274763 0)
(1.16118 0.00194652 0)
(1.16067 0.00116154 0)
(1.16041 0.000386052 0)
(1.09697 0.0546878 0)
(1.16999 0.0533451 0)
(1.20675 0.048768 0)
(1.22121 0.0450461 0)
(1.22439 0.0414391 0)
(1.22272 0.0381527 0)
(1.21925 0.0351089 0)
(1.21526 0.0322841 0)
(1.21119 0.0296543 0)
(1.20718 0.0272014 0)
(1.20326 0.0249126 0)
(1.19943 0.0227773 0)
(1.19569 0.0207855 0)
(1.19206 0.0189276 0)
(1.18856 0.0171943 0)
(1.1852 0.0155762 0)
(1.182 0.0140643 0)
(1.17898 0.01265 0)
(1.17615 0.0113246 0)
(1.17352 0.0100798 0)
(1.17111 0.00890773 0)
(1.16891 0.00780062 0)
(1.16695 0.0067509 0)
(1.16521 0.00575133 0)
(1.16372 0.00479477 0)
(1.16247 0.00387431 0)
(1.16146 0.00298318 0)
(1.16071 0.00211473 0)
(1.16021 0.00126244 0)
(1.15995 0.000419686 0)
(1.09559 0.0563151 0)
(1.16789 0.0550116 0)
(1.20452 0.0504549 0)
(1.21908 0.0467029 0)
(1.22242 0.0430528 0)
(1.2209 0.0397125 0)
(1.21757 0.0366118 0)
(1.21369 0.0337286 0)
(1.20973 0.0310392 0)
(1.20582 0.0285258 0)
(1.20199 0.0261757 0)
(1.19824 0.0239783 0)
(1.19458 0.0219237 0)
(1.19102 0.0200024 0)
(1.18759 0.0182051 0)
(1.18429 0.0165226 0)
(1.18115 0.0149461 0)
(1.17819 0.0134667 0)
(1.1754 0.0120761 0)
(1.17282 0.010766 0)
(1.17044 0.00952854 0)
(1.16828 0.00835598 0)
(1.16635 0.00724082 0)
(1.16464 0.00617581 0)
(1.16317 0.00515385 0)
(1.16194 0.00416803 0)
(1.16095 0.00321159 0)
(1.1602 0.00227785 0)
(1.15971 0.00136029 0)
(1.15946 0.000452306 0)
(1.09424 0.0578668 0)
(1.16582 0.0565978 0)
(1.20228 0.052062 0)
(1.21693 0.0482837 0)
(1.22043 0.0445944 0)
(1.21906 0.0412043 0)
(1.21586 0.0380507 0)
(1.2121 0.035113 0)
(1.20824 0.0323677 0)
(1.20442 0.0297974 0)
(1.20068 0.0273896 0)
(1.19702 0.0251334 0)
(1.19343 0.0230193 0)
(1.18995 0.0210377 0)
(1.18658 0.0191794 0)
(1.18335 0.0174355 0)
(1.18027 0.015797 0)
(1.17735 0.0142553 0)
(1.17462 0.0128022 0)
(1.17208 0.0114293 0)
(1.16974 0.0101289 0)
(1.16762 0.00889324 0)
(1.16571 0.00771493 0)
(1.16403 0.00658673 0)
(1.16258 0.00550155 0)
(1.16137 0.0044525 0)
(1.16039 0.00343283 0)
(1.15966 0.00243587 0)
(1.15917 0.0014551 0)
(1.15893 0.000483913 0)
(1.09293 0.059343 0)
(1.16376 0.0581041 0)
(1.20004 0.0535898 0)
(1.21476 0.0497889 0)
(1.2184 0.0460641 0)
(1.21718 0.0426284 0)
(1.21411 0.0394261 0)
(1.21047 0.0364376 0)
(1.20672 0.0336402 0)
(1.203 0.0310167 0)
(1.19934 0.0285544 0)
(1.19576 0.0262429 0)
(1.19226 0.0240724 0)
(1.18885 0.0220336 0)
(1.18554 0.0201174 0)
(1.18237 0.0183149 0)
(1.17935 0.0166172 0)
(1.17649 0.015016 0)
(1.1738 0.0135028 0)
(1.1713 0.0120697 0)
(1.169 0.0107088 0)
(1.16691 0.00941242 0)
(1.16504 0.00817326 0)
(1.16338 0.00698409 0)
(1.16196 0.00583787 0)
(1.16076 0.00472773 0)
(1.1598 0.00364692 0)
(1.15908 0.00258881 0)
(1.1586 0.00154686 0)
(1.15836 0.000514505 0)
(1.09165 0.0607436 0)
(1.16173 0.0595306 0)
(1.1978 0.0550386 0)
(1.21258 0.0512188 0)
(1.21636 0.0474624 0)
(1.21529 0.0439853 0)
(1.21235 0.0407383 0)
(1.20881 0.037703 0)
(1.20516 0.0348571 0)
(1.20154 0.0321838 0)
(1.19797 0.0296706 0)
(1.19447 0.027307 0)
(1.19105 0.0250833 0)
(1.18771 0.0229904 0)
(1.18447 0.0210192 0)
(1.18136 0.019161 0)
(1.1784 0.017407 0)
(1.17559 0.0157488 0)
(1.17295 0.0141783 0)
(1.17049 0.0126873 0)
(1.16823 0.0112683 0)
(1.16618 0.00991358 0)
(1.16433 0.00861585 0)
(1.1627 0.00736794 0)
(1.1613 0.00616285 0)
(1.16012 0.00499373 0)
(1.15918 0.00385388 0)
(1.15847 0.00273668 0)
(1.15799 0.00163559 0)
(1.15776 0.000544087 0)
(1.09041 0.0620688 0)
(1.15971 0.0608777 0)
(1.19556 0.0564091 0)
(1.21039 0.0525739 0)
(1.2143 0.0487898 0)
(1.21336 0.0452754 0)
(1.21055 0.0419877 0)
(1.20713 0.0389094 0)
(1.20358 0.0360188 0)
(1.20005 0.0332992 0)
(1.19658 0.0307385 0)
(1.19316 0.0283261 0)
(1.18981 0.0260524 0)
(1.18654 0.0239084 0)
(1.18337 0.0218852 0)
(1.18032 0.019974 0)
(1.17741 0.0181664 0)
(1.17465 0.016454 0)
(1.17206 0.0148286 0)
(1.16965 0.0132823 0)
(1.16743 0.0118076 0)
(1.16541 0.0103968 0)
(1.16359 0.00904278 0)
(1.16199 0.00773833 0)
(1.16061 0.00647652 0)
(1.15945 0.00525055 0)
(1.15852 0.00405373 0)
(1.15782 0.00287948 0)
(1.15735 0.00172129 0)
(1.15712 0.00057266 0)
(1.08919 0.0633188 0)
(1.15771 0.0621458 0)
(1.19332 0.0577016 0)
(1.20818 0.0538547 0)
(1.21222 0.0500467 0)
(1.21142 0.0464993 0)
(1.20873 0.0431749 0)
(1.20543 0.0400574 0)
(1.20198 0.0371256 0)
(1.19854 0.0343634 0)
(1.19515 0.0317585 0)
(1.19181 0.0293005 0)
(1.18854 0.0269799 0)
(1.18534 0.0247879 0)
(1.18224 0.0227155 0)
(1.17925 0.0207543 0)
(1.1764 0.0188957 0)
(1.17369 0.0171316 0)
(1.17115 0.0154539 0)
(1.16878 0.0138548 0)
(1.1666 0.0123267 0)
(1.16461 0.0108622 0)
(1.16282 0.00945413 0)
(1.16125 0.00809533 0)
(1.15989 0.00677895 0)
(1.15875 0.00549822 0)
(1.15783 0.0042465 0)
(1.15715 0.00301725 0)
(1.15668 0.00180398 0)
(1.15645 0.00060023 0)
(1.088 0.0644936 0)
(1.15572 0.0633353 0)
(1.19109 0.058917 0)
(1.20597 0.0550619 0)
(1.21013 0.0512339 0)
(1.20946 0.0476575 0)
(1.20689 0.0443004 0)
(1.2037 0.0411475 0)
(1.20035 0.0381783 0)
(1.19701 0.0353769 0)
(1.1937 0.0327311 0)
(1.19045 0.0302307 0)
(1.18725 0.0278664 0)
(1.18412 0.0256292 0)
(1.18108 0.0235106 0)
(1.17816 0.021502 0)
(1.17536 0.0195952 0)
(1.1727 0.017782 0)
(1.1702 0.0160545 0)
(1.16788 0.014405 0)
(1.16573 0.0128259 0)
(1.16378 0.01131 0)
(1.16202 0.00985 0)
(1.16047 0.00843903 0)
(1.15914 0.0070702 0)
(1.15802 0.0057368 0)
(1.15712 0.00443224 0)
(1.15644 0.00315001 0)
(1.15598 0.00188367 0)
(1.15576 0.000626801 0)
(1.08683 0.0655938 0)
(1.15376 0.0644469 0)
(1.18886 0.0600559 0)
(1.20375 0.0561962 0)
(1.20802 0.052352 0)
(1.20748 0.0487508 0)
(1.20504 0.0453649 0)
(1.20195 0.0421803 0)
(1.19871 0.0391772 0)
(1.19545 0.03634 0)
(1.19223 0.0336567 0)
(1.18906 0.0311172 0)
(1.18593 0.0287121 0)
(1.18287 0.0264328 0)
(1.1799 0.0242707 0)
(1.17703 0.0222176 0)
(1.17429 0.0202651 0)
(1.17168 0.0184054 0)
(1.16923 0.0166305 0)
(1.16695 0.014933 0)
(1.16484 0.0133052 0)
(1.16292 0.0117401 0)
(1.16119 0.0102305 0)
(1.15967 0.00876953 0)
(1.15836 0.00735036 0)
(1.15725 0.00596636 0)
(1.15637 0.00461099 0)
(1.1557 0.0032778 0)
(1.15525 0.00196038 0)
(1.15503 0.000652382 0)
(1.08568 0.0666196 0)
(1.15181 0.0654813 0)
(1.18663 0.0611192 0)
(1.20153 0.0572582 0)
(1.20591 0.0534017 0)
(1.20549 0.0497797 0)
(1.20317 0.046369 0)
(1.20019 0.0431565 0)
(1.19704 0.0401231 0)
(1.19388 0.0372536 0)
(1.19074 0.034536 0)
(1.18764 0.0319603 0)
(1.18459 0.0295175 0)
(1.1816 0.0271989 0)
(1.17869 0.0249963 0)
(1.17588 0.0229012 0)
(1.17319 0.0209058 0)
(1.17064 0.019002 0)
(1.16823 0.0171823 0)
(1.16599 0.015439 0)
(1.16392 0.013765 0)
(1.16203 0.0121529 0)
(1.16034 0.0105958 0)
(1.15884 0.00908694 0)
(1.15755 0.00761952 0)
(1.15646 0.00618697 0)
(1.15559 0.00478281 0)
(1.15493 0.00340066 0)
(1.15449 0.00203414 0)
(1.15427 0.00067698 0)
(1.08455 0.0675715 0)
(1.14988 0.0664392 0)
(1.18442 0.0621078 0)
(1.19931 0.0582489 0)
(1.20378 0.054384 0)
(1.20349 0.0507452 0)
(1.20128 0.0473134 0)
(1.19841 0.0440768 0)
(1.19536 0.0410166 0)
(1.19228 0.038118 0)
(1.18923 0.0353694 0)
(1.18621 0.0327607 0)
(1.18323 0.0302832 0)
(1.18031 0.0279282 0)
(1.17746 0.0256876 0)
(1.17471 0.0235534 0)
(1.17208 0.0215175 0)
(1.16957 0.0195722 0)
(1.16721 0.01771 0)
(1.16501 0.0159234 0)
(1.16298 0.0142052 0)
(1.16112 0.0125484 0)
(1.15946 0.0109461 0)
(1.15798 0.0093914 0)
(1.15671 0.00787778 0)
(1.15564 0.00639871 0)
(1.15479 0.00494777 0)
(1.15414 0.00351863 0)
(1.15371 0.00210498 0)
(1.15349 0.000700603 0)
(1.08344 0.0684502 0)
(1.14796 0.0673215 0)
(1.18221 0.0630226 0)
(1.19708 0.0591693 0)
(1.20165 0.0552996 0)
(1.20148 0.0516481 0)
(1.19938 0.0481991 0)
(1.19662 0.0449419 0)
(1.19366 0.0418584 0)
(1.19067 0.0389341 0)
(1.1877 0.0361576 0)
(1.18476 0.033519 0)
(1.18185 0.0310096 0)
(1.17899 0.028621 0)
(1.17621 0.0263453 0)
(1.17352 0.0241744 0)
(1.17094 0.0221006 0)
(1.16848 0.0201163 0)
(1.16616 0.018214 0)
(1.164 0.0163863 0)
(1.16201 0.0146263 0)
(1.16019 0.0129269 0)
(1.15855 0.0112814 0)
(1.1571 0.00968303 0)
(1.15585 0.00812527 0)
(1.1548 0.00660168 0)
(1.15396 0.00510594 0)
(1.15332 0.00363176 0)
(1.1529 0.00217292 0)
(1.15268 0.000723262 0)
(1.08235 0.0692564 0)
(1.14607 0.0681292 0)
(1.18001 0.0638649 0)
(1.19486 0.0600204 0)
(1.19952 0.0561496 0)
(1.19946 0.0524892 0)
(1.19748 0.0490269 0)
(1.19481 0.0457527 0)
(1.19195 0.0426493 0)
(1.18905 0.0397026 0)
(1.18616 0.0369013 0)
(1.18329 0.0342357 0)
(1.18045 0.0316973 0)
(1.17766 0.029278 0)
(1.17494 0.0269697 0)
(1.1723 0.0247648 0)
(1.16977 0.0226556 0)
(1.16737 0.0206346 0)
(1.16509 0.0186945 0)
(1.16297 0.0168281 0)
(1.16101 0.0150284 0)
(1.15922 0.0132886 0)
(1.15762 0.011602 0)
(1.15619 0.009962 0)
(1.15496 0.00836211 0)
(1.15393 0.00679599 0)
(1.1531 0.00525739 0)
(1.15248 0.00374011 0)
(1.15206 0.002238 0)
(1.15185 0.000744968 0)
(1.08128 0.069991 0)
(1.14419 0.0688636 0)
(1.17782 0.0646357 0)
(1.19264 0.0608032 0)
(1.19738 0.0569351 0)
(1.19743 0.0532697 0)
(1.19556 0.0497977 0)
(1.193 0.0465099 0)
(1.19023 0.04339 0)
(1.18741 0.0404241 0)
(1.1846 0.0376011 0)
(1.1818 0.0349115 0)
(1.17904 0.032347 0)
(1.17631 0.0298995 0)
(1.17365 0.0275614 0)
(1.17107 0.025325 0)
(1.16859 0.0231828 0)
(1.16623 0.0211275 0)
(1.164 0.0191519 0)
(1.16192 0.0172489 0)
(1.16 0.0154118 0)
(1.15824 0.0136337 0)
(1.15666 0.0119081 0)
(1.15526 0.0102285 0)
(1.15405 0.00858843 0)
(1.15304 0.00698173 0)
(1.15222 0.00540221 0)
(1.15161 0.00384375 0)
(1.1512 0.00230026 0)
(1.15099 0.000765733 0)
(1.08022 0.0706549 0)
(1.14233 0.0695257 0)
(1.17565 0.0653364 0)
(1.19043 0.0615191 0)
(1.19525 0.0576573 0)
(1.1954 0.0539906 0)
(1.19364 0.0505124 0)
(1.19118 0.0472147 0)
(1.1885 0.0440815 0)
(1.18576 0.0410995 0)
(1.18303 0.0382578 0)
(1.18031 0.0355471 0)
(1.17761 0.0329592 0)
(1.17495 0.0304863 0)
(1.17234 0.0281208 0)
(1.16982 0.0258554 0)
(1.16739 0.0236826 0)
(1.16508 0.0215954 0)
(1.16289 0.0195865 0)
(1.16085 0.0176492 0)
(1.15896 0.0157768 0)
(1.15724 0.0139625 0)
(1.15568 0.0121999 0)
(1.15431 0.0104826 0)
(1.15312 0.00880438 0)
(1.15212 0.00715904 0)
(1.15132 0.00554049 0)
(1.15072 0.00394272 0)
(1.15031 0.00235972 0)
(1.15011 0.000785569 0)
(1.07918 0.0712492 0)
(1.14049 0.070117 0)
(1.17349 0.0659683 0)
(1.18823 0.0621692 0)
(1.19311 0.0583173 0)
(1.19338 0.054653 0)
(1.19172 0.0511723 0)
(1.18935 0.0478679 0)
(1.18676 0.0447247 0)
(1.18411 0.0417297 0)
(1.18145 0.0388721 0)
(1.1788 0.0361431 0)
(1.17616 0.0335346 0)
(1.17357 0.0310389 0)
(1.17102 0.0286486 0)
(1.16855 0.0263566 0)
(1.16618 0.0241556 0)
(1.16391 0.0220386 0)
(1.16177 0.0199988 0)
(1.15976 0.0180293 0)
(1.15791 0.0161236 0)
(1.15621 0.0142751 0)
(1.15469 0.0124776 0)
(1.15334 0.0107246 0)
(1.15217 0.00901013 0)
(1.15119 0.00732803 0)
(1.1504 0.00567234 0)
(1.1498 0.00403711 0)
(1.14941 0.00241644 0)
(1.14921 0.000804491 0)
(1.07815 0.071775 0)
(1.13867 0.0706389 0)
(1.17134 0.0665329 0)
(1.18603 0.0627551 0)
(1.19099 0.0589164 0)
(1.19135 0.0552582 0)
(1.18979 0.0517783 0)
(1.18752 0.0484706 0)
(1.18501 0.0453205 0)
(1.18244 0.0423155 0)
(1.17986 0.039445 0)
(1.17728 0.0367004 0)
(1.17471 0.0340739 0)
(1.17217 0.0315579 0)
(1.16969 0.0291453 0)
(1.16727 0.0268291 0)
(1.16494 0.0246022 0)
(1.16272 0.0224577 0)
(1.16062 0.020389 0)
(1.15865 0.0183895 0)
(1.15683 0.0164526 0)
(1.15517 0.014572 0)
(1.15367 0.0127414 0)
(1.15234 0.0109547 0)
(1.15119 0.00920583 0)
(1.15023 0.00748885 0)
(1.14945 0.00579784 0)
(1.14887 0.00412699 0)
(1.14848 0.00247046 0)
(1.14828 0.000822512 0)
(1.07713 0.0722338 0)
(1.13686 0.0710929 0)
(1.16921 0.0670319 0)
(1.18385 0.0632782 0)
(1.18886 0.0594561 0)
(1.18932 0.0558073 0)
(1.18786 0.0523317 0)
(1.18568 0.0490239 0)
(1.18327 0.04587 0)
(1.18077 0.0428578 0)
(1.17826 0.0399773 0)
(1.17575 0.0372198 0)
(1.17325 0.0345778 0)
(1.17077 0.032044 0)
(1.16834 0.0296115 0)
(1.16598 0.0272734 0)
(1.1637 0.0250228 0)
(1.16152 0.0228531 0)
(1.15946 0.0207577 0)
(1.15753 0.0187301 0)
(1.15574 0.0167641 0)
(1.15411 0.0148532 0)
(1.15263 0.0129916 0)
(1.15133 0.011173 0)
(1.1502 0.00939167 0)
(1.14925 0.00764162 0)
(1.14849 0.00591712 0)
(1.14792 0.00421242 0)
(1.14753 0.00252181 0)
(1.14734 0.000839648 0)
(1.07613 0.072627 0)
(1.13508 0.0714807 0)
(1.1671 0.0674667 0)
(1.18168 0.06374 0)
(1.18675 0.0599378 0)
(1.1873 0.0563019 0)
(1.18594 0.0528337 0)
(1.18385 0.0495288 0)
(1.18152 0.0463741 0)
(1.1791 0.0433577 0)
(1.17666 0.0404698 0)
(1.17421 0.0377021 0)
(1.17177 0.0350471 0)
(1.16936 0.032498 0)
(1.16698 0.0300479 0)
(1.16467 0.0276902 0)
(1.16244 0.0254181 0)
(1.1603 0.0232253 0)
(1.15828 0.0211052 0)
(1.15639 0.0190516 0)
(1.15463 0.0170584 0)
(1.15303 0.0151193 0)
(1.15158 0.0132284 0)
(1.1503 0.0113799 0)
(1.14919 0.00956782 0)
(1.14826 0.00778651 0)
(1.14751 0.00603028 0)
(1.14694 0.0042935 0)
(1.14656 0.00257056 0)
(1.14638 0.000855915 0)
(1.07515 0.0729561 0)
(1.13332 0.0718041 0)
(1.16501 0.0678391 0)
(1.17953 0.0641421 0)
(1.18465 0.060363 0)
(1.18529 0.0567431 0)
(1.18402 0.0532856 0)
(1.18202 0.0499867 0)
(1.17976 0.046834 0)
(1.17743 0.0438161 0)
(1.17506 0.0409235 0)
(1.17267 0.038148 0)
(1.17029 0.0354826 0)
(1.16793 0.0329205 0)
(1.16561 0.0304552 0)
(1.16335 0.02808 0)
(1.16116 0.0257886 0)
(1.15907 0.0235747 0)
(1.15709 0.021432 0)
(1.15523 0.0193544 0)
(1.15351 0.0173358 0)
(1.15193 0.0153704 0)
(1.15051 0.0134522 0)
(1.14925 0.0115754 0)
(1.14816 0.00973447 0)
(1.14725 0.00792366 0)
(1.14651 0.00613745 0)
(1.14595 0.00437031 0)
(1.14558 0.00261675 0)
(1.14539 0.00087133 0)
(1.07417 0.0732227 0)
(1.13158 0.0720649 0)
(1.16294 0.068151 0)
(1.17739 0.0644863 0)
(1.18256 0.0607333 0)
(1.18329 0.0571326 0)
(1.18211 0.0536887 0)
(1.18019 0.0503987 0)
(1.17801 0.0472509 0)
(1.17575 0.0442342 0)
(1.17345 0.0413394 0)
(1.17113 0.0385587 0)
(1.16881 0.0358852 0)
(1.1665 0.0333124 0)
(1.16423 0.0308339 0)
(1.16202 0.0284434 0)
(1.15988 0.0261348 0)
(1.15783 0.0239019 0)
(1.15589 0.0217385 0)
(1.15406 0.0196388 0)
(1.15237 0.0175969 0)
(1.15082 0.0156069 0)
(1.14943 0.0136631 0)
(1.14819 0.0117599 0)
(1.14712 0.00989182 0)
(1.14622 0.00805323 0)
(1.14549 0.00623874 0)
(1.14495 0.00444294 0)
(1.14458 0.00266043 0)
(1.1444 0.00088591 0)
(1.07322 0.0734287 0)
(1.12987 0.072265 0)
(1.16089 0.0684042 0)
(1.17527 0.0647742 0)
(1.18048 0.0610502 0)
(1.18129 0.0574717 0)
(1.1802 0.0540444 0)
(1.17837 0.0507662 0)
(1.17627 0.0476259 0)
(1.17407 0.0446129 0)
(1.17183 0.0417184 0)
(1.16958 0.0389348 0)
(1.16732 0.0362555 0)
(1.16507 0.0336742 0)
(1.16285 0.0311848 0)
(1.16068 0.0287812 0)
(1.15859 0.0264574 0)
(1.15658 0.0242074 0)
(1.15467 0.0220253 0)
(1.15288 0.0199053 0)
(1.15122 0.0178418 0)
(1.1497 0.0158291 0)
(1.14833 0.0138615 0)
(1.14711 0.0119337 0)
(1.14606 0.0100401 0)
(1.14517 0.0081754 0)
(1.14446 0.00633428 0)
(1.14392 0.00451147 0)
(1.14356 0.00270167 0)
(1.14338 0.000899673 0)
(1.07227 0.0735758 0)
(1.12818 0.0724065 0)
(1.15887 0.0686006 0)
(1.17317 0.0650078 0)
(1.17842 0.0613155 0)
(1.17931 0.0577621 0)
(1.1783 0.0543542 0)
(1.17655 0.0510903 0)
(1.17452 0.0479601 0)
(1.1724 0.0449534 0)
(1.17022 0.0420616 0)
(1.16803 0.0392774 0)
(1.16582 0.0365946 0)
(1.16363 0.034007 0)
(1.16146 0.0315087 0)
(1.15934 0.0290939 0)
(1.15728 0.0267568 0)
(1.15531 0.0244917 0)
(1.15345 0.0222927 0)
(1.15169 0.0201544 0)
(1.15006 0.0180711 0)
(1.14857 0.0160373 0)
(1.14722 0.0140477 0)
(1.14602 0.0120968 0)
(1.14499 0.0101795 0)
(1.14412 0.00829032 0)
(1.14341 0.00642422 0)
(1.14288 0.004576 0)
(1.14253 0.0027405 0)
(1.14235 0.000912638 0)
(1.07134 0.073666 0)
(1.12651 0.0724915 0)
(1.15687 0.0687423 0)
(1.17109 0.0651888 0)
(1.17638 0.061531 0)
(1.17734 0.0580054 0)
(1.17641 0.0546194 0)
(1.17474 0.0513726 0)
(1.17278 0.048255 0)
(1.17072 0.0452569 0)
(1.16861 0.04237 0)
(1.16648 0.0395875 0)
(1.16433 0.0369032 0)
(1.16218 0.0343114 0)
(1.16006 0.0318063 0)
(1.15799 0.0293823 0)
(1.15597 0.0270339 0)
(1.15404 0.0247554 0)
(1.15221 0.0225414 0)
(1.15049 0.0203864 0)
(1.14889 0.018285 0)
(1.14742 0.016232 0)
(1.14609 0.0142219 0)
(1.14492 0.0122497 0)
(1.1439 0.0103102 0)
(1.14304 0.00839818 0)
(1.14235 0.00650868 0)
(1.14183 0.00463663 0)
(1.14148 0.002777 0)
(1.14131 0.000924824 0)
(1.07043 0.0737014 0)
(1.12486 0.072522 0)
(1.15489 0.0688312 0)
(1.16903 0.0653192 0)
(1.17435 0.0616984 0)
(1.17539 0.0582031 0)
(1.17454 0.0548417 0)
(1.17294 0.0516143 0)
(1.17105 0.0485117 0)
(1.16906 0.0455245 0)
(1.16701 0.0426448 0)
(1.16493 0.0398661 0)
(1.16283 0.0371824 0)
(1.16073 0.0345883 0)
(1.15866 0.0320783 0)
(1.15663 0.029647 0)
(1.15466 0.0272891 0)
(1.15277 0.0249991 0)
(1.15097 0.0227718 0)
(1.14927 0.0206019 0)
(1.1477 0.0184841 0)
(1.14626 0.0164134 0)
(1.14496 0.0143846 0)
(1.1438 0.0123926 0)
(1.1428 0.0104325 0)
(1.14196 0.00849917 0)
(1.14128 0.0065878 0)
(1.14077 0.00469345 0)
(1.14042 0.00281122 0)
(1.14025 0.000936251 0)
(1.06953 0.0736838 0)
(1.12324 0.0725002 0)
(1.15295 0.0688695 0)
(1.167 0.065401 0)
(1.17235 0.0618194 0)
(1.17345 0.0583569 0)
(1.17268 0.0550225 0)
(1.17115 0.0518169 0)
(1.16933 0.0487315 0)
(1.1674 0.0457574 0)
(1.1654 0.042887 0)
(1.16338 0.0401141 0)
(1.16133 0.0374331 0)
(1.15929 0.0348386 0)
(1.15726 0.0323256 0)
(1.15527 0.0298888 0)
(1.15334 0.0275231 0)
(1.15148 0.0252233 0)
(1.14972 0.0229844 0)
(1.14805 0.0208012 0)
(1.14651 0.0186687 0)
(1.14509 0.016582 0)
(1.14381 0.0145359 0)
(1.14268 0.0125257 0)
(1.14169 0.0105465 0)
(1.14086 0.00859346 0)
(1.14019 0.00666173 0)
(1.13969 0.00474657 0)
(1.13935 0.00284321 0)
(1.13918 0.00094694 0)
(1.06864 0.0736155 0)
(1.12165 0.0724285 0)
(1.15102 0.0688592 0)
(1.16499 0.0654361 0)
(1.17037 0.0618961 0)
(1.17153 0.0584687 0)
(1.17083 0.0551635 0)
(1.16937 0.0519819 0)
(1.16761 0.0489158 0)
(1.16574 0.0459569 0)
(1.16381 0.0430978 0)
(1.16183 0.0403326 0)
(1.15984 0.0376561 0)
(1.15784 0.0350631 0)
(1.15585 0.0325489 0)
(1.15391 0.0301083 0)
(1.15201 0.0277366 0)
(1.15019 0.0254288 0)
(1.14846 0.0231798 0)
(1.14683 0.020985 0)
(1.14531 0.0188393 0)
(1.14392 0.016738 0)
(1.14266 0.0146763 0)
(1.14154 0.0126494 0)
(1.14057 0.0106526 0)
(1.13975 0.00868124 0)
(1.1391 0.00673061 0)
(1.1386 0.0047961 0)
(1.13827 0.00287306 0)
(1.1381 0.000956909 0)
(1.06777 0.0734987 0)
(1.12008 0.072309 0)
(1.14913 0.0688027 0)
(1.16301 0.0654266 0)
(1.1684 0.0619302 0)
(1.16963 0.05854 0)
(1.16899 0.0552661 0)
(1.1676 0.0521106 0)
(1.16591 0.049066 0)
(1.16409 0.0461241 0)
(1.16221 0.0432783 0)
(1.16029 0.0405227 0)
(1.15834 0.0378525 0)
(1.15639 0.0352628 0)
(1.15445 0.032749 0)
(1.15254 0.0303064 0)
(1.15068 0.0279303 0)
(1.1489 0.0256159 0)
(1.14719 0.0233586 0)
(1.14559 0.0211536 0)
(1.1441 0.0189963 0)
(1.14273 0.016882 0)
(1.14149 0.0148061 0)
(1.14039 0.0127639 0)
(1.13944 0.010751 0)
(1.13864 0.00876271 0)
(1.13799 0.00679459 0)
(1.1375 0.00484213 0)
(1.13717 0.00290081 0)
(1.13701 0.000966182 0)
(1.06692 0.0733356 0)
(1.11854 0.0721442 0)
(1.14727 0.0687019 0)
(1.16105 0.0653745 0)
(1.16647 0.0619237 0)
(1.16775 0.0585727 0)
(1.16718 0.0553321 0)
(1.16585 0.0522047 0)
(1.16422 0.0491833 0)
(1.16246 0.0462605 0)
(1.16063 0.0434296 0)
(1.15875 0.0406854 0)
(1.15685 0.0380232 0)
(1.15494 0.0354385 0)
(1.15304 0.0329268 0)
(1.15117 0.0304837 0)
(1.14935 0.0281048 0)
(1.1476 0.0257855 0)
(1.14593 0.0235213 0)
(1.14435 0.0213077 0)
(1.14289 0.0191402 0)
(1.14154 0.0170143 0)
(1.14032 0.0149255 0)
(1.13924 0.0128695 0)
(1.1383 0.0108419 0)
(1.13751 0.00883807 0)
(1.13687 0.00685383 0)
(1.13639 0.00488478 0)
(1.13607 0.00292653 0)
(1.13591 0.000974779 0)
(1.06608 0.0731285 0)
(1.11702 0.0719364 0)
(1.14543 0.0685593 0)
(1.15912 0.0652819 0)
(1.16455 0.0618784 0)
(1.16589 0.0585685 0)
(1.16538 0.0553631 0)
(1.16411 0.0522655 0)
(1.16254 0.0492693 0)
(1.16083 0.0463671 0)
(1.15905 0.043553 0)
(1.15722 0.0408219 0)
(1.15537 0.0381693 0)
(1.1535 0.0355911 0)
(1.15164 0.0330831 0)
(1.1498 0.0306411 0)
(1.14802 0.0282609 0)
(1.1463 0.0259381 0)
(1.14465 0.0236684 0)
(1.14311 0.0214476 0)
(1.14166 0.0192713 0)
(1.14034 0.0171352 0)
(1.13914 0.0150351 0)
(1.13808 0.0129666 0)
(1.13715 0.0109255 0)
(1.13637 0.00890752 0)
(1.13575 0.00690848 0)
(1.13527 0.00492415 0)
(1.13496 0.00295029 0)
(1.1348 0.000982723 0)
(1.06526 0.0728797 0)
(1.11554 0.0716878 0)
(1.14363 0.0683769 0)
(1.15723 0.065151 0)
(1.16267 0.0617964 0)
(1.16405 0.0585293 0)
(1.1636 0.0553608 0)
(1.16239 0.0522948 0)
(1.16087 0.0493253 0)
(1.15921 0.0464455 0)
(1.15748 0.0436497 0)
(1.1557 0.0409332 0)
(1.15388 0.0382918 0)
(1.15206 0.0357216 0)
(1.15023 0.0332188 0)
(1.14844 0.0307793 0)
(1.14668 0.0283992 0)
(1.14499 0.0260743 0)
(1.14338 0.0238006 0)
(1.14186 0.0215739 0)
(1.14044 0.0193902 0)
(1.13914 0.0172452 0)
(1.13796 0.015135 0)
(1.13691 0.0130553 0)
(1.136 0.0110021 0)
(1.13523 0.00897125 0)
(1.13461 0.0069587 0)
(1.13415 0.00496036 0)
(1.13383 0.00297216 0)
(1.13368 0.000990034 0)
(1.06445 0.0725914 0)