/*--------------------------------*- C++ -*----------------------------------*\
  =========                 |
  \\      /  F ield         | OpenFOAM: The Open Source CFD Toolbox
   \\    /   O peration     | Website:  https://openfoam.org
    \\  /    A nd           | Version:  7
     \\/     M anipulation  |
\*---------------------------------------------------------------------------*/
FoamFile
{
    version     2.0;
    format      ascii;
    class       surfaceScalarField;
    location    "60";
    object      phi;
}
// * * * * * * * * * * * * * * * * * * * * * * * * * * * * * * * * * * * * * //

dimensions      [0 3 -1 0 0 0 0];

internalField   nonuniform List<scalar> 
6868
(
-0.00246437
-1.87878e-05
-0.00244226
-2.05098e-05
-0.00241844
-2.22732e-05
-0.0023929
-2.40781e-05
-0.00236561
-2.59237e-05
-0.00233655
-2.78086e-05
-0.00230571
-2.97309e-05
-0.00227308
-3.16881e-05
-0.00223863
-3.3677e-05
-0.00220238
-3.5694e-05
-0.0021643
-3.77349e-05
-0.00212439
-3.97949e-05
-0.00208265
-4.18685e-05
-0.00203909
-4.39502e-05
-0.00199371
-4.60341e-05
-0.00194651
-4.8114e-05
-0.00189752
-5.01832e-05
-0.00184675
-5.22352e-05
-0.00179421
-5.42633e-05
-0.00173994
-5.62609e-05
-0.00168395
-5.82216e-05
-0.00162629
-6.01389e-05
-0.00156698
-6.20063e-05
-0.00150605
-6.38238e-05
-0.00144354
-6.55906e-05
-0.00137953
-6.72552e-05
-0.00131406
-6.88395e-05
-0.00124719
-7.03475e-05
-0.00117896
-7.17734e-05
-0.00110945
-7.31123e-05
-0.00103869
-7.43606e-05
-0.000966768
-7.55151e-05
-0.000893732
-7.65736e-05
-0.000819649
-7.75343e-05
-0.000744588
-7.83963e-05
-0.000668616
-7.91588e-05
-0.000591805
-7.98194e-05
-0.000514227
-8.03801e-05
-0.000435886
-8.09101e-05
-0.000356929
-8.1267e-05
-0.000277414
-8.15419e-05
-0.0001974
-8.17374e-05
-0.000116953
-8.18498e-05
-3.6139e-05
-8.18813e-05
4.49778e-05
-8.18357e-05
0.000126335
-8.17177e-05
0.00020787
-8.15323e-05
0.000289517
-8.12848e-05
0.000371222
-8.09789e-05
0.000452928
-8.06199e-05
0.00053458
-8.02128e-05
0.000616127
-7.97629e-05
0.000697517
-7.92752e-05
0.000778703
-7.87549e-05
0.000859639
-7.82066e-05
0.000940283
-7.76353e-05
0.00102059
-7.70455e-05
0.00110053
-7.64415e-05
0.00118007
-7.58276e-05
0.00125916
-7.52076e-05
0.00133778
-7.45852e-05
0.00141591
-7.39639e-05
0.00149351
-7.33468e-05
0.00157056
-7.27367e-05
0.00164705
-7.21364e-05
0.00172295
-7.15481e-05
0.00179825
-7.0974e-05
0.00187293
-7.04159e-05
0.00194699
-6.98753e-05
0.00202042
-6.93538e-05
0.0020932
-6.88525e-05
0.00216534
-6.83724e-05
0.00223683
-6.79144e-05
0.00230767
-6.7479e-05
0.00237787
-6.70671e-05
0.00244743
-6.66791e-05
0.00251636
-6.63156e-05
0.00258466
-6.5977e-05
0.00265236
-6.56642e-05
0.00271946
-6.53777e-05
0.00278598
-6.51188e-05
0.00285195
-6.48887e-05
0.00291739
-6.46897e-05
0.00298233
-6.45237e-05
0.00304681
-6.43964e-05
0.00311086
-6.43067e-05
0.00317455
-6.42787e-05
5.85441e-07
0.00323792
-6.42851e-05
9.16422e-07
0.00330111
-6.44288e-05
1.24462e-06
0.0033641
-6.45564e-05
1.56746e-06
-6.45249e-05
1.91375e-06
-0.00198045
-4.16029e-05
-0.00195597
-4.49891e-05
-0.00192981
-4.84321e-05
-0.00190196
-5.19308e-05
-0.0018724
-5.54836e-05
-0.00184112
-5.90877e-05
-0.00180811
-6.27396e-05
-0.00177336
-6.64349e-05
-0.00173687
-7.01683e-05
-0.00169863
-7.39337e-05
-0.00165864
-7.77243e-05
-0.0016169
-8.15323e-05
-0.00157342
-8.53495e-05
-0.00152821
-8.91672e-05
-0.00148126
-9.29761e-05
-0.00143261
-9.67665e-05
-0.00138227
-0.000100528
-0.00133025
-0.000104252
-0.00127659
-0.000107926
-0.00122131
-0.000111542
-0.00116444
-0.000115089
-0.00110602
-0.000118559
-0.00104608
-0.000121941
-0.000984676
-0.000125231
-0.000921789
-0.000128477
-0.000857536
-0.000131508
-0.000791968
-0.000134407
-0.000725134
-0.000137182
-0.000657086
-0.000139821
-0.00058788
-0.000142318
-0.000517577
-0.000144664
-0.000446235
-0.000146857
-0.000373916
-0.000148892
-0.000300684
-0.000150766
-0.000226603
-0.000152478
-0.000151735
-0.000154027
-7.61319e-05
-0.000155422
1.53715e-07
-0.000156666
7.69062e-05
-0.000157663
0.000154207
-0.000158568
0.00023198
-0.000159315
0.000310149
-0.000159907
0.000388648
-0.000160349
0.000467415
-0.000160648
0.000546388
-0.000160809
0.000625508
-0.000160838
0.000704717
-0.000160741
0.000783959
-0.000160526
0.000863179
-0.000160199
0.000942326
-0.000159767
0.00102135
-0.000159237
0.0011002
-0.000158616
0.00117884
-0.000157911
0.00125721
-0.000157131
0.00133529
-0.000156281
0.00141302
-0.00015537
0.00149038
-0.000154404
0.00156733
-0.000153389
0.00164383
-0.000152332
0.00171987
-0.000151241
0.0017954
-0.000150119
0.00187041
-0.000148974
0.00194487
-0.000147811
0.00201877
-0.000146634
0.00209209
-0.00014545
0.0021648
-0.000144262
0.0022369
-0.000143074
0.00230837
-0.000141892
0.00237922
-0.000140718
0.00244942
-0.000139556
0.00251898
-0.00013841
0.00258789
-0.000137282
0.00265615
-0.000136177
0.00272377
-0.000135096
0.00279074
-0.000134042
0.00285708
-0.000133018
0.00292279
-0.000132028
0.00298789
-0.000131073
0.00305238
-0.000130158
0.00311629
-0.000129285
0.00317963
-0.000128458
0.00324242
-0.000127682
0.0033047
-0.000126963
0.00336648
-0.000126305
0.0034278
-0.000125722
0.00348871
-0.000125211
0.00354925
-0.000124819
0.00360945
-0.000124492
0.00366941
-0.000124384
0.0037292
-0.000124348
-0.000124074
-0.00106604
-0.00103792
-7.31111e-05
-0.00100816
-7.81928e-05
-0.000976751
-8.33348e-05
-0.0009437
-8.85343e-05
-0.000909001
-9.37871e-05
-0.000872653
-9.9088e-05
-0.000834657
-0.000104431
-0.000795018
-0.000109808
-0.000753741
-0.000115211
-0.000710834
-0.000120631
-0.00066631
-0.000126057
-0.000620181
-0.000131478
-0.000572464
-0.000136884
-0.000523179
-0.000142261
-0.000472349
-0.000147597
-0.000419998
-0.000152879
-0.000366156
-0.000158094
-0.000310853
-0.000163229
-0.000254124
-0.000168271
-0.000196006
-0.000173207
-0.000136538
-0.000178027
-7.57539e-05
-0.000182725
-1.36935e-05
-0.000187291
4.94231e-05
-0.000191594
0.000113693
-0.000195778
0.000179082
-0.000199796
0.000245526
-0.000203626
0.000312965
-0.000207261
0.000381339
-0.000210691
0.000450585
-0.000213911
0.000520643
-0.000216915
0.000591449
-0.000219698
0.000662941
-0.000222258
0.000735056
-0.000224593
0.000807731
-0.000226702
0.000880897
-0.000228589
0.000954483
-0.000230252
0.00102849
-0.00023167
0.0011028
-0.000232879
0.00117736
-0.000233878
0.00125212
-0.000234666
0.00132702
-0.000235248
0.00140201
-0.000235633
0.00147702
-0.000235825
0.00155202
-0.000235834
0.00162695
-0.000235667
0.00170175
-0.000235333
0.00177639
-0.00023484
0.00185082
-0.000234198
0.001925
-0.000233415
0.00199889
-0.000232502
0.00207244
-0.000231467
0.00214563
-0.00023032
0.00221842
-0.000229071
0.00229078
-0.000227728
0.00236268
-0.0002263
0.00243409
-0.000224798
0.00250498
-0.000223228
0.00257534
-0.000221601
0.00264515
-0.000219923
0.00271437
-0.000218203
0.00278301
-0.000216448
0.00285104
-0.000214666
0.00291846
-0.000212863
0.00298524
-0.000211047
0.00305139
-0.000209223
0.0031169
-0.000207398
0.00318176
-0.000205577
0.00324597
-0.000203766
0.00330953
-0.00020197
0.00337244
-0.000200195
0.00343471
-0.000198444
0.00349634
-0.000196724
0.00355733
-0.000195039
0.00361771
-0.000193393
0.00367747
-0.000191792
0.00373664
-0.00019024
0.00379522
-0.000188743
0.00385325
-0.000187307
0.00391073
-0.000185938
0.00396769
-0.000184643
0.00402416
-0.000183432
0.00408016
-0.000182308
0.00413573
-0.000181296
0.00419091
-0.000180385
0.00424573
-0.000179639
0.00430023
-0.000179
0.00435443
-0.000178579
0.00440849
-0.000178411
-0.000178031
0.000224478
-0.000104237
0.000257237
-0.000110951
0.000291617
-0.000117715
0.000327606
-0.000124524
0.000365192
-0.000131372
0.000404358
-0.000138254
0.000445088
-0.000145161
0.000487363
-0.000152083
0.000531164
-0.000159012
0.000576468
-0.000165934
0.000623249
-0.000172838
0.000671481
-0.000179711
0.000721135
-0.000186538
0.000772179
-0.000193304
0.000824577
-0.000199995
0.000878293
-0.000206595
0.000933287
-0.000213089
0.000989518
-0.00021946
0.00104694
-0.000225693
0.00110551
-0.000231773
0.00116516
-0.000237686
0.00122586
-0.000243421
0.00128753
-0.00024896
0.00135019
-0.000254254
0.00141374
-0.000259328
0.00147812
-0.000264175
0.00154327
-0.000268777
0.00160913
-0.000273124
0.00167565
-0.000277208
0.00174276
-0.000281022
0.00181041
-0.000284561
0.00187853
-0.000287821
0.00194707
-0.000290797
0.00201597
-0.00029349
0.00208516
-0.000295898
0.0021546
-0.000298023
0.00222421
-0.000299868
0.00229397
-0.000301429
0.00236381
-0.000302718
0.00243367
-0.00030374
0.00250351
-0.000304502
0.00257327
-0.000305009
0.00264291
-0.000305271
0.00271238
-0.000305297
0.00278164
-0.000305094
0.00285065
-0.000304675
0.00291936
-0.000304049
0.00298775
-0.000303227
0.00305577
-0.00030222
0.0031234
-0.00030104
0.00319059
-0.000299698
0.00325733
-0.000298206
0.00332359
-0.000296574
0.00338933
-0.000294816
0.00345455
-0.000292941
0.00351921
-0.000290961
0.0035833
-0.000288887
0.0036468
-0.00028673
0.0037097
-0.000284499
0.00377198
-0.000282206
0.00383364
-0.00027986
0.00389466
-0.00027747
0.00395504
-0.000275045
0.00401477
-0.000272595
0.00407385
-0.000270127
0.00413228
-0.000267649
0.00419005
-0.00026517
0.00424717
-0.000262697
0.00430364
-0.000260237
0.00435946
-0.000257796
0.00441465
-0.000255383
0.00446921
-0.000253002
0.00452315
-0.000250662
0.00457648
-0.000248368
0.00462921
-0.000246127
0.00468137
-0.000243946
0.00473296
-0.00024183
0.004784
-0.000239789
0.00483452
-0.000237828
0.00488454
-0.000235958
0.00493409
-0.000234185
0.00498318
-0.000232524
0.00503185
-0.000230978
0.00508013
-0.000229575
0.00512805
-0.000228308
0.00517563
-0.000227224
0.00522296
-0.000226322
0.00526996
-0.000225581
0.00531683
-0.00022528
-0.000224839
0.00173228
-0.000135829
0.00176556
-0.000144231
0.0018005
-0.000152653
0.00183706
-0.000161088
0.00187522
-0.000169529
0.00191493
-0.000177969
0.00195617
-0.000186399
0.0019989
-0.000194809
0.00204307
-0.000203185
0.00208865
-0.000211516
0.0021356
-0.000219788
0.00218388
-0.000227984
0.00223343
-0.00023609
0.00228422
-0.00024409
0.00233619
-0.000251965
0.00238929
-0.0002597
0.00244348
-0.000267277
0.0024987
-0.000274679
0.00255489
-0.000281888
0.00261201
-0.000288888
0.00266999
-0.000295663
0.00272876
-0.000302198
0.00278828
-0.000308477
0.0028485
-0.000314478
0.00290937
-0.000320194
0.00297081
-0.000325616
0.00303277
-0.000330733
0.00309518
-0.000335535
0.00315799
-0.000340016
0.00322113
-0.000344168
0.00328456
-0.000347987
0.00334821
-0.00035147
0.00341203
-0.000354615
0.00347596
-0.000357422
0.00353995
-0.000359891
0.00360395
-0.000362025
0.00366791
-0.000363828
0.00373179
-0.000365303
0.00379553
-0.000366459
0.00385909
-0.000367303
0.00392243
-0.000367842
0.00398551
-0.000368088
0.00404829
-0.00036805
0.00411073
-0.000367738
0.0041728
-0.000367165
0.00423447
-0.000366342
0.0042957
-0.000365283
0.00435648
-0.000364
0.00441676
-0.000362507
0.00447654
-0.000360816
0.00453578
-0.000358942
0.00459447
-0.000356897
0.0046526
-0.000354696
0.00471013
-0.000352352
0.00476707
-0.000349878
0.00482339
-0.000347286
0.0048791
-0.000344591
0.00493417
-0.000341803
0.00498861
-0.000338935
0.0050424
-0.000336
0.00509555
-0.000333007
0.00514805
-0.000329969
0.0051999
-0.000326895
0.0052511
-0.000323797
0.00530165
-0.000320683
0.00535157
-0.000317564
0.00540085
-0.000314448
0.00544949
-0.000311345
0.00549752
-0.000308262
0.00554493
-0.000305209
0.00559174
-0.000302194
0.00563797
-0.000299224
0.00568361
-0.000296307
0.00572869
-0.000293451
0.00577323
-0.000290664
0.00581724
-0.000287955
0.00586074
-0.00028533
0.00590375
-0.0002828
0.00594629
-0.000280373
0.00598839
-0.000278059
0.00603008
-0.000275867
0.00607137
-0.000273813
0.00611229
-0.000271904
0.00615287
-0.000270158
0.00619316
-0.000268595
0.00623315
-0.000267209
0.00627292
-0.000266098
0.00631242
-0.000265081
0.00635178
-0.000264635
-0.000264117
0.00338991
0.0034193
-0.000173624
0.00345052
-0.000183874
0.00348351
-0.000194075
0.0035182
-0.00020422
0.00355453
-0.0002143
0.00359244
-0.000224309
0.00363187
-0.000234235
0.00367275
-0.000244066
0.00371502
-0.000253789
0.00375862
-0.000263389
0.00380349
-0.000272851
0.00384956
-0.000282159
0.00389676
-0.000291297
0.00394504
-0.000300246
0.00399433
-0.000308991
0.00404457
-0.000317512
0.00409568
-0.000325794
0.00414762
-0.000333818
0.0042003
-0.000341569
0.00425366
-0.00034903
0.00430765
-0.000356186
0.0043622
-0.000363022
0.00441724
-0.000369523
0.00447272
-0.000375677
0.00452858
-0.000381476
0.00458476
-0.000386909
0.00464119
-0.000391969
0.00469783
-0.000396649
0.0047546
-0.000400946
0.00481147
-0.000404856
0.00486838
-0.000408377
0.00492527
-0.00041151
0.00498211
-0.000414256
0.00503884
-0.000416618
0.00509541
-0.0004186
0.00515179
-0.000420209
0.00520794
-0.000421452
0.00526382
-0.000422336
0.00531939
-0.000422872
0.00537461
-0.00042307
0.00542947
-0.000422943
0.00548392
-0.000422502
0.00553795
-0.000421761
0.00559151
-0.000420734
0.00564461
-0.000419434
0.0056972
-0.000417876
0.00574927
-0.000416076
0.00580081
-0.000414048
0.00585181
-0.000411807
0.00590223
-0.00040937
0.00595209
-0.000406751
0.00600136
-0.000403966
0.00605003
-0.000401029
0.00609811
-0.000397956
0.00614559
-0.00039476
0.00619245
-0.000391456
0.00623871
-0.000388059
0.00628435
-0.00038458
0.00632939
-0.000381034
0.00637381
-0.000377433
0.00641763
-0.000373789
0.00646085
-0.000370115
0.00650348
-0.000366421
0.00654551
-0.000362718
0.00658697
-0.000359017
0.00662785
-0.000355328
0.00666816
-0.000351662
0.00670793
-0.000348028
0.00674715
-0.000344435
0.00678585
-0.000340892
0.00682404
-0.000337408
0.00686172
-0.000333993
0.00689893
-0.000330655
0.00693567
-0.000327404
0.00697196
-0.000324247
0.00700782
-0.000321195
0.00704328
-0.000318257
0.00707835
-0.000315444
0.00711306
-0.000312765
0.00714743
-0.000310235
0.00718147
-0.00030786
0.00721523
-0.000305664
0.00724872
-0.000303641
0.00728197
-0.000301851
0.00731499
-0.000300222
0.00734784
-0.000298951
0.00738049
-0.000297732
0.007413
-0.000297148
-0.000296536
0.00511071
0.0051335
-0.000206657
0.00515829
-0.000218865
0.00518499
-0.000230919
0.0052135
-0.000242814
0.00524373
-0.000254543
0.0052756
-0.000266099
0.005309
-0.000277469
0.00534385
-0.000288643
0.00538007
-0.000299608
0.00541757
-0.00031035
0.00545627
-0.000320854
0.00549608
-0.000331106
0.00553692
-0.000341089
0.00557872
-0.000350789
0.00562139
-0.000360189
0.00566487
-0.000369273
0.00570908
-0.000378027
0.00575395
-0.000386434
0.0057994
-0.000394482
0.00584537
-0.000402157
0.00589179
-0.000409446
0.00593861
-0.000416336
0.00598575
-0.000422819
0.00603316
-0.000428886
0.00608078
-0.000434529
0.00612856
-0.000439744
0.00617643
-0.000444526
0.00622436
-0.000448873
0.00627229
-0.000452784
0.00632017
-0.000456262
0.00636797
-0.000459307
0.00641564
-0.000461924
0.00646314
-0.000464118
0.00651043
-0.000465896
0.00655749
-0.000467267
0.00660428
-0.000468239
0.00665077
-0.000468824
0.00669693
-0.000469033
0.00674274
-0.00046888
0.00678817
-0.000468378
0.00683321
-0.000467541
0.00687784
-0.000466385
0.00692203
-0.000464925
0.00696577
-0.000463178
0.00700905
-0.000461159
0.00705187
-0.000458886
0.00709419
-0.000456375
0.00713603
-0.000453643
0.00717736
-0.000450707
0.0072182
-0.000447583
0.00725852
-0.000444288
0.00729833
-0.000440839
0.00733762
-0.000437251
0.0073764
-0.000433541
0.00741467
-0.000429722
0.00745242
-0.000425811
0.00748966
-0.000421822
0.0075264
-0.000417769
0.00756263
-0.000413665
0.00759836
-0.000409523
0.00763361
-0.000405357
0.00766837
-0.000401179
0.00770265
-0.000397
0.00773646
-0.000392831
0.00776982
-0.000388685
0.00780273
-0.000384571
0.0078352
-0.0003805
0.00786725
-0.000376482
0.00789888
-0.000372527
0.00793012
-0.000368645
0.00796097
-0.000364845
0.00799145
-0.000361138
0.00802158
-0.000357532
0.00805137
-0.000354038
0.00808084
-0.000350666
0.00811001
-0.000347425
0.0081389
-0.000344329
0.00816751
-0.000341383
0.00819589
-0.000338609
0.00822403
-0.000336004
0.00825198
-0.000333608
0.00827972
-0.000331389
0.00830732
-0.000329447
0.00833475
-0.000327652
0.00836207
-0.00032627
0.00838926
-0.000324929
0.00841636
-0.000324241
-0.000323538
0.00672255
-0.000217343
0.00673551
-0.000231829
0.00675062
-0.000246027
0.00676775
-0.000259938
0.00678676
-0.000273562
0.00680756
-0.000286894
0.00683002
-0.000299927
0.00685403
-0.000312654
0.00687948
-0.000325065
0.00690628
-0.00033715
0.00693433
-0.000348899
0.00696352
-0.0003603
0.00699377
-0.00037134
0.00702499
-0.000382009
0.0070571
-0.000392293
0.00709
-0.000402179
0.00712364
-0.000411657
0.00715791
-0.000420714
0.00719277
-0.00042934
0.00722814
-0.000437524
0.00726395
-0.000445257
0.00730014
-0.000452531
0.00733666
-0.000459339
0.00737345
-0.000465676
0.00741046
-0.000471537
0.00744764
-0.00047692
0.00748493
-0.000481823
0.00752231
-0.000486248
0.00755972
-0.000490196
0.00759713
-0.000493672
0.0076345
-0.000496679
0.0076718
-0.000499224
0.007709
-0.000501316
0.00774607
-0.000502962
0.00778297
-0.000504175
0.0078197
-0.000504965
0.00785622
-0.000505345
0.00789252
-0.000505329
0.00792857
-0.000504932
0.00796436
-0.000504169
0.00799987
-0.000503057
0.0080351
-0.000501611
0.00807003
-0.000499851
0.00810464
-0.000497791
0.00813893
-0.000495452
0.0081729
-0.000492849
0.00820652
-0.000490003
0.00823981
-0.000486929
0.00827275
-0.000483647
0.00830534
-0.000480174
0.00833758
-0.000476527
0.00836946
-0.000472724
0.00840099
-0.000468781
0.00843217
-0.000464716
0.00846299
-0.000460544
0.00849346
-0.000456281
0.00852358
-0.000451942
0.00855335
-0.000447541
0.00858278
-0.000443094
0.00861187
-0.000438614
0.00864063
-0.000434115
0.00866906
-0.000429608
0.00869717
-0.000425107
0.00872496
-0.000420624
0.00875245
-0.000416171
0.00877963
-0.000411758
0.00880653
-0.000407397
0.00883315
-0.000403098
0.00885949
-0.000398872
0.00888558
-0.000394729
0.00891141
-0.00039068
0.00893701
-0.000386734
0.00896238
-0.000382903
0.00898753
-0.000379195
0.00901249
-0.000375623
0.00903726
-0.000372195
0.00906186
-0.000368926
0.0090863
-0.00036582
0.00911059
-0.000362904
0.00913475
-0.000360164
0.0091588
-0.000357658
0.00918274
-0.000355328
0.0092066
-0.000353305
0.00923037
-0.000351423
0.00925408
-0.000349981
0.00927774
-0.000348587
0.00930134
-0.000347846
-0.00034709
0.00806877
0.00806936
-0.000232418
0.00807219
-0.000248852
0.00807711
-0.000264857
0.00808398
-0.00028044
0.00809269
-0.000295603
0.00810311
-0.000310347
0.00811513
-0.000324668
0.00812863
-0.000338564
0.00814351
-0.000352031
0.00815967
-0.000365062
0.00817702
-0.00037765
0.00819547
-0.000389789
0.00821493
-0.00040147
0.00823532
-0.000412686
0.00825657
-0.000423428
0.0082786
-0.000433688
0.00830135
-0.000443459
0.00832474
-0.000452734
0.00834873
-0.000461506
0.00837324
-0.00046977
0.00839823
-0.000477522
0.00842365
-0.000484757
0.00844945
-0.000491473
0.00847558
-0.000497669
0.00850201
-0.000503347
0.00852869
-0.000508507
0.00855559
-0.000513153
0.00858269
-0.000517288
0.00860993
-0.000520919
0.00863731
-0.000524052
0.00866478
-0.000526696
0.00869232
-0.000528861
0.00871992
-0.000530558
0.00874754
-0.000531799
0.00877518
-0.000532598
0.0088028
-0.000532967
0.00883039
-0.000532924
0.00885795
-0.000532485
0.00888544
-0.000531665
0.00891287
-0.000530483
0.00894021
-0.000528955
0.00896746
-0.000527101
0.00899461
-0.000524939
0.00902165
-0.000522487
0.00904856
-0.000519765
0.00907535
-0.00051679
0.009102
-0.000513582
0.00912852
-0.00051016
0.00915488
-0.000506541
0.0091811
-0.000502744
0.00920716
-0.000498787
0.00923307
-0.000494688
0.00925882
-0.000490463
0.0092844
-0.000486129
0.00930983
-0.000481703
0.00933508
-0.0004772
0.00936018
-0.000472636
0.00938511
-0.000468025
0.00940988
-0.000463382
0.00943448
-0.000458721
0.00945893
-0.000454055
0.00948322
-0.000449397
0.00950735
-0.00044476
0.00953134
-0.000440155
0.00955518
-0.000435596
0.00957887
-0.000431093
0.00960243
-0.000426657
0.00962586
-0.0004223
0.00964916
-0.000418032
0.00967235
-0.000413865
0.00969542
-0.000409808
0.00971839
-0.000405872
0.00974126
-0.000402068
0.00976405
-0.000398408
0.00978675
-0.000394899
0.00980939
-0.00039156
0.00983195
-0.000388389
0.00985447
-0.000385421
0.00987694
-0.000382632
0.00989937
-0.00038009
0.00992177
-0.000377725
0.00994415
-0.000375681
0.0099665
-0.000373776
0.00998883
-0.000372317
0.0100112
-0.000370906
0.0100334
-0.00037014
-0.000369405
0.00903223
-0.00022252
0.00902449
-0.000241105
0.00901878
-0.000259147
0.00901499
-0.000276656
0.00901303
-0.000293636
0.00901277
-0.000310093
0.00901413
-0.000326027
0.00901701
-0.000341441
0.00902131
-0.000356335
0.00902696
-0.000370706
0.00903386
-0.000384552
0.00904194
-0.000397871
0.00905113
-0.000410658
0.00906135
-0.00042291
0.00907255
-0.000434622
0.00908465
-0.000445791
0.0090976
-0.000456411
0.00911135
-0.000466481
0.00912584
-0.000475996
0.00914102
-0.000484954
0.00915685
-0.000493354
0.00917329
-0.000501194
0.0091903
-0.000508476
0.00920783
-0.000515201
0.00922585
-0.000521372
0.00924434
-0.000526991
0.00926325
-0.000532065
0.00928256
-0.0005366
0.00930225
-0.000540604
0.00932228
-0.000544084
0.00934263
-0.000547051
0.00936329
-0.000549517
0.00938422
-0.000551493
0.00940542
-0.000552994
0.00942685
-0.000554033
0.00944851
-0.000554627
0.00947038
-0.000554789
0.00949243
-0.000554539
0.00951466
-0.000553892
0.00953705
-0.000552868
0.00955957
-0.000551484
0.00958223
-0.00054976
0.00960501
-0.000547714
0.00962789
-0.000545366
0.00965086
-0.000542736
0.00967391
-0.000539842
0.00969703
-0.000536704
0.00972021
-0.000533342
0.00974345
-0.000529774
0.00976672
-0.000526019
0.00979003
-0.000522096
0.00981336
-0.000518023
0.00983672
-0.000513817
0.00986008
-0.000509495
0.00988346
-0.000505076
0.00990683
-0.000500574
0.0099302
-0.000496006
0.00995356
-0.000491388
0.00997691
-0.000486733
0.0100003
-0.000482058
0.0100236
-0.000477375
0.0100469
-0.000472698
0.0100702
-0.000468041
0.0100934
-0.000463415
0.0101167
-0.000458835
0.0101399
-0.000454311
0.0101631
-0.000449854
0.0101862
-0.000445478
0.0102094
-0.000441193
0.0102326
-0.00043701
0.0102557
-0.00043294
0.0102788
-0.000428995
0.0103019
-0.000425183
0.010325
-0.00042152
0.0103481
-0.000418011
0.0103713
-0.000414676
0.0103944
-0.000411511
0.0104175
-0.000408554
0.0104407
-0.000405777
0.0104638
-0.000403252
0.010487
-0.000400904
0.0105102
-0.000398875
0.0105334
-0.000396992
0.0105566
-0.000395538
0.0105799
-0.000394151
0.0106031
-0.000393371
-0.000392507
0.0146931
-0.000191472
0.0146634
-0.000211442
0.0146351
-0.000230795
0.014608
-0.000249541
0.014582
-0.000267683
0.0145571
-0.000285227
0.0145333
-0.000302177
0.0145104
-0.000318537
0.0144884
-0.000334307
0.0144671
-0.000349489
0.0144467
-0.000364084
0.0144269
-0.000378091
0.0144077
-0.00039151
0.0143892
-0.000404341
0.0143711
-0.000416583
0.0143536
-0.000428235
0.0143365
-0.000439298
0.0143197
-0.00044977
0.0143034
-0.000459654
0.0142874
-0.000468949
0.0142717
-0.000477659
0.0142563
-0.000485786
0.0142412
-0.000493333
0.0142263
-0.000500305
0.0142116
-0.000506708
0.0141972
-0.000512548
0.0141829
-0.000517833
0.0141689
-0.000522572
0.0141551
-0.000526773
0.0141414
-0.000530448
0.014128
-0.000533609
0.0141147
-0.000536268
0.0141017
-0.000538439
0.0140888
-0.000540136
0.0140762
-0.000541375
0.0140637
-0.000542171
0.0140515
-0.000542541
0.0140394
-0.000542503
0.0140276
-0.000542073
0.014016
-0.00054127
0.0140046
-0.000540112
0.0139935
-0.000538619
0.0139826
-0.000536809
0.0139719
-0.000534701
0.0139615
-0.000532314
0.0139513
-0.000529667
0.0139414
-0.000526779
0.0139317
-0.000523669
0.0139223
-0.000520356
0.0139132
-0.000516857
0.0139042
-0.000513191
0.0138956
-0.000509375
0.0138872
-0.000505427
0.0138791
-0.000501364
0.0138712
-0.000497202
0.0138636
-0.000492956
0.0138562
-0.000488643
0.0138491
-0.000484278
0.0138423
-0.000479875
0.0138356
-0.000475448
0.0138293
-0.000471012
0.0138232
-0.00046658
0.0138173
-0.000462164
0.0138117
-0.000457778
0.0138063
-0.000453433
0.0138011
-0.000449142
0.0137961
-0.000444915
0.0137914
-0.000440765
0.0137869
-0.000436703
0.0137827
-0.00043274
0.0137786
-0.000428885
0.0137748
-0.000425152
0.0137711
-0.000421548
0.0137677
-0.000418089
0.0137645
-0.000414777
0.0137614
-0.000411635
0.0137586
-0.000408658
0.0137559
-0.000405879
0.0137534
-0.000403276
0.0137511
-0.00040091
0.0137489
-0.000398718
0.0137468
-0.000396821
0.0137449
-0.000395071
0.0137431
-0.000393707
0.0137413
-0.00039242
0.0137396
-0.000391664
-0.000390826
0.0157316
-0.00015928
0.0156999
-0.000179668
0.0156685
-0.000199434
0.0156375
-0.000218581
0.015607
-0.000237115
0.0155768
-0.000255038
0.015547
-0.000272353
0.0155175
-0.000289063
0.0154884
-0.000305168
0.0154595
-0.00032067
0.015431
-0.00033557
0.0154028
-0.000349867
0.0153748
-0.000363564
0.0153472
-0.000376659
0.0153197
-0.000389155
0.0152926
-0.000401051
0.0152656
-0.00041235
0.0152389
-0.000423052
0.0152124
-0.000433161
0.0151861
-0.000442679
0.0151601
-0.000451609
0.0151342
-0.000459957
0.0151086
-0.000467727
0.0150833
-0.000474925
0.0150581
-0.000481557
0.0150332
-0.000487633
0.0150085
-0.00049316
0.0149841
-0.000498148
0.0149599
-0.000502607
0.014936
-0.000506549
0.0149124
-0.000509986
0.0148891
-0.000512931
0.014866
-0.000515398
0.0148433
-0.0005174
0.0148209
-0.000518955
0.0147988
-0.000520076
0.014777
-0.000520781
0.0147556
-0.000521086
0.0147345
-0.000521008
0.0147138
-0.000520566
0.0146935
-0.000519776
0.0146735
-0.000518657
0.0146539
-0.000517228
0.0146348
-0.000515505
0.0146159
-0.000513509
0.0145975
-0.000511256
0.0145795
-0.000508765
0.0145619
-0.000506054
0.0145447
-0.000503142
0.0145279
-0.000500044
0.0145115
-0.000496779
0.0144955
-0.000493364
0.0144798
-0.000489815
0.0144646
-0.000486148
0.0144498
-0.000482379
0.0144354
-0.000478525
0.0144213
-0.000474599
0.0144077
-0.000470616
0.0143944
-0.000466591
0.0143815
-0.000462538
0.0143689
-0.00045847
0.0143568
-0.000454399
0.0143449
-0.00045034
0.0143335
-0.000446303
0.0143223
-0.000442302
0.0143115
-0.000438347
0.0143011
-0.00043445
0.0142909
-0.000430623
0.0142811
-0.000426876
0.0142716
-0.00042322
0.0142624
-0.000419665
0.0142534
-0.000416223
0.0142448
-0.000412902
0.0142364
-0.000409716
0.0142283
-0.000406668
0.0142204
-0.000403779
0.0142128
-0.000401045
0.0142054
-0.000398495
0.0141983
-0.000396111
0.0141913
-0.000393945
0.0141845
-0.000391944
0.0141779
-0.00039021
0.0141715
-0.000388619
0.0141651
-0.000387372
0.0141589
-0.000386199
0.0141528
-0.000385511
-0.000384778
0.0162023
-0.000132223
0.016175
-0.000152324
0.0161474
-0.000171825
0.0161195
-0.00019073
0.0160914
-0.000209042
0.0160632
-0.000226762
0.0160347
-0.000243893
0.0160061
-0.000260435
0.0159773
-0.000276388
0.0159484
-0.000291753
0.0159193
-0.000306532
0.0158902
-0.000320723
0.0158609
-0.000334329
0.0158316
-0.000347349
0.0158023
-0.000359785
0.0157729
-0.000371638
0.0157434
-0.000382909
0.015714
-0.000393602
0.0156845
-0.000403719
0.0156551
-0.000413262
0.0156257
-0.000422237
0.0155964
-0.000430648
0.0155672
-0.000438501
0.0155381
-0.000445802
0.0155091
-0.000452557
0.0154802
-0.000458775
0.0154515
-0.000464465
0.015423
-0.000469636
0.0153947
-0.000474298
0.0153666
-0.000478463
0.0153388
-0.000482142
0.0153112
-0.000485347
0.0152839
-0.000488093
0.0152569
-0.000490392
0.0152302
-0.00049226
0.0152038
-0.000493711
0.0151778
-0.000494761
0.0151521
-0.000495425
0.0151268
-0.00049572
0.0151019
-0.000495662
0.0150774
-0.000495269
0.0150533
-0.000494556
0.0150297
-0.000493542
0.0150064
-0.000492243
0.0149836
-0.000490676
0.0149612
-0.000488859
0.0149392
-0.000486809
0.0149177
-0.000484542
0.0148966
-0.000482076
0.014876
-0.000479427
0.0148558
-0.000476611
0.0148361
-0.000473645
0.0148169
-0.000470543
0.014798
-0.000467322
0.0147796
-0.000463997
0.0147617
-0.000460582
0.0147442
-0.000457092
0.0147271
-0.000453541
0.0147105
-0.000449943
0.0146942
-0.00044631
0.0146784
-0.000442656
0.014663
-0.000438993
0.014648
-0.000435334
0.0146334
-0.000431691
0.0146192
-0.000428074
0.0146053
-0.000424497
0.0145918
-0.000420969
0.0145787
-0.000417501
0.014566
-0.000414104
0.0145535
-0.000410789
0.0145414
-0.000407565
0.0145296
-0.000404443
0.0145182
-0.000401431
0.014507
-0.000398542
0.0144961
-0.000395781
0.0144855
-0.000393164
0.0144751
-0.00039069
0.014465
-0.000388383
0.0144551
-0.00038623
0.0144455
-0.000384273
0.014436
-0.000382471
0.0144267
-0.000380907
0.0144176
-0.000379478
0.0144085
-0.000378353
0.0143996
-0.000377307
0.0143908
-0.000376689
-0.00037599
0.0163546
-0.0001104
0.0163321
-0.000129857
0.0163091
-0.00014875
0.0162854
-0.000167079
0.0162612
-0.000184846
0.0162365
-0.000202052
0.0162113
-0.000218696
0.0161857
-0.00023478
0.0161596
-0.000250303
0.0161331
-0.000265266
0.0161062
-0.00027967
0.016079
-0.000293514
0.0160515
-0.000306799
0.0160237
-0.000319527
0.0159956
-0.000331697
0.0159672
-0.000343313
0.0159387
-0.000354375
0.01591
-0.000364886
0.0158811
-0.000374849
0.0158521
-0.000384268
0.015823
-0.000393146
0.0157939
-0.000401489
0.0157647
-0.000409302
0.0157355
-0.00041659
0.0157063
-0.000423362
0.0156771
-0.000429623
0.015648
-0.000435384
0.0156191
-0.000440652
0.0155902
-0.000445438
0.0155615
-0.000449751
0.015533
-0.000453604
0.0155046
-0.000457007
0.0154765
-0.000459973
0.0154486
-0.000462516
0.015421
-0.000464647
0.0153937
-0.000466382
0.0153666
-0.000467734
0.0153399
-0.000468719
0.0153136
-0.00046935
0.0152876
-0.000469644
0.0152619
-0.000469616
0.0152366
-0.000469282
0.0152117
-0.000468658
0.0151873
-0.000467759
0.0151632
-0.000466601
0.0151395
-0.000465201
0.0151163
-0.000463574
0.0150935
-0.000461736
0.0150711
-0.000459703
0.0150492
-0.00045749
0.0150277
-0.000455112
0.0150066
-0.000452584
0.014986
-0.000449922
0.0149658
-0.00044714
0.0149461
-0.000444252
0.0149268
-0.000441271
0.0149079
-0.000438213
0.0148894
-0.000435089
0.0148714
-0.000431913
0.0148538
-0.000428698
0.0148366
-0.000425456
0.0148198
-0.000422199
0.0148034
-0.000418939
0.0147874
-0.000415687
0.0147718
-0.000412454
0.0147565
-0.000409252
0.0147416
-0.000406091
0.0147271
-0.00040298
0.014713
-0.000399931
0.0146991
-0.000396954
0.0146856
-0.000394057
0.0146724
-0.000391251
0.0146595
-0.000388544
0.0146469
-0.000385946
0.0146346
-0.000383465
0.0146226
-0.000381112
0.0146108
-0.00037889
0.0145992
-0.000376818
0.0145879
-0.000374886
0.0145767
-0.000373129
0.0145658
-0.000371514
0.014555
-0.00037011
0.0145443
-0.000368829
0.0145338
-0.00036782
0.0145233
-0.000366876
0.014513
-0.000366317
-0.000365684
0.0163604
-9.23437e-05
0.0163416
-0.000111035