/*--------------------------------*- C++ -*----------------------------------*\
  =========                 |
  \\      /  F ield         | OpenFOAM: The Open Source CFD Toolbox
   \\    /   O peration     | Website:  https://openfoam.org
    \\  /    A nd           | Version:  7
     \\/     M anipulation  |
\*---------------------------------------------------------------------------*/
FoamFile
{
    version     2.0;
    format      ascii;
    class       volVectorField;
    location    "60";
    object      U;
}
// * * * * * * * * * * * * * * * * * * * * * * * * * * * * * * * * * * * * * //

dimensions      [0 1 -1 0 0 0 0];

internalField   nonuniform List<vector> 
3500
(
(-0.215493 -0.00107749 1.74284e-20)
(-0.213818 -0.00120574 -1.8122e-20)
(-0.211992 -0.00133861 7.63002e-21)
(-0.210013 -0.00147613 9.35951e-21)
(-0.207879 -0.00161824 -1.67991e-20)
(-0.205588 -0.00176484 1.96194e-20)
(-0.203137 -0.00191575 -1.91828e-20)
(-0.200526 -0.00207074 2.28377e-20)
(-0.197752 -0.0022295 -1.04076e-20)
(-0.194815 -0.00239167 -4.02715e-21)
(-0.191713 -0.00255683 7.25197e-22)
(-0.188445 -0.00272451 6.09086e-21)
(-0.18501 -0.00289424 3.54146e-21)
(-0.181409 -0.00306541 8.10196e-23)
(-0.177641 -0.00323737 -9.37243e-21)
(-0.173707 -0.0034095 -1.06174e-21)
(-0.169607 -0.00358112 -3.00067e-21)
(-0.165341 -0.00375154 6.32859e-21)
(-0.160912 -0.00392006 -5.39951e-22)
(-0.156321 -0.00408598 6.78871e-21)
(-0.151569 -0.00424862 -1.29883e-20)
(-0.146658 -0.00440725 6.5665e-21)
(-0.141592 -0.00456107 5.06502e-22)
(-0.136373 -0.00470946 -1.11283e-20)
(-0.131002 -0.00485222 5.35001e-21)
(-0.125485 -0.00498693 2.42898e-21)
(-0.119826 -0.0051145 1.39336e-21)
(-0.114032 -0.00523468 -3.27521e-21)
(-0.108104 -0.00534686 1.91834e-22)
(-0.102048 -0.00545058 1.02294e-20)
(-0.0958695 -0.00554552 -1.49277e-20)
(-0.0895724 -0.00563142 1.02848e-20)
(-0.0831623 -0.00570807 1.40425e-21)
(-0.0766448 -0.00577535 -1.41421e-21)
(-0.0700253 -0.0058332 -1.07382e-21)
(-0.0633095 -0.00588152 1.16938e-21)
(-0.0565038 -0.0059202 -2.21994e-21)
(-0.0496154 -0.00595076 -2.08894e-22)
(-0.0426449 -0.00597903 -5.52369e-22)
(-0.0355996 -0.00599064 2.84162e-22)
(-0.0284905 -0.00599408 1.50416e-21)
(-0.0213215 -0.00599072 -2.82534e-21)
(-0.0140978 -0.00598038 -7.50665e-22)
(-0.00682534 -0.00596325 2.32485e-21)
(0.000490017 -0.00593974 1.62265e-21)
(0.00784274 -0.00591043 -1.9375e-21)
(0.0152272 -0.00587582 7.96402e-22)
(0.0226377 -0.00583638 -2.11783e-21)
(0.0300689 -0.00579281 1.39433e-21)
(0.0375158 -0.00574571 1.03943e-21)
(0.0449733 -0.00569563 -7.88791e-22)
(0.0524368 -0.00564316 3.10471e-22)
(0.0599014 -0.00558885 5.30363e-22)
(0.0673627 -0.00553325 -1.66515e-21)
(0.0748165 -0.00547688 1.75837e-21)
(0.0822588 -0.00542026 -1.51079e-21)
(0.0896856 -0.00536385 1.36901e-21)
(0.0970933 -0.0053081 -1.02297e-21)
(0.104479 -0.00525343 2.30243e-23)
(0.111838 -0.00520023 3.0827e-22)
(0.119169 -0.00514883 -1.9533e-22)
(0.126469 -0.00509955 -1.31457e-22)
(0.133734 -0.00505267 5.90243e-23)
(0.140964 -0.00500842 -4.60824e-22)
(0.148155 -0.00496699 1.23858e-22)
(0.155305 -0.00492857 -1.68598e-23)
(0.162414 -0.00489327 4.57461e-22)
(0.169479 -0.00486119 -1.92934e-22)
(0.1765 -0.0048324 -3.91206e-22)
(0.183475 -0.00480694 1.42864e-22)
(0.190403 -0.0047848 9.73751e-23)
(0.197284 -0.00476598 -1.3488e-22)
(0.204118 -0.00475043 1.20247e-22)
(0.210903 -0.00473811 8.39159e-23)
(0.217641 -0.00472892 -1.21304e-22)
(0.224332 -0.00472279 -2.55001e-23)
(0.230975 -0.00471963 8.76736e-23)
(0.237572 -0.00471934 -6.73265e-23)
(0.244123 -0.00472183 3.51944e-23)
(0.25063 -0.00472701 -1.66736e-23)
(0.257094 -0.00473482 -2.28056e-24)
(0.263517 -0.00474522 7.50427e-24)
(0.2699 -0.00475824 -4.07013e-24)
(0.276247 -0.00477392 -8.80465e-24)
(0.28256 -0.00479256 3.49756e-24)
(0.288841 -0.00481423 -1.46203e-24)
(0.295105 -0.00484027 -9.07171e-25)
(0.301313 -0.0048687 -1.42252e-25)
(0.307677 -0.00490729 -5.66961e-25)
(0.31327 -0.00494415 2.07896e-25)
(0.323003 -0.00497036 7.00563e-25)
(-0.173903 -0.00397175 -6.67144e-21)
(-0.171941 -0.00434629 5.07552e-20)
(-0.169829 -0.00472798 2.56861e-20)
(-0.167566 -0.00511678 -2.913e-20)
(-0.16515 -0.00551255 4.75499e-20)
(-0.16258 -0.00591501 -5.30117e-20)
(-0.159855 -0.00632379 5.16429e-20)
(-0.156973 -0.00673839 -3.7418e-20)
(-0.153934 -0.00715821 -2.81413e-20)
(-0.150737 -0.00758257 -6.07109e-21)
(-0.14738 -0.00801065 -1.82402e-21)
(-0.143865 -0.00844154 3.5443e-20)
(-0.140191 -0.00887424 1.5902e-20)
(-0.136357 -0.00930774 -3.47252e-20)
(-0.132366 -0.00974094 3.00024e-20)
(-0.128217 -0.0101727 3.07147e-21)
(-0.123911 -0.0106018 -2.67738e-20)
(-0.119451 -0.011027 2.42155e-21)
(-0.114837 -0.0114471 9.20664e-21)
(-0.110072 -0.011861 3.80594e-21)
(-0.105159 -0.0122674 -1.21354e-22)
(-0.100099 -0.0126652 -6.64726e-21)
(-0.0948958 -0.0130532 -1.75689e-20)
(-0.089554 -0.0134321 9.91003e-21)
(-0.0840717 -0.0138067 -4.99691e-21)
(-0.0784546 -0.0141559 1.263e-20)
(-0.0727118 -0.0144888 -3.2957e-22)
(-0.0668459 -0.0148074 6.18768e-21)
(-0.060861 -0.0151106 -1.81853e-20)
(-0.0547617 -0.0153974 1.04192e-20)
(-0.048553 -0.0156672 4.12588e-21)
(-0.04224 -0.0159192 -1.59605e-20)
(-0.0358279 -0.0161531 2.61737e-20)
(-0.029322 -0.0163686 -1.25793e-20)
(-0.0227275 -0.0165653 -8.88239e-21)
(-0.0160494 -0.0167433 1.64645e-20)
(-0.00929599 -0.0169028 -3.09312e-21)
(-0.00248507 -0.0170446 -3.44498e-21)
(0.00440601 -0.0171662 -9.85581e-22)
(0.0113718 -0.0172686 5.76066e-21)
(0.0183777 -0.0173541 4.57063e-21)
(0.0254302 -0.0174227 -1.7738e-20)
(0.0325269 -0.0174745 2.7578e-21)
(0.0396617 -0.0175103 9.47602e-22)
(0.0468288 -0.0175306 -1.88009e-21)
(0.054023 -0.0175363 9.54508e-21)
(0.0612391 -0.0175282 1.39474e-21)
(0.0684721 -0.0175071 -2.90146e-21)
(0.075717 -0.0174737 -3.68021e-21)
(0.0829692 -0.0174289 5.47018e-21)
(0.090224 -0.0173736 -2.39069e-21)
(0.0974771 -0.0173087 6.21647e-21)
(0.104724 -0.0172351 -5.71423e-21)
(0.111962 -0.0171537 -4.24504e-23)
(0.119185 -0.0170652 1.47485e-21)
(0.126391 -0.0169706 -1.10183e-21)
(0.133577 -0.0168708 -1.28841e-22)
(0.140738 -0.0167664 1.04442e-21)
(0.147872 -0.0166582 7.1257e-22)
(0.154976 -0.016547 1.19324e-22)
(0.162047 -0.0164335 -5.3733e-22)
(0.169084 -0.0163183 5.0171e-22)
(0.176083 -0.0162021 -1.37637e-21)
(0.183042 -0.0160853 -2.15457e-22)
(0.189961 -0.0159687 4.3074e-22)
(0.196836 -0.0158526 -3.23067e-22)
(0.203668 -0.0157375 1.74469e-21)
(0.210454 -0.0156239 -1.07613e-21)
(0.217193 -0.0155121 3.14346e-22)
(0.223885 -0.0154025 7.99682e-22)
(0.230529 -0.0152955 -7.75106e-22)
(0.237124 -0.0151912 -9.40421e-25)
(0.243671 -0.0150901 -3.87161e-22)
(0.250169 -0.0149923 3.34295e-22)
(0.256618 -0.0148981 -8.32644e-24)
(0.263019 -0.0148078 -3.2876e-22)
(0.269372 -0.0147215 1.55007e-22)
(0.275678 -0.0146397 1.16703e-22)
(0.281939 -0.0145624 -1.05653e-22)
(0.288154 -0.0144901 1.34309e-22)
(0.294326 -0.0144231 -1.5611e-22)
(0.300457 -0.0143618 8.40951e-23)
(0.306549 -0.0143069 3.86406e-23)
(0.312603 -0.0142588 -2.26651e-23)
(0.318625 -0.0142189 2.3554e-23)
(0.324611 -0.014187 2.42688e-24)
(0.330586 -0.0141683 -5.48978e-26)
(0.33648 -0.0141568 -2.18747e-24)
(0.3426 -0.0141721 2.89521e-24)
(0.347798 -0.0141914 3.92772e-26)
(0.357142 -0.0141819 -2.2279e-24)
(-0.0940895 -0.00761725 4.13723e-21)
(-0.0916606 -0.00822954 -6.32374e-20)
(-0.0890845 -0.00885088 2.94495e-20)
(-0.0863605 -0.00948109 4.67685e-21)
(-0.0834879 -0.0101198 -4.62994e-20)
(-0.0804664 -0.0107666 1.07937e-21)
(-0.0772957 -0.0114207 4.62655e-20)
(-0.0739757 -0.0120813 -4.6527e-20)
(-0.0705065 -0.0127476 1.96046e-20)
(-0.0668884 -0.0134185 -4.3756e-20)
(-0.063122 -0.0140928 8.4874e-20)
(-0.0592079 -0.0147692 7.58952e-21)
(-0.0551471 -0.0154463 -7.13227e-20)
(-0.050941 -0.0161225 2.79534e-20)
(-0.046591 -0.0167964 -4.39268e-20)
(-0.0420989 -0.0174663 3.01419e-20)
(-0.0374669 -0.0181306 -2.78557e-21)
(-0.0326972 -0.0187874 3.81379e-20)
(-0.0277924 -0.0194353 -7.02353e-20)
(-0.0227557 -0.0200725 2.99677e-20)
(-0.01759 -0.0206974 -2.4548e-20)
(-0.0122985 -0.0213085 1.13428e-20)
(-0.00688813 -0.0219047 3.92655e-20)
(-0.00137737 -0.0224857 -2.00763e-20)
(0.0042654 -0.023044 2.23556e-20)
(0.0100412 -0.0235775 -2.27355e-20)
(0.0159076 -0.0240905 -1.41609e-20)
(0.021869 -0.0245812 3.36268e-20)
(0.0279254 -0.0250481 -6.41991e-21)
(0.0340722 -0.0254902 4.43721e-21)
(0.0403046 -0.0259064 6.28486e-21)
(0.0466172 -0.0262961 -1.07626e-20)
(0.053005 -0.0266587 -1.30213e-20)
(0.0594625 -0.0269938 1.58788e-20)
(0.0659845 -0.027301 -2.10627e-20)
(0.0725658 -0.0275806 -6.52649e-22)
(0.0792006 -0.0278334 2.01482e-20)
(0.0858819 -0.0280589 7.71268e-21)
(0.0926074 -0.0282474 -6.40848e-21)
(0.0993737 -0.0284154 -1.60381e-20)
(0.106171 -0.0285579 2.37619e-20)
(0.112996 -0.0286739 -1.98278e-20)
(0.119844 -0.0287643 -4.78134e-21)
(0.126709 -0.0288301 1.87287e-20)
(0.133588 -0.0288723 -5.48641e-21)
(0.140475 -0.0288917 5.49575e-21)
(0.147366 -0.0288895 -5.01139e-21)
(0.154257 -0.0288668 -5.62403e-21)
(0.161143 -0.0288247 -2.43072e-21)
(0.168021 -0.0287642 8.0777e-21)
(0.174886 -0.0286867 -5.94866e-21)
(0.181736 -0.0285933 -3.60151e-21)
(0.188567 -0.0284852 8.1432e-21)
(0.195374 -0.0283635 -6.78856e-21)
(0.202156 -0.0282295 -1.74188e-22)
(0.20891 -0.0280844 4.76236e-21)
(0.215632 -0.0279292 1.38819e-21)
(0.22232 -0.0277652 5.07148e-22)
(0.228972 -0.0275933 -1.78441e-21)
(0.235585 -0.0274147 5.15887e-22)
(0.242158 -0.0272304 -3.20703e-21)
(0.248689 -0.0270413 4.61671e-21)
(0.255176 -0.0268484 -3.61994e-21)
(0.261617 -0.0266525 2.74894e-22)
(0.268012 -0.0264546 4.64857e-22)
(0.274359 -0.0262554 3.21382e-21)
(0.280657 -0.0260556 -1.09666e-21)
(0.286906 -0.0258561 -2.66498e-22)
(0.293105 -0.0256575 -1.91296e-21)
(0.299254 -0.0254604 5.72185e-22)
(0.305352 -0.0252655 4.74097e-22)
(0.311399 -0.0250733 -4.27446e-23)
(0.317396 -0.0248845 -1.8067e-22)
(0.323343 -0.0246996 -8.94967e-23)
(0.32924 -0.0245191 -4.90552e-22)
(0.335088 -0.0243435 3.30444e-22)
(0.340888 -0.0241736 -4.37583e-23)
(0.346641 -0.0240097 4.71086e-22)
(0.352347 -0.0238526 2.79889e-24)
(0.35801 -0.0237029 -2.29611e-22)
(0.36363 -0.0235613 -8.41834e-23)
(0.369209 -0.0234286 1.33467e-22)
(0.374749 -0.0233061 -1.07078e-22)
(0.380253 -0.0231944 -1.66573e-23)
(0.385727 -0.0230961 4.42833e-23)
(0.391158 -0.0230102 -1.99121e-23)
(0.3966 -0.0229451 3.51701e-25)
(0.401903 -0.022892 -1.42301e-24)
(0.407565 -0.0228714 -2.0289e-24)
(0.412069 -0.0228741 3.65939e-24)
(0.420668 -0.0228484 -4.53623e-25)
(0.0216175 -0.0129512 1.42145e-20)
(0.024651 -0.0138089 -1.43047e-19)
(0.027831 -0.0146748 3.95656e-21)
(0.0311566 -0.0155485 4.79839e-20)
(0.0346267 -0.0164293 5.06477e-20)
(0.03824 -0.0173164 4.12757e-21)
(0.0419951 -0.0182086 2.62042e-20)
(0.0458905 -0.019105 -3.79408e-20)
(0.0499243 -0.020004 6.36672e-21)
(0.0540946 -0.0209043 1.97378e-20)
(0.0583991 -0.021804 5.13705e-22)
(0.0628353 -0.0227016 -6.09653e-20)
(0.0674007 -0.023595 9.23713e-21)
(0.0720924 -0.0244823 1.95504e-20)
(0.0769072 -0.0253616 2.60198e-21)
(0.0818419 -0.0262307 6.18953e-21)
(0.0868928 -0.0270876 -2.06077e-20)
(0.0920563 -0.0279302 5.12272e-20)
(0.0973283 -0.0287564 -8.05883e-20)
(0.102705 -0.0295643 2.01366e-20)
(0.108181 -0.0303519 -4.36113e-20)
(0.113752 -0.0311184 1.17366e-19)
(0.119413 -0.031861 -6.78758e-20)
(0.125159 -0.0325643 -2.1373e-20)
(0.130992 -0.0332449 -3.17129e-20)
(0.1369 -0.0338985 4.16371e-20)
(0.142879 -0.0345214 -3.07204e-21)
(0.148925 -0.0351118 -1.96061e-20)
(0.155032 -0.0356686 1.65226e-20)
(0.161194 -0.0361908 1.61342e-20)
(0.167408 -0.0366777 6.47767e-21)
(0.173667 -0.0371287 -5.35e-20)
(0.179966 -0.0375432 2.8214e-20)
(0.1863 -0.0379212 9.81243e-21)
(0.192665 -0.0382624 -2.40771e-21)
(0.199055 -0.0385672 -2.87064e-20)
(0.205465 -0.0388359 1.83201e-22)
(0.211891 -0.0390674 2.37855e-20)
(0.218329 -0.039264 -9.39208e-21)
(0.224774 -0.039426 2.17236e-20)
(0.23122 -0.0395541 3.30973e-22)
(0.237665 -0.0396494 -6.98913e-21)
(0.244104 -0.0397128 1.0043e-20)
(0.250533 -0.0397455 -2.24968e-20)
(0.256948 -0.0397487 9.75475e-21)
(0.263346 -0.0397238 4.69554e-21)
(0.269723 -0.0396721 -2.76485e-21)
(0.276076 -0.039595 -1.2908e-20)
(0.282403 -0.039494 1.14072e-20)
(0.288699 -0.0393706 1.08768e-20)
(0.294964 -0.0392262 -7.78108e-21)
(0.301193 -0.0390623 -3.91111e-21)
(0.307384 -0.0388805 -2.7411e-21)
(0.313536 -0.0386822 9.87228e-21)
(0.319647 -0.038469 -1.08205e-20)
(0.325714 -0.0382422 2.87785e-21)
(0.331736 -0.0380033 -2.77029e-21)
(0.337712 -0.0377537 1.13102e-21)
(0.343639 -0.0374947 1.86782e-21)
(0.349517 -0.0372277 9.2455e-22)
(0.355345 -0.0369538 -5.36116e-22)
(0.361123 -0.0366744 -1.51817e-22)
(0.366848 -0.0363906 1.0011e-21)
(0.372521 -0.0361034 1.97216e-21)
(0.378141 -0.035814 -1.83187e-21)
(0.383709 -0.0355235 8.50238e-22)
(0.389223 -0.0352327 -1.95132e-21)
(0.394684 -0.0349427 2.26998e-21)
(0.400092 -0.0346543 -1.52052e-21)
(0.405447 -0.0343684 -1.30674e-22)
(0.410751 -0.0340859 1.85961e-22)
(0.416002 -0.0338076 3.76516e-22)
(0.421203 -0.0335344 -1.44317e-21)
(0.426355 -0.0332669 5.66706e-22)
(0.431457 -0.0330061 7.72785e-23)
(0.436512 -0.0327528 -4.50828e-22)
(0.44152 -0.0325078 5.55566e-22)
(0.446484 -0.032272 -9.9367e-24)
(0.451405 -0.0320464 6.62856e-23)
(0.456285 -0.0318321 -9.13192e-23)
(0.461125 -0.0316301 -1.89141e-22)
(0.465931 -0.0314421 6.2546e-23)
(0.470698 -0.0312688 -5.33571e-23)
(0.475444 -0.0311138 8.62126e-23)
(0.480133 -0.0309756 5.47778e-24)
(0.484872 -0.0308628 -1.64612e-23)
(0.48939 -0.0307702 -1.81717e-25)
(0.494425 -0.0307056 -3.88142e-25)
(0.498086 -0.030688 3.29683e-25)
(0.505644 -0.0306558 -1.41179e-24)
(0.162151 -0.0182988 7.97867e-20)
(0.165419 -0.019385 -8.35307e-20)
(0.168837 -0.0204774 1.69741e-19)
(0.172402 -0.0215751 -1.45231e-19)
(0.176111 -0.0226772 7.89691e-23)
(0.17996 -0.0237824 1.06451e-19)
(0.183946 -0.0248896 4.17088e-20)
(0.188066 -0.0259973 -8.18493e-20)
(0.192316 -0.0271038 -2.25747e-20)
(0.196691 -0.0282073 -6.09688e-22)
(0.201189 -0.0293059 -1.69208e-20)
(0.205805 -0.0303974 -8.37363e-21)
(0.210534 -0.0314796 7.16085e-20)
(0.215371 -0.0325503 -7.13235e-20)
(0.220313 -0.0336071 2.19825e-21)
(0.225355 -0.0346476 4.75596e-20)
(0.230491 -0.0356693 1.01286e-20)
(0.235716 -0.03667 2.26827e-20)
(0.241025 -0.0376471 -4.55335e-20)
(0.246414 -0.0385983 -6.67642e-21)
(0.251875 -0.0395215 3.96837e-20)
(0.257405 -0.0404144 1.54758e-20)
(0.262998 -0.0412753 -5.10814e-20)
(0.268647 -0.0421 1.34649e-20)
(0.274349 -0.042888 -2.99973e-20)
(0.280099 -0.0436378 4.16208e-20)
(0.285891 -0.0443479 -9.91261e-20)
(0.291719 -0.0450172 5.77928e-20)
(0.297578 -0.0456444 -1.65329e-20)
(0.303462 -0.0462286 3.92386e-20)
(0.309367 -0.0467692 -2.07248e-20)
(0.315288 -0.0472655 1.67915e-20)
(0.321219 -0.0477172 -6.38989e-20)
(0.327157 -0.0481243 8.81724e-20)
(0.333097 -0.0484867 -3.44101e-20)
(0.339034 -0.0488047 2.16028e-20)
(0.344964 -0.0490787 -2.35343e-20)
(0.350883 -0.0493091 1.1919e-20)
(0.356787 -0.049497 -1.2836e-20)
(0.362674 -0.0496433 1.31538e-20)
(0.368538 -0.0497493 4.4297e-21)
(0.374377 -0.049816 -1.95953e-20)
(0.380188 -0.0498447 -4.41035e-21)
(0.385967 -0.049837 9.31019e-21)
(0.391712 -0.0497943 -7.31759e-21)
(0.397421 -0.0497183 -5.61622e-21)
(0.403091 -0.0496107 1.38531e-20)
(0.40872 -0.049473 4.54628e-22)
(0.414305 -0.0493072 -1.0774e-20)
(0.419846 -0.049115 -5.63244e-21)
(0.42534 -0.0488982 1.41729e-20)
(0.430785 -0.0486585 -2.60148e-21)
(0.436181 -0.0483978 -7.16208e-21)
(0.441526 -0.0481179 2.99525e-22)
(0.44682 -0.0478206 9.12578e-21)
(0.45206 -0.0475075 -1.44107e-21)
(0.457247 -0.0471803 -3.24381e-21)
(0.46238 -0.0468408 7.77082e-21)
(0.467458 -0.0464904 -3.65949e-21)
(0.472482 -0.0461308 -3.3908e-21)
(0.47745 -0.0457635 -7.34412e-22)
(0.482363 -0.04539 -5.88566e-21)
(0.48722 -0.0450115 6.47031e-21)
(0.492022 -0.0446296 -1.14585e-21)
(0.496769 -0.0442455 -1.04014e-22)
(0.501462 -0.0438604 9.34937e-22)
(0.506101 -0.0434755 7.93483e-22)
(0.510686 -0.0430921 -2.2282e-21)
(0.515218 -0.0427112 1.61668e-21)
(0.519698 -0.0423339 7.53156e-22)
(0.524127 -0.0419613 -2.67046e-21)
(0.528506 -0.0415944 3.59611e-23)
(0.532837 -0.0412342 1.51628e-21)
(0.537119 -0.0408818 -3.16593e-22)
(0.541356 -0.0405383 -1.10553e-22)
(0.545547 -0.0402045 3.28263e-22)
(0.549696 -0.0398817 -3.18984e-22)
(0.553803 -0.039571 2.70649e-23)
(0.55787 -0.0392734 1.66273e-22)
(0.561901 -0.0389905 -1.50399e-22)
(0.565894 -0.0387234 -1.15111e-22)
(0.56986 -0.0384741 1.40432e-23)
(0.573783 -0.0382435 2.01345e-22)
(0.577703 -0.038035 -1.35909e-22)
(0.581542 -0.037849 -5.19854e-24)
(0.585483 -0.0376892 3.25813e-24)
(0.58912 -0.0375614 -1.52774e-23)
(0.593398 -0.0374532 -5.41359e-24)
(0.596206 -0.0374106 9.48278e-25)
(0.60252 -0.037368 1.5255e-24)
(0.324388 -0.0235417 -3.70507e-20)
(0.327451 -0.0248744 -4.94229e-20)
(0.330678 -0.0262064 -4.50954e-20)
(0.334063 -0.0275368 1.35742e-19)
(0.337599 -0.0288646 1.3496e-21)
(0.341281 -0.0301887 1.21857e-20)
(0.345101 -0.0315077 -7.60039e-20)
(0.349055 -0.0328201 7.51467e-20)
(0.353136 -0.0341241 -4.62087e-21)
(0.357337 -0.0354176 6.81697e-21)
(0.361653 -0.0366987 -1.62854e-19)
(0.366076 -0.0379651 5.69865e-20)
(0.3706 -0.0392143 1.09045e-19)
(0.37522 -0.0404441 -1.01867e-19)
(0.379927 -0.0416518 -6.95571e-20)
(0.384717 -0.042835 3.62528e-20)
(0.389582 -0.0439912 2.70272e-20)
(0.394516 -0.0451177 1.21348e-20)
(0.399512 -0.0462122 -2.98235e-20)
(0.404565 -0.0472721 1.1749e-19)
(0.409668 -0.0482952 -9.0691e-20)
(0.414814 -0.0492791 3.85369e-20)
(0.419998 -0.0502216 -5.94451e-20)
(0.425213 -0.0511204 2.83846e-20)
(0.430455 -0.0519738 2.32493e-20)
(0.435717 -0.0527805 1.48967e-21)
(0.440994 -0.0535392 -1.33704e-20)
(0.446281 -0.0542485 -1.87591e-20)
(0.451572 -0.0549076 1.35141e-20)
(0.456863 -0.0555156 -3.64672e-20)
(0.462149 -0.0560719 3.38938e-20)
(0.467426 -0.0565763 2.47983e-21)
(0.472688 -0.0570286 -6.57809e-21)
(0.477933 -0.057429 5.94999e-21)
(0.483156 -0.0577777 -3.8033e-20)
(0.488354 -0.0580752 -2.15669e-20)
(0.493523 -0.0583223 7.85718e-20)
(0.49866 -0.0585199 -7.92459e-20)
(0.503763 -0.058669 9.73717e-20)
(0.508828 -0.0587709 -3.10883e-20)
(0.513854 -0.0588271 2.20341e-20)
(0.518838 -0.0588391 -6.40183e-20)
(0.523777 -0.0588086 -1.81438e-21)
(0.528671 -0.0587372 1.33477e-20)
(0.533517 -0.0586269 7.38756e-21)
(0.538314 -0.0584795 3.91055e-23)
(0.54306 -0.058297 2.31936e-20)
(0.547755 -0.0580814 -2.2388e-20)
(0.552398 -0.0578349 1.37971e-20)
(0.556987 -0.0575593 1.33533e-21)
(0.561522 -0.0572569 -1.23514e-21)
(0.566002 -0.0569297 -1.66017e-20)
(0.570428 -0.0565797 9.3187e-21)
(0.574798 -0.056209 4.49909e-21)
(0.579112 -0.0558196 5.77837e-21)
(0.583371 -0.0554135 -7.99262e-21)
(0.587575 -0.0549925 -1.35447e-20)
(0.591723 -0.0545586 3.52446e-21)
(0.595817 -0.0541135 9.33503e-21)
(0.599855 -0.0536591 -4.70822e-21)
(0.603839 -0.053197 1.81917e-23)
(0.607769 -0.0527289 3.38747e-21)
(0.611647 -0.0522564 -1.74913e-21)
(0.615471 -0.0517809 -2.04471e-21)
(0.619244 -0.0513041 5.34138e-21)
(0.622966 -0.0508273 -4.31766e-21)
(0.626638 -0.0503519 2.97448e-21)
(0.63026 -0.0498792 -6.54131e-22)
(0.633835 -0.0494106 -1.96711e-21)
(0.637363 -0.0489471 1.72834e-22)
(0.640845 -0.0484902 -5.50165e-22)
(0.644283 -0.0480409 1.3039e-21)
(0.647677 -0.0476005 1.05415e-21)
(0.651031 -0.0471701 -2.48568e-22)
(0.654344 -0.046751 -7.78138e-22)
(0.657619 -0.0463443 -1.34103e-21)
(0.660857 -0.0459513 1.45458e-21)
(0.66406 -0.0455733 -6.77402e-22)
(0.667229 -0.0452117 2.3653e-22)
(0.670369 -0.0448679 1.14845e-22)
(0.673476 -0.0445433 1.97634e-22)
(0.676564 -0.0442399 -2.93784e-22)
(0.679609 -0.0439595 3.51048e-23)
(0.68267 -0.0437034 5.29079e-23)
(0.685629 -0.0434767 -1.16362e-23)
(0.688736 -0.0432744 -4.63497e-24)
(0.691489 -0.0431162 2.71038e-23)
(0.694924 -0.0429709 -2.18619e-23)
(0.696959 -0.0429026 2.02218e-24)
(0.701936 -0.0428414 -1.38888e-24)
(0.503806 -0.0294279 -2.53344e-19)
(0.506301 -0.0310114 3.40094e-19)
(0.508973 -0.0325829 -3.35319e-19)
(0.511812 -0.0341414 1.72559e-19)
(0.514809 -0.0356858 -2.05618e-19)
(0.517953 -0.037215 8.47517e-20)
(0.521236 -0.0387275 1.98155e-19)
(0.524649 -0.0402216 8.56948e-21)
(0.528182 -0.0416954 -3.36452e-20)
(0.531826 -0.0431468 -2.5742e-19)
(0.535573 -0.0445736 8.0708e-20)
(0.539415 -0.0459734 1.49343e-19)
(0.543341 -0.0473439 -1.27527e-19)
(0.547345 -0.0486827 9.59615e-20)
(0.551419 -0.0499872 -9.4482e-20)
(0.555553 -0.0512549 1.14743e-19)
(0.559741 -0.0524833 -9.28603e-20)
(0.563975 -0.0536701 -4.85152e-20)
(0.568248 -0.054813 3.68507e-20)
(0.572553 -0.0559096 9.40223e-21)
(0.576882 -0.0569579 -7.26576e-22)
(0.581231 -0.0579559 -5.38166e-20)
(0.585591 -0.0589016 6.92469e-20)
(0.589959 -0.0597935 1.02094e-21)
(0.594327 -0.0606302 8.47641e-21)
(0.598692 -0.0614105 -9.39539e-21)
(0.603047 -0.0621335 -1.32945e-20)
(0.607389 -0.0627984 2.55741e-20)
(0.611712 -0.0634049 -2.88119e-20)
(0.616014 -0.0639526 -5.01135e-21)
(0.620289 -0.0644416 7.47751e-21)
(0.624535 -0.0648721 3.05722e-20)
(0.628749 -0.0652444 8.42792e-21)
(0.632927 -0.0655592 -3.88582e-20)
(0.637067 -0.0658174 5.33247e-20)
(0.641167 -0.06602 -1.49652e-20)
(0.645225 -0.0661682 7.6578e-21)
(0.649238 -0.0662634 -5.16103e-20)
(0.653206 -0.0663073 -6.02367e-21)
(0.657127 -0.0663015 3.92877e-20)
(0.660999 -0.0662479 1.94378e-20)
(0.664822 -0.0661485 6.99691e-21)
(0.668595 -0.0660053 -2.90649e-20)
(0.672318 -0.0658204 -2.04405e-22)
(0.675989 -0.0655961 -1.53286e-20)
(0.679609 -0.0653345 -1.35761e-20)
(0.683177 -0.065038 2.95234e-21)
(0.686694 -0.0647088 4.5176e-20)
(0.690158 -0.0643494 -7.51059e-21)
(0.693572 -0.0639619 -3.92282e-20)
(0.696933 -0.0635486 2.89649e-20)
(0.700244 -0.063112 -9.09513e-21)
(0.703505 -0.062654 1.24183e-20)
(0.706715 -0.0621771 -1.10986e-20)
(0.709876 -0.0616833 2.44094e-21)
(0.712988 -0.0611748 1.25514e-20)
(0.716052 -0.0606535 -1.67311e-20)
(0.719068 -0.0601215 6.84077e-21)
(0.722038 -0.0595806 4.04917e-21)
(0.724962 -0.0590328 -6.31945e-21)
(0.727841 -0.0584799 5.85822e-22)
(0.730675 -0.0579235 -5.85204e-22)
(0.733467 -0.0573653 7.98768e-21)
(0.736216 -0.0568069 -5.12059e-21)
(0.738924 -0.05625 -6.17e-21)
(0.741592 -0.0556959 1.03001e-20)
(0.744222 -0.0551461 -6.9335e-21)
(0.746813 -0.0546021 -2.73763e-21)
(0.749368 -0.0540652 6.90655e-21)
(0.751887 -0.0535367 -2.10982e-21)
(0.754373 -0.0530179 -7.08145e-22)
(0.756826 -0.0525103 2.10728e-21)
(0.759247 -0.0520149 -2.01471e-21)
(0.761639 -0.0515332 6.24227e-22)
(0.764002 -0.0510665 1.91907e-22)
(0.766338 -0.0506161 -1.68901e-22)
(0.76865 -0.0501834 -4.62727e-22)
(0.770936 -0.04977 4.47668e-22)
(0.773203 -0.0493771 -2.5625e-22)
(0.775443 -0.049007 5.13114e-22)
(0.777677 -0.0486601 1.7964e-22)
(0.779869 -0.0483409 1.14636e-22)
(0.782094 -0.0480467 -2.47073e-22)
(0.784212 -0.0477884 1.41501e-22)
(0.786495 -0.0475526 -3.81459e-23)
(0.788432 -0.04737 5.20242e-23)
(0.790997 -0.0471969 3.28343e-24)
(0.792379 -0.0471073 -7.22546e-24)
(0.79603 -0.0470242 6.82504e-25)
(0.685904 -0.0337755 -1.19371e-19)
(0.687364 -0.0356433 1.55374e-19)
(0.689007 -0.0374806 -3.91161e-19)
(0.69082 -0.0392869 4.46156e-19)
(0.692791 -0.0410615 -1.79851e-19)
(0.694907 -0.0428031 -8.84165e-20)
(0.697157 -0.0445105 1.62674e-19)
(0.699529 -0.046182 -2.32792e-19)
(0.702012 -0.0478162 3.84868e-19)
(0.704596 -0.0494112 -3.40082e-19)
(0.70727 -0.0509653 7.62943e-20)
(0.710024 -0.0524765 8.95759e-20)
(0.712849 -0.0539429 -1.37154e-19)
(0.715735 -0.0553623 -3.01773e-20)
(0.718674 -0.0567329 9.2362e-20)
(0.721657 -0.0580525 -1.46662e-19)
(0.724677 -0.0593193 2.4821e-19)
(0.727726 -0.0605313 -1.34247e-19)
(0.730796 -0.0616869 2.41105e-20)
(0.733882 -0.0627842 5.58722e-20)
(0.736976 -0.0638218 -7.81439e-20)
(0.740073 -0.0647983 -7.3061e-22)
(0.743168 -0.0657125 7.32054e-20)
(0.746255 -0.0665635 -3.5025e-20)
(0.74933 -0.0673504 -3.58989e-20)
(0.752389 -0.0680728 2.20254e-20)
(0.755427 -0.0687303 4.49621e-20)
(0.758441 -0.0693229 2.23435e-20)
(0.761429 -0.0698509 -2.11663e-20)
(0.764387 -0.0703144 -6.89063e-20)
(0.767313 -0.0707143 9.87831e-20)
(0.770205 -0.0710512 -6.31909e-20)
(0.773061 -0.0713262 4.80256e-20)
(0.775879 -0.0715405 -8.70531e-20)
(0.778659 -0.0716955 1.82925e-21)
(0.781399 -0.0717927 -8.32482e-21)
(0.784098 -0.0718339 9.45999e-20)
(0.786756 -0.0718211 -3.40469e-20)
(0.789373 -0.0717561 3.45406e-20)
(0.791948 -0.0716412 -1.19356e-20)
(0.794481 -0.0714786 -6.05491e-20)
(0.796972 -0.0712706 3.79596e-20)
(0.799421 -0.0710195 4.69431e-21)
(0.801829 -0.0707278 -3.64675e-20)
(0.804196 -0.0703978 1.09165e-20)
(0.806523 -0.0700322 2.8252e-20)
(0.808809 -0.0696334 -3.76188e-20)
(0.811056 -0.0692039 2.56977e-20)
(0.813264 -0.0687461 1.7396e-20)
(0.815435 -0.0682625 -2.96087e-20)
(0.817568 -0.0677555 1.29962e-20)
(0.819664 -0.0672275 7.35963e-21)
(0.821725 -0.0666809 1.59654e-21)
(0.82375 -0.0661178 -7.63835e-21)
(0.825742 -0.0655405 2.71169e-21)
(0.8277 -0.0649512 -1.08754e-20)
(0.829625 -0.0643519 6.76433e-21)
(0.83152 -0.0637447 -3.72929e-21)
(0.833383 -0.0631314 6.88219e-21)
(0.835217 -0.0625141 -3.70552e-21)
(0.837021 -0.0618944 -2.31961e-21)
(0.838798 -0.0612742 7.97218e-21)
(0.840548 -0.0606552 -8.95093e-21)
(0.842271 -0.0600389 3.05905e-21)
(0.843969 -0.0594269 3.22511e-21)
(0.845643 -0.0588207 -3.62601e-21)
(0.847294 -0.0582219 -4.32503e-23)
(0.848923 -0.0576319 -1.25561e-22)
(0.85053 -0.0570521 -2.48718e-21)
(0.852117 -0.0564838 4.92904e-21)
(0.853685 -0.0559284 -2.01767e-21)
(0.855235 -0.0553873 5.62778e-22)
(0.856767 -0.0548619 -1.42858e-21)
(0.858284 -0.0543535 -8.34498e-22)
(0.859786 -0.0538637 9.03013e-22)
(0.861275 -0.0533936 8.49514e-22)
(0.86275 -0.0529453 -1.37736e-21)
(0.864217 -0.0525193 8.47537e-22)
(0.865666 -0.0521191 -8.83181e-22)
(0.867121 -0.0517434 6.26474e-22)
(0.868541 -0.0513991 9.23112e-23)
(0.870002 -0.0510798 -2.42899e-22)
(0.871371 -0.0508015 1.9825e-22)
(0.872889 -0.0505441 -4.78548e-23)
(0.874127 -0.0503452 1.03653e-23)
(0.875856 -0.0501551 -3.67431e-23)
(0.876716 -0.0500511 -1.43932e-23)
(0.879148 -0.0499511 4.0985e-25)
(0.856061 -0.0339671 -9.17689e-20)
(0.856045 -0.0361108 -9.62542e-21)
(0.856213 -0.0382047 -9.89931e-21)
(0.856548 -0.0402499 -3.24951e-19)
(0.857039 -0.042247 7.25247e-20)
(0.857672 -0.0441957 2.50556e-20)
(0.858435 -0.0460955 3.62408e-19)
(0.859316 -0.0479455 -4.93555e-20)
(0.860304 -0.0497449 -1.02617e-19)
(0.861387 -0.0514924 1.17423e-19)
(0.862556 -0.0531867 -8.375e-20)
(0.8638 -0.0548265 -8.30342e-20)
(0.865111 -0.0564101 -6.89848e-20)
(0.866478 -0.0579362 1.29835e-19)
(0.867895 -0.0594032 -2.74772e-19)
(0.869353 -0.0608095 2.62306e-19)
(0.870845 -0.0621537 6.23652e-21)
(0.872364 -0.0634344 -1.83253e-19)
(0.873904 -0.0646504 -7.38462e-20)
(0.875458 -0.0658004 2.2393e-19)
(0.877022 -0.0668833 -3.70016e-20)
(0.87859 -0.0678983 -1.09156e-19)
(0.880159 -0.0688447 1.29357e-19)
(0.881724 -0.0697218 -1.60018e-20)
(0.883281 -0.0705294 -1.32045e-20)
(0.884828 -0.0712673 3.33607e-20)
(0.886361 -0.0719357 -3.0063e-20)
(0.887879 -0.0725348 1.14636e-20)
(0.889378 -0.073065 5.35822e-20)
(0.890858 -0.0735271 -6.026e-20)
(0.892316 -0.0739219 2.5947e-20)
(0.893752 -0.0742505 -1.55125e-20)
(0.895165 -0.0745143 5.35699e-20)
(0.896554 -0.0747146 -2.71529e-21)
(0.897918 -0.0748532 -4.24626e-22)
(0.899258 -0.0749317 -8.21588e-20)
(0.900573 -0.0749522 3.83118e-21)
(0.901863 -0.0749167 2.00497e-20)
(0.903129 -0.0748274 -2.84892e-20)
(0.904371 -0.0746867 3.247e-20)
(0.905589 -0.0744969 -1.29463e-21)
(0.906783 -0.0742606 1.6991e-20)
(0.907955 -0.0739801 1.83677e-20)
(0.909105 -0.073658 -2.47664e-20)
(0.910233 -0.073297 -1.99005e-20)
(0.911341 -0.0728995 -1.69125e-20)
(0.912428 -0.0724682 4.83253e-20)
(0.913496 -0.0720056 -1.93559e-20)
(0.914545 -0.0715144 1.82766e-22)
(0.915577 -0.070997 -3.46481e-20)
(0.91659 -0.0704559 3.28206e-20)
(0.917588 -0.0698936 -5.72224e-22)
(0.918569 -0.0693125 -2.64404e-20)
(0.919536 -0.0687149 4.22471e-20)
(0.920487 -0.0681032 -2.51536e-20)
(0.921425 -0.0674794 5.28772e-21)
(0.92235 -0.0668458 -6.00947e-21)
(0.923262 -0.0662045 5.13991e-21)
(0.924162 -0.0655574 5.46438e-21)
(0.92505 -0.0649065 2.00375e-21)
(0.925928 -0.0642537 -5.43584e-21)
(0.926796 -0.0636008 -3.88721e-21)
(0.927654 -0.0629496 2.13374e-21)
(0.928503 -0.0623017 4.23529e-21)
(0.929343 -0.0616588 2.56528e-21)
(0.930176 -0.0610225 -2.78666e-21)
(0.931002 -0.0603943 4.13366e-21)
(0.93182 -0.0597757 -9.76231e-21)
(0.932633 -0.0591682 7.08409e-21)
(0.93344 -0.0585732 -4.75983e-21)
(0.934243 -0.0579922 1.97999e-21)
(0.935041 -0.0574266 1.3464e-21)
(0.935835 -0.0568779 -8.385e-22)
(0.936627 -0.0563473 5.68479e-22)
(0.937415 -0.0558366 -1.16733e-21)
(0.938203 -0.0553468 -1.03451e-21)
(0.938988 -0.0548803 1.07817e-21)
(0.939776 -0.0544372 -3.70737e-22)
(0.940557 -0.0540216 7.71378e-23)
(0.941349 -0.0536311 1.99909e-22)
(0.942123 -0.0532744 -4.61441e-24)
(0.942933 -0.0529424 1.43755e-22)
(0.943683 -0.052654 -1.27655e-22)
(0.94454 -0.0523857 8.41553e-23)
(0.945217 -0.052178 5.96893e-23)
(0.946209 -0.0519787 6.29566e-23)
(0.946671 -0.0518658 -1.32581e-23)
(0.94806 -0.0517528 -4.70953e-24)
(1.00105 -0.0340628 1.24856e-19)
(0.999713 -0.0365158 -3.28123e-19)
(0.998521 -0.0388957 2.18456e-19)
(0.997469 -0.041204 -1.02058e-19)
(0.996544 -0.0434416 1.8815e-19)
(0.995739 -0.0456093 -3.52799e-19)
(0.995042 -0.0477075 3.8367e-19)
(0.994445 -0.0497364 -2.8466e-19)
(0.993938 -0.051696 2.29944e-19)
(0.993514 -0.0535858 -1.42611e-19)
(0.993164 -0.0554055 -8.88907e-20)
(0.99288 -0.0571545 2.58587e-19)
(0.992656 -0.0588321 -2.48994e-19)
(0.992484 -0.0604375 -1.51745e-19)
(0.992357 -0.06197 2.34533e-19)
(0.992271 -0.0634289 -1.02331e-21)
(0.99222 -0.0648134 8.58264e-20)
(0.992198 -0.0661228 -6.22614e-20)
(0.992201 -0.0673566 7.87806e-20)
(0.992225 -0.0685143 -1.69973e-19)
(0.992266 -0.0695955 -9.28243e-20)
(0.992321 -0.0706001 8.2677e-20)
(0.992386 -0.071528 8.14994e-20)
(0.99246 -0.0723793 9.28641e-20)
(0.99254 -0.0731544 -6.95909e-20)
(0.992624 -0.0738539 -6.41213e-21)
(0.99271 -0.0744782 -4.51255e-20)
(0.992797 -0.0750284 -4.6388e-20)
(0.992885 -0.0755055 8.5335e-20)
(0.992971 -0.0759106 6.91048e-23)
(0.993055 -0.0762452 -4.68054e-20)
(0.993138 -0.076511 1.62746e-20)
(0.993218 -0.0767097 -3.2707e-20)
(0.993296 -0.0768431 1.31646e-20)
(0.993371 -0.0769134 3.67598e-20)
(0.993444 -0.0769229 -2.38681e-20)
(0.993515 -0.0768738 -2.74712e-20)
(0.993584 -0.0767685 2.5514e-20)
(0.993651 -0.0766095 4.20646e-20)