/*--------------------------------*- C++ -*----------------------------------*\
  =========                 |
  \\      /  F ield         | OpenFOAM: The Open Source CFD Toolbox
   \\    /   O peration     | Website:  https://openfoam.org
    \\  /    A nd           | Version:  7
     \\/     M anipulation  |
\*---------------------------------------------------------------------------*/
FoamFile
{
    version     2.0;
    format      ascii;
    class       volScalarField;
    location    "30";
    object      p;
}
// * * * * * * * * * * * * * * * * * * * * * * * * * * * * * * * * * * * * * //

dimensions      [0 2 -2 0 0 0 0];

internalField   nonuniform List<scalar> 
1360
(
-0.076656
-0.0750764
-0.0738087
-0.0728559
-0.0722197
-0.0719016
-0.115449
-0.112706
-0.110114
-0.107136
-0.10392
-0.100587
-0.0972285
-0.0939267
-0.0907455
-0.0877334
-0.084927
-0.0823535
-0.0800329
-0.0779803
-0.0762066
-0.0747195
-0.0735246
-0.0726257
-0.0720251
-0.0717247
-0.111619
-0.109182
-0.106877
-0.104207
-0.101303
-0.0982728
-0.0952027
-0.0921696
-0.0892346
-0.0864451
-0.0838375
-0.0814393
-0.0792715
-0.0773499
-0.0756863
-0.0742895
-0.0731657
-0.0723195
-0.0717537
-0.0714706
-0.107897
-0.105745
-0.103707
-0.101324
-0.0987122
-0.0959685
-0.0931716
-0.0903939
-0.0876938
-0.0851175
-0.0827008
-0.0804717
-0.0784515
-0.0766568
-0.0751002
-0.0737912
-0.0727367
-0.071942
-0.0714102
-0.071144
-0.104281
-0.102394
-0.100605
-0.0984908
-0.0961527
-0.0936784
-0.0911399
-0.0886047
-0.0861285
-0.0837559
-0.0815224
-0.0794559
-0.0775781
-0.0759061
-0.0744531
-0.0732293
-0.0722422
-0.0714975
-0.0709989
-0.0707492
-0.10077
-0.09913
-0.097572
-0.0957086
-0.0936272
-0.0914064
-0.0891118
-0.0868066
-0.0845433
-0.0823653
-0.0803073
-0.0783968
-0.0766561
-0.0751025
-0.0737497
-0.0726084
-0.0716867
-0.0709906
-0.0705242
-0.0702905
-0.0973645
-0.0959525
-0.0946094
-0.0929797
-0.0911384
-0.0891558
-0.0870913
-0.0850037
-0.0829429
-0.0809503
-0.0790599
-0.0772992
-0.0756902
-0.0742506
-0.0729945
-0.0719329
-0.0710745
-0.0704255
-0.0699903
-0.0697722
-0.0940617
-0.0928613
-0.0917177
-0.0903055
-0.0886887
-0.0869295
-0.0850818
-0.0832001
-0.0813312
-0.0795151
-0.0777848
-0.0761673
-0.0746846
-0.0733546
-0.0721916
-0.071207
-0.0704097
-0.0698062
-0.0694013
-0.0691982
-0.0908606
-0.089856
-0.0888973
-0.0876873
-0.08628
-0.0847301
-0.0830865
-0.081399
-0.0797121
-0.0780638
-0.076486
-0.0750053
-0.0736436
-0.0724188
-0.0713453
-0.0704348
-0.0696964
-0.0691368
-0.0687611
-0.0685726
-0.0877595
-0.0869357
-0.0861481
-0.085126
-0.083914
-0.0825601
-0.0811081
-0.0796039
-0.0780891
-0.0765999
-0.0751673
-0.0738171
-0.0725711
-0.071447
-0.0704595
-0.0696202
-0.0689384
-0.0684212
-0.0680736
-0.0678991
-0.0847568
-0.0840997
-0.0834702
-0.0826223
-0.081592
-0.0804213
-0.0791491
-0.0778175
-0.0764653
-0.0751269
-0.0738322
-0.0726064
-0.0714708
-0.0704431
-0.0695379
-0.0687669
-0.0681395
-0.067663
-0.0673425
-0.0671815
-0.0818505
-0.0813468
-0.0808632
-0.0801765
-0.0793152
-0.0783155
-0.0772118
-0.0760424
-0.0748436
-0.073648
-0.0724841
-0.0713766
-0.0703463
-0.0694105
-0.068584
-0.0678784
-0.0673033
-0.0668659
-0.0665713
-0.0664233
-0.0790385
-0.0786758
-0.0783266
-0.077789
-0.0770846
-0.0762442
-0.075298
-0.074281
-0.0732268
-0.072166
-0.0711261
-0.0701309
-0.0692007
-0.0683527
-0.0676013
-0.0669583
-0.0664331
-0.0660331
-0.0657635
-0.0656279
-0.0763188
-0.0760853
-0.0758597
-0.0754596
-0.0749006
-0.0742085
-0.0734096
-0.0725355
-0.0716172
-0.0706836
-0.069761
-0.0688723
-0.0680372
-0.0672727
-0.066593
-0.0660097
-0.0655323
-0.065168
-0.0649222
-0.0647986
-0.0736892
-0.0735739
-0.0734616
-0.0731883
-0.0727638
-0.0722095
-0.071548
-0.0708076
-0.070017
-0.0692033
-0.0683915
-0.0676035
-0.0668587
-0.0661736
-0.065562
-0.0650357
-0.0646038
-0.0642737
-0.0640507
-0.0639384
-0.0711473
-0.07114
-0.0711315
-0.0709748
-0.0706745
-0.070248
-0.0697144
-0.0690991
-0.0684282
-0.0677273
-0.0670199
-0.0663273
-0.065668
-0.0650581
-0.0645114
-0.0640392
-0.0636507
-0.0633532
-0.0631519
-0.0630505
-0.0686909
-0.0687819
-0.0688682
-0.0688185
-0.0686328
-0.0683246
-0.0679099
-0.0674113
-0.0668526
-0.0662576
-0.0656486
-0.0650459
-0.0644675
-0.0639289
-0.0634437
-0.063023
-0.0626758
-0.0624093
-0.0622287
-0.0621376
-0.0663175
-0.0664979
-0.0666706
-0.0667189
-0.0666386
-0.0664397
-0.0661356
-0.0657457
-0.0652918
-0.0647962
-0.0642797
-0.0637617
-0.0632596
-0.0627886
-0.0623616
-0.0619897
-0.0616817
-0.0614446
-0.0612838
-0.0612025
-0.0640249
-0.0642861
-0.0645375
-0.0646753
-0.0646918
-0.0645938
-0.0643919
-0.0641032
-0.0637473
-0.0633446
-0.0629149
-0.0624767
-0.0620466
-0.0616393
-0.0612675
-0.0609417
-0.0606709
-0.0604618
-0.0603196
-0.0602477
-0.0618105
-0.0621449
-0.0624675
-0.0626868
-0.062792
-0.062787
-0.0626797
-0.0624849
-0.0622202
-0.0619044
-0.0615561
-0.0611929
-0.0608306
-0.0604834
-0.0601636
-0.0598815
-0.0596459
-0.0594633
-0.0593388
-0.0592757
-0.0596721
-0.0600722
-0.0604592
-0.0607527
-0.0609389
-0.0610193
-0.0609993
-0.0608915
-0.0607117
-0.060477
-0.0602049
-0.0599119
-0.0596133
-0.0593227
-0.059052
-0.0588112
-0.0586088
-0.0584512
-0.0583435
-0.0582888
-0.0576071
-0.0580662
-0.0585112
-0.0588719
-0.059132
-0.0592906
-0.0593511
-0.0593238
-0.0592227
-0.0590636
-0.0588627
-0.0586355
-0.0583967
-0.0581593
-0.0579347
-0.0577329
-0.0575618
-0.0574279
-0.057336
-0.0572892
-0.0556133
-0.056125
-0.056622
-0.0570434
-0.0573707
-0.0576009
-0.0577353
-0.0577823
-0.0577542
-0.0576653
-0.0575307
-0.0573651
-0.0571823
-0.0569948
-0.0568136
-0.0566484
-0.0565068
-0.0563952
-0.0563182
-0.056279
-0.0536882
-0.0542467
-0.0547901
-0.0552662
-0.0556544
-0.0559498
-0.056152
-0.0562674
-0.0563068
-0.0562831
-0.0562103
-0.056102
-0.0559716
-0.0558308
-0.0556905
-0.0555596
-0.0554458
-0.0553552
-0.0552923
-0.0552601
-0.0518295
-0.0524294
-0.0530141
-0.0535391
-0.0539824
-0.054337
-0.0546012
-0.0547795
-0.0548812
-0.0549179
-0.0549024
-0.0548476
-0.054766
-0.054669
-0.0545668
-0.0544681
-0.0543804
-0.0543095
-0.0542598
-0.0542343
-0.050035
-0.0506711
-0.0512923
-0.051861
-0.0523538
-0.0527622
-0.0530828
-0.0533188
-0.0534779
-0.0535703
-0.0536079
-0.0536029
-0.0535668
-0.0535106
-0.0534441
-0.0533756
-0.0533124
-0.05326
-0.0532227
-0.0532033
-0.0483023
-0.0489701
-0.0496233
-0.0502308
-0.050768
-0.0512249
-0.0515968
-0.0518855
-0.0520972
-0.052241
-0.0523279
-0.0523689
-0.0523752
-0.052357
-0.0523238
-0.0522835
-0.0522431
-0.052208
-0.0521823
-0.0521688
-0.0466292
-0.0473244
-0.0480055
-0.0486473
-0.049224
-0.0497245
-0.050143
-0.0504796
-0.0507395
-0.0509307
-0.0510629
-0.0511466
-0.0511921
-0.0512093
-0.0512071
-0.0511932
-0.0511741
-0.0511552
-0.0511404
-0.0511323
-0.0450136
-0.0457322
-0.0464375
-0.0471092
-0.0477209
-0.0482606
-0.048721
-0.0491012
-0.0494051
-0.0496396
-0.0498136
-0.0499367
-0.0500186
-0.0500687
-0.0500952
-0.0501058
-0.0501066
-0.0501028
-0.0500981
-0.0500951
-0.0434534
-0.0441918
-0.0449176
-0.0456154
-0.046258
-0.0468325
-0.0473305
-0.0477502
-0.0480942
-0.0483683
-0.0485807
-0.04874
-0.0488556
-0.048936
-0.0489893
-0.0490226
-0.0490419
-0.0490521
-0.0490569
-0.0490586
-0.0419465
-0.0427013
-0.0434444
-0.0441646
-0.0448343
-0.0454395
-0.0459713
-0.0464265
-0.0468068
-0.0471171
-0.0473645
-0.0475573
-0.0477037
-0.0478122
-0.0478902
-0.0479446
-0.0479811
-0.0480043
-0.0480179
-0.048024
-0.0404909
-0.041259
-0.0420164
-0.0427556
-0.0434488
-0.0440811
-0.0446428
-0.0451299
-0.045543
-0.0458862
-0.0461656
-0.0463889
-0.0465638
-0.0466981
-0.0467989
-0.0468728
-0.0469252
-0.0469605
-0.0469822
-0.0469924
-0.0390847
-0.0398632
-0.0406321
-0.0413873
-0.0421006
-0.0427565
-0.0433448
-0.0438603
-0.0443029
-0.0446757
-0.0449843
-0.0452354
-0.0454364
-0.0455944
-0.0457163
-0.0458081
-0.0458752
-0.0459217
-0.0459509
-0.0459649
-0.0377259
-0.0385123
-0.0392903
-0.0400585
-0.0407887
-0.0414651
-0.0420766
-0.0426173
-0.0430863
-0.0434859
-0.0438209
-0.0440973
-0.0443221
-0.0445018
-0.044643
-0.0447513
-0.0448319
-0.0448887
-0.0449248
-0.0449424
-0.0364128
-0.0372047
-0.0379893
-0.038768
-0.0395123
-0.0402061
-0.0408377
-0.0414007
-0.0418931
-0.0423167
-0.0426755
-0.042975
-0.0432213
-0.0434209
-0.0435797
-0.0437032
-0.0437962
-0.0438625
-0.043905
-0.0439257
-0.0351435
-0.0359388
-0.0367279
-0.0375146
-0.0382704
-0.0389789
-0.0396278
-0.0402102
-0.0407233
-0.0411683
-0.0415484
-0.0418686
-0.0421346
-0.0423522
-0.0425271
-0.0426645
-0.0427688
-0.0428437
-0.0428921
-0.0429158
-0.0339164
-0.0347131
-0.0355047
-0.0362971
-0.037062
-0.0377826
-0.0384462
-0.0390453
-0.0395767
-0.0400406
-0.0404397
-0.0407786
-0.0410622
-0.0412961
-0.0414857
-0.0416356
-0.0417503
-0.0418331
-0.0418869
-0.0419133
-0.0327298
-0.0335261
-0.0343185
-0.0351146
-0.0358863
-0.0366165
-0.0372924
-0.0379058
-0.038453
-0.0389335
-0.0393496
-0.039705
-0.0400045
-0.0402532
-0.0404559
-0.0406173
-0.0407413
-0.0408314
-0.04089
-0.0409189
-0.0315821
-0.0323764
-0.0331679
-0.0339658
-0.0347422
-0.0354799
-0.0361658
-0.0367913
-0.037352
-0.037847
-0.0382779
-0.0386481
-0.0389617
-0.0392236
-0.0394382
-0.0396099
-0.0397425
-0.0398391
-0.0399021
-0.0399332
-0.0304718
-0.0312626
-0.0320517
-0.0328497
-0.033629
-0.0343722
-0.0350659
-0.0357013
-0.0362734
-0.0367809
-0.0372247
-0.0376079
-0.0379341
-0.0382077
-0.038433
-0.0386139
-0.0387542
-0.0388567
-0.0389237
-0.0389568
-0.0293973
-0.0301833
-0.0309688
-0.0317653
-0.0325456
-0.0332924
-0.0339921
-0.0346354
-0.035217
-0.035735
-0.0361901
-0.0365845
-0.0369218
-0.0372058
-0.0374405
-0.0376297
-0.0377768
-0.0378846
-0.0379552
-0.0379901
-0.0283573
-0.0291373
-0.0299179
-0.0307115
-0.0314913
-0.03224
-0.0329438
-0.0335932
-0.0341825
-0.0347093
-0.0351739
-0.0355781
-0.0359249
-0.0362181
-0.0364611
-0.0366577
-0.0368109
-0.0369233
-0.0369972
-0.0370337
-0.0273504
-0.0281234
-0.0288979
-0.0296874
-0.0304652
-0.0312141
-0.0319204
-0.0325743
-0.0331695
-0.0337035
-0.034176
-0.0345885
-0.0349436
-0.0352446
-0.035495
-0.035698
-0.0358566
-0.0359732
-0.0360499
-0.0360878
-0.0263753
-0.0271402
-0.0279078
-0.0286919
-0.0294663
-0.0302141
-0.0309214
-0.0315781
-0.0321777
-0.0327174
-0.0331963
-0.0336157
-0.0339778
-0.0342857
-0.0345424
-0.0347509
-0.0349142
-0.0350345
-0.0351137
-0.0351529
-0.0254307
-0.0261867
-0.0269464
-0.0277241
-0.028494
-0.0292393
-0.0299461
-0.0306042
-0.0312068
-0.0317507
-0.0322347
-0.0326597
-0.0330277
-0.0333413
-0.0336033
-0.0338167
-0.0339841
-0.0341075
-0.0341889
-0.0342292
-0.0245154
-0.0252618
-0.0260128
-0.026783
-0.0275474
-0.028289
-0.028994
-0.0296521
-0.0302564
-0.0308031
-0.031291
-0.0317204
-0.0320931
-0.0324115
-0.0326781
-0.0328955
-0.0330663
-0.0331925
-0.0332757
-0.033317
-0.0236282
-0.0243643
-0.025106
-0.0258679
-0.0266257
-0.0273625
-0.0280646
-0.0287215
-0.0293261
-0.0298745
-0.030365
-0.0307978
-0.0311742
-0.0314963
-0.0317666
-0.0319874
-0.0321611
-0.0322896
-0.0323743
-0.0324164
-0.022768
-0.0234933
-0.0242249
-0.0249779
-0.0257281
-0.0264591
-0.0271571
-0.0278117
-0.0284156
-0.0289645
-0.0294565
-0.0298916
-0.0302707
-0.0305958
-0.030869
-0.0310926
-0.0312686
-0.0313989
-0.031485
-0.0315278
-0.0219338
-0.0226477
-0.0233688
-0.024112
-0.0248539
-0.0255781
-0.0262712
-0.0269224
-0.0275245
-0.0280728
-0.0285654
-0.0290017
-0.0293827
-0.0297099
-0.0299853
-0.030211
-0.0303889
-0.0305207
-0.0306079
-0.0306511
-0.11913
-0.115117
-0.111218
-0.107434
-0.103762
-0.100202
-0.0967509
-0.0934084
-0.0901723
-0.0870405
-0.084011
-0.0810816
-0.0782499
-0.0755137
-0.0728703
-0.0703175
-0.0678525
-0.0654729
-0.0631761
-0.0609594
-0.0588203
-0.0567563
-0.0547648
-0.0528434
-0.0509895
-0.0492008
-0.0474749
-0.0458094
-0.0442022
-0.042651
-0.0411538
-0.0397083
-0.0383126
-0.0369648
-0.0356629
-0.0344052
-0.0331899
-0.0320153
-0.0308797
-0.0297816
-0.0287195
-0.0276919
-0.0266975
-0.0257348
-0.0248026
-0.0238997
-0.0230249
-0.022177
-0.120285
-0.116129
-0.1121
-0.108195
-0.104413
-0.100753
-0.0972107
-0.0937855
-0.0904746
-0.0872753
-0.084185
-0.0812011
-0.0783207
-0.0755411
-0.0728594
-0.0702725
-0.0677778
-0.0653721
-0.0630527
-0.0608166
-0.058661
-0.056583
-0.05458
-0.0526492
-0.0507878
-0.0489935
-0.0472635
-0.0455954
-0.0439868
-0.0424354
-0.040939
-0.0394952
-0.0381021
-0.0367576
-0.0354597
-0.0342065
-0.0329961
-0.0318269
-0.0306972
-0.0296052
-0.0285494
-0.0275284
-0.0265408
-0.025585
-0.0246599
-0.0237641
-0.0228964
-0.0220558
-0.021241
-0.121762
-0.117504
-0.113377
-0.109381
-0.105512
-0.101769
-0.0981504
-0.0946526
-0.0912734
-0.0880102
-0.0848602
-0.0818205
-0.0788881
-0.07606
-0.0733333
-0.0707047
-0.0681712
-0.0657297
-0.0633772
-0.0611106
-0.0589269
-0.0568232
-0.0547965
-0.052844
-0.0509629
-0.0491505
-0.0474042
-0.0457213
-0.0440993
-0.0425359
-0.0410286
-0.0395752
-0.0381736
-0.0368215
-0.0355169
-0.0342579
-0.0330426
-0.0318691
-0.0307357
-0.0296408
-0.0285827
-0.0275598
-0.0265708
-0.0256141
-0.0246884
-0.0237925
-0.0229251
-0.0220849
-0.0212709
-0.123654
-0.119292
-0.115065
-0.110973
-0.107013
-0.103183
-0.0994804
-0.0959037
-0.0924498
-0.0891158
-0.0858988
-0.0827959
-0.0798039
-0.0769197
-0.0741401
-0.0714618
-0.0688817
-0.0663965
-0.0640029
-0.0616979
-0.0594782
-0.0573409
-0.0552828
-0.053301
-0.0513926
-0.0495547
-0.0477847
-0.0460797
-0.0444373
-0.0428549
-0.04133
-0.0398603
-0.0384435
-0.0370775
-0.0357601
-0.0344892
-0.033263
-0.0320795
-0.0309369
-0.0298336
-0.0287678
-0.0277379
-0.0267425
-0.02578
-0.0248491
-0.0239485
-0.0230768
-0.0222329
-0.0214155
-0.0206236
-0.121388
-0.117071
-0.11289
-0.108844
-0.10493
-0.101147
-0.0974913
-0.0939615
-0.0905547
-0.0872678
-0.0840979
-0.0810418
-0.0780964
-0.0752584
-0.0725245
-0.0698915
-0.0673559
-0.0649146
-0.0625643
-0.0603018
-0.0581238
-0.0560272
-0.0540091
-0.0520663
-0.0501961
-0.0483954
-0.0466616
-0.044992
-0.043384
-0.0418351
-0.0403427
-0.0389047
-0.0375187
-0.0361825
-0.034894
-0.0336513
-0.0324523
-0.0312952
-0.0301783
-0.0290998
-0.0280581
-0.0270515
-0.0260787
-0.0251381
-0.0242285
-0.0233483
-0.0224965
-0.0216719
-0.0208731
-0.0200993
-0.12395
-0.119544
-0.115275
-0.111141
-0.107141
-0.103272
-0.0995331
-0.0959218
-0.0924355
-0.0890714
-0.0858265
-0.082698
-0.0796826
-0.0767771
-0.0739783
-0.0712828
-0.0686873
-0.0661885
-0.0637832
-0.0614679
-0.0592396
-0.057095
-0.0550309
-0.0530444
-0.0511325
-0.0492921
-0.0475205
-0.045815
-0.0441728
-0.0425914
-0.0410683
-0.0396009
-0.0381871
-0.0368246
-0.0355112
-0.0342448
-0.0330234
-0.0318451
-0.0307081
-0.0296105
-0.0285508
-0.0275272
-0.0265382
-0.0255824
-0.0246583
-0.0237645
-0.0228998
-0.0220629
-0.0212527
-0.0204679
-0.0197076
-0.122601
-0.118236
-0.114005
-0.109909
-0.105946
-0.102113
-0.0984096
-0.0948325
-0.0913796
-0.0880481
-0.084835
-0.0817375
-0.0787523
-0.0758762
-0.073106
-0.0704384
-0.06787
-0.0653976
-0.0630178
-0.0607275
-0.0585233
-0.0564021
-0.0543608
-0.0523963
-0.0505057
-0.048686
-0.0469345
-0.0452483
-0.0436249
-0.0420617
-0.0405561
-0.0391058
-0.0377085
-0.0363619
-0.0350639
-0.0338123
-0.0326053
-0.031441
-0.0303174
-0.0292328
-0.0281857
-0.0271743
-0.026197
-0.0252526
-0.0243395
-0.0234563
-0.0226019
-0.021775
-0.0209743
-0.0201989
-0.121897
-0.117555
-0.113347
-0.109272
-0.105329
-0.101516
-0.097832
-0.0942737
-0.090839
-0.0875252
-0.0843293
-0.0812484
-0.0782793
-0.0754188
-0.0726638
-0.0700109
-0.0674567
-0.0649981
-0.0626317
-0.0603542
-0.0581626
-0.0560535
-0.0540239
-0.0520707
-0.050191
-0.048382
-0.0466407
-0.0449644
-0.0433506
-0.0417966
-0.0402999
-0.0388582
-0.0374692
-0.0361306
-0.0348404
-0.0335963
-0.0323966
-0.0312392
-0.0301224
-0.0290444
-0.0280035
-0.0269982
-0.0260269
-0.0250881
-0.0241805
-0.0233027
-0.0224534
)
;

boundaryField
{
    inlet
    {
        type            zeroGradient;
    }
    outlet
    {
        type            fixedValue;
        value           nonuniform 0();
    }
    cylinder
    {
        type            zeroGradient;
    }
    top
    {
        type            symmetryPlane;
    }
    bottom
    {
        type            symmetryPlane;
    }
    defaultFaces
    {
        type            empty;
    }
    procBoundary2to1
    {
        type            processor;
        value           nonuniform List<scalar> 
34
(
-0.0770294
-0.0753551
-0.0740131
-0.0730054
-0.072333
-0.0719969
-0.119386
-0.119386
-0.116314
-0.113415
-0.110109
-0.106562
-0.102907
-0.0992439
-0.0956598
-0.092221
-0.0889769
-0.085964
-0.0832088
-0.0807305
-0.078543
-0.078543
-0.123259
-0.123259
-0.12457
-0.12457
-0.126154
-0.126154
-0.128153
-0.125842
-0.125842
-0.128492
-0.127101
-0.126374
)
;
    }
    procBoundary2to3
    {
        type            processor;
        value           nonuniform List<scalar> 
30
(
-0.0211245
-0.021355
-0.0218266
-0.0225366
-0.0232695
-0.0240023
-0.0247191
-0.0254062
-0.0260531
-0.0266523
-0.0271992
-0.0276913
-0.028128
-0.0285099
-0.0288385
-0.0291154
-0.0293427
-0.029522
-0.029655
-0.0297429
-0.0297866
-0.021355
-0.0204511
-0.020482
-0.020482
-0.0198561
-0.0193493
-0.0189707
-0.0194476
-0.0194476
)
;
    }
    procBoundary2to6
    {
        type            processor;
        value           nonuniform List<scalar> 
51
(
-0.121897
-0.117555
-0.113347
-0.109272
-0.105329
-0.101516
-0.097832
-0.0942737
-0.090839
-0.0875252
-0.0843293
-0.0812484
-0.0782793
-0.0754188
-0.0726638
-0.0700109
-0.0674567
-0.0649981
-0.0626317
-0.0603542
-0.0581626
-0.0560535
-0.0540239
-0.0520707
-0.050191
-0.048382
-0.0466407
-0.0449644
-0.0433506
-0.0417966
-0.0402999
-0.0388582
-0.0374692
-0.0361306
-0.0348404
-0.0335963
-0.0323966
-0.0312392
-0.0301224
-0.0290444
-0.0280035
-0.0269982
-0.0260269
-0.0250881
-0.0241805
-0.0233027
-0.0224534
-0.0216314
-0.0208356
-0.0200648
-0.0216314
)
;
    }
}


// ************************************************************************* //
