/*--------------------------------*- C++ -*----------------------------------*\
  =========                 |
  \\      /  F ield         | OpenFOAM: The Open Source CFD Toolbox
   \\    /   O peration     | Website:  https://openfoam.org
    \\  /    A nd           | Version:  7
     \\/     M anipulation  |
\*---------------------------------------------------------------------------*/
FoamFile
{
    version     2.0;
    format      ascii;
    class       volScalarField;
    location    "24.999";
    object      p;
}
// * * * * * * * * * * * * * * * * * * * * * * * * * * * * * * * * * * * * * //

dimensions      [0 2 -2 0 0 0 0];

internalField   nonuniform List<scalar> 
11400
(
-0.271583
-0.272201
-0.272775
-0.273286
-0.273714
-0.27404
-0.274246
-0.274319
-0.27425
-0.274042
-0.273705
-0.273261
-0.272811
-0.265019
-0.267246
-0.268232
-0.269042
-0.269767
-0.270442
-0.271098
-0.271739
-0.272353
-0.272924
-0.273433
-0.273859
-0.274183
-0.274387
-0.274455
-0.274377
-0.274156
-0.273795
-0.273309
-0.272823
-0.265515
-0.267669
-0.268624
-0.269409
-0.270113
-0.270771
-0.271414
-0.272044
-0.272649
-0.273214
-0.273718
-0.274141
-0.274462
-0.274661
-0.27472
-0.274625
-0.274375
-0.273971
-0.273402
-0.272832
-0.266243
-0.26829
-0.269198
-0.269946
-0.270618
-0.27125
-0.271871
-0.272483
-0.273075
-0.273629
-0.274125
-0.274541
-0.274857
-0.27505
-0.275096
-0.274976
-0.274685
-0.27422
-0.273535
-0.2728
-0.267183
-0.269094
-0.269941
-0.270638
-0.271267
-0.271862
-0.272452
-0.273039
-0.273609
-0.274146
-0.27463
-0.275037
-0.275345
-0.275528
-0.275559
-0.27541
-0.275064
-0.274526
-0.273711
-0.272667
-0.268312
-0.270063
-0.270835
-0.271468
-0.27204
-0.272586
-0.273134
-0.273685
-0.274225
-0.274738
-0.275202
-0.275595
-0.275891
-0.276061
-0.276075
-0.275894
-0.275487
-0.274863
-0.27395
-0.272319
-0.269606
-0.271176
-0.271859
-0.272414
-0.272915
-0.273398
-0.273891
-0.274393
-0.274893
-0.275372
-0.275808
-0.276179
-0.276456
-0.27661
-0.276603
-0.276392
-0.275918
-0.275175
-0.2743
-0.271628
-0.271036
-0.272413
-0.272995
-0.273456
-0.27387
-0.274274
-0.274695
-0.275134
-0.275579
-0.276011
-0.276409
-0.276747
-0.276998
-0.277128
-0.277097
-0.276855
-0.276318
-0.275373
-0.274722
-0.270921
-0.272577
-0.273754
-0.274222
-0.274574
-0.274882
-0.275187
-0.275518
-0.275876
-0.27625
-0.276621
-0.276966
-0.27726
-0.277473
-0.277569
-0.277504
-0.277224
-0.276647
-0.275594
-0.274794
-0.270267
-0.274207
-0.275181
-0.275523
-0.275748
-0.27593
-0.276116
-0.276336
-0.276593
-0.276877
-0.277169
-0.277445
-0.277678
-0.277838
-0.277887
-0.277777
-0.277442
-0.276838
-0.275578
-0.274938
-0.269273
-0.275906
-0.276681
-0.276884
-0.276963
-0.276998
-0.277041
-0.277126
-0.277261
-0.277434
-0.277626
-0.277815
-0.27797
-0.27806
-0.278045
-0.277872
-0.277456
-0.276852
-0.275237
-0.275055
-0.267965
-0.277663
-0.278244
-0.278296
-0.27821
-0.278073
-0.277948
-0.277874
-0.277861
-0.277901
-0.277974
-0.278056
-0.278115
-0.278116
-0.278015
-0.277764
-0.277223
-0.276656
-0.274527
-0.275006
-0.266449
-0.279475
-0.279868
-0.279755
-0.279482
-0.279148
-0.278829
-0.27857
-0.278386
-0.27827
-0.278203
-0.278158
-0.278103
-0.277996
-0.277788
-0.27744
-0.276722
-0.276215
-0.273464
-0.274607
-0.264907
-0.281346
-0.281558
-0.281265
-0.280782
-0.280226
-0.279685
-0.279215
-0.278836
-0.278542
-0.278316
-0.278127
-0.277938
-0.277703
-0.277364
-0.276897
-0.275954
-0.275469
-0.272126
-0.273633
-0.263491
-0.283292
-0.283324
-0.282834
-0.282116
-0.281313
-0.280525
-0.279819
-0.279222
-0.278732
-0.278327
-0.277975
-0.277635
-0.277252
-0.276751
-0.276127
-0.274934
-0.274326
-0.270596
-0.271901
-0.262156
-0.285336
-0.285188
-0.284477
-0.283504
-0.282426
-0.281366
-0.280402
-0.279568
-0.278861
-0.278262
-0.277731
-0.277217
-0.276655
-0.275956
-0.27511
-0.273658
-0.2727
-0.268862
-0.269377
-0.260639
-0.287513
-0.28717
-0.286221
-0.284966
-0.283588
-0.282233
-0.280992
-0.279904
-0.278965
-0.278155
-0.277423
-0.276706
-0.275925
-0.274974
-0.273812
-0.272072
-0.270539
-0.266775
-0.266158
-0.258608
-0.289867
-0.289306
-0.288098
-0.286531
-0.28483
-0.283161
-0.281625
-0.280264
-0.279083
-0.278041
-0.277081
-0.276119
-0.275055
-0.273775
-0.272188
-0.270077
-0.267815
-0.264118
-0.262298
-0.255806
-0.292448
-0.291635
-0.290138
-0.288235
-0.286189
-0.284189
-0.282344
-0.280701
-0.279254
-0.277955
-0.276724
-0.275456
-0.274025
-0.27231
-0.270187
-0.267574
-0.264509
-0.26071
-0.257665
-0.252098
-0.295317
-0.294196
-0.292383
-0.290117
-0.287707
-0.28536
-0.283194
-0.281252
-0.279517
-0.277921
-0.276359
-0.274698
-0.272795
-0.270524
-0.267762
-0.264513
-0.26066
-0.256515
-0.252116
-0.247408
-0.298521
-0.297043
-0.294874
-0.292219
-0.289426
-0.286719
-0.284217
-0.281956
-0.279898
-0.277948
-0.27597
-0.27381
-0.271314
-0.268369
-0.264883
-0.26091
-0.256352
-0.25167
-0.246176
-0.241614
-0.302122
-0.30022
-0.297658
-0.294587
-0.291391
-0.28831
-0.285456
-0.282844
-0.28041
-0.278026
-0.275526
-0.272743
-0.269533
-0.265818
-0.261554
-0.256839
-0.25165
-0.246315
-0.240485
-0.235281
-0.306179
-0.303773
-0.300777
-0.297264
-0.293648
-0.290175
-0.286941
-0.283934
-0.28105
-0.278127
-0.27498
-0.271446
-0.267418
-0.262868
-0.257815
-0.252397
-0.246619
-0.240807
-0.23465
-0.229036
-0.310745
-0.307747
-0.304277
-0.300295
-0.296238
-0.292351
-0.288699
-0.285228
-0.281795
-0.278206
-0.274276
-0.269876
-0.264952
-0.259544
-0.253728
-0.247664
-0.241389
-0.235181
-0.228777
-0.223033
-0.315869
-0.312185
-0.308201
-0.303724
-0.299202
-0.294866
-0.290737
-0.286712
-0.282603
-0.278206
-0.273362
-0.267999
-0.26214
-0.255884
-0.249355
-0.242717
-0.236014
-0.229488
-0.222902
-0.217026
-0.321593
-0.317126
-0.31259
-0.30759
-0.302573
-0.29774
-0.293053
-0.288351
-0.283418
-0.278064
-0.272187
-0.265798
-0.258996
-0.251931
-0.244749
-0.237602
-0.230533
-0.223737
-0.216985
-0.211006
-0.32795
-0.322606
-0.317484
-0.311931
-0.306379
-0.300979
-0.295621
-0.290091
-0.284168
-0.277713
-0.270712
-0.263267
-0.255543
-0.24772
-0.239945
-0.232346
-0.224954
-0.217915
-0.211016
-0.204919
-0.334965
-0.328654
-0.322914
-0.316778
-0.310635
-0.30457
-0.298394
-0.291858
-0.284773
-0.277091
-0.268907
-0.260407
-0.251801
-0.243275
-0.234963
-0.226956
-0.21927
-0.212007
-0.204967
-0.198745
-0.342651
-0.335291
-0.328907
-0.322149
-0.315336
-0.308474
-0.3013
-0.293561
-0.28515
-0.276144
-0.266749
-0.257218
-0.247781
-0.238608
-0.229803
-0.221422
-0.213465
-0.205989
-0.198814
-0.192463
-0.351004
-0.342527
-0.335475
-0.328044
-0.320456
-0.312628
-0.304242
-0.295095
-0.285216
-0.274822
-0.26422
-0.253701
-0.243486
-0.233714
-0.224454
-0.215726
-0.207514
-0.199835
-0.192534
-0.186053
-0.360005
-0.350356
-0.342615
-0.334442
-0.325937
-0.316932
-0.307098
-0.296351
-0.284893
-0.273086
-0.261304
-0.249847
-0.238906
-0.228579
-0.218895
-0.209844
-0.201392
-0.193522
-0.186105
-0.179497
-0.369607
-0.358753
-0.350295
-0.341289
-0.331686
-0.321258
-0.309734
-0.297219
-0.284112
-0.270895
-0.25798
-0.24564
-0.234023
-0.223179
-0.2131
-0.203747
-0.19507
-0.187023
-0.179503
-0.172776
-0.379741
-0.367665
-0.358457
-0.348495
-0.337573
-0.325448
-0.312004
-0.297593
-0.282807
-0.268214
-0.25422
-0.241055
-0.228809
-0.217485
-0.207039
-0.197407
-0.188522
-0.180316
-0.172707
-0.16587
-0.390305
-0.377012
-0.367006
-0.355932
-0.343428
-0.329325
-0.313764
-0.297374
-0.280918
-0.265002
-0.249994
-0.23606
-0.22323
-0.211462
-0.200678
-0.190792
-0.18172
-0.173377
-0.165697
-0.158764
-0.401164
-0.386676
-0.375809
-0.363428
-0.349051
-0.332703
-0.31487
-0.29647
-0.278386
-0.261215
-0.245261
-0.230616
-0.21725
-0.205076
-0.193985
-0.183873
-0.174638
-0.166184
-0.158453
-0.151441
-0.412145
-0.396506
-0.384689
-0.37077
-0.354217
-0.335389
-0.31519
-0.294794
-0.27515
-0.256806
-0.239979
-0.224683
-0.210829
-0.198289
-0.186928
-0.176621
-0.167252
-0.158716
-0.150956
-0.143887
-0.42304
-0.406308
-0.39343
-0.377711
-0.358688
-0.3372
-0.314597
-0.292263
-0.271151
-0.251724
-0.234102
-0.218218
-0.203927
-0.191066
-0.179475
-0.169009
-0.159539
-0.150953
-0.143186
-0.136086
-0.433607
-0.415854
-0.401778
-0.383979
-0.362223
-0.337959
-0.312976
-0.288796
-0.266326
-0.245915
-0.227579
-0.211175
-0.196505
-0.183373
-0.171597
-0.161014
-0.151479
-0.142878
-0.135129
-0.128028
-0.443572
-0.424882
-0.409446
-0.389283
-0.364586
-0.337502
-0.310217
-0.284318
-0.260614
-0.239327
-0.220364
-0.203512
-0.188526
-0.175179
-0.163267
-0.152611
-0.143055
-0.134476
-0.126772
-0.119705
-0.452636
-0.433099
-0.416122
-0.393334
-0.365557
-0.335682
-0.306221
-0.278755
-0.253956
-0.231905
-0.21241
-0.195189
-0.179956
-0.166454
-0.154461
-0.143783
-0.134251
-0.125737
-0.118111
-0.111126
-0.460479
-0.440191
-0.421481
-0.395848
-0.364931
-0.332365
-0.300899
-0.272038
-0.246292
-0.223601
-0.203674
-0.186169
-0.170763
-0.157174
-0.145159
-0.134512
-0.125053
-0.11665
-0.109149
-0.102308
-0.466773
-0.44583
-0.425198
-0.396558
-0.362528
-0.327434
-0.294168
-0.264104
-0.23757
-0.214368
-0.194116
-0.17642
-0.160922
-0.147315
-0.135342
-0.124781
-0.115445
-0.1072
-0.0998772
-0.0932523
-0.471187
-0.449685
-0.426959
-0.395226
-0.358191
-0.320787
-0.285958
-0.254897
-0.227743
-0.204166
-0.183705
-0.165916
-0.150412
-0.136864
-0.124998
-0.114581
-0.105417
-0.0973721
-0.090268
-0.0839082
-0.4734
-0.45143
-0.426472
-0.391641
-0.351788
-0.312343
-0.276209
-0.244368
-0.216771
-0.192963
-0.172414
-0.154637
-0.139217
-0.125808
-0.114119
-0.103905
-0.0949668
-0.0871653
-0.080289
-0.0741425
-0.473108
-0.450759
-0.42348
-0.38563
-0.343216
-0.302036
-0.264875
-0.232482
-0.204623
-0.180736
-0.160226
-0.14257
-0.127329
-0.114141
-0.102701
-0.0927524
-0.0840989
-0.0765997
-0.069953
-0.0638927
-0.470034
-0.447389
-0.417763
-0.377056
-0.332398
-0.28982
-0.251922
-0.219211
-0.191279
-0.167467
-0.147127
-0.129706
-0.114744
-0.101863
-0.0907504
-0.0811322
-0.0728196
-0.0656849
-0.0592881
-0.0534692
-0.463935
-0.441076
-0.409148
-0.365822
-0.319287
-0.275669
-0.237333
-0.204541
-0.176728
-0.15315
-0.133117
-0.116048
-0.10147
-0.0889826
-0.0782818
-0.0690643
-0.061164
-0.0543951
-0.0482928
-0.0429145
-0.454611
-0.431623
-0.397509
-0.35187
-0.30386
-0.259576
-0.221104
-0.18847
-0.160967
-0.137788
-0.118207
-0.10161
-0.08753
-0.0755282
-0.0652976
-0.056556
-0.0491242
-0.0427667
-0.037019
-0.0321595
-0.441907
-0.418886
-0.382761
-0.335182
-0.286124
-0.241552
-0.203243
-0.171003
-0.14402
-0.121404
-0.102431
-0.0864251
-0.0729242
-0.0615022
-0.0518255
-0.0436265
-0.0367185
-0.0308255
-0.0254847
-0.021185
-0.425721
-0.402775
-0.364869
-0.315769
-0.266113
-0.221627
-0.183773
-0.152174
-0.125937
-0.104049
-0.0857889
-0.0705018
-0.057689
-0.046933
-0.0378909
-0.0303013
-0.023973
-0.0185952
-0.0137062
-0.0100025
-0.406001
-0.383252
-0.343841
-0.293682
-0.243886
-0.199854
-0.162753
-0.132078
-0.10672
-0.0857304
-0.0683307
-0.0538775
-0.0418583
-0.0318554
-0.0235253
-0.0166112
-0.0109183
-0.00610171
-0.00170534
0.00136415
-0.382752
-0.360336
-0.319743
-0.269016
-0.219518
-0.17631
-0.140286
-0.110704
-0.086437
-0.0665024
-0.0501032
-0.0365985
-0.0254734
-0.0163095
-0.00876608
-0.00259243
0.00241107
0.0066223
0.0104854
0.0128836
-0.356029
-0.334102
-0.292711
-0.241917
-0.193079
-0.151084
-0.116402
-0.0881458
-0.0651556
-0.0464289
-0.0311627
-0.0187181
-0.00858272
-0.000340382
0.00634434
0.0117149
0.0159769
0.0195386
0.0228251
0.0245164
-0.325938
-0.304682
-0.262936
-0.212502
-0.164663
-0.124266
-0.0912072
-0.0644952
-0.0429565
-0.0255835
-0.0115748
-0.000296353
0.00875862
0.0160011
0.0217587
0.0262669
0.0297386
0.0326078
0.0352714
0.0362191
-0.292643
-0.272276
-0.230513
-0.180678
-0.134616
-0.0960256
-0.0648214
-0.0398547
-0.0199312
-0.00404866
0.00858644
0.0185995
0.0264893
0.0326585
0.0374241
0.0410146
0.0436538
0.0457942
0.0477899
0.047963
-0.256359
-0.237179
-0.195266
-0.147006
-0.102976
-0.066509
-0.0373784
-0.0143387
0.00381853
0.0180843
0.0292389
0.0378957
0.0445423
0.0495695
0.0532809
0.0559014
0.0576733
0.0590576
0.0603437
0.0597255
-0.217293
-0.19963
-0.157559
-0.111612
-0.0699513
-0.0358795
-0.00902312
0.0119263
0.028181
0.0407159
0.0502939
0.0575129
0.0628463
0.0666681
0.0692659
0.0708673
0.0717399
0.0723284
0.0728175
0.0713463
-0.175666
-0.159271
-0.118519
-0.0747445
-0.0357473
-0.00431322
0.0200894
0.0388039
0.0530356
0.063739
0.0716564
0.077367
0.0813263
0.0838876
0.0853215
0.0858657
0.0858059
0.0854949
0.0849211
0.0823322
-0.13187
-0.116934
-0.077997
-0.0366687
-0.000585312
0.0280036
0.0497947
0.0661488
0.0782539
0.0870399
0.0932253
0.0973685
0.0999037
0.101161
0.1014
0.100875
0.0998566
0.0984645
0.0963543
0.0922605
-0.0863405
-0.0728842
-0.0361781
0.00235581
0.0353012
0.060873
0.0799198
0.093808
0.103701
0.110499
0.114894
0.117423
0.118495
0.118419
0.117452
0.11587
0.113875
0.111245
0.107379
0.102167
-0.0393452
-0.0275529
0.0066375
0.042062
0.071672
0.0940875
0.110284
0.121622
0.129235
0.13399
0.136553
0.137431
0.137011
0.135584
0.13341
0.130768
0.127756
0.123848
0.118614
0.115258
0.00872632
0.0186687
0.05011
0.0821681
0.108281
0.127433
0.140699
0.149426
0.154711
0.157386
0.158086
0.157292
0.155364
0.15258
0.149194
0.14546
0.141357
0.136308
0.130455
0.127877
0.0574599
0.0653987
0.0938885
0.122382
0.144877
0.160691
0.170975
0.177053
0.17998
0.180555
0.179377
0.1769
0.173461
0.169321
0.164727
0.159888
0.154712
0.14871
0.142392
0.139595
0.106437
0.11225
0.13762
0.162406
0.181204
0.19364
0.200917
0.20433
0.204893
0.203362
0.200307
0.19615
0.191206
0.18572
0.179919
0.173974
0.167768
0.160924
0.154103
0.150725
0.155237
0.158833
0.180955
0.201943
0.217008
0.226058
0.230332
0.231088
0.229297
0.225675
0.220757
0.214937
0.208506
0.201691
0.194696
0.187661
0.180467
0.172816
0.165409
0.161299
0.203437
0.204756
0.223546
0.240696
0.252033
0.257723
0.259024
0.257156
0.253042
0.24736
0.240609
0.233155
0.225265
0.217145
0.208979
0.200882
0.192737
0.1843
0.176264
0.17136
0.250623
0.249635
0.265054
0.278374
0.28603
0.288418
0.286805
0.282367
0.275981
0.268287
0.259747
0.2507
0.241389
0.232
0.222695
0.213569
0.204506
0.195301
0.186621
0.180899
0.296387
0.293093
0.305149
0.314696
0.318755
0.31793
0.313486
0.306556
0.297969
0.288326
0.278057
0.267471
0.256789
0.246175
0.235772
0.225654
0.215711
0.205764
0.196444
0.189896
0.340332
0.334766
0.343514
0.349387
0.349972
0.346053
0.338889
0.329565
0.318866
0.307355
0.295429
0.283371
0.271376
0.259592
0.248139
0.237075
0.226292
0.215638
0.205693
0.198324
0.382081
0.374304
0.379843
0.382186
0.379455
0.372591
0.36284
0.351241
0.338538
0.325255
0.311759
0.298305
0.285068
0.272176
0.25973
0.247771
0.236196
0.224874
0.214329
0.206156
0.421273
0.411377
0.413851
0.412848
0.40699
0.397357
0.385176
0.371442
0.356858
0.341913
0.326945
0.312185
0.297786
0.283857
0.270481
0.257686
0.245372
0.23343
0.222315
0.213365
0.45757
0.445678
0.445268
0.441141
0.432377
0.420177
0.405744
0.390033
0.373708
0.357225
0.340896
0.324928
0.309455
0.294569
0.280334
0.266766
0.253773
0.241261
0.229614
0.219925
0.490663
0.47692
0.473847
0.466853
0.455433
0.440889
0.424401
0.406888
0.388976
0.371094
0.353525
0.336458
0.320008
0.304251
0.289235
0.274965
0.261356
0.248329
0.236193
0.225813
0.520265
0.504845
0.499365
0.489791
0.475989
0.459346
0.44102
0.421894
0.402564
0.38343
0.364754
0.346705
0.329383
0.312848
0.297135
0.282238
0.268082
0.254597
0.24202
0.231008
0.546125
0.529222
0.52162
0.509781
0.493895
0.475417
0.455485
0.434951
0.414382
0.394155
0.374513
0.355607
0.337524
0.320311
0.30399
0.288547
0.273916
0.260034
0.247068
0.235492
0.56802
0.54985
0.540438
0.526674
0.50902
0.488988
0.467696
0.445969
0.424352
0.4032
0.382741
0.36311
0.344384
0.326597
0.309762
0.293858
0.278825
0.26461
0.251312
0.23925
0.585764
0.56656
0.555672
0.540343
0.521255
0.499963
0.477569
0.454875
0.432408
0.410508
0.389386
0.369169
0.349921
0.331671
0.314418
0.298141
0.282785
0.2683
0.254733
0.242271
0.599207
0.579214
0.567203
0.550686
0.530511
0.508263
0.485034
0.461608
0.438497
0.41603
0.394407
0.373746
0.354104
0.335501
0.317934
0.301374
0.285774
0.271086
0.257313
0.244544
0.608232
0.587708
0.574941
0.557624
0.536719
0.51383
0.49004
0.466122
0.44258
0.419731
0.397772
0.376812
0.356906
0.338068
0.320289
0.303539
0.287776
0.272951
0.25904
0.246063
0.444628
0.421588
0.39946
0.37835
0.358311
0.339355
0.321469
0.304625
0.28878
0.273887
0.259905
0.246824
-0.272442
-0.27256
-0.272787
-0.273111
-0.273531
-0.274091
-0.274865
-0.275288
-0.273577
-0.275477
-0.274001
-0.275569
-0.274383
-0.275394
-0.274665
-0.274779
-0.274696
-0.272729
-0.273597
-0.27423
-0.272218
-0.271824
-0.273008
-0.271208
-0.27013
-0.269438
-0.270859
-0.269515
-0.26867
-0.266392
-0.267731
-0.267019
-0.266564
-0.262635
-0.263733
-0.263735
-0.263713
-0.263575
-0.258165
-0.259164
-0.259807
-0.260132
-0.260257
-0.253302
-0.254398
-0.255363
-0.255888
-0.256327
-0.256691
-0.248545
-0.249712
-0.250392
-0.250853
-0.251489
-0.252084
-0.243094
-0.24569
-0.246225
-0.246717
-0.247503
-0.248265
-0.248821
-0.237194
-0.240695
-0.241243
-0.241659
-0.242532
-0.243467
-0.244195
-0.231297
-0.235343
-0.235965
-0.236362
-0.237327
-0.238426
-0.239315
-0.225514
-0.22985
-0.230637
-0.231109
-0.232179
-0.233422
-0.234455
-0.219751
-0.224326
-0.225342
-0.225947
-0.227125
-0.228491
-0.229652
-0.214082
-0.218857
-0.22011
-0.220874
-0.222162
-0.223636
-0.224913
-0.208584
-0.213488
-0.214964
-0.215895
-0.217295
-0.218871
-0.220255
-0.203258
-0.208242
-0.20992
-0.21102
-0.212534
-0.214207
-0.21569
-0.198099
-0.203135
-0.204994
-0.206258
-0.207885
-0.209649
-0.211224
-0.193115
-0.198177
-0.200197
-0.201614
-0.20335
-0.205202
-0.206862
-0.188306
-0.193373
-0.195534
-0.197094
-0.198933
-0.200866
-0.202605
-0.183667
-0.188725
-0.19101
-0.1927
-0.194635
-0.196643
-0.198456
-0.179195
-0.184231
-0.186626
-0.188435
-0.190457
-0.192534
-0.194415
-0.174891
-0.179893
-0.182383
-0.1843
-0.186401
-0.188541
-0.190483
-0.17075
-0.175709
-0.178282
-0.180295
-0.182467
-0.184662
-0.186659
-0.166769
-0.171676
-0.17432
-0.176419
-0.178653
-0.180898
-0.182945
-0.162944
-0.167792
-0.170496
-0.17267
-0.174959
-0.177247
-0.179338
-0.15927
-0.164054
-0.166807
-0.169047
-0.171383
-0.173708
-0.175837
-0.155742
-0.160458
-0.16325
-0.165546
-0.167923
-0.170279
-0.172442
-0.152355
-0.156998
-0.159821
-0.162166
-0.164576
-0.166958
-0.16915
-0.149102
-0.153671
-0.156517
-0.158902
-0.16134
-0.163744
-0.165959
-0.145978
-0.150471
-0.153333
-0.155752
-0.158213
-0.160633
-0.162869
-0.142979
-0.147395
-0.150267
-0.152713
-0.155191
-0.157624
-0.159876
-0.140099
-0.144437
-0.147314
-0.149782
-0.152273
-0.154714
-0.156978
-0.137334
-0.141594
-0.14447
-0.146955
-0.149455
-0.151901
-0.154174
-0.134679
-0.13886
-0.141733
-0.144229
-0.146734
-0.149183
-0.151461
-0.13213
-0.136233
-0.139098
-0.141602
-0.144109
-0.146556
-0.148837
-0.129682
-0.133707
-0.136562
-0.13907
-0.141575
-0.144019
-0.146301
-0.127332
-0.13128
-0.134121
-0.13663
-0.139131
-0.141569
-0.143849
-0.125075
-0.128947
-0.131772
-0.13428
-0.136774
-0.139204
-0.14148
-0.122908
-0.126705
-0.129512
-0.132015
-0.134501
-0.136921
-0.139191
-0.120827
-0.124551
-0.127338
-0.129834
-0.132309
-0.134718
-0.13698
-0.118829
-0.12248
-0.125246
-0.127734
-0.130197
-0.132593
-0.134846
-0.116911
-0.120491
-0.123235
-0.125712
-0.128161
-0.130543
-0.132786
-0.115069
-0.118579
-0.1213
-0.123765
-0.1262
-0.128567
-0.130798
-0.1133
-0.116743
-0.119439
-0.121891
-0.124311
-0.126661
-0.12888
-0.111602
-0.114979
-0.11765
-0.120088
-0.122491
-0.124825
-0.12703
-0.109972
-0.113284
-0.115931
-0.118353
-0.120739
-0.123055
-0.125246
-0.108408
-0.111657
-0.114278
-0.116685
-0.119052
-0.121351
-0.123527
-0.106906
-0.110094
-0.112689
-0.11508
-0.117429
-0.119709
-0.121871
-0.105465
-0.108593
-0.111163
-0.113537
-0.115867
-0.118129
-0.120275
-0.104083
-0.107153
-0.109697
-0.112053
-0.114365
-0.116608
-0.118738
-0.102756
-0.105771
-0.10829
-0.110628
-0.112921
-0.115145
-0.11726
-0.101485
-0.104445
-0.106939
-0.109259
-0.111533
-0.113738
-0.115837
-0.100265
-0.103173
-0.105642
-0.107945
-0.1102
-0.112386
-0.114468
-0.0990965
-0.101954
-0.104398
-0.106683
-0.108919
-0.111087
-0.113153
-0.0979769
-0.100786
-0.103205
-0.105473
-0.10769
-0.10984
-0.11189
-0.0969047
-0.0996662
-0.102062
-0.104312
-0.106511
-0.108642
-0.110676
-0.0958785
-0.0985946
-0.100967
-0.1032
-0.105381
-0.107494
-0.109512
-0.0948967
-0.0975691
-0.0999192
-0.102135
-0.104297
-0.106393
-0.108396
-0.0939581
-0.0965884
-0.0989164
-0.101115
-0.10326
-0.105339
-0.107326
-0.0930614
-0.0956512
-0.0979577
-0.10014
-0.102268
-0.104329
-0.106302
-0.0922053
-0.0947563
-0.097042
-0.0992083
-0.101319
-0.103364
-0.105322
-0.0913887
-0.0939025
-0.096168
-0.0983186
-0.100413
-0.102442
-0.104386
-0.0906105
-0.0930887
-0.0953347
-0.0974701
-0.099549
-0.101562
-0.103492
-0.0898697
-0.0923139
-0.094541
-0.0966616
-0.0987253
-0.100723
-0.10264
-0.0891653
-0.0915771
-0.093786
-0.0958924
-0.0979412
-0.0999248
-0.101828
-0.0884965
-0.0908773
-0.0930688
-0.0951614
-0.0971959
-0.0991655
-0.101056
-0.0878623
-0.0902137
-0.0923885
-0.0944678
-0.0964886
-0.0984446
-0.100323
-0.087262
-0.0895854
-0.0917443
-0.0938108
-0.0958185
-0.0977616
-0.0996286
-0.0866948
-0.0889917
-0.0911354
-0.0931897
-0.0951848
-0.0971155
-0.0989713
-0.0861601
-0.0884319
-0.0905611
-0.0926038
-0.0945869
-0.0965058
-0.0983509
-0.085657
-0.0879052
-0.0900207
-0.0920524
-0.094024
-0.0959317
-0.0977668
-0.0851851
-0.0874111
-0.0895136
-0.0915348
-0.0934957
-0.0953927
-0.0972182
-0.0847437
-0.0869489
-0.0890392
-0.0910505
-0.0930012
-0.0948882
-0.0967046
-0.0843323
-0.0865181
-0.088597
-0.090599
-0.0925401
-0.0944178
-0.0962256
-0.0839504
-0.0861181
-0.0881864
-0.0901797
-0.0921119
-0.0939808
-0.0957806
-0.0835976
-0.0857486
-0.0878069
-0.0897923
-0.0917162
-0.0935768
-0.0953692
-0.0832734
-0.0854091
-0.0874583
-0.0894361
-0.0913524
-0.0932055
-0.094991
-0.0829774
-0.0850991
-0.0871399
-0.089111
-0.0910202
-0.0928664
-0.0946456
-0.0827093
-0.0848183
-0.0868516
-0.0888164
-0.0907193
-0.0925591
-0.0943327
-0.0824688
-0.0845664
-0.0865929
-0.0885522
-0.0904493
-0.0922835
-0.0940519
-0.0822555
-0.084343
-0.0863636
-0.088318
-0.09021
-0.0920392
-0.093803
-0.0820692
-0.084148
-0.0861634
-0.0881135
-0.0900011
-0.0918259
-0.0935857
-0.0819097
-0.0839811
-0.0859921
-0.0879386
-0.0898224
-0.0916435
-0.0933998
-0.0817768
-0.0838421
-0.0858495
-0.087793
-0.0896737
-0.0914917
-0.0932452
-0.0816703
-0.0837309
-0.0857355
-0.0876767
-0.0895549
-0.0913704
-0.0931217
-0.0815902
-0.0836475
-0.0856501
-0.0875896
-0.0894659
-0.0912796
-0.0930291
-0.0815358
-0.0835914
-0.0855931
-0.0875315
-0.0894066
-0.091219
-0.0929674
-0.081507
-0.0835627
-0.0855643
-0.0875024
-0.089377
-0.0911888
-0.0929366
-0.237196
-0.23116
-0.224262
-0.21825
-0.212519
-0.206847
-0.201413
-0.196217
-0.191191
-0.186339
-0.181674
-0.177185
-0.172868
-0.168721
-0.164743
-0.160925
-0.157262
-0.153747
-0.150374
-0.147137
-0.14403
-0.141048
-0.138185
-0.135438
-0.132802
-0.130271
-0.127842
-0.125511
-0.123273
-0.121126
-0.119064
-0.117085
-0.115185
-0.113361
-0.11161
-0.10993
-0.108316
-0.106768
-0.105282
-0.103855
-0.102487
-0.101174
-0.0999147
-0.0987072
-0.0975496
-0.0964402
-0.0953775
-0.0943598
-0.0933857
-0.0924538
-0.091563
-0.0907118
-0.0898993
-0.0891242
-0.0883855
-0.0876823
-0.0870137
-0.0863787
-0.0857766
-0.0852066
-0.084668
-0.0841601
-0.0836823
-0.0832339
-0.0828144
-0.0824234
-0.0820603
-0.0817247
-0.0814162
-0.0811344
-0.080879
-0.0806497
-0.0804461
-0.080268
-0.0801152
-0.0799875
-0.0798849
-0.079807
-0.0797526
-0.0797226
-0.230543
-0.224527
-0.217598
-0.21182
-0.206485
-0.201053
-0.195749
-0.1907
-0.185827
-0.181107
-0.176572
-0.172222
-0.168043
-0.164029
-0.16018
-0.156489
-0.152947
-0.14955
-0.146292
-0.143167
-0.140169
-0.137293
-0.134535
-0.131888
-0.129349
-0.126913
-0.124575
-0.122332
-0.120179
-0.118113
-0.116129
-0.114226
-0.112399
-0.110644
-0.108961
-0.107344
-0.105793
-0.104304
-0.102874
-0.101503
-0.100186
-0.0989235
-0.0977121
-0.0965504
-0.0954367
-0.0943692
-0.0933465
-0.092367
-0.0914294
-0.0905323
-0.0896745
-0.0888548
-0.0880722
-0.0873255
-0.0866138
-0.0859361
-0.0852915
-0.0846793
-0.0840986
-0.0835486
-0.0830288
-0.0825385
-0.0820769
-0.0816437
-0.0812382
-0.0808599
-0.0805085
-0.0801834
-0.0798843
-0.0796108
-0.0793625
-0.0791393
-0.0789407
-0.0787666
-0.0786167
-0.0784908
-0.0783888
-0.0783103
-0.078254
-0.078222
-0.224826
-0.219155
-0.212196
-0.206271
-0.200982
-0.195634
-0.190345
-0.18534
-0.180573
-0.175971
-0.171545
-0.167311
-0.163254
-0.159361
-0.15563
-0.152057
-0.148632
-0.14535
-0.142204
-0.139189
-0.136298
-0.133527
-0.130869
-0.128321
-0.125876
-0.123532
-0.121283
-0.119125
-0.117055
-0.115068
-0.113162
-0.111333
-0.109577
-0.107892
-0.106274
-0.104721
-0.103231
-0.101801
-0.100428
-0.0991103
-0.097846
-0.0966331
-0.0954696
-0.0943538
-0.093284
-0.0922585
-0.091276
-0.090335
-0.089434
-0.088572
-0.0877476
-0.0869598
-0.0862074
-0.0854895
-0.0848051
-0.0841533
-0.0835332
-0.0829441
-0.0823852
-0.0818558
-0.0813552
-0.0808828
-0.0804381
-0.0800204
-0.0796293
-0.0792642
-0.0789248
-0.0786107
-0.0783214
-0.0780566
-0.077816
-0.0775993
-0.0774062
-0.0772364
-0.0770898
-0.0769662
-0.0768654
-0.076787
-0.0767295
-0.0766966
-0.218864
-0.213208
-0.206239
-0.200268
-0.195089
-0.189958
-0.184833
-0.179943
-0.17531
-0.170853
-0.166556
-0.162444
-0.158511
-0.154744
-0.151134
-0.147677
-0.144368
-0.141199
-0.138162
-0.135253
-0.132466
-0.129796
-0.127236
-0.124783
-0.122431
-0.120176
-0.118013
-0.115939
-0.113949
-0.112041
-0.110209
-0.108452
-0.106766
-0.105147
-0.103594
-0.102103
-0.100672
-0.0992991
-0.097981
-0.0967162
-0.0955025
-0.094338
-0.0932209
-0.0921496
-0.0911223
-0.0901377
-0.0891941
-0.0882904
-0.0874251
-0.086597
-0.085805
-0.0850481
-0.0843251
-0.0836351
-0.0829773
-0.0823506
-0.0817543
-0.0811877
-0.08065
-0.0801406
-0.0796588
-0.0792039
-0.0787755
-0.0783731
-0.077996
-0.0776439
-0.0773164
-0.077013
-0.0767335
-0.0764773
-0.0762443
-0.0760342
-0.0758466
-0.0756814
-0.0755383
-0.0754172
-0.0753179
-0.07524
-0.075182
-0.0751485
-0.212848
-0.207356
-0.200568
-0.194628
-0.189476
-0.184458
-0.179442
-0.174622
-0.17007
-0.165725
-0.16155
-0.157553
-0.153737
-0.15009
-0.146599
-0.143259
-0.140064
-0.137007
-0.134081
-0.131279
-0.128597
-0.126028
-0.123567
-0.121209
-0.11895
-0.116784
-0.114708
-0.112717
-0.110808
-0.108977
-0.10722
-0.105535
-0.103918
-0.102366
-0.100877
-0.0994482
-0.0980768
-0.0967606
-0.0954975
-0.0942854
-0.0931223
-0.0920063
-0.0909359
-0.0899092
-0.0889247
-0.087981
-0.0870767
-0.0862104
-0.085381
-0.0845871
-0.0838278
-0.083102
-0.0824087
-0.081747
-0.0811159
-0.0805147
-0.0799426
-0.0793987
-0.0788826
-0.0783934
-0.0779307
-0.0774937
-0.077082
-0.0766951
-0.0763325
-0.0759937
-0.0756784
-0.0753862
-0.0751167
-0.0748696
-0.0746446
-0.0744414
-0.0742598
-0.0740995
-0.0739604
-0.0738422
-0.073745
-0.073668
-0.0736102
-0.0735765
-0.206728
-0.201313
-0.194667
-0.188763
-0.183631
-0.178724
-0.173867
-0.169184
-0.164754
-0.160544
-0.156508
-0.152642
-0.148952
-0.145428
-0.14206
-0.138839
-0.13576
-0.132816
-0.129999
-0.127305
-0.124726
-0.122258
-0.119894
-0.117631
-0.115463
-0.113385
-0.111395
-0.109486
-0.107657
-0.105902
-0.10422
-0.102605
-0.101057
-0.0995714
-0.0981459
-0.0967779
-0.0954652
-0.0942054
-0.0929964
-0.0918363
-0.0907231
-0.0896551
-0.0886306
-0.087648
-0.0867058
-0.0858025
-0.0849369
-0.0841077
-0.0833137
-0.0825537
-0.0818267
-0.0811317
-0.0804677
-0.0798339
-0.0792294
-0.0786534
-0.0781052
-0.0775841
-0.0770893
-0.0766203
-0.0761765
-0.0757574
-0.0753623
-0.074991
-0.0746428
-0.0743174
-0.0740144
-0.0737334
-0.0734741
-0.0732362
-0.0730194
-0.0728234
-0.072648
-0.072493
-0.0723581
-0.0722433
-0.0721484
-0.0720729
-0.0720156
-0.0719821
-0.2005
-0.195169
-0.18873
-0.18294
-0.177865
-0.173054
-0.168335
-0.163779
-0.159458
-0.15536
-0.151448
-0.147708
-0.144139
-0.140737
-0.137489
-0.134387
-0.131424
-0.128592
-0.125887
-0.123299
-0.120825
-0.118458
-0.116192
-0.114024
-0.111947
-0.109958
-0.108053
-0.106227
-0.104477
-0.102799
-0.10119
-0.0996472
-0.0981672
-0.0967474
-0.0953852
-0.0940781
-0.092824
-0.0916205
-0.0904656
-0.0893574
-0.0882942
-0.087274
-0.0862955
-0.0853569
-0.0844569
-0.0835941
-0.0827673
-0.0819751
-0.0812166
-0.0804905
-0.0797959
-0.0791318
-0.0784973
-0.0778915
-0.0773137
-0.0767631
-0.0762389
-0.0757406
-0.0752674
-0.0748187
-0.0743941
-0.073993
-0.0736148
-0.0732592
-0.0729257
-0.072614
-0.0723235
-0.072054
-0.0718052
-0.0715768
-0.0713685
-0.07118
-0.0710112
-0.0708617
-0.0707315
-0.0706204
-0.0705283
-0.0704547
-0.0703984
-0.0703655
-0.19417
-0.188907
-0.182662
-0.176995
-0.171981
-0.167259
-0.162676
-0.158266
-0.154079
-0.150112
-0.146336
-0.142732
-0.139295
-0.136019
-0.132896
-0.129915
-0.12707
-0.124353
-0.121758
-0.119279
-0.116909
-0.114643
-0.112475
-0.110401
-0.108416
-0.106515
-0.104695
-0.102951
-0.101279
-0.0996777
-0.0981422
-0.0966698
-0.0952578
-0.0939034
-0.0926041
-0.0913575
-0.0901615
-0.0890139
-0.0879127
-0.0868562
-0.0858424
-0.0848699
-0.0839369
-0.0830421
-0.0821841
-0.0813615
-0.0805732
-0.0798179
-0.0790946
-0.0784023
-0.0777399
-0.0771066
-0.0765014
-0.0759236
-0.0753724
-0.0748471
-0.074347
-0.0738714
-0.0734197
-0.0729915
-0.0725861
-0.072203
-0.0718419
-0.0715021
-0.0711834
-0.0708854
-0.0706076
-0.0703499
-0.0701118
-0.069893
-0.0696935
-0.0695128
-0.0693507
-0.0692072
-0.0690819
-0.0689749
-0.0688859
-0.0688146
-0.0687598
-0.0687277
-0.187728
-0.18253
-0.176491
-0.17098
-0.166063
-0.161446
-0.156999
-0.152736
-0.148686
-0.144848
-0.141202
-0.13773
-0.134422
-0.131273
-0.128273
-0.125414
-0.122687
-0.120085
-0.117602
-0.115231
-0.112966
-0.110801
-0.108732
-0.106753
-0.104859
-0.103046
-0.101311
-0.099649
-0.0980569
-0.0965313
-0.095069
-0.0936671
-0.0923229
-0.0910338
-0.0897973
-0.0886112
-0.0874732
-0.0863814
-0.0853338
-0.0843288
-0.0833645
-0.0824394
-0.081552
-0.0807009
-0.0798848
-0.0791024
-0.0783526
-0.0776342
-0.0769461
-0.0762875
-0.0756574
-0.0750548
-0.0744791
-0.0739293
-0.0734048
-0.0729048
-0.0724288
-0.0719761
-0.0715462
-0.0711384
-0.0707524
-0.0703875
-0.0700435
-0.0697198
-0.0694161
-0.069132
-0.0688672
-0.0686214
-0.0683942
-0.0681854
-0.0679948
-0.0678222
-0.0676673
-0.06753
-0.06741
-0.0673074
-0.067222
-0.0671532
-0.0671003
-0.0670693
-0.181165
-0.176036
-0.170203
-0.164857
-0.160051
-0.155546
-0.151236
-0.147123
-0.143219
-0.139522
-0.136014
-0.132681