/*--------------------------------*- C++ -*----------------------------------*\
  =========                 |
  \\      /  F ield         | OpenFOAM: The Open Source CFD Toolbox
   \\    /   O peration     | Website:  https://openfoam.org
    \\  /    A nd           | Version:  7
     \\/     M anipulation  |
\*---------------------------------------------------------------------------*/
FoamFile
{
    version     2.0;
    format      ascii;
    class       surfaceScalarField;
    location    "24.999";
    object      phi;
}
// * * * * * * * * * * * * * * * * * * * * * * * * * * * * * * * * * * * * * //

dimensions      [0 3 -1 0 0 0 0];

internalField   nonuniform List<scalar> 
22553
(
-0.000292716
5.32944e-05
-0.000348326
5.56139e-05
-0.000405945
5.76223e-05
-0.000465299
5.93578e-05
-0.000526114
6.08179e-05
-0.000588092
6.19821e-05
-0.000650928
6.28397e-05
-0.000714352
6.34265e-05
-0.000778222
6.38727e-05
-0.000842673
6.44537e-05
-0.000908248
6.55763e-05
-0.000976039
6.77911e-05
7.22081e-05
-0.00104825
-8.67826e-06
1.75229e-05
-2.95987e-05
4.22092e-05
-5.9743e-05
6.08056e-05
-9.68293e-05
7.48142e-05
-0.000139167
8.5435e-05
-0.000185536
9.36246e-05
-0.000235079
0.000100108
-0.000287192
0.000105408
-0.000341449
0.00010987
-0.000397514
0.000113688
-0.000455092
0.000116936
-0.00051388
0.000119606
-0.000573546
0.000121648
-0.000633729
0.000123023
-0.000694077
0.000123774
-0.000754325
0.000124121
-0.000814444
0.000124573
-0.000874807
0.00012594
-0.000936318
0.000129302
0.000136929
-0.00100104
-8.35446e-06
2.58774e-05
-2.85556e-05
6.24104e-05
-5.7687e-05
8.9937e-05
-9.35126e-05
0.00011064
-0.000134352
0.000126274
-0.000178972
0.000138245
-0.000226487
0.000147623
-0.000276258
0.00015518
-0.000327815
0.000161427
-0.00038078
0.000166652
-0.000434807
0.000170964
-0.00048954
0.000174339
-0.000544577
0.000176684
-0.000599458
0.000177903
-0.000653678
0.000177994
-0.00070674
0.000177183
-0.000758294
0.000176126
-0.000808373
0.000176019
-0.000857498
0.000178427
0.000186717
-0.000907286
-7.88755e-06
3.37649e-05
-2.70448e-05
8.15677e-05
-5.46978e-05
0.00011759
-8.86742e-05
0.000144616
-0.000127306
0.000164906
-0.00016934
0.00018028
-0.000213847
0.00019213
-0.000260134
0.000201466
-0.000307665
0.000208957
-0.000355991
0.000214979
-0.000404695
0.000219667
-0.000453336
0.00022298
-0.000501413
0.000224762
-0.000548333
0.000224823
-0.000593391
0.000223052
-0.000635781
0.000219574
-0.00067469
0.000215035
-0.000709637
0.000210966
-0.000740602
0.000209392
0.000214175
-0.000768061
-7.29903e-06
4.1064e-05
-2.51281e-05
9.93967e-05
-5.08849e-05
0.000143347
-8.24723e-05
0.000176203
-0.000118235
0.000200668
-0.00015689
0.000218935
-0.00019745
0.00023269
-0.000239144
0.000243161
-0.000281348
0.000251161
-0.000323514
0.000257145
-0.000365119
0.000261272
-0.000405609
0.000263471
-0.000444355
0.000263508
-0.000480602
0.00026107
-0.000513422
0.000255872
-0.000541669
0.00024782
-0.000563965
0.000237332
-0.000579125
0.000226126
-0.000586599
0.000216866
0.000211902
-0.000584325
-6.61591e-06
4.76799e-05
-2.28832e-05
0.000115664
-4.63863e-05
0.00016685
-7.51072e-05
0.000204924
-0.000107399
0.000232959
-0.000141938
0.000253474
-0.000177662
0.000268414
-0.000213701
0.0002792
-0.00024931
0.00028677
-0.000283811
0.000291645
-0.000316535
0.000293997
-0.000346777
0.000293713
-0.000373739
0.00029047
-0.000396477
0.000283807
-0.000413823
0.000273219
-0.000424304
0.000258301
-0.000425959
0.000238986
-0.000416556
0.000216722
-0.000395628
0.000195939
0.000172867
-0.000356594
-5.8693e-06
5.35492e-05
-2.04002e-05
0.000130195
-4.13625e-05
0.000187812
-6.68121e-05
0.000230374
-9.51019e-05
0.000261249
-0.000124855
0.000283227
-0.000154915
0.000298475
-0.000184286
0.00030857
-0.00021207
0.000314554
-0.000237416
0.000316991
-0.000259464
0.000316044
-0.000277297
0.000311546
-0.000289895
0.000303068
-0.000296072
0.000289985
-0.000294397
0.000271544
-0.000283091
0.000246995
-0.000259786
0.000215681
-0.000220501
0.000177437
-0.000164967
0.000140405
9.49676e-05
-8.70672e-05
-5.09275e-06
5.86419e-05
-1.77764e-05
0.000142879
-3.59872e-05
0.000206023
-5.78405e-05
0.000252227
-8.1675e-05
0.000285084
-0.000106044
0.000307596
-0.000129674
0.000322105
-0.000151414
0.00033031
-0.000170176
0.000333317
-0.000184886
0.0003317
-0.000194426
0.000325585
-0.0001976
0.000314719
-0.000193077
0.000298546
-0.000179346
0.000276254
-0.000154634
0.000246831
-0.000116805
0.000209166
-6.33803e-05
0.000162257
9.11504e-06
0.000104941
0.000108443
4.10765e-05
-3.25653e-05
0.000235976
-4.32029e-06
6.29622e-05
-1.51106e-05
0.000153669
-3.04372e-05
0.00022135
-4.845e-05
0.00027024
-6.74533e-05
0.000304087
-8.59083e-05
0.000326051
-0.0001024
0.000338597
-0.000115587
0.000343497
-0.000124145
0.000341875
-0.000126716
0.000334271
-0.000121853
0.000320722
-0.000107981
0.000300847
-8.33467e-05
0.000273912
-4.59827e-05
0.00023889
6.35108e-06
0.000194497
7.62763e-05
0.000139241
0.000166587
7.19463e-05
0.00028316
-1.1632e-05
0.000425541
-0.000101304
-0.000222528
0.000615504
-3.58435e-06
6.65465e-05
-1.24965e-05
0.000162581
-2.48799e-05
0.000233733
-3.88833e-05
0.000284243
-5.27486e-05
0.000317952
-6.4818e-05
0.000338121
-7.35013e-05
0.00034728
-7.72244e-05
0.00034722
-7.43716e-05
0.000339022
-6.32287e-05
0.000323128
-4.19297e-05
0.000299423
-8.40803e-06
0.000267325
3.96468e-05
0.000225857
0.000104818
0.000173719
0.000189991
0.000109324
0.000298489
3.07436e-05
0.000433168
-6.27332e-05
0.000601271
-0.000179735
0.000799086
-0.000299119
-0.00048173
0.00105829
-2.91346e-06
6.946e-05
-1.0016e-05
0.000169684
-1.94597e-05
0.000243177
-2.93459e-05
0.000294129
-3.78176e-05
0.000326424
-4.30613e-05
0.000343364
-4.32688e-05
0.000347487
-3.65792e-05
0.00034053
-2.10152e-05
0.000323458
5.5799e-06
0.000296533
4.56008e-05
0.000259403
0.000101728
0.000211198
0.00017697
0.000150615
0.00027468
7.60084e-05
0.000398518
-1.45135e-05
0.000552737
-0.000123476
0.00074021
-0.000250206
0.000969957
-0.000409482
0.00123358
-0.000562742
-0.000819336
0.00157119
-2.32997e-06
7.179e-05
-7.73119e-06
0.000175085
-1.42828e-05
0.000249728
-1.99816e-05
0.000299828
-2.28242e-05
0.000329267
-2.07926e-05
0.000341333
-1.18031e-05
0.000338498
6.3635e-06
0.000322364
3.61355e-05
0.000293686
8.02187e-05
0.00025245
0.000141657
0.000197965
0.000223876
0.000128978
0.000330708
4.37837e-05
0.00046638
-5.96635e-05
0.000635361
-0.000183495
0.000842773
-0.000330887
0.00109165
-0.000499084
0.00139197
-0.000709806
0.001731
-0.000901763
-0.0012421
0.00215376
-1.84774e-06
7.36377e-05
-5.67742e-06
0.000178915
-9.40272e-06
0.000253454
-1.08476e-05
0.000301273
-7.80101e-06
0.00032622
2.02371e-06
0.000331508
2.10637e-05
0.000319458
5.19905e-05
0.000291437
9.77945e-05
0.000247882
0.000161857
0.000188388
0.000247999
0.000111822
0.000360506
1.64708e-05
0.000504093
-9.98037e-05
0.000683835
-0.000239405
0.000904885
-0.000404545
0.00117259
-0.000598594
0.00149035
-0.000816845
0.00186675
-0.0010862
0.00228674
-0.00132176
-0.001749
0.00279363
-1.47018e-06
7.51079e-05
-3.85628e-06
0.000181301
-4.80655e-06
0.000254404
-1.88745e-06
0.000298354
7.38658e-06
0.000316946
2.56654e-05
0.000313229
5.58389e-05
0.000289284
0.000101149
0.000246127
0.000165282
0.000183749
0.000252426
0.000101244
0.000367286
-3.03847e-06
0.000515051
-0.000131294
0.000701235
-0.000285988
0.000931469
-0.000469639
0.00121116
-0.000684236
0.00154466
-0.000932097
0.00193541
-0.00120759
0.00238718
-0.00153797
0.00288605
-0.00182063
-0.00232586
0.00346292
-1.18884e-06
7.62967e-05
-2.23022e-06
0.000182342
-3.90246e-07
0.000252564
7.07394e-06
0.00029089
2.30686e-05
0.000300951
5.0694e-05
0.000285604
9.34201e-05
0.000246558
0.000155201
0.000184346
0.000240555
9.83954e-05
0.000354582
-1.27831e-05
0.000502905
-0.000151361
0.000691475
-0.000319864
0.000926265
-0.000520778
0.00121276
-0.000756135
0.00155564
-0.00102712
0.00195684
-0.00133329
0.00241828
-0.00166903
0.00293582
-0.00205552
0.00350057
-0.00238537
-0.00294368
0.00411839
-9.82928e-07
7.72797e-05
-7.15162e-07
0.000182074
3.98067e-06
0.000247868
1.63607e-05
0.00027851
3.97896e-05
0.000277522
7.7971e-05
0.000247423
0.000135104
0.000189425
0.000215996
0.000103454
0.000326111
-1.17196e-05
0.000471476
-0.000158149
0.000658462
-0.000338347
0.000893372
-0.000554774
0.00118185
-0.000809259
0.00152809
-0.00110237
0.00193433
-0.00143336
0.00239886
-0.00179782
0.00291952
-0.00218969
0.00348305
-0.00261905
0.00408824
-0.00299056
-0.00356352
0.00470808
-8.20496e-07
7.81002e-05
7.85294e-07
0.000180468
8.59656e-06
0.000240057
2.64347e-05
0.000260672
5.82984e-05
0.000245659
0.000108638
0.000197083
0.000182534
0.000115529
0.000285753
2.35071e-07
0.000424734
-0.0001507
0.000606243
-0.000339658
0.00083694
-0.000569044
0.00112262
-0.000840454
0.00146731
-0.00115395
0.00187232
-0.00150738
0.0023354
-0.00189644
0.00285034
-0.00231276
0.00340858
-0.00274793
0.00398997
-0.00320044
0.00459994
-0.00360053
-0.00414653
0.00518295
-6.59368e-07
7.87595e-05
2.42804e-06
0.000177381
1.3775e-05
0.00022871
3.78757e-05
0.000236571
7.9517e-05
0.000204017
0.000144052
0.000132548
0.000237557
2.20238e-05
0.000366825
-0.000129033
0.000539035
-0.00032291
0.00076126
-0.000561883
0.00103954
-0.000847322
0.00137781
-0.00117872
0.00177677
-0.0015529
0.00223311
-0.00196373
0.00273861
-0.00240194
0.00328215
-0.0028563
0.00384841
-0.0033142
0.00441613
-0.00376816
0.00499244
-0.00417684
-0.00466342
0.00550933
-4.48554e-07
7.92081e-05
4.4162e-06
0.000172516
1.99037e-05
0.000213222
5.1351e-05
0.000205124
0.000104478
0.000150891
0.00018567
5.13552e-05
0.000302056
-9.4362e-05
0.000461272
-0.000288249
0.000670845
-0.000532483
0.000937216
-0.000828253
0.00126444
-0.00117455
0.00165289
-0.00156717
0.00209818
-0.0019982
0.00259109
-0.00245664
0.00311744
-0.00292829
0.00366167
-0.00340053
0.00420457
-0.00385709
0.00472995
-0.00429354
0.00524157
-0.00468847
-0.00510045
0.0056786
-7.80573e-08
7.92861e-05
6.94456e-06
0.000165494
2.73967e-05
0.00019277
6.75649e-05
0.000164956
0.00013423
8.42255e-05
0.000234883
-4.92977e-05
0.000377602
-0.000237081
0.000570474
-0.000481122
0.000820518
-0.000782527
0.0011322
-0.00113994
0.00150589
-0.00154823
0.00193664
-0.00199792
0.00241392
-0.00247548
0.00292249
-0.00296521
0.00344409
-0.00344988
0.00396089
-0.00391733
0.00445512
-0.00435132
0.00491792
-0.00475634
0.00534575
-0.0051163
-0.00546508
0.00571038
4.32251e-07
7.88539e-05
1.02053e-05
0.000155721
3.6666e-05
0.000166309
8.71978e-05
0.000114424
0.000169733
1.69029e-06
0.000292823
-0.000172388
0.000465177
-0.000409435
0.000694589
-0.000710533
0.000986285
-0.00107422
0.00134108
-0.00149473
0.00175392
-0.00196108
0.00221351
-0.0024575
0.00270331
-0.00296528
0.00320387
-0.00346578
0.00369607
-0.00394208
0.00416351
-0.00438476
0.00459523
-0.00478304
0.00498852
-0.00514963
0.00533587
-0.00546365
-0.00577624
0.00564703
1.17485e-06
7.7679e-05
1.43887e-05
0.000142507
4.8089e-05
0.000132609
0.000110841
5.16722e-05
0.000211736
-9.92053e-05
0.000360161
-0.000320813
0.000564846
-0.00061412
0.000832137
-0.000977824
0.00116385
-0.00140593
0.00155541
-0.0018863
0.00199525
-0.00240092
0.00246589
-0.00292814
0.00294671
-0.00344609
0.0034174
-0.00393648
0.00386161
-0.00438629
0.00426826
-0.00479141
0.00463461
-0.00514939
0.00496017
-0.00547519
0.00525345
-0.00575693
-0.00604762
0.00552483
2.20391e-06
7.54751e-05
1.96586e-05
0.000125052
6.19786e-05
9.02891e-05
0.000138939
-2.52885e-05
0.000260664
-0.00022093
0.000436921
-0.00049707
0.000675486
-0.000852685
0.000979746
-0.00128208
0.00134637
-0.00177255
0.00176417
-0.0023041
0.00221515
-0.00285189
0.00267749
-0.00339048
0.00312975
-0.00389836
0.00355458
-0.00436131
0.00394134
-0.00477305
0.0042862
-0.00513627
0.00459231
-0.0054555
0.00486505
-0.00574792
0.00511539
-0.00600727
-0.00628081
0.00534858
3.55581e-06
7.19193e-05
2.61415e-05
0.000102466
7.85577e-05
3.78729e-05
0.000171735
-0.000118466
0.000316527
-0.000365722
0.000522329
-0.000702873
0.000794631
-0.00112499
0.00113215
-0.00161961
0.00152501
-0.00216541
0.00195526
-0.00273435
0.00240008
-0.00329671
0.00283653
-0.00382693
0.00324598
-0.00430781
0.0036169
-0.00473223
0.00394562
-0.00510177
0.00423466
-0.00542531
0.00449158
-0.00571242
0.0047241
-0.00598045
0.00494253
-0.0062257
-0.00649065
0.00515237
5.25913e-06
6.66602e-05
3.39219e-05
7.38037e-05
9.79412e-05
-2.61464e-05
0.000209228
-0.000229753
0.000378841
-0.000535334
0.000614719
-0.000938751
0.000918464
-0.00142873
0.00128257
-0.00198371
0.00169006
-0.0025729
0.00211749
-0.00316178
0.00254022
-0.00371944
0.00293771
-0.00422442
0.00329697
-0.00466707
0.0036134
-0.00504866
0.00388957
-0.00537793
0.00413237
-0.00566812
0.00435123
-0.00593127
0.00455392
-0.00618314
0.00474967
-0.00642146
-0.00668252
0.00494153
7.33294e-06
5.93272e-05
4.30414e-05
3.80953e-05
0.000120126
-0.000103231
0.000251149
-0.000360776
0.000446581
-0.000730766
0.000711518
-0.00120369
0.00104202
-0.00175924
0.00142339
-0.00236508
0.00183232
-0.00298183
0.00224248
-0.00357194
0.00263085
-0.00410781
0.00298215
-0.00457572
0.00329024
-0.00497516
0.00355681
-0.00531523
0.0037888
-0.00560992
0.00399519
-0.00587451
0.00418528
-0.00612137
0.00436583
-0.00636369
0.00454415
-0.00659977
-0.00685947
0.0047211
9.78746e-06
4.95398e-05
5.34975e-05
-5.61475e-06
0.00014498
-0.000194713
0.000296934
-0.00051273
0.000518163
-0.000951994
0.00080934
-0.00149487
0.00115964
-0.00210953
0.00154725
-0.00275269
0.00194461
-0.00337919
0.0023258
-0.00395314
0.0026724
-0.00445441
0.00297579
-0.00487911
0.00323628
-0.00523564
0.00346018
-0.00553914
0.00365669
-0.00580642
0.00383499
-0.00605281
0.00400319
-0.00628957
0.00416652
-0.00652702
0.00433039
-0.00676364
-0.0070235
0.00449441
1.26247e-05
3.6915e-05
6.52425e-05
-5.82325e-05
0.000172239
-0.00030171
0.000345713
-0.000686204
0.000591469
-0.00119775
0.000904204
-0.0018076
0.00126557
-0.0024709
0.00164798
-0.0031351
0.00202262
-0.00375383
0.00236706
-0.00429758
0.00266922
-0.00475657
0.00292709
-0.00513699
0.00314598
-0.00545453
0.00333488
-0.00572804
0.00350345
-0.00597499
0.00365997
-0.00620933
0.00381087
-0.00644048
0.0039599
-0.00667604
0.00411095
-0.00691469
-0.00717526
0.00426271
1.58386e-05
2.10764e-05
7.81803e-05
-0.000120574
0.000201492
-0.000425021
0.000396307
-0.000881019
0.000663942
-0.00146539
0.000991899
-0.00213556
0.00135473
-0.00283373
0.00172148
-0.00350185
0.0020652
-0.00409755
0.00236915
-0.00460153
0.00262793
-0.00501534
0.00284505
-0.00535411
0.00302903
-0.00563852
0.00318981
-0.00588882
0.00333633
-0.00612151
0.00347542
-0.00634842
0.00361188
-0.00657693
0.00374821
-0.00681237
0.00388714
-0.00705362
-0.00731506
0.00402693
1.94134e-05
1.66295e-06
9.21621e-05
-0.000193323
0.000232179
-0.000565038
0.000447254
-0.00109609
0.000732748
-0.00175088
0.00106843
-0.00247124
0.00142328
-0.00318857
0.00176594
-0.00384451
0.0020739
-0.00440551
0.00233699
-0.00486462
0.00255586
-0.00523421
0.00273794
-0.00553618
0.00289327
-0.00579385
0.00303147
-0.00602702
0.00316018
-0.00625022
0.00328466
-0.00647291
0.00340831
-0.00670058
0.00353274
-0.00693681
0.00365982
-0.0071807
-0.00744291
0.00378768
2.33215e-05
-2.16585e-05
0.000106981
-0.000276982
0.000263589
-0.000721646
0.000496869
-0.00132937
0.000795022
-0.00204903
0.00113048
-0.0028067
0.00146902
-0.00352711
0.00178174
-0.00415723
0.00205211
-0.00467589
0.00227641
-0.00508892
0.00246001
-0.00541781
0.00261265
-0.00568882
0.00274458
-0.00592578
0.00286437
-0.00614681
0.00297812
-0.00636397
0.0030897
-0.00658449
0.00320142
-0.0068123
0.00331429
-0.00704967
0.00342955
-0.00729596
-0.00755877
0.00354541
2.75235e-05
-4.9182e-05
0.000122369
-0.000371828
0.000294877
-0.000894154
0.000543344
-0.00157784
0.000848144
-0.00235383
0.00117572
-0.00313428
0.00149141
-0.0038428
0.00177091
-0.00443673
0.00200423
-0.00490921
0.0021932
-0.00527788
0.00234643
-0.00557104
0.00247458
-0.00581698
0.00258724
-0.00603844
0.00269154
-0.00625111
0.00279214
-0.00646458
0.00289179
-0.00668414
0.002992
-0.00691251
0.00309339
-0.00715106
0.00319679
-0.00739936
-0.00766252
0.00330055
3.19624e-05
-8.11444e-05
0.000137996
-0.000477861
0.000325088
-0.00108125
0.000584887
-0.00183764
0.000889999
-0.00265895
0.00120297
-0.00344725
0.00149128
-0.00413111
0.00173653
-0.00468199
0.00193493
-0.00510761
0.00209262
-0.00543557
0.00222005
-0.00569847
0.00232778
-0.0059247
0.00242419
-0.00613484
0.00251496
-0.00634188
0.00260352
-0.00655314
0.00269174
-0.00677236
0.00278061
-0.00700138
0.00287049
-0.00724095
0.00296193
-0.0074908
-0.00775409
0.00305349
3.6565e-05
-0.000117709
0.000153478
-0.000594774
0.000353217
-0.00128099
0.000619877
-0.0021043
0.000919155
-0.00295823
0.00121215
-0.00374024
0.0014705
-0.00438946
0.00168216
-0.00489365
0.00184866
-0.00527411
0.00197913
-0.00556604
0.00208472
-0.00580406
0.00217516
-0.00601514
0.00225745
-0.00621713
0.00233594
-0.00642038
0.00241307
-0.00663027
0.0024901
-0.00684939
0.00256766
-0.00707893
0.00264597
-0.00731926
0.00272536
-0.00757018
-0.00783335
0.00280462
4.1242e-05
-0.000158951
0.000168389
-0.000721921
0.000378269
-0.00149086
0.000647003
-0.00237303
0.000934925
-0.00324615
0.00120408
-0.0040094
0.00143157
-0.00461694
0.0016114
-0.00507348
0.00174938
-0.00541209
0.00185636
-0.00567302
0.00194331
-0.00589101
0.00201879
-0.00609062
0.0020884
-0.00628674
0.00215537
-0.00648735
0.00222139
-0.00669629
0.00228731
-0.00691531
0.00235353
-0.00714515
0.00242019
-0.00738592
0.00248745
-0.00763744
-0.00790024
0.00255433
4.58903e-05
-0.000204842
0.000182283
-0.000858314
0.000399335
-0.00170792
0.000665361
-0.00263906
0.000937323
-0.00351811
0.00118024
-0.00425232
0.00137721
-0.00481391
0.00152765
-0.00522393
0.00164042
-0.00552485
0.00172712
-0.00575971
0.00179794
-0.00596184
0.00186011
-0.00615279
0.00191797
-0.0063446
0.00197385
-0.00654324
0.00202892
-0.00675136
0.00208374
-0.00697012
0.00213857
-0.00719997
0.00219349
-0.00744084
0.00224857
-0.00769252
-0.00795467
0.002303
5.03959e-05
-0.000255238
0.000194715
-0.00100263
0.000415658
-0.00192886
0.000674492
-0.00289789
0.000926947
-0.00377057
0.00114247
-0.00446785
0.00131017
-0.0049816
0.00143391
-0.00534767
0.00152452
-0.00561547
0.00159357
-0.00582877
0.00165015
-0.00601841
0.00170013
-0.00620277
0.00174682
-0.00639129
0.00179185
-0.00658827
0.00183603
-0.00679553
0.00187972
-0.00701381
0.0019231
-0.00724336
0.00196624
-0.00748398
0.00200908
-0.00773536
-0.0079966
0.00205101
5.46394e-05
-0.000309877
0.000205271
-0.00115326
0.000426686
-0.00215027
0.000674363
-0.00314557
0.000904819
-0.00400102
0.00109281
-0.00465584
0.001233
-0.00512179
0.00133273
-0.0054474
0.00140385
-0.0056866
0.00145735
-0.00588226
0.00150104
-0.0060621
0.0015396
-0.00624133
0.00157545
-0.00642714
0.00160975
-0.00662257
0.00164303
-0.00682881
0.00167556
-0.00704635
0.00170746
-0.00727526
0.00173876
-0.00751527
0.00176935
-0.00776595
-0.00802601
0.00179876
5.85006e-05
-0.000368378
0.000213591
-0.00130836
0.000432094
-0.00236878
0.000665306
-0.00337878
0.000872228
-0.00420794
0.00103328
-0.00481689
0.00114801
-0.00523652
0.00122622
-0.00552561
0.0012801
-0.00574047
0.00131965
-0.00592181
0.00135142
-0.00609387
0.00137903
-0.00626894
0.00140424
-0.00645236
0.00142786
-0.00664619
0.00145025
-0.0068512
0.00147159
-0.00706769
0.00149198
-0.00729565
0.00151141
-0.00753471
0.00152974
-0.00778428
-0.0080429
0.00154663
6.18644e-05
-0.000430242
0.000219392
-0.00146588
0.000431789
-0.00258117
0.000647935
-0.00359493
0.000830595
-0.0043906
0.000965803
-0.0049521
0.00105717
-0.00532788
0.00111612
-0.00558457
0.00115456
-0.00577892
0.00118136
-0.00594861
0.00120187
-0.00611438
0.00121884
-0.00628591
0.00123353
-0.00646704
0.00124648
-0.00665914
0.00125796
-0.00686267
0.00126809
-0.00707783
0.00127696
-0.00730451
0.00128453
-0.00754228
0.00129064
-0.0077904
-0.00804732
0.00129506
6.46267e-05
-0.000494869
0.000222477
-0.00162373
0.000425885
-0.00278458
0.000623057
-0.0037921
0.000781367
-0.00454891
0.000892117
-0.00506285
0.000962152
-0.00539791
0.00100378
-0.0056262
0.00102823
-0.00580336
0.00104316
-0.00596354
0.00105286
-0.00612408
0.00105938
-0.00629243
0.0010636
-0.00647126
0.0010659
-0.00666143
0.00106644
-0.00686322
0.00106536
-0.00707674
0.0010627
-0.00730185
0.00105843
-0.00753801
0.00105239
-0.00778436
-0.00803936
0.00104444
6.66981e-05
-0.000561567
0.000222746
-0.00177978
0.000414669
-0.00297651
0.000591585
-0.00396901
0.000725935
-0.00468326
0.000813762
-0.00515068
0.00086435
-0.0054485
0.000890283
-0.00565213
0.000901856
-0.00581494
0.000905556
-0.00596724
0.000904746
-0.00612327
0.000900932
-0.00628862
0.000894719
-0.00646505
0.000886363
-0.00665307
0.000875989
-0.00685284
0.000863682
-0.00706444
0.000849484
-0.00728765
0.000833393
-0.00752192
0.000815283
-0.00776625
-0.00801906
0.000794982
6.80081e-05
-0.000629575
0.000220189
-0.00193196
0.00039856
-0.00315488
0.000554477
-0.00412493
0.000665592
-0.00479438
0.000732061
-0.00521715
0.000764888
-0.00548133
0.000776462
-0.00566371
0.000776017
-0.00581449
0.000768938
-0.00596016
0.000757821
-0.00611215
0.000743751
-0.00627455
0.000727137
-0.00644844
0.00070815
-0.00663409
0.000686871
-0.00683157
0.000663352
-0.00704092
0.000637612
-0.00726191
0.000609667
-0.00749398
0.000579462
-0.00773604
-0.00798653
0.000546936
6.8507e-05
-0.000698082
0.000214882
-0.00207834
0.000378061
-0.00331806
0.000512682
-0.00425955
0.000601502
-0.0048832
0.000648134
-0.00526378
0.000664673
-0.00549787
0.000662974
-0.00566201
0.000651159
-0.00580268
0.000633626
-0.00594262
0.000612343
-0.00609087
0.000588078
-0.00625028
0.0005611
-0.00642146
0.000531514
-0.0066045
0.000499368
-0.00679942
0.000464684
-0.00700623
0.000427458
-0.00722469
0.000387649
-0.00745417
0.000345094
-0.00769349
-0.00794164
0.000300204
6.81671e-05
-0.000766249
0.000206968
-0.00221714
0.000353724
-0.00346481
0.000467103
-0.00437293
0.000534693
-0.00495079
0.000562915
-0.005292
0.00056443
-0.00549938
0.000550328
-0.00564791
0.000527633
-0.00577998
0.00049988
-0.00591487
0.000468537
-0.00605953
0.000434135
-0.00621588
0.000396842
-0.00638417
0.000356707
-0.00656437
0.000313744
-0.00675646
0.00026796
-0.00696045
0.000219409
-0.00717614
0.000167924
-0.00740268
0.000113216
-0.00763878
-0.00788201
5.35842e-05
6.69818e-05
-0.000833231
0.000196644
-0.0023468
0.000326115
-0.00359428
0.000418573
-0.00446539
0.00046605
-0.00499826
0.000477171
-0.00530312
0.000464735
-0.00548694
0.000438924
-0.0056221
0.000405721
-0.00574678
0.000367926
-0.00587708
0.000326615
-0.00601822
0.000282135
-0.0061714
0.000234583
-0.00633662
0.000183981
-0.00651376
0.000130254
-0.00670273
7.34135e-05
-0.00690361
1.34052e-05
-0.00711613
-4.93595e-05
-0.00733992
-0.000115626
-0.00757251
-0.00781126
-0.000186378
6.49642e-05
-0.000898195
0.000184143
-0.00246598
0.000295794
-0.00370593
0.000367846
-0.00453744
0.000396332
-0.00502675
0.000391531
-0.00529832
0.000366045
-0.00546146
0.000329075
-0.00558513
0.000285655
-0.00570336
0.000237961
-0.00582938
0.000186763
-0.00596702
0.000132283
-0.00611692
7.45004e-05
-0.00627883
1.34199e-05
-0.00645268
-5.08544e-05
-0.00663845
-0.000118518
-0.00683595
-0.000189479
-0.00704517
-0.000263955
-0.00726544
-0.00034217
-0.0074943
-0.00772963
-0.000423804
6.2146e-05
-0.000960341
0.000169719
-0.00257355
0.000263293
-0.00379951
0.00031559
-0.00458974
0.000326177
-0.00503734
0.000306501
-0.00527865
0.00026872
-0.00542368
0.00022104
-0.00553745
0.000167628
-0.00564995
0.000110159
-0.00577191
4.90996e-05
-0.00590596
-1.53604e-05
-0.00605246
-8.30997e-05
-0.00621109
-0.000154338
-0.00638144
-0.000229211
-0.00656358
-0.000307672
-0.00675748
-0.000389733
-0.00696311
-0.000475513
-0.00717966
-0.000565092
-0.00740472
-0.00763638
-0.000658333
5.85776e-05
-0.00101892
0.000153667
-0.00266864
0.000229115
-0.00387495
0.000262393
-0.00462302
0.000256117
-0.00503106
0.00022249
-0.00524502
0.000173047
-0.00537423
0.000115034
-0.00547943
5.1746e-05
-0.00558666
-1.54554e-05
-0.00570471
-8.60451e-05
-0.00583537
-0.000160199
-0.0059783
-0.000238004
-0.00613329
-0.000319459
-0.00629999
-0.000404714
-0.00647833
-0.000493831
-0.00666837
-0.000586838
-0.0068701
-0.00068376
-0.00708274
-0.000784607
-0.00730387
-0.00753158
-0.000889409
5.43231e-05
-0.00107324
0.000136269
-0.00275059
0.00019372
-0.00393241
0.000208764
-0.00463806
0.000186595
-0.00500889
0.000139827
-0.00519825
7.92449e-05
-0.00531365
1.10001e-05
-0.00541119
-6.17042e-05
-0.00551396
-0.000138272
-0.00562814
-0.000218558
-0.00575509
-0.000302461
-0.0058944
-0.000390111
-0.00604564
-0.000481614
-0.00620849
-0.000577109
-0.00638283
-0.000676717
-0.00656876
-0.000780488
-0.00676633
-0.000888403
-0.00697482
-0.0010004
-0.00719187
-0.00741541
-0.00111658
4.94574e-05
-0.0011227
0.00011779
-0.00281892
0.000157526
-0.00397214
0.000155141
-0.00463568
0.000117971
-0.00497172
5.87643e-05
-0.00513905
-1.26033e-05
-0.00524228
-9.02964e-05
-0.00533349
-0.000172571
-0.00543168
-0.000258609
-0.0055421
-0.000348356
-0.00566534
-0.000441851
-0.00580091
-0.00053921
-0.00594828
-0.00064059
-0.00610711
-0.000746161
-0.00627726
-0.000856082
-0.00645884
-0.000970438
-0.00665197
-0.0010892
-0.00685606
-0.00121221
-0.00706886
-0.00728812
-0.0013395
4.40646e-05
-0.00116676
9.84934e-05
-0.00287335
0.000120912
-0.00399456
0.000101875
-0.00461664
5.05476e-05
-0.00492039
-2.04662e-05
-0.00506803
-0.000101878
-0.00516087
-0.000189278
-0.00524609
-0.000280861
-0.0053401
-0.000376194
-0.00544677
-0.000475271
-0.00556626
-0.000578198
-0.00569798
-0.000685115
-0.00584136
-0.000796201
-0.00599602
-0.000911658
-0.0061618
-0.00103169
-0.00633881
-0.00115642
-0.00652723
-0.00128585
-0.00672664
-0.0014197
-0.00693501
-0.00714995
-0.00155787
3.82311e-05
-0.00120499
7.86375e-05
-0.00291376
8.42205e-05
-0.00400014
4.92843e-05
-0.0045817
-1.53667e-05
-0.00485574
-9.75614e-05
-0.00498584
-0.000188973
-0.00506946
-0.000285707
-0.00514936
-0.000386432
-0.00523937
-0.000490892
-0.00534231
-0.000599152
-0.005458
-0.000711352
-0.00558578
-0.000827656
-0.00572506
-0.000948263
-0.00587542
-0.0010734
-0.00603667
-0.00120331
-0.0062089
-0.0013382
-0.00639235
-0.00147809
-0.00658675
-0.00162259
-0.00679051
-0.00700116
-0.00177138
3.20363e-05
-0.00123703
5.84558e-05
-0.00294018
4.77712e-05
-0.00398946
-1.57472e-06
-0.00453236
-7.95503e-05
-0.00477777
-0.000172609
-0.00489278
-0.000273634
-0.00496844
-0.000379475
-0.00504352
-0.000489164
-0.00512968
-0.000602588
-0.00522889
-0.000719864
-0.00534073
-0.000841162
-0.00546448
-0.00096667
-0.00559955
-0.0010966
-0.00574548
-0.0012312
-0.00590206
-0.00137076
-0.00606935
-0.00151554
-0.00624756
-0.00166566
-0.00643663
-0.0018206
-0.00663556
-0.00684205
-0.00197971
2.55863e-05
-0.00126262
3.81318e-05
-0.00295272
1.21917e-05
-0.00396352
-5.2805e-05
-0.00446736
-0.000142202
-0.00468837
-0.000245442
-0.00478954
-0.000355757
-0.00485812
-0.000470487
-0.00492879
-0.000588956
-0.00501121
-0.000711164
-0.00510668
-0.000837276
-0.00521461
-0.000967488
-0.00533427
-0.00110201
-0.00546503
-0.00124106
-0.00560643
-0.0013849
-0.00575822
-0.00153383
-0.00592041
-0.00168824
-0.00609315
-0.00184833
-0.00627654
-0.00201345
-0.00647044
-0.0066731
-0.0021824
1.90475e-05
-0.00128167
1.79162e-05
-0.00295159
-2.39117e-05
-0.00392169
-0.000102025
-0.00438925
-0.000202918
-0.00458748
-0.00031595
-0.00467651
-0.000435254
-0.00473882
-0.000558656
-0.00480539
-0.000685711
-0.00488416
-0.000816511
-0.00497588
-0.000951264
-0.00507986
-0.00109019
-0.00519534
-0.00123351
-0.00532171
-0.00138147
-0.00545848
-0.00153431
-0.00560538
-0.00169236
-0.00576236
-0.00185608
-0.00592943
-0.00202583
-0.00610679
-0.00220079
-0.00629548
-0.00649479
-0.0023791
1.23282e-05
-0.00129399
-5.19414e-07
-0.00293874
-5.89991e-05
-0.00386321
-0.000149944
-0.0042983
-0.000261633
-0.00447579
-0.000384057
-0.00455408
-0.00051206
-0.00461081
-0.000643904
-0.00467354
-0.000779335
-0.00474873
-0.000918522
-0.00483669
-0.00106171
-0.00493667
-0.00120914
-0.00504791
-0.00136106
-0.00516979
-0.0015177
-0.00530184
-0.00167931
-0.00544378
-0.00184619
-0.00559548
-0.00201888
-0.00575674
-0.00219788
-0.00592779
-0.00238246
-0.0061109
-0.00630705
-0.00257019
5.03578e-06
-0.00129903
-2.28308e-05
-0.00291088
-9.32682e-05
-0.00379277
-0.000196312
-0.00419526
-0.000318261
-0.00435384
-0.000449686
-0.00442266
-0.000586104
-0.0044744
-0.000726155
-0.00453349
-0.000869739
-0.00460514
-0.00101709
-0.00468934
-0.00116849
-0.00478527
-0.00132421
-0.00489219
-0.00148452
-0.00500949
-0.00164964
-0.00513672
-0.0018198
-0.00527361
-0.00199531
-0.00541998
-0.00217663
-0.00557542
-0.00236436
-0.00574006
-0.00255828
-0.00591699
-0.00610993
-0.0027554
-2.35587e-06
-0.00129667
-4.30386e-05
-0.00287019
-0.000126514
-0.0037093
-0.000240998
-0.00408078
-0.000372706
-0.00422213
-0.000512774
-0.00428259
-0.000657327
-0.00432984
-0.000805336
-0.00438548
-0.000956837
-0.00445364
-0.00111212
-0.00453406
-0.0012715
-0.00462589
-0.00143527
-0.00472841
-0.00160373
-0.00484103
-0.00177713
-0.00496332
-0.00195571
-0.00509503
-0.00213978
-0.00523591
-0.00232973
-0.00538547
-0.00252589
-0.0055439
-0.00272735
-0.00571553
-0.00590493
-0.00293235
-9.14259e-06
-0.00128753
-6.25019e-05
-0.00281683
-0.000158592
-0.00361321
-0.000283946
-0.00395542
-0.000424918
-0.00408116
-0.000573268
-0.00413424
-0.00072567
-0.00417744
-0.000881379
-0.00422978
-0.00104055
-0.00429448
-0.00120351
-0.0043711
-0.00137061
-0.00445879
-0.00154218
-0.00455684
-0.00171854
-0.00466467
-0.00189997
-0.00478189
-0.00208681
-0.00490819
-0.00227945
-0.00504326
-0.00247829
-0.00518663
-0.0026836
-0.00533859
-0.0028954
-0.00550373
-0.0057004
-0.00309992
-1.60441e-05
-0.00127149
-8.13343e-05
-0.00275154
-0.000189429
-0.00350511
-0.000325083
-0.00381977
-0.000474847
-0.00393139
-0.000631124
-0.00397796
-0.000791081
-0.00401748
-0.00095422
-0.00406664
-0.00112078
-0.00412791
-0.00129116
-0.00420072
-0.00146571
-0.00428423
-0.00164481
-0.00437774
-0.00182879
-0.0044807
-0.00201797
-0.00459271
-0.00221274
-0.00471342
-0.00241362
-0.00484238
-0.00262098
-0.00497927
-0.00283425
-0.00512532
-0.00305366
-0.00528432
-0.00545117
-0.00330289
-2.28442e-05
-0.00124864
-9.95224e-05
-0.00267486
-0.000218967
-0.00338567
-0.000364352
-0.00367438
-0.000522454
-0.00377329
-0.000686302
-0.00381411
-0.000853512
-0.00385027
-0.0010238
-0.00389635
-0.00119748
-0.00395423
-0.00137498
-0.00402322
-0.0015567
-0.00410251
-0.00174303
-0.00419141
-0.00193433
-0.0042894
-0.00213097
-0.00439607