/*--------------------------------*- C++ -*----------------------------------*\
  =========                 |
  \\      /  F ield         | OpenFOAM: The Open Source CFD Toolbox
   \\    /   O peration     | Website:  https://openfoam.org
    \\  /    A nd           | Version:  7
     \\/     M anipulation  |
\*---------------------------------------------------------------------------*/
FoamFile
{
    version     2.0;
    format      ascii;
    class       volVectorField;
    location    "50";
    object      U;
}
// * * * * * * * * * * * * * * * * * * * * * * * * * * * * * * * * * * * * * //

dimensions      [0 1 -1 0 0 0 0];

internalField   nonuniform List<vector> 
1360
(
(1.11745 0.307518 4.53779e-20)
(1.11607 0.288485 -1.67222e-20)
(1.11505 0.269516 -1.6556e-19)
(1.07019 0.377017 3.26144e-20)
(1.07197 0.352413 4.40341e-20)
(1.07363 0.329312 -2.24735e-19)
(1.07516 0.307978 -1.09483e-19)
(1.07639 0.288568 5.10272e-19)
(1.07824 0.269282 -1.95612e-19)
(0.998464 0.456919 1.75087e-20)
(1.00627 0.42794 2.7622e-19)
(1.01257 0.39976 8.78613e-20)
(1.01799 0.372959 -1.72624e-19)
(1.02295 0.347802 1.53863e-19)
(1.02764 0.324395 7.92464e-20)
(1.03207 0.302917 -3.03448e-19)
(1.03623 0.283508 6.27562e-20)
(1.04128 0.264548 -1.5039e-19)
(0.903573 0.506304 1.24904e-19)
(0.920936 0.476885 2.17558e-19)
(0.934841 0.446534 -5.71498e-19)
(0.946454 0.416646 -3.53493e-19)
(0.956561 0.388053 2.20963e-19)
(0.965667 0.361186 1.52793e-19)
(0.974092 0.336214 -2.05936e-19)
(0.982028 0.313152 2.05965e-19)
(0.989624 0.292019 -5.11672e-20)
(0.99717 0.273041 -4.07154e-19)
(1.00553 0.255879 5.51118e-19)
(0.773629 0.538109 5.91195e-19)
(0.805964 0.514765 -4.73272e-20)
(0.831908 0.486467 -1.88089e-19)
(0.853282 0.456027 7.97103e-19)
(0.871424 0.425346 -8.54881e-19)
(0.887272 0.395599 -4.75592e-20)
(0.901459 0.367423 7.86323e-19)
(0.914396 0.341096 -5.28298e-19)
(0.926326 0.316673 -7.12713e-20)
(0.937444 0.29403 9.15365e-20)
(0.948159 0.272766 8.158e-19)
(0.958947 0.252531 -7.34429e-19)
(0.968025 0.234908 -1.61276e-19)
(0.599467 0.528671 1.18602e-19)
(0.652551 0.523917 1.61099e-19)
(0.695874 0.506776 -4.06422e-19)
(0.731676 0.482088 5.4952e-19)
(0.76179 0.453488 1.48898e-19)
(0.787636 0.423526 4.18347e-19)
(0.810263 0.393854 -1.43647e-18)
(0.830418 0.365439 5.00819e-19)
(0.848618 0.338764 -1.89343e-19)
(0.865209 0.314002 1.92359e-19)
(0.88041 0.291151 -6.61861e-19)
(0.894429 0.270076 6.73622e-19)
(0.907626 0.250444 -7.78362e-19)
(0.920122 0.231963 4.49474e-19)
(0.930111 0.21561 5.33099e-19)
(0.456648 0.475845 3.65407e-19)
(0.520862 0.485089 -6.07581e-19)
(0.575275 0.477759 8.83507e-19)
(0.621609 0.459669 -5.08214e-19)
(0.661417 0.435324 3.55852e-19)
(0.696018 0.408003 -9.25736e-19)
(0.726474 0.379932 7.96284e-19)
(0.753601 0.3525 -7.04071e-19)
(0.778006 0.326476 1.18005e-18)
(0.800133 0.302214 -3.07569e-19)
(0.820301 0.279808 -4.86985e-19)
(0.838738 0.259214 -3.95396e-19)
(0.855671 0.240291 -6.1201e-20)
(0.871416 0.22278 9.39341e-19)
(0.886035 0.206486 4.8765e-19)
(0.898171 0.192067 -6.6125e-19)
(0.384278 0.418196 2.07575e-19)
(0.448124 0.423936 6.03114e-19)
(0.504465 0.415475 -9.84734e-19)
(0.55414 0.398058 4.40245e-19)
(0.598046 0.375653 1.81993e-19)
(0.637046 0.351074 -1.13779e-18)
(0.671899 0.326181 4.13082e-19)
(0.703238 0.302093 -4.48361e-19)
(0.73157 0.279403 1.1713e-18)
(0.757301 0.258359 -7.77069e-19)
(0.780744 0.239001 -2.3996e-19)
(0.80215 0.221263 5.67157e-19)
(0.82176 0.20501 -8.02079e-19)
(0.839873 0.190041 5.56253e-19)
(0.856575 0.176194 5.06089e-19)
(0.870946 0.163838 -1.24484e-18)
(0.251719 0.323821 -1.751e-19)
(0.320971 0.344028 -2.85562e-19)
(0.385014 0.347238 6.44934e-20)
(0.443478 0.339016 -3.28425e-20)
(0.496399 0.323754 4.34701e-19)
(0.544102 0.304714 1.08205e-19)
(0.587067 0.284164 -8.66067e-19)
(0.625813 0.263567 -8.90276e-20)
(0.660834 0.243781 3.25264e-19)
(0.692575 0.225241 4.06748e-19)
(0.721418 0.208112 -5.50679e-19)
(0.747688 0.192401 1.09527e-18)
(0.771658 0.178037 -8.16434e-19)
(0.793588 0.164907 9.78615e-19)
(0.813762 0.152858 -8.18021e-19)
(0.832308 0.141754 3.86935e-19)
(0.848687 0.131753 1.995e-19)
(0.135142 0.209895 6.67158e-20)
(0.202897 0.24194 -6.63919e-20)
(0.270222 0.256128 1.21713e-19)
(0.334724 0.257698 -6.10787e-21)
(0.395137 0.2509 4.05297e-20)
(0.45084 0.239042 -5.16879e-19)
(0.501702 0.22455 1.83586e-19)
(0.547906 0.209083 4.8079e-19)
(0.589793 0.193693 -5.92343e-19)
(0.627761 0.178984 2.43008e-19)
(0.662213 0.165252 -2.29806e-19)
(0.693526 0.152599 6.60208e-19)
(0.722035 0.141016 -8.2815e-19)
(0.748037 0.130443 -6.3974e-20)
(0.771807 0.120794 8.13369e-19)
(0.793616 0.111961 -7.48708e-19)
(0.813633 0.103839 -1.33935e-19)
(0.831641 0.0964639 -2.66567e-19)
(0.104629 0.130057 -8.64035e-21)
(0.168662 0.149532 -1.03364e-19)
(0.234793 0.157934 2.5131e-19)
(0.299757 0.158572 -5.84686e-20)
(0.361647 0.154109 -1.03403e-19)
(0.419374 0.146602 2.28281e-20)
(0.472492 0.137541 -4.99883e-19)
(0.520985 0.127939 6.5085e-19)
(0.565072 0.11843 1.06369e-19)
(0.605095 0.109371 -2.27031e-19)
(0.641431 0.100933 -7.60095e-21)
(0.674456 0.0931707 2.5484e-19)
(0.704516 0.0860746 4.43137e-20)
(0.731925 0.0796033 1.63033e-19)
(0.756967 0.073703 1.26631e-19)
(0.779907 0.0683106 -3.8451e-19)
(0.800944 0.0633586 9.45859e-20)
(0.820097 0.0588346 -2.25132e-19)
(0.0888706 0.0440509 7.62533e-20)
(0.151029 0.0505834 1.11885e-20)
(0.216591 0.053364 1.41677e-19)
(0.281835 0.0535246 -1.16099e-19)
(0.344517 0.0519717 7.02213e-20)
(0.403309 0.0494026 -2.67085e-20)
(0.457602 0.0463209 -1.01282e-19)
(0.507277 0.0430661 1.58353e-19)
(0.552498 0.0398499 -7.52511e-20)
(0.593574 0.0367907 -9.02787e-20)
(0.630875 0.0339446 2.19205e-20)
(0.664775 0.0313286 -7.27852e-20)
(0.695629 0.0289386 3.83255e-20)
(0.723757 0.0267599 -5.59621e-20)
(0.74945 0.0247745 2.20091e-19)
(0.772966 0.0229614 -7.32909e-20)
(0.794525 0.0212972 -2.51203e-20)
(0.814268 0.0197721 1.23289e-19)
(1.11671 0.23799 1.02965e-19)
(1.12032 0.211165 2.40734e-20)
(1.12288 0.190401 2.35467e-20)
(1.12463 0.171373 -7.11417e-20)
(1.12522 0.15429 -1.5663e-20)
(1.12489 0.13883 7.17532e-20)
(1.12391 0.124713 -3.83478e-20)
(1.12247 0.111751 9.77856e-21)
(1.12074 0.0997844 -5.45332e-20)
(1.11885 0.088674 7.04894e-20)
(1.11691 0.0782978 4.13575e-22)
(1.115 0.0685493 -2.49608e-21)
(1.11318 0.0593345 -1.90147e-20)
(1.1115 0.0505696 1.7307e-20)
(1.11002 0.0421793 -6.97266e-21)
(1.10876 0.034095 -1.67056e-20)
(1.10774 0.026255 -1.09248e-20)
(1.10699 0.018599 1.07479e-20)
(1.10651 0.0110569 3.83367e-21)
(1.1063 0.00360874 -2.78301e-21)
(1.08488 0.236833 6.92699e-20)
(1.09384 0.211251 -7.20197e-20)
(1.10005 0.191703 -3.04795e-20)
(1.1047 0.173248 2.00332e-20)
(1.10766 0.156401 -6.13389e-21)
(1.10929 0.140988 4.09478e-20)
(1.10992 0.126807 -1.15049e-20)
(1.10982 0.113719 1.13998e-20)
(1.10919 0.101594 -1.99934e-20)
(1.10819 0.0903089 2.94003e-20)
(1.10697 0.0797544 4.46446e-20)
(1.10565 0.06983 -5.57332e-20)
(1.1043 0.0604447 7.33119e-21)
(1.103 0.0515161 1.62392e-20)
(1.10181 0.0429689 -8.99445e-21)
(1.10078 0.0347341 -2.29611e-21)
(1.09993 0.0267485 1.71657e-21)
(1.0993 0.0189498 -8.06855e-21)
(1.0989 0.0112687 3.99071e-21)
(1.09872 0.00368509 1.29411e-21)
(1.05247 0.233164 8.05709e-20)
(1.06584 0.209524 2.78367e-19)
(1.07548 0.191487 -3.51303e-19)
(1.08323 0.173859 2.01716e-19)
(1.08891 0.157434 -1.01342e-19)
(1.09285 0.142243 3.84544e-20)
(1.09539 0.128158 -1.74425e-20)
(1.09685 0.115081 3.48285e-20)
(1.09747 0.102911 -7.19814e-20)
(1.09748 0.091547 9.89002e-20)
(1.09706 0.0808913 -5.65742e-20)
(1.09637 0.0708534 2.29253e-20)
(1.09552 0.0613486 -8.60757e-20)
(1.09461 0.0522982 7.43666e-20)
(1.09372 0.0436294 -2.72976e-20)
(1.09292 0.0352744 -8.96306e-21)
(1.09223 0.0271701 3.99671e-21)
(1.09171 0.0192546 -5.5079e-21)
(1.09137 0.0114624 1.84106e-20)
(1.09121 0.00376667 -3.68402e-21)
(1.02006 0.229289 -1.93816e-19)
(1.03793 0.206587 -6.71769e-21)
(1.05166 0.18945 4.451e-19)
(1.06265 0.172736 -3.81326e-19)
(1.07102 0.156957 2.73512e-19)
(1.07716 0.14225 -1.50902e-19)
(1.08151 0.128501 7.69322e-20)
(1.08442 0.115637 -5.40917e-20)
(1.08622 0.103587 1.19754e-20)
(1.08717 0.0922735 3.94563e-20)
(1.08751 0.0816197 2.16328e-22)
(1.08742 0.0715499 -1.97588e-20)
(1.08704 0.0619906 -2.38765e-20)
(1.0865 0.0528712 1.88495e-20)
(1.08589 0.0441245 -2.35614e-20)
(1.08529 0.0356867 1.19816e-20)
(1.08475 0.0274969 -2.22248e-11)
(1.08431 0.0194959 2.20415e-11)
(1.08401 0.0116246 -1.34738e-20)
(1.08386 0.0038453 7.80083e-21)
(1.00293 0.226988 2.46465e-27)
(1.0244 0.20323 -2.4685e-27)
(1.04008 0.186473 0)
(1.05203 0.17083 0)
(1.06117 0.15581 0)
(1.06802 0.141645 0)
(1.07299 0.128277 0)
(1.07646 0.115669 0)
(1.07874 0.10378 0)
(1.08012 0.0925592 0)
(1.08082 0.0819497 1.21959e-27)
(1.08102 0.0718904 -1.21927e-27)
(1.0809 0.0623186 2.30553e-11)
(1.08056 0.0531717 -2.30513e-11)
(1.08011 0.0443883 0)
(1.07963 0.0359083 0)
(1.07918 0.0276738 -2.16793e-11)
(1.0788 0.0196281 2.16786e-11)
(1.07853 0.0117159 0)
(1.07838 0.00389256 0)
(0.99641 0.212956 -9.54568e-28)
(1.01716 0.193112 9.56774e-28)
(1.03275 0.178339 7.19254e-27)
(1.04492 0.164181 -7.34613e-27)
(1.05431 0.150357 -6.54323e-28)
(1.06143 0.137164 6.54323e-28)
(1.0667 0.12459 -3.07103e-27)
(1.07047 0.112631 -3.09204e-27)
(1.07306 0.101276 0)
(1.07472 0.0904958 0)
(1.07569 0.0802507 0)
(1.07614 0.070495 0)
(1.07623 0.0611783 2.42828e-11)
(1.07609 0.0522482 -2.42828e-11)
(1.07581 0.0436512 -4.2933e-28)
(1.07547 0.0353343 4.2933e-28)
(1.07513 0.0272452 -2.27569e-11)
(1.07483 0.0193322 2.27569e-11)
(1.07461 0.0115449 -2.4377e-27)
(1.07449 0.00383816 -2.03723e-27)
(0.990322 0.197863 0)
(1.01035 0.181756 0)
(1.02588 0.169184 -6.53788e-27)
(1.03821 0.156664 6.69146e-27)
(1.04782 0.144162 2.85721e-28)
(1.05519 0.132037 -2.85721e-28)
(1.06073 0.120336 3.07103e-27)
(1.06478 0.109097 3.09204e-27)
(1.06763 0.0983378 0)
(1.06956 0.0880525 0)
(1.07076 0.0782219 0)
(1.07144 0.0688156 0)
(1.07173 0.0597961 2.55747e-11)
(1.07176 0.0511213 -2.55747e-11)
(1.07163 0.0427466 -2.45352e-11)
(1.07141 0.0346263 2.45352e-11)
(1.07116 0.0267141 -2.3901e-11)
(1.07094 0.0189637 2.3901e-11)
(1.07077 0.0113293 1.28576e-27)
(1.07068 0.00376769 3.19642e-27)
(0.985725 0.183379 0)
(1.0048 0.170459 0)
(1.02002 0.159952 0)
(1.03229 0.14902 0)
(1.04197 0.137818 0)
(1.04948 0.12675 0)
(1.0552 0.11592 0)
(1.05945 0.105404 0)
(1.06251 0.0952479 0)
(1.06465 0.0854686 0)
(1.06606 0.076065 0)
(1.06692 0.0670216 0)
(1.06738 0.0583131 2.68241e-11)
(1.06756 0.0499077 -2.68241e-11)
(1.06756 0.0417693 -2.57036e-11)
(1.06745 0.0338592 2.57036e-11)
(1.06729 0.0261373 -2.5016e-11)
(1.06714 0.0185625 2.5016e-11)
(1.06702 0.0110935 0)
(1.06695 0.00369014 0)
(0.98238 0.169778 0)
(1.00033 0.159537 0)
(1.01505 0.150876 2.13892e-27)
(1.02709 0.141422 -2.13892e-27)
(1.0367 0.131455 0)
(1.04425 0.121405 0)
(1.05006 0.111424 0)
(1.05445 0.101619 0)
(1.05767 0.0920618 0)
(1.05997 0.0827896 0)
(1.06154 0.0738176 0)
(1.06257 0.0651439 0)
(1.06318 0.0567548 2.8029e-11)
(1.06349 0.0486281 -2.8029e-11)
(1.0636 0.0407357 0)
(1.06359 0.033046 0)
(1.06352 0.0255245 -2.61005e-11)
(1.06342 0.0181353 2.61005e-11)
(1.06334 0.0108418 9.53179e-28)
(1.06329 0.00360712 -9.59189e-28)
(0.980033 0.157102 -1.41781e-27)
(0.996792 0.149101 8.29696e-27)
(1.01086 0.142055 4.90279e-27)
(1.02255 0.133949 -5.47069e-27)
(1.03198 0.125133 0)
(1.03947 0.116051 -5.01825e-27)
(1.04531 0.106886 0)
(1.04977 0.0977744 -3.21514e-27)
(1.0531 0.0888063 -1.68497e-27)
(1.05553 0.0800375 1.68497e-27)
(1.05724 0.0714976 3.5482e-27)
(1.05839 0.0631973 -1.91604e-27)
(1.05912 0.0551332 2.91883e-11)
(1.05955 0.047292 -2.91883e-11)
(1.05977 0.0396535 3.16095e-28)
(1.05984 0.0321924 1.05772e-27)
(1.05984 0.02488 -2.71533e-11)
(1.0598 0.0176854 2.71533e-11)
(1.05975 0.0105761 -3.37036e-27)
(1.05972 0.00351934 2.02977e-27)
(0.978493 0.145331 -2.99899e-27)
(0.994039 0.139195 -3.871e-27)
(1.00737 0.133547 -1.36571e-27)
(1.0186 0.126653 1.93362e-27)
(1.02777 0.118899 0)
(1.03513 0.110725 5.01825e-27)
(1.04093 0.10234 0)
(1.04541 0.0938964 3.21514e-27)
(1.0488 0.0855032 0)
(1.05132 0.0772304 0)
(1.05313 0.0691202 -2.80242e-27)
(1.05439 0.0611941 1.17026e-27)
(1.05523 0.0534583 3.03015e-11)
(1.05575 0.0459077 -3.03015e-11)
(1.05606 0.0385292 -7.71439e-28)
(1.05621 0.0313035 -6.02371e-28)
(1.05626 0.0242075 -2.81734e-11)
(1.05627 0.0172151 2.81734e-11)
(1.05626 0.0102981 2.37902e-27)
(1.05624 0.00342738 -1.03217e-27)
(0.977601 0.134428 0)
(0.991952 0.129838 0)
(1.0045 0.125388 -5.19124e-11)
(1.01519 0.119572 5.19124e-11)
(1.02403 0.112787 0)
(1.0312 0.10546 0)
(1.0369 0.0978113 -1.47685e-27)
(1.04135 0.0900084 1.47685e-27)
(1.04477 0.0821724 0)
(1.04734 0.0743851 0)
(1.04922 0.0666992 1.66856e-27)
(1.05056 0.0591458 -1.66856e-27)
(1.05148 0.0517396 3.13684e-11)
(1.05209 0.0444828 -3.13684e-11)
(1.05247 0.0373688 0)
(1.05268 0.0303842 0)
(1.0528 0.0235108 0)
(1.05284 0.0167272 0)
(1.05286 0.0100092 1.06428e-27)
(1.05286 0.00333176 -1.07099e-27)
(0.977228 0.124342 0)
(0.990422 0.121029 0)
(1.00215 0.117599 -5.28097e-11)
(1.01227 0.112734 5.28097e-11)
(1.02072 0.106827 0)
(1.02764 0.100282 0)
(1.0332 0.0933244 2.20718e-28)
(1.03759 0.0861312 -2.20718e-28)
(1.04099 0.0788317 6.84787e-28)
(1.04358 0.0715167 -6.84787e-28)
(1.04551 0.0642475 0)
(1.04691 0.0570634 0)
(1.0479 0.0499861 0)
(1.04857 0.0430246 0)
(1.04901 0.0361782 5.7024e-28)
(1.04928 0.0294389 -5.7024e-28)
(1.04944 0.0227931 -3.0113e-11)
(1.04952 0.0162239 3.0113e-11)
(1.04956 0.00971098 -1.5976e-28)
(1.04957 0.00323297 1.60768e-28)
(0.977268 0.11502 -1.27204e-10)
(0.989356 0.112757 -1.19324e-10)
(1.00026 0.110188 1.63558e-27)
(1.00978 0.106158 -1.63558e-27)
(1.01781 0.101039 0)
(1.02445 0.0952111 0)
(1.02982 0.0888991 0)
(1.03411 0.0822829 0)
(1.03747 0.0754971 0)
(1.04005 0.068639 0)
(1.04199 0.061777 0)
(1.04343 0.0549566 0)
(1.04446 0.048206 0)
(1.04519 0.04154 0)
(1.04568 0.0349631 -2.43053e-28)
(1.04599 0.028472 2.43053e-28)
(1.04619 0.0220579 -3.10313e-11)
(1.0463 0.0157076 3.10313e-11)
(1.04636 0.00940473 5.89273e-28)
(1.04639 0.00313147 -5.92989e-28)
(0.977632 0.106408 1.27207e-10)
(0.988674 0.105003 1.19324e-10)
(0.998772 0.103158 -4.12132e-27)
(1.00767 0.0998541 4.12132e-27)
(1.01525 0.0954395 0)
(1.02157 0.0902654 0)
(1.02674 0.0845522 0)
(1.03089 0.0784788 0)
(1.03417 0.0721824 0)
(1.03672 0.0657645 0)
(1.03867 0.0592984 0)
(1.04012 0.0528348 0)
(1.04119 0.0464072 3.4292e-11)
(1.04195 0.0400354 -3.4292e-11)
(1.04247 0.0337285 6.042e-28)
(1.04283 0.0274877 -6.042e-28)
(1.04306 0.0213081 -5.87239e-28)
(1.04319 0.0151804 5.87239e-28)
(1.04327 0.00909178 0)
(1.04331 0.00302771 0)
(0.978247 0.0984518 0)
(0.988307 0.0977439 0)
(0.997618 0.0965025 0)
(1.0059 0.093827 0)
(1.01302 0.090038 0)
(1.019 0.0854574 0)
(1.02393 0.0802969 0)
(1.02792 0.074732 0)
(1.03111 0.0688999 0)
(1.03361 0.0629041 0)
(1.03553 0.0568213 -1.86499e-27)
(1.03699 0.0507063 1.86499e-27)
(1.03807 0.0445968 7.0351e-11)
(1.03885 0.0385168 -7.0351e-11)
(1.0394 0.0324794 -1.6863e-27)
(1.03978 0.0264898 1.6863e-27)
(1.04004 0.0205468 -3.27635e-11)
(1.0402 0.0146445 3.27635e-11)
(1.04029 0.00877337 -1.19592e-27)
(1.04033 0.0029221 1.20346e-27)
(0.979056 0.091099 0)
(0.988197 0.0909527 0)
(0.996749 0.0902114 4.19288e-27)
(1.00442 0.0880768 -4.19288e-27)
(1.01107 0.0848408 -9.07513e-28)
(1.0167 0.0807962 9.07513e-28)
(1.02138 0.0761438 -2.40166e-28)
(1.02519 0.0710534 2.40166e-28)
(1.02826 0.0656598 -7.53419e-28)
(1.03068 0.0600673 7.53419e-28)
(1.03257 0.0543543 0)
(1.03401 0.0485787 0)
(1.03509 0.0427813 3.60146e-11)
(1.03589 0.0369896 -3.60146e-11)
(1.03646 0.0312203 0)
(1.03686 0.025482 0)
(1.03713 0.0197767 -3.35772e-11)
(1.03731 0.0141018 3.35772e-11)
(1.03741 0.00845066 0)
(1.03746 0.00281501 0)
(0.980007 0.0843001 3.48545e-27)
(0.988294 0.0846018 -1.30988e-26)
(0.996122 0.0842713 0)
(1.0032 0.0825998 -1.33372e-27)
(1.00938 0.0798504 6.76376e-29)
(1.01465 0.0762879 1.19898e-27)
(1.01906 0.0721009 -5.61157e-28)
(1.02268 0.0674514 5.61157e-28)
(1.02562 0.0624708 0)
(1.02795 0.0572622 2.88763e-28)
(1.02979 0.0519049 1.31019e-27)
(1.0312 0.0464586 9.34924e-28)
(1.03227 0.0409665 3.68102e-11)
(1.03307 0.0354588 -3.68102e-11)
(1.03365 0.0299554 -8.48444e-28)
(1.03406 0.0244676 -1.77117e-27)
(1.03435 0.0190004 -1.06954e-27)
(1.03453 0.0135541 8.25413e-28)
(1.03465 0.00812471 2.56647e-27)
(1.0347 0.00270681 2.06731e-28)
(0.981062 0.0780084 3.04163e-27)
(0.988556 0.0786629 6.55975e-27)
(0.995696 0.0786667 -7.12431e-28)
(1.0022 0.0773893 2.04615e-27)
(1.00791 0.0750663 -1.26661e-27)
(1.01282 0.071936 0)
(1.01696 0.0681736 0)
(1.02038 0.0639327 0)
(1.02317 0.0593398 3.46615e-27)
(1.0254 0.0544957 -3.75492e-27)
(1.02717 0.0494796 -2.24512e-27)
(1.02854 0.0443518 0)
(1.02959 0.0391575 3.75632e-11)
(1.03038 0.033929 -3.75632e-11)
(1.03097 0.0286884 -2.94548e-27)
(1.03138 0.0234496 5.56509e-27)
(1.03168 0.0182202 -3.50997e-11)
(1.03187 0.013003 3.50997e-11)
(1.03199 0.00779652 -2.40006e-28)
(1.03204 0.00259782 -2.54786e-27)
(0.982187 0.0721805 0)
(0.988948 0.0731079 0)
(0.995439 0.0733808 -5.59564e-11)
(1.00139 0.0724368 5.59564e-11)
(1.00665 0.0704859 0)
(1.0112 0.0677415 0)
(1.01505 0.0643656 0)
(1.01827 0.0605023 0)
(1.0209 0.0562723 -7.93112e-28)
(1.02302 0.0517735 7.93112e-28)
(1.02471 0.0470837 0)
(1.02604 0.0422635 0)
(1.02706 0.037359 0)
(1.02783 0.032404 0)
(1.02841 0.0274226 6.7669e-28)
(1.02883 0.0224308 -6.7669e-28)
(1.02912 0.0174383 -3.58089e-11)
(1.02932 0.01245 3.58089e-11)
(1.02944 0.00746699 0)
(1.0295 0.00248835 0)
(0.983356 0.0667758 0)
(0.989438 0.0679097 0)
(0.995319 0.0683957 -5.61177e-11)
(1.00074 0.0677319 5.61177e-11)
(1.00557 0.0661044 0)
(1.00976 0.0637038 0)
(1.01334 0.0606786 0)
(1.01633 0.0571635 0)
(1.0188 0.0532726 8.04408e-28)
(1.02081 0.0491001 -8.04408e-28)
(1.02241 0.0447218 0)
(1.02368 0.0401979 0)
(1.02467 0.0355748 3.89457e-11)
(1.02542 0.0308873 -3.89457e-11)
(1.02598 0.026161 0)
(1.02639 0.0214135 0)
(1.02669 0.0166564 0)
(1.02689 0.0118965 0)
(1.02701 0.00713693 -1.93762e-28)
(1.02707 0.00237867 1.94983e-28)
(0.984545 0.0617569 0)
(0.990003 0.0630418 -6.83425e-27)
(0.995313 0.0636935 0)
(1.00023 0.0632634 0)
(1.00464 0.0619158 6.01764e-27)
(1.00849 0.0598205 0)
(1.01178 0.057113 -8.14336e-27)
(1.01456 0.0539183 3.26785e-27)
(1.01686 0.0503436 -3.61682e-27)
(1.01875 0.0464789 3.61682e-27)
(1.02026 0.0423976 -8.49833e-11)
(1.02147 0.0381586 -8.26565e-11)
(1.02241 0.0338083 3.95774e-11)
(1.02313 0.029382 3.92958e-11)
(1.02367 0.0249062 3.93034e-11)
(1.02408 0.0204 3.80912e-11)
(1.02437 0.0158763 1.80779e-27)
(1.02456 0.0113438 -6.79325e-28)
(1.02468 0.00680707 3.70395e-27)
(1.02474 0.00226901 0)
(0.985738 0.0570894 0)
(0.990622 0.0584791 6.83425e-27)
(0.995397 0.0592562 1.45142e-27)
(0.999844 0.0590192 -1.45142e-27)
(1.00384 0.057913 -6.01764e-27)
(1.00736 0.056088 0)
(1.01038 0.0536677 4.28105e-27)
(1.01294 0.0507673 5.94459e-28)
(1.01508 0.0474872 0)
(1.01683 0.0439125 0)
(1.01825 0.0401138 8.49833e-11)
(1.01939 0.0361485 8.26565e-11)
(1.02028 0.0320622 0)
(1.02097 0.0278905 -7.88732e-11)
(1.02149 0.0236604 -1.1609e-10)
(1.02188 0.019392 3.86951e-11)
(1.02216 0.0150995 0)
(1.02235 0.0107928 -1.12847e-27)
(1.02247 0.00647805 -3.50347e-27)
(1.02253 0.0021596 -2.01747e-28)
(0.986921 0.0527416 0)
(0.991275 0.0541977 0)
(0.995553 0.0550661 0)
(0.999555 0.0549871 0)
(1.00317 0.0540878 0)
(1.00636 0.0525018 0)
(1.00912 0.0503407 -2.60608e-28)
(1.01147 0.0477103 2.60608e-28)
(1.01344 0.0447042 0)
(1.01506 0.0414025 0)
(1.01638 0.0378726 7.86144e-28)
(1.01744 0.0341698 -7.86144e-28)
(1.01828 0.0303388 0)
(1.01893 0.0264149 0)
(1.01942 0.0224255 -7.22471e-28)
(1.0198 0.0183913 7.22471e-28)
(1.02007 0.0143273 -3.83066e-11)
(1.02025 0.0102445 3.83066e-11)
(1.02037 0.00615042 -2.03582e-28)
(1.02042 0.00205061 2.04865e-28)
(0.98808 0.0486843 0)
(0.991949 0.0501751 0)
(0.995766 0.0511059 7.20838e-28)
(0.999349 0.0511544 -7.20838e-28)
(1.0026 0.0504318 0)
(1.00548 0.0490564 0)
(1.00799 0.0471289 3.34925e-27)
(1.01013 0.0447462 -3.34925e-27)
(1.01193 0.0419947 3.73467e-27)
(1.01342 0.0389498 -3.73467e-27)
(1.01464 0.0356752 0)
(1.01562 0.0322241 0)
(1.0164 0.0286397 4.12486e-11)
(1.01701 0.024957 -4.12486e-11)
(1.01748 0.0212031 3.25058e-27)
(1.01783 0.017399 -3.25058e-27)
(1.01809 0.0135606 -3.88483e-11)
(1.01826 0.00969972 3.88483e-11)
(1.01838 0.00582466 2.63466e-27)
(1.01843 0.00194222 -2.65127e-27)
(0.989208 0.0448909 5.52147e-27)
(0.992631 0.0463901 1.45185e-27)
(0.99602 0.047359 -5.8684e-27)
(0.999212 0.0475085 4.87666e-27)
(1.00212 0.0469359 0)
(1.00471 0.0457457 5.55991e-27)
(1.00696 0.0440286 -4.68249e-27)
(1.0089 0.0418728 0)
(1.01054 0.039358 1.42348e-27)
(1.0119 0.0365546 1.67974e-27)
(1.01302 0.0335225 0)
(1.01392 0.0303125 -1.59494e-27)
(1.01464 0.0269663 8.34697e-11)
(1.01521 0.0235179 -8.34697e-11)
(1.01565 0.0199942 0)
(1.01598 0.0164163 4.02713e-27)
(1.01622 0.0128004 -3.93579e-11)
(1.01638 0.00915901 3.93579e-11)
(1.01649 0.00550116 -3.6668e-27)
(1.01654 0.00183454 -3.93476e-27)
(0.990296 0.0413369 -8.07717e-27)
(0.993311 0.0428228 1.10787e-27)
(0.996305 0.0438093 5.08553e-27)
(0.999133 0.0440371 -4.09379e-27)
(1.00172 0.043591 0)
(1.00403 0.0425633 -5.55991e-27)
(1.00605 0.0410355 4.68249e-27)
(1.00779 0.0390875 0)
(1.00927 0.0367927 -1.42348e-27)
(1.0105 0.0342163 -1.67974e-27)
(1.01152 0.0314146 0)
(1.01234 0.0284356 1.59494e-27)
(1.013 0.0253194 4.21877e-11)
(1.01352 0.0220986 -4.21877e-11)
(1.01393 0.0187999 9.7955e-28)
(1.01423 0.015444 -5.00669e-27)
(1.01446 0.0120474 -3.9836e-11)
(1.01461 0.00862292 3.9836e-11)
(1.01471 0.00518025 3.6668e-27)
(1.01476 0.0017277 3.93476e-27)
(0.991339 0.0379996 0)
(0.99398 0.0394544 0)
(0.996609 0.0404413 -5.63872e-11)
(0.999099 0.0407277 5.63872e-11)
(1.00138 0.0403876 0)
(1.00343 0.0395023 0)
(1.00523 0.0381447 0)
(1.00678 0.0363871 0)
(1.0081 0.0342969 -8.61842e-28)
(1.00921 0.031934 8.61842e-28)
(1.01013 0.0293511 -8.18531e-28)
(1.01087 0.0265935 8.18531e-28)
(1.01147 0.0236992 0)
(1.01195 0.0206997 0)
(1.01232 0.0176206 7.58259e-28)
(1.0126 0.0144826 -7.58259e-28)
(1.01281 0.011302 0)
(1.01295 0.00809185 0)
(1.01304 0.00486216 0)
(1.01309 0.00162176 0)
(0.992332 0.0348583 0)
(0.994632 0.0362675 0)
(0.996925 0.0372403 -5.63593e-11)
(0.999102 0.0375686 5.63593e-11)
(1.0011 0.0373164 0)
(1.0029 0.0365555 0)
(1.00449 0.0353509 0)
(1.00586 0.0337681 0)
(1.00704 0.031868 3.85063e-27)
(1.00803 0.0297061 -3.85063e-27)
(1.00885 0.0273313 0)
(1.00951 0.024786 0)
(1.01005 0.022106 4.29972e-11)
(1.01048 0.0193214 -4.29972e-11)
(1.01082 0.0164569 -3.39896e-27)
(1.01107 0.0135326 3.39896e-27)
(1.01126 0.0105647 0)
(1.01139 0.00756607 0)
(1.01148 0.00454708 -2.76269e-27)
(1.01152 0.0015168 2.78011e-27)
(0.993271 0.031894 1.09473e-27)
(0.99526 0.0332456 -1.09642e-27)
(0.997246 0.0341923 0)
(0.999134 0.034548 0)
(1.00087 0.034368 0)
(1.00244 0.0337157 0)
(1.00383 0.0326488 -4.76091e-27)
(1.00504 0.0312262 0)
(1.00607 0.0295033 4.74261e-11)
(1.00694 0.0275308 -4.74261e-11)
(1.00767 0.025354 -1.08526e-27)
(1.00826 0.0230122 -5.63989e-28)
(1.00874 0.0205393 8.67122e-11)
(1.00912 0.0179636 -8.67122e-11)
(1.00942 0.0153088 -1.56214e-27)
(1.00965 0.0125941 0)
(1.00982 0.00983553 -4.10858e-11)
(1.00994 0.00704575 4.10858e-11)
(1.01002 0.00423512 0)
(1.01006 0.00141285 0)
(0.994154 0.029089 1.42491e-27)
(0.995859 0.0303733 -1.42707e-27)
(0.997564 0.0312839 0)
(0.999188 0.0316545 0)
(1.00069 0.0315331 0)
(1.00204 0.0309753 0)
(1.00324 0.0300324 4.76091e-27)
(1.00429 0.0287571 0)
(1.00519 0.0271995 4.76792e-11)
(1.00595 0.0254058 -4.76792e-11)
(1.00659 0.0234176 0)
(1.00711 0.0212714 1.64925e-27)
(1.00753 0.0189986 4.36856e-11)
(1.00787 0.016626 -4.36856e-11)
(1.00813 0.0141761 5.44889e-28)
(1.00834 0.0116672 1.01725e-27)
(1.00849 0.00911465 -4.14427e-11)
(1.00859 0.00653097 4.14427e-11)
(1.00866 0.00392632 -5.07299e-28)
(1.00869 0.00130994 5.10498e-28)
(0.994979 0.0264269 0)
(0.996427 0.0276362 0)
(0.997875 0.0285024 0)
(0.999256 0.0288774 0)
(1.00053 0.0288027 0)
(1.00169 0.0283271 0)
(1.00272 0.0274959 0)
(1.00362 0.0263562 0)
(1.00439 0.0249531 4.79073e-11)
(1.00505 0.0233284 -4.79073e-11)
(1.0056 0.0215202 0)
(1.00605 0.019562 0)
(1.00642 0.017483 4.39867e-11)
(1.00671 0.0153082 -4.39867e-11)
(1.00694 0.0130585 0)
(1.00712 0.0107516 0)
(1.00725 0.00840196 -4.17707e-11)
(1.00735 0.00602168 4.17707e-11)
(1.00741 0.00362069 -2.8371e-27)
(1.00744 0.00120805 2.85499e-27)
(0.995743 0.0238927 0)
(0.996959 0.0250206 0)
(0.998175 0.0258354 0)
(0.999336 0.0262059 0)
(1.00041 0.0261677 0)
(1.00139 0.0257634 0)
(1.00226 0.0250332 0)
(1.00302 0.0240187 0)
(1.00368 0.0227603 4.81119e-11)
(1.00423 0.0212958 -4.81119e-11)
(1.0047 0.0196597 0)
(1.00509 0.0178826 0)
(1.0054 0.0159914 8.85203e-11)
(1.00566 0.0140092 -8.85203e-11)
(1.00585 0.0119556 0)
(1.00601 0.00984706 0)
(1.00612 0.00769726 -4.20701e-11)
(1.0062 0.00551779 4.20701e-11)
(1.00626 0.00331816 2.2401e-28)
(1.00628 0.00110718 -2.25422e-28)
(0.996447 0.0214723 6.38188e-27)
(0.997454 0.0225138 6.63072e-27)
(0.99846 0.0232714 -5.68682e-27)
(0.999421 0.0236298 0)
(1.00031 0.0236192 0)
(1.00112 0.023277 -1.05419e-10)
(1.00185 0.0226381 -1.02785e-10)
(1.00248 0.0217395 -1.00261e-10)
(1.00303 0.0206172 -9.78694e-11)
(1.0035 0.0193048 0)
(1.00389 0.0178336 9.35626e-11)
(1.00422 0.0162313 1.83352e-10)
(1.00448 0.0145225 1.34489e-10)
(1.00469 0.0127282 -4.45069e-11)
(1.00486 0.0108667 4.07948e-27)
(1.00499 0.00895306 4.30911e-27)
(1.00509 0.00700025 -1.27594e-10)
(1.00516 0.0050191 -4.22596e-11)
(1.0052 0.00301864 -8.4166e-11)
(1.00522 0.00100729 -8.44778e-11)
(0.997088 0.0191525 -6.38209e-27)
(0.997908 0.0201036 -6.63072e-27)
(0.998726 0.0207994 5.68682e-27)
(0.999508 0.0211392 0)
(1.00023 0.0211487 0)
(1.0009 0.0208603 1.05419e-10)
(1.00149 0.0203045 1.02785e-10)
(1.00201 0.0195136 1.00261e-10)
(1.00246 0.0185195 9.78694e-11)
(1.00284 0.0173522 -1.16417e-27)
(1.00316 0.0160394 -9.35626e-11)
(1.00343 0.0146062 -1.83352e-10)
(1.00365 0.0130747 -8.99817e-11)
(1.00383 0.0114641 1.34035e-27)
(1.00397 0.00979084 -3.03565e-27)
(1.00407 0.00806903 -5.35294e-27)
(1.00416 0.00631051 4.26672e-11)
(1.00421 0.00452535 1.27186e-10)
(1.00425 0.00272199 8.4166e-11)
(1.00427 0.000908343 8.44778e-11)
(0.997667 0.0169208 0)
(0.99832 0.0177784 0)
(0.998971 0.0184085 0)
(0.999594 0.0187245 0)
(1.00017 0.0187476 0)
(1.0007 0.018506 0)
(1.00117 0.018026 -3.49527e-27)
(1.00159 0.0173357 3.49527e-27)
(1.00195 0.016463 0)
(1.00226 0.0154344 0)
(1.00252 0.0142743 3.8045e-27)
(1.00273 0.013005 -3.8045e-27)
(1.00291 0.0116463 3.669e-27)
(1.00305 0.0102154 -3.669e-27)
(1.00317 0.00872715 3.56551e-27)
(1.00325 0.00719427 -3.56551e-27)
(1.00332 0.00562755 -4.28018e-11)
(1.00336 0.00403622 4.28018e-11)
(1.00339 0.00242801 0)
(1.00341 0.00081027 0)
(0.998183 0.0147658 0)
(0.99869 0.0155274 0)
(0.999194 0.0160887 6.66328e-28)
(0.999676 0.0163763 -6.66328e-28)
(1.00012 0.0164077 0)
(1.00053 0.0162068 0)
(1.0009 0.0157964 2.74408e-28)
(1.00122 0.0152005 -2.74408e-28)
(1.00151 0.0144433 0)
(1.00175 0.0135477 0)
(1.00195 0.0125352 0)
(1.00212 0.0114254 0)
(1.00226 0.0102355 4.50931e-11)
(1.00237 0.00898079 -4.50931e-11)
(1.00246 0.00767452 0)
(1.00252 0.00632797 0)
(1.00258 0.0049508 -8.59828e-11)
(1.00261 0.00355133 8.59828e-11)
(1.00264 0.00213649 2.29044e-28)
(1.00265 0.000713004 -2.30488e-28)
(0.998636 0.0126764 -1.17782e-10)
(0.999015 0.0133401 1.1564e-10)
(0.999391 0.01383 1.13221e-10)
(0.999752 0.0140856 6.65938e-28)
(1.00009 0.0141207 0)
(1.00039 0.0139556 0)
(1.00067 0.0136094 0)
(1.00091 0.0131026 0)
(1.00112 0.0124558 0)
(1.0013 0.0116885 -4.52326e-27)
(1.00146 0.0108193 0)
(1.00158 0.00986484 -1.71003e-27)
(1.00169 0.00884025 9.04785e-11)
(1.00177 0.00775873 -9.04785e-11)
(1.00184 0.00663176 0)
(1.00189 0.00546923 0)
(1.00193 0.00427962 -4.31545e-11)
(1.00196 0.00307023 -4.29753e-11)
(1.00197 0.00184719 -8.57071e-11)
(1.00198 0.000616464 2.31387e-28)
(0.999024 0.0106421 1.17786e-10)
(0.999295 0.0112061 -1.1564e-10)
(0.999563 0.0116229 -1.13221e-10)
(0.99982 0.0118435 0)
(1.00006 0.0118787 0)
(1.00028 0.0117451 0)
(1.00047 0.0114588 0)
(1.00065 0.0110367 0)
(1.0008 0.0104959 -2.38171e-27)
(1.00093 0.00985293 6.90497e-27)
(1.00104 0.00912318 -3.8362e-27)
(1.00113 0.00832082 5.54623e-27)
(1.0012 0.00745854 4.53615e-11)
(1.00126 0.00654755 -4.53615e-11)
(1.00131 0.0055976 0)
(1.00135 0.0046171 0)
(1.00138 0.0036133 -4.32913e-11)
(1.0014 0.00259246 1.29421e-10)
(1.00141 0.00155982 8.57071e-11)
(1.00142 0.000520562 0)
(0.999349 0.00865242 -1.0712e-27)
(0.999529 0.00911589 1.0725e-27)
(0.999708 0.00945813 0)
(0.999879 0.00964136 0)
(1.00004 0.00967362 0)
(1.00018 0.00956834 0)
(1.00031 0.00933833 0)
(1.00043 0.00899729 0)
(1.00053 0.00855906 0)
(1.00062 0.008037 0)
(1.00069 0.00744367 0)
(1.00075 0.00679061 0)
(1.0008 0.00608817 4.54604e-11)
(1.00084 0.00534552 -4.54604e-11)
(1.00087 0.00457067 -8.13896e-28)
(1.0009 0.00377054 8.13896e-28)
(1.00092 0.0029511 -8.68044e-11)
(1.00093 0.00211752 8.68044e-11)
(1.00094 0.0012741 2.31294e-28)
(1.00094 0.000425204 -2.32752e-28)
(0.999609 0.0066979 0)
(0.999717 0.00705987 0)
(0.999824 0.00732664 0)
(0.999927 0.00747078 0)
(1.00002 0.00749785 0)
(1.00011 0.00741821 0)
(1.00019 0.00724172 0)
(1.00026 0.00697894 0)
(1.00032 0.00664051 0)
(1.00037 0.00623678 0)
(1.00041 0.00577746 8.67085e-28)
(1.00045 0.00527148 -8.67085e-28)
(1.00048 0.00472691 4.55363e-11)
(1.0005 0.00415087 -4.55363e-11)
(1.00052 0.00354959 8.15401e-28)
(1.00054 0.00292849 -8.15401e-28)
(1.00055 0.00229222 -8.69748e-11)
(1.00056 0.00164485 8.69748e-11)
(1.00056 0.000989729 -2.31761e-28)
(1.00056 0.000330295 2.33222e-28)
(0.999805 0.00476927 0)
(0.999858 0.00502892 0)
(0.999912 0.0052197 -5.59218e-11)
(0.999963 0.00532343 5.59218e-11)
(1.00001 0.00534367 0)
(1.00005 0.00528778 -7.0694e-27)
(1.00009 0.00516281 3.62263e-28)
(1.00013 0.00497622 3.75117e-27)
(1.00016 0.00473558 -2.79076e-27)
(1.00018 0.00444825 0)
(1.00021 0.00412114 2.67984e-27)
(1.00022 0.00376064 0)
(1.00024 0.00337247 0)
(1.00025 0.00296173 -2.54659e-27)
(1.00026 0.00253289 0)
(1.00027 0.00208982 3.26706e-27)
(1.00027 0.00163585 -4.35462e-11)
(1.00028 0.0011739 4.35462e-11)
(1.00028 0.000706365 3.19805e-27)
(1.00028 0.000235725 3.03296e-28)
(0.999932 0.00285741 -1.39639e-27)
(0.99995 0.00301385 1.3979e-27)