/*--------------------------------*- C++ -*----------------------------------*\
  =========                 |
  \\      /  F ield         | OpenFOAM: The Open Source CFD Toolbox
   \\    /   O peration     | Website:  https://openfoam.org
    \\  /    A nd           | Version:  7
     \\/     M anipulation  |
\*---------------------------------------------------------------------------*/
FoamFile
{
    version     2.0;
    format      ascii;
    class       volVectorField;
    location    "90";
    object      U;
}
// * * * * * * * * * * * * * * * * * * * * * * * * * * * * * * * * * * * * * //

dimensions      [0 1 -1 0 0 0 0];

internalField   nonuniform List<vector> 
3700
(
(0.0320061 -0.0162805 4.10606e-20)
(0.128138 -0.0251012 -5.14902e-21)
(0.249478 -0.024248 -2.12198e-20)
(0.347272 -0.0212985 1.08602e-20)
(0.431244 -0.0184404 3.31151e-20)
(0.502253 -0.0160395 -2.88525e-20)
(0.563265 -0.0140127 -1.04424e-21)
(0.615863 -0.0122898 -3.11881e-21)
(0.661556 -0.0108138 1.30625e-20)
(0.701429 -0.00954118 1.83399e-21)
(0.736411 -0.00843746 -8.35372e-21)
(0.767232 -0.00747497 -6.66112e-21)
(0.794464 -0.00662638 -2.38501e-20)
(0.818542 -0.00586649 2.5092e-20)
(0.839917 -0.00519901 -9.88652e-21)
(0.0344929 -0.0497383 -8.58885e-20)
(0.131878 -0.0773187 4.94331e-20)
(0.253059 -0.0751424 1.70206e-20)
(0.350393 -0.066317 -3.62862e-21)
(0.43392 -0.0576962 -3.07038e-20)
(0.504562 -0.0504546 -5.61857e-20)
(0.565268 -0.0443441 4.55525e-20)
(0.617611 -0.0391499 -7.39977e-21)
(0.663089 -0.0346987 -3.42912e-20)
(0.702779 -0.0308583 -3.35619e-20)
(0.737606 -0.0275241 3.99114e-20)
(0.768298 -0.0246122 -4.08538e-20)
(0.795427 -0.0220391 5.52736e-20)
(0.81941 -0.0197293 -5.00544e-20)
(0.84065 -0.0176955 -9.72441e-21)
(0.0394532 -0.0827701 -1.32618e-19)
(0.139353 -0.129004 -2.2855e-19)
(0.260223 -0.125585 -1.23425e-20)
(0.356639 -0.110966 5.65407e-20)
(0.439277 -0.0966425 2.66905e-20)
(0.509182 -0.0846071 8.98936e-20)
(0.569277 -0.0744516 -5.94179e-20)
(0.621111 -0.0658183 -6.73122e-20)
(0.666161 -0.0584187 7.31101e-20)
(0.705489 -0.0520331 2.74613e-20)
(0.740007 -0.0464878 -8.22901e-20)
(0.77044 -0.0416425 2.74714e-20)
(0.797364 -0.0373584 -2.3489e-20)
(0.821159 -0.0335128 -2.47454e-20)
(0.842133 -0.0301333 -3.76366e-20)
(0.0468291 -0.115093 1.16034e-19)
(0.150496 -0.179804 3.69919e-19)
(0.270916 -0.175276 -1.73648e-19)
(0.365968 -0.155 1.37349e-20)
(0.447277 -0.135075 -5.98822e-20)
(0.516085 -0.118323 1.63439e-19)
(0.575268 -0.104187 -4.68294e-21)
(0.626342 -0.0921681 -6.97255e-22)
(0.670754 -0.0818649 -4.98444e-20)
(0.709543 -0.0729718 5.33347e-20)
(0.7436 -0.0652473 1.38401e-19)
(0.773647 -0.0584953 4.67186e-20)
(0.800265 -0.0525217 6.68e-21)
(0.82378 -0.0471611 -1.0731e-20)
(0.844363 -0.0424641 4.34056e-20)
(0.0565343 -0.146431 2.40512e-19)
(0.165208 -0.229372 -1.74981e-19)
(0.285057 -0.22392 -4.48734e-21)
(0.378314 -0.198178 -1.83324e-20)
(0.45787 -0.172791 1.24736e-19)
(0.525225 -0.151433 -9.15425e-20)
(0.583204 -0.133406 3.15426e-20)
(0.633273 -0.118075 -4.18039e-20)
(0.676842 -0.10493 2.44998e-20)
(0.714916 -0.0935822 -1.35111e-19)
(0.748364 -0.083723 -9.80514e-20)
(0.777901 -0.0751012 -6.03397e-20)
(0.804112 -0.0674681 8.82232e-20)
(0.827259 -0.0606215 -2.29265e-20)
(0.847332 -0.0546458 2.08397e-20)
(0.0684542 -0.176517 -2.7988e-21)
(0.183356 -0.27737 -2.80212e-19)
(0.302541 -0.271231 2.10306e-19)
(0.393595 -0.240266 -1.64677e-19)
(0.470985 -0.209597 -1.33469e-19)
(0.536545 -0.18377 6.98381e-20)
(0.593034 -0.161966 -4.69661e-20)
(0.641861 -0.143418 1.75385e-19)
(0.684386 -0.127511 -4.97164e-20)
(0.721578 -0.113774 1.03285e-19)
(0.754272 -0.101837 -4.83935e-20)
(0.783176 -0.0913927 1.06759e-19)
(0.808883 -0.0821386 2.17276e-20)
(0.831577 -0.0738417 4.64256e-20)
(0.851032 -0.0666341 -5.31217e-20)
(0.0824473 -0.205096 2.11799e-20)
(0.204777 -0.323473 2.80395e-19)
(0.323236 -0.316929 -2.67199e-20)
(0.411705 -0.281038 -5.09062e-21)
(0.486537 -0.245302 -3.32411e-20)
(0.549972 -0.215174 -3.12788e-19)
(0.604696 -0.189731 2.29553e-20)
(0.652053 -0.168081 -1.386e-19)
(0.693343 -0.149506 -1.85169e-20)
(0.72949 -0.133461 -8.61772e-21)
(0.76129 -0.119514 3.73313e-20)
(0.789444 -0.107304 -8.15069e-20)
(0.814549 -0.0964756 -1.8268e-19)
(0.836711 -0.0867705 1.93885e-19)
(0.855452 -0.0783845 6.63777e-20)
(0.098346 -0.231925 -1.50372e-19)
(0.229276 -0.367368 -2.58876e-19)
(0.346984 -0.360749 6.8478e-20)
(0.432521 -0.320276 1.12355e-19)
(0.504424 -0.279727 1.11653e-19)
(0.565419 -0.245491 -7.90682e-21)
(0.618119 -0.21657 -9.06982e-20)
(0.663788 -0.19195 2.652e-19)
(0.70366 -0.170819 1.25788e-21)
(0.738605 -0.15256 6.81699e-20)
(0.76938 -0.136682 1.56914e-19)
(0.796668 -0.122774 -1.5092e-19)
(0.821079 -0.110425 1.9668e-19)
(0.842635 -0.0993582 -9.75299e-20)
(0.860576 -0.0898525 -6.47617e-20)
(0.115958 -0.256781 8.8142e-20)
(0.256629 -0.408761 -7.84266e-20)
(0.373605 -0.402436 1.51129e-19)
(0.4559 -0.357774 -1.31165e-19)
(0.524528 -0.3127 -1.64449e-19)
(0.582789 -0.274578 -1.86926e-19)
(0.633218 -0.242359 7.62311e-20)
(0.676994 -0.21492 4.94676e-20)
(0.715274 -0.191359 -2.35093e-19)
(0.748873 -0.17099 -1.5781e-19)
(0.778496 -0.153271 -1.40513e-19)
(0.80481 -0.137741 1.9524e-19)
(0.828436 -0.123933 -5.67046e-20)
(0.849318 -0.111557 -4.74782e-20)
(0.866389 -0.100994 3.33463e-21)
(0.135068 -0.279458 3.06372e-19)
(0.286584 -0.447378 4.01858e-19)
(0.402896 -0.441754 -1.6491e-19)
(0.481681 -0.393341 -1.89883e-19)
(0.546718 -0.344061 4.06982e-19)
(0.601971 -0.302298 3.10927e-20)
(0.649901 -0.266983 1.40855e-19)
(0.691591 -0.236891 -3.2122e-19)
(0.728119 -0.211038 1.38127e-19)
(0.760234 -0.188677 2.19214e-20)
(0.788587 -0.169218 -8.76191e-20)
(0.813823 -0.152151 -2.12964e-19)
(0.836578 -0.136954 -9.41411e-20)
(0.856727 -0.123323 6.62428e-20)
(0.872869 -0.111766 1.4158e-20)
(0.15544 -0.299771 -2.12827e-19)
(0.318862 -0.482962 -2.71034e-19)
(0.434631 -0.478479 1.69442e-19)
(0.509688 -0.426796 6.13696e-19)
(0.570851 -0.373661 5.67621e-20)
(0.622844 -0.328525 1.29469e-20)
(0.668064 -0.290333 -1.85376e-19)
(0.707493 -0.257771 3.81949e-19)
(0.742119 -0.229778 1.33472e-20)
(0.772623 -0.205553 1.81981e-19)
(0.799597 -0.184461 2.25914e-19)
(0.823659 -0.16595 1.416e-19)
(0.845463 -0.149441 -1.24222e-20)
(0.864824 -0.134615 3.76368e-20)
(0.879994 -0.122128 1.24433e-19)
(0.176817 -0.317558 -9.61846e-20)
(0.35316 -0.515284 -1.57839e-19)
(0.468565 -0.51241 5.61486e-20)
(0.539729 -0.457976 4.31709e-20)
(0.59677 -0.401366 -4.57758e-19)
(0.645277 -0.353144 4.64119e-19)
(0.687597 -0.312312 -1.71992e-20)
(0.724605 -0.277475 -1.06177e-19)
(0.757193 -0.247505 -6.92212e-20)
(0.785972 -0.221552 -4.69803e-20)
(0.811466 -0.198944 -7.52839e-20)
(0.834264 -0.179091 5.17804e-20)
(0.855041 -0.161354 -1.50139e-19)
(0.873569 -0.145395 -1.15256e-19)
(0.887738 -0.13204 -7.44834e-20)
(0.198927 -0.332684 -2.32123e-20)
(0.38915 -0.544137 3.05514e-19)
(0.504432 -0.543363 -4.7792e-19)
(0.571598 -0.486734 -6.00141e-19)
(0.624309 -0.427054 2.06579e-19)
(0.669129 -0.376055 -7.76861e-20)
(0.708381 -0.332832 1.7475e-19)
(0.742825 -0.295926 2.3542e-20)
(0.773256 -0.264153 2.912e-19)
(0.800205 -0.236617 -6.11108e-20)
(0.82413 -0.212617 -2.20883e-19)
(0.845581 -0.191531 2.86985e-20)
(0.865262 -0.172659 -6.30003e-20)
(0.88292 -0.155631 2.6519e-20)
(0.896073 -0.141468 -4.80185e-21)
(0.221482 -0.345037 1.57391e-19)
(0.426485 -0.569343 1.41321e-19)
(0.54195 -0.571176 4.42547e-19)
(0.605074 -0.512941 3.40596e-19)
(0.653289 -0.450621 2.5726e-19)
(0.694253 -0.397166 -2.94875e-19)
(0.730291 -0.351814 -6.15487e-20)
(0.762048 -0.313058 -1.2542e-19)
(0.790215 -0.279663 -7.95017e-20)
(0.815245 -0.250696 1.6654e-19)
(0.83752 -0.225433 9.19504e-20)
(0.857548 -0.203227 -2.09359e-20)
(0.876069 -0.18332 2.769e-19)
(0.892833 -0.165294 -6.29985e-20)
(0.90497 -0.150378 1.51637e-19)
(0.244182 -0.354539 -6.74862e-20)
(0.464797 -0.590752 -5.22002e-19)
(0.58082 -0.595709 -3.1767e-19)
(0.639928 -0.536487 -1.50064e-19)
(0.683526 -0.471976 -3.8395e-19)
(0.720495 -0.416402 3.31085e-19)
(0.753196 -0.369195 1.31205e-19)
(0.782162 -0.328814 1.23088e-19)
(0.807975 -0.293985 -5.81389e-19)
(0.831011 -0.263746 -1.81504e-19)
(0.851566 -0.237355 1.3783e-19)
(0.8701 -0.214152 -7.08372e-20)
(0.887401 -0.193322 8.81618e-20)
(0.903259 -0.174377 -9.05785e-20)
(0.914401 -0.158752 -4.1636e-20)
(0.266721 -0.361137 1.16752e-20)
(0.503703 -0.608244 2.31881e-19)
(0.620729 -0.616847 2.22444e-19)
(0.675919 -0.55728 8.65435e-20)
(0.714829 -0.491046 1.72533e-19)
(0.747694 -0.4337 -1.7992e-19)
(0.776962 -0.384918 -9.12427e-20)
(0.803052 -0.343145 1.11284e-19)
(0.826439 -0.307077 1.82256e-20)
(0.847418 -0.275726 9.35608e-20)
(0.866199 -0.24834 -2.04248e-20)
(0.883174 -0.224253 -2.56959e-20)
(0.899191 -0.202605 -2.38409e-20)
(0.914147 -0.182821 -5.21004e-20)
(0.924347 -0.166547 1.41766e-19)
(0.288787 -0.364814 7.44111e-20)
(0.542805 -0.621728 -9.04885e-20)
(0.66135 -0.634497 -1.04206e-19)
(0.712797 -0.575248 -2.30533e-20)
(0.746999 -0.507775 -9.3056e-20)
(0.775687 -0.449013 1.38094e-19)
(0.80145 -0.398943 -1.51031e-19)
(0.824601 -0.356015 -3.54954e-20)
(0.845505 -0.318905 1.74749e-19)
(0.864379 -0.28661 -4.04371e-21)
(0.881343 -0.258374 1.50822e-19)
(0.896696 -0.233541 -1.33474e-19)
(0.911351 -0.21123 -1.87525e-20)
(0.925421 -0.190758 -2.66792e-20)
(0.934795 -0.173875 -1.42983e-19)
(0.310067 -0.365581 -1.01034e-19)
(0.581692 -0.631145 1.90326e-20)
(0.702344 -0.648594 3.33181e-20)
(0.750306 -0.590343 5.55408e-20)
(0.779837 -0.522124 2.17957e-19)
(0.804308 -0.462308 6.09419e-20)
(0.82652 -0.411239 -1.53039e-19)
(0.84669 -0.367395 8.70726e-20)
(0.865071 -0.329443 3.85863e-19)
(0.881808 -0.296369 -1.39137e-19)
(0.896937 -0.267411 -3.49681e-20)
(0.910629 -0.24192 8.82741e-20)
(0.923826 -0.21899 -4.63361e-20)
(0.937016 -0.197839 4.58937e-20)
(0.945812 -0.180422 -5.61577e-20)
(0.330248 -0.363478 5.43735e-20)
(0.619947 -0.636471 -7.90188e-20)
(0.743362 -0.659098 -8.96669e-20)
(0.788184 -0.602535 -9.90566e-20)
(0.813138 -0.534071 -1.7192e-19)
(0.833389 -0.473567 -1.83512e-19)
(0.852031 -0.42179 1.97183e-19)
(0.8692 -0.377269 -2.91061e-19)
(0.885034 -0.338676 -2.36042e-19)
(0.89961 -0.304994 2.06057e-19)
(0.912895 -0.275465 -1.57621e-19)
(0.924898 -0.249474 4.15062e-20)
(0.936466 -0.226174 7.616e-20)
(0.948619 -0.20481 9.99363e-20)
(0.95733 -0.187407 5.05646e-20)
(0.349017 -0.358577 8.17954e-21)
(0.657148 -0.637718 -6.952e-21)
(0.78405 -0.665998 1.26059e-20)
(0.826166 -0.611816 1.76772e-21)
(0.846699 -0.543613 3.89798e-20)
(0.862764 -0.482787 4.44573e-21)
(0.877842 -0.43059 -1.46958e-19)
(0.89201 -0.385632 1.22727e-19)
(0.905293 -0.346597 -1.12766e-19)
(0.917698 -0.312472 -1.58917e-19)
(0.929149 -0.282497 1.02027e-19)
(0.93951 -0.256056 -7.86536e-20)
(0.949385 -0.232273 3.00085e-20)
(0.96027 -0.210248 -7.43235e-20)
(0.969953 -0.192091 -3.57635e-20)
(0.366066 -0.350983 -7.86852e-20)
(0.692872 -0.634936 4.71623e-20)
(0.824048 -0.669305 8.41633e-21)
(0.863985 -0.618199 5.75358e-20)
(0.880316 -0.550762 6.74451e-20)
(0.892265 -0.489977 -3.49402e-20)
(0.903813 -0.437647 1.06037e-19)
(0.915002 -0.392487 -8.33685e-20)
(0.925747 -0.353207 4.71102e-20)
(0.935982 -0.318806 1.4311e-19)
(0.94561 -0.288522 8.35568e-20)
(0.954414 -0.261753 -1.24424e-19)
(0.962605 -0.237788 5.56102e-20)
(0.971376 -0.216489 3.2618e-20)
(0.981442 -0.199995 5.68666e-20)
(0.381086 -0.340832 2.18596e-19)
(0.726699 -0.628212 -1.90862e-19)
(0.862993 -0.669061 -8.84847e-21)
(0.901376 -0.621718 2.58249e-20)
(0.913788 -0.555546 -2.30954e-20)
(0.921731 -0.495164 8.41129e-20)
(0.929806 -0.442982 -5.11871e-20)
(0.938061 -0.39785 -1.59311e-20)
(0.946301 -0.358517 1.86842e-19)
(0.954382 -0.324005 -1.71933e-19)
(0.962188 -0.293554 -5.24742e-20)
(0.969481 -0.266572 1.33048e-19)
(0.97613 -0.242514 -7.43745e-20)
(0.982779 -0.221493 -5.11633e-20)
(0.991487 -0.203572 -1.28269e-20)
(0.393726 -0.328258 -1.75958e-19)
(0.758208 -0.617667 2.54424e-19)
(0.90053 -0.665337 5.37203e-21)
(0.938073 -0.622428 -3.65094e-21)
(0.946916 -0.558007 -2.77971e-20)
(0.951001 -0.498386 3.15516e-20)
(0.955689 -0.446627 -6.61663e-21)
(0.961071 -0.401746 6.72541e-20)
(0.966857 -0.362547 -1.52721e-19)
(0.972818 -0.32808 7.13135e-20)
(0.97881 -0.297592 -2.47029e-20)
(0.984616 -0.270479 3.79435e-20)
(0.989909 -0.246307 5.7189e-21)
(0.994762 -0.225341 -2.82849e-21)
(1.00158 -0.206563 -1.2688e-20)
(0.4038 -0.313584 5.19208e-20)
(0.786938 -0.603474 -1.99801e-19)
(0.936334 -0.658231 -1.24647e-19)
(0.973819 -0.620393 4.04518e-21)
(0.979504 -0.558198 -1.27505e-22)
(0.979921 -0.499695 9.54113e-21)
(0.981331 -0.448625 -1.37955e-20)
(0.983922 -0.404209 -7.44283e-20)
(0.987321 -0.365323 -1.60087e-20)
(0.991217 -0.331051 5.80753e-20)
(0.995424 -0.300652 1.99498e-20)
(0.999761 -0.273506 -7.40827e-21)
(1.00384 -0.249272 -6.31314e-20)
(1.00732 -0.228406 1.78663e-20)
(1.01238 -0.209249 1.59256e-20)
(0.411178 -0.297018 -2.94304e-20)
(0.812193 -0.58564 3.25971e-19)
(0.970113 -0.647958 7.93454e-20)
(1.00835 -0.615685 1.19788e-20)
(1.01136 -0.556183 2.486e-20)
(1.00834 -0.499156 -8.26339e-21)
(1.00661 -0.44903 -1.31482e-20)
(1.00651 -0.405286 5.54144e-20)
(1.0076 -0.366883 5.4506e-20)
(1.00951 -0.33295 -9.81193e-20)
(1.01198 -0.302767 9.00495e-21)
(1.01488 -0.275707 7.6039e-21)
(1.01782 -0.251507 7.6241e-20)
(1.02019 -0.230782 1.07231e-20)
(1.02378 -0.211428 -8.1194e-20)
(0.415755 -0.278731 -6.93008e-20)
(0.833654 -0.564543 -4.78424e-19)
(1.00148 -0.634744 -2.45646e-20)
(1.04143 -0.608296 -4.99706e-20)
(1.04229 -0.55204 -8.17781e-20)
(1.03612 -0.496848 1.89633e-20)
(1.03141 -0.447906 -3.48087e-21)
(1.02873 -0.405028 -1.62682e-20)
(1.02762 -0.367271 4.27027e-21)
(1.02761 -0.333816 4.00088e-20)
(1.02842 -0.303973 -2.62433e-20)
(1.02992 -0.277119 1.81234e-20)
(1.03174 -0.253043 -2.64205e-20)
(1.0331 -0.232474 -4.63876e-20)
(1.0354 -0.213078 9.98173e-21)
(0.417398 -0.259036 -9.83655e-21)
(0.851251 -0.540641 6.52787e-20)
(1.02982 -0.61857 7.85136e-20)
(1.07273 -0.598306 -1.09532e-20)
(1.0721 -0.545878 -8.59297e-21)
(1.06311 -0.492858 -6.05723e-20)
(1.05561 -0.445326 -4.1892e-22)
(1.0505 -0.403497 7.59713e-22)
(1.04728 -0.366541 5.93748e-22)
(1.04546 -0.333693 -1.75944e-20)
(1.04469 -0.304306 2.45437e-20)
(1.04483 -0.277772 -7.72155e-21)
(1.04555 -0.253897 -3.7608e-21)
(1.04594 -0.233499 1.39818e-20)
(1.047 -0.214217 -7.2975e-21)
(0.415973 -0.238285 1.81764e-19)
(0.864739 -0.514179 3.00754e-19)
(1.05471 -0.599517 4.79043e-20)
(1.10196 -0.585908 -9.43361e-20)
(1.10059 -0.537811 1.22271e-19)
(1.08918 -0.487278 5.88434e-20)
(1.07911 -0.441371 -2.10967e-20)
(1.07171 -0.400764 -4.83323e-21)
(1.06652 -0.364751 3.71509e-21)
(1.06297 -0.332629 -1.76537e-21)
(1.06071 -0.303807 -5.12957e-21)
(1.05956 -0.277692 1.27021e-20)
(1.05921 -0.254096 3.32001e-20)
(1.05866 -0.233893 -2.42138e-20)
(1.05854 -0.214853 3.99825e-20)
(0.411399 -0.216812 -2.10346e-19)
(0.873745 -0.485363 -9.45538e-20)
(1.0759 -0.577823 -2.30129e-19)
(1.12883 -0.571284 2.57412e-19)
(1.12759 -0.527955 -1.85475e-19)
(1.11422 -0.480215 6.44693e-20)
(1.10182 -0.436133 1.81218e-20)
(1.0923 -0.396904 1.31919e-20)
(1.08525 -0.361962 1.09579e-20)
(1.0801 -0.330678 -2.0254e-21)
(1.07643 -0.302517 7.61764e-22)
(1.07405 -0.276917 8.43293e-21)
(1.07268 -0.253673 -1.24442e-20)
(1.07124 -0.233697 -1.2059e-20)
(1.07 -0.215006 -3.41747e-20)
(0.403676 -0.194942 -2.02335e-19)
(0.877929 -0.454484 9.14717e-20)
(1.09315 -0.553738 6.62707e-20)
(1.15306 -0.554592 -1.42782e-19)
(1.15294 -0.516448 2.89434e-20)
(1.13807 -0.471767 -1.16768e-20)
(1.12364 -0.429707 -3.27721e-20)
(1.11219 -0.392 -2.85681e-20)
(1.10343 -0.358242 1.65523e-20)
(1.09678 -0.327895 1.42036e-20)
(1.09179 -0.300484 7.0898e-21)
(1.08826 -0.275482 -7.22931e-21)
(1.0859 -0.252661 4.44576e-21)
(1.08363 -0.232946 7.45803e-21)
(1.08135 -0.214696 1.14028e-20)
(0.392873 -0.173005 1.96528e-19)
(0.877026 -0.421889 -9.12735e-20)
(1.10611 -0.527504 4.66116e-20)
(1.17437 -0.536001 2.1016e-19)
(1.17645 -0.503402 1.65623e-19)
(1.16065 -0.462048 -1.16127e-19)
(1.14448 -0.422203 4.42233e-20)
(1.13131 -0.386139 4.02555e-20)
(1.12099 -0.353664 -5.18815e-20)
(1.11296 -0.32434 1.58759e-20)
(1.10676 -0.297757 -6.84262e-21)
(1.10214 -0.27343 -1.00408e-21)
(1.09885 -0.251097 -4.44369e-21)
(1.09579 -0.231673 -4.82546e-21)
(1.09256 -0.213936 8.12e-21)
(0.379126 -0.151326 -1.82939e-19)
(0.870834 -0.387955 1.16244e-19)
(1.11445 -0.499364 1.42435e-19)
(1.19248 -0.515669 -3.10985e-20)
(1.1979 -0.488943 -2.27327e-19)
(1.18191 -0.451186 -7.58078e-20)
(1.1643 -0.413727 -9.27319e-20)
(1.14959 -0.379412 3.50058e-20)
(1.13788 -0.348299 -9.22478e-21)
(1.1286 -0.320078 -2.9423e-20)
(1.12128 -0.294388 -2.18868e-20)
(1.11565 -0.270801 1.2511e-21)
(1.11149 -0.249018 -3.15425e-21)
(1.10771 -0.229908 -2.83045e-21)
(1.1036 -0.212738 -4.28413e-21)
(0.36263 -0.130222 7.88635e-20)
(0.859209 -0.353078 8.26557e-22)
(1.11784 -0.46958 -4.32304e-19)
(1.20709 -0.493756 -2.43219e-20)
(1.2171 -0.473206 1.79296e-19)
(1.20168 -0.439307 1.54143e-19)
(1.18308 -0.404375 8.39386e-20)
(1.16701 -0.371901 -3.78172e-21)
(1.15405 -0.342236 1.77752e-20)
(1.14364 -0.315168 -1.40808e-21)
(1.13533 -0.29043 2.56923e-20)
(1.12875 -0.267638 7.44341e-21)
(1.12378 -0.246464 8.02018e-21)
(1.11935 -0.227686 -1.0726e-20)
(1.11444 -0.211112 -7.68475e-21)
(0.343641 -0.109993 -1.35215e-20)
(0.842071 -0.317674 1.40984e-19)
(1.11599 -0.438428 2.33907e-19)
(1.2179 -0.470432 6.87279e-20)
(1.23384 -0.456318 -1.68563e-19)
(1.21984 -0.426527 -1.81889e-19)
(1.2007 -0.394256 6.84512e-20)
(1.18356 -0.363701 -2.83852e-20)
(1.16949 -0.335538 9.1833e-20)
(1.15808 -0.309691 -3.94916e-22)
(1.14886 -0.285939 -1.36057e-20)
(1.14143 -0.26398 -6.23284e-21)
(1.13569 -0.243478 2.10567e-20)
(1.1307 -0.225039 1.32495e-20)
(1.12508 -0.209079 9.89639e-21)
(0.322474 -0.0909136 2.02225e-19)
(0.819414 -0.282177 -2.14055e-19)
(1.1086 -0.406201 1.23139e-19)
(1.22459 -0.445867 1.53732e-19)
(1.24793 -0.438398 1.16868e-19)
(1.23628 -0.412953 3.89881e-20)
(1.2171 -0.383477 2.55731e-20)
(1.19918 -0.354907 -1.91872e-21)
(1.18419 -0.328294 -4.21718e-20)
(1.17191 -0.303699 1.80119e-20)
(1.16186 -0.280955 3.9268e-20)
(1.15367 -0.259883 1.17933e-20)
(1.1472 -0.240104 -1.1247e-20)
(1.14172 -0.222012 -9.04741e-21)
(1.1355 -0.206664 -8.76257e-21)
(0.299492 -0.0732301 -1.09259e-19)
(0.791321 -0.247031 7.77714e-20)
(1.09542 -0.3732 -6.31051e-21)
(1.22683 -0.420235 -1.64607e-19)
(1.2591 -0.419558 -3.50387e-20)
(1.25087 -0.398686 8.17404e-20)
(1.23223 -0.372141 -6.24892e-20)
(1.21382 -0.345614 7.72533e-21)
(1.1981 -0.32058 -4.14984e-21)
(1.18508 -0.297256 -1.39347e-20)
(1.17432 -0.275553 -2.2803e-20)
(1.16548 -0.255378 -3.49554e-20)
(1.1583 -0.236368 -1.60615e-20)
(1.15233 -0.218646 2.04666e-20)
(1.14582 -0.203923 4.41138e-21)
(0.275103 -0.0571493 -1.36192e-19)
(0.757976 -0.212691 -1.69132e-20)
(1.07624 -0.339738 -8.13541e-20)
(1.22427 -0.39371 7.00053e-20)
(1.2671 -0.399907 -7.60717e-20)
(1.26348 -0.383817 -3.01025e-20)
(1.24603 -0.360338 8.14554e-21)
(1.22747 -0.335909 -8.64965e-21)
(1.21121 -0.312471 2.25128e-20)
(1.19758 -0.290433 1.00816e-21)
(1.18623 -0.269786 1.4524e-20)
(1.17681 -0.250503 1.91525e-20)
(1.16902 -0.232277 1.95396e-20)
(1.16251 -0.215069 -6.77274e-21)
(1.15596 -0.20091 -5.93735e-21)
(0.249746 -0.0428343 7.92728e-20)
(0.719677 -0.179616 8.33353e-20)
(1.05087 -0.306135 2.75562e-20)
(1.21655 -0.366467 -4.21574e-20)
(1.27161 -0.37954 8.25625e-21)
(1.27391 -0.368427 5.95131e-20)
(1.25844 -0.348151 -3.92304e-20)
(1.24012 -0.325874 -3.24334e-20)
(1.22352 -0.304044 -7.3636e-21)
(1.20941 -0.283292 6.45862e-21)
(1.19756 -0.263705 -3.03313e-20)
(1.18764 -0.245311 7.74585e-21)
(1.17935 -0.22788 1.75513e-20)
(1.17236 -0.211289 -4.57866e-21)
(1.16561 -0.197622 -5.62101e-21)
(0.223878 -0.0303994 -5.19705e-20)
(0.67686 -0.148258 -3.53097e-20)
(1.01922 -0.272723 -6.64238e-20)
(1.20329 -0.338681 -1.04753e-20)
(1.27226 -0.358547 -7.05342e-21)
(1.28196 -0.35258 -6.61869e-20)
(1.26935 -0.335652 1.99965e-20)
(1.25172 -0.315584 1.07748e-20)
(1.23503 -0.295367 -1.84198e-20)
(1.22057 -0.275895 -1.09551e-20)
(1.20832 -0.257362 -1.25932e-21)
(1.19799 -0.239854 -9.61657e-21)
(1.18926 -0.223217 -1.52564e-20)
(1.18184 -0.207255 -1.37751e-20)
(1.17477 -0.194053 9.41251e-21)
(0.197955 -0.0199073 -2.30808e-20)
(0.630104 -0.11905 8.35958e-21)
(0.981238 -0.239836 1.12172e-20)
(1.18411 -0.310535 1.1355e-20)
(1.26866 -0.33701 1.89256e-20)
(1.28734 -0.336328 1.31003e-20)
(1.27864 -0.322897 -3.68205e-21)
(1.26226 -0.305104 1.23165e-20)
(1.24573 -0.286506 -4.36411e-22)
(1.23108 -0.2683 -1.04478e-22)
(1.21852 -0.250807 4.76871e-21)
(1.20785 -0.234172 -2.19434e-21)
(1.19875 -0.218316 1.44481e-21)
(1.19095 -0.202961 5.89249e-21)
(1.18355 -0.19021 -4.83375e-21)
(0.172423 -0.0113646 -1.38699e-20)
(0.580121 -0.0923881 -3.69797e-21)
(0.937008 -0.207819 1.63454e-20)
(1.15866 -0.282219 7.31065e-21)
(1.26036 -0.315002 2.06974e-20)
(1.28974 -0.319701 1.41889e-20)
(1.28615 -0.309926 -5.52893e-22)
(1.27166 -0.294489 1.71719e-20)
(1.25562 -0.277519 -8.47109e-21)
(1.24094 -0.260561 9.15796e-22)
(1.22818 -0.244087 5.76065e-21)
(1.21723 -0.228305 -2.67113e-21)
(1.20782 -0.213211 2.54192e-21)
(1.1997 -0.19844 9.2611e-21)
(1.19204 -0.186112 -3.574e-21)
(0.147692 -0.00471981 -1.88648e-20)
(0.527745 -0.0686161 -5.60726e-20)
(0.88674 -0.17702 -6.49144e-20)
(1.1266 -0.253937 -2.37886e-21)
(1.24684 -0.292593 -9.56663e-21)
(1.28873 -0.302714 -7.30769e-20)
(1.29164 -0.296757 3.72552e-20)
(1.27985 -0.283777 5.83151e-21)
(1.26467 -0.268458 -2.55524e-20)
(1.25015 -0.252727 -2.24196e-20)
(1.23729 -0.237245 4.01161e-21)
(1.22615 -0.222289 -1.40392e-20)
(1.21649 -0.207939 -1.48879e-20)
(1.20811 -0.193741 -1.9565e-20)
(1.20028 -0.181783 1.22647e-20)
(0.12413 0.000134516 7.30488e-20)
(0.473915 -0.0480105 5.36456e-20)
(0.830823 -0.147799 2.32346e-20)
(1.08764 -0.225902 -3.55028e-20)
(1.22757 -0.269853 1.74264e-20)
(1.28383 -0.285366 3.85027e-20)
(1.2948 -0.283388 -3.24165e-20)
(1.28668 -0.272989 -6.58563e-20)
(1.27287 -0.259359 -9.70337e-21)
(1.25873 -0.244843 3.88853e-20)
(1.24588 -0.230323 -5.06029e-20)
(1.23461 -0.216161 1.96842e-20)
(1.22477 -0.202534 8.74194e-21)
(1.21617 -0.188912 -1.07424e-21)
(1.20826 -0.177257 1.8264e-21)
(0.102044 0.00335482 -8.53707e-20)
(0.419638 -0.0307605 -5.50141e-20)
(0.769852 -0.120525 -9.13242e-20)
(1.0416 -0.198348 8.57003e-20)
(1.20194 -0.246854 -9.81637e-20)
(1.27445 -0.267643 -2.63159e-20)
(1.29525 -0.269792 -3.01781e-21)
(1.29195 -0.262124 -1.68375e-21)
(1.28013 -0.250246 5.38372e-20)
(1.26666 -0.236943 -6.43867e-20)
(1.25397 -0.223357 4.85247e-20)
(1.24265 -0.209956 2.38511e-20)
(1.23267 -0.197024 6.07537e-20)
(1.2239 -0.183992 -6.64146e-21)
(1.21595 -0.172562 -1.86604e-20)
(0.0816724 0.00513449 1.40949e-20)
(0.365945 -0.0169483 1.55189e-20)
(0.704655 -0.0955682 -3.31297e-20)
(0.988437 -0.171529 -1.34769e-19)
(1.16938 -0.223683 -3.86942e-20)
(1.2599 -0.249521 1.04374e-19)
(1.29244 -0.255921 -8.87483e-20)
(1.29538 -0.251158 -4.88478e-20)
(1.28634 -0.241127 1.44479e-20)
(1.27393 -0.229051 -2.14318e-20)
(1.26156 -0.216378 -9.83342e-20)
(1.25027 -0.203702 -4.82342e-20)
(1.24021 -0.191432 3.11003e-21)
(1.23129 -0.179006 1.21322e-20)
(1.22333 -0.167726 1.06852e-20)
(0.0631816 0.00568912 1.60237e-19)
(0.313837 -0.00653277 -2.0524e-19)
(0.636309 -0.0732937 1.49601e-19)
(0.928299 -0.145732 8.19767e-20)
(1.12931 -0.20045 2.70502e-19)
(1.23939 -0.230975 1.49462e-20)
(1.28574 -0.241705 7.47245e-20)
(1.29656 -0.240037 2.01255e-20)
(1.29131 -0.231984 -1.72054e-19)
(1.28047 -0.221179 5.93678e-20)
(1.26864 -0.209408 4.08453e-20)
(1.25749 -0.197426 7.901e-20)
(1.2474 -0.185772 -7.95816e-20)
(1.23835 -0.173974 -2.61706e-20)
(1.2304 -0.162771 -6.08083e-21)
(0.0466668 0.00524139 -2.13372e-20)
(0.264223 0.000656761 2.40814e-19)
(0.566122 -0.0540379 2.05864e-19)
(0.861604 -0.121281 4.34527e-20)
(1.08126 -0.177298 -2.67874e-19)
(1.21206 -0.211992 -1.82071e-19)
(1.27433 -0.227056 6.7243e-20)
(1.29495 -0.228682 -5.07623e-20)
(1.29475 -0.222777 9.67198e-20)
(1.28616 -0.213318 2.66305e-20)
(1.2752 -0.202458 2.01217e-20)
(1.26432 -0.191148 -4.71842e-20)
(1.25426 -0.180061 2.59477e-20)
(1.24511 -0.168907 1.10572e-19)
(1.23717 -0.157715 1.25994e-19)
(0.0321586 0.00400808 1.79057e-19)
(0.21787 0.00491014 -1.99126e-19)
(0.495581 -0.0380772 -3.40241e-19)
(0.789115 -0.0985459 3.52614e-20)
(1.02492 -0.154425 2.3734e-19)
(1.17702 -0.192582 2.5532e-19)
(1.25726 -0.211879 1.56933e-19)
(1.28981 -0.216983 -2.61332e-21)
(1.29624 -0.213433 3.87251e-20)
(1.29082 -0.20544 1.42521e-20)
(1.28117 -0.195525 9.99933e-20)
(1.27074 -0.18488 2.73858e-20)
(1.2608 -0.174307 2.09398e-20)
(1.25158 -0.163817 -2.79925e-20)
(1.24365 -0.152576 -3.68642e-20)
(0.0196322 0.00219072 -2.31412e-19)
(0.175358 0.00660835 1.84157e-19)
(0.426255 -0.0255844 1.80839e-19)
(0.711998 -0.0779426 -1.47889e-19)
(0.960254 -0.132093 -3.66187e-19)
(1.1334 -0.172795 -7.75395e-20)
(1.23341 -0.196085 -2.19553e-19)
(1.28021 -0.204808 8.52674e-20)
(1.29518 -0.203848 -1.34932e-20)
(1.29413 -0.197488 -1.10964e-19)
(1.28643 -0.188588 -4.49511e-20)
(1.27673 -0.178624 1.69945e-21)
(1.26702 -0.168515 -3.10676e-20)
(1.25778 -0.158706 -3.10521e-20)
(1.24986 -0.147367 3.40258e-21)
(0.00901724 -3.00317e-05 3.3854e-19)
(0.137066 0.00618328 -2.24176e-19)
(0.359673 -0.0165825 1.44246e-19)
(0.631844 -0.0599126 1.63055e-19)
(0.887631 -0.110653 3.16787e-19)
(1.08046 -0.15275 -2.52078e-19)
(1.20158 -0.179604 1.10478e-19)
(1.26501 -0.192008 1.28957e-19)
(1.29072 -0.193881 -1.32859e-19)
(1.29561 -0.18937 -5.59757e-20)
(1.29075 -0.181602 -1.60305e-20)
(1.28222 -0.172366 -2.1262e-20)
(1.27292 -0.162684 -9.80697e-20)
(1.2637 -0.153574 7.78333e-20)
(1.25581 -0.142094 -1.42922e-19)
(0.000207423 -0.00249688 -1.86198e-19)
(0.103179 0.00407601 9.19687e-21)
(0.29718 -0.0109174 1.01853e-19)
(0.550616 -0.0448811 -2.54925e-19)
(0.807951 -0.0905491 1.32468e-19)
(1.01773 -0.132656 -1.44026e-21)
(1.16051 -0.162416 -1.49374e-19)
(1.24282 -0.178434 -6.62555e-20)
(1.28179 -0.183361 9.752e-21)
(1.29456 -0.180959 1.41228e-19)
(1.29377 -0.174489 1.74681e-19)
(1.28705 -0.166076 1.52234e-19)
(1.27843 -0.1568 2.56255e-20)
(1.26936 -0.148411 -1.62744e-19)
(1.2615 -0.136762 -2.02626e-20)
(-0.00693223 -0.00507707 3.89372e-20)
(0.0737062 0.000703321 -2.23962e-19)
(0.239831 -0.00826717 -3.42215e-19)
(0.470496 -0.0331831 3.3308e-19)
(0.722752 -0.0723209 -2.45998e-19)
(0.945233 -0.112846 1.33963e-19)
(1.10908 -0.14458 1.48941e-19)
(1.2121 -0.163958 1.07943e-19)
(1.26697 -0.172094 1.00818e-19)
(1.29 -0.172082 2.90978e-20)
(1.29492 -0.167133 -1.1761e-19)
(1.29094 -0.159689 -1.4398e-19)
(1.28346 -0.150835 3.50071e-20)
(1.27471 -0.143196 4.02559e-20)
(1.26695 -0.131362 1.62563e-19)
(-0.0125577 -0.00766299 1.60735e-19)
(0.0485195 -0.00356363 4.45134e-19)
(0.188324 -0.00818984 -1.08649e-19)
(0.393656 -0.0249784 -2.1357e-19)
(0.634229 -0.0565619 4.92115e-19)
(0.863637 -0.0938015 2.00885e-19)
(1.04644 -0.126278 4.627e-20)
(1.17122 -0.148508 -7.04485e-20)
(1.24457 -0.159881 2.56963e-20)
(1.28057 -0.162532 -1.91832e-19)
(1.29332 -0.159373 8.90195e-20)
(1.29343 -0.153109 2.44858e-20)
(1.28779 -0.144735 -1.43094e-19)
(1.2797 -0.137899 -4.58102e-20)
(1.2721 -0.125874 -1.19525e-19)
(-0.0168388 -0.0101721 -6.90387e-20)
(0.0273845 -0.00840879 2.09085e-19)
(0.143 -0.0101913 2.00821e-19)
(0.321995 -0.0201922 -8.73652e-20)
(0.545099 -0.043832 -3.44739e-20)
(0.774504 -0.0761547 -2.34392e-19)
(0.972334 -0.107857 1.10939e-19)
(1.11865 -0.132116 -1.21978e-19)
(1.21263 -0.146548 -6.13988e-20)
(1.26454 -0.15207 1.65581e-19)
(1.28772 -0.150996 -1.56052e-19)
(1.29377 -0.146188 7.75859e-20)
(1.29107 -0.138417 1.71411e-19)
(1.28411 -0.132456 -1.98033e-19)
(1.27698 -0.120277 1.34071e-19)
(-0.019952 -0.0125464 -1.62792e-19)
(0.00999211 -0.0135726 -6.77081e-19)
(0.103891 -0.0137847 3.0057e-20)
(0.256935 -0.0185172 -1.68636e-19)
(0.45829 -0.0345298 -4.94027e-19)
(0.680343 -0.0606435 1.63139e-19)
(0.8874 -0.089868 -3.08761e-19)
(1.05326 -0.114976 1.3644e-19)
(1.16912 -0.132 1.30799e-19)
(1.23976 -0.140457 -1.94564e-19)
(1.27641 -0.141747 7.81799e-20)
(1.29081 -0.138721 2.81129e-20)
(1.29261 -0.131745 4.28051e-21)
(1.28773 -0.126799 5.395e-20)
(1.28123 -0.114459 -3.95686e-20)
(-0.0220743 -0.0147508 1.01999e-20)
(-0.00401611 -0.0188487 3.85813e-19)
(0.0707839 -0.0185265 2.45884e-19)
(0.199335 -0.0194774 2.03508e-19)
(0.376522 -0.028776 2.04744e-19)
(0.584463 -0.0479923 2.4939e-19)
(0.793465 -0.0730692 1.85944e-19)
(0.974733 -0.0975084 -2.49657e-19)
(1.11215 -0.116282 -3.44539e-19)
(1.2038 -0.1275 3.24331e-19)
(1.25714 -0.131339 4.07946e-20)
(1.28288 -0.130452 -2.89005e-20)
(1.2914 -0.124523 -2.02148e-19)
(1.28984 -0.120769 -5.80344e-20)
(1.28503 -0.108438 1.575e-19)
(-0.0233765 -0.0167695 1.24663e-19)
(-0.0150252 -0.0240766 -5.37574e-19)
(0.0432881 -0.0240292 -4.72686e-20)
(0.149505 -0.0225164 -1.88239e-19)
(0.30193 -0.0263693 -1.38913e-19)
(0.490534 -0.0387356 -9.35336e-21)
(0.693626 -0.0583435 -7.80825e-20)
(0.883993 -0.0804058 2.67806e-19)
(1.04049 -0.0996729 2.03593e-19)
(1.15417 -0.113119 -2.2613e-19)
(1.22718 -0.119512 1.26637e-19)
(1.26765 -0.121053 -1.70218e-19)
(1.28584 -0.116518 1.58936e-19)
(1.28965 -0.114191 -3.67597e-20)
(1.28698 -0.101795 -1.54089e-19)
(-0.0240178 -0.0186019 -4.46786e-19)
(-0.0234281 -0.0291342 7.43694e-19)
(0.0208973 -0.0299595 8.51359e-21)
(0.107308 -0.0270707 -2.07078e-19)
(0.235853 -0.0268391 2.74643e-19)
(0.401987 -0.0330585 -8.07022e-20)
(0.591972 -0.0465185 -2.22767e-19)
(0.783572 -0.0645963 -2.50023e-19)
(0.954127 -0.0827624 4.73211e-19)
(1.08881 -0.0974639 -1.23529e-19)
(1.18351 -0.106074 -3.93016e-20)
(1.24223 -0.110257 2.21166e-19)
(1.27343 -0.107292 -1.61186e-19)
(1.28562 -0.106945 5.47974e-20)
(1.28741 -0.0945327 -6.71368e-20)
(-0.0241405 -0.0202567 6.30836e-19)
(-0.0296095 -0.0339273 -6.91972e-19)
(0.00303598 -0.0360311 -2.87379e-19)
(0.0722743 -0.0326103 1.13562e-19)
(0.178822 -0.0295542 -4.72116e-20)
(0.321456 -0.0307409 -1.71721e-19)
(0.492917 -0.0381343 2.23589e-19)
(0.677553 -0.0510832 -1.65354e-19)
(0.854872 -0.0664661 -2.71641e-19)
(1.0068 -0.0810101 3.29406e-19)
(1.12336 -0.0910885 -1.09833e-19)
(1.20299 -0.0977067 5.98108e-20)
(1.25142 -0.0967937 1.20079e-20)
(1.27473 -0.098146 1.48227e-19)
(1.28365 -0.0864448 7.40912e-20)
(-0.0238673 -0.0217463 -2.60276e-19)
(-0.0339329 -0.0383813 1.01739e-19)