/*--------------------------------*- C++ -*----------------------------------*\
  =========                 |
  \\      /  F ield         | OpenFOAM: The Open Source CFD Toolbox
   \\    /   O peration     | Website:  https://openfoam.org
    \\  /    A nd           | Version:  7
     \\/     M anipulation  |
\*---------------------------------------------------------------------------*/
FoamFile
{
    version     2.0;
    format      ascii;
    class       volScalarField;
    location    "39.999";
    object      p;
}
// * * * * * * * * * * * * * * * * * * * * * * * * * * * * * * * * * * * * * //

dimensions      [0 2 -2 0 0 0 0];

internalField   nonuniform List<scalar> 
11400
(
-0.234203
-0.236446
-0.237439
-0.238253
-0.238979
-0.23965
-0.240299
0.640424
0.619659
0.606536
0.588852
0.56762
0.544451
0.52042
0.496295
0.640424
0.619659
0.606536
0.588852
0.56762
0.544451
0.52042
0.496295
0.47257
0.449561
0.42746
0.406374
0.386354
0.367412
0.349538
0.332702
0.316861
0.301971
0.287988
0.274904
0.6359
0.615403
0.602659
0.585376
0.56451
0.541663
0.517913
0.494034
0.470525
0.447708
0.425775
0.404838
0.38495
0.366127
0.348359
0.331618
0.315859
0.301036
0.287124
0.274144
0.626892
0.606925
0.594935
0.57845
0.558313
0.536106
0.512916
0.489527
0.46645
0.444012
0.422416
0.401776
0.382152
0.363565
0.346008
0.329455
0.31386
0.299173
0.285399
0.272626
0.613474
0.594294
0.583425
0.568126
0.549074
0.52782
0.505463
0.482805
0.46037
0.438499
0.417403
0.397207
0.377976
0.359739
0.342497
0.326226
0.310875
0.296391
0.282822
0.270355
0.595764
0.577616
0.568219
0.554482
0.536861
0.516864
0.495608
0.473914
0.452327
0.431203
0.410768
0.391157
0.372447
0.354673
0.337847
0.321949
0.30692
0.292704
0.279405
0.267338
0.57391
0.557027
0.549436
0.537619
0.521762
0.503317
0.483418
0.462914
0.442374
0.422173
0.402553
0.383666
0.365598
0.348396
0.332083
0.316645
0.302016
0.288134
0.275165
0.263583
0.548101
0.532698
0.527223
0.517666
0.503888
0.487274
0.468978
0.44988
0.430576
0.411465
0.39281
0.374777
0.357469
0.340944
0.325238
0.310345
0.29619
0.282704
0.270123
0.259103
0.518557
0.504828
0.501755
0.494771
0.483371
0.46885
0.452388
0.4349
0.417011
0.39915
0.381599
0.364546
0.348108
0.332359
0.317349
0.303082
0.289473
0.276443
0.264302
0.253914
0.485532
0.473649
0.473231
0.469108
0.460358
0.448177
0.433764
0.418074
0.401769
0.385305
0.368991
0.353035
0.337571
0.322692
0.308461
0.294894
0.281899
0.269384
0.257731
0.248032
0.44931
0.439419
0.441877
0.44087
0.435019
0.4254
0.413235
0.399518
0.38495
0.370019
0.355063
0.340312
0.325921
0.311996
0.298622
0.285826
0.273509
0.261562
0.25044
0.241478
0.410201
0.402424
0.407939
0.41027
0.407538
0.400681
0.390941
0.379354
0.366662
0.35339
0.339902
0.326455
0.313223
0.300333
0.287886
0.275925
0.264345
0.253017
0.242463
0.234276
0.368544
0.362972
0.371686
0.377537
0.378114
0.374195
0.367035
0.357717
0.347026
0.335522
0.323601
0.311546
0.299554
0.287769
0.276313
0.265245
0.254455
0.243792
0.233837
0.226452
0.324697
0.321394
0.333405
0.342919
0.346962
0.346128
0.341683
0.334753
0.326169
0.316528
0.30626
0.295674
0.28499
0.274373
0.263965
0.25384
0.243888
0.233931
0.224598
0.218033
0.279041
0.278037
0.2934
0.306677
0.314306
0.316677
0.315055
0.310612
0.304223
0.296526
0.287983
0.278933
0.269617
0.260221
0.250908
0.241772
0.232699
0.223482
0.214787
0.209046
0.231969
0.233266
0.251989
0.269083
0.280383
0.286048
0.287333
0.285453
0.281329
0.275639
0.268881
0.261419
0.25352
0.245391
0.237214
0.229104
0.220947
0.212495
0.204443
0.199517
0.183889
0.187458
0.2095
0.230421
0.245437
0.254453
0.258701
0.259439
0.257632
0.253997
0.249067
0.243235
0.236791
0.229963
0.222954
0.215904
0.208694
0.201027
0.193601
0.189467
0.135217
0.140997
0.166275
0.19098
0.209717
0.222109
0.229353
0.232739
0.233279
0.23173
0.228657
0.224483
0.219523
0.21402
0.208202
0.202238
0.196014
0.189151
0.18231
0.178905
0.086374
0.0942736
0.122658
0.151056
0.173478
0.189238
0.199479
0.205522
0.208421
0.20897
0.207769
0.205271
0.201811
0.197651
0.193035
0.188175
0.182977
0.176955
0.170615
0.167787
0.03778
0.0476774
0.0789997
0.110948
0.136976
0.156062
0.169276
0.17796
0.183208
0.185852
0.186523
0.185702
0.183749
0.18094
0.17753
0.173771
0.169643
0.16457
0.158694
0.156084
-0.0101467
0.00159475
0.0356525
0.0709525
0.100464
0.122802
0.138936
0.150223
0.157791
0.162509
0.165037
0.165883
0.165433
0.163977
0.161774
0.159104
0.156064
0.152129
0.146869
0.143482
-0.0569927
-0.0435928
-0.00703329
0.0313607
0.0641935
0.0896762
0.108651
0.122478
0.132319
0.139072
0.143427
0.145918
0.146954
0.146845
0.145846
0.144232
0.142206
0.139544
0.135648
0.130412
-0.102369
-0.0874938
-0.0487188
-0.00754586
0.0284114
0.0568992
0.0786071
0.0948912
0.106936
0.11567
0.121808
0.125908
0.128403
0.129623
0.129825
0.129265
0.128211
0.126784
0.124639
0.120517
-0.146013
-0.129677
-0.0891054
-0.0455008
-0.00664277
0.0246778
0.0489858
0.0676207
0.081784
0.0924275
0.100291
0.105953
0.109867
0.112385
0.113778
0.114283
0.114185
0.113835
0.113222
0.1106
-0.187483
-0.16988
-0.12801
-0.0822463
-0.0407353
-0.00679007
0.0199595
0.0408195
0.0569973
0.0694647
0.0789823
0.0861463
0.0914288
0.0952029
0.0977555
0.0993135
0.100144
0.10069
0.101136
0.0996288
-0.226391
-0.207275
-0.165572
-0.117519
-0.0736435
-0.0373183
-0.0083078
0.0146325
0.0327044
0.0468951
0.0579824
0.0665781
0.0731683
0.0781427
0.0818042
0.0843773
0.0861031
0.0874413
0.0886808
0.0880238
-0.262518
-0.242222
-0.200662
-0.15108
-0.105157
-0.0667328
-0.0356621
-0.0108039
0.00902568
0.0248254
0.0373863
0.0473321
0.0551598
0.0612712
0.0659822
0.0695209
0.0721101
0.0742007
0.0761465
0.0762773
-0.295659
-0.274478
-0.232939
-0.182789
-0.135067
-0.0948737
-0.0619584
-0.0353637
-0.0139275
0.00335503
0.0172827
0.0284875
0.0374748
0.0446543
0.0503525
0.0548044
0.0582222
0.0610379
0.0636478
0.0645497
-0.325599
-0.303749
-0.262567
-0.212029
-0.163402
-0.121598
-0.0870622
-0.0589331
-0.0360536
-0.0174248
-0.0022467
0.010118
0.02018
0.028354
0.0349746
0.0402845
0.0444884
0.0479927
0.051222
0.0528637
-0.352175
-0.329836
-0.289459
-0.238987
-0.189735
-0.146723
-0.110854
-0.0814103
-0.057261
-0.0374318
-0.0211278
-0.00770938
0.00333668
0.0124271
0.0199015
0.0260099
0.0309511
0.0351011
0.0389032
0.041248
-0.375283
-0.352612
-0.313422
-0.263529
-0.213986
-0.170161
-0.133226
-0.102705
-0.0774687
-0.0565925
-0.0392955
-0.0249345
-0.0130001
-0.00307597
0.0051803
0.0120246
0.0176509
0.0224024
0.026734
0.0297461
-0.394869
-0.372001
-0.334319
-0.285494
-0.236096
-0.191829
-0.154156
-0.122717
-0.0966084
-0.0748432
-0.0566937
-0.0415041
-0.0287821
-0.01811
-0.00914643
-0.00163118
0.00462616
0.00993478
0.0147552
0.0183973
-0.410932
-0.387987
-0.352084
-0.304786
-0.255995
-0.211652
-0.173535
-0.14146
-0.11462
-0.0921306
-0.073276
-0.0573715
-0.0439683
-0.0326351
-0.0230412
-0.0149214
-0.00808869
-0.00226898
0.0029992
0.00723291
-0.423522
-0.400609
-0.366711
-0.321357
-0.273621
-0.229576
-0.191306
-0.158844
-0.131495
-0.10845
-0.088989
-0.0724986
-0.0585251
-0.0466162
-0.0364723
-0.0278152
-0.0204634
-0.0141827
-0.00851192
-0.00372311
-0.432744
-0.409958
-0.378239
-0.335196
-0.288942
-0.245572
-0.207446
-0.174836
-0.147182
-0.123745
-0.103838
-0.0868836
-0.0724126
-0.0600249
-0.0494142
-0.0402873
-0.0324717
-0.0257821
-0.0197623
-0.0144594
-0.438752
-0.416178
-0.386753
-0.346325
-0.301952
-0.259629
-0.221949
-0.189426
-0.161661
-0.137995
-0.117787
-0.100486
-0.0856344
-0.0728575
-0.0618424
-0.0523179
-0.0440954
-0.0370404
-0.0307335
-0.0249959
-0.44175
-0.41947
-0.39238
-0.354801
-0.312673
-0.271753
-0.234818
-0.20262
-0.174933
-0.151197
-0.130824
-0.113294
-0.0981683
-0.0850882
-0.0737503
-0.0638987
-0.0553379
-0.0479272
-0.0413703
-0.0354033
-0.44198
-0.420079
-0.395294
-0.360724
-0.321154
-0.281974
-0.246071
-0.214431
-0.18701
-0.163359
-0.142952
-0.125305
-0.110005
-0.0967076
-0.0851247
-0.0750109
-0.0661694
-0.0584615
-0.0516759
-0.0456159
-0.439719
-0.418285
-0.395716
-0.36423
-0.327473
-0.290335
-0.255741
-0.224886
-0.197913
-0.174497
-0.154183
-0.136528
-0.121147
-0.107716
-0.0959601
-0.0856465
-0.0765831
-0.0686346
-0.0616233
-0.0553516
-0.435271
-0.414396
-0.393905
-0.365495
-0.331735
-0.296904
-0.263876
-0.234022
-0.207673
-0.184636
-0.164534
-0.146976
-0.131605
-0.118119
-0.106259
-0.0958056
-0.0865736
-0.078428
-0.0712022
-0.0646726
-0.428957
-0.408737
-0.390152
-0.364729
-0.33407
-0.301764
-0.270535
-0.241887
-0.216329
-0.193806
-0.174033
-0.156669
-0.141394
-0.127928
-0.11603
-0.105494
-0.0961424
-0.0878426
-0.0804433
-0.0737031
-0.421108
-0.401639
-0.384771
-0.362173
-0.334637
-0.305015
-0.27579
-0.248538
-0.223929
-0.20205
-0.182711
-0.165633
-0.150534
-0.137159
-0.125285
-0.114722
-0.105301
-0.0968933
-0.0893731
-0.082493
-0.41205
-0.393428
-0.378088
-0.358092
-0.333617
-0.306775
-0.279722
-0.254037
-0.230525
-0.209411
-0.190607
-0.1739
-0.159051
-0.145833
-0.134043
-0.123505
-0.114063
-0.105594
-0.0979986
-0.0910403
-0.402101
-0.384418
-0.370425
-0.35277
-0.331215
-0.307179
-0.282422
-0.258454
-0.236176
-0.21594
-0.197764
-0.181507
-0.166976
-0.153976
-0.142324
-0.131861
-0.122444
-0.113956
-0.106318
-0.0993285
-0.391561
-0.374898
-0.362093
-0.346498
-0.327653
-0.306375
-0.28399
-0.261863
-0.240942
-0.22169
-0.204229
-0.188494
-0.174344
-0.161616
-0.150151
-0.139809
-0.130458
-0.121988
-0.114336
-0.10735
-0.3807
-0.36513
-0.353378
-0.339564
-0.323166
-0.304528
-0.284534
-0.26434
-0.244885
-0.226715
-0.21005
-0.194904
-0.181191
-0.168785
-0.157553
-0.147371
-0.138124
-0.129706
-0.122063
-0.115111
-0.36976
-0.355341
-0.344531
-0.332239
-0.317994
-0.301814
-0.284172
-0.265965
-0.248066
-0.231068
-0.215275
-0.20078
-0.187556
-0.175517
-0.164557
-0.154571
-0.14546
-0.137127
-0.129515
-0.122623
-0.358948
-0.345722
-0.335768
-0.324769
-0.312375
-0.298419
-0.283029
-0.266821
-0.250545
-0.234799
-0.219951
-0.206167
-0.19348
-0.181848
-0.171195
-0.161436
-0.152489
-0.144269
-0.136712
-0.1299
-0.348433
-0.336423
-0.327262
-0.317364
-0.306533
-0.294531
-0.281241
-0.266997
-0.252383
-0.237956
-0.22412
-0.211104
-0.199001
-0.187813
-0.177498
-0.167995
-0.159236
-0.151155
-0.14367
-0.136956
-0.33835
-0.327559
-0.319145
-0.310194
-0.300666
-0.29034
-0.278949
-0.266585
-0.253639
-0.240583
-0.227823
-0.215631
-0.204156
-0.193448
-0.183501
-0.174277
-0.165726
-0.157805
-0.150411
-0.143808
-0.328799
-0.319211
-0.311511
-0.303386
-0.294943
-0.286022
-0.276299
-0.265686
-0.254376
-0.242721
-0.23109
-0.219779
-0.208978
-0.198786
-0.189234
-0.180312
-0.171987
-0.164243
-0.156953
-0.150471
-0.31985
-0.311429
-0.304417
-0.297028
-0.289491
-0.281731
-0.273437
-0.264405
-0.254658
-0.244406
-0.233949
-0.223572
-0.213495
-0.203858
-0.194728
-0.186129
-0.178045
-0.170493
-0.16332
-0.156965
-0.311547
-0.304238
-0.297892
-0.291172
-0.284403
-0.277597
-0.270496
-0.262853
-0.254557
-0.24568
-0.236421
-0.227028
-0.217726
-0.208685
-0.20001
-0.191757
-0.183927
-0.176578
-0.169532
-0.163307
-0.303909
-0.297644
-0.29194
-0.28584
-0.279734
-0.273714
-0.267597
-0.261139
-0.254151
-0.246583
-0.238524
-0.230154
-0.22168
-0.213284
-0.2051
-0.197219
-0.18966
-0.182523
-0.175612
-0.169515
-0.296938
-0.291636
-0.286548
-0.281029
-0.275511
-0.270148
-0.264836
-0.259367
-0.253524
-0.247166
-0.240277
-0.232953
-0.225354
-0.217657
-0.210008
-0.202534
-0.195267
-0.188354
-0.181584
-0.175611
-0.290623
-0.286194
-0.281689
-0.276721
-0.271735
-0.266933
-0.262283
-0.257628
-0.252758
-0.247484
-0.241703
-0.235423
-0.228738
-0.221793
-0.214734
-0.20771
-0.200764
-0.194091
-0.187468
-0.181613
-0.284938
-0.281286
-0.277332
-0.272884
-0.268391
-0.264083
-0.259984
-0.255995
-0.251934
-0.2476
-0.242835
-0.237567
-0.231813
-0.225671
-0.219258
-0.212739
-0.206158
-0.199753
-0.193295
-0.187541
-0.279848
-0.276879
-0.273436
-0.269483
-0.265453
-0.26159
-0.257963
-0.25452
-0.251122
-0.247581
-0.243714
-0.239391
-0.234559
-0.229254
-0.223547
-0.217597
-0.211439
-0.205349
-0.199072
-0.19345
-0.275313
-0.272932
-0.269961
-0.266475
-0.262885
-0.259435
-0.256222
-0.253236
-0.250377
-0.247488
-0.244388
-0.240916
-0.236963
-0.232502
-0.227548
-0.222236
-0.216569
-0.210871
-0.204837
-0.199347
-0.271284
-0.269404
-0.266863
-0.263818
-0.260646
-0.257587
-0.254751
-0.252156
-0.249741
-0.247379
-0.244912
-0.242174
-0.239022
-0.23538
-0.231202
-0.226581
-0.221494
-0.216266
-0.210552
-0.205476
-0.267707
-0.266247
-0.264099
-0.261467
-0.258696
-0.256009
-0.253525
-0.251277
-0.249232
-0.247297
-0.24534
-0.24321
-0.240756
-0.237867
-0.23445
-0.230556
-0.226087
-0.221499
-0.216105
-0.211676
-0.264523
-0.263419
-0.261623
-0.259379
-0.25699
-0.254661
-0.25251
-0.25058
-0.248855
-0.247268
-0.245717
-0.244074
-0.242198
-0.239966
-0.237255
-0.234068
-0.230287
-0.226217
-0.221903
-0.217253
-0.261671
-0.260873
-0.259392
-0.257508
-0.255482
-0.253498
-0.251667
-0.250034
-0.248594
-0.2473
-0.246074
-0.244814
-0.243398
-0.241706
-0.239616
-0.237047
-0.234038
-0.230285
-0.227318
-0.221757
-0.259105
-0.258557
-0.257363
-0.255814
-0.25413
-0.252476
-0.250952
-0.2496
-0.248422
-0.247382
-0.246423
-0.245463
-0.244404
-0.243134
-0.241566
-0.23948
-0.237258
-0.233579
-0.23184
-0.22531
-0.256764
-0.256433
-0.255496
-0.254256
-0.252892
-0.25155
-0.250319
-0.249236
-0.248301
-0.247491
-0.246757
-0.246038
-0.245255
-0.244305
-0.243149
-0.24142
-0.239913
-0.236145
-0.235607
-0.227976
-0.254598
-0.25446
-0.25376
-0.2528
-0.251734
-0.250684
-0.249728
-0.248897
-0.248192
-0.247591
-0.247056
-0.246536
-0.245969
-0.245266
-0.244416
-0.242966
-0.242016
-0.238168
-0.238744
-0.229903
-0.252564
-0.252606
-0.252125
-0.251418
-0.250623
-0.249843
-0.249142
-0.248547
-0.248055
-0.247647
-0.24729
-0.246941
-0.246549
-0.246041
-0.245407
-0.244212
-0.243594
-0.239864
-0.241189
-0.231355
-0.250629
-0.250849
-0.250564
-0.250089
-0.249539
-0.249003
-0.248535
-0.248155
-0.247858
-0.247626
-0.24743
-0.247231
-0.246986
-0.246635
-0.246156
-0.245208
-0.244699
-0.241368
-0.242849
-0.232661
-0.248769
-0.249169
-0.249062
-0.248794
-0.248464
-0.248146
-0.247887
-0.2477
-0.247578
-0.247504
-0.247449
-0.247382
-0.247263
-0.247042
-0.246679
-0.245951
-0.245416
-0.242682
-0.243766
-0.234073
-0.246968
-0.247555
-0.247611
-0.247527
-0.247392
-0.247266
-0.247189
-0.24717
-0.247202
-0.247266
-0.247336
-0.247382
-0.247368
-0.247252
-0.246984
-0.24643
-0.245835
-0.24372
-0.244129
-0.235612
-0.245223
-0.246002
-0.246207
-0.246288
-0.246321
-0.246361
-0.246441
-0.246567
-0.24673
-0.246911
-0.247085
-0.247226
-0.247299
-0.247266
-0.247076
-0.246643
-0.246013
-0.244401
-0.244158
-0.237118
-0.243538
-0.244514
-0.244856
-0.245079
-0.245259
-0.245439
-0.245651
-0.245899
-0.246171
-0.246448
-0.246708
-0.246925
-0.247066
-0.247096
-0.246966
-0.246612
-0.245985
-0.244717
-0.244032
-0.238409
-0.241922
-0.243098
-0.243565
-0.243914
-0.244217
-0.244515
-0.244837
-0.245183
-0.245543
-0.245898
-0.246226
-0.2465
-0.246693
-0.246769
-0.246681
-0.246382
-0.245782
-0.244709
-0.243889
-0.239381
-0.240396
-0.241769
-0.242348
-0.242805
-0.243213
-0.243608
-0.244018
-0.244444
-0.244873
-0.245288
-0.245667
-0.245985
-0.246215
-0.246322
-0.246267
-0.246003
-0.245443
-0.244461
-0.243836
-0.240008
-0.238981
-0.240544
-0.241223
-0.241772
-0.242266
-0.24274
-0.24322
-0.243708
-0.244191
-0.244652
-0.245068
-0.245417
-0.245672
-0.245801
-0.24577
-0.245536
-0.245039
-0.244268
-0.243373
-0.240736
-0.237702
-0.239442
-0.240208
-0.240835
-0.241399
-0.241935
-0.24247
-0.243006
-0.243529
-0.244023
-0.244466
-0.244836
-0.245108
-0.245254
-0.245242
-0.245036
-0.244605
-0.243955
-0.24302
-0.241396
-0.236586
-0.238483
-0.239324
-0.240014
-0.240634
-0.241219
-0.241796
-0.242366
-0.242919
-0.243437
-0.243899
-0.244283
-0.244566
-0.244724
-0.244728
-0.244553
-0.244181
-0.243616
-0.242779
-0.241718
-0.235658
-0.237688
-0.23859
-0.23933
-0.239993
-0.240614
-0.241221
-0.241818
-0.242391
-0.242925
-0.243399
-0.243793
-0.244084
-0.244251
-0.24427
-0.244123
-0.243803
-0.24331
-0.242599
-0.241835
-0.23494
-0.237075
-0.238022
-0.238799
-0.239494
-0.24014
-0.240769
-0.241383
-0.241971
-0.242516
-0.242998
-0.243397
-0.243694
-0.243867
-0.243898
-0.243775
-0.243495
-0.243061
-0.242462
-0.241854
-0.234451
-0.236657
-0.237635
-0.238437
-0.239152
-0.239815
-0.240458
-0.241083
-0.241679
-0.24223
-0.242717
-0.24312
-0.243419
-0.243597
-0.243637
-0.243531
-0.243279
-0.242886
-0.242366
-0.241839
-0.234203
-0.236446
-0.237439
-0.238253
-0.238978
-0.23965
-0.240299
-0.240929
-0.24153
-0.242084
-0.242573
-0.242977
-0.243278
-0.243458
-0.243503
-0.243405
-0.243167
-0.242796
-0.242317
-0.241823
0.263962
0.254773
0.246211
0.238269
0.230867
0.223974
0.217542
0.211537
0.205924
0.200672
0.195753
0.191142
0.186815
0.182752
0.178933
0.17534
0.171958
0.168772
0.16577
0.162937
0.160265
0.157742
0.155358
0.153106
0.150978
0.148965
0.147061
0.145256
0.143543
0.141926
0.1404
0.13896
0.137601
0.136319
0.13511
0.13397
0.132896
0.131885
0.130934
0.130041
0.129204
0.12842
0.127688
0.127005
0.12637
0.125782
0.125239
0.12474
0.124283
0.123868
0.123494
0.123159
0.122864
0.122608
0.12239
0.122209
0.122066
0.121961
0.121893
0.121862
0.263319
0.254213
0.245714
0.237828
0.230473
0.223622
0.217227
0.211254
0.205669
0.200441
0.195544
0.190952
0.186642
0.182593
0.178787
0.175206
0.171835
0.168658
0.165663
0.162838
0.160172
0.157655
0.155277
0.15303
0.150906
0.148897
0.146997
0.145196
0.143487
0.141872
0.140348
0.13891
0.137553
0.136272
0.135064
0.133925
0.132853
0.131843
0.130893
0.130001
0.129165
0.128382
0.127651
0.126969
0.126335
0.125747
0.125204
0.124706
0.124249
0.123835
0.123461
0.123127
0.122832
0.122576
0.122358
0.122178
0.122035
0.12193
0.121862
0.121831
0.262036
0.253093
0.244721
0.236946
0.229687
0.22292
0.216597
0.210688
0.205159
0.199981
0.195126
0.190572
0.186296
0.182277
0.178497
0.174939
0.171588
0.168429
0.165451
0.162641
0.159988
0.157482
0.155115
0.152877
0.150761
0.148761
0.146868
0.145076
0.143377
0.141766
0.140245
0.13881
0.137456
0.136178
0.134973
0.133837
0.132767
0.131759
0.130812
0.129922
0.129088
0.128306
0.127576
0.126896
0.126263
0.125677
0.125135
0.124637
0.124182
0.123769
0.123395
0.123062
0.122768
0.122513
0.122295
0.122115
0.121973
0.121867
0.1218
0.121769
0.260112
0.251415
0.243233
0.235626
0.228509
0.221868
0.215655
0.209841
0.204396
0.199291
0.194502
0.190004
0.185778
0.181803
0.178062
0.174539
0.171219
0.168088
0.165134
0.162345
0.159712
0.157223
0.154872
0.152648
0.150545
0.148556
0.146675
0.144896
0.143208
0.141601
0.140087
0.138659
0.13731
0.136038
0.134837
0.133705
0.132638
0.131634
0.13069
0.129803
0.128972
0.128193
0.127465
0.126787
0.126156
0.125572
0.125032
0.124536
0.124082
0.123669
0.123298
0.122965
0.122672
0.122418
0.122201
0.122021
0.121879
0.121775
0.121707
0.121677
0.25755
0.249181
0.241253
0.233869
0.226944
0.22047
0.214402
0.208716
0.203382
0.198375
0.193671
0.189249
0.18509
0.181173
0.177485
0.174007
0.170728
0.167634
0.164712
0.161952
0.159345
0.15688
0.154549
0.152345
0.150259
0.148285
0.146418
0.144653
0.142982
0.141395
0.139886
0.138462
0.137118
0.135851
0.134656
0.13353
0.132468
0.131469
0.130529
0.129646
0.128818
0.128042
0.127318
0.126642
0.126014
0.125432
0.124894
0.1244
0.123948
0.123538
0.123167
0.122837
0.122545
0.122291
0.122075
0.121897
0.121755
0.121651
0.121584
0.121553
0.254354
0.246394
0.238785
0.23168
0.224993
0.218729
0.212842
0.207315
0.20212
0.197235
0.192638
0.18831
0.184233
0.18039
0.176766
0.173346
0.170118
0.167069
0.164188
0.161464
0.158889
0.156453
0.154148
0.151967
0.149902
0.147947
0.146097
0.144348
0.142696
0.141128
0.139626
0.138213
0.136879
0.13562
0.134432
0.133312
0.132256
0.131262
0.130328
0.12945
0.128626
0.127855
0.127134
0.126462
0.125837
0.125258
0.124724
0.124232
0.123782
0.123374
0.123005
0.122676
0.122386
0.122134
0.121919
0.121742
0.121601
0.121498
0.121431
0.121399
0.250529
0.243059
0.235831
0.229063
0.222662
0.216648
0.210979
0.205643
0.200613
0.195874
0.191405
0.187189
0.183211
0.179456
0.175909
0.172558
0.16939
0.166395
0.163562
0.160881
0.158345
0.155943
0.153669
0.151516
0.149477
0.147545
0.145715
0.143984
0.142349
0.140805
0.139334
0.137925
0.136597
0.135345
0.134165
0.133052
0.132004
0.131017
0.130088
0.129216
0.128398
0.127632
0.126915
0.126248
0.125627
0.125051
0.12452
0.124031
0.123584
0.123178
0.122812
0.122485
0.122197
0.121946
0.121733
0.121556
0.121417
0.121314
0.121247
0.121216
0.246082
0.239182
0.232399
0.226023
0.219955
0.214234
0.208817
0.203702
0.198866
0.194295
0.189974
0.185889
0.182026
0.178372
0.174915
0.171643
0.168546
0.165614
0.162837
0.160206
0.157714
0.155353
0.153115
0.150994
0.148984
0.147078
0.145272
0.143562
0.141946
0.14042
0.138975
0.137584
0.136268
0.135027
0.133856
0.132752
0.131712
0.130733
0.129811
0.128945
0.128133
0.127373
0.126662
0.125999
0.125382
0.124811
0.124283
0.123798
0.123355
0.122951
0.122588
0.122263
0.121977
0.121728
0.121516
0.121341
0.121203
0.121101
0.121034
0.121003
0.241023
0.234769
0.228493
0.222566
0.216879
0.21149
0.206362
0.201498
0.196881
0.192503
0.188351
0.184414
0.180682
0.177143
0.173788
0.170606
0.167589
0.164728
0.162015
0.159441
0.156999
0.154683
0.152486
0.150402
0.148425
0.146549
0.144771
0.143084
0.141488
0.13998
0.138559
0.13721
0.135899
0.134668
0.133507
0.132413
0.131382
0.130411
0.129497
0.128639
0.127834
0.127079
0.126374
0.125717
0.125105
0.124539
0.124015
0.123534
0.123094
0.122694
0.122334
0.122012
0.121727
0.121481
0.121271
0.121097
0.12096
0.120859
0.120793
0.120761
0.235362
0.229831
0.224123
0.218699
0.213438
0.208423
0.203617
0.199036
0.194665
0.190502
0.186539
0.182768
0.179181
0.175771
0.17253
0.169449
0.166522
0.16374
0.161098
0.158587
0.156202
0.153937
0.151785
0.149742
0.147801
0.145959
0.144211
0.142552
0.140979
0.139489
0.138083
0.136758
0.135502
0.134274
0.13312
0.132036
0.131014
0.130053
0.129148
0.128298
0.1275
0.126753
0.126054
0.125403
0.124797
0.124235
0.123716
0.123239
0.122803
0.122407
0.12205
0.121731
0.121449
0.121205
0.120997
0.120825
0.120689
0.120589
0.120522
0.120491
0.229113
0.224377
0.219295
0.214429
0.209641
0.205039
0.200591
0.196321
0.192222
0.188297
0.184542
0.180954
0.177528
0.174261
0.171145
0.168175
0.165347
0.162653
0.160088
0.157648
0.155325
0.153116
0.151014
0.149016
0.147116
0.145311
0.143595
0.141966
0.14042
0.138953
0.137564
0.136253
0.135018
0.133849
0.132708
0.131628
0.130615
0.129661
0.128764
0.127923
0.127133
0.126394
0.125702
0.125057
0.124457
0.123901
0.123387
0.122915
0.122483
0.122091
0.121737
0.121421
0.121143
0.120901
0.120695
0.120525
0.12039
0.120291
0.120225
0.120193
0.222293
0.21842
0.214021
0.209766
0.205494
0.201345
0.197287
0.193359
0.189556
0.185892
0.182364
0.178977
0.175727
0.172614
0.169636
0.166788
0.164067
0.161469
0.15899
0.156625
0.15437
0.152222
0.150175
0.148226
0.14637
0.144605
0.142925
0.141329
0.139812
0.138372
0.137006
0.135711
0.134488
0.133337
0.13225
0.131193
0.130167
0.12923
0.128348
0.127516
0.126735
0.126003
0.125319
0.124681
0.124088
0.123538
0.12303
0.122562
0.122135
0.121747
0.121397
0.121084
0.120809
0.120569
0.120366
0.120197
0.120065
0.119966
0.1199
0.119868
0.214917
0.211973
0.20831
0.204717
0.201005
0.197348
0.193713
0.190155
0.186675
0.183292
0.180011
0.17684
0.173781
0.170837
0.168006
0.16529
0.162685
0.160191
0.157804
0.155521
0.15334
0.151258
0.14927
0.147374
0.145566
0.143844
0.142203
0.140642
0.139157
0.137745
0.136405
0.135133
0.133928
0.132787
0.13171
0.130698
0.129743
0.128795
0.127902
0.12708
0.126308
0.125584
0.124907
0.124277
0.12369
0.123146
0.122644
0.122182
0.121759
0.121376
0.12103
0.120721
0.120448
0.120212
0.12001
0.119844
0.119713
0.119615
0.119549
0.119517
0.207005
0.205049
0.202173
0.199292
0.196182
0.193055
0.189876
0.186717
0.183583
0.180503
0.177488
0.17455
0.171696
0.168932
0.166261
0.163685
0.161206
0.158823
0.156534
0.15434
0.152238
0.150226
0.148302
0.146462
0.144706
0.14303
0.141431
0.139907
0.138456
0.137075
0.135763
0.134516
0.133332
0.132209
0.131145
0.13014
0.129195
0.128307
0.127454
0.126624
0.125848
0.125137
0.124469
0.123844
0.123264
0.122727
0.122231
0.121775
0.121358
0.120979
0.120637
0.120331
0.120062
0.119828
0.119629
0.119465
0.119335
0.119238
0.119173
0.11914
0.198573
0.197664
0.195622
0.193502
0.191035
0.188473
0.185782
0.183049
0.180286
0.177531
0.174799
0.17211
0.169475
0.166903
0.164403
0.161977
0.159631
0.157367
0.155184
0.153084
0.151066
0.149129
0.147272
0.145493
0.143791
0.142164
0.14061
0.139126
0.137712
0.136364
0.13508
0.13386
0.132701
0.131601
0.130556
0.129567
0.128632
0.127749
0.126919
0.12614
0.125397
0.124675
0.123992
0.123381
0.122814
0.122283
0.121793
0.121342
0.120931
0.120556
0.120219
0.119917
0.119652
0.119421
0.119224
0.119062
0.118934
0.118838
0.118772
0.118739
0.189635
0.189829
0.188666
0.187356
0.185571
0.183612
0.18144
0.17916
0.176792
0.174381
0.171951
0.169526
0.167123
0.164756
0.162436
0.160171
0.157966
0.155827
0.153756
0.151756
0.149827
0.147969
0.146184
0.144469
0.142825
0.14125
0.139743
0.138302
0.136925
0.135612
0.13436
0.133168
0.132035
0.130958
0.129935
0.128965
0.128046
0.127177
0.126355
0.125582
0.124856
0.124178
0.123544
0.122925
0.122342
0.12181
0.12133
0.120887
0.12048
0.120109
0.119777
0.11948
0.119217
0.118989
0.118795
0.118635
0.118509
0.118413
0.118348
0.118315
0.180191
0.181551
0.181312
0.180863
0.1798
0.17848
0.176857
0.175058
0.173106
0.17106
0.168948
0.166803
0.164646
0.162495
0.160365
0.158269
0.156214
0.154207
0.152254
0.150359
0.148523
0.14675
0.14504
0.143393
0.141809
0.140289
0.138831
0.137434
0.136098
0.134821
0.133603
0.132441
0.131335
0.130282
0.129282
0.128333
0.127433
0.126581
0.125775
0.125013
0.124295
0.123622
0.122995
0.122407
0.12186
0.121347
0.12086
0.12041
0.120001
0.11964
0.119314
0.119019
0.118759
0.118535
0.118344
0.118186
0.118061
0.117966
0.117901
0.117868
0.170223
0.172843
0.173571
0.174034
0.17373
0.173084
0.172037
0.170743
0.169229
0.167567
0.16579
0.163938
0.162039
0.160116
0.158187
0.156268
0.15437
0.152503
0.150674
0.148889
0.147153
0.145468
0.143837
0.142261
0.140742
0.139279
0.137873
0.136524
0.13523
0.133992
0.132809
0.131678
0.130601
0.129574
0.128598
0.127671
0.126791
0.125957
0.125168
0.124422
0.123719
0.123057
0.122437
0.121856
0.121316
0.120814
0.120349
0.119922
0.119528
0.119163
0.118831
0.118535
0.11828
0.11806
0.117872
0.117715
0.117591
0.117498
0.117432
0.117399
0.159686
0.163682
0.16543
0.166884
0.167386
0.167457
0.167017
0.166255
0.165201
0.163941
0.162516
0.160974
0.159345
0.157661
0.155942
0.154209
0.152475
0.150754
0.149055
0.147385
0.145751
0.144158
0.142609
0.141107
0.139653
0.138249
0.136897
0.135595
0.134345
0.133146
0.131998
0.1309
0.129851
0.128851
0.127899
0.126993
0.126133
0.125317
0.124545
0.123815
0.123126
0.122477
0.121868
0.121298
0.120765
0.12027
0.119811
0.119389
0.119003
0.11865
0.118332
0.118049
0.117793
0.11757
0.11738
0.117224
0.117101
0.117009
0.116944
0.116911
0.147965
0.153826
0.15674
0.159321
0.160682
0.161526
0.161737
0.161549
0.160989
0.16016
0.159109
0.157893
0.156549
0.155115
0.153615
0.152075
0.150511
0.14894
0.147373
0.145822
0.144293
0.142793
0.141327
0.139899
0.138512
0.137168
0.13587
0.134617
0.133411
0.132252
0.13114
0.130075
0.129056
0.128084
0.127156
0.126273
0.125434
0.124638
0.123883
0.123169
0.122495
0.121861
0.121265
0.120707
0.120185
0.119699
0.119249
0.118834
0.118454
0.118108
0.117795
0.117516
0.117269
0.117052
0.116867
0.116715
0.116593
0.1165
0.116436
0.116405
0.134832
0.142726
0.147342
0.150786
0.15297
0.154469
0.155275
0.155613
0.155531
0.155138
0.154482
0.153627
0.152612
0.151476
0.150248
0.148955
0.147616
0.14625
0.144871
0.143489
0.142116
0.140758
0.139423
0.138114
0.136837
0.135593
0.134387
0.133219
0.13209
0.131003
0.129956
0.128952
0.127989
0.127068
0.126188
0.125348
0.124549
0.12379
0.12307
0.122388
0.121743
0.121136
0.120565
0.120029
0.119529
0.119063
0.118631
0.118232
0.117867
0.117533
0.117232
0.116962
0.116724
0.116516
0.116339
0.116193
0.116076
0.115988
0.115929
0.115901
0.127413
0.134215
0.139435
0.143361
0.146106
0.148076
0.149339
0.150092
0.150398
0.150362
0.150038
0.149489
0.148758
0.147884
0.146899
0.145829
0.144697
0.143522
0.142319
0.1411
0.139877
0.138659
0.137451
0.136261
0.135094
0.133952
0.132839
0.131758
0.13071
0.129697
0.12872
0.127779
0.126876
0.126009
0.12518
0.124388
0.123633
0.122914
0.122231
0.121584
0.120972
0.120394
0.11985
0.11934
0.118863
0.118418
0.118006
0.117625
0.117276
0.116957
0.116668
0.11641
0.116182
0.115983
0.115813
0.115673
0.115561
0.115477
0.115422
0.115396
0.121268
0.127399
0.132581
0.136665
0.139737
0.142033
0.143643
0.14473
0.145362
0.145636
0.145608
0.145338
0.144869
0.144241
0.143486
0.142632
0.141701
0.140712
0.139683
0.138626
0.137554
0.136475
0.135397
0.134328
0.133272
0.132235
0.131219
0.130228
0.129263
0.128328
0.127423
0.12655
0.125708
0.1249
0.124124
0.123382
0.122673
0.121997
0.121354
0.120744
0.120166
0.11962
0.119105
0.118622
0.11817
0.117748
0.117357
0.116995
0.116663
0.11636
0.116085
0.11584
0.115622
0.115432
0.115271
0.115136
0.115029
0.11495
0.114898
0.114874
0.115208
0.121117
0.126226
0.130392
0.133681
0.136234
0.138136
0.139514
0.140439
0.140997
0.141243
0.141235
0.141015
0.140622
0.140088
0.139441
0.138704
0.137897
0.137038
0.13614
0.135215
0.134273
0.133324
0.132374
0.13143
0.130496
0.129576
0.128674
0.127793
0.126936
0.126103
0.125296
0.124518
0.123767
0.123046
0.122354
0.121691
0.121059
0.120456
0.119883
0.11934
0.118826
0.118341
0.117885
0.117458
0.11706
0.11669
0.116347
0.116032
0.115745
0.115485
0.115252
0.115045
0.114866
0.114712
0.114585
0.114483
0.114408
0.114359
0.114337
0.109437
0.115216
0.120281
0.124518
0.127965
0.130724
0.132868
0.134499
0.135684
0.136498
0.136995
0.137228
0.137238
0.137065
0.136739
0.136289
0.135737
0.135105
0.134409
0.133663
0.132881
0.132073
0.131249
0.130416
0.12958
0.128747
0.127922
0.127109
0.12631
0.125529
0.124768
0.124028
0.123311
0.122618
0.121951
0.121309
0.120693
0.120104
0.119542
0.119006
0.118497
0.118016
0.117561
0.117132
0.116731
0.116356
0.116007
0.115684
0.115387
0.115115
0.11487
0.114649
0.114454
0.114284
0.114138
0.114018
0.113922
0.113851
0.113805
0.113784
0.104067
0.109716
0.11473
0.119018
0.122581
0.125504
0.127847
0.129694
0.131105
0.132146
0.132868
0.133321
0.133545
0.133576
0.133445
0.13318
0.132804
0.132337
0.131797
0.131199
0.130554
0.129876
0.129173
0.128453
0.127723
0.12699
0.126258
0.125531
0.124814
0.124109
0.123418