/*--------------------------------*- C++ -*----------------------------------*\
  =========                 |
  \\      /  F ield         | OpenFOAM: The Open Source CFD Toolbox
   \\    /   O peration     | Website:  https://openfoam.org
    \\  /    A nd           | Version:  7
     \\/     M anipulation  |
\*---------------------------------------------------------------------------*/
FoamFile
{
    version     2.0;
    format      ascii;
    class       surfaceScalarField;
    location    "39.999";
    object      phi;
}
// * * * * * * * * * * * * * * * * * * * * * * * * * * * * * * * * * * * * * //

dimensions      [0 3 -1 0 0 0 0];

internalField   nonuniform List<scalar> 
22551
(
-8.75368e-06
-5.91914e-09
-2.98364e-05
-1.47857e-08
-6.02082e-05
-2.17083e-08
-9.75818e-05
-2.70472e-08
-0.00014027
-3.12239e-08
-0.000187063
-3.46686e-08
-3.77591e-08
-9.19159e-05
-1.14566e-09
-0.000273736
-2.30822e-09
-0.000492763
-2.77763e-09
-0.000723373
-2.88679e-09
-0.000956624
-2.85809e-09
-0.00119091
-2.79475e-09
-0.00142673
-2.72823e-09
-2.66401e-09
-9.19159e-05
9.19147e-05
-0.000273736
0.000181818
-0.000492763
0.000219024
-0.000723373
0.000230608
-0.000956624
0.000233248
-0.00119091
0.000234279
-0.00142673
0.00023582
-0.00166491
0.000238182
-0.00190623
0.000241314
-0.00215138
0.000245148
-0.00240101
0.000249627
-0.00265572
0.000254707
-0.00291607
0.000260351
-0.00318261
0.000266529
-0.00345583
0.000273219
-0.00373624
0.000280409
-0.00402433
0.000288086
-0.00432052
0.000296193
-0.00462518
0.000304658
0.000313622
-0.00493881
-9.1475e-05
0.00018339
-0.000272669
0.000363012
-0.000491122
0.000437477
-0.00072124
0.000460725
-0.000954044
0.000466053
-0.0011879
0.000468132
-0.0014233
0.000471222
-0.00166107
0.000475949
-0.00190197
0.000482215
-0.0021467
0.000489883
-0.00239592
0.000498841
-0.00265021
0.000508999
-0.00291014
0.000520283
-0.00317624
0.000532634
-0.00344903
0.000546008
-0.00372901
0.000560382
-0.00401665
0.000575728
-0.00431239
0.000591935
-0.00461659
0.000608859
0.000626774
-0.00492974
-9.05945e-05
0.000273984
-0.000270537
0.000542954
-0.000487842
0.000654782
-0.000716974
0.000689857
-0.000948885
0.000697964
-0.00118188
0.00070113
-0.00141644
0.000705782
-0.00165337
0.000712882
-0.00189345
0.000722286
-0.00213735
0.000733788
-0.00238573
0.000747222
-0.00263919
0.000762453
-0.00289828
0.000779372
-0.00316353
0.000797887
-0.00343545
0.000817934
-0.00371455
0.000839478
-0.0040013
0.000862478
-0.00429614
0.00088677
-0.00459942
0.000912141
0.000938981
-0.00491162
-8.92764e-05
0.000363261
-0.000267341
0.000721019
-0.000482924
0.000870365
-0.000710576
0.000917509
-0.000941149
0.000928537
-0.00117286
0.000932844
-0.00140616
0.000939081
-0.00164184
0.000948564
-0.00188067
0.000961112
-0.00212333
0.00097645
-0.00237047
0.000994357
-0.00262267
0.00101466
-0.0028805
0.0010372
-0.00314447
0.00106186
-0.00341511
0.00108857
-0.00369289
0.00111726
-0.0039783
0.00114789
-0.00427178
0.00118025
-0.00457368
0.00121404
0.00124977
-0.00488447
-8.75243e-05
0.000450785
-0.000263087
0.000896582
-0.000476371
0.00108365
-0.000702051
0.00114319
-0.00093084
0.00115733
-0.00116085
0.00116285
-0.00139247
0.0011707
-0.00162648
0.00118258
-0.00186365
0.00119828
-0.00210466
0.00121746
-0.00235014
0.00123983
-0.00260067
0.00126519
-0.00285682
0.00129334
-0.0031191
0.00132414
-0.00338801
0.00135748
-0.00366404
0.00139329
-0.00394767
0.00143152
-0.00423934
0.00147192
-0.00453941
0.00151411
0.00155867
-0.00484831
-8.53426e-05
0.000536127
-0.00025778
0.00106902
-0.000468188
0.00129406
-0.000691401
0.0013664
-0.000917962
0.00138389
-0.00114584
0.00139072
-0.00137536
0.00140023
-0.00160731
0.00141453
-0.00184241
0.00143338
-0.00208135
0.0014564
-0.00232476
0.00148324
-0.00257322
0.00151365
-0.00282727
0.00154739
-0.00308743
0.0015843
-0.00335419
0.00162424
-0.00362804
0.00166715
-0.00390946
0.00171294
-0.00419887
0.00176133
-0.00449665
0.00181189
0.00186521
-0.00480319
-8.27371e-05
0.000618865
-0.000251426
0.00123771
-0.00045838
0.00150101
-0.00067863
0.00158665
-0.000902521
0.00160778
-0.00112785
0.00161605
-0.00135487
0.00162725
-0.00158433
0.00164399
-0.00181696
0.00166602
-0.00205343
0.00169287
-0.00229437
0.00172417
-0.00254033
0.00175961
-0.00279187
0.00179893
-0.0030495
0.00184193
-0.0033137
0.00188844
-0.00358494
0.00193839
-0.0038637
0.00199169
-0.00415041
0.00204804
-0.00444544
0.00210692
0.00216892
-0.00474915
-7.97151e-05
0.00069858
-0.000244034
0.00140203
-0.000446954
0.00170393
-0.000663744
0.00180344
-0.000884524
0.00182856
-0.00110688
0.00183841
-0.00133099
0.00185136
-0.00155757
0.00187056
-0.00178732
0.00189578
-0.00202093
0.00192648
-0.00225898
0.00196223
-0.00250205
0.00200268
-0.00275068
0.00204755
-0.00300535
0.0020966
-0.00326656
0.00214965
-0.00353477
0.0022066
-0.00381044
0.00226736
-0.00409401
0.00233161
-0.00438585
0.00239875
0.00246935
-0.00468627
-7.62851e-05
0.000774865
-0.000235614
0.00156136
-0.000433916
0.00190223
-0.00064675
0.00201628
-0.000863979
0.00204579
-0.00108296
0.00205738
-0.00130375
0.00207215
-0.00152704
0.00209385
-0.00175353
0.00212226
-0.00198386
0.00215681
-0.00221864
0.00219701
-0.00245842
0.00224246
-0.00270372
0.00229285
-0.00295504
0.00234792
-0.00321285
0.00240746
-0.00347761
0.00247136
-0.00374976
0.00253952
-0.00402976
0.0026116
-0.00431795
0.00268695
0.00276603
-0.00461463
-7.24569e-05
0.000847322
-0.00022618
0.00171508
-0.000419277
0.00209533
-0.000627654
0.00222465
-0.000840895
0.00225903
-0.00105608
0.00227257
-0.00127317
0.00228924
-0.00149278
0.00231346
-0.0017156
0.00234509
-0.00194228
0.00238349
-0.00217338
0.00242811
-0.00240947
0.00247855
-0.00265105
0.00253443
-0.0028986
0.00259548
-0.00315261
0.00266147
-0.0034135
0.00273225
-0.00368172
0.00280775
-0.00395772
0.0028876
-0.00424184
0.00297107
0.00305852
-0.00453433
-6.82425e-05
0.000915564
-0.000215745
0.00186258
-0.000403048
0.00228263
-0.000606465
0.00242807
-0.000815283
0.00246785
-0.00102628
0.00248357
-0.00123926
0.00250221
-0.0014548
0.00252901
-0.00167358
0.00256387
-0.0018962
0.00260611
-0.00212325
0.00265516
-0.00235526
0.00271055
-0.00259272
0.00277189
-0.00283612
0.00283888
-0.00308591
0.00291126
-0.00334253
0.00298887
-0.00360641
0.00307163
-0.00387799
0.00315918
-0.00415762
0.0032507
0.00334638
-0.00444548
-6.36552e-05
0.000979219
-0.000204327
0.00200325
-0.000385242
0.00246355
-0.000583194
0.00262602
-0.000787154
0.0026718
-0.00099356
0.00268998
-0.00120205
0.0027107
-0.00141314
0.0027401
-0.00162749
0.00277821
-0.00184569
0.00282431
-0.0020683
0.00287777
-0.00229584
0.00293809
-0.00252879
0.00300485
-0.00276764
0.00307772
-0.00301282
0.00315644
-0.00326476
0.00324082
-0.0035239
0.00333077
-0.00379067
0.00342595
-0.0040654
0.00352543
0.0036292
-0.00434822
-5.87105e-05
0.00103793
-0.000191946
0.00213649
-0.000365874
0.00263748
-0.000557852
0.002818
-0.000756521
0.00287047
-0.000957943
0.0028914
-0.00116156
0.00291432
-0.00136784
0.00294638
-0.00157739
0.00298776
-0.00179079
0.00303771
-0.00200858
0.00309556
-0.00223127
0.00316078
-0.00245934
0.00323292
-0.00269325
0.00331163
-0.00293342
0.00339661
-0.00318029
0.00348768
-0.00343429
0.00358477
-0.00369585
0.00368751
-0.0039653
0.00379488
0.00390659
-0.00424269
-5.3426e-05
0.00109136
-0.000178626
0.00226169
-0.000344964
0.00280381
-0.000530453
0.00300349
-0.000723398
0.00306342
-0.00091945
0.00308745
-0.00111783
0.0031127
-0.00131893
0.00314747
-0.00152331
0.00319215
-0.00173155
0.00324595
-0.00194416
0.00330817
-0.00216163
0.00337825
-0.00238444
0.00345573
-0.00261302
0.00354021
-0.00284781
0.0036314
-0.00308921
0.00372909
-0.00333767
0.00383323
-0.00359365
0.00394349
-0.00385746
0.00405869
0.0041782
-0.00412907
-4.78218e-05
0.00113918
-0.000164395
0.00237826
-0.000322533
0.00296195
-0.000501013
0.00318197
-0.000687803
0.00325021
-0.000878102
0.00327775
-0.00107089
0.00330549
-0.00126644
0.00334303
-0.0014653
0.00339101
-0.00166802
0.00344866
-0.00187509
0.00351524
-0.00208698
0.00359015
-0.00230416
0.0036729
-0.00252704
0.0037631
-0.00275605
0.0038604
-0.00299158
0.00396462
-0.0032341
0.00407574
-0.00348414
0.00419353
-0.00374203
0.00431658
0.00444375
-0.00400758
-4.19202e-05
0.0011811
-0.000149284
0.00248563
-0.000298608
0.00311128
-0.00046955
0.00335291
-0.000649751
0.00343041
-0.000833923
0.00346192
-0.00102076
0.00349232
-0.00121042
0.00353269
-0.00140342
0.00358401
-0.00160027
0.00364551
-0.00180145
0.00371642
-0.00200741
0.00379611
-0.00221859
0.00388408
-0.00243542
0.00397992
-0.00265829
0.00408327
-0.00288757
0.0041939
-0.00312372
0.0043119
-0.00336744
0.00443724
-0.00361917
0.00456832
0.00470305
-0.00387847
-3.57464e-05
0.00121684
-0.000133331
0.00258321
-0.000273218
0.00325116
-0.000436086
0.00351578
-0.000609264
0.00360359
-0.000786938
0.00363959
-0.000967478
0.00367286
-0.00115092
0.00371614
-0.00133773
0.00377082
-0.00152838
0.00383616
-0.00172332
0.00391137
-0.001923
0.00399579
-0.00212783
0.0040889
-0.00233821
0.00419031
-0.00255455
0.00429961
-0.00277716
0.00441652
-0.00300645
0.00454118
-0.00324329
0.00467408
-0.00348876
0.00481379
0.00495631
-0.00374202
-2.93287e-05
0.00124617
-0.000116581
0.00267046
-0.0002464
0.00338098
-0.000400646
0.00367002
-0.000566364
0.00376931
-0.000737175
0.00381041
-0.000911089
0.00384677
-0.00108799
0.00389304
-0.00126828
0.0039511
-0.0014524
0.00402028
-0.00164079
0.00409976
-0.00183385
0.00418885
-0.00203199
0.00428704
-0.0022356
0.00439392
-0.00244509
0.00450911
-0.00266081
0.00463223
-0.00288295
0.00476332
-0.00311236
0.00490349
-0.00335127
0.00505271
0.00520406
-0.00359902
-2.27e-05
0.00126887
-9.90821e-05
0.00274684
-0.000218191
0.00350009
-0.00036326
0.00381509
-0.000521077
0.00392712
-0.000684665
0.00397399
-0.00085163
0.00401374
-0.00102168
0.00406309
-0.00119513
0.00412456
-0.00137241
0.00419756
-0.00155393
0.00428127
-0.00174006
0.00437498
-0.00193117
0.00447815
-0.00212762
0.00459037
-0.00232981
0.0047113
-0.00253806
0.00484049
-0.00275235
0.00497761
-0.00297276
0.00512389
-0.00320317
0.00528312
0.00545023
-0.00344934
-1.59021e-05
0.00128478
-8.08903e-05
0.00281183
-0.000188638
0.00360784
-0.000323963
0.00395042
-0.000473432
0.00407659
-0.000629439
0.00413
-0.000789143
0.00417344
-0.000952038
0.00422598
-0.00111837
0.00429089
-0.00128851
0.00436771
-0.00146285
0.00445561
-0.00164174
0.00455387
-0.00182551
0.00466192
-0.0020145
0.00477936
-0.00220909
0.00490589
-0.0024098
0.00504119
-0.00261699
0.00518481
-0.00283011
0.00533701
-0.00304939
0.0055024
0.00569931
-0.00329846
-9.0046e-06
0.00129378
-6.20554e-05
0.00286488
-0.000157788
0.00370357
-0.000282799
0.00407543
-0.000423464
0.00421726
-0.000571535
0.00427807
-0.000723674
0.00432558
-0.000879132
0.00438144
-0.00103806
0.00444981
-0.00120078
0.00453043
-0.00136765
0.00462249
-0.00153901
0.00472522
-0.00171515
0.00483807
-0.00189638
0.00496059
-0.00208302
0.00509253
-0.00227548
0.00523365
-0.00247414
0.00538347
-0.00267928
0.00554215
-0.00289094
0.00571406
0.00590375
-0.00309539
-2.23019e-06
0.00129601
-4.25893e-05
0.00290524
-0.000125698
0.00378668
-0.000239827
0.00418956
-0.000371214
0.00434864
-0.000510991
0.00441785
-0.000655272
0.00446986
-0.000803021
0.00452919
-0.000954271
0.00460106
-0.00110931
0.00468547
-0.00126845
0.00478163
-0.00143199
0.00488877
-0.00160022
0.0050063
-0.00177341
0.00513377
-0.00195178
0.00527091
-0.00213565
0.00541752
-0.00232542
0.00557323
-0.00252141
0.00573814
-0.00272271
0.00591537
0.00610863
-0.00292759
5.17393e-06
0.00129084
-2.23746e-05
0.00293279
-9.24437e-05
0.00385675
-0.000195119
0.00429223
-0.000316731
0.00447026
-0.000447853
0.00454897
-0.000583991
0.004606
-0.000723772
0.00466897
-0.000867095
0.00474438
-0.00101419
0.00483257
-0.00116535
0.00493278
-0.00132082
0.00504425
-0.00148089
0.00516636
-0.00164578
0.00529866
-0.00181573
0.00544085
-0.00199102
0.00559281
-0.00217214
0.00575435
-0.0023597
0.00592569
-0.00255345
0.00610912
0.0063056
-0.00275042
1.24487e-05
0.00127839
-9.67708e-08
0.00294534
-5.81689e-05
0.00391482
-0.000148736
0.0043828
-0.000260067
0.00458159
-0.000382173
0.00467108
-0.000509886
0.00473371
-0.000641453
0.00480054
-0.000776613
0.00487954
-0.000915535
0.00497149
-0.00105846
0.00507571
-0.00120564
0.00519143
-0.00135731
0.00531804
-0.00151372
0.00545506
-0.00167509
0.00560223
-0.00184175
0.00575947
-0.00201422
0.00592683
-0.00219302
0.00610449
-0.00237742
0.00629352
0.00649317
-0.00256499
1.91551e-05
0.00125923
1.83221e-05
0.00294617
-2.30588e-05
0.0039562
-0.000100817
0.00446056
-0.000201315
0.00468209
-0.000314015
0.00478378
-0.000433021
0.00485272
-0.000556137
0.00492365
-0.000682911
0.00500632
-0.000813436
0.00510202
-0.000947918
0.00521019
-0.00108658
0.00533009
-0.00122964
0.0054611
-0.00137734
0.00560276
-0.00152994
0.00575482
-0.00168775
0.00591729
-0.00185125
0.00609032
-0.00202078
0.00627403
-0.00219554
0.00646828
0.00667129
-0.00237366
2.56841e-05
0.00123355
3.85358e-05
0.00293332
1.29874e-05
0.00398175
-5.16182e-05
0.00452516
-0.000140553
0.00477102
-0.000243459
0.00488668
-0.000353466
0.00496273
-0.000467899
0.00503809
-0.000586078
0.00512449
-0.000708
0.00522394
-0.00083383
0.00533602
-0.000963763
0.00546002
-0.00109801
0.00559534
-0.00123679
0.00574154
-0.00138037
0.0058984
-0.00152905
0.00606597
-0.00168322
0.00624449
-0.00184307
0.00643389
-0.00200797
0.00663318
0.00684003
-0.00217671
3.21249e-05
0.00120142
5.88498e-05
0.00290659
4.86171e-05
0.00399198
-6.84943e-08
0.00457385
-7.78383e-05
0.00484879
-0.000170581
0.00497942
-0.000271285
0.00506343
-0.00037682
0.00514362
-0.00048621
0.00523388
-0.000599336
0.00533707
-0.000716318
0.005453
-0.000837325
0.00558103
-0.000962546
0.00572056
-0.0010922
0.00587119
-0.00122652
0.00603272
-0.0013658
0.00620525
-0.00151032
0.00638901
-0.00166019
0.00658376
-0.0018149
0.00678788
0.0069989
-0.00197378
3.8305e-05
0.00116312
7.90077e-05
0.00286589
8.50247e-05
0.00398597
5.04917e-05
0.00460838
-1.36807e-05
0.00491296
-9.54927e-05
0.00506124
-0.000186567
0.00515451
-0.000282988
0.00524004
-0.000383402
0.0053343
-0.000487554
0.00544122
-0.000595507
0.00556095
-0.000707402
0.00569292
-0.000823405
0.00583657
-0.000943713
0.0059915
-0.00106856
0.00615757
-0.00119818
0.00633487
-0.00133279
0.00652362
-0.00147241
0.00672338
-0.00161665
0.00693212
0.00714744
-0.00176518
4.41197e-05
0.001119
9.88272e-05
0.00281118
0.000121678
0.00396312
0.000103113
0.00462695
5.22396e-05
0.00496384
-1.83738e-05
0.00513185
-9.94224e-05
0.00523556
-0.000186502
0.00532712
-0.000277759
0.00542556
-0.00037277
0.00553623
-0.000471528
0.00565971
-0.000574137
0.00579553
-0.000680738
0.00594317
-0.000791509
0.00610227
-0.000906655
0.00627271
-0.00102638
0.00645459
-0.00115081
0.00664806
-0.00127995
0.00685251
-0.00141351
0.00706569
0.00728533
-0.00155141
4.9492e-05
0.00106951
0.000118082
0.00274259
0.000158255
0.00392294
0.000156367
0.00462884
0.000119675
0.00500053
6.08868e-05
0.00519064
-1.01313e-05
0.00530657
-8.74718e-05
0.00540446
-0.000169398
0.00550748
-0.000255103
0.00562193
-0.000344519
0.00574913
-0.000437681
0.0058887
-0.000534708
0.00604019
-0.000635756
0.00620332
-0.000740997
0.00637795
-0.000850592
0.00656419
-0.000964626
0.00676209
-0.00108307
0.00697096
-0.00120578
0.00718839
0.00741233
-0.00133277
5.43359e-05
0.00101517
0.000136514
0.00266041
0.000194401
0.00386506
0.00020996
0.00461328
0.000188297
0.00502219
0.000141973
0.00523696
8.17895e-05
0.00536676
1.39176e-05
0.00547233
-5.84665e-05
0.00557987
-0.000134685
0.00569815
-0.000214632
0.00582907
-0.000298184
0.00597225
-0.000385487
0.0061275
-0.000476641
0.00629447
-0.000571786
0.0064731
-0.000671046
0.00666345
-0.000774473
0.00686552
-0.00088205
0.00707853
-0.000993719
0.00730006
0.00752817
-0.00110957
5.85671e-05
0.000956604
0.000153857
0.00256512
0.000229732
0.00378918
0.000263543
0.00457947
0.000257802
0.00502793
0.000224647
0.00527012
0.000175614
0.00541579
0.000117968
0.00552998
5.50443e-05
0.00564279
-1.18225e-05
0.00576502
-8.20384e-05
0.00589929
-0.000155815
0.00604602
-0.000233263
0.00620494
-0.000314351
0.00637556
-0.000399233
0.00655798
-0.00048798
0.0067522
-0.000580619
0.00695816
-0.000677177
0.00717509
-0.000777665
0.00740055
0.00763263
-0.000882119
6.21107e-05
0.000894493
0.000169845
0.00245739
0.000263832
0.00369519
0.000316677
0.00452662
0.000327827
0.00501678
0.000308653
0.00528929
0.000271307
0.00545314
0.000224018
0.00557727
0.000170979
0.00569583
0.000113888
0.00582211
5.3196e-05
0.00595998
-1.09112e-05
0.00611013
-7.82493e-05
0.00627228
-0.000149101
0.00644641
-0.000223573
0.00663245
-0.000301644
0.00683027
-0.000383314
0.00703983
-0.0004687
0.00726048
-0.000557895
0.00748975
0.00772549
-0.000650755
6.49028e-05
0.00082959
0.000184197
0.0023381
0.000296237
0.00358315
0.000368848
0.00445401
0.000397927
0.0049877
0.000393663
0.00529356
0.000368641
0.00547816
0.000332084
0.00561383
0.000289055
0.00573886
0.000241745
0.00586942
0.000190934
0.00601079
0.000136856
0.00616421
7.9473e-05
0.00632967
1.88137e-05
0.00650707
-4.50662e-05
0.00669633
-0.000112313
0.00689751
-0.000182868
0.00711039
-0.000256899
0.00733451
-0.000334707
0.00756756
0.00780672
-0.000415944
6.68939e-05
0.000762696
0.000196617
0.00220837
0.000326444
0.00345333
0.000419466
0.00436099
0.000467566
0.0049396
0.000479262
0.00528186
0.000467325
0.0054901
0.000441952
0.0056392
0.000409157
0.00577165
0.000371762
0.00590681
0.000330854
0.0060517
0.000286785
0.00620828
0.000239651
0.0063768
0.000189471
0.00655725
0.000136189
0.00674961
7.97999e-05
0.0069539
2.02735e-05
0.00716991
-4.20782e-05
0.00739686
-0.000107874
0.00763335
0.00787713
-0.000178275
6.80529e-05
0.000694643
0.000206855
0.00206957
0.000353921
0.00330626
0.00046786
0.00424705
0.0005361
0.00487136
0.00056494
0.00525302
0.000566994
0.00548804
0.000553361
0.00565283
0.000531095
0.00579392
0.000503758
0.00593415
0.000472833
0.00608263
0.000438857
0.00624226
0.000402
0.00641366
0.000362314
0.00659694
0.000319811
0.00679212
0.000274497
0.00699922
0.000226415
0.00721799
0.00017543
0.00744784
0.00012122
0.00768756
0.00793607
6.22752e-05
6.83673e-05
0.000626276
0.000214677
0.00192326
0.000378108
0.00314283
0.000513273
0.00411188
0.000602769
0.00478187
0.000650064
0.00520572
0.000667187
0.00547092
0.000665993
0.00565403
0.000654633
0.00580528
0.000637534
0.00595125
0.000616684
0.00610348
0.000592862
0.00626608
0.000566339
0.00644018
0.000537222
0.00662605
0.000505559
0.00682378
0.000471371
0.0070334
0.000434656
0.00725471
0.000395375
0.00748712
0.000353366
0.00772957
0.00798047
0.000308969
6.78443e-05
0.000558432
0.000219889
0.00177122
0.000398439
0.00296428
0.00055487
0.00395545
0.000666679
0.00467006
0.000733858
0.00513855
0.000767321
0.00543746
0.000779443
0.0056419
0.000779484
0.00580524
0.000772861
0.00595787
0.000762196
0.00611414
0.000748585
0.00627969
0.000732445
0.00645632
0.000713948
0.00664455
0.000693176
0.00684455
0.00067018
0.0070564
0.00064498
0.00727991
0.000617588
0.00751452
0.00058794
0.00775922
0.00801245
0.000555958
6.65126e-05
0.000491919
0.000222349
0.00161538
0.000414364
0.00277227
0.000591746
0.00377807
0.000726799
0.00453501
0.000815382
0.00504996
0.000866666
0.00538617
0.000893198
0.00561537
0.000905295
0.00579314
0.000909477
0.00595369
0.000909138
0.00611448
0.000905802
0.00628302
0.000900081
0.00646204
0.000892236
0.0066524
0.000882393
0.00685439
0.000870635
0.00706816
0.000857005
0.00729354
0.000841497
0.00753002
0.000823981
0.00777673
0.00803214
0.000804288
6.44224e-05
0.000427497
0.000221987
0.00145782
0.000425383
0.00256887
0.000622954
0.0035805
0.000781961
0.004376
0.00089351
0.00493841
0.000964304
0.00531538
0.0010066
0.00557308
0.00103161
0.00576812
0.00104706
0.00593824
0.00105725
0.00610429
0.00106427
0.00627601
0.001069
0.00645731
0.00107183
0.00664957
0.00107293
0.00685329
0.00107242
0.00706867
0.00107036
0.0072956
0.00106671
0.00753367
0.00106131
0.00778213
0.00803945
0.00105401
6.16449e-05
0.000365852
0.000218815
0.00130065
0.000431084
0.0023566
0.000647538
0.00336404
0.000830868
0.00419267
0.00096691
0.00480237
0.0010591
0.00522319
0.00111879
0.00551339
0.00115786
0.00572905
0.00118521
0.00591089
0.00120624
0.00608325
0.00122373
0.00625852
0.00123895
0.00644209
0.00125246
0.00663607
0.00126451
0.00684124
0.00127525
0.00705792
0.00128474
0.00728611
0.00129297
0.00752544
0.00129976
0.00777534
0.00803433
0.00130488
5.82698e-05
0.000307582
0.000212936
0.00114598
0.000431187
0.00213835
0.000664588
0.00313064
0.000872126
0.00398513
0.00103404
0.00464046
0.00114965
0.00510757
0.00122868
0.00543436
0.00128326
0.00567448
0.00132341
0.00587074
0.00135574
0.00605093
0.00138389
0.00623036
0.00140966
0.00641632
0.00143385
0.00661188
0.00145684
0.00681826
0.00147881
0.00703595
0.00149986
0.00726506
0.00151999
0.00750531
0.00153905
0.00775628
0.00801669
0.00155668
5.44018e-05
0.00025318
0.00020455
0.000995831
0.000425583
0.00191732
0.000673304
0.00288292
0.000904293
0.00375414
0.00109314
0.00445161
0.00123428
0.00496643
0.0013349
0.00533374
0.00140682
0.00560256
0.00146099
0.00581657
0.00150528
0.00600664
0.00154441
0.00619123
0.00158084
0.00637989
0.00161574
0.00657698
0.00164965
0.00678435
0.00168284
0.00700276
0.00171543
0.00723247
0.00174745
0.00747329
0.00177881
0.00772493
0.00798649
0.00180901
5.0156e-05
0.000203024
0.000193943
0.000852044
0.000414376
0.00169688
0.000673087
0.00262421
0.000925951
0.00350128
0.0011423
0.00423527
0.00131099
0.00479774
0.00143572
0.00520901
0.00152722
0.00551107
0.00159703
0.00574676
0.00165427
0.0059494
0.00170487
0.00614063
0.00175216
0.0063326
0.00179781
0.00653133
0.00184263
0.00673953
0.00188701
0.00695838
0.00193112
0.00718836
0.00197501
0.00742939
0.00201866
0.00768128
0.00794372
0.00206144
4.56523e-05
0.000157372
0.000181477
0.000716219
0.000397898
0.00148046
0.000663616
0.00235849
0.000935823
0.00322907
0.00117948
0.00399161
0.00137748
0.00459974
0.001529
0.00505748
0.00164276
0.00539731
0.00173031
0.0056592
0.00180188
0.00587783
0.00186471
0.00607779
0.00192322
0.0062741
0.00197975
0.00647479
0.00203549
0.00668379
0.00209102
0.00690286
0.0021466
0.00713278
0.00220232
0.00737367
0.00225824
0.00762536
0.00788839
0.00231357
4.10103e-05
0.000116362
0.000167567
0.000589662
0.000376712
0.00127132
0.000644942
0.00209026
0.000932903
0.00294111
0.00120268
0.00372183
0.00143117
0.00437125
0.00161216
0.00487649
0.00175124
0.00525822
0.0018592
0.00555124
0.001947
0.00579004
0.00202322
0.00600158
0.00209352
0.0062038
0.00216117
0.00640714
0.00222789
0.00661706
0.00229455
0.0068362
0.00236155
0.00706578
0.00242903
0.00730618
0.00249718
0.00755722
0.00782056
0.002565
3.63431e-05
8.00185e-05
0.000152658
0.000473348
0.000351578
0.0010724
0.000617543
0.0018243
0.000916619
0.00264203
0.00121004
0.00342841
0.00146933
0.00411197
0.00168218
0.00466364
0.00184992
0.00509049
0.00198151
0.00541966
0.00208806
0.00568348
0.00217934
0.0059103
0.00226238
0.00612075
0.0023416
0.00632792
0.00241946
0.0065392
0.00249725
0.00675841
0.00257562
0.00698742
0.00265479
0.007227
0.0027351
0.00747691
0.00774031
0.00281536
3.17535e-05
4.8265e-05
0.000137194
0.000367908
0.000323409
0.000886183
0.000582338
0.00156537
0.000886984
0.00233739
0.00120013
0.00311526
0.00148924
0.00382286
0.00173568
0.00441719
0.00193541
0.00489076
0.00209436
0.0052607
0.00222292
0.00555493
0.00233161
0.00580161
0.00242886
0.0060235
0.00252042
0.00623636
0.00260975
0.00644987
0.00269876
0.0066694
0.00278847
0.00689771
0.00287925
0.00713622
0.00297164
0.00738451
0.00764772
0.00306423
2.73301e-05
2.09349e-05
0.000121599
0.000273639
0.000293199
0.000714583
0.000540652
0.00131792
0.000844715
0.00203333
0.00117217
0.00278781
0.00148842
0.00350661
0.00176904
0.00413658
0.00200375
0.00465606
0.00219412
0.00507032
0.00234865
0.0054004
0.00247792
0.00567233
0.00259155
0.00590987
0.00269672
0.00613119
0.00279816
0.00634843
0.00289864
0.00656892
0.00299972
0.00679663
0.00310203
0.00703391
0.00320641
0.00728013
0.00754288
0.00331125
2.31454e-05
-2.21057e-06
0.000106257
0.000190527
0.000261953
0.000558887
0.000494112
0.00108576
0.000791275
0.00173616
0.00112627
0.00245282
0.00146507
0.0031678
0.00177872
0.00382292
0.00205046
0.00438432
0.00227629
0.0048445
0.00246137
0.00521533
0.00261532
0.00551838
0.00274839
0.0057768
0.00286917
0.00601041
0.00298383
0.00623377
0.0030963
0.00645645
0.00320893
0.00668401
0.00332275
0.00692009
0.00343903
0.00716384
0.00742591
0.003556
1.92557e-05
-2.14662e-05
9.14923e-05
0.000118291
0.000230617
0.000419763
0.000444509
0.000871865
0.000728802
0.00145187
0.00106366
0.00211795
0.00141838
0.00281308
0.00176169
0.00347962
0.0020709
0.00407511
0.00233558
0.00457982
0.00255609
0.00499481
0.0027397
0.00533477
0.00289638
0.00562013
0.00303574
0.00587104
0.00316549
0.00610403
0.00329094
0.006331
0.00341554
0.00655941
0.00354096
0.00679467
0.00366909
0.00703572
0.0072969
0.0037981
1.56999e-05
-3.71662e-05
7.75722e-05
5.64184e-05
0.000200032
0.000297303
0.000393645
0.000678252
0.000659923
0.00118559
0.000986726
0.00179115
0.00134899
0.00245082
0.00171598
0.00311263
0.0020607
0.00373038
0.00236618
0.00427434
0.00262672
0.00473427
0.0028456
0.00511589
0.00303118
0.00543455
0.00319334
0.00570888
0.00334107
0.0059563
0.00348125
0.00619082
0.00361874
0.00642192
0.00375612
0.00665729
0.00389613
0.00689571
0.00715591
0.00403711
1.25053e-05
-4.96715e-05
6.47004e-05
4.2233e-06
0.000170902
0.000191101
0.000343196
0.000505958
0.000587503
0.000941283
0.00089881
0.00147985
0.00125917
0.00209047
0.00164132
0.00273048
0.00201655
0.00335515
0.00236231
0.00392858
0.00266624
0.00443034
0.00292605
0.00485609
0.0031468
0.0052138
0.00333737
0.00551831
0.00350739
0.00578628
0.00366517
0.00603303
0.00381724
0.00626985
0.00396738
0.00650715
0.00411956
0.00674352
0.00700291
0.00427256
9.68692e-06
-5.93584e-05
5.30233e-05
-3.91131e-05
0.00014378
0.000100345
0.000294609
0.000355129
0.000514361
0.000721531
0.000803916
0.00119029
0.0011528
0.00174158
0.0015396
0.00234368
0.00193701
0.00295774
0.00231913
0.00354645
0.00266734
0.00408212
0.00297274
0.00455069
0.00323533
0.00495121
0.00346122
0.00529242
0.00365948
0.00558802
0.00383931
0.0058532
0.00400887
0.00610029
0.00417344
0.00634257
0.00433852
0.00657845
0.0068376
0.00450384
7.25055e-06
-6.66089e-05
4.26347e-05
-7.44973e-05
0.000119068
2.3911e-05
0.000249047
0.00022515
0.000443034
0.000527544
0.000706246
0.000927078
0.00103502
0.0014128
0.00141505
0.00196365
0.00182339
0.00254941
0.00223389
0.00313595
0.00262349
0.00369252
0.00297668
0.0041975
0.003287
0.0046409
0.00355585
0.00502357
0.00378996
0.00535391
0.00399823
0.00564493
0.00418996
0.00590856
0.00437198
0.00616055
0.00455164
0.00639879
0.00665926
0.00472997
5.19368e-06
-7.18026e-05
3.358e-05
-0.000102884
9.7027e-05
-3.9536e-05
0.000207366
0.000114811
0.000375611
0.000359299
0.000609749
0.00069294
0.000911565
0.00111098
0.00127388
0.00160134
0.00168012
0.00214316
0.00210717
0.00270891
0.00253051
0.00326919
0.0029295
0.0037985
0.00329091
0.00427949
0.00360981
0.00470467
0.00388845
0.00507526
0.00413357
0.00539982
0.00435446
0.00568767
0.00455894
0.00595607
0.00475626
0.00620146
0.00646585
0.00494967
3.50557e-06
-7.53082e-05
2.58595e-05
-0.000125238
7.77804e-05
-9.14569e-05
0.000170115
2.24768e-05
0.00031365
0.000215764
0.000517771
0.000488819
0.000788063
0.000840692
0.00112349
0.00126591
0.00151452
0.00175213
0.0019436
0.00227983
0.00238821
0.00282458
0.00282548
0.00336123
0.00323669
0.00386828
0.00361001
0.00433135
0.00394145
0.00474383
0.00423322
0.00510805
0.00449265
0.00542823
0.00472744
0.00572128
0.00494782
0.00598109
0.00625419
0.00515948
2.16666e-06
-7.74748e-05
1.94295e-05
-0.0001425
6.13267e-05
-0.000133354
0.000137552
-5.3748e-05
0.000258149
9.51662e-05
0.00043284
0.000314128
0.000669422
0.000604109
0.000971425
0.000963908
0.00133579
0.00138777
0.00175172
0.0018639
0.00220157
0.00237473
0.00266381
0.00289898
0.00311708
0.00341501
0.00354388
0.00390455
0.00393329
0.00435442
0.00428115
0.00476019
0.00459028
0.0051191
0.00486584
0.00544573
0.00511869
0.00572823
0.00601866
0.00535422
1.148e-06
-7.86228e-05
1.42039e-05
-0.000155556
4.75462e-05
-0.000166696
0.000109664
-0.000115866
0.000209568
-4.73799e-06
0.000356577
0.000167119
0.000559391
0.000401295
0.000824411
0.000698887
0.00115362
0.00105855
0.00154277
0.00147476
0.00198064
0.00193686
0.00245014
0.00242949
0.00293089
0.00293426
0.0034027
0.00343274
0.00384906
0.00390806
0.00425861
0.00435064
0.00462826
0.00474946
0.00495725
0.00511674
0.0052536
0.00543187
0.00574406
0.0055282
4.13154e-07
-7.9036e-05
1.00548e-05
-0.000165198
3.62128e-05
-0.000192854
8.62019e-05
-0.000165855
0.000167879
-8.64156e-05
0.000289718
4.5281e-05
0.000460368
0.000230645
0.000687612
0.000471643
0.000976757
0.000769408
0.00132881
0.00112271
0.00173903
0.00152664
0.00219649
0.00197203
0.00268504
0.00244571
0.0031855
0.00293228
0.00367882
0.00341474
0.00414853
0.00388093
0.00458333
0.00431466
0.00498036
0.00471971
0.00533142
0.0050808
0.00542891
0.00564658
-9.72335e-08
-7.89388e-05
6.81793e-06
-0.000172113
2.70126e-05
-0.000213049
6.67172e-05
-0.000205559
0.000132646
-0.000152344
0.000232212
-5.42853e-05
0.00037342
8.94369e-05
0.000564307
0.000280756
0.000811894
0.000521821
0.00112074
0.000813855
0.00149142
0.00115596
0.0019193
0.00154415
0.00239422
0.00197078
0.00290133
0.00242517
0.00342263
0.00289344
0.00394046
0.00336309
0.00443692
0.0038182
0.00490299
0.00425364
0.00533513
0.00464867
0.00506177
0.00570227
-4.62646e-07
-7.84761e-05
4.30473e-06
-0.000176881
1.95689e-05
-0.000228313
5.06175e-05
-0.000236608
0.000103112
-0.000204839
0.00018337
-0.000134543
0.000298443
-2.56359e-05
0.000455894
0.000123306
0.000663209
0.000314505
0.000926839
0.000550226
0.00125094
0.000831865
0.00163607
0.00115902
0.00207817
0.00152868
0.00256838
0.00193496
0.0030929
0.00236892
0.00363651
0.00281948
0.00418015
0.00327456
0.00470747
0.00372631
0.00522272
0.00413342
0.00462138
0.00566311
-6.74442e-07
-7.78017e-05
2.32363e-06
-0.000179879
1.34725e-05
-0.000239462
3.7226e-05
-0.000260361
7.83227e-05
-0.000245936
0.000142056
-0.000198277
0.000234434
-0.000118014
0.000362161
-4.42081e-06
0.000532367
0.000144299
0.00075207
0.000330523
0.00102732
0.000556612
0.00136215
0.000824185
0.00175745
0.00113338
0.00221021
0.00148221
0.00271256
0.00186658
0.00325374
0.0022783
0.00381885
0.00270945
0.00438665
0.00315851
0.00496473
0.00355534
0.00410138
0.00548473
-8.38738e-07
-7.69629e-05
6.83961e-07