/*--------------------------------*- C++ -*----------------------------------*\
  =========                 |
  \\      /  F ield         | OpenFOAM: The Open Source CFD Toolbox
   \\    /   O peration     | Website:  https://openfoam.org
    \\  /    A nd           | Version:  7
     \\/     M anipulation  |
\*---------------------------------------------------------------------------*/
FoamFile
{
    version     2.0;
    format      ascii;
    class       volVectorField;
    location    "39.999";
    object      U;
}
// * * * * * * * * * * * * * * * * * * * * * * * * * * * * * * * * * * * * * //

dimensions      [0 1 -1 0 0 0 0];

internalField   nonuniform List<vector> 
11400
(
(-0.00142803 0.00124481 4.05881e-21)
(-0.00777804 0.00280257 -1.4685e-20)
(-0.019036 0.00373035 -1.21272e-21)
(-0.0319386 0.00424177 -2.2554e-21)
(-0.0455313 0.00446802 -1.31176e-20)
(-0.0591449 0.00450631 -1.2592e-20)
(-0.0723424 0.0044255 -2.34296e-21)
(0.017312 0.0129655 1.09347e-20)
(0.0779633 0.023839 -3.84884e-20)
(0.166992 0.0261813 -3.1174e-21)
(0.249947 0.024995 -5.58578e-21)
(0.323958 0.0227984 -3.09724e-20)
(0.389318 0.0205934 -2.84791e-20)
(0.447029 0.0186269 -4.98639e-21)
(0.498243 0.0169034 1.75989e-20)
(0.017312 -0.0129648 -1.09347e-20)
(0.0779632 -0.0238377 3.84884e-20)
(0.166992 -0.0261798 3.1174e-21)
(0.249947 -0.0249935 5.58578e-21)
(0.323958 -0.022797 3.09724e-20)
(0.389318 -0.020592 2.84791e-20)
(0.447029 -0.0186256 4.98639e-21)
(0.498243 -0.0169022 -1.75989e-20)
(0.543892 -0.0153876 -4.22085e-21)
(0.584751 -0.0140503 -5.6517e-21)
(0.621461 -0.0128641 -1.38833e-20)
(0.65456 -0.0118077 -1.82177e-20)
(0.684501 -0.0108629 1.69757e-21)
(0.711664 -0.0100146 7.91771e-21)
(0.736376 -0.00925027 -2.79288e-20)
(0.758914 -0.00855979 -2.4389e-21)
(0.779523 -0.00793377 1.03154e-20)
(0.798408 -0.00736071 1.03062e-20)
(0.815742 -0.00682959 -9.74333e-22)
(0.831646 -0.006347 -2.56935e-21)
(0.0192798 -0.0387758 9.9653e-20)
(0.0814544 -0.0713339 8.58635e-21)
(0.17074 -0.0783689 -4.18636e-20)
(0.253472 -0.0748336 2.78954e-20)
(0.327127 -0.068265 -3.88226e-20)
(0.39214 -0.0616665 -3.26003e-21)
(0.449544 -0.0557805 -3.36499e-20)
(0.500493 -0.0506217 2.66163e-20)
(0.545913 -0.0460877 -7.32729e-21)
(0.586571 -0.0420841 3.99577e-20)
(0.623106 -0.038533 2.90759e-20)
(0.656051 -0.0353701 1.3375e-20)
(0.685856 -0.0325413 4.64259e-20)
(0.7129 -0.0300013 -3.53635e-20)
(0.737505 -0.0277127 3.13507e-20)
(0.759948 -0.0256451 3.00829e-20)
(0.780474 -0.0237703 2.66948e-21)
(0.799292 -0.0220537 -2.61887e-20)
(0.81656 -0.020463 5.98272e-21)
(0.832363 -0.0190197 2.94965e-20)
(0.0231905 -0.0642301 -1.09675e-19)
(0.0884017 -0.11829 2.70484e-20)
(0.178205 -0.130044 1.21145e-19)
(0.260496 -0.124229 -5.3228e-20)
(0.333445 -0.113352 -5.00289e-20)
(0.397764 -0.102409 -2.13465e-20)
(0.454559 -0.0926437 3.15243e-20)
(0.504979 -0.0840834 -1.01715e-20)
(0.54994 -0.0765593 -8.78084e-20)
(0.590199 -0.0699149 -8.08069e-20)
(0.626385 -0.0640212 -6.98294e-21)
(0.659024 -0.0587711 2.38821e-21)
(0.688559 -0.0540752 -1.0706e-20)
(0.715364 -0.0498584 2.27441e-20)
(0.739756 -0.0460587 9.19659e-21)
(0.762009 -0.0426255 3.56769e-20)
(0.782371 -0.0395117 -5.16368e-20)
(0.801056 -0.0366595 3.06615e-20)
(0.818194 -0.0340174 -1.43451e-20)
(0.833794 -0.0316268 -5.05208e-20)
(0.0289939 -0.0890939 -5.38197e-20)
(0.0987354 -0.164351 -3.2721e-20)
(0.189323 -0.180865 -2.07882e-19)
(0.270965 -0.172888 -4.61415e-20)
(0.342866 -0.157806 -1.07896e-19)
(0.406154 -0.142601 -3.71958e-20)
(0.462039 -0.129023 9.89663e-20)
(0.511672 -0.117118 5.64741e-20)
(0.55595 -0.106652 2.09783e-21)
(0.595613 -0.0974093 7.17021e-20)
(0.631278 -0.0892096 -1.56277e-20)
(0.66346 -0.0819044 1.91507e-21)
(0.692593 -0.0753696 -4.77728e-20)
(0.719043 -0.0695006 1.47874e-20)
(0.743117 -0.0642115 -1.19088e-19)
(0.765086 -0.0594321 -9.91739e-20)
(0.785203 -0.0550955 -4.69941e-20)
(0.803688 -0.0511207 1.36829e-20)
(0.820633 -0.0474406 3.41723e-20)
(0.835935 -0.0441246 2.77037e-20)
(0.0366157 -0.11314 1.29722e-19)
(0.112351 -0.209169 -1.17396e-19)
(0.204 -0.2305 -9.51518e-20)
(0.284802 -0.220522 -1.57717e-20)
(0.355324 -0.201382 2.06947e-19)
(0.417251 -0.182029 5.91885e-20)
(0.471936 -0.16473 1.60658e-20)
(0.520528 -0.149558 -4.56229e-20)
(0.563902 -0.136219 -3.90407e-20)
(0.602779 -0.124436 5.49578e-20)
(0.637756 -0.113981 1.29449e-19)
(0.669334 -0.104666 -1.97785e-19)
(0.697935 -0.0963309 7.84259e-20)
(0.723914 -0.0888441 1.83144e-20)
(0.747569 -0.0820959 8.94153e-20)
(0.769163 -0.0759969 5.55513e-20)
(0.788955 -0.0704602 1.45407e-19)
(0.807175 -0.0653812 -2.87338e-20)
(0.823865 -0.0606812 1.20534e-20)
(0.83878 -0.0564692 7.62136e-20)
(0.0459579 -0.136148 -1.38917e-19)
(0.129111 -0.252407 4.78808e-20)
(0.222111 -0.278625 3.03235e-19)
(0.301902 -0.266852 1.61993e-19)
(0.370733 -0.243839 -1.47422e-19)
(0.430982 -0.220483 -9.70042e-20)
(0.484182 -0.199581 8.36244e-20)
(0.531488 -0.181242 7.70626e-20)
(0.573747 -0.165115 4.49911e-20)
(0.611651 -0.150868 -1.60783e-19)
(0.645777 -0.138223 1.51632e-20)
(0.676609 -0.126954 9.84909e-20)
(0.704552 -0.116868 -8.00229e-20)
(0.72995 -0.107807 -1.19941e-19)
(0.753087 -0.0996385 3.36865e-20)
(0.774217 -0.0922538 -1.26911e-19)
(0.793607 -0.0855461 -4.69471e-20)
(0.811497 -0.0793861 2.14026e-20)
(0.827873 -0.073689 -6.04833e-20)
(0.842318 -0.0686172 -3.93308e-20)
(0.0568995 -0.157911 2.44909e-19)
(0.148845 -0.293739 -1.62238e-19)
(0.2435 -0.324927 -2.8023e-20)
(0.322136 -0.311605 -6.73822e-20)
(0.388984 -0.284945 -5.57856e-20)
(0.447252 -0.257762 9.44818e-20)
(0.498698 -0.233399 -1.54452e-19)
(0.544483 -0.212014 -4.01915e-21)
(0.585421 -0.193204 4.00042e-20)
(0.622174 -0.176581 2.59522e-20)
(0.655294 -0.161825 -3.60418e-20)
(0.685241 -0.14867 -8.81877e-20)
(0.712406 -0.136894 -3.33849e-20)
(0.737116 -0.126311 8.13013e-20)
(0.75964 -0.116768 -3.1301e-20)
(0.78022 -0.108139 9.09947e-20)
(0.799132 -0.100295 7.21072e-20)
(0.816629 -0.0930827 -2.35612e-20)
(0.832638 -0.0864152 -4.08957e-20)
(0.846538 -0.0805252 6.48659e-20)
(0.0692978 -0.178233 4.86752e-20)
(0.17135 -0.332856 -2.24993e-21)
(0.267983 -0.369106 5.22639e-20)
(0.345351 -0.354523 4.69687e-21)
(0.40995 -0.324477 -1.24029e-19)
(0.465954 -0.293674 -1.69529e-19)
(0.515388 -0.266015 -1.14287e-19)
(0.559427 -0.241724 -2.08681e-19)
(0.598849 -0.220351 -4.85846e-20)
(0.634282 -0.201458 7.69024e-20)
(0.666247 -0.184682 -6.54859e-20)
(0.695179 -0.169721 1.20228e-19)
(0.721451 -0.156324 1.76248e-19)
(0.745371 -0.144281 -1.70291e-19)
(0.767191 -0.133417 8.86246e-20)
(0.787141 -0.123592 -1.21745e-19)
(0.805501 -0.114653 -9.24831e-20)
(0.822545 -0.106421 -1.01078e-19)
(0.838134 -0.0988129 1.96954e-19)
(0.851424 -0.0921507 2.45904e-21)
(0.0829901 -0.196934 -2.45844e-19)
(0.196394 -0.369466 6.94253e-20)
(0.295349 -0.410877 2.72146e-19)
(0.37137 -0.395358 -3.65038e-20)
(0.433484 -0.362227 1.05412e-20)
(0.486959 -0.328036 -7.30634e-20)
(0.534141 -0.29727 1.10531e-19)
(0.576223 -0.270231 1.11959e-19)
(0.613947 -0.246432 2.55134e-20)
(0.6479 -0.225388 -8.7698e-20)
(0.678569 -0.206694 2.06641e-19)
(0.706364 -0.190018 -9.4783e-20)
(0.731634 -0.175079 -1.12661e-19)
(0.754668 -0.161644 -1.8592e-19)
(0.775698 -0.149522 -4.29136e-20)
(0.79494 -0.138553 -5.39813e-20)
(0.812681 -0.128567 2.38157e-21)
(0.829212 -0.119353 4.14272e-20)
(0.844334 -0.110837 -1.97031e-19)
(0.856961 -0.103452 5.40215e-20)
(0.0977946 -0.213851 -1.18723e-19)
(0.223714 -0.403301 -8.05984e-20)
(0.325357 -0.449974 -7.33101e-20)
(0.399995 -0.433878 -9.26138e-20)
(0.45942 -0.397994 1.31515e-19)
(0.510128 -0.360677 -4.73557e-20)
(0.554833 -0.327013 -2.45888e-19)
(0.594763 -0.297403 3.28622e-19)
(0.630619 -0.27133 1.01581e-19)
(0.662943 -0.248265 2.11991e-19)
(0.692186 -0.227769 -2.74805e-19)
(0.718729 -0.209477 2.4982e-19)
(0.742895 -0.193083 -3.2736e-20)
(0.764953 -0.178333 2.71802e-20)
(0.785114 -0.16502 3.1648e-19)
(0.803578 -0.15297 9.10415e-20)
(0.820633 -0.141988 1.37903e-19)
(0.836595 -0.131834 -6.5303e-21)
(0.851208 -0.122447 9.87938e-20)
(0.863127 -0.114388 -1.42429e-19)
(0.113513 -0.228841 1.84556e-19)
(0.253023 -0.434113 -9.91506e-20)
(0.357743 -0.486149 2.03543e-19)
(0.431004 -0.469868 -1.49559e-19)
(0.487576 -0.431597 1.26495e-19)
(0.535304 -0.39144 7.27544e-20)
(0.577331 -0.355106 4.31071e-19)
(0.614929 -0.323117 -2.87436e-19)
(0.64876 -0.294935 -2.15916e-19)
(0.679318 -0.269994 2.35573e-20)
(0.707015 -0.247819 -2.95891e-20)
(0.7322 -0.22802 -1.14017e-19)
(0.75517 -0.210268 1.80073e-19)
(0.776169 -0.194287 6.5356e-20)
(0.795388 -0.179857 -1.05159e-19)
(0.813007 -0.16679 -2.01467e-19)
(0.829317 -0.154871 -1.62229e-20)
(0.844657 -0.143826 1.17071e-19)
(0.858723 -0.133604 -1.05461e-19)
(0.8699 -0.124922 1.0285e-19)
(0.129931 -0.241782 -1.56875e-19)
(0.284006 -0.461681 -5.28909e-20)
(0.392216 -0.519177 -1.41963e-19)
(0.464159 -0.503129 1.61179e-19)
(0.517753 -0.462867 2.51274e-19)
(0.562319 -0.42018 1.852e-19)
(0.601485 -0.381423 -8.21738e-20)
(0.636591 -0.347263 -1.39265e-19)
(0.668255 -0.31715 2.66315e-19)
(0.696925 -0.290485 -1.17007e-19)
(0.722968 -0.266767 2.05149e-21)
(0.746699 -0.245579 1.20633e-19)
(0.768387 -0.22657 2.5268e-19)
(0.788253 -0.209449 -1.9785e-19)
(0.806463 -0.193981 -1.3e-19)
(0.823177 -0.179969 2.1438e-19)
(0.838686 -0.167176 -1.77334e-19)
(0.853356 -0.15529 3.74073e-21)
(0.866844 -0.144272 1.9627e-19)
(0.877257 -0.135015 5.62998e-20)
(0.146824 -0.252572 1.02668e-19)
(0.316326 -0.485811 -1.05668e-19)
(0.428466 -0.548857 -3.36198e-20)
(0.4992 -0.533485 -1.25244e-20)
(0.549738 -0.491655 -3.86305e-19)
(0.590991 -0.446769 -2.61861e-19)
(0.627141 -0.405853 1.212e-19)
(0.659612 -0.36974 1.07684e-19)
(0.688985 -0.337885 -1.72205e-19)
(0.715656 -0.309661 -2.1386e-19)
(0.739949 -0.284542 1.36965e-19)
(0.762141 -0.262088 -3.99245e-19)
(0.782472 -0.241932 -1.40412e-19)
(0.801137 -0.223766 2.62146e-19)
(0.818279 -0.207346 -2.81575e-20)
(0.834034 -0.192465 -5.02782e-20)
(0.848692 -0.178867 1.29938e-20)
(0.862649 -0.166197 -1.38264e-19)
(0.875533 -0.154423 -1.03101e-19)
(0.885172 -0.144637 -1.00094e-19)
(0.163954 -0.261137 -8.03131e-20)
(0.349627 -0.506341 2.78001e-19)
(0.46616 -0.57501 3.57647e-19)
(0.535852 -0.560777 -9.0006e-20)
(0.583305 -0.517827 2.24802e-19)
(0.621129 -0.471095 4.04705e-20)
(0.654131 -0.428297 -1.84318e-19)
(0.683845 -0.390463 3.0848e-20)
(0.710821 -0.357064 -2.14742e-19)
(0.735399 -0.327453 1.29257e-19)
(0.757858 -0.301081 -8.82177e-20)
(0.778437 -0.277492 3.57713e-19)
(0.797344 -0.256303 9.54757e-20)
(0.81475 -0.237193 9.7346e-20)
(0.830771 -0.219909 -1.579e-19)
(0.845521 -0.20424 7.87876e-21)
(0.859284 -0.18991 1.23397e-19)
(0.872491 -0.176519 1.00889e-19)
(0.884753 -0.164031 8.71951e-20)
(0.89362 -0.153758 4.1606e-20)
(0.181078 -0.267426 -1.72797e-19)
(0.383533 -0.523138 -4.60498e-20)
(0.504945 -0.597487 -9.18852e-20)
(0.573821 -0.58487 2.76616e-20)
(0.618213 -0.54127 -2.71006e-20)
(0.652533 -0.493062 1.23542e-19)
(0.682282 -0.448672 -1.4191e-19)
(0.70914 -0.409357 2.02538e-19)
(0.733628 -0.37462 -2.27552e-19)
(0.756035 -0.3438 9.65844e-21)
(0.77659 -0.316331 2.78013e-19)
(0.795494 -0.291743 -7.66096e-20)
(0.812921 -0.26964 -1.67235e-19)
(0.829017 -0.249692 -1.15251e-19)
(0.843873 -0.231638 1.93912e-19)
(0.857576 -0.215266 1.04875e-19)
(0.870404 -0.200284 -1.40782e-20)
(0.882831 -0.186243 -1.04329e-19)
(0.894467 -0.173086 -1.06475e-19)
(0.902579 -0.162356 1.29329e-19)
(0.197946 -0.271415 2.12202e-19)
(0.417655 -0.536105 -1.34627e-19)
(0.544453 -0.616165 7.79374e-20)
(0.612802 -0.605652 -2.36741e-20)
(0.654215 -0.56189 -1.7012e-19)
(0.684993 -0.512592 -1.17186e-19)
(0.711416 -0.466912 1.79049e-19)
(0.735339 -0.426365 -1.33619e-19)
(0.75727 -0.390501 3.60148e-19)
(0.777442 -0.358655 -1.83803e-20)
(0.796037 -0.330248 -1.85384e-19)
(0.813215 -0.3048 2.61663e-20)
(0.829117 -0.281907 1.65585e-19)
(0.843863 -0.261227 6.81151e-20)
(0.857518 -0.242496 1.90402e-21)
(0.870137 -0.225503 -1.27885e-19)
(0.881993 -0.20995 -3.63512e-20)
(0.893612 -0.195334 -1.50916e-19)
(0.904635 -0.181563 -4.1287e-20)
(0.912033 -0.170413 5.14113e-20)
(0.214308 -0.273107 3.9576e-20)
(0.45159 -0.545178 1.61799e-19)
(0.584299 -0.630951 -1.3478e-19)
(0.652475 -0.623033 -1.5871e-20)
(0.69105 -0.579615 3.25394e-20)
(0.718296 -0.529624 2.45059e-20)
(0.741346 -0.482964 3.99696e-20)
(0.762282 -0.441439 -7.80216e-20)
(0.781603 -0.404666 1.71893e-19)
(0.799495 -0.371981 4.06015e-20)
(0.816089 -0.342799 2.03684e-19)
(0.831501 -0.316634 -2.05013e-19)
(0.845842 -0.293074 -1.11735e-19)
(0.859204 -0.271776 8.32779e-20)
(0.871629 -0.25247 1.0198e-20)
(0.883133 -0.234953 9.26915e-21)
(0.893974 -0.218929 2.69786e-20)
(0.904757 -0.203848 4.25193e-20)
(0.915208 -0.18954 -1.23205e-19)
(0.921979 -0.177972 -2.5453e-19)
(0.229914 -0.272534 -3.88114e-20)
(0.484929 -0.550333 -9.1881e-20)
(0.624087 -0.641782 -5.29695e-20)
(0.692508 -0.636951 -3.10519e-20)
(0.728453 -0.594391 6.94925e-20)
(0.752221 -0.544119 2.41949e-20)
(0.771887 -0.496796 -3.39684e-21)
(0.789804 -0.45455 6.63602e-20)
(0.806486 -0.417086 8.16444e-22)
(0.822068 -0.383751 -1.40344e-19)
(0.836632 -0.353958 -1.67354e-19)
(0.850254 -0.327219 6.19046e-20)
(0.863008 -0.303119 9.66698e-20)
(0.874966 -0.281311 -1.88074e-19)
(0.886146 -0.261521 -1.74311e-19)
(0.896524 -0.24355 -9.73094e-20)
(0.906315 -0.22711 9.034e-20)
(0.916215 -0.211618 -1.77144e-20)
(0.926149 -0.196834 1.53631e-20)
(0.932473 -0.184927 2.05003e-19)
(0.244518 -0.269755 -4.62452e-20)
(0.517258 -0.551579 3.43586e-20)
(0.663409 -0.648624 5.85282e-20)
(0.732561 -0.647366 6.12104e-20)
(0.76615 -0.606187 5.7024e-20)
(0.786545 -0.556052 -1.17282e-19)
(0.802849 -0.508388 -5.02131e-20)
(0.817742 -0.465682 1.29829e-19)
(0.831772 -0.427746 -1.16193e-19)
(0.845032 -0.393951 6.79629e-20)
(0.857554 -0.363712 9.27909e-20)
(0.869371 -0.336542 -3.4516e-20)
(0.880524 -0.31203 -3.51547e-20)
(0.891059 -0.289826 8.84385e-20)
(0.900978 -0.269661 9.00613e-20)
(0.910215 -0.251347 5.53446e-20)
(0.918894 -0.234634 5.77915e-20)
(0.927756 -0.218959 -1.00297e-20)
(0.937156 -0.204006 -4.59247e-20)
(0.943503 -0.191979 -6.91194e-20)
(0.257883 -0.264858 1.58014e-20)
(0.548161 -0.548964 7.08111e-21)
(0.701849 -0.651475 -2.48949e-20)
(0.772285 -0.654267 3.55021e-20)
(0.803864 -0.614995 -5.63087e-20)
(0.821043 -0.565421 8.70418e-20)
(0.834041 -0.517741 1.0236e-19)
(0.845931 -0.474833 -2.71844e-19)
(0.857319 -0.436645 -1.52039e-20)
(0.86826 -0.402576 6.30175e-20)
(0.878742 -0.372055 1.26455e-19)
(0.888755 -0.344597 3.68561e-20)
(0.898303 -0.319796 1.70234e-19)
(0.907406 -0.297306 -5.42546e-20)
(0.916061 -0.276853 -2.02394e-20)
(0.924184 -0.258245 1.91501e-20)
(0.931793 -0.241233 -1.54107e-19)
(0.939551 -0.22524 4.54988e-20)
(0.948371 -0.209936 -3.6742e-20)
(0.955832 -0.197831 9.65452e-20)
(0.269793 -0.257964 3.979e-20)
(0.577216 -0.542571 6.51031e-21)
(0.738983 -0.650366 4.44138e-21)
(0.811325 -0.65767 -7.78221e-21)
(0.841314 -0.620824 -3.14021e-20)
(0.855489 -0.572238 -4.18239e-20)
(0.865275 -0.524868 -3.29315e-20)
(0.874208 -0.482017 7.47521e-20)
(0.882982 -0.443791 -4.39042e-21)
(0.891626 -0.409636 -1.28059e-20)
(0.900085 -0.378992 -8.17698e-20)
(0.908306 -0.351386 2.62995e-20)
(0.916257 -0.326419 -4.53426e-20)
(0.923931 -0.303752 -2.49668e-22)
(0.931318 -0.283112 1.28489e-19)
(0.938345 -0.264306 -1.11162e-20)
(0.944946 -0.247126 9.36764e-20)
(0.951467 -0.231255 1.52839e-20)
(0.958729 -0.217052 2.40639e-20)
(0.966943 -0.206116 -3.90942e-20)
(0.280081 -0.24923 -4.39258e-21)
(0.604002 -0.532507 2.07839e-20)
(0.774388 -0.645371 6.06844e-20)
(0.849322 -0.657619 4.04258e-21)
(0.878217 -0.623705 -2.71373e-20)
(0.889657 -0.576535 3.6876e-20)
(0.896364 -0.529802 2.49297e-20)
(0.902412 -0.487263 3.17424e-20)
(0.908621 -0.44921 1.00256e-19)
(0.915008 -0.415149 -1.18571e-19)
(0.921473 -0.38454 -8.7922e-20)
(0.927927 -0.356922 -2.91797e-20)
(0.934303 -0.331908 -8.93268e-20)
(0.94056 -0.309169 5.69384e-20)
(0.946677 -0.288438 -1.54785e-20)
(0.952602 -0.269512 -1.09826e-19)
(0.958238 -0.252199 1.65451e-20)
(0.963632 -0.236369 4.45375e-20)
(0.969262 -0.222413 -2.92716e-20)
(0.976415 -0.209901 1.6907e-19)
(0.28854 -0.238737 -1.5166e-19)
(0.628111 -0.518896 -8.07512e-20)
(0.807652 -0.63663 -1.36605e-19)
(0.885919 -0.654182 -7.01592e-21)
(0.914288 -0.623685 -1.53299e-20)
(0.923325 -0.578362 1.28424e-20)
(0.927127 -0.53259 -1.94989e-20)
(0.930388 -0.490611 -9.66528e-20)
(0.934102 -0.452937 1.12086e-19)
(0.938284 -0.419145 -4.86083e-20)
(0.942801 -0.388723 6.24565e-20)
(0.947525 -0.361225 4.47362e-20)
(0.952357 -0.336278 6.79487e-20)
(0.957224 -0.313565 1.12493e-20)
(0.962086 -0.292823 -4.91457e-20)
(0.966912 -0.273831 1.63377e-20)
(0.971629 -0.256391 6.57689e-21)
(0.976111 -0.240483 3.72943e-20)
(0.980455 -0.226494 -8.19953e-20)
(0.986167 -0.213075 -1.18095e-19)
(0.29494 -0.226628 1.823e-21)
(0.648971 -0.501856 1.67505e-19)
(0.838477 -0.624363 1.34912e-19)
(0.920774 -0.647444 5.6498e-20)
(0.949242 -0.620829 1.55182e-20)
(0.95627 -0.577783 -3.59187e-21)
(0.957383 -0.533292 -7.68213e-21)
(0.957986 -0.492117 2.35673e-20)
(0.959291 -0.455019 -7.42858e-20)
(0.961339 -0.421665 -1.29052e-20)
(0.963966 -0.391576 -3.11174e-20)
(0.96701 -0.364325 1.0749e-20)
(0.970341 -0.339554 -5.30513e-20)
(0.97386 -0.31696 -1.5499e-20)
(0.977504 -0.296287 3.49571e-20)
(0.98126 -0.2773 -4.76709e-20)
(0.985095 -0.259797 -1.80411e-21)
(0.988811 -0.243856 4.89824e-20)
(0.992222 -0.229893 7.9469e-20)
(0.99671 -0.216035 2.75049e-20)
(0.299247 -0.21312 -5.1845e-20)
(0.66635 -0.481934 -1.19161e-19)
(0.866329 -0.6088 -1.30062e-20)
(0.953603 -0.637395 1.0798e-19)
(0.982803 -0.615209 -4.29528e-20)
(0.988274 -0.57488 2.98519e-20)
(0.986961 -0.531985 3.10289e-21)
(0.985059 -0.491848 -1.96833e-21)
(0.984065 -0.455517 -2.18686e-20)
(0.984064 -0.422761 3.9166e-20)
(0.984871 -0.393143 3.78141e-20)
(0.986295 -0.36626 -3.58236e-20)
(0.98818 -0.341771 5.09577e-21)
(0.990401 -0.319388 -8.91523e-20)
(0.992881 -0.298866 6.12415e-20)
(0.995608 -0.27997 -1.80287e-20)
(0.998583 -0.262501 2.20653e-20)
(1.00157 -0.246602 1.09907e-20)
(1.00419 -0.232701 -1.05982e-19)
(1.00763 -0.21861 -2.71339e-20)
(0.301372 -0.198559 1.50568e-19)
(0.680153 -0.459442 1.80195e-19)
(0.890484 -0.589837 -7.71006e-20)
(0.983978 -0.624248 -8.08565e-20)
(1.01466 -0.60692 -3.73581e-20)
(1.01912 -0.569743 -3.0408e-20)
(1.01569 -0.528752 -2.02951e-20)
(1.01147 -0.489883 -6.14842e-21)
(1.0083 -0.454498 2.55494e-20)
(1.00635 -0.422491 -2.9605e-20)
(1.00542 -0.393476 8.22606e-21)
(1.0053 -0.367076 1.86568e-20)
(1.0058 -0.34297 1.8047e-21)
(1.00678 -0.320888 -2.30479e-20)
(1.00815 -0.3006 -2.48883e-20)
(1.0099 -0.28188 -4.03256e-20)
(1.01203 -0.264528 2.75995e-20)
(1.01428 -0.248717 -1.34283e-20)
(1.01613 -0.234876 2.45833e-20)
(1.01857 -0.2207 9.72987e-22)
(0.301222 -0.183189 -1.45493e-19)
(0.690061 -0.434518 1.68727e-19)
(0.910706 -0.567807 7.20066e-20)
(1.01136 -0.608164 -5.53822e-20)
(1.0446 -0.596087 6.83113e-20)
(1.04859 -0.562494 -4.29041e-20)
(1.04341 -0.523693 4.89342e-20)
(1.03709 -0.486312 1.15548e-20)
(1.03189 -0.452044 -5.53006e-21)
(1.02811 -0.420926 -6.55414e-21)
(1.02554 -0.392635 7.92012e-22)
(1.02394 -0.366826 -1.14413e-20)
(1.02313 -0.343198 -1.50783e-20)
(1.02294 -0.321502 2.20956e-20)
(1.02326 -0.301526 2.17478e-21)
(1.02406 -0.283054 5.61661e-20)
(1.02536 -0.265889 -4.81208e-20)
(1.02687 -0.250203 -4.17803e-21)
(1.02796 -0.236427 -4.48544e-20)
(1.02946 -0.222293 3.45256e-20)
(0.298752 -0.167237 9.88895e-20)
(0.695762 -0.407464 -1.54038e-19)
(0.926853 -0.542993 2.79855e-21)
(1.03534 -0.589349 -2.47965e-20)
(1.07225 -0.582912 -8.462e-20)
(1.07649 -0.553192 1.01268e-19)
(1.06997 -0.516904 -1.50533e-20)
(1.06179 -0.481234 -3.8532e-20)
(1.05474 -0.448242 -5.56069e-21)
(1.04924 -0.418143 6.2763e-21)
(1.04513 -0.390688 9.30021e-22)
(1.04216 -0.365567 -3.12303e-21)
(1.04011 -0.342506 1.27754e-20)
(1.0388 -0.321274 1.00496e-20)
(1.03813 -0.30168 -7.71938e-21)
(1.03804 -0.283522 -3.54623e-20)
(1.03854 -0.266606 2.25935e-20)
(1.03931 -0.251084 2.74429e-20)
(1.03967 -0.2374 1.58082e-20)
(1.04029 -0.223417 -1.07107e-21)
(0.293971 -0.150947 1.16291e-20)
(0.697021 -0.378665 1.84598e-20)
(0.938578 -0.5157 -1.31402e-19)
(1.05575 -0.568038 5.11705e-20)
(1.09723 -0.567468 1.05802e-19)
(1.10257 -0.54198 -1.08649e-19)
(1.09519 -0.508506 1.40715e-20)
(1.08547 -0.474758 4.49415e-20)
(1.07674 -0.443187 -9.67558e-21)
(1.06967 -0.414225 7.17374e-21)
(1.06413 -0.387707 -2.03226e-20)
(1.05988 -0.363364 -1.33309e-21)
(1.05667 -0.340949 2.14113e-21)
(1.05432 -0.320254 -1.33688e-21)
(1.05272 -0.301105 4.17743e-21)
(1.05179 -0.283321 2.17114e-20)
(1.0515 -0.266709 -1.98626e-20)
(1.05156 -0.251396 8.78101e-21)
(1.05125 -0.237838 -2.81507e-20)
(1.05105 -0.224092 -7.0495e-21)
(0.286935 -0.134566 8.00449e-20)
(0.693678 -0.348522 -9.60713e-20)
(0.945511 -0.486233 1.2259e-19)
(1.07222 -0.544406 -5.20268e-20)
(1.11929 -0.549917 3.31536e-20)
(1.12661 -0.529005 5.19662e-20)
(1.11895 -0.498632 -1.96782e-20)
(1.10798 -0.466995 -5.07579e-20)
(1.0978 -0.436979 1.81781e-20)
(1.08931 -0.409262 1.68359e-20)
(1.08247 -0.383771 2.03853e-20)
(1.07704 -0.360284 4.79456e-21)
(1.07276 -0.338587 1.65272e-20)
(1.06945 -0.318492 -1.20394e-21)
(1.06697 -0.299847 -2.36473e-22)
(1.06525 -0.28249 -1.41551e-21)
(1.06422 -0.266234 -6.68882e-21)
(1.06359 -0.251172 1.81083e-21)
(1.06265 -0.23777 1.55669e-20)
(1.06172 -0.22433 -1.04584e-21)
(0.277743 -0.11834 -1.05675e-19)
(0.685642 -0.317448 -1.64139e-19)
(0.947344 -0.454922 -7.08397e-20)
(1.08437 -0.518669 -2.03435e-21)
(1.13817 -0.530431 1.07194e-20)
(1.14839 -0.514414 -1.31958e-19)
(1.14111 -0.4874 6.60686e-20)
(1.12927 -0.458059 -3.10288e-20)
(1.11785 -0.429734 -4.14789e-20)
(1.10811 -0.403346 4.34696e-21)
(1.1001 -0.378963 -2.56857e-20)
(1.09359 -0.3564 -2.22324e-20)
(1.08833 -0.335482 -1.8269e-20)
(1.08414 -0.316043 4.47885e-21)
(1.08085 -0.297952 7.14578e-21)
(1.07839 -0.28107 -2.73521e-22)
(1.07666 -0.265215 4.45408e-21)
(1.07538 -0.250443 -6.23692e-21)
(1.07385 -0.237225 6.6648e-21)
(1.07226 -0.224141 -5.49954e-21)
(0.266536 -0.102506 5.40181e-20)
(0.672896 -0.285871 4.66296e-20)
(0.943831 -0.422126 -2.18232e-19)
(1.09186 -0.491074 7.39462e-20)
(1.15354 -0.509181 -1.49295e-19)
(1.16769 -0.498337 1.00182e-19)
(1.16149 -0.474938 -9.09735e-21)
(1.14924 -0.44807 5.79214e-20)
(1.13684 -0.421547 7.52993e-20)
(1.12601 -0.396586 -3.26313e-21)
(1.11696 -0.37337 3.84667e-20)
(1.10948 -0.351782 3.41045e-20)
(1.10335 -0.3317 -9.6816e-21)
(1.09834 -0.312965 -1.38462e-20)
(1.09432 -0.295472 -3.76139e-21)
(1.09117 -0.279103 5.6478e-21)
(1.08878 -0.263688 -5.5978e-22)
(1.0869 -0.249242 3.33597e-21)
(1.08484 -0.23623 3.22097e-23)
(1.08265 -0.223538 5.27788e-22)
(0.253495 -0.0872882 1.28584e-19)
(0.655502 -0.254231 1.38071e-19)
(0.934782 -0.388228 -4.58599e-20)
(1.09437 -0.461883 2.27899e-19)
(1.16509 -0.486337 4.4682e-20)
(1.18427 -0.480901 -1.60676e-19)
(1.17994 -0.461365 1.10992e-19)
(1.16778 -0.437147 -1.2909e-20)
(1.1547 -0.412539 -7.57004e-21)
(1.14298 -0.38907 -2.77567e-20)
(1.13301 -0.36707 1.40311e-20)
(1.12468 -0.346518 1.10771e-20)
(1.11776 -0.327309 -2.61771e-20)
(1.11203 -0.309312 -2.68208e-21)
(1.10734 -0.292455 -6.10753e-21)
(1.10356 -0.276633 -9.84352e-21)
(1.10057 -0.261694 9.8976e-21)
(1.09812 -0.247608 -5.11015e-21)
(1.0956 -0.234817 -3.01322e-21)
(1.09286 -0.222544 4.48612e-22)
(0.23884 -0.0728909 -2.67992e-19)
(0.633602 -0.222974 8.12572e-20)
(0.920065 -0.353629 1.58382e-21)
(1.09158 -0.431368 -1.39799e-19)
(1.17247 -0.462075 1.58518e-20)
(1.19787 -0.462232 -3.57111e-20)
(1.19629 -0.446797 -3.37435e-20)
(1.18478 -0.425405 -4.66445e-20)
(1.17137 -0.402817 -2.32497e-21)
(1.15896 -0.380897 -2.09176e-20)
(1.14824 -0.360161 -3.7475e-20)
(1.13918 -0.340677 -1.52682e-20)
(1.13155 -0.32237 3.56338e-20)
(1.12518 -0.305152 1.91935e-20)
(1.11989 -0.288958 5.7603e-21)
(1.11554 -0.273705 1.54748e-20)
(1.11199 -0.25927 -1.94055e-20)
(1.10904 -0.245576 4.51502e-21)
(1.10611 -0.233014 3.22979e-21)
(1.1029 -0.221164 3.55724e-22)
(0.222826 -0.0594939 1.91859e-19)
(0.607437 -0.192538 -1.64558e-19)
(0.899618 -0.318743 -6.67513e-20)
(1.0832 -0.399815 1.5762e-19)
(1.17533 -0.436572 1.28881e-20)
(1.2082 -0.442453 1.46545e-21)
(1.21037 -0.431338 5.30973e-20)
(1.20015 -0.412947 -7.47688e-20)
(1.18679 -0.392483 1.20981e-20)
(1.17393 -0.372168 4.07201e-20)
(1.16261 -0.352731 -1.54423e-20)
(1.15293 -0.334335 -3.88027e-20)
(1.14471 -0.316957 1.23323e-21)
(1.13777 -0.300539 -1.39614e-20)
(1.13195 -0.285027 -1.43335e-20)
(1.12709 -0.270365 -2.95864e-20)
(1.12305 -0.256463 1.68621e-20)
(1.11963 -0.243196 -1.26409e-21)
(1.11634 -0.230867 8.76022e-22)
(1.11276 -0.219451 -4.96954e-21)
(0.205731 -0.0472477 -1.72708e-19)
(0.577338 -0.163346 1.56946e-19)
(0.87346 -0.283993 -2.41389e-20)
(1.06898 -0.367522 -1.42787e-20)
(1.17333 -0.41001 1.7816e-20)
(1.21494 -0.421679 -2.48179e-20)
(1.22196 -0.415083 -1.66087e-21)
(1.21378 -0.39987 7.84101e-20)
(1.2009 -0.381635 -3.4841e-21)
(1.18785 -0.362978 4.95037e-21)
(1.1761 -0.344864 2.65618e-21)
(1.16592 -0.327573 5.37271e-21)
(1.15721 -0.311139 -1.4667e-20)
(1.14979 -0.295533 3.4976e-20)
(1.1435 -0.28072 3.51724e-21)
(1.1382 -0.266664 1.73682e-20)
(1.13372 -0.2533 -6.00464e-21)
(1.12987 -0.240486 2.24584e-21)
(1.12627 -0.228432 -8.38976e-21)
(1.1225 -0.217377 7.29566e-21)
(0.187855 -0.0362701 7.42469e-20)
(0.543733 -0.135788 -6.44199e-20)
(0.841709 -0.249805 -2.28248e-20)
(1.04872 -0.334801 -2.34005e-20)
(1.16609 -0.382574 3.10595e-20)
(1.21775 -0.400016 7.62205e-21)
(1.2308 -0.398112 4.07815e-20)
(1.22552 -0.386254 -8.52823e-20)
(1.21365 -0.370362 4.70394e-20)
(1.20069 -0.353416 3.09074e-20)
(1.18869 -0.336646 -1.98722e-20)
(1.17815 -0.320467 3.88579e-20)
(1.16904 -0.304981 4.61541e-22)
(1.16122 -0.290194 9.12093e-21)
(1.15454 -0.276089 1.17152e-20)
(1.14886 -0.262646 -1.48605e-20)
(1.144 -0.249823 1.0821e-20)
(1.13977 -0.237493 3.41784e-21)
(1.13588 -0.225819 1.42637e-22)
(1.13198 -0.215139 -4.49824e-21)
(0.169508 -0.0266424 -3.91877e-20)
(0.507135 -0.110217 1.13723e-20)
(0.804597 -0.216605 7.06906e-20)
(1.02225 -0.301977 -1.45565e-20)
(1.15325 -0.354455 1.70008e-20)
(1.21623 -0.377565 -1.00476e-20)
(1.23662 -0.38049 1.21875e-20)
(1.23518 -0.372167 -8.53954e-21)
(1.22493 -0.358739 -4.94129e-20)
(1.21244 -0.343563 3.03389e-21)
(1.20039 -0.328154 1.70331e-21)
(1.18961 -0.31309 -2.74069e-20)
(1.1802 -0.298551 9.90702e-21)
(1.17206 -0.284581 -1.91948e-21)
(1.16506 -0.271184 -1.58898e-20)
(1.15905 -0.258357 1.32874e-20)
(1.15388 -0.246079 -1.80453e-20)
(1.14933 -0.234244 -5.85169e-21)
(1.14515 -0.222975 4.15003e-21)
(1.14103 -0.212641 -1.73905e-21)
(0.151 -0.0184081 4.40518e-20)
(0.468134 -0.086933 1.44511e-20)
(0.762481 -0.18481 -1.99253e-20)
(0.989513 -0.269386 -7.92334e-21)
(1.13446 -0.32585 -3.19922e-20)
(1.20996 -0.354417 -3.01278e-21)
(1.23904 -0.362265 -7.01657e-21)
(1.24256 -0.357653 1.21409e-21)
(1.23465 -0.346826 -4.58797e-21)
(1.22304 -0.333489 -9.09271e-21)
(1.21118 -0.319463 -4.32879e-21)
(1.20031 -0.305511 1.03545e-20)
(1.1907 -0.29191 1.50735e-21)
(1.18233 -0.278749 -8.1212e-21)
(1.17506 -0.266055 2.85405e-21)
(1.16879 -0.253841 2.44097e-21)
(1.16334 -0.242104 8.97082e-21)
(1.15852 -0.230758 -3.16409e-21)
(1.15408 -0.219878 -2.96735e-21)
(1.14972 -0.209874 -9.71292e-22)
(0.132636 -0.0115726 -9.30135e-21)
(0.427388 -0.0661762 2.23819e-20)
(0.71585 -0.154822 7.53342e-21)
(0.950546 -0.237379 -3.39382e-21)
(1.10938 -0.296968 -8.18777e-21)
(1.19847 -0.330662 1.01259e-20)
(1.23765 -0.343469 8.19038e-21)
(1.24735 -0.342736 -1.34461e-20)
(1.24265 -0.334662 3.47758e-21)
(1.23243 -0.32325 -1.40411e-21)
(1.22105 -0.310636 3.85398e-22)
(1.21025 -0.297794 -4.04859e-21)
(1.20055 -0.285118 -4.73287e-21)
(1.19201 -0.272751 1.03615e-21)
(1.18456 -0.26075 3.3744e-22)
(1.17807 -0.24914 -5.27567e-21)
(1.1724 -0.237934 4.73514e-22)
(1.16735 -0.227065 3.05548e-21)
(1.16271 -0.216559 2.85029e-21)
(1.15816 -0.206879 -9.7213e-23)
(0.114704 -0.00610465 -9.1362e-22)
(0.385599 -0.0481155 1.90205e-20)
(0.665334 -0.127015 1.97697e-21)
(0.905516 -0.206315 3.43631e-21)
(1.07773 -0.268032 -1.44124e-20)
(1.18126 -0.306393 2.50101e-20)
(1.23195 -0.324117 -7.56553e-21)
(1.2492 -0.327417 -4.61044e-21)
(1.2487 -0.322265 -2.02121e-21)
(1.24051 -0.312885 -5.32812e-21)
(1.22996 -0.301724 8.53323e-21)
(1.21943 -0.289996 -9.65945e-21)
(1.20975 -0.27823 -6.10364e-21)
(1.20114 -0.266641 3.10926e-22)
(1.19355 -0.255314 1.86905e-21)
(1.1869 -0.244293 -9.89661e-22)
(1.18105 -0.233607 -3.34112e-21)
(1.17583 -0.223206 3.47233e-21)
(1.17104 -0.21307 4.70708e-21)
(1.16637 -0.203693 3.37694e-21)
(0.0974636 -0.00193947 6.433e-20)
(0.343489 -0.0328423 1.60726e-20)
(0.611697 -0.101723 -3.61036e-20)
(0.854746 -0.176563 1.69074e-20)
(1.03932 -0.239289 -5.18601e-20)
(1.15782 -0.281708 -1.65017e-21)
(1.22138 -0.304216 -1.81466e-20)
(1.24764 -0.311672 2.19298e-20)
(1.25251 -0.309622 2.7071e-21)
(1.24712 -0.302408 -1.80387e-20)
(1.23785 -0.292766 -1.69777e-20)
(1.22783 -0.282165 5.69356e-21)
(1.21832 -0.271298 5.1925e-21)
(1.20971 -0.260464 -8.16708e-21)
(1.20206 -0.249791 2.20788e-21)
(1.1953 -0.239342 2.75288e-21)
(1.18933 -0.229159 1.61024e-20)
(1.18398 -0.219219 -2.98318e-21)
(1.17907 -0.209456 -8.54319e-21)
(1.17434 -0.200349 5.56246e-21)
(0.0811439 0.00101668 -4.67229e-20)
(0.301775 -0.0203669 -5.12131e-21)
(0.555827 -0.0792262 9.42369e-20)
(0.79875 -0.148498 -4.94069e-20)
(0.994065 -0.211011 5.64799e-20)
(1.12765 -0.256725 -1.35062e-20)
(1.2053 -0.283767 -4.26247e-21)
(1.2421 -0.295454 -5.44625e-21)
(1.25369 -0.296695 -4.55117e-20)
(1.25204 -0.291809 -1.55954e-20)
(1.24463 -0.283779 1.72854e-20)
(1.23544 -0.274336 -3.4742e-20)
(1.22626 -0.264362 -1.94868e-20)
(1.21775 -0.254264 9.30521e-21)
(1.21009 -0.244223 -1.76181e-20)
(1.20328 -0.234326 5.7111e-21)
(1.19723 -0.224628 -2.75588e-20)
(1.19179 -0.215135 1.16895e-20)
(1.1868 -0.205751 -5.56597e-21)
(1.18204 -0.196873 1.13977e-20)
(0.0659329 0.00288093 3.56395e-20)
(0.261138 -0.0106197 7.57094e-22)
(0.498704 -0.0597352 -5.5146e-20)
(0.738243 -0.122489 -2.81407e-20)
(0.942073 -0.183504 4.86873e-20)
(1.09031 -0.23159 -2.14202e-20)
(1.18299 -0.262775 1.55446e-20)
(1.23189 -0.2787 -4.11113e-21)
(1.25171 -0.283412 -5.91504e-22)
(1.25495 -0.281047 1.14736e-20)
(1.25012 -0.274755 -6.40844e-21)
(1.24218 -0.266527 5.58417e-20)
(1.23355 -0.257455 8.96981e-21)