/*--------------------------------*- C++ -*----------------------------------*\
  =========                 |
  \\      /  F ield         | OpenFOAM: The Open Source CFD Toolbox
   \\    /   O peration     | Website:  https://openfoam.org
    \\  /    A nd           | Version:  7
     \\/     M anipulation  |
\*---------------------------------------------------------------------------*/
FoamFile
{
    version     2.0;
    format      ascii;
    class       surfaceScalarField;
    location    "10";
    object      phi;
}
// * * * * * * * * * * * * * * * * * * * * * * * * * * * * * * * * * * * * * //

dimensions      [0 3 -1 0 0 0 0];

internalField   nonuniform List<scalar> 
97840
(
-5.35162e-06
5.35262e-06
-9.9958e-10
-1.85507e-05
1.32011e-05
-2.03314e-09
-3.79816e-05
1.94334e-05
-2.40704e-09
-6.24576e-05
2.44783e-05
-2.29851e-09
-9.11305e-05
2.86747e-05
-1.85391e-09
-0.000123415
3.22859e-05
-1.18956e-09
-0.000158933
3.55177e-05
-3.79957e-10
-0.000197466
3.85331e-05
5.41398e-10
-0.000238927
4.14589e-05
1.57424e-09
-0.00028332
4.43911e-05
2.73725e-09
-0.000330724
4.73996e-05
4.06024e-09
-0.000381263
5.05336e-05
5.57005e-09
-0.000435096
5.38256e-05
7.29207e-09
-0.000492402
5.72969e-05
9.24531e-09
-0.000553375
6.09614e-05
1.14419e-08
-0.000618219
6.48303e-05
1.38907e-08
-0.000687151
6.89155e-05
1.65952e-08
-0.000760405
7.32335e-05
1.95556e-08
-0.000838237
7.781e-05
2.27672e-08
-0.000920946
8.26828e-05
2.62205e-08
-0.00100888
8.7908e-05
2.98997e-08
-0.00110247
9.35566e-05
3.37806e-08
-0.00120218
9.96659e-05
3.78341e-08
-0.00130851
0.000106293
4.20203e-08
0.000113865
4.62794e-08
-0.00142242
-5.27774e-06
1.06304e-05
-1.83112e-05
2.62345e-05
-3.75099e-05
3.86321e-05
-6.16997e-05
4.86682e-05
-9.00365e-05
5.70115e-05
-0.000121933
6.41823e-05
-0.000157004
7.05883e-05
-0.000195022
7.65519e-05
-0.000235888
8.23241e-05
-0.000279591
8.80948e-05
-0.000326194
9.4002e-05
-0.000375802
0.000100142
-0.000428554
0.000106578
-0.000484606
0.000113349
-0.000544125
0.00012048
-0.000607284
0.00012799
-0.000674265
0.000135896
-0.000745258
0.000144226
-0.000820471
0.000153023
-0.000900142
0.000162354
-0.000984556
0.000172322
-0.00107407
0.000183066
-0.00116906
0.000194663
-0.00126998
0.000207211
0.000221538
-0.00137765
-5.13213e-06
1.57625e-05
-1.78387e-05
3.89411e-05
-3.65783e-05
5.73717e-05
-6.02019e-05
7.22918e-05
-8.78731e-05
8.46827e-05
-0.000119001
9.53099e-05
-0.000153187
0.000104774
-0.000190186
0.000113551
-0.000229872
0.000122011
-0.000272211
0.000130433
-0.000317228
0.00013902
-0.000364997
0.000147911
-0.000415615
0.000157195
-0.000469193
0.000166926
-0.000525846
0.000177134
-0.00058569
0.000187834
-0.000648836
0.000199042
-0.000715393
0.000210783
-0.000785475
0.000223104
-0.000859205
0.000236085
-0.000936741
0.000249858
-0.00101829
0.000264618
-0.00110413
0.000280498
-0.00119452
0.000297608
0.000317115
-0.0012901
-4.91907e-06
2.06816e-05
-1.71459e-05
5.11679e-05
-3.52105e-05
7.54363e-05
-5.8e-05
9.50813e-05
-8.46898e-05
0.000111372
-0.000114683
0.000125303
-0.000147563
0.000137654
-0.000183057
0.000149046
-0.000221006
0.00015996
-0.000261332
0.000170759
-0.000304018
0.000181705
-0.000349082
0.000192975
-0.000396566
0.000204679
-0.000446517
0.000216877
-0.000498977
0.000229594
-0.000553979
0.000242836
-0.000611537
0.0002566
-0.000671648
0.000270894
-0.000734291
0.000285747
-0.000799437
0.00030123
-0.000867059
0.000317481
-0.000937174
0.000334733
-0.00100987
0.000353193
-0.00108522
0.000372963
0.00039545
-0.00116356
-4.64472e-06
2.53263e-05
-1.62515e-05
6.27747e-05
-3.34409e-05
9.26256e-05
-5.51465e-05
0.000116787
-8.05585e-05
0.000136784
-0.000109073
0.000153817
-0.000140251
0.000168832
-0.000173785
0.00018258
-0.000209471
0.000195646
-0.000247181
0.000208469
-0.000286838
0.000221362
-0.000328396
0.000234534
-0.000371825
0.000248108
-0.000417092
0.000262143
-0.00046415
0.000276652
-0.00051293
0.000291616
-0.000563332
0.000307002
-0.000615216
0.000322778
-0.000668403
0.000338935
-0.000722679
0.000355506
-0.000777802
0.000372604
-0.000833545
0.000390475
-0.000889777
0.000409425
-0.000946367
0.000429553
0.000452348
-0.00100327
-4.31699e-06
2.96433e-05
-1.51793e-05
7.3637e-05
-3.13137e-05
0.00010876
-5.17087e-05
0.000137182
-7.55725e-05
0.000160648
-0.000102293
0.000180538
-0.000131405
0.000197944
-0.00016256
0.000213736
-0.000195504
0.00022859
-0.000230047
0.000243011
-0.000266044
0.000257359
-0.000303375
0.000271865
-0.000341925
0.000286658
-0.000381571
0.000301789
-0.000422166
0.000317247
-0.000463528
0.000332978
-0.000505429
0.000348903
-0.000547584
0.000364934
-0.000589646
0.000380997
-0.000631199
0.00039706
-0.00067177
0.000413174
-0.000710858
0.000429563
-0.000748083
0.00044665
-0.000783119
0.000464589
0.00048469
-0.000815462
-3.9452e-06
3.35885e-05
-1.39575e-05
8.36493e-05
-2.88818e-05
0.000123684
-4.77676e-05
0.000156068
-6.98434e-05
0.000182724
-9.44889e-05
0.000205183
-0.00012121
0.000224665
-0.000149614
0.00024214
-0.000179388
0.000258364
-0.000210277
0.0002739
-0.000242061
0.000289143
-0.000274536
0.00030434
-0.000307498
0.00031962
-0.000340725
0.000335017
-0.000373964
0.000350486
-0.000406916
0.00036593
-0.000439224
0.000381211
-0.000470457
0.000396167
-0.000500101
0.00041064
-0.000527547
0.000424506
-0.000552088
0.000437715
-0.000572944
0.00045042
-0.000589456
0.000463162
-0.000601135
0.000476268
0.000490457
-0.000606902
-3.53978e-06
3.71282e-05
-1.26182e-05
9.27277e-05
-2.6205e-05
0.000137271
-4.3415e-05
0.000173278
-6.34986e-05
0.000202808
-8.58274e-05
0.000227512
-0.000109876
0.000248714
-0.000135207
0.00026747
-0.000161445
0.000284602
-0.000188265
0.00030072
-0.000215368
0.000316246
-0.000242463
0.000331435
-0.000269252
0.000346409
-0.000295413
0.000361178
-0.000320585
0.000375658
-0.000344354
0.0003897
-0.000366238
0.000403095
-0.000385672
0.000415601
-0.000401989
0.000426957
-0.000414404
0.000436921
-0.000422006
0.000445317
-0.000423748
0.000452162
-0.000418664
0.000458079
-0.000406203
0.000463807
0.000468641
-0.000384387
-3.1119e-06
4.02401e-05
-1.11956e-05
0.000100811
-2.33481e-05
0.000149424
-3.87507e-05
0.00018868
-5.66772e-05
0.000220734
-7.6491e-05
0.000247326
-9.76365e-05
0.000269859
-0.000119627
0.00028946
-0.000142027
0.000307003
-0.00016444
0.000323133
-0.000186486
0.000338291
-0.000207785
0.000352735
-0.000227947
0.000366571
-0.00024655
0.00037978
-0.000263129
0.000392237
-0.000277161
0.000403732
-0.00028805
0.000413985
-0.000295112
0.000422662
-0.00029755
0.000429395
-0.00029444
0.000433811
-0.000284699
0.000435576
-0.000267054
0.000434517
-0.000240157
0.000431182
-0.000203856
0.000427505
0.000419547
-0.000154762
-2.67312e-06
4.29133e-05
-9.72563e-06
0.000107864
-2.03791e-05
0.000160077
-3.38804e-05
0.000202182
-4.95265e-05
0.00023638
-6.66732e-05
0.000264472
-8.47352e-05
0.000287921
-0.000103178
0.000307903
-0.000121508
0.000325333
-0.000139255
0.00034088
-0.00015596
0.000354996
-0.000171159
0.000367934
-0.00018437
0.000379782
-0.000195076
0.000390486
-0.000202714
0.000399876
-0.000206663
0.00040768
-0.000206226
0.000413548
-0.000200618
0.000417054
-0.000188943
0.000417721
-0.000170169
0.000415036
-0.000143094
0.000408501
-0.000106297
0.00039772
-5.77879e-05
0.000382673
5.24719e-06
0.00036447
0.000348378
7.64163e-05
-2.235e-06
4.51483e-05
-8.24446e-06
0.000113873
-1.7367e-05
0.0001692
-2.89116e-05
0.000213726
-4.2197e-05
0.000249665
-5.65725e-05
0.000278848
-7.14243e-05
0.000302773
-8.61734e-05
0.000322652
-0.000100267
0.000339426
-0.000113168
0.000353781
-0.000124342
0.000366169
-0.000133243
0.000376835
-0.000139302
0.000385841
-0.000141916
0.000393099
-0.000140431
0.000398391
-0.000134137
0.000401387
-0.000122252
0.000401662
-0.000103906
0.000398709
-7.81302e-05
0.000391944
-4.38224e-05
0.000380728
2.89035e-07
0.00036439
5.56887e-05
0.00034232
0.000124298
0.000314064
0.000206933
0.000281835
0.000246968
0.000308342
-1.80867e-06
4.69569e-05
-6.78731e-06
0.000118852
-1.43796e-05
0.000176792
-2.39503e-05
0.000223297
-3.48383e-05
0.000260553
-4.63862e-05
0.000290396
-5.7954e-05
0.000314341
-6.8921e-05
0.000333619
-7.86805e-05
0.000349186
-8.66318e-05
0.000361733
-9.21692e-05
0.000371707
-9.46712e-05
0.000379337
-9.34899e-05
0.00038466
-8.79397e-05
0.000387549
-7.72877e-05
0.000387739
-6.07431e-05
0.000384842
-3.74478e-05
0.000378367
-6.46475e-06
0.000367726
3.3237e-05
0.000352243
8.28032e-05
0.000331162
0.000143539
0.000303654
0.000216918
0.000268941
0.000305054
0.000225928
0.000409268
0.000177621
0.000121235
0.000535001
-1.40456e-06
4.83615e-05
-5.38737e-06
0.000122835
-1.14811e-05
0.000182886
-1.90981e-05
0.000230914
-2.75934e-05
0.000269049
-3.63035e-05
0.000299106
-4.45642e-05
0.000322601
-5.17168e-05
0.000340772
-5.71052e-05
0.000354574
-6.00701e-05
0.000364698
-5.99409e-05
0.000371578
-5.60263e-05
0.000375422
-4.76052e-05
0.000376239
-3.39176e-05
0.000373862
-1.41557e-05
0.000367977
1.25443e-05
0.000358142
4.71106e-05
0.000343801
9.05453e-05
0.000324291
0.000143936
0.000298852
0.00020847
0.000266628
0.000285491
0.000226633
0.000376408
0.000178024
0.000483561
0.000118775
0.000608083
5.30992e-05
-2.82329e-05
0.000757551
-1.03199e-06
4.93935e-05
-4.07466e-06
0.000125877
-8.73029e-06
0.000187541
-1.44477e-05
0.000236632
-2.05941e-05
0.000275195
-2.64988e-05
0.00030501
-3.14755e-05
0.000327578
-3.4831e-05
0.000344127
-3.58643e-05
0.000355608
-3.3863e-05
0.000362696
-2.80965e-05
0.000365811
-1.78088e-05
0.000365134
-2.21029e-06
0.00036064
1.95298e-05
0.000352122
4.82915e-05
0.000339215
8.50115e-05
0.000321422
0.000130691
0.000298121
0.000186403
0.000268579
0.000253304
0.00023195
0.00033264
0.000187292
0.000425824
0.000133449
0.000534187
6.96616e-05
0.000660304
-7.34279e-06
0.000804667
-9.12633e-05
-0.000201269
0.000977703
-6.9891e-07
5.00924e-05
-2.87504e-06
0.000128054
-6.17791e-06
0.000190844
-1.00803e-05
0.000240534
-1.39555e-05
0.00027907
-1.71241e-05
0.000308179
-1.88791e-05
0.000329333
-1.84955e-05
0.000343744
-1.52312e-05
0.000352343
-8.32421e-06
0.000355789
3.01228e-06
0.000354475
1.95966e-05
0.00034855
4.22857e-05
0.000337951
7.19824e-05
0.000322425
0.000109643
0.000301555
0.000156285
0.00027478
0.000212995
0.000241411
0.000280938
0.000200637
0.000361365
0.000151523
0.00045561
9.30469e-05
0.000565214
2.38446e-05
0.000691445
-5.65696e-05
0.000837192
-0.000153089
0.00100184
-0.000255916
-0.000398441
0.00119902
-4.11657e-07
5.05041e-05
-1.80925e-06
0.000129451
-3.86509e-06
0.0001929
-6.06165e-06
0.000242731
-7.77087e-06
0.00028078
-8.30225e-06
0.00030871
-6.92756e-06
0.000327959
-2.89158e-06
0.000339708
4.58739e-06
0.000344864
1.63193e-05
0.000344057
3.31474e-05
0.000337647
5.5954e-05
0.000325744
8.5668e-05
0.000308237
0.000123272
0.000284821
0.000169813
0.000255014
0.000226405
0.000218187
0.000294247
0.00017357
0.000374622
0.000120262
0.00046892
5.72252e-05
0.000578601
-1.66337e-05
0.000705384
-0.000102939
0.00085052
-0.000201705
0.00101728
-0.00031985
0.00120361
-0.000442243
-0.000620989
0.00142616
-1.74882e-07
5.06789e-05
-8.9219e-07
0.000130168
-1.82148e-06
0.000193829
-2.43912e-06
0.000243348
-2.10727e-06
0.000280448
-1.19143e-07
0.000306722
4.27473e-06
0.000323565
1.18629e-05
0.00033212
2.34673e-05
0.00033326
3.99487e-05
0.000327576
6.22111e-05
0.000315384
9.12091e-05
0.000296746
0.000127955
0.000271491
0.00017353
0.000239246
0.00022909
0.000199454
0.00029588
0.000151398
0.00037524
9.42096e-05
0.000468615
2.6887e-05
0.000577566
-5.17263e-05
0.00070372
-0.000142787
0.00084899
-0.000248209
0.00101465
-0.000367366
0.00120432
-0.00050952
0.00141439
-0.000652309
-0.00087035
0.00166375
4.64626e-09
5.06743e-05
-1.3186e-07
0.000130305
-6.25926e-08
0.00019376
7.60749e-07
0.000242525
2.9986e-06
0.00027821
7.37873e-06
0.000302342
1.46799e-05
0.000316263
2.57248e-05
0.000321075
4.13824e-05
0.000317602
6.25718e-05
0.000306387
9.02693e-05
0.000287687
0.000125517
0.000261498
0.000169432
0.000227576
0.000223217
0.00018546
0.000288174
0.000134498
0.000365708
7.38628e-05
0.000457344
2.57448e-06
0.000564717
-8.04865e-05
0.000689589
-0.000176599
0.000833762
-0.00028696
0.000999284
-0.000413731
0.00118747
-0.000555549
0.00140201
-0.000724064
0.00163796
-0.000888259
-0.00114732
0.00191493
1.42103e-07
5.05322e-05
4.70403e-07
0.000129977
1.40592e-06
0.000192825
3.53401e-06
0.000240397
7.54443e-06
0.000274199
1.41965e-05
0.00029569
2.43045e-05
0.000306155
3.8736e-05
0.000306643
5.84169e-05
0.000297921
8.4339e-05
0.000280465
0.000117569
0.000254456
0.00015926
0.000219807
0.000210663
0.000176173
0.000273138
0.000122986
0.000348164
5.94717e-05
0.000437347
-1.53204e-05
0.00054242
-0.000102499
0.000665228
-0.000203294
0.000807711
-0.000319082
0.000971809
-0.000451058
0.00115953
-0.000601457
0.00137219
-0.000768206
0.001613
-0.000964878
0.0018762
-0.00115146
-0.001451
0.00217989
2.21283e-07
5.03109e-05
9.20591e-07
0.000129277
2.5992e-06
0.000191146
5.9018e-06
0.000237094
1.1564e-05
0.000268537
2.03876e-05
0.000286866
3.32341e-05
0.000293309
5.10294e-05
0.000288848
7.47736e-05
0.000274177
0.000105552
0.000249686
0.000144548
0.000215461
0.000193056
0.000171299
0.000252495
0.000116734
0.000324417
5.10636e-05
0.000410514
-2.66251e-05
0.000512612
-0.000117419
0.000632657
-0.000222543
0.000772668
-0.000343305
0.000934679
-0.000481093
0.00112065
-0.000637027
0.00133226
-0.000813071
0.00157066
-0.00100661
0.00183784
-0.00123205
0.00212794
-0.00144156
-0.0017779
0.00245484
2.53953e-07
5.0057e-05
1.23202e-06
0.000128299
3.54311e-06
0.000188835
7.90961e-06
0.000232728
1.51284e-05
0.000261318
2.60587e-05
0.000275936
4.16256e-05
0.000277742
6.28327e-05
0.000267641
9.07767e-05
0.000246233
0.000126664
0.000213799
0.000171828
0.000170297
0.000227738
0.000115389
0.000296016
4.84561e-05
0.000378437
-3.13571e-05
0.000476919
-0.000125108
0.000593503
-0.000234002
0.000730295
-0.000359335
0.000889393
-0.000502403
0.00107275
-0.000664446
0.0012821
-0.00084638
0.00151845
-0.00104942
0.00178247
-0.00127063
0.00207413
-0.00152372
0.00238828
-0.0017557
-0.00212151
0.00273189
2.46048e-07
4.98109e-05
1.42523e-06
0.00012712
4.27917e-06
0.000185981
9.62734e-06
0.00022738
1.83455e-05
0.0002526
3.13687e-05
0.000262913
4.97066e-05
0.000259404
7.44647e-05
0.000242883
0.000106866
0.000213832
0.000148271
0.000172394
0.000200194
0.000118374
0.000264319
5.12639e-05
0.000342495
-2.972e-05
0.000436729
-0.000125592
0.000549152
-0.00023753
0.000681954
-0.000366804
0.000837289
-0.00051467
0.00101714
-0.000682257
0.00122311
-0.000870412
0.00145637
-0.00107964
0.00171686
-0.00130991
0.00200437
-0.00155814
0.00231629
-0.00183564
0.00264878
-0.0020882
-0.00247274
0.00300001
2.05541e-07
4.96054e-05
1.52715e-06
0.000125798
4.86233e-06
0.000182646
1.11476e-05
0.000221094
2.13575e-05
0.00024239
3.65248e-05
0.000247746
5.77693e-05
0.00023816
8.63277e-05
0.000214324
0.000123582
0.000176578
0.000171081
0.000124895
0.000230557
5.88975e-05
0.000303927
-2.21061e-05
0.000393278
-0.000119071
0.000500826
-0.00023314
0.000628844
-0.000365548
0.000779546
-0.000517506
0.00095493
-0.000690055
0.00115659
-0.00088392
0.00138543
-0.00109925
0.00164163
-0.00133584
0.00192377
-0.00159205
0.00223029
-0.00186465
0.00255593
-0.00216129
0.00289845
-0.00243072
-0.00282107
0.00324679
1.42187e-07
4.94632e-05
1.57039e-06
0.00012437
5.35928e-06
0.000178857
1.25828e-05
0.000213871
2.43365e-05
0.000230637
4.17762e-05
0.000230306
6.61607e-05
0.000213775
9.8891e-05
0.000181594
0.000141542
0.000133927
0.000195885
7.05522e-05
0.00026389
-9.10806e-06
0.000347716
-0.000105932
0.00044966
-0.000221015
0.000572076
-0.000355555
0.000717245
-0.000510718
0.000887201
-0.000687462
0.0010835
-0.000886357
0.001307
-0.00110742
0.00155754
-0.00134978
0.00183388
-0.00161219
0.0021331
-0.00189126
0.00245195
-0.00218351
0.002783
-0.00249233
0.00312551
-0.00277324
-0.00315625
0.00346069
6.71041e-08
4.93961e-05
1.59209e-06
0.000122845
5.84608e-06
0.000174603
1.40615e-05
0.000205655
2.74785e-05
0.00021722
4.74042e-05
0.00021038
7.52683e-05
0.000185911
0.000112669
0.000144193
0.000161408
8.51886e-05
0.000223498
8.46193e-06
0.000301157
-8.67675e-05
0.000396758
-0.000201533
0.000512738
-0.000336994
0.000651454
-0.000494272
0.000814993
-0.000674257
0.00100493
-0.000877394
0.00122203
-0.00110346
0.00146605
-0.00135144
0.00173542
-0.00161915
0.00202723
-0.001904
0.00233706
-0.00220109
0.00265996
-0.00250641
0.00298729
-0.00281966
0.00331945
-0.0031054
-0.00346983
0.00363303
-6.54221e-09
4.94026e-05
1.63254e-06
0.000121206
6.4053e-06
0.00016983
1.57227e-05
0.000196338
3.09951e-05
0.000201947
5.37104e-05
0.000187665
8.55013e-05
0.00015412
0.000128195
0.000101499
0.000183841
2.95427e-05
0.000254706
-6.24024e-05
0.000343228
-0.00017529
0.00045193
-0.000310235
0.000583259
-0.000468323
0.000739382
-0.000650394
0.000921915
-0.00085679
0.00113163
-0.00108711
0.00136819
-0.00134002
0.00162987
-0.00161312
0.00191354
-0.00190282
0.00221452
-0.00220498
0.0025272
-0.00251377
0.00284525
-0.00282446
0.00316011
-0.00313451
0.00347278
-0.00341807
-0.00375617
0.00375912
-6.9864e-08
4.94725e-05
1.73317e-06
0.000119403
7.12267e-06
0.000164441
1.77108e-05
0.00018575
3.51045e-05
0.000184554
6.10021e-05
0.000161767
9.72692e-05
0.000117853
0.000145987
5.27815e-05
0.000209462
-3.39325e-05
0.000290195
-0.000143136
0.000390791
-0.000275886
0.0005138
-0.000433244
0.000661497
-0.00061602
0.000835593
-0.00082449
0.00103692
-0.00105812
0.00126512
-0.00131531
0.00151839
-0.0015933
0.00179341
-0.00188813
0.00208541
-0.00219482
0.00238827
-0.00250784
0.00269561
-0.00282111
0.00300041
-0.00312927
0.00329552
-0.00342962
0.00358198
-0.00370453
-0.00401271
0.00383852
-1.06916e-07
4.95794e-05
1.93573e-06
0.000117361
8.08346e-06
0.000158293
2.0169e-05
0.000173664
4.00213e-05
0.000164701
6.95769e-05
0.000132212
0.000110959
7.6471e-05
0.000166514
-2.77366e-06
0.000238798
-0.000106216
0.000330496
-0.000234834
0.000444272
-0.000389663
0.000582538
-0.000571509
0.000747147
-0.000780629
0.000939056
-0.0010164
0.00115798
-0.00127704
0.00140213
-0.00155946
0.00166809
-0.00185926
0.00195089
-0.00217094
0.00224442
-0.00248835
0.00254163
-0.00280505
0.002836
-0.00311548
0.0031207
-0.00341397
0.003391
-0.00369992
0.00364748
-0.00396101
-0.00423947
0.00387424
-1.0726e-07
4.96867e-05
2.27971e-06
0.000114974
9.36899e-06
0.000151204
2.3233e-05
0.0001598
4.59466e-05
0.000141988
7.97079e-05
9.84505e-05
0.000126913
2.92661e-05
0.00019017
-6.6031e-05
0.000272246
-0.000188292
0.000375923
-0.000338511
0.000503773
-0.000517513
0.000657844
-0.00072558
0.000839286
-0.000962071
0.00104798
-0.00122509
0.00128223
-0.00151129
0.00153865
-0.00181587
0.00181219
-0.0021328
0.00209652
-0.00245527
0.00238463
-0.00277645
0.00266932
-0.00308974
0.00294452
-0.00339068
0.00320453
-0.00367398
0.00344721
-0.0039426
0.00367267
-0.00418647
-0.00443824
0.00387144
-5.8621e-08
4.97453e-05
2.80126e-06
0.000112114
1.10533e-05
0.000142952
2.70255e-05
0.000143828
5.30589e-05
0.000115954
9.16293e-05
5.98801e-05
0.000145408
-2.45125e-05
0.00021724
-0.000137863
0.000310032
-0.000281083
0.000426534
-0.000455014
0.000569028
-0.000660007
0.000738929
-0.000895481
0.000936378
-0.00115952
0.0011599
-0.00144861
0.0014062
-0.00175759
0.00167025
-0.00207992
0.00194563
-0.00240818
0.00222512
-0.00273476
0.00250146
-0.0030528
0.00276809
-0.00335637
0.00301999
-0.00364258
0.00325336
-0.00390735
0.00346765
-0.00415689
0.0036615
-0.00438032
-0.00461491
0.00383818
4.91024e-08
4.96962e-05
3.53147e-06
0.000108631
1.32002e-05
0.000133283
3.16512e-05
0.000125377
6.1506e-05
8.60995e-05
0.000105525
1.58607e-05
0.000166641
-8.56278e-05
0.000247882
-0.000219104
0.000352189
-0.000385391
0.000482109
-0.000584934
0.000639386
-0.000817284
0.000824518
-0.00108061
0.00103635
-0.00137135
0.00127183
-0.00168409
0.00152604
-0.0020118
0.00179252
-0.0023464
0.00206388
-0.00267955
0.00233266
-0.00300354
0.00259212
-0.00331225
0.00283695
-0.0036012
0.00306364
-0.00386927
0.0032707
-0.00411442
0.00345869
-0.00434487
0.00362677
-0.0045484
-0.0047651
0.00377695
2.13312e-07
4.94829e-05
4.49501e-06
0.00010435
1.58619e-05
0.000121916
3.71933e-05
0.000104046
7.14002e-05
5.18925e-05
0.000121522
-3.42611e-05
0.000190715
-0.000154821
0.000282112
-0.000310501
0.000398542
-0.000501822
0.000542133
-0.000728524
0.000713825
-0.000988976
0.000912911
-0.0012797
0.00113671
-0.00159515
0.00138053
-0.00192791
0.00163796
-0.00226923
0.00190149
-0.00260993
0.0021634
-0.00294146
0.00241668
-0.00325682
0.00265572
-0.0035513
0.0028769
-0.00382237
0.00307846
-0.00407084
0.00326091
-0.00429686
0.00342498
-0.00450894
0.00357442
-0.00469784
-0.0049
0.00370932
4.49392e-07
4.90335e-05
5.71191e-06
9.90871e-05
1.90774e-05
0.00010855
4.37117e-05
7.94114e-05
8.28143e-05
1.27899e-05
0.000139682
-9.11284e-05
0.000217636
-0.000232775
0.000319797
-0.000412662
0.000448703
-0.000630728
0.000605814
-0.000885635
0.000790987
-0.00117415
0.00100207
-0.00149078
0.00123473
-0.00182782
0.00148272
-0.0021759
0.00173847
-0.00252498
0.00199401
-0.00286547
0.00224194
-0.0031894
0.0024763
-0.00349118
0.00269309
-0.00376809
0.00289049
-0.00401977
0.0030685
-0.00424884
0.00322893
-0.00445729
0.00337367
-0.00465368
0.00350668
-0.00483085
-0.00502175
0.00362842
7.58409e-07
4.82751e-05
7.19523e-06
9.26503e-05
2.28725e-05
9.28731e-05
5.12423e-05
5.10417e-05
9.57806e-05
-3.17484e-05
0.000160002
-0.000155349
0.000247307
-0.000320081
0.000360657
-0.000526012
0.000502079
-0.00077215
0.000672102
-0.00105566
0.000869242
-0.00137129
0.00108973
-0.00171126
0.00132761
-0.0020657
0.00157536
-0.00242365
0.00182476
-0.00277437
0.00206798
-0.00310869
0.00229858
-0.00342
0.00251211
-0.00370471
0.00270635
-0.00396233
0.00288121
-0.00419463
0.00303809
-0.00440572
0.00317975
-0.00459895
0.00330864
-0.00478257
0.00342879
-0.004951
-0.00513391
0.00354095
1.14192e-06
4.71331e-05
8.95223e-06
8.484e-05
2.72606e-05
7.45647e-05
5.97979e-05
1.85044e-05
0.000110292
-8.22427e-05
0.000182415
-0.000227472
0.000279535
-0.0004172
0.000404267
-0.000650744
0.000557888
-0.000925771
0.000739733
-0.0012375
0.00094677
-0.00157833
0.00117357
-0.00193806
0.00141276
-0.00230489
0.00165594
-0.00266683
0.00189485
-0.00301328
0.00212244
-0.00333628
0.00233367
-0.00363123
0.00252584
-0.00389688
0.00269846
-0.00413494
0.00285286
-0.00434903
0.00299148
-0.00454434
0.00311754
-0.00472501
0.00323369
-0.00489872
0.00334372
-0.00506102
-0.00523823
0.00344803
1.60036e-06
4.55328e-05
1.09853e-05
7.5455e-05
3.22437e-05
5.33063e-05
6.93695e-05
-1.86215e-05
0.000126304
-0.000139177
0.000206794
-0.000307962
0.000314028
-0.000524434
0.000450068
-0.000786784
0.000615184
-0.00109089
0.000807281
-0.0014296
0.00102167
-0.00179271
0.00125135
-0.00216774
0.00148789
-0.00254143
0.00172257
-0.00290152
0.00194769
-0.00323841
0.00215748
-0.00354607
0.00234856
-0.00382231
0.00251996
-0.00406829
0.00267271
-0.00428769
0.00280919
-0.00448551
0.00293242
-0.00466758
0.00304574
-0.00483833
0.00315169
-0.00500466
0.0032536
-0.00516292
-0.00533622
0.00335158
2.13326e-06
4.33995e-05
1.32928e-05
6.42955e-05
3.78138e-05
2.87853e-05
7.99287e-05
-6.07363e-05
0.000143736
-0.000202984
0.00023295
-0.000397176
0.000350407
-0.000641891
0.000497381
-0.000933759
0.000672888
-0.00126639
0.000873228
-0.00162994
0.00109206
-0.00201154
0.00132108
-0.00239676
0.00155125
-0.0027716
0.00177415
-0.00312442
0.00198315
-0.00344741
0.00217407
-0.00373698
0.00234526
-0.0039935
0.00249732
-0.00422035
0.00263241
-0.00442278
0.00275358
-0.00460668
0.00286406
-0.00477806
0.00296703
-0.0049413
0.00306473
-0.00510237
0.00315999
-0.00525818
-0.00542883
0.0032526
2.73953e-06
4.066e-05
1.58701e-05
5.11649e-05
4.3955e-05
7.00421e-07
9.14291e-05
-0.00010821
0.000162474
-0.000274029
0.000260639
-0.000495341
0.000388208
-0.00076946
0.000545425
-0.00109098
0.00072983
-0.0014508
0.00093604
-0.00183615
0.0011562
-0.0022317
0.00138111
-0.00262167
0.00160168
-0.00299217
0.00181032
-0.00333307
0.00200186
-0.00363894
0.00217381
-0.00390893
0.00232618
-0.00414586
0.00246079
-0.00435496
0.00258057
-0.00454257
0.00268888
-0.00471499
0.00278887
-0.00487805
0.00288339
-0.00503581
0.00297431
-0.00519329
0.00306394
-0.00534781
-0.00551671
0.00315182
3.41781e-06
3.72422e-05
1.871e-05
3.58727e-05
5.06438e-05
-3.12334e-05
0.000103808
-0.000161375
0.000182373
-0.000352594
0.000289564
-0.000602533
0.000426894
-0.00090679
0.000593335
-0.00125742
0.000784799
-0.00164226
0.000994248
-0.0020456
0.00121261
-0.00245007
0.00143026
-0.00283933
0.00163864
-0.00320054
0.00183139
-0.00352583
0.00200502
-0.00381257
0.00215871
-0.00406262
0.00229381
-0.00428097
0.00241307
-0.00447422
0.00251983
-0.00464932
0.00261742
-0.00481259
0.00270876
-0.00496939
0.00279627
-0.00512332
0.00288144
-0.00527847
0.00296613
-0.0054325
-0.00560026
0.00304968
4.16667e-06
3.30755e-05
2.18038e-05
1.82356e-05
5.78503e-05
-6.72799e-05
0.000116987
-0.000220511
0.000203256
-0.000438863
0.000319378
-0.000718654
0.00046586
-0.00105327
0.000640199
-0.00143176
0.000836598
-0.00183866
0.00104653
-0.00225553
0.00126012
-0.00266365
0.00146785
-0.00304706
0.00166214
-0.00339483
0.00183821
-0.0037019
0.00199424
-0.00396859
0.00213089
-0.00419927
0.00225056
-0.00440065
0.00235656
-0.00458022
0.00245233
-0.00474509
0.00254101
-0.00490127
0.00262513
-0.00505351
0.00270669
-0.00520487
0.00278683
-0.00535861
0.00286701
-0.00551268
-0.00567971
0.00294646
4.98468e-06
2.80908e-05
2.51408e-05
-1.92045e-06
6.55383e-05
-0.000107677
0.000130871
-0.000285843
0.000224915
-0.000532908
0.000349684
-0.000843423
0.000504453
-0.00120804
0.000685083
-0.00161239
0.000884106
-0.00203769
0.0010918
-0.00246323
0.00129794
-0.00286979
0.00149366
-0.00324278
0.00167272
-0.00357389
0.00183202
-0.00386119
0.0019713
-0.00410787
0.00209246
-0.00432043
0.00219861
-0.00450679
0.00229327
-0.00467488
0.0023798
-0.00483161
0.00246099
-0.00498246
0.00253897
-0.00513149
0.00261533
-0.00528123
0.00269092
-0.0054342
0.00276686
-0.00558863
-0.00575518
0.00284234
5.87039e-06
2.22204e-05
2.87087e-05
-2.47587e-05
7.36642e-05
-0.000152633
0.000145348
-0.000357527
0.000247113
-0.000634673
0.000380047
-0.000976358
0.000541989
-0.00136998
0.000727078
-0.00179747
0.000926329
-0.00223694
0.00112921
-0.0026661
0.00132567
-0.00306626
0.00150791
-0.00342502
0.00167126
-0.00373724
0.00181426
-0.0040042
0.00193804
-0.00423165
0.00204539
-0.00442777
0.00213981
-0.00460122
0.00222485
-0.00475992
0.00230356
-0.00491033
0.00237837
-0.00505726
0.002451
-0.00520412
0.00252267
-0.0053529
0.002594
-0.00550553
0.00266588
-0.0056605
-0.00582674
0.00273744
6.82222e-06
1.53982e-05
3.24928e-05
-5.04293e-05
8.21768e-05
-0.000202317
0.000160289
-0.000435639
0.00026958
-0.000743964
0.000409998
-0.00111678
0.000577772
-0.00153776
0.000765338
-0.00198504
0.000962453
-0.00243405
0.00115823
-0.00286189
0.00134329
-0.00325131
0.00151117
-0.0035929
0.00165889
-0.00388496
0.00178649
-0.0041318
0.00189621
-0.00434136
0.00199141
-0.00452297
0.00207575
-0.00468557
0.00215259
-0.00483675
0.00222462
-0.00498236
0.00229387
-0.00512651
0.00236169
-0.00527195
0.00242902
-0.00542023
0.00249629
-0.0055728
0.00256418
-0.00572839
-0.00589441
0.00263184
7.83814e-06
7.56007e-06
3.64754e-05
-7.90666e-05
9.10157e-05
-0.000256857
0.000175546
-0.000520169
0.000292021
-0.000860439
0.000439044
-0.0012638
0.00061113
-0.00170984
0.000799119
-0.00217303
0.000991875
-0.00262681
0.00117864
-0.00304865
0.00135106
-0.00342373
0.00150427
-0.00374611
0.00163688
-0.00401757
0.00175024
-0.00424516
0.00184738
-0.00443851
0.001932
-0.00460758
0.00200769
-0.00476125
0.00207748
-0.00490655
0.00214371
-0.00504859
0.00220799
-0.00519079
0.00227139
-0.00533534
0.00233459
-0.00548343
0.0023979
-0.00563612
0.00246185
-0.00579234
-0.00595817
0.00252561
8.91548e-06
-1.35541e-06
4.06352e-05
-0.000110786
0.000100111
-0.000316333
0.000190952
-0.00061101
0.00031412
-0.000983607
0.00046669
-0.00141637
0.000641433
-0.00188459
0.000827814
-0.00235941
0.00101422
-0.00281321
0.00119045
-0.00322488
0.00134952
-0.0035828
0.00148819
-0.00388478
0.00160653
-0.00413591
0.00170693
-0.00434557
0.00179297
-0.00452454
0.0018684
-0.00468302
0.00193662
-0.00482947
0.0020003
-0.00497023
0.00206136
-0.00510965
0.0021211
-0.00525053
0.00218032
-0.00539456
0.00223953
-0.00554264
0.00229894
-0.00569552
0.00235895
-0.00585235
-0.00601803
0.00241881
1.00506e-05
-1.1406e-05
4.49464e-05
-0.000145682
0.000109381
-0.000380768
0.000206325
-0.000707954
0.000335544
-0.00111283
0.00049245
-0.00157327
0.000668128
-0.00206026
0.00085097
-0.00254225
0.00102933
-0.00299157
0.00119396
-0.00338952
0.00133941
-0.00372824
0.001464
-0.00400938
0.00156911
-0.00424102
0.00165788
-0.00443434
0.00173415
-0.00460081
0.00180161
-0.00475048
0.00186332
-0.00489119
0.00192158
-0.00502849
0.00197796
-0.00516602
0.00203345
-0.00530602
0.00208865
-0.00544977
0.00214395
-0.00559794
0.00219948
-0.00575106
0.00225556
-0.00590843
-0.00607394
0.00231147
1.12386e-05
-2.26447e-05
4.93785e-05
-0.000183822
0.000118736
-0.000450125
0.000221465
-0.000810682
0.000355953
-0.00124731
0.000515869
-0.00173319
0.000690757
-0.00223515
0.000868304
-0.0027198
0.00103725
-0.00316052
0.00118962
-0.00354189
0.00132153
-0.00386015
0.0014328
-0.00412064
0.00152579
-0.00433401
0.0016042
-0.00451274
0.00167191
-0.00466853
0.00173241
-0.00481098
0.00178838
-0.00494716
0.00184176
-0.00508186
0.00189377
-0.00521804
0.0019452
-0.00535745
0.00199649
-0.00550106
0.00204792
-0.00564937
0.00209958
-0.00580271
0.0021517
-0.00596055
-0.00612589
0.00220365
1.24734e-05
-3.51181e-05
5.38959e-05
-0.000225244
0.000128073
-0.000524303
0.000236164
-0.000918773
0.000375016
-0.00138617
0.00053654
-0.00189471
0.000708972
-0.00240758
0.000879698
-0.00289053
0.00103823
-0.00331905
0.00117803
-0.00368169
0.0012968
-0.00397892
0.00139562
-0.00421946
0.00147766
-0.00441605
0.00154687
-0.00458195
0.00160707
-0.00472873
0.00166142
-0.00486533
0.00171225
-0.00499799
0.00176112
-0.00513073
0.00180901
-0.00526593
0.00185651
-0.00540495
0.00190394
-0.00554849
0.00195151
-0.00569694
0.00199929
-0.00585049
0.00204745
-0.00600871
-0.00617385
0.0020954
1.37472e-05
-4.88652e-05
5.8458e-05
-0.000269955
0.000137284
-0.000603128
0.000250209
-0.0010317
0.000392415
-0.00152837
0.00055412
-0.00205642
0.000722549
-0.00257601
0.000885187
-0.00305316
0.00103262
-0.00346649
0.00115987
-0.00380893
0.00126608
-0.00408514
0.00135343
-0.00430681
0.00142562
-0.00448824
0.0014867
-0.00464303
0.00154026
-0.0047823
0.00158913
-0.00491419