/*--------------------------------*- C++ -*----------------------------------*\
  =========                 |
  \\      /  F ield         | OpenFOAM: The Open Source CFD Toolbox
   \\    /   O peration     | Website:  https://openfoam.org
    \\  /    A nd           | Version:  7
     \\/     M anipulation  |
\*---------------------------------------------------------------------------*/
FoamFile
{
    version     2.0;
    format      ascii;
    class       volScalarField;
    location    "30";
    object      p;
}
// * * * * * * * * * * * * * * * * * * * * * * * * * * * * * * * * * * * * * //

dimensions      [0 2 -2 0 0 0 0];

internalField   nonuniform List<scalar> 
3500
(
-0.263118
-0.264807
-0.266561
-0.268208
-0.269483
-0.270108
-0.270533
-0.268616
-0.259092
-0.262505
-0.263898
-0.265535
-0.267251
-0.268899
-0.270243
-0.27058
-0.271649
-0.268696
-0.261119
-0.264125
-0.265346
-0.266859
-0.268479
-0.270068
-0.271708
-0.271037
-0.274007
-0.268484
-0.263904
-0.266333
-0.267262
-0.268546
-0.269982
-0.271281
-0.273769
-0.270729
-0.277607
-0.267147
-0.267213
-0.26893
-0.269411
-0.270306
-0.271481
-0.272081
-0.276068
-0.26935
-0.280617
-0.265712
-0.270847
-0.27174
-0.271586
-0.271873
-0.272666
-0.272482
-0.276941
-0.267927
-0.282479
-0.264428
-0.274694
-0.274663
-0.273667
-0.273131
-0.273177
-0.272529
-0.276628
-0.266368
-0.280369
-0.264987
-0.278773
-0.277693
-0.275662
-0.274096
-0.273192
-0.272095
-0.274454
-0.266084
-0.273619
-0.264195
-0.283289
-0.280923
-0.27774
-0.274961
-0.272934
-0.271229
-0.270706
-0.265306
-0.264513
-0.258107
-0.288567
-0.284632
-0.28016
-0.276018
-0.272715
-0.269783
-0.26634
-0.261164
-0.253971
-0.246928
-0.294969
-0.289202
-0.28327
-0.277575
-0.272646
-0.267675
-0.261351
-0.253828
-0.242407
-0.232264
-0.302948
-0.295013
-0.287348
-0.27977
-0.272631
-0.264797
-0.25524
-0.244349
-0.231107
-0.218862
-0.312975
-0.302393
-0.29253
-0.282682
-0.272478
-0.26095
-0.247909
-0.234173
-0.219283
-0.205944
-0.325452
-0.311477
-0.299002
-0.286235
-0.27183
-0.255986
-0.239591
-0.223263
-0.207264
-0.193584
-0.340647
-0.321997
-0.307007
-0.289982
-0.270189
-0.249794
-0.230184
-0.211819
-0.195048
-0.18075
-0.35853
-0.333614
-0.316041
-0.292996
-0.267041
-0.242157
-0.219715
-0.199684
-0.182237
-0.167432
-0.37789
-0.346388
-0.32437
-0.29402
-0.261863
-0.232891
-0.207987
-0.18664
-0.168691
-0.15328
-0.396693
-0.360126
-0.330116
-0.291921
-0.254173
-0.221697
-0.194785
-0.172455
-0.154103
-0.138308
-0.412764
-0.373132
-0.33218
-0.286014
-0.24351
-0.20826
-0.179823
-0.156845
-0.13835
-0.122522
-0.424441
-0.382502
-0.329678
-0.275904
-0.229496
-0.192235
-0.162812
-0.139571
-0.121235
-0.105879
-0.430608
-0.385587
-0.32143
-0.261196
-0.211815
-0.173322
-0.143506
-0.120439
-0.102595
-0.0879835
-0.430286
-0.380478
-0.306569
-0.241464
-0.190201
-0.151287
-0.121745
-0.0994048
-0.0823398
-0.0682785
-0.422302
-0.366125
-0.284582
-0.216348
-0.164443
-0.126029
-0.0975026
-0.076512
-0.0604934
-0.0467833
-0.40526
-0.342019
-0.255146
-0.185638
-0.134513
-0.0976668
-0.0709137
-0.0517913
-0.0368414
-0.0245634
-0.377804
-0.308034
-0.218029
-0.149468
-0.100683
-0.0665145
-0.042208
-0.0250845
-0.0116358
-0.00161461
-0.339004
-0.264299
-0.173321
-0.108381
-0.063322
-0.0325758
-0.0114401
0.00328444
0.0146181
0.0218585
-0.288635
-0.210854
-0.12205
-0.0626147
-0.0225993
0.0037528
0.0210871
0.0327921
0.0412433
0.0451198
-0.22713
-0.147588
-0.0656063
-0.0128592
0.0209399
0.0420277
0.0549611
0.0628514
0.0673719
0.0671696
-0.155032
-0.0766988
-0.00470838
0.0398909
0.0665827
0.081734
0.0897276
0.093
0.0925068
0.0877513
-0.072852
-0.00181136
0.0595151
0.0946272
0.113494
0.122214
0.124818
0.122961
0.11723
0.108634
0.0159248
0.075799
0.125498
0.150243
0.160748
0.162661
0.159496
0.152332
0.142073
0.134469
0.108164
0.154504
0.191571
0.205491
0.207347
0.202227
0.193066
0.180754
0.167149
0.159134
0.200504
0.232196
0.256031
0.25905
0.252238
0.240098
0.225106
0.208172
0.191651
0.181205
0.289597
0.30664
0.317187
0.309581
0.294345
0.275404
0.254908
0.233843
0.21454
0.201019
0.372207
0.375625
0.373397
0.355788
0.332672
0.307423
0.281925
0.257122
0.234995
0.218261
0.445501
0.436996
0.423078
0.396427
0.366241
0.335388
0.305529
0.277471
0.252682
0.232857
0.507336
0.488579
0.46474
0.430391
0.394207
0.358631
0.325133
0.294342
0.26721
0.244633
0.55569
0.528697
0.497118
0.456731
0.415852
0.376599
0.340286
0.307364
0.278333
0.253484
0.588896
0.55613
0.519245
0.474709
0.430604
0.388832
0.350601
0.31622
0.285856
0.259373
0.483825
0.438078
0.395027
0.355823
0.320701
0.289649
0.262305
-0.267836
-0.267079
-0.266221
-0.265276
-0.264247
-0.263145
-0.261974
-0.260741
-0.259449
-0.258101
-0.256699
-0.255245
-0.253738
-0.25218
-0.25057
-0.248909
-0.247197
-0.245434
-0.243618
-0.24175
-0.239837
-0.237874
-0.235859
-0.233792
-0.231671
-0.229495
-0.227262
-0.224972
-0.222624
-0.268316
-0.267528
-0.266631
-0.265661
-0.264612
-0.263493
-0.262309
-0.261066
-0.259768
-0.258416
-0.257012
-0.255557
-0.254051
-0.252493
-0.250884
-0.249224
-0.247511
-0.245744
-0.243932
-0.242079
-0.240173
-0.238216
-0.236208
-0.234147
-0.232032
-0.229863
-0.227638
-0.225356
-0.223015
-0.269195
-0.268253
-0.267277
-0.266278
-0.265208
-0.264072
-0.262875
-0.261624
-0.26032
-0.258967
-0.257565
-0.256115
-0.254615
-0.253066
-0.251462
-0.249803
-0.248097
-0.246353
-0.244557
-0.242706
-0.240806
-0.238856
-0.236855
-0.234803
-0.232697
-0.230538
-0.228323
-0.226052
-0.223723
-0.271159
-0.269006
-0.267977
-0.266934
-0.265829
-0.26469
-0.263474
-0.262236
-0.260941
-0.259597
-0.258203
-0.256761
-0.255268
-0.253723
-0.252109
-0.250487
-0.248789
-0.247045
-0.245255
-0.24342
-0.241536
-0.239602
-0.237618
-0.235583
-0.233495
-0.231352
-0.229155
-0.226901
-0.224589
-0.222219
-0.270012
-0.269752
-0.268537
-0.267366
-0.26626
-0.265124
-0.26394
-0.262714
-0.261444
-0.260126
-0.258763
-0.257353
-0.255894
-0.254384
-0.252822
-0.251198
-0.24952
-0.247795
-0.246023
-0.244203
-0.242332
-0.240411
-0.238439
-0.236415
-0.234339
-0.232209
-0.230024
-0.227784
-0.225487
-0.223131
-0.267072
-0.268022
-0.267784
-0.267048
-0.266102
-0.265057
-0.263961
-0.262808
-0.261584
-0.260296
-0.258956
-0.257567
-0.256123
-0.254618
-0.253046
-0.251442
-0.249812
-0.248132
-0.246397
-0.24461
-0.242772
-0.240884
-0.238945
-0.236952
-0.234905
-0.232804
-0.230646
-0.228432
-0.22616
-0.223828
-0.263542
-0.264308
-0.265117
-0.265141
-0.264511
-0.263694
-0.262876
-0.261972
-0.260921
-0.259758
-0.258532
-0.257252
-0.25591
-0.254496
-0.252994
-0.251384
-0.249735
-0.248114
-0.246452
-0.244722
-0.242924
-0.241063
-0.239145
-0.237171
-0.235142
-0.233059
-0.230922
-0.22873
-0.22648
-0.22417
-0.2218
-0.260309
-0.259997
-0.261364
-0.26171
-0.261088
-0.26047
-0.260039
-0.259473
-0.258646
-0.257652
-0.256574
-0.255423
-0.254187
-0.252873
-0.251482
-0.250011
-0.248432
-0.246741
-0.245075
-0.243481
-0.24184
-0.240117
-0.238312
-0.236429
-0.234472
-0.232453
-0.230378
-0.228246
-0.226052
-0.223795
-0.221475
-0.219093
-0.254507
-0.254591
-0.256519
-0.256539
-0.255672
-0.255366
-0.255432
-0.255287
-0.25483
-0.254205
-0.253473
-0.252624
-0.251651
-0.250569
-0.249387
-0.248106
-0.246725
-0.245228
-0.243569
-0.241765
-0.240033
-0.2384
-0.236723
-0.23495
-0.233078
-0.231132
-0.229127
-0.227062
-0.224928
-0.222724
-0.220455
-0.218123
-0.246389
-0.248512
-0.250108
-0.249116
-0.248032
-0.247931
-0.248157
-0.248179
-0.247996
-0.2477
-0.247296
-0.246767
-0.246118
-0.245356
-0.244485
-0.243503
-0.242415
-0.241224
-0.239933
-0.238514
-0.236905
-0.23517
-0.233549
-0.231932
-0.230222
-0.228444
-0.226618
-0.224729
-0.222758
-0.220705
-0.218576
-0.216377
-0.214107
-0.233655
-0.240748
-0.241766
-0.240359
-0.239265
-0.23906
-0.239321
-0.239619
-0.239782
-0.239786
-0.23965
-0.239396
-0.239031
-0.238555
-0.237966
-0.237263
-0.236449
-0.235528
-0.234504
-0.233378
-0.23215
-0.230791
-0.229246
-0.22757
-0.225795
-0.224037
-0.222285
-0.220484
-0.218607
-0.21665
-0.214618
-0.212515
-0.21034
-0.214694
-0.22407
-0.227133
-0.22657
-0.225557
-0.22535
-0.225848
-0.226556
-0.227128
-0.227464
-0.227598
-0.227585
-0.227454
-0.22721
-0.226844
-0.226351
-0.225728
-0.224975
-0.224091
-0.223076
-0.221932
-0.220677
-0.219357
-0.218045
-0.216804
-0.215515
-0.214065
-0.212466
-0.210766
-0.208986
-0.207131
-0.205199
-0.203189
-0.197684
-0.20775
-0.211934
-0.212338
-0.211903
-0.212056
-0.212879
-0.213936
-0.214858
-0.215514
-0.215935
-0.216189
-0.216319
-0.216333
-0.216225
-0.215991
-0.21563
-0.215147
-0.21455
-0.213853
-0.213068
-0.21221
-0.21128
-0.210261
-0.20911
-0.207779
-0.206338
-0.204843
-0.203293
-0.201674
-0.199975
-0.198197
-0.196339
-0.183199
-0.192749
-0.197412
-0.198661
-0.198931
-0.199546
-0.200679
-0.202
-0.203187
-0.204113
-0.204794
-0.205296
-0.205661
-0.205905
-0.206025
-0.206017
-0.20588
-0.205621
-0.205245
-0.204758
-0.20416
-0.203448
-0.202619
-0.201675
-0.200628
-0.199506
-0.198332
-0.197074
-0.195718
-0.194271
-0.192737
-0.191121
-0.189424
-0.170027
-0.179022
-0.183923
-0.185811
-0.186699
-0.187749
-0.189167
-0.190711
-0.192119
-0.193277
-0.194195
-0.194924
-0.195507
-0.195959
-0.196282
-0.196473
-0.196533
-0.196464
-0.196271
-0.195959
-0.195528
-0.194984
-0.194331
-0.19358
-0.192744
-0.191825
-0.190812
-0.189701
-0.188495
-0.187198
-0.185815
-0.184349
-0.182801
-0.158223
-0.166701
-0.171666
-0.17398
-0.17534
-0.176753
-0.178421
-0.180159
-0.181755
-0.183112
-0.184235
-0.185167
-0.185944
-0.186582
-0.187086
-0.187455
-0.187689
-0.187791
-0.187767
-0.187622
-0.187361
-0.186988
-0.186511
-0.185933
-0.185258
-0.184484
-0.183611
-0.182642
-0.18158
-0.180429
-0.179191
-0.17787
-0.176467
-0.147879
-0.155739
-0.160628
-0.163214
-0.164923
-0.166618
-0.168487
-0.170384
-0.172133
-0.173652
-0.174944
-0.176046
-0.17699
-0.177791
-0.178453
-0.178978
-0.179367
-0.179624
-0.179755
-0.179764
-0.179657
-0.179438
-0.17911
-0.178677
-0.17814
-0.177502
-0.176766
-0.175935
-0.175013
-0.174002
-0.172903
-0.17172
-0.170453
-0.138723
-0.145964
-0.150709
-0.153465
-0.155424
-0.157329
-0.159349
-0.161366
-0.163232
-0.164877
-0.166306
-0.167549
-0.168633
-0.169572
-0.170371
-0.171033
-0.171559
-0.171953
-0.172221
-0.172368
-0.172397
-0.172312
-0.172117
-0.171815
-0.171408
-0.170901
-0.170296
-0.169597
-0.168805
-0.167924
-0.166954
-0.165899
-0.164761
-0.130566
-0.13725
-0.141821
-0.144668
-0.146797
-0.148849
-0.150975
-0.153076
-0.155027
-0.156769
-0.158305
-0.15966
-0.160859
-0.161915
-0.162831
-0.16361
-0.164254
-0.164769
-0.165157
-0.165424
-0.165573
-0.165609
-0.165535
-0.165353
-0.165068
-0.164682
-0.164198
-0.163619
-0.162947
-0.162186
-0.161336
-0.160401
-0.159383
-0.123328
-0.129494
-0.133866
-0.136746
-0.138986
-0.141136
-0.143329
-0.145483
-0.147491
-0.149302
-0.150919
-0.152362
-0.153654
-0.154804
-0.155817
-0.156695
-0.157441
-0.158058
-0.158551
-0.158924
-0.15918
-0.159324
-0.159358
-0.159286
-0.15911
-0.158835
-0.158461
-0.157992
-0.157431
-0.15678
-0.156042
-0.155219
-0.154312
-0.116903
-0.122582
-0.126744
-0.129618
-0.131925
-0.134135
-0.136365
-0.138546
-0.140588
-0.142446
-0.14412
-0.14563
-0.146994
-0.14822
-0.149312
-0.150272
-0.151103
-0.151809
-0.152392
-0.152857
-0.153208
-0.153447
-0.153578
-0.153604
-0.153527
-0.153351
-0.153078
-0.15271
-0.15225
-0.151702
-0.151067
-0.150347
-0.149544
-0.111178
-0.116412
-0.120364
-0.123208
-0.125549
-0.12779
-0.130034
-0.132224
-0.13428
-0.136165
-0.137879
-0.139438
-0.140856
-0.142141
-0.143297
-0.144324
-0.145226
-0.146006
-0.146666
-0.147211
-0.147644
-0.147967
-0.148184
-0.148297
-0.148309
-0.148223
-0.148041
-0.147765
-0.147399
-0.146944
-0.146403
-0.145778
-0.145071
-0.106069
-0.110902
-0.114651
-0.117447
-0.119799
-0.12205
-0.124291
-0.126473
-0.128529
-0.130427
-0.132165
-0.133757
-0.135215
-0.136545
-0.13775
-0.138832
-0.139792
-0.140634
-0.14136
-0.141973
-0.142477
-0.142873
-0.143166
-0.143356
-0.143447
-0.143441
-0.143341
-0.143149
-0.142867
-0.142497
-0.142043
-0.141505
-0.140887
-0.101511
-0.10598
-0.109536
-0.112273
-0.114617
-0.116863
-0.119088
-0.121252
-0.123298
-0.125196
-0.126947
-0.128559
-0.130044
-0.131407
-0.13265
-0.133775
-0.134782
-0.135675
-0.136456
-0.137127
-0.137692
-0.138152
-0.138511
-0.138769
-0.138931
-0.138997
-0.13897
-0.138853
-0.138647
-0.138355
-0.13798
-0.137522
-0.136984
-0.0974431
-0.101584
-0.104956
-0.107628
-0.109954
-0.112184
-0.114384
-0.116522
-0.118549
-0.12044
-0.122192
-0.123816
-0.125318
-0.126704
-0.127975
-0.129133
-0.130178
-0.131113
-0.131939
-0.13266
-0.133276
-0.133792
-0.134207
-0.134526
-0.134749
-0.134879
-0.134918
-0.134868
-0.134731
-0.13451
-0.134205
-0.13382
-0.133356
-0.093812
-0.0976568
-0.100859
-0.103462
-0.105763
-0.107969
-0.110139
-0.112246
-0.114249
-0.116124
-0.117872
-0.119499
-0.121011
-0.122412
-0.123704
-0.124886
-0.125961
-0.126929
-0.127793
-0.128555
-0.129216
-0.129778
-0.130244
-0.130614
-0.130892
-0.131079
-0.131176
-0.131186
-0.131111
-0.130953
-0.130712
-0.130393
-0.129996
-0.090573
-0.0941528
-0.0971969
-0.0997324
-0.102002
-0.10418
-0.106317
-0.10839
-0.110364
-0.112221
-0.113959
-0.115583
-0.117099
-0.118509
-0.119814
-0.121015
-0.122112
-0.123107
-0.124002
-0.124798
-0.125496
-0.126098
-0.126607
-0.127023
-0.127348
-0.127584
-0.127734
-0.127797
-0.127777
-0.127675
-0.127493
-0.127233
-0.126896
-0.0876886
-0.0910315
-0.0939308
-0.0964
-0.0986361
-0.100784
-0.102886
-0.104923
-0.106867
-0.108703
-0.110427
-0.112044
-0.113559
-0.114972
-0.116286
-0.117499
-0.118614
-0.11963
-0.12055
-0.121374
-0.122103
-0.12274
-0.123285
-0.12374
-0.124107
-0.124387
-0.124582
-0.124693
-0.124722
-0.12467
-0.12454
-0.124333
-0.124051
-0.0851262
-0.088258
-0.0910255
-0.0934312
-0.095633
-0.0977495
-0.099816
-0.101818
-0.103732
-0.105544
-0.107252
-0.108859
-0.110369
-0.111783
-0.113101
-0.114323
-0.11545
-0.116483
-0.117422
-0.118269
-0.119025
-0.11969
-0.120267
-0.120756
-0.121158
-0.121476
-0.121711
-0.121864
-0.121936
-0.121929
-0.121845
-0.121686
-0.121452
-0.0828578
-0.0858024
-0.0884508
-0.0907969
-0.0929647
-0.09505
-0.0970819
-0.0990493
-0.100933
-0.102721
-0.104412
-0.106008
-0.107511
-0.108922
-0.110241
-0.111469
-0.112605
-0.11365
-0.114605
-0.115471
-0.116248
-0.116937
-0.117541
-0.118059
-0.118492
-0.118843
-0.119113
-0.119302
-0.119412
-0.119445
-0.119402
-0.119285
-0.119095
-0.0808596
-0.0836392
-0.0861807
-0.0884717
-0.0906069
-0.0926621
-0.0946612
-0.0965957
-0.0984501
-0.100215
-0.101889
-0.103472
-0.104967
-0.106373
-0.107692
-0.108922
-0.110064
-0.111119
-0.112086
-0.112966
-0.113761
-0.114471
-0.115097
-0.115639
-0.116099
-0.116479
-0.116778
-0.116999
-0.117143
-0.117211
-0.117204
-0.117123
-0.116971
-0.116749
-0.0791112
-0.0817464
-0.0841931
-0.0864338
-0.0885385
-0.0905654
-0.0925338
-0.0944377
-0.0962649
-0.0980078
-0.0996642
-0.101235
-0.10272
-0.104121
-0.105437
-0.106668
-0.107814
-0.108875
-0.109852
-0.110745
-0.111554
-0.11228
-0.112925
-0.113488
-0.113971
-0.114375
-0.114701
-0.114949
-0.115122
-0.115219
-0.115244
-0.115196
-0.115077
-0.11489
-0.0775954
-0.0801053
-0.0824688
-0.0846646
-0.0867412
-0.0887421
-0.0906827
-0.0925586
-0.0943609
-0.0960831
-0.0977231
-0.0992811
-0.100757
-0.102152
-0.103465
-0.104695
-0.105844
-0.10691
-0.107893
-0.108796
-0.109617
-0.110357
-0.111017
-0.111598
-0.1121
-0.112524
-0.112872
-0.113144
-0.113341
-0.113465
-0.113516
-0.113497
-0.113407
-0.11325
-0.0762976
-0.0787002
-0.0809917
-0.083148
-0.0851996
-0.0871773
-0.0890929
-0.090944
-0.0927239
-0.0944274
-0.0960524
-0.0975985
-0.0990659
-0.100454
-0.101763
-0.102992
-0.104142
-0.105211
-0.1062
-0.10711
-0.10794
-0.108692
-0.109365
-0.10996
-0.110478
-0.11092
-0.111286
-0.111578
-0.111796
-0.111942
-0.112017
-0.112021
-0.111957
-0.111824
-0.0752053
-0.0775177
-0.0797483
-0.0818707
-0.0839005
-0.085858
-0.0877521
-0.0895816
-0.0913419
-0.0930289
-0.0946406
-0.0961761
-0.0976352
-0.0990176
-0.100323
-0.10155
-0.1027
-0.103771
-0.104765
-0.10568
-0.106518
-0.107278
-0.107961
-0.108568
-0.1091
-0.109556
-0.109938
-0.110246
-0.110482
-0.110646
-0.11074
-0.110765
-0.110721
-0.11061
-0.0743084
-0.0765468
-0.0787271
-0.0808213
-0.082833
-0.0847736
-0.0866496
-0.0884611
-0.0902049
-0.0918779
-0.0934782
-0.0950045
-0.0964565
-0.0978334
-0.0991349
-0.100361
-0.10151
-0.102583
-0.103579
-0.104499
-0.105342
-0.106109
-0.106801
-0.107418
-0.107959
-0.108427
-0.108821
-0.109143
-0.109393
-0.109573
-0.109682
-0.109723
-0.109697
-0.109604
-0.0735988
-0.0757787
-0.077919
-0.0799908
-0.081988
-0.0839151
-0.0857767
-0.0875737
-0.0893043
-0.0909661
-0.0925571
-0.094076
-0.0955219
-0.0968944
-0.0981927
-0.0994166
-0.100565
-0.101639
-0.102637
-0.10356
-0.104408
-0.105181
-0.105879
-0.106503
-0.107052
-0.107529
-0.107933
-0.108266
-0.108527
-0.108718
-0.10884
-0.108894
-0.108881
-0.108802
-0.0730709
-0.0752079
-0.0773189
-0.079374
-0.0813602
-0.083277
-0.0851277
-0.0869137
-0.0886343
-0.0902875
-0.0918715
-0.0933846
-0.0948259
-0.0961948
-0.0974907
-0.0987131
-0.0998614
-0.100936
-0.101935
-0.102861
-0.103711
-0.104488
-0.105191
-0.10582
-0.106375
-0.106859
-0.10727
-0.10761
-0.10788
-0.10808
-0.108211
-0.108275
-0.108272
-0.108203
-0.0727158
-0.0748266
-0.0769199
-0.0789652
-0.0809449
-0.0828553
-0.0846987
-0.0864773
-0.0881912
-0.0898386
-0.0914177
-0.0929269
-0.094365
-0.0957314
-0.0970255
-0.0982467
-0.0993947
-0.100469
-0.10147
-0.102396
-0.103249
-0.104028
-0.104734
-0.105366
-0.105926
-0.106413
-0.106829
-0.107175
-0.10745
-0.107655
-0.107793
-0.107863
-0.107866
-0.107805
-0.0725229
-0.0746216
-0.0767088
-0.0787522
-0.080731
-0.0826397
-0.0844806
-0.0862564
-0.0879676
-0.0896126
-0.0911897
-0.0926972
-0.094134
-0.0954994
-0.0967927
-0.0980135
-0.0991613
-0.100236
-0.101237
-0.102164
-0.103018
-0.103798
-0.104505
-0.10514
-0.105701
-0.106191
-0.106609
-0.106957
-0.107235
-0.107443
-0.107584
-0.107657
-0.107664
-0.107606
-0.220744
-0.201718
-0.184013
-0.170838
-0.158899
-0.147908
-0.138447
-0.130179
-0.122773
-0.116189
-0.110366
-0.105182
-0.10055
-0.0964139
-0.0927228
-0.0894261
-0.086483
-0.0838601
-0.0815282
-0.0794623
-0.0776408
-0.0760456
-0.0746612
-0.0734744
-0.0724742
-0.0716513
-0.0709983
-0.0705098
-0.0701762
-0.0699891
-0.207518
-0.189971
-0.17236
-0.159925
-0.149302
-0.139077
-0.130153
-0.12254
-0.115756
-0.109677
-0.104301
-0.0995333
-0.0952726
-0.0914622
-0.0880598
-0.0850201
-0.0823045
-0.0798818
-0.0777257
-0.0758135
-0.0741254
-0.0726449
-0.0713577
-0.070252
-0.0693176
-0.068546
-0.0679303
-0.0674655
-0.0671415
-0.0669537
-0.195548
-0.179698
-0.162496
-0.149956
-0.140078
-0.130713
-0.122302
-0.115183
-0.108955
-0.103358
-0.0983827
-0.0939809
-0.0900563
-0.0865439
-0.0834047
-0.0805998
-0.0780933
-0.0758558
-0.0738629
-0.0720939
-0.0705309
-0.0691584
-0.0679636
-0.0669354
-0.0660647
-0.0653436
-0.0647659
-0.0643267
-0.0640163
-0.0638355
-0.182784
-0.167848
-0.151909
-0.139909
-0.130712
-0.122308
-0.114582
-0.107937
-0.102199
-0.0970769
-0.0924991
-0.0884416
-0.0848316
-0.0816028
-0.0787145
-0.0761322
-0.0738242
-0.0717631
-0.0699261
-0.0682945
-0.0668517
-0.0655837
-0.0644788
-0.0635268
-0.0627194
-0.0620494
-0.0615112
-0.0611002
-0.0608075
-0.0606384
-0.169583
-0.156001
-0.14167
-0.130308
-0.121481
-0.113778
-0.106752
-0.100612
-0.0953255
-0.0906588
-0.0864883
-0.0827789
-0.0794794
-0.0765325
-0.0738959
-0.0715369
-0.0694281
-0.0675447
-0.0658655
-0.0643732
-0.063053
-0.0618922
-0.0608799
-0.0600072
-0.0592663
-0.0586508
-0.0581559
-0.0577772
-0.0575069
-0.0573543
-0.155938
-0.143381
-0.130526
-0.120144
-0.111953
-0.104992
-0.0987363
-0.0931947
-0.0883796
-0.0841519
-0.080387
-0.0770305
-0.0740398
-0.0713708
-0.0689837
-0.0668462
-0.0649349
-0.0632279
-0.0617058
-0.0603528
-0.0591555
-0.0581024
-0.057184
-0.0563919
-0.0557193
-0.0551607
-0.0547116
-0.0543681
-0.0541237
-0.0539906
-0.141629
-0.130477
-0.119303
-0.110042
-0.102515
-0.0961754
-0.0905835
-0.0856319
-0.0813006
-0.0775036
-0.0741383
-0.0711381
-0.0684597
-0.0660706
-0.0639361
-0.0620242
-0.0603143
-0.0587875
-0.0574264
-0.0562164
-0.0551457
-0.0542041
-0.053383
-0.052675
-0.0520743
-0.0515759
-0.051176
-0.050871
-0.0506561
-0.0505454
-0.126904
-0.117188
-0.107549
-0.0994458
-0.0927367
-0.0871201
-0.0822279
-0.0779065
-0.0740991
-0.0707477
-0.0677813
-0.0651362
-0.0627689
-0.0606594
-0.0587791
-0.0570957
-0.05559
-0.0542459
-0.0530479
-0.0519833
-0.0510415
-0.0502136
-0.049492
-0.0488705
-0.0483439
-0.0479079
-0.0475594
-0.0472953
-0.0471122
-0.0470248
-0.111694
-0.10347
-0.0954688
-0.0886518
-0.0828502
-0.0779649
-0.0737284
-0.0700053
-0.0667206
-0.0638233
-0.0612611
-0.0589755
-0.0569234
-0.0551004
-0.0534826
-0.0520364
-0.0507432
-0.0495887
-0.04856
-0.0476462
-0.0468382
-0.0461283
-0.0455103
-0.0449788
-0.0445296
-0.044159
-0.0438646
-0.0436439
-0.0434948
-0.0434302
-0.096047
-0.0892313
-0.0827875
-0.0772923
-0.0725012
-0.0684429
-0.0649208
-0.0618323
-0.0591039
-0.0566916
-0.0545569
-0.0526494
-0.0509333
-0.0494125
-0.0480686
-0.0468691
-0.0457962
-0.0448379
-0.043984
-0.0432255
-0.0425552
-0.0419668
-0.0414552
-0.0410163
-0.0406465
-0.0403433
-0.0401046
-0.0399288
-0.0398145
-0.0397715
-0.0795279
-0.074458
-0.0694651
-0.065429
-0.0617199
-0.0585598
-0.0557792
-0.0533438
-0.0511956
-0.0492996
-0.0476245
-0.046124
-0.044797
-0.0436025
-0.0425475
-0.0416048
-0.0407606
-0.0400058
-0.0393326
-0.0387344
-0.0382058
-0.0377423
-0.03734
-0.0369959
-0.0367076
-0.0364731
-0.0362915
-0.0361612
-0.0360802
-0.036063
-0.0617341
-0.0591988
-0.0554615
-0.0529997
-0.0503561
-0.0481851
-0.0462267
-0.0445245
-0.0430233
-0.0416983
-0.0405258
-0.0394575
-0.0385868
-0.0377297
-0.0369728
-0.0362923
-0.0356809
-0.0351325
-0.0346422
-0.0342059
-0.0338201
-0.0334821
-0.0331896
-0.0329407
-0.0327338
-0.0325681
-0.0324432
-0.0323578
-0.0323086
-0.0323209
-0.0427784
-0.0432546
-0.040844
-0.0399662
-0.0385103
-0.0374138
-0.0363888
-0.0355015
-0.0347119
-0.0340052
-0.0333646
-0.0327752
-0.0322866
-0.0317959
-0.0313464
-0.030936
-0.0305621
-0.0302233
-0.029918
-0.0296451
-0.0294034
-0.0291919
-0.0290098
-0.0288564
-0.0287313
-0.0286342
-0.0285654
-0.0285234
-0.0285083
-0.0285433
-0.0228735
-0.0259738
-0.0254121
-0.026142
-0.026183
-0.0263472
-0.0264137
-0.0264374
-0.0264118
-0.0263454
-0.0262453
-0.0261259
-0.0260097
-0.0258695
-0.0257226
-0.0255771
-0.025437
-0.0253051
-0.0251832
-0.0250727
-0.0249744
-0.0248891
-0.0248172
-0.0247591
-0.0247151
-0.0246858
-0.0246718
-0.0246718
-0.0246899
-0.0247413
-0.00214732
-0.00772988
-0.00947144
-0.0120991
-0.0138734
-0.0153997
-0.0165762
-0.0174896
-0.0181912
-0.0187283
-0.0191395
-0.0194607
-0.0197146
-0.0199104
-0.0200619
-0.0201818
-0.0202782
-0.0203572
-0.0204232
-0.0204797
-0.0205291
-0.0205736
-0.0206147
-0.0206539
-0.0206925
-0.0207316
-0.0207719
-0.0208133
-0.0208619
-0.0209244
0.0188731
0.0106591
0.00629176
0.00174278
-0.00164709
-0.00439009
-0.0065495
-0.00827055
-0.00965699
-0.0107874
-0.0117213
-0.0125051
-0.0131682
-0.0137334
-0.0142176
-0.0146353
-0.0149978
-0.0153138
-0.01559
-0.015832
-0.0160443
-0.0162308
-0.0163947
-0.0165386
-0.016665
-0.0167758
-0.0168722
-0.0169555
-0.017032
-0.0171002
0.0393946
0.0287626
0.0221578
0.0162171
0.0116174
0.00785221
0.00475244
0.00216322
-2.34849e-05
-0.00188615
-0.00348499
-0.00486653
-0.00606427
-0.00710615
-0.00801391
-0.00880613
-0.00949824
-0.0101031
-0.0106318
-0.0110933
-0.0114956
-0.0118455
-0.0121486
-0.0124097
-0.0126331
-0.0128219
-0.0129784
-0.0131053
-0.0132076
-0.0132775
0.059468
0.0480352
0.0402069
0.0332861
0.0274653
0.0224304
0.0180627
0.0142701
0.0109755
0.00811284
0.00562343
0.00345711
0.00157162
-7.00693e-05
-0.00149946
-0.00274391
-0.00382713
-0.00476956
-0.00558875
-0.00629976
-0.00691541
-0.00744663
-0.00790264
-0.00829118
-0.00861864
-0.00889008
-0.00910943
-0.00928055
-0.00940654
-0.00947648
0.0803504
0.0699889
0.0608771
0.0523483
0.0446673
0.0378425
0.0318376
0.0265906
0.0220242
0.0180588
0.0146184
0.0116346
0.00904707
0.00680295
0.00485637
0.00316771
0.0017029
0.00043274
-0.00066768
-0.00161951
-0.00244064
-0.00314613
-0.0037486
-0.00425853
-0.00468447
-0.00503326
-0.00531048
-0.00552085
-0.0056661
-0.00573688
0.0995693
0.0884724
0.0769727
0.066359
0.056977
0.0487979
0.0416974
0.0355442
0.0302156
0.0256014
0.021604
0.0181386
0.0151322
0.0125219
0.010254
0.00828279
0.00656931
0.00508045
0.00378817
0.00266875
0.00170218
0.000871669
0.000163188
-0.000434901
-0.000932116
-0.00133616
-0.00165328
-0.00188831
-0.00204292
-0.00211386
0.114361
0.0984539
0.0853221
0.0738888
0.0640233
0.0555354
0.0482088
0.0418625
0.0363522
0.0315599
0.0273862
0.0237465
0.0205686
0.0177913
0.0153622
0.013237
0.0113778
0.00975246
0.00833377
0.00709856
0.00602722
0.00510323
0.00431272
0.00364413
0.00308792
0.0026363
0.00228309
0.00202391
0.00185619
0.00177676
0.125955
0.107785
0.0939421
0.0822533
0.0721411
0.063378
0.0557774
0.0491662
0.0433977
0.0383527
0.0339327
0.0300546
0.026648
0.0236529
0.021018
0.0186997
0.0166608
0.0148693
0.0132982
0.0119242
0.0107277
0.00969208
0.00880311
0.00804901
0.00741995
0.00690791
0.00650655
0.00621119
0.00601806
0.00592324
0.131436
0.114895
0.101096
0.0893792
0.0792365
0.0703896
0.0626551
0.0558789
0.0499273
0.0446886
0.04007
0.0359932
0.0323914
0.0292074
0.0263918
0.0239026
0.0217034
0.0197629
0.0180545
0.0165552
0.0152453
0.0141081
0.0131294
0.0122971
0.0116014
0.011034
0.0105883
0.0102594
0.0100429
0.00993541
0.133995
0.119087
0.106056
0.0947768
0.0849105
0.0762071
0.0685122
0.0617055
0.0556791
0.0503371
0.045597
0.0413876
0.0376478
0.0343245
0.0313716
0.0287493
0.026423
0.0243626
0.0225422
0.0209396
0.0195354
0.0183131
0.0172588
0.0163603
0.0156078
0.0149931
0.0145095
0.0141516
0.0139155
0.0137982
0.134155
0.121283
0.109442
0.0988283
0.0893821
0.0809587
0.0734363
0.0667179
0.060718
0.0553586
0.0505702
0.0462911
0.0424673
0.0390512
0.0360011
0.0332802
0.0308565
0.0287018
0.0267915
0.0251045
0.0236222
0.0223286
0.0212102
0.0202553
0.019454
0.0187984
0.0182818
0.017899
0.017646
0.01752
0.133357
0.121993
0.111324
0.10155
0.0926876
0.0846748
0.0774366
0.0709055
0.0650197
0.0597201
0.0549515
0.0506628
0.0468082
0.0433463
0.0402403
0.0374572
0.034968
0.0327469
0.0307712
0.029021
0.027479
0.0261301
0.0249612
0.0239612
0.0231207
0.022432
0.0218886
0.0214854
0.0212186
0.021086
0.131597
0.121716
0.112217
0.10332
0.0950992
0.0875595
0.0806723
0.0743972
0.0686917
0.063513
0.0588193
0.0545705
0.0507289
0.0472602
0.0441327
0.0413178
0.0387898
0.0365256
0.0345048
0.0327092
0.0311227
0.0297315
0.0285234
0.0274878
0.026616
0.0259005
0.0253352
0.0249154
0.0246375
0.0244991
0.129503
0.120805
0.112323
0.104268
0.0967182
0.0896993
0.0832125
0.0772428
0.0717665
0.0667562
0.0621824
0.0580151
0.0542252
0.0507848
0.0476676
0.0448495
0.0423084
0.040024
0.0379784
0.0361552
0.0345401
0.0331202
0.0318845
0.0308234
0.0299285
0.0291931
0.0286114
0.028179
0.0278926
0.0277499
0.127052
0.119445
0.111912
0.104654
0.0977557
0.0912614
0.0851939
0.0795567
0.0743413
0.0695325
0.0651115
0.0610576
0.0573491
0.0539645
0.050883
0.0480847
0.0455512
0.0432654
0.0412116
0.0393755
0.0377446
0.0363073
0.0350538
0.0339754
0.0330644
0.0323148
0.0317211
0.0312794
0.0309867
0.0308408
0.124552
0.117846
0.111129
0.104591
0.0983089
0.0923312
0.0866892
0.0813985
0.0764628
0.0718775
0.0676331
0.0637166
0.0601134
0.0568076
0.0537835
0.0510253
0.0485182
0.0462479
0.0442013
0.0423663
0.0407319
0.0392881
0.0380263
0.0369387
0.0360186
0.0352603
0.0346592
0.0342116
0.0339147
0.0337667
0.121986
0.116084
0.110108
0.104228
0.0985176
0.0930298
0.087802
0.0828579
0.0782092
0.0738595
0.0698064
0.0660437
0.0625626
0.0593524
0.0564019
0.0536994
0.0512331
0.0489917
0.0469647
0.0451418
0.043514
0.0420726
0.0408102
0.0397201
0.0387964
0.0380342
0.0374293
0.0369785
0.0366793
0.0365302
0.119504
0.114278
0.108939
0.103641
0.0984533
0.0934244
0.0885935
0.0839882
0.0796259
0.0755162
0.0716624
0.0680638
0.0647166
0.0616147
0.0587506
0.0561162
0.0537029
0.0515021
0.0495053
0.0477045
0.0460922
0.0446613
0.0434054
0.042319
0.0413971
0.0406353
0.0400302
0.0395788
0.039279
0.0391295
0.117092
0.112459
0.107689
0.102915
0.0982016
0.0935957
0.0891372
0.0848559
0.0807726
0.076901
0.0732486
0.0698191
0.0666125
0.0636267
0.0608576
0.0583002
0.0559487
0.0537969
0.0518385
0.0500674
0.0484775
0.0470634
0.0458197
0.044742
0.043826
0.0430682
0.0424656
0.0420158
0.0417169
0.0415677
0.114821
0.110693
0.106412
0.102099
0.0978108
0.0935915
0.089479
0.0855035
0.0816876
0.0780476
0.0745943
0.0713345
0.0682717
0.0654065
0.0627381
0.0602641
0.0579809
0.0558848
0.0539713
0.0522361
0.0506745
0.0492825
0.048056
0.0469913
0.046085
0.0453343
0.0447367
0.0442903
0.0439935
0.0438453
0.112678
0.10899
0.105141
0.101238
0.097332
0.0934634
0.0896688
0.0859781
0.0824148
0.0789965
0.0757364
0.0726436
0.069724
0.0669809
0.0644157
0.0620284
0.0598177
0.0577816
0.0559174
0.0542224
0.0526935
0.0513276
0.0501217
0.0490732
0.0481795
0.0474383
0.0468477
0.0464061
0.0461124
0.0459658
0.110696
0.107383
0.103908
0.100363
0.0967962
0.0932434
0.0897389
0.0863112
0.0829838
0.0797752
0.0766998
0.0737686
0.0709892
0.0683671
0.0659056
0.0636066
0.0614705
0.0594971
0.0576853
0.0560336
0.0545404
0.0532036
0.0520214
0.0509917
0.0501128
0.0493831
0.0488011
0.0483656
0.0480758
0.0479311
0.108861
0.105874
0.102726
0.0994989
0.0962335
0.0929641
0.0897222
0.0865352
0.0834259
0.0804133
0.0775124
0.0747353
0.0720911
0.0695868
0.0672272
0.0650158
0.0629547
0.0610449
0.0592869
0.0576804
0.0562247
0.0549189
0.0537621
0.052753
0.0518905
0.0511736
0.0506013
0.0501727
0.0498874
0.0497449
0.107186
0.104478
0.101613
0.0986622
0.0956629
0.0926462
0.0896408
0.0866724
0.0837633
0.080932
0.078194
0.0755621
0.0730465
0.0706551
0.0683942
0.0662685
0.0642813
0.0624349
0.0607309
0.0591701
0.0577529
0.0564792
0.0553489
0.0543615
0.0535165
0.0528133
0.0522515
0.0518306
0.0515502
0.05141
0.10566
0.103193
0.100575
0.0978662
0.095102
0.0923098
0.089516
0.0867449
0.0840177
0.0813526
0.0787652
0.0762686
0.0738736
0.0715891
0.0694223
0.0673788
0.0654631
0.0636785
0.0620276
0.0605121
0.0591332
0.0578918
0.0567884
0.0558231
0.054996
0.0543071
0.0537562
0.0533432
0.0530679
0.0529303
0.104283
0.102023
0.0996184
0.0971208
0.0945621
0.091968
0.0893625
0.0867682
0.0842051
0.0816909
0.0792412
0.0768692
0.0745861
0.0724014
0.070323
0.0683574
0.0665099
0.0647846
0.0631849
0.0617134
0.0603721
0.0591624
0.0580856
0.0571424
0.0563333
0.0556586
0.0551188
0.0547138
0.0544437
0.0543087