/*--------------------------------*- C++ -*----------------------------------*\
  =========                 |
  \\      /  F ield         | OpenFOAM: The Open Source CFD Toolbox
   \\    /   O peration     | Website:  https://openfoam.org
    \\  /    A nd           | Version:  7
     \\/     M anipulation  |
\*---------------------------------------------------------------------------*/
FoamFile
{
    version     2.0;
    format      ascii;
    class       surfaceScalarField;
    location    "30";
    object      phi;
}
// * * * * * * * * * * * * * * * * * * * * * * * * * * * * * * * * * * * * * //

dimensions      [0 3 -1 0 0 0 0];

internalField   nonuniform List<scalar> 
6856
(
-0.000426721
0.000199117
-0.000656985
0.000230263
-0.000910991
0.000254004
-0.00118551
0.000274514
-0.00147562
0.000290106
-0.00176543
0.000289813
-0.00208259
0.000317154
0.000254704
-0.0023373
-7.00068e-05
0.000145434
-0.000211918
0.000294086
-0.000396449
0.000383648
-0.000606924
0.000440737
-0.000834102
0.000481183
-0.00107256
0.000512968
-0.00131962
0.000537171
-0.00153956
0.000509748
-0.00179515
0.000572745
0.000387704
-0.00192815
-6.01251e-05
0.000205559
-0.000182825
0.000416786
-0.000339553
0.000540377
-0.000511828
0.000613012
-0.000686928
0.000656283
-0.000852587
0.000678628
-0.0010127
0.000697288
-0.00109404
0.000591088
-0.00121562
0.000694322
0.000295203
-0.00112312
-4.75276e-05
0.000253087
-0.000144505
0.000513763
-0.000262808
0.000658679
-0.000380976
0.00073118
-0.000481989
0.000757296
-0.000540754
0.000737392
-0.000560354
0.000716888
-0.000446662
0.000477397
-0.000305945
0.000553605
-8.20097e-05
7.12682e-05
-3.43971e-05
0.000287484
-0.000102231
0.000581597
-0.000174793
0.000731242
-0.00022584
0.000782227
-0.000231454
0.00076291
-0.000161086
0.000667024
4.14257e-05
0.000514377
0.000395104
0.000123719
0.000900772
4.79359e-05
-0.000970077
0.00178884
-2.28522e-05
0.000310336
-6.10713e-05
0.000619816
-8.34815e-05
0.000753652
-5.71319e-05
0.000755877
5.81195e-05
0.000647658
0.00029459
0.000430554
0.000747292
6.16748e-05
0.00146097
-0.00058996
0.00243592
-0.000927016
-0.00251939
0.00398523
-1.43681e-05
0.000324704
-2.41256e-05
0.000629574
7.55698e-06
0.00072197
0.000125446
0.000637988
0.000386039
0.000387065
0.000852353
-3.57605e-05
0.00164318
-0.000729154
0.00276794
-0.00171472
0.00431485
-0.00247392
-0.00467467
0.00647013
-9.47087e-06
0.000334175
8.928e-06
0.000611175
0.000102339
0.000628558
0.000335716
0.000404611
0.00079394
-7.11589e-05
0.0015723
-0.000814124
0.00276187
-0.00191872
0.00435818
-0.00331103
0.00644853
-0.00456427
-0.0070518
0.00882566
-6.37758e-06
0.000340552
4.25559e-05
0.000562241
0.000215755
0.00045536
0.000607276
1.30898e-05
0.00133289
-0.000796772
0.00250156
-0.00198279
0.00409192
-0.00350908
0.00606473
-0.00528384
0.00842902
-0.00692856
-0.00916767
0.0105449
-1.97523e-06
0.000342528
8.77561e-05
0.00047251
0.000372416
0.000170699
0.000985015
-0.000599509
0.00204494
-0.0018567
0.00358682
-0.00352467
0.0054648
-0.00538706
0.00751297
-0.00733201
0.00961558
-0.00903117
-0.0108052
0.0112531
6.21197e-06
0.000336316
0.000156869
0.000321853
0.000600398
-0.000272829
0.00149547
-0.00149459
0.00289293
-0.00325416
0.00465666
-0.0052884
0.00655043
-0.00728084
0.00833693
-0.00911851
0.00986242
-0.0105567
-0.0119355
0.0109927
2.1825e-05
0.000314491
0.000262434
8.12443e-05
0.000918514
-0.000928909
0.00211226
-0.00268833
0.00372454
-0.00486644
0.00546475
-0.00702861
0.00708871
-0.00890479
0.00841936
-0.0104492
0.00953711
-0.0116744
-0.012899
0.0105006
4.80729e-05
0.000266418
0.000414138
-0.000284821
0.00131801
-0.00183278
0.00273355
-0.00410387
0.00434728
-0.00648017
0.00584599
-0.00852733
0.00708361
-0.0101424
0.00806537
-0.0114309
0.00891492
-0.012524
-0.0136297
0.0096457
8.72366e-05
0.000179181
0.000614669
-0.000812253
0.00174596
-0.00296407
0.00322213
-0.00558004
0.00464967
-0.0079077
0.00582364
-0.00970131
0.00674034
-0.0110591
0.00747866
-0.0121692
0.00814171
-0.013187
-0.0142721
0.00878407
0.000142094
3.70868e-05
0.000850322
-0.00152048
0.00211734
-0.00423109
0.00348993
-0.00695262
0.00464796
-0.00906574
0.00552955
-0.0105829
0.00620633
-0.0117359
0.00677393
-0.0127368
0.00732102
-0.0137341
-0.0148042
0.00785312
0.000215002
-0.000177915
0.00108721
-0.00239269
0.00236027
-0.00550415
0.00353284
-0.00812519
0.00442394
-0.00995684
0.00506982
-0.0112288
0.00557157
-0.0122376
0.00601656
-0.0131818
0.00645443
-0.014172
-0.0152415
0.00689174
0.000303225
-0.000481141
0.00128442
-0.00337389
0.00245238
-0.00667211
0.00339515
-0.00906795
0.00405339
-0.0106151
0.0045168
-0.0116922
0.0048865
-0.0126074
0.00522706
-0.0135224
0.00556951
-0.0145144
-0.0155858
0.00591379
0.000394793
-0.000875934
0.00140889
-0.00438799
0.00240898
-0.00767219
0.00312822
-0.00978719
0.00359357
-0.0110804
0.00391411
-0.0120127
0.0041758
-0.012869
0.00442319
-0.0137698
0.00466985
-0.0147611
-0.0158307
0.00491472
0.000474375
-0.00135031
0.00144383
-0.00535744
0.00225718
-0.00848555
0.00277589
-0.0103059
0.00308318
-0.0113877
0.00328738
-0.0122169
0.0034543
-0.013036
0.00361094
-0.0139264
0.00376311
-0.0149133
-0.0159786
0.00391102
0.000529734
-0.00188004
0.00139448
-0.00622219
0.00202517
-0.00911623
0.0023714
-0.0106521
0.00254787
-0.0115642
0.00265194
-0.012321
0.00272972
-0.0131137
0.00279675
-0.0139934
0.00285541
-0.0149719
-0.0160299
0.00290678
0.000553501
-0.00243354
0.00128374
-0.00695243
0.00173936
-0.00957186
0.00193812
-0.0108509
0.00200361
-0.0116297
0.00201706
-0.0123344
0.0020084
-0.0131051
0.00198516
-0.0139702
0.00194802
-0.0149348
-0.0159867
0.00190475
0.000543138
-0.00297668
0.00112644
-0.00753574
0.00142068
-0.00986609
0.0014919
-0.0109221
0.00146046
-0.0115983
0.00138893
-0.0122629
0.00129528
-0.0130114
0.00118198
-0.0138569
0.00104601
-0.0147988
-0.0158404
0.000899784
0.000501497
-0.00347818
0.000936542
-0.00797078
0.00108488
-0.0100144
0.00104465
-0.0108819
0.000925217
-0.0114788
0.000771566
-0.0121093
0.000593747
-0.0128336
0.000391173
-0.0136543
0.000167746
-0.0145754
-0.0155676
-0.000105151
0.000435489
-0.00391367
0.000726397
-0.00826169
0.000744131
-0.0100322
0.000604296
-0.010742
0.000401802
-0.0112763
0.00016656
-0.011874
-9.47404e-05
-0.0125723
-0.000378525
-0.0133705
-0.000698167
-0.0142557
-0.0152153
-0.00105044
0.000353157
-0.00426683
0.000506243
-0.00841477
0.000406595
-0.00993252
0.000174023
-0.0105095
-0.000106628
-0.0109957
-0.000413344
-0.0115673
-0.00075084
-0.0122348
-0.00112324
-0.0129981
-0.00153367
-0.0138453
-0.0147759
-0.00197303
0.000261572
-0.0045284
0.000285212
-0.00843841
7.49262e-05
-0.00972223
-0.000235409
-0.0101991
-0.000586128
-0.010645
-0.000970061
-0.0111834
-0.00138642
-0.0118184
-0.00184176
-0.0125428
-0.00233465
-0.0133524
-0.0142495
-0.00286104
0.000166245
-0.00469464
7.38443e-05
-0.00834601
-0.000235955
-0.00941243
-0.00062344
-0.00981165
-0.00104685
-0.0102215
-0.00150324
-0.010727
-0.00199508
-0.0113266
-0.00252799
-0.0120099
-0.00310081
-0.0127796
-0.0136401
-0.00371026
7.26832e-05
-0.00476733
-0.000141239
-0.00813209
-0.000531724
-0.00902195
-0.000992078
-0.0093513
-0.00148459
-0.00972903
-0.00201055
-0.010201
-0.00257398
-0.0107632
-0.00317923
-0.0114047
-0.00382788
-0.0121309
-0.0129548
-0.00451314
-1.37959e-05
-0.00475353
-0.000343203
-0.00780268
-0.000812182
-0.00855297
-0.00133858
-0.0088249
-0.00189685
-0.00917076
-0.00249009
-0.00960778
-0.00312261
-0.0101306
-0.0037959
-0.0107314
-0.00450516
-0.0114217
-0.0122015
-0.0052585
-0.00011971
-0.00463382
-0.000530158
-0.00739223
-0.0010729
-0.00801023
-0.00166131
-0.00823649
-0.00228166
-0.00855041
-0.00293907
-0.00895037
-0.00363832
-0.0094314
-0.00438221
-0.00998748
-0.0051746
-0.0106293
-0.0114279
-0.00594815
-0.000209893
-0.00442393
-0.000702923
-0.0068992
-0.00131177
-0.00740138
-0.00195855
-0.00758972
-0.002637
-0.00787196
-0.00335388
-0.00823349
-0.0041144
-0.00867088
-0.00492132
-0.00918055
-0.00577562
-0.009775
-0.0104281
-0.00677544
-0.000290742
-0.00413319
-0.000860233
-0.00632971
-0.00152853
-0.00673308
-0.00222914
-0.00688911
-0.00296144
-0.00713965
-0.00373243
-0.00746251
-0.00454573
-0.00785758
-0.00540528
-0.00832101
-0.00633071
-0.00884957
-0.00940017
-0.00735863
-0.000362742
-0.00377044
-0.00100091
-0.00569155
-0.00172236
-0.00601163
-0.00247187
-0.0061396
-0.00325331
-0.00635821
-0.0040746
-0.00664121
-0.00494226
-0.00698992
-0.00586528
-0.00739799
-0.00685841
-0.00785645
-0.00834342
-0.00791516
-0.000425591
-0.00334485
-0.00112424
-0.00499289
-0.00189268
-0.00524319
-0.00268573
-0.00534655
-0.00351036
-0.00553359
-0.00437442
-0.00577715
-0.00528585
-0.0060785
-0.00625565
-0.00642819
-0.00729546
-0.00681664
-0.00723858
-0.0084003
-0.00047831
-0.00286654
-0.00122954
-0.00424167
-0.00203907
-0.00443365
-0.00287046
-0.00451516
-0.00373357
-0.00467048
-0.00463697
-0.00487375
-0.00558955
-0.00512592
-0.00660088
-0.00541685
-0.00767825
-0.00573927
-0.00609484
-0.00882199
-0.000519379
-0.00234716
-0.00131645
-0.0034446
-0.00216116
-0.00358894
-0.00302476
-0.00365155
-0.00391967
-0.00377557
-0.00485507
-0.00393835
-0.00584059
-0.0041404
-0.00688517
-0.00437226
-0.00799533
-0.00462911
-0.0049158
-0.00917437
-0.00055467
-0.00179249
-0.00138628
-0.00261299
-0.0022592
-0.00271603
-0.00314905
-0.0027617
-0.00407005
-0.00285457
-0.0050317
-0.0029767
-0.00604378
-0.00312833
-0.0071144
-0.00330164
-0.00824998
-0.00349353
-0.0037094
-0.00945638
-0.000582074
-0.00121042
-0.00143901
-0.00175605
-0.00233282
-0.00182222
-0.00324239
-0.00185213
-0.00418297
-0.00191399
-0.00516426
-0.0019954
-0.00619614
-0.00209645
-0.00728618
-0.0022116
-0.00844062
-0.00233909
-0.00248313
-0.00966689
-0.000600564
-0.00147437
-0.00238203
-0.00330479
-0.000929366
-0.0042585
-0.000960279
-0.00525293
-0.00100098
-0.0062979
-0.00105147
-0.00740058
-0.00110893
-0.00856718
-0.00117249
-0.00124441
-0.0098059
-0.00333603
-0.00429631
-0.00529728
-0.00634875
-0.00745768
-0.00863017
-0.00987459
-0.0023814
4.41041e-05
-0.00242233
4.09304e-05
-0.0024588
3.64599e-05
-0.00249128
3.24876e-05
-0.00252027
2.89883e-05
-0.0025462
2.59221e-05
-0.00256942
2.32248e-05
-0.00259025
2.08354e-05
-0.00260893
1.86762e-05
-0.00262562
1.66889e-05
-0.00264044
1.48262e-05
-0.00265349
1.30502e-05
-0.00266481
1.13325e-05
-0.00267446
9.65493e-06
-0.00268247
8.01065e-06
-0.00268887
6.40767e-06
-0.00269371
4.84451e-06
-0.00269704
3.33865e-06
-0.00269887
1.84128e-06
-0.00269909
2.25818e-07
-0.00269796
-1.11831e-06
-0.00269544
-2.5169e-06
-0.00269145
-3.97815e-06
-0.00268596
-5.48648e-06
-0.00267891
-7.03873e-06
-0.00267027
-8.63561e-06
-0.00265998
-1.02794e-05
-0.002648
-1.1973e-05
-1.37196e-05
-0.00196391
7.98703e-05
-0.00199812
7.51368e-05
-0.00202873
6.70726e-05
-0.00205598
5.97337e-05
-0.0020801
5.31077e-05
-0.00210142
4.72436e-05
-0.00212022
4.20264e-05
-0.00213678
3.73959e-05
-0.00215128
3.31723e-05
-0.00216384
2.92477e-05
-0.00217455
2.55369e-05
-0.00218347
2.19703e-05
-0.00219063
1.84926e-05
-0.00219604
1.50647e-05
-0.0021997
1.16773e-05
-0.00220172
8.41969e-06
-0.00220203
5.16071e-06
-0.0022006
1.91098e-06
-0.00219757
-1.1891e-06
-0.0021934
-3.94446e-06
-0.00218769
-6.83636e-06
-0.0021804
-9.80439e-06
-0.00217154
-1.28395e-05
-0.00216108
-1.59425e-05
-0.002149
-1.91177e-05
-0.00213527
-2.23705e-05
-0.00211984
-2.5707e-05
-0.00210268
-2.91331e-05
-3.26554e-05
-0.00114857
0.000105323
-0.00116959
9.61488e-05
-0.0011904
8.78838e-05
-0.00120945
7.87845e-05
-0.00122629
6.99532e-05
-0.00124096
6.19123e-05
-0.00125346
5.45241e-05
-0.00126397
4.79093e-05
-0.00127255
4.17521e-05
-0.00127925
3.59438e-05
-0.0012841
3.03846e-05
-0.00128711
2.49873e-05
-0.00128829
1.96695e-05
-0.00128759
1.43647e-05
-0.00128499
9.0762e-06
-0.0012804
3.83331e-06
-0.00127384
-1.40014e-06
-0.00126613
-5.79852e-06
-0.00125695
-1.03695e-05
-0.00124591
-1.49911e-05
-0.0012331
-1.96433e-05
-0.00121856
-2.4342e-05
-0.0012023
-2.91016e-05
-0.00118431
-3.39357e-05
-0.00116457
-3.8856e-05
-0.00114307
-4.38726e-05
-0.00111978
-4.89944e-05
-0.00109468
-5.42298e-05
-5.95875e-05
6.42857e-05
0.000112306
4.89466e-05
0.000111488
3.55407e-05
0.00010129
2.31216e-05
9.12036e-05
1.13533e-05
8.17215e-05
8.6023e-07
7.24054e-05
-8.22056e-06
6.36049e-05
-1.55411e-05
5.52298e-05
-2.10069e-05
4.72179e-05
-2.451e-05
3.94468e-05
-2.59901e-05
3.18647e-05
-2.54163e-05
2.44135e-05
-2.27299e-05
1.6983e-05
-1.77919e-05
9.42678e-06
-1.01867e-05
1.471e-06
-1.11684e-06
-5.23659e-06
9.27492e-06
-1.17919e-05
2.18538e-05
-1.83774e-05
3.64518e-05
-2.49675e-05
5.30158e-05
-3.1555e-05
7.15304e-05
-3.8158e-05
9.19846e-05
-4.47961e-05
0.000114371
-5.14876e-05
0.000138686
-5.8251e-05
0.000164933
-6.51028e-05
0.000193115
-7.20551e-05
0.000223237
-7.9116e-05
0.000255301
-8.62935e-05
0.000289311
-9.35978e-05
-0.000101039
0.00173714
0.000164009
0.00170178
0.000146849
0.00167187
0.000131196
0.00164586
0.000117214
0.00162352
0.000104063
0.00160461
9.13109e-05
0.00158868
7.9534e-05
0.0015753
6.86158e-05
0.00156442
5.80954e-05
0.00155614
4.7725e-05
0.0015505
3.75067e-05
0.00154748
2.74315e-05
0.00154709
1.73715e-05
0.00154946
7.06093e-06
0.00155402
-3.09075e-06
0.00156096
-1.21787e-05
0.0015706
-2.14297e-05
0.00158279
-3.05703e-05
0.00159744
-3.96113e-05
0.00161446
-4.85804e-05
0.00163382
-5.75132e-05
0.00165546
-6.64425e-05
0.00167937
-7.53926e-05
0.00170551
-8.43881e-05
0.00173386
-9.34523e-05
0.0017644
-0.000102598
0.00179711
-0.000111829
0.00183197
-0.000121151
0.00186895
-0.000130575
-0.000140115
0.00389139
0.000257849
0.00381331
0.000224934
0.00374129
0.000203219
0.00367469
0.000183806
0.00361627
0.00016249
0.00356614
0.000141441
0.00352287
0.000122801
0.00348527
0.000106215
0.00345285
9.05141e-05
0.00342531
7.52646e-05
0.00340229
6.05278e-05
0.00338345
4.62707e-05
0.00336854
3.22886e-05
0.0033573
1.8293e-05
0.00335052
3.69094e-06
0.00334727
-8.92863e-06
0.00334702
-2.11816e-05
0.00334998
-3.35308e-05
0.00335625
-4.58741e-05
0.00336567
-5.80022e-05
0.00337809
-6.9937e-05
0.00339339
-8.17406e-05
0.00341146
-9.3461e-05
0.00343222
-0.000105152
0.00345564
-0.000116864
0.00348165
-0.000128615
0.00351022
-0.000140394
0.00354126
-0.000152198
0.00357473
-0.000164043
-0.000175948
0.00633355
0.000394424
0.00620954
0.000348952
0.00609216
0.000320593
0.00597873
0.00029724
0.00587496
0.00026626
0.0057816
0.000234803
0.00569719
0.00020721
0.00562097
0.00018243
0.00555281
0.000158674
0.00549232
0.000135756
0.00543887
0.000113976
0.00539188
9.32599e-05
0.00535083
7.33387e-05
0.00531511
5.40142e-05
0.00528369
3.51126e-05
0.00525836
1.64061e-05
0.00523961
-2.43119e-06
0.00522439
-1.83126e-05
0.00521318
-3.46668e-05
0.00520599
-5.0816e-05
0.00520289
-6.68365e-05
0.00520373
-8.25717e-05
0.00520824
-9.79787e-05
0.00521624
-0.000113152
0.00522758
-0.000128205
0.00524215
-0.000143176
0.00525979
-0.00015804
0.00528038
-0.000172791
0.0053038
-0.000187464
0.00532995
-0.000202094
-0.000216696
0.00866404
0.00055604
0.00851049
0.000502501
0.00835657
0.000474516
0.00820899
0.000444824
0.00807233
0.000402917
0.00794515
0.000361976
0.00782616
0.000326201
0.0077157
0.000292897
0.00761413
0.000260244
0.00752117
0.000228709
0.0074364
0.000198749
0.00735945
0.00017021
0.00728995
0.000142837
0.00722746
0.00011651
0.00717145
9.11147e-05
0.00712129
6.65736e-05
0.00707622
4.26382e-05
0.00703908
1.88288e-05
0.00700908
-4.66988e-06
0.00698253
-2.4269e-05
0.00696017
-4.44719e-05
0.00694207
-6.44739e-05
0.00692825
-8.41555e-05
0.00691859
-0.000103495
0.00691298
-0.000122595
0.00691126
-0.000141454
0.0069132
-0.000159986
0.00691859
-0.000178184
0.00692725
-0.000196121
0.00693901
-0.000213855
0.00695372
-0.000231405
-0.000248773
0.0103878
0.000713161
0.0102323
0.000657995
0.0100725
0.000634313
0.00992165
0.000595654
0.00977926
0.000545305
0.00964352
0.000497717
0.00951453
0.000455189
0.00939276
0.000414669
0.00927827
0.000374738
0.00917099
0.000335985
0.00907099
0.000298755
0.00897826
0.000262939
0.00889266
0.000228437
0.00881394
0.000195229
0.00874181
0.000163242
0.00867599
0.000132394
0.00861606
0.000102566
0.00856112
7.37696e-05
0.00851074
4.57144e-05
0.00846865
1.78143e-05
0.00843297
-8.78362e-06
0.00840073
-3.22378e-05
0.00837235
-5.57758e-05
0.00834781
-7.89541e-05
0.00832725
-0.000102034
0.00831064
-0.000124844
0.00829778
-0.000147123
0.00828845
-0.000168859
0.00828249
-0.000190158
0.00827971
-0.000211078
0.00827994
-0.000231632
-0.000251827
0.011151
0.00081528
0.0110264
0.000782513
0.0109119
0.000748901
0.0108019
0.000705643
0.0106927
0.000654473
0.0105861
0.000604326
0.0104832
0.00055812
0.0103837
0.00051409
0.0102877
0.000470783
0.0101953
0.000428399
0.0101068
0.000387191
0.0100226
0.00034716
0.00994276
0.000308293
0.00986737
0.000270623
0.00979647
0.000234136
0.00973006
0.000198804
0.00966808
0.000164551
0.00961049
0.000131359
0.00955705
9.91502e-05
0.00950681
6.80572e-05
0.0094605
3.75233e-05
0.00942175
6.51379e-06
0.00938597
-1.99907e-05
0.0093531
-4.609e-05
0.00932355
-7.24834e-05
0.00929719
-9.84794e-05
0.00927388
-0.000123819
0.00925358
-0.000148553
0.00923619
-0.000172773
0.00922162
-0.000196509
0.00920975
-0.000219759
0.00920045
-0.000242526
-0.000264824
0.0165983
0.000919223
-0.0167023
0.0165197
0.000861106
0.0164531
0.000815537
0.0163897
0.000769081
0.0163235
0.000720681
0.016255
0.000672751
0.0161872
0.000625946
0.0161208
0.000580462
0.0160553
0.000536333
0.0159903
0.000493401
0.015926
0.000451489
0.0158626
0.000410546
0.0158003
0.000370604
0.0157392
0.000331694
0.0156796
0.000293806
0.0156214
0.000256923
0.015565
0.000221008
0.0155103
0.000186048
0.0154574
0.000152004
0.0154066
0.000118885
0.0153574
8.67541e-05
0.0153079
5.59754e-05
0.0152612
2.67724e-05
0.0152151
-7.46714e-08
0.015174
-3.1315e-05
0.015135
-5.95551e-05
0.0150981
-8.68764e-05
0.0150632
-0.00011364
0.0150302
-0.000139835
0.0149992
-0.000165414
0.0149698
-0.000190382
0.014942
-0.000214773
-0.000238616
0.0166954
0.000929885
-0.0167061
0.0166829
0.00087366
0.0166768
0.000821591
0.0166714
0.000774472
0.0166625
0.000729626
0.0166498
0.000685452
0.0166341
0.000641635
0.016616
0.000598582
0.0165957
0.00055661
0.0165734
0.0005157
0.0165492
0.000475701
0.0165232
0.000436519
0.0164957
0.000398136
0.0164668
0.000360573
0.0164368
0.000323835
0.0164058
0.000287924
0.0163739
0.000252846
0.0163414
0.000218605
0.0163082
0.000185216
0.0162744
0.000152673
0.0162402
0.000120965
0.0162062
8.99606e-05
0.0161734
5.9568e-05
0.0161437
2.95725e-05
0.0161131
-7.07484e-07
0.0160813
-2.77636e-05
0.0160499
-5.54512e-05
0.0160189
-8.26402e-05
0.0159882
-0.000109136
0.0159578
-0.000135017
0.0159278
-0.000160345
0.0158981
-0.000185128
-0.000209368
0.0165907
0.000909914
-0.0165707
0.0166083
0.000856047
0.016624
0.000805943
0.0166383
0.000760178
0.0166506
0.000717264
0.0166604
0.000675635
0.0166675
0.000634584
0.0166719
0.000594159
0.016674
0.000554561
0.0166738
0.000515868
0.0166715
0.000478026
0.016667
0.000440952
0.0166606
0.000404598
0.0166522
0.000368949
0.016642
0.000334005
0.0166302
0.000299771
0.0166168
0.000266244
0.016602
0.000233416
0.0165859
0.00020126
0.0165689
0.000169728
0.0165511
0.000138774
0.0165326
0.000108441
0.0165133
7.88363e-05
0.0164928
5.01106e-05
0.0164698
2.22706e-05
0.0164469
-4.88166e-06
0.016424
-3.25558e-05
0.0164005
-5.91403e-05
0.0163765
-8.51277e-05
0.0163521
-0.000110584
0.0163272
-0.000135498
0.016302
-0.000159869
-0.000183706
0.0164432
0.000871207
-0.0164045
0.0164733
0.000825995
0.0164986
0.000780613
0.0165214
0.00073737
0.0165422
0.000696459
0.0165608
0.000657082
0.0165768
0.000618551
0.0165903
0.000580625
0.0166015
0.000543348
0.0166106
0.000506803
0.0166176
0.000471007
0.0166227
0.000435925
0.0166257
0.000401511
0.016627
0.000367737
0.0166264
0.000334591
0.0166241
0.000302067
0.0166202
0.000270159
0.0166147
0.000238855
0.0166078
0.000208138
0.0165996
0.000178009
0.0165899
0.000148479
0.0165787
0.000119589
0.0165662
9.13652e-05
0.0165524
6.38647e-05
0.0165379
3.67877e-05
0.0165231
9.95955e-06
0.0165067
-1.61796e-05
0.0164894
-4.18088e-05
0.0164712
-6.6922e-05
0.0164521
-9.14875e-05
0.0164321
-0.000115535
0.0164113
-0.000139078
-0.000162122
0.0162865
0.000830064
-0.0162453
0.0163222
0.000790324
0.0163535
0.000749229
0.0163817
0.000709204
0.0164072
0.000670931
0.0164303
0.000634049
0.0164508
0.000598026
0.0164689
0.000562564
0.0164846
0.000527619
0.0164981
0.000493252
0.0165096
0.00045951
0.0165192
0.000426394
0.0165268
0.000393878
0.0165326
0.000361938
0.0165366
0.000330557
0.016539
0.000299729
0.0165397
0.00026945
0.0165388
0.000239718
0.0165364
0.000210534
0.0165325
0.000181903
0.0165272
0.00015383
0.0165204
0.000126314
0.0165125
9.93309e-05
0.0165035
7.28494e-05
0.0164935
4.68201e-05
0.0164822
2.12645e-05
0.0164697
-3.71196e-06
0.0164561
-2.82486e-05
0.0164415
-5.22831e-05
0.0164258
-7.58284e-05
0.0164092
-9.88898e-05
0.0163916
-0.000121474
-0.000143586
0.0161373
0.000787713
-0.016095
0.0161763
0.000751351
0.0162113
0.000714225
0.0162427
0.000677765
0.0162711
0.000642526
0.0162969
0.000608338
0.01632
0.000574848
0.0163408
0.000541823
0.0163592
0.000509208
0.0163754
0.000477046
0.0163895
0.000445387
0.0164017
0.000414252
0.0164119
0.000383635
0.0164203
0.000353521
0.016427
0.000323899
0.0164319
0.000294766
0.0164353
0.000266123
0.016437
0.000237971
0.0164372
0.000210314
0.016436
0.000183149
0.0164333
0.000156473
0.0164294
0.000130277
0.0164242
0.000104548
0.0164177
7.92833e-05
0.0164101
5.44923e-05
0.0164011
3.01809e-05
0.0163911
6.34629e-06
0.0163799
-1.70578e-05
0.0163676
-3.99989e-05
0.0163543
-6.24859e-05
0.0163399
-8.45211e-05
0.0163245
-0.000106106
-0.000127241
0.0160029
0.000743251
-0.0159584
0.0160433
0.000710935
0.0160799
0.00067765
0.016113
0.000644639
0.0161431
0.00061243
0.0161705
0.00058096
0.0161953
0.000549994
0.0162178
0.000519373
0.0162379
0.000489059
0.0162559
0.00045909
0.0162717
0.000429515
0.0162856
0.000400363
0.0162976
0.00037164
0.0163078
0.000343344
0.0163162
0.000315472
0.016323
0.000288025
0.0163281
0.000261006
0.0163316
0.000234419
0.0163337
0.000208267
0.0163343
0.000182548
0.0163335
0.000157263
0.0163314
0.000132409
0.0163279
0.000107987
0.0163232
8.40026e-05
0.0163172
6.04563e-05
0.0163101
3.73429e-05
0.0163018
1.46531e-05
0.0162923
-7.61732e-06
0.0162818
-2.94575e-05
0.0162702
-5.08759e-05
0.0162575
-7.18703e-05
0.0162439
-9.244e-05
-0.000112586
0.0158822
0.000698893
-0.0158378
0.0159227
0.000670369
0.0159598
0.000640564
0.0159937
0.00061072
0.0160248
0.000581383
0.0160532
0.000552549
0.0160791
0.000524053
0.0161027
0.000495781
0.0161241
0.000467716
0.0161433
0.000439897
0.0161604
0.000412375
0.0161756
0.000385181
0.0161889
0.000358333
0.0162004
0.000331836
0.0162102
0.000305694
0.0162183
0.000279914
0.0162248
0.000254501
0.0162297
0.000229462
0.0162332
0.000204802
0.0162352
0.000180525
0.0162359
0.000156634
0.0162351
0.000133134
0.0162331
0.000110027
0.0162298
8.7315e-05
0.0162252
6.49982e-05
0.0162195
4.30753e-05
0.0162126
2.15451e-05
0.0162046
3.83884e-07
0.0161955
-2.0337e-05
0.0161853
-4.06866e-05
0.0161741
-6.06371e-05
0.0161618
-8.01894e-05
-9.93435e-05
0.0157724
0.000655759
-0.0157293
0.0158126
0.000630222
0.0158497
0.000603471
0.0158839
0.00057653
0.0159154
0.000549886
0.0159444
0.00052356
0.015971
0.000497433
0.0159953
0.000471424
0.0160175
0.00044553
0.0160376
0.000419796
0.0160557
0.000394272
0.0160719
0.000368994
0.0160863
0.000343983
0.0160988
0.000319252
0.0161097
0.000294813
0.016119
0.000270673
0.0161266
0.000246844
0.0161328
0.000223335
0.0161374
0.000200154
0.0161406
0.000177309
0.0161424
0.000154806
0.0161429
0.00013265
0.0161421
0.000110845
0.01614
8.93943e-05
0.0161367
6.82996e-05
0.0161322
4.75631e-05
0.0161266
2.71869e-05
0.0161198
7.17197e-06
0.0161119
-1.24694e-05
0.016103
-3.17463e-05
0.016093
-5.06554e-05
0.016082
-6.91939e-05
-8.73602e-05
0.0156719
0.000613689
-0.0156298
0.0157113
0.000590785
0.015748
0.000566766
0.0157821
0.00054247
0.0158137
0.000518318
0.0158429
0.000494342
0.0158698
0.000470453
0.0158947
0.000446595
0.0159174
0.000422776
0.0159382
0.000399042
0.015957
0.000375444
0.015974
0.00035202
0.0159892
0.000328796
0.0160026
0.000305788
0.0160144
0.000283011
0.0160246
0.00026048
0.0160333
0.000238206
0.0160404
0.000216203
0.0160461
0.00019448
0.0160503
0.000173048
0.0160532
0.000151915
0.0160548
0.000131087
0.0160551
0.00011057
0.0160541
9.03703e-05
0.0160519
7.04914e-05
0.0160485
5.0938e-05
0.016044
3.1714e-05
0.0160384
1.28217e-05
0.0160316
-5.73464e-06
0.0160238
-2.3947e-05
0.016015
-4.18206e-05
0.0160051
-5.9351e-05
-7.65354e-05
0.0155791
0.000572761
-0.0155382
0.0156176
0.000552293
0.0156537
0.000530737
0.0156873
0.000508832
0.0157186
0.000486959
0.0157478
0.000465159
0.0157749
0.000443363
0.0158
0.000421531
0.0158231
0.000399677
0.0158443
0.000377847
0.0158636
0.000356092
0.0158812
0.000334451
0.015897
0.000312951
0.0159112
0.000291612
0.0159238
0.000270451
0.0159348
0.000249486
0.0159443
0.000228731
0.0159523
0.0002082
0.0159588
0.000187908
0.015964
0.000167863
0.0159678
0.000148077
0.0159704
0.000128558
0.0159716
0.000109314
0.0159717
9.03511e-05
0.0159705
7.16762e-05
0.0159681
5.32948e-05
0.0159646
3.52122e-05
0.01596
1.74323e-05
0.0159543
-5.47395e-08
0.0159476
-1.7203e-05
0.0159398
-3.40514e-05
0.015931
-5.05816e-05
-6.6791e-05
0.0154933
0.000533229
-0.0154538
0.0155307
0.000514912
0.0155659
0.000495554
0.0155989
0.000475807
0.0156299
0.000456013
0.0156588
0.000436218
0.0156858
0.000416368
0.0157109
0.000396432
0.0157341
0.000376427
0.0157556
0.0003564
0.0157753
0.000336397
0.0157933
0.000316459
0.0158096
0.000296612
0.0158243
0.000276879
0.0158375
0.00025728
0.0158492
0.000237832
0.0158594
0.000218552
0.0158681
0.000199456
0.0158754
0.000180559
0.0158814
0.000161872
0.0158861
0.000143406
0.0158895
0.000125172
0.0158916
0.000107179
0.0158925
8.94348e-05
0.0158923
7.19466e-05
0.0158908
5.4721e-05
0.0158883
3.7764e-05
0.0158846
2.10805e-05
0.0158799
4.67207e-06
0.0158742
-1.14424e-05
0.0158674
-2.72725e-05
0.0158596
-4.28114e-05
-5.80548e-05
0.0154138
0.000495145
-0.0153758
0.01545
0.000478711
0.0154843
0.000461315
0.0155166
0.000443518
0.015547
0.000425622
0.0155755
0.000407672
0.0156022
0.000389624
0.0156272
0.000371456
0.0156505
0.000353186
0.015672
0.000334856
0.0156919
0.000316512
0.0157102
0.000298192
0.0157268
0.000279925
0.015742
0.000261731
0.0157556
0.000243633
0.0157678
0.000225649
0.0157786
0.000207796
0.0157879
0.000190092
0.015796
0.00017255
0.0158026
0.000155186
0.015808
0.000138009
0.0158122
0.000121033
0.0158151
0.000104265
0.0158168
8.77165e-05
0.0158174
7.13941e-05
0.0158168
5.53057e-05
0.0158151
3.94578e-05
0.0158123
2.38565e-05
0.0158085
8.50646e-06
0.0158036
-6.58278e-06
0.0157977
-2.14074e-05
0.0157909
-3.59663e-05
-5.02543e-05
0.0153403
0.000458453
-0.0153036
0.0153753
0.000443706
0.0154085
0.000428076
0.01544
0.000412046
0.0154697
0.000395883
0.0154978
0.000379629
0.0155242
0.000363249
0.0155489
0.000346725
0.015572
0.000330076
0.0155935
0.000313341
0.0156135
0.000296563
0.0156319
0.000279778
0.0156488
0.000263012
0.0156642
0.00024629
0.0156782
0.00022963
0.0156908
0.000213053
0.015702
0.000196576
0.0157119
0.000180216
0.0157205
0.000163989
0.0157278
0.000147909
0.0157338
0.000131988
0.0157386
0.000116237
0.0157422
0.000100667
0.0157446
8.52878e-05
0.0157459
7.01079e-05
0.0157461
5.51353e-05
0.0157451
4.03773e-05
0.0157432
2.58403e-05
0.0157401
1.15296e-05
0.0157361
-2.54929e-06
0.0157311
-1.63803e-05
0.0157251
-2.99723e-05
-4.33175e-05
0.0152723
0.000423107
-0.0152369
0.0153061
0.000409887
0.0153383
0.000395853
0.0153689
0.000381429
0.015398
0.00036685
0.0154254
0.000352156
0.0154514
0.000337319
0.0154758
0.000322325
0.0154987
0.00030719
0.0155201
0.000291951
0.01554
0.000276649
0.0155584
0.000261315
0.0155755
0.000245977
0.0155911
0.000230656
0.0156054
0.000215372
0.0156183
0.000200144
0.0156299
0.000184991
0.0156401
0.000169928
0.0156492
0.000154972
0.0156569
0.000140136
0.0156635
0.000125433
0.0156688
0.000110875
0.015673
9.64718e-05
0.0156761
8.22344e-05
0.015678
6.81716e-05
0.0156789
5.42916e-05
0.0156787
4.06021e-05
0.0156774
2.71107e-05
0.0156751
1.3823e-05
0.0156718
7.30389e-07
0.0156675
-1.2117e-05
0.0156623
-2.47588e-05
-3.71744e-05
0.0152096
0.000389059
-0.0151755
0.0152422
0.000377218
0.0152734
0.000364632
0.0153032
0.000351672
0.0153315
0.000338546
0.0153584
0.00032529
0.0153838
0.000311883
0.0154078
0.000298311
0.0154304
0.000284592
0.0154516
0.000270758
0.0154714
0.000256845
0.0154898
0.000242885
0.0155069
0.0002289
0.0155227
0.000214913
0.0155371
0.000200943
0.0155502
0.000187008
0.0155621
0.000173125
0.0155727
0.000159312
0.0155821
0.000145582
0.0155903
0.000131949
0.0155973
0.000118427
0.0156031
0.000105027
0.0156079
9.176e-05
0.0156115
7.86355e-05
0.015614
6.5663e-05
0.0156154
5.28509e-05
0.0156158
4.02069e-05
0.0156152
2.77381e-05
0.0156135
1.54505e-05
0.0156109
3.34686e-06
0.0156074
-8.55125e-06
0.0156029
-2.02543e-05
-3.17549e-05
0.0151518
0.000356234
-0.015119
0.0151834
0.000345643
0.0152137
0.000334378
0.0152426
0.000322758
0.0152702
0.000310969
0.0152964
0.000299044
0.0153213
0.000286964
0.0153449
0.000274719
0.0153672
0.000262324
0.0153881
0.000249809
0.0154078
0.000237206
0.0154261
0.000224544
0.0154432
0.000211844
0.015459
0.000199127
0.0154735
0.000186411
0.0154868
0.000173714
0.0154989
0.000161051
0.0155097
0.000148438
0.0155194
0.000135891
0.0155279
0.000123422
0.0155353
0.000111043
0.0155416
9.87671e-05
0.0155467
8.66036e-05
0.0155508
7.45626e-05
0.0155538
6.26532e-05
0.0155558
5.08838e-05
0.0155567
3.92621e-05
0.0155567
2.77953e-05
0.0155556
1.64899e-05
0.0155536
5.35026e-06
0.0155507
-5.61154e-06
0.0155468
-1.63934e-05
-2.69929e-05
0.0150989
0.000324545
-0.0150672
0.0151295
0.000315098
0.0151588
0.000305042
0.0151869
0.000294656
0.0152138
0.000284102
0.0152394
0.000273411
0.0152638
0.000262568
0.015287
0.000251563
0.0153089
0.00024041
0.0153295
0.000229136
0.015349
0.000217769
0.0153672
0.000206336
0.0153842
0.000194856
0.0154
0.000183349
0.0154145
0.00017183
0.0154279
0.000160317
0.0154402
0.000148825
0.0154512
0.000137368
0.0154612
0.000125961
0.01547
0.000114616
0.0154777
0.000103344
0.0154843
9.21581e-05
0.0154898
8.10668e-05
0.0154943
7.00801e-05
0.0154977
5.92067e-05
0.0155002
4.8455e-05
0.0155016
3.78325e-05
0.0155021
2.73461e-05
0.0155015
1.70024e-05
0.0155001
6.80629e-06
0.0154977
-3.23423e-06
0.0154944
-1.31107e-05
-2.28246e-05
0.0150506
0.000293903
-0.01502
0.0150802
0.000285508