/*--------------------------------*- C++ -*----------------------------------*\
  =========                 |
  \\      /  F ield         | OpenFOAM: The Open Source CFD Toolbox
   \\    /   O peration     | Website:  https://openfoam.org
    \\  /    A nd           | Version:  7
     \\/     M anipulation  |
\*---------------------------------------------------------------------------*/
FoamFile
{
    version     2.0;
    format      ascii;
    class       volVectorField;
    location    "30";
    object      U;
}
// * * * * * * * * * * * * * * * * * * * * * * * * * * * * * * * * * * * * * //

dimensions      [0 1 -1 0 0 0 0];

internalField   nonuniform List<vector> 
3500
(
(-0.0616969 0.0101213 7.00596e-20)
(-0.0912082 0.00986466 1.22113e-20)
(-0.117747 0.00914057 2.37452e-20)
(-0.141144 0.00826627 -1.37326e-20)
(-0.161134 0.00724288 -2.54453e-20)
(-0.176823 0.00572131 2.46982e-20)
(-0.19096 0.00534329 2.41901e-20)
(-0.196553 0.00227307 1.8916e-20)
(-0.00865397 0.0153139 -8.89421e-20)
(-0.0307816 0.0269088 5.87965e-20)
(-0.0609602 0.0297322 -8.00029e-20)
(-0.0881938 0.0290043 4.25847e-21)
(-0.111904 0.0268743 -5.69924e-20)
(-0.131948 0.0242972 6.99055e-21)
(-0.148384 0.0214399 3.65495e-20)
(-0.158426 0.0165497 -1.60744e-19)
(-0.169506 0.0162372 3.96365e-20)
(-0.166533 0.00580783 1.58512e-22)
(-0.0107026 0.0241408 1.65416e-19)
(-0.0325878 0.0427798 -1.47077e-20)
(-0.0595924 0.0474693 1.11116e-19)
(-0.0823814 0.0463644 -1.04035e-20)
(-0.100497 0.0429369 -1.21428e-19)
(-0.113617 0.0387278 8.96301e-20)
(-0.123312 0.034639 -3.85214e-20)
(-0.120575 0.0257295 3.86681e-20)
(-0.126431 0.0275994 -1.17356e-19)
(-0.104575 0.00740011 1.66807e-19)
(-0.0135061 0.0311294 1.93077e-20)
(-0.0351797 0.0557577 -2.62762e-19)
(-0.0577625 0.0621683 -1.56244e-19)
(-0.0741195 0.0607485 8.21719e-20)
(-0.084047 0.0561551 9.76472e-20)
(-0.0862109 0.0503884 -1.62399e-19)
(-0.0864527 0.0454055 6.9506e-20)
(-0.061738 0.0329046 4.62621e-20)
(-0.0603949 0.037665 1.85419e-19)
(-0.00432261 0.0112107 -2.40621e-19)
(-0.0168309 0.0359665 -8.31348e-20)
(-0.0384143 0.065086 1.29276e-19)
(-0.0555961 0.0728201 3.78194e-19)
(-0.0636456 0.0710103 -1.88601e-19)
(-0.0628843 0.0652801 1.75013e-19)
(-0.0497107 0.0583822 2.94856e-19)
(-0.0367175 0.050525 -8.41832e-21)
(0.0190687 0.0391055 8.2559e-21)
(0.0299137 0.0428634 -2.73093e-19)
(0.143593 0.0216758 1.29901e-19)
(-0.0204808 0.038652 -1.96504e-19)
(-0.042062 0.0703581 1.16323e-19)
(-0.052972 0.0786793 -5.27363e-19)
(-0.0507046 0.0762087 2.56747e-19)
(-0.0360446 0.0691313 3.60071e-20)
(-0.00334492 0.062059 -3.32704e-19)
(0.0306749 0.0488728 -9.76003e-20)
(0.130298 0.0453211 9.75988e-20)
(0.146458 0.0375906 1.8493e-19)
(0.354431 0.0341013 -1.0323e-19)
(-0.024334 0.0394522 -2.13658e-20)
(-0.0457066 0.0715276 -3.65533e-19)
(-0.0491569 0.0793824 3.61425e-19)
(-0.0339005 0.0757858 -2.59888e-19)
(-0.000230586 0.0673801 6.44902e-20)
(0.0587834 0.0612651 2.16072e-19)
(0.124914 0.042605 -3.95555e-19)
(0.277277 0.0518031 -1.65663e-19)
(0.308779 0.0307131 1.4115e-19)
(0.614937 0.046007 8.2864e-20)
(-0.0283361 0.0387913 2.14798e-19)
(-0.0485856 0.0688613 6.30571e-19)
(-0.0423273 0.0750526 -6.08747e-19)
(-0.00947347 0.0699271 1.49035e-19)
(0.0512928 0.0608353 3.73168e-19)
(0.147003 0.0565546 -1.90115e-19)
(0.263998 0.0400273 -6.08132e-20)
(0.457817 0.0562954 -2.25241e-19)
(0.542205 0.0396683 2.67426e-19)
(0.875908 0.0670226 -1.88906e-19)
(-0.0323937 0.0370611 -3.93771e-19)
(-0.049418 0.062888 1.08762e-19)
(-0.0290517 0.0663504 2.27671e-19)
(0.0294273 0.059902 -1.13207e-19)
(0.129839 0.0523 -3.83114e-19)
(0.275151 0.0513529 4.54184e-19)
(0.455037 0.0508253 2.88319e-19)
(0.665672 0.0639853 2.60872e-19)
(0.821182 0.0692756 -2.12111e-19)
(1.08309 0.0942669 1.60897e-19)
(-0.0361575 0.0344948 -9.70172e-20)
(-0.0461648 0.054239 -3.17626e-19)
(-0.00404005 0.0545114 -1.88666e-19)
(0.0927377 0.0485594 2.22252e-19)
(0.248037 0.0473414 4.2714e-20)
(0.451982 0.0551762 -2.67726e-19)
(0.677478 0.0737816 3.12579e-19)
(0.885698 0.0864086 -4.39563e-19)
(1.0583 0.110348 -2.48747e-19)
(1.20038 0.114316 8.71853e-20)
(-0.0389608 0.0311902 2.38021e-19)
(-0.0357757 0.0434978 3.34268e-19)
(0.0398128 0.0414907 1.39479e-19)
(0.191466 0.040695 1.94378e-19)
(0.411616 0.0527606 -1.12759e-19)
(0.662688 0.0761493 -2.89458e-19)
(0.893201 0.104811 1.15828e-19)
(1.07297 0.121178 1.42806e-19)
(1.19174 0.142957 4.75529e-19)
(1.23551 0.117719 -2.80904e-19)
(-0.0398356 0.027092 3.52859e-19)
(-0.014245 0.0312215 -4.34799e-20)
(0.110694 0.0304182 3.20448e-19)
(0.332105 0.0429049 -1.42719e-19)
(0.608224 0.0735807 4.37938e-19)
(0.868383 0.110126 1.74464e-19)
(1.06375 0.139148 2.16645e-19)
(1.18597 0.153048 -3.54696e-19)
(1.23782 0.155733 -1.46333e-19)
(1.26196 0.140961 1.41382e-19)
(-0.0374413 0.0220227 2.36957e-20)
(0.0232835 0.018316 -3.11075e-19)
(0.21577 0.0263974 -2.96918e-19)
(0.507772 0.0606138 -7.52833e-20)
(0.805381 0.107744 -1.18885e-19)
(1.03213 0.147054 1.31339e-19)
(1.16957 0.16898 -5.43225e-19)
(1.23375 0.172054 3.65376e-19)
(1.25669 0.169854 -3.40567e-21)
(1.26028 0.151048 -4.37266e-19)
(-0.0300513 0.0158616 -5.011e-19)
(0.0822545 0.00693566 -1.01584e-19)
(0.356177 0.0356424 -1.08042e-20)
(0.694421 0.0931867 3.17538e-20)
(0.970178 0.146742 1.68072e-19)
(1.14057 0.179562 -5.28542e-19)
(1.22273 0.190299 5.21104e-19)
(1.25279 0.18782 -1.14883e-19)
(1.25544 0.178148 6.86546e-20)
(1.24927 0.16062 1.1282e-19)
(-0.0155495 0.00878261 1.35641e-20)
(0.167316 0.00175264 4.10877e-19)
(0.520459 0.0613032 1.05152e-19)
(0.863305 0.133998 -5.65515e-20)
(1.08932 0.183631 -4.78585e-20)
(1.20328 0.205648 3.08645e-19)
(1.24632 0.20777 -4.58276e-22)
(1.25361 0.199529 2.30657e-19)
(1.24743 0.186594 -7.28935e-20)
(1.24068 0.170762 -3.20168e-21)
(0.00886096 0.00158004 8.16213e-20)
(0.279116 0.00947716 -1.48119e-19)
(0.686349 0.100388 1.17969e-19)
(0.998188 0.176584 1.56555e-19)
(1.16721 0.216341 -1.02826e-19)
(1.23545 0.227631 -1.56911e-20)
(1.25141 0.222253 -3.0491e-19)
(1.24703 0.210514 -2.03445e-19)
(1.23738 0.194806 2.51359e-19)
(1.22706 0.179534 -1.62326e-19)
(0.0460483 -0.0035395 1.0519e-19)
(0.410814 0.0348244 1.87459e-19)
(0.834114 0.147095 1.32367e-19)
(1.09685 0.217983 -2.0175e-19)
(1.21346 0.245546 2.40984e-19)
(1.24741 0.246762 -1.30137e-19)
(1.24706 0.235804 -3.32367e-20)
(1.23641 0.220835 -1.24638e-20)
(1.22458 0.20315 -7.16103e-20)
(1.21483 0.188889 2.23292e-20)
(0.0973458 -0.00302704 2.64288e-19)
(0.54888 0.0767723 -1.48014e-19)
(0.954783 0.197166 9.29883e-20)
(1.16352 0.257299 1.09872e-19)
(1.23659 0.271992 -7.96285e-20)
(1.24697 0.264504 1.22445e-19)
(1.2369 0.248802 4.56765e-20)
(1.22328 0.231131 6.20169e-20)
(1.21142 0.211945 4.08435e-20)
(1.20048 0.197403 6.58285e-20)
(0.161504 0.00667697 -9.70051e-20)
(0.678979 0.130582 -1.43476e-19)
(1.04699 0.248297 -1.13579e-19)
(1.20399 0.294248 -1.09118e-19)
(1.24338 0.296495 -4.90766e-20)
(1.23834 0.281447 5.47225e-20)
(1.22319 0.261714 -2.74625e-20)
(1.20852 0.241391 3.78519e-22)
(1.19638 0.220659 -2.62493e-20)
(1.18584 0.205485 5.34275e-21)
(0.234605 0.0275895 2.59426e-20)
(0.791058 0.191429 -5.63715e-21)
(1.11242 0.299108 2.5722e-20)
(1.22375 0.328968 2.03098e-20)
(1.23843 0.319559 1.55649e-20)
(1.22418 0.297971 -4.2558e-20)
(1.20668 0.274443 2.03562e-20)
(1.19186 0.251446 -2.03522e-20)
(1.18043 0.229179 -6.68261e-21)
(1.17016 0.212642 -1.09729e-20)
(0.311035 0.0596445 1.31454e-21)
(0.880586 0.255646 -8.47434e-22)
(1.15373 0.348578 -5.72604e-21)
(1.22722 0.361631 6.82946e-20)
(1.22485 0.341477 -1.89705e-20)
(1.20567 0.314001 -1.88552e-20)
(1.18766 0.286809 2.60265e-21)
(1.17352 0.261055 -2.49053e-21)
(1.16279 0.23696 -8.57206e-21)
(1.15344 0.218831 -1.94107e-20)
(0.384714 0.101209 -1.1148e-19)
(0.946658 0.320669 2.15134e-20)
(1.17395 0.395867 -1.84403e-19)
(1.2177 0.392184 -6.60995e-20)
(1.20452 0.362202 -2.06824e-20)
(1.18349 0.329293 -2.97642e-21)
(1.1662 0.298451 -1.5544e-20)
(1.15327 0.269874 -1.0222e-20)
(1.1438 0.24389 7.63258e-21)
(1.13515 0.223931 1.34767e-20)
(0.450094 0.149964 1.92253e-19)
(0.98972 0.384427 -1.00031e-19)
(1.17592 0.440067 1.40815e-19)
(1.19757 0.42036 5.87126e-20)
(1.17858 0.381452 -2.2509e-20)
(1.15791 0.343398 7.85113e-20)
(1.14233 0.308924 -1.90197e-20)
(1.1313 0.277605 2.64629e-20)
(1.12318 0.249913 3.90171e-21)
(1.11519 0.22787 1.71581e-20)
(0.502908 0.203321 -1.17924e-19)
(1.01109 0.44514 4.54151e-19)
(1.16217 0.480334 -8.54785e-20)
(1.16854 0.445711 -5.11593e-20)
(1.14778 0.398701 1.14222e-19)
(1.12924 0.355781 -4.95479e-20)
(1.11624 0.317749 -1.99818e-20)
(1.10758 0.283902 -1.29456e-20)
(1.10091 0.254945 -1.76262e-20)
(1.09433 0.230609 -4.75207e-21)
(0.540477 0.258508 -2.14997e-19)
(1.01247 0.501158 -2.4601e-19)
(1.13475 0.515741 1.55288e-19)
(1.132 0.467581 4.29954e-20)
(1.11282 0.413271 -6.21727e-20)
(1.09786 0.365889 -2.61604e-20)
(1.08813 0.324552 2.02098e-20)
(1.08204 0.288537 -7.89185e-21)
(1.07704 0.258366 6.27129e-21)
(1.07284 0.231984 -6.62717e-21)
(0.561675 0.312635 7.6898e-20)
(0.995786 0.55092 3.24701e-19)
(1.09546 0.545256 -6.1859e-20)
(1.08937 0.485144 6.0017e-21)
(1.07434 0.424441 -7.04234e-21)
(1.06394 0.373115 2.61164e-20)
(1.05805 0.329033 2.51925e-20)
(1.0548 0.291172 5.55061e-21)
(1.05209 0.2599 1.3158e-21)
(1.05077 0.231905 -8.93085e-21)
(0.566713 0.362922 -5.67688e-19)
(0.962809 0.592792 4.25291e-20)
(1.04636 0.567877 -1.26102e-19)
(1.04174 0.497365 3.97992e-20)
(1.0327 0.431568 -8.61355e-21)
(1.02772 0.376948 1.69871e-20)
(1.02631 0.330698 -2.41875e-20)
(1.0264 0.291483 1.73587e-20)
(1.02665 0.25926 -1.82104e-20)
(1.02883 0.230303 -5.98256e-20)
(0.556668 0.407084 2.85316e-19)
(0.915097 0.624689 -2.84823e-19)
(0.98975 0.582741 -2.24532e-20)
(0.990077 0.50345 -3.29664e-20)
(0.988503 0.433875 5.29698e-20)
(0.989765 0.376846 1.11624e-20)
(0.993303 0.329136 4.57347e-20)
(0.997378 0.289071 4.71198e-21)
(1.00157 0.256266 1.27991e-21)
(1.00786 0.227273 8.7593e-20)
(0.532658 0.44342 1.69903e-19)
(0.855156 0.645038 -3.07928e-20)
(0.927656 0.588594 2.73812e-21)
(0.935468 0.502947 5.53901e-20)
(0.942474 0.430826 -1.45184e-20)
(0.950546 0.372319 -7.87044e-20)
(0.959529 0.323815 -5.15435e-20)
(0.968356 0.283346 6.57076e-21)
(0.97756 0.250396 7.37916e-20)
(0.98825 0.223168 -5.80533e-20)
(0.49588 0.469359 2.20658e-20)
(0.787012 0.653488 -1.5049e-20)
(0.861939 0.584527 -8.14687e-20)
(0.87906 0.495294 1.01108e-20)
(0.895411 0.421989 1.22693e-19)
(0.910709 0.363019 -3.9658e-20)
(0.925538 0.314402 1.46931e-19)
(0.939736 0.273739 -2.01577e-19)
(0.95452 0.240383 -1.39336e-19)
(0.968825 0.216802 -2.71858e-20)
(0.448694 0.481676 -1.18176e-20)
(0.713211 0.64851 4.17113e-20)
(0.794141 0.57043 2.03773e-20)
(0.822046 0.480049 -4.50756e-20)
(0.848194 0.407083 -1.92351e-19)
(0.870985 0.348763 1.86404e-19)
(0.891978 0.300915 7.06074e-20)
(0.911746 0.260656 9.17206e-20)
(0.931778 0.225775 2.54966e-19)
(0.946941 0.199542 -6.10395e-20)
(0.39525 0.480004 1.11003e-19)
(0.636751 0.629672 -1.88781e-20)
(0.726145 0.546108 -5.55937e-20)
(0.765688 0.456957 9.86463e-20)
(0.801792 0.385915 1.7904e-19)
(0.832214 0.329406 -4.18399e-19)
(0.859561 0.283339 -6.62553e-20)
(0.884611 0.245083 -1.67594e-19)
(0.907747 0.212774 3.44036e-20)
(0.922441 0.187888 -1.20907e-19)
(0.338711 0.463964 -2.30101e-19)
(0.560292 0.596635 -1.1216e-19)
(0.659747 0.511627 3.62197e-19)
(0.711277 0.42602 -2.08422e-19)
(0.757204 0.358494 -2.96657e-19)
(0.795192 0.304901 2.77059e-19)
(0.828849 0.261186 -2.56821e-19)
(0.859025 0.224643 1.25693e-19)
(0.885504 0.193686 -1.53745e-19)
(0.902343 0.170079 2.42421e-19)
(0.282211 0.433984 -1.01283e-19)
(0.486632 0.549777 5.42343e-19)
(0.596754 0.467257 -5.68705e-19)
(0.660103 0.387456 2.29908e-20)
(0.71544 0.325067 1.85468e-19)
(0.760622 0.275755 -1.30538e-20)
(0.800004 0.235781 3.92473e-19)
(0.834343 0.202588 -3.40436e-19)
(0.863566 0.174453 2.45631e-19)
(0.883521 0.152362 -1.65003e-19)
(0.22857 0.391085 -1.66654e-19)
(0.418285 0.489831 9.1596e-20)
(0.538892 0.413511 2.48834e-19)
(0.613434 0.341666 2.84885e-19)
(0.677542 0.28585 -6.54946e-20)
(0.72946 0.241782 2.66744e-19)
(0.774169 0.206071 2.37481e-20)
(0.812337 0.176468 2.78015e-20)
(0.844255 0.15157 -1.01321e-19)
(0.867271 0.132127 -5.79778e-21)
(0.180193 0.336841 5.04357e-19)
(0.357506 0.417999 -3.49631e-19)
(0.487823 0.351177 -4.65799e-19)
(0.572433 0.289359 2.65295e-20)
(0.644313 0.241587 -1.35997e-19)
(0.702115 0.203982 1.12726e-19)
(0.751365 0.173592 -4.09036e-19)
(0.792795 0.148401 1.19436e-19)
(0.827309 0.127117 3.37241e-19)
(0.853435 0.110323 -1.62783e-19)
(0.138961 0.272928 7.03916e-20)
(0.306322 0.336036 4.37204e-19)
(0.44513 0.281326 3.14249e-19)
(0.538244 0.231324 -2.9326e-19)
(0.616706 0.192774 1.81004e-19)
(0.679467 0.162468 -8.19872e-20)
(0.732481 0.138025 -5.28317e-20)
(0.776588 0.117817 -2.51418e-20)
(0.81334 0.100743 -1.04856e-19)
(0.842252 0.0871439 1.91918e-19)
(0.106428 0.200986 -3.41122e-19)
(0.266393 0.245982 -3.96319e-19)
(0.412022 0.205416 -6.10286e-21)
(0.511749 0.168678 2.80442e-19)
(0.595333 0.140396 -5.17525e-20)
(0.661936 0.118187 -5.47005e-20)
(0.717838 0.100289 7.92249e-20)
(0.764007 0.0854935 -4.29095e-20)
(0.802569 0.0729615 -3.34409e-20)
(0.833796 0.0628984 3.49029e-20)
(0.083942 0.123055 4.96375e-20)
(0.239029 0.150005 -6.51766e-20)
(0.389432 0.125057 2.80724e-19)
(0.493684 0.102601 -6.86641e-20)
(0.580774 0.0853251 1.28388e-19)
(0.65 0.0717687 -3.44746e-20)
(0.707858 0.0608551 -5.32556e-20)
(0.755423 0.0518371 8.45387e-20)
(0.795248 0.0441797 1.19206e-20)
(0.828145 0.0379848 -2.9778e-20)
(0.484529 0.0344353 -6.49575e-20)
(0.573398 0.0286251 2.96661e-20)
(0.643952 0.024067 -1.56515e-20)
(0.702797 0.0203989 1.85188e-20)
(0.751067 0.0173684 -2.40122e-20)
(0.791539 0.0147911 -1.45237e-20)
(0.825314 0.0126972 6.2878e-24)
(-0.200553 0.00334995 -5.54805e-20)
(-0.204526 0.00309569 3.97257e-20)
(-0.207985 0.00276796 5.53646e-22)
(-0.211068 0.00248113 -6.87405e-21)
(-0.213846 0.0022307 -1.37452e-20)
(-0.21635 0.00201249 -1.58179e-20)
(-0.218615 0.00182169 -2.70803e-20)
(-0.220668 0.00165338 4.81434e-20)
(-0.222532 0.00150213 -2.73194e-20)
(-0.224224 0.00136354 5.60545e-20)
(-0.225753 0.0012341 -3.53044e-20)
(-0.227131 0.00111107 -5.09958e-21)
(-0.228361 0.000992481 -1.24904e-20)
(-0.229447 0.000877277 3.2391e-20)
(-0.230392 0.00076509 -2.13449e-20)
(-0.231199 0.000655538 2.17938e-20)
(-0.231872 0.000547717 -1.51547e-20)
(-0.232415 0.000444334 -1.27821e-20)
(-0.232827 0.000349188 8.23172e-21)
(-0.233105 0.000258805 -5.48184e-21)
(-0.233258 0.000160441 2.0445e-20)
(-0.233293 5.69961e-05 -9.31321e-21)
(-0.233204 -4.97979e-05 -1.38195e-20)
(-0.232987 -0.000159524 8.56904e-21)
(-0.232636 -0.000272229 -1.16605e-20)
(-0.232148 -0.000388114 1.37195e-20)
(-0.231518 -0.000507438 3.81503e-21)
(-0.230743 -0.000630476 -1.10015e-20)
(-0.229816 -0.0007575 1.97588e-20)
(-0.166923 0.00938733 5.6947e-21)
(-0.1705 0.00868497 4.73037e-20)
(-0.173376 0.00775827 -7.42693e-20)
(-0.175875 0.00693932 1.1382e-19)
(-0.178124 0.00621707 -9.37192e-20)
(-0.180136 0.00558434 -3.08474e-21)
(-0.181931 0.00502761 1.22511e-19)
(-0.183533 0.00453443 -3.99297e-20)
(-0.184959 0.00408857 1.48216e-20)
(-0.18622 0.00367834 -4.83069e-20)
(-0.187323 0.00329426 -5.65247e-20)
(-0.188274 0.00292866 3.0544e-20)
(-0.189075 0.00257577 -3.94291e-20)
(-0.189728 0.00223178 7.91113e-20)
(-0.190232 0.00189497 -2.48695e-20)
(-0.190593 0.00156811 2.59571e-20)
(-0.190807 0.00125421 -1.33733e-20)
(-0.190872 0.000956877 -3.05495e-20)
(-0.190797 0.000658331 3.43929e-20)
(-0.190606 0.000349362 -1.1287e-20)
(-0.190294 2.94889e-05 -4.99253e-20)
(-0.189847 -0.000297217 4.65926e-20)
(-0.189263 -0.000630222 -3.02593e-20)
(-0.188539 -0.000969913 -6.95506e-21)
(-0.187675 -0.00131698 1.16675e-20)
(-0.186665 -0.00167225 3.37368e-20)
(-0.185508 -0.00203658 -9.26398e-21)
(-0.1842 -0.00241084 6.21475e-20)
(-0.182735 -0.00279587 -7.34758e-22)
(-0.0996541 0.0140464 -1.47799e-19)
(-0.102646 0.0126726 5.92975e-20)
(-0.104466 0.011365 -1.56781e-19)
(-0.10598 0.0101311 2.85839e-19)
(-0.107383 0.00899898 -1.92676e-19)
(-0.10863 0.00800073 2.34005e-19)
(-0.109709 0.00710545 -2.33414e-19)
(-0.110626 0.00631782 1.05237e-19)
(-0.111391 0.00559626 -2.37381e-20)
(-0.112001 0.00492309 1.27567e-19)
(-0.112457 0.00428417 -5.98448e-20)
(-0.112759 0.00366813 -7.56069e-20)
(-0.112907 0.0030661 -1.45015e-19)
(-0.112898 0.00247217 1.49772e-19)
(-0.112725 0.00188618 -2.01227e-21)
(-0.112381 0.00133829 -1.34286e-19)
(-0.111869 0.000785196 3.12628e-20)
(-0.111229 0.000243666 1.17479e-19)
(-0.11047 -0.000304342 -3.35552e-20)
(-0.109568 -0.000859515 6.1403e-21)
(-0.108505 -0.00141558 6.95594e-20)
(-0.107288 -0.00197572 -6.75916e-20)
(-0.105917 -0.00254282 1.08292e-19)
(-0.104394 -0.00311902 -1.69738e-20)
(-0.102715 -0.00370616 -1.42134e-19)
(-0.10088 -0.00430579 1.42998e-19)
(-0.0988853 -0.00491928 -5.20987e-20)
(-0.0967292 -0.00554792 5.06828e-20)
(-0.0944088 -0.00619293 -1.48396e-19)
(0.00425829 0.0146057 7.31249e-21)
(0.000590397 0.0139079 -1.76411e-19)
(0.000156934 0.0130096 1.572e-19)
(-0.000536611 0.0116893 1.12898e-19)
(-0.00126487 0.0103724 -7.64243e-20)
(-0.00193348 0.00913206 -1.50432e-19)
(-0.00248133 0.00798872 6.30381e-21)
(-0.00288489 0.00694238 1.09167e-19)
(-0.00317524 0.00596259 -8.9494e-20)
(-0.00331534 0.00503609 1.5043e-19)
(-0.00329414 0.004149 -1.91878e-19)
(-0.00310459 0.00328904 1.82934e-19)
(-0.00274118 0.00244339 -4.15823e-20)
(-0.00219891 0.00160175 2.80059e-20)
(-0.00141942 0.000776621 5.02977e-20)
(-0.000494402 -5.21166e-05 -4.36988e-20)
(0.000566304 -0.000889323 -1.79035e-19)
(0.00182095 -0.00172101 7.40745e-20)
(0.00324374 -0.00254799 1.40051e-19)
(0.00483695 -0.00336795 -4.32777e-20)
(0.00660038 -0.00418743 -6.23993e-20)
(0.00853467 -0.00501128 -2.19461e-20)
(0.0106405 -0.00584274 -7.7874e-21)
(0.0129185 -0.00668445 -5.95938e-20)
(0.0153696 -0.00753865 1.61764e-19)
(0.0179949 -0.00840705 -1.90516e-21)
(0.0207954 -0.00929104 -5.18044e-20)
(0.0237719 -0.010192 2.71634e-20)
(0.0269253 -0.0111114 -4.69094e-20)
(0.0302565 -0.0120506 -8.50792e-20)
(0.153341 0.0171396 6.76558e-20)
(0.150786 0.015134 9.23415e-21)
(0.14766 0.0135036 -3.428e-19)
(0.145573 0.0122034 1.4822e-19)
(0.144042 0.0109419 -1.24882e-19)
(0.142787 0.00962724 3.0495e-20)
(0.141768 0.00834638 -5.2641e-20)
(0.140968 0.00710085 1.22637e-19)
(0.140371 0.00588193 -3.38506e-21)
(0.139987 0.00467898 3.83688e-19)
(0.139826 0.00349528 -6.43421e-20)
(0.13989 0.00233041 -1.64844e-19)
(0.14018 0.00117328 -2.61712e-20)
(0.140708 9.78474e-06 -7.82104e-21)
(0.141473 -0.00116449 -6.39414e-20)
(0.142422 -0.00236148 -5.84688e-20)
(0.143594 -0.00351507 3.93568e-21)
(0.144997 -0.00464389 7.43385e-20)
(0.146617 -0.00576111 9.98636e-20)
(0.148447 -0.00687337 -1.14109e-19)
(0.150483 -0.00798374 1.19116e-19)
(0.152725 -0.00909527 -1.59149e-19)
(0.15517 -0.0102114 5.27654e-20)
(0.157816 -0.011336 -1.97113e-20)
(0.160662 -0.0124722 -1.37738e-19)
(0.163708 -0.0136223 1.19614e-19)
(0.166953 -0.0147877 3.17695e-20)
(0.170394 -0.0159696 -8.07986e-20)
(0.17403 -0.0171696 1.08313e-19)
(0.177859 -0.0183894 5.2685e-20)
(0.351861 0.0273303 -1.49932e-20)
(0.348378 0.0227381 -8.51524e-20)
(0.343332 0.0192778 8.16519e-20)
(0.338174 0.0166752 1.95893e-19)
(0.333512 0.0143518 4.85519e-20)
(0.329542 0.0122059 -1.94033e-19)
(0.326206 0.0103121 3.31929e-20)
(0.323357 0.00861043 2.48233e-19)
(0.320919 0.00698796 -6.7663e-19)
(0.318891 0.00539497 2.39721e-19)
(0.31727 0.00383333 -2.03003e-19)
(0.316032 0.00230415 3.7046e-19)
(0.315147 0.000793439 1.08906e-19)
(0.314598 -0.000721539 -3.09437e-19)
(0.314429 -0.00225249 4.39221e-19)
(0.314592 -0.00381821 -9.43377e-20)
(0.315075 -0.00539725 -2.87185e-19)
(0.315846 -0.00693572 -2.63234e-19)
(0.316895 -0.00844022 3.4259e-19)
(0.318219 -0.00992204 1.9169e-19)
(0.319811 -0.0113932 -2.59911e-19)
(0.321662 -0.0128614 2.61589e-19)
(0.323763 -0.0143305 -3.98713e-19)
(0.326109 -0.0158037 9.68699e-20)
(0.328695 -0.0172844 -4.02631e-20)
(0.331519 -0.0187739 1.6303e-19)
(0.334577 -0.0202719 5.44142e-20)
(0.337862 -0.021779 -2.79524e-19)
(0.34137 -0.0232971 -4.44993e-20)
(0.345095 -0.0248288 1.68635e-19)
(0.595393 0.0397244 -1.29293e-19)
(0.586386 0.0353086 1.54738e-20)
(0.578052 0.0316777 2.28049e-19)
(0.569192 0.0281421 -2.55003e-19)
(0.56051 0.024372 1.30926e-19)
(0.552758 0.0207813 1.20648e-19)
(0.545965 0.0176526 1.0489e-19)
(0.539851 0.0148629 -3.17407e-19)
(0.534303 0.0122354 -1.86376e-19)
(0.529361 0.00972596 -3.53367e-20)
(0.525045 0.0073434 5.62937e-19)
(0.521315 0.00507203 9.04266e-21)
(0.518116 0.00288021 -5.26909e-19)
(0.515401 0.000741139 1.84923e-19)
(0.513139 -0.00136737 -1.4525e-20)
(0.511294 -0.00345965 1.13055e-19)
(0.510009 -0.00551287 6.32938e-20)
(0.509196 -0.00758091 -1.05428e-19)
(0.508775 -0.00965521 2.56791e-19)
(0.50871 -0.0116567 1.12602e-20)
(0.50899 -0.0135947 -4.97651e-19)
(0.50961 -0.0154886 2.42449e-19)
(0.510558 -0.017354 1.20512e-19)
(0.511819 -0.0192061 -1.69546e-20)
(0.513383 -0.0210568 -5.50874e-20)
(0.515243 -0.0229095 7.10547e-20)
(0.51739 -0.024762 1.29824e-19)
(0.51981 -0.0266134 -4.83838e-19)
(0.522489 -0.0284664 4.09381e-19)
(0.525417 -0.0303241 -2.56568e-19)
(0.528585 -0.0321877 -7.51994e-20)
(0.848021 0.0577221 1.31653e-19)
(0.83438 0.052838 -3.26353e-19)
(0.822815 0.0493561 4.56757e-22)
(0.810585 0.0450804 3.08704e-19)
(0.798487 0.0400439 -8.73048e-20)
(0.78759 0.0352804 -2.11337e-19)
(0.777813 0.0310728 3.74105e-20)
(0.768704 0.0271429 7.87263e-20)
(0.76016 0.023344 -9.56467e-20)
(0.752289 0.0197233 1.51874e-19)
(0.745136 0.0163129 8.26211e-20)
(0.738664 0.0130802 7.04935e-20)
(0.732829 0.00998509 -1.87836e-19)
(0.727605 0.00700874 6.67804e-20)
(0.722967 0.00413759 5.86983e-21)
(0.718865 0.00137152 -2.38899e-19)
(0.715268 -0.00132879 3.20331e-19)
(0.712164 -0.00400221 -2.51261e-19)
(0.709732 -0.00660772 1.48088e-19)
(0.707835 -0.00923855 -1.66517e-19)
(0.706352 -0.0118874 1.08146e-19)
(0.705251 -0.014464 -8.60387e-20)
(0.704521 -0.0169586 -1.64088e-20)
(0.704144 -0.0193928 -1.73064e-19)
(0.704114 -0.0217896 3.59673e-20)
(0.704431 -0.0241568 2.39807e-19)
(0.705085 -0.0264922 9.74072e-20)
(0.706054 -0.028798 -2.35411e-19)
(0.707318 -0.031082 1.4959e-19)
(0.70886 -0.0333502 -1.15034e-19)
(0.710667 -0.0356044 1.42795e-19)
(0.712727 -0.0378449 -1.3213e-19)
(1.05714 0.0811204 6.1517e-21)
(1.04418 0.0759713 1.84395e-19)
(1.03243 0.0719183 1.60949e-19)
(1.01939 0.0660492 -4.56836e-19)
(1.00658 0.0595535 1.58658e-19)
(0.995105 0.0537204 1.78915e-19)
(0.9846 0.0484043 3.97636e-20)
(0.974552 0.0432023 1.20988e-19)
(0.964942 0.0381113 -2.81289e-19)
(0.955906 0.0332584 -1.57697e-19)
(0.947475 0.0286661 3.18775e-19)
(0.939623 0.0242978 -1.23395e-19)
(0.932335 0.0201311 -3.02172e-19)
(0.925606 0.0161573 3.97769e-19)
(0.919426 0.0123605 -2.28062e-19)
(0.913773 0.00872545 9.77437e-20)
(0.908626 0.00523549 2.33827e-19)
(0.903935 0.00188863 -2.59174e-19)
(0.899664 -0.00138592 -3.16599e-19)
(0.895843 -0.00461448 1.62109e-20)
(0.892661 -0.00773153 3.4827e-19)
(0.890008 -0.0108391 2.69829e-19)
(0.887743 -0.0139109 -2.69129e-19)
(0.885809 -0.0169159 -2.72373e-19)
(0.8842 -0.0198673 1.55947e-19)
(0.88293 -0.0227591 1.77461e-19)
(0.881997 -0.0255773 8.4136e-20)
(0.881377 -0.0283274 -1.63472e-19)
(0.881042 -0.0310247 1.85903e-19)
(0.880979 -0.0336786 -3.67687e-19)
(0.881174 -0.0362922 9.09422e-20)
(0.881616 -0.038868 -1.26195e-19)
(1.18613 0.101077 -3.12048e-19)
(1.17922 0.0974547 4.52324e-19)
(1.17125 0.0928552 -5.74817e-20)
(1.16153 0.0861262 -2.41879e-19)
(1.15215 0.079429 3.58044e-19)
(1.14374 0.0734213 -4.64735e-19)
(1.13578 0.0676196 -1.46951e-19)
(1.12791 0.0617969 -1.2766e-19)
(1.12021 0.0560598 3.69007e-19)
(1.11276 0.0504889 -2.28548e-19)
(1.10558 0.0450788 3.08892e-19)
(1.09868 0.0398244 1.38854e-19)
(1.09207 0.0347382 -1.91314e-19)
(1.08577 0.0298296 -3.50603e-19)
(1.07979 0.0250955 4.11829e-19)
(1.07412 0.0205326 8.87979e-20)
(1.06878 0.016134 -8.88073e-20)
(1.06375 0.0119059 -1.74015e-19)
(1.05904 0.00784837 3.40868e-19)
(1.0546 0.0039765 -4.04546e-19)
(1.05039 0.000185258 4.28486e-19)
(1.04654 -0.00351801 -1.07469e-19)
(1.04314 -0.00708611 -3.04416e-19)
(1.04007 -0.010607 -8.09636e-20)
(1.03724 -0.0141359 4.50241e-19)
(1.03468 -0.0176118 3.19603e-20)
(1.03241 -0.0209945 -2.15336e-19)
(1.03039 -0.0242908 3.44927e-20)
(1.02859 -0.0275143 -2.64551e-19)
(1.02701 -0.0306685 -3.84125e-21)
(1.02564 -0.0337534 2.38121e-19)
(1.02448 -0.0367713 4.32494e-20)
(1.0235 -0.0397261 -1.85408e-19)
(1.26319 0.123596 0)
(1.26298 0.116273 0)
(1.25816 0.109604 0)
(1.25166 0.10303 0)
(1.2455 0.0964982 0)
(1.24009 0.0899499 0)
(1.23507 0.0834639 0)
(1.23014 0.0771678 0)
(1.22519 0.0711017 0)
(1.22022 0.0652337 0)
(1.21529 0.0595303 0)
(1.21041 0.0539818 0)
(1.20562 0.0485888 0)
(1.20092 0.0433528 0)
(1.19632 0.0382705 0)
(1.19183 0.0333394 0)
(1.18747 0.0285513 0)
(1.18323 0.0239036 0)
(1.17914 0.019383 0)
(1.17518 0.0149925 0)
(1.17135 0.0107305 0)
(1.16764 0.00663972 0)
(1.16401 0.00264879 0)
(1.16047 -0.00127901 0)
(1.15711 -0.00509526 0)
(1.15401 -0.00877409 0)
(1.15113 -0.0123445 0)
(1.14842 -0.0158344 0)
(1.14585 -0.019252 0)
(1.14341 -0.0225965 2.12323e-27)
(1.14111 -0.0258674 -2.12325e-27)
(1.13893 -0.0290664 0)
(1.13688 -0.0321961 0)
(1.26532 0.126584 0)
(1.27179 0.118712 0)
(1.27307 0.111687 0)
(1.27152 0.105202 0)
(1.26958 0.098907 0)
(1.26812 0.0926643 0)
(1.26704 0.0865066 0)
(1.26596 0.0804998 0)
(1.26466 0.0746621 0)
(1.26308 0.0689746 0)
(1.26129 0.0634134 0)
(1.25935 0.0579662 0)
(1.2573 0.0526304 0)
(1.25514 0.0474074 0)
(1.2529 0.042298 0)
(1.25058 0.0373014 0)
(1.24818 0.0324155 0)
(1.24573 0.0276374 0)
(1.24322 0.0229666 0)
(1.24068 0.0184001 0)
(1.2381 0.0139459 0)
(1.23551 0.00960314 0)
(1.23296 0.0054125 0)
(1.23049 0.00137245 0)
(1.22817 -0.00249987 0)
(1.22586 -0.00625875 0)
(1.2235 -0.00994493 0)
(1.22112 -0.0135634 0)
(1.21875 -0.0171078 0)
(1.21642 -0.0205746 6.41857e-27)
(1.21411 -0.0239645 -6.41857e-27)
(1.21184 -0.0272798 0)
(1.2096 -0.0305228 0)
(1.25687 0.123637 0)
(1.26475 0.116583 0)
(1.26794 0.109807 0)
(1.26828 0.103477 0)
(1.26802 0.0974755 0)
(1.26816 0.091664 0)
(1.26872 0.0859764 0)
(1.26934 0.0804046 0)
(1.26976 0.074955 0)
(1.2699 0.0696264 0)
(1.26979 0.0644112 0)
(1.2695 0.0593011 0)
(1.26907 0.0542917 0)
(1.26849 0.049382 0)
(1.26779 0.0445722 0)
(1.26695 0.039863 0)
(1.26599 0.0352553 0)
(1.26492 0.0307507 0)
(1.26374 0.0263517 0)
(1.26248 0.022063 0)
(1.26114 0.0178883 0)
(1.25975 0.0138313 0)
(1.2583 0.00988298 0)
(1.25678 0.00602898 0)
(1.25517 0.00222361 0)
(1.25344 -0.00155561 0)
(1.25166 -0.00527684 0)
(1.24987 -0.00891892 0)
(1.24806 -0.0124783 0)
(1.24623 -0.0159586 1.97795e-27)
(1.24435 -0.019363 -1.97795e-27)
(1.24245 -0.0226934 0)
(1.24051 -0.0259507 0)
(1.24585 0.119568 0)
(1.25367 0.113205 0)
(1.25757 0.106863 0)
(1.25887 0.100839 0)
(1.25948 0.0951407 0)
(1.26033 0.0896659 0)
(1.26153 0.0843253 0)
(1.26279 0.0790818 0)
(1.26388 0.0739336 0)
(1.26472 0.0688875 0)
(1.26533 0.063945 0)
(1.26576 0.0591027 0)
(1.26605 0.0543554 0)
(1.26621 0.0496998 0)
(1.26623 0.0451342 0)
(1.26613 0.0406581 0)
(1.26589 0.036271 0)
(1.26553 0.0319728 0)
(1.26506 0.027762 0)
(1.26448 0.0236368 0)
(1.26379 0.0195917 0)
(1.263 0.0156206 0)
(1.2621 0.0117137 0)
(1.26111 0.00787022 0)
(1.26003 0.00409056 0)
(1.25889 0.000400778 0)
(1.25769 -0.00318921 0)
(1.25642 -0.00669059 0)
(1.25507 -0.0101149 0)
(1.25365 -0.0134681 0)
(1.25216 -0.0167526 0)
(1.25061 -0.0199687 0)
(1.249 -0.0231167 0)
(1.23418 0.114391 0)
(1.24172 0.108668 0)
(1.24593 0.10288 0)
(1.24783 0.0972914 0)
(1.249 0.0919582 0)
(1.25029 0.0868213 0)
(1.25182 0.081808 0)
(1.25339 0.0768796 0)
(1.2548 0.07203 0)
(1.25598 0.0672661 0)
(1.25693 0.0625931 0)
(1.25771 0.0580106 0)
(1.25834 0.053515 0)
(1.25885 0.0491025 0)
(1.25922 0.0447708 0)
(1.25947 0.0405186 0)
(1.25958 0.0363452 0)
(1.25958 0.0322496 0)
(1.25945 0.0282299 0)
(1.25921 0.0242848 0)
(1.25886 0.0204122 0)
(1.2584 0.0166127 0)
(1.25784 0.0128877 0)
(1.25719 0.00924166 0)
(1.25646 0.00567515 0)
(1.25564 0.00218815 0)
(1.25474 -0.00123287 0)
(1.25375 -0.00459136 0)
(1.25268 -0.00788593 0)
(1.25153 -0.0111153 0)
(1.25029 -0.0142792 0)
(1.24899 -0.0173777 0)
(1.24761 -0.0204112 0)
(1.22324 0.108564 0)
(1.23041 0.103474 0)
(1.2347 0.0982593 0)
(1.23695 0.0931531 0)
(1.23849 0.0882288 0)
(1.24007 0.0834575 0)
(1.24181 0.0787881 0)
(1.24356 0.0741894 0)
(1.24515 0.0696547 0)
(1.24652 0.0651894 0)
(1.24768 0.0607994 0)
(1.24866 0.0564863 0)
(1.2495 0.0522486 0)
(1.2502 0.0480838 0)
(1.25077 0.04399 0)
(1.25122 0.0399663 0)
(1.25153 0.0360123 0)
(1.25173 0.0321276 0)
(1.2518 0.0283117 0)
(1.25176 0.0245647 0)
(1.25161 0.0208867 0)
(1.25136 0.0172787 0)
(1.251 0.013741 0)
(1.25056 0.0102731 0)
(1.25002 0.00687201 0)
(1.24939 0.00353312 0)
(1.24867 0.000254435 0)
(1.24786 -0.00296306 0)
(1.24696 -0.00611828 0)
(1.24599 -0.00921054 0)
(1.24493 -0.0122398 0)
(1.2438 -0.0152065 0)
(1.24259 -0.0181111 0)
(1.21348 0.102629 0)
(1.22017 0.098099 0)
(1.2244 0.0934077 0)
(1.22684 0.0887679 0)
(1.22863 0.0842542 0)
(1.23041 0.0798533 6.10474e-28)
(1.23229 0.0755295 -6.10474e-28)
(1.23415 0.0712595 0)
(1.23585 0.0670383 0)
(1.23735 0.0628709 0)
(1.23864 0.0587633 0)
(1.23976 0.0547186 0)
(1.24073 0.050737 0)
(1.24157 0.0468176 0)
(1.24227 0.0429597 0)
(1.24285 0.0391629 0)
(1.2433 0.0354275 0)
(1.24363 0.0317538 0)
(1.24384 0.028142 0)
(1.24394 0.0245927 0)
(1.24393 0.0211058 0)
(1.24382 0.0176812 0)
(1.24361 0.0143184 0)
(1.2433 0.0110161 0)
(1.24289 0.00777287 0)
(1.24239 0.00458785 0)
(1.2418 0.00146161 0)
(1.24112 -0.00160555 0)
(1.24036 -0.00461299 0)
(1.23952 -0.00756083 0)
(1.23859 -0.0104494 0)
(1.23759 -0.013279 0)
(1.23651 -0.0160499 0)
(1.20473 0.0967085 0)
(1.21092 0.0926627 0)
(1.21504 0.0884476 0)
(1.21759 0.0842463 0)
(1.21954 0.0801287 0)
(1.22145 0.0760898 -9.80917e-28)
(1.22342 0.0721044 9.80917e-28)
(1.22536 0.0681556 0)
(1.22714 0.0642409 0)
(1.22872 0.0603657 0)
(1.2301 0.0565362 0)
(1.23132 0.0527566 0)
(1.2324 0.0490284 0)
(1.23334 0.045352 0)
(1.23414 0.0417277 0)
(1.23483 0.038156 0)
(1.23538 0.0346376 0)
(1.23582 0.0311732 0)
(1.23614 0.0277635 0)
(1.23635 0.0244088 0)
(1.23644 0.0211094 0)
(1.23644 0.0178652 0)
(1.23633 0.014676 0)
(1.23613 0.0115417 0)
(1.23583 0.00846222 0)
(1.23544 0.00543796 0)
(1.23496 0.00246913 0)