/*--------------------------------*- C++ -*----------------------------------*\
  =========                 |
  \\      /  F ield         | OpenFOAM: The Open Source CFD Toolbox
   \\    /   O peration     | Website:  https://openfoam.org
    \\  /    A nd           | Version:  7
     \\/     M anipulation  |
\*---------------------------------------------------------------------------*/
FoamFile
{
    version     2.0;
    format      ascii;
    class       volScalarField;
    location    "85";
    object      p;
}
// * * * * * * * * * * * * * * * * * * * * * * * * * * * * * * * * * * * * * //

dimensions      [0 2 -2 0 0 0 0];

internalField   nonuniform List<scalar> 
3500
(
-0.233173
-0.234838
-0.236561
-0.238177
-0.239424
-0.24003
-0.240444
-0.238546
-0.229225
-0.232602
-0.233976
-0.235593
-0.237293
-0.238935
-0.240295
-0.240689
-0.24184
-0.239063
-0.231265
-0.234231
-0.235433
-0.23693
-0.238544
-0.240151
-0.241841
-0.241305
-0.244421
-0.23922
-0.234046
-0.236435
-0.237344
-0.238614
-0.240053
-0.24139
-0.243947
-0.241123
-0.248171
-0.238172
-0.237337
-0.239016
-0.239478
-0.24036
-0.241544
-0.242199
-0.246248
-0.239847
-0.251276
-0.236899
-0.240942
-0.241803
-0.24163
-0.241905
-0.242706
-0.242593
-0.247129
-0.238438
-0.253179
-0.235621
-0.244752
-0.244696
-0.243683
-0.243136
-0.243193
-0.242611
-0.246814
-0.236829
-0.251195
-0.236129
-0.248791
-0.247694
-0.24565
-0.244073
-0.243185
-0.24215
-0.244661
-0.236492
-0.244516
-0.235377
-0.253264
-0.250893
-0.2477
-0.244912
-0.242905
-0.241276
-0.240936
-0.235755
-0.235419
-0.229377
-0.258497
-0.254573
-0.250096
-0.245955
-0.242681
-0.239848
-0.23661
-0.231713
-0.224917
-0.218281
-0.264858
-0.259111
-0.253184
-0.247503
-0.242624
-0.237784
-0.231695
-0.224485
-0.213432
-0.203689
-0.272792
-0.264889
-0.257244
-0.249699
-0.242642
-0.234978
-0.225681
-0.215107
-0.202212
-0.190306
-0.282769
-0.272233
-0.26241
-0.252618
-0.242539
-0.231221
-0.218454
-0.205028
-0.190454
-0.177416
-0.295192
-0.281281
-0.268862
-0.256186
-0.241957
-0.226355
-0.21024
-0.194205
-0.178495
-0.165088
-0.310325
-0.29177
-0.276844
-0.259965
-0.240397
-0.220265
-0.200931
-0.182841
-0.166334
-0.15229
-0.328139
-0.303357
-0.28587
-0.263032
-0.237338
-0.212727
-0.190552
-0.170777
-0.153576
-0.139008
-0.347456
-0.316095
-0.294228
-0.264131
-0.232256
-0.203555
-0.178907
-0.1578
-0.140079
-0.12489
-0.366247
-0.329801
-0.300031
-0.262125
-0.224663
-0.192451
-0.165783
-0.143678
-0.125537
-0.109948
-0.382338
-0.34281
-0.30217
-0.25632
-0.214099
-0.179102
-0.150895
-0.128127
-0.109829
-0.0941886
-0.394059
-0.352229
-0.299761
-0.246316
-0.200185
-0.163164
-0.133957
-0.110911
-0.0927562
-0.0775721
-0.400287
-0.355408
-0.291627
-0.231718
-0.182604
-0.144337
-0.114721
-0.0918332
-0.0741562
-0.0597036
-0.400043
-0.350425
-0.276894
-0.212103
-0.161093
-0.122388
-0.0930292
-0.0708499
-0.0539351
-0.0400226
-0.392159
-0.336218
-0.255044
-0.187108
-0.135438
-0.0972139
-0.0688502
-0.0480073
-0.0321199
-0.0185413
-0.375241
-0.312273
-0.225754
-0.156523
-0.105609
-0.0689359
-0.0423198
-0.0233379
-0.00850822
0.00366258
-0.347937
-0.278461
-0.188794
-0.120476
-0.0718738
-0.0378652
-0.0136812
0.00332004
0.0166595
0.0265909
-0.309309
-0.23491
-0.144251
-0.0795065
-0.0346142
-0.00400448
0.0170207
0.0316405
0.0428783
0.0500409
-0.259131
-0.181659
-0.0931338
-0.0338657
0.00600983
0.0322475
0.0494854
0.0611013
0.0694702
0.0732794
-0.197836
-0.118593
-0.0368311
0.0157695
0.0494539
0.070448
0.0833003
0.0911162
0.095568
0.0953087
-0.125971
-0.0478729
0.0239277
0.0684056
0.0950062
0.110083
0.118011
0.121223
0.120674
0.115872
-0.0440043
0.0268396
0.0880163
0.123035
0.141832
0.150496
0.15305
0.151146
0.14537
0.136734
0.0445659
0.104283
0.153872
0.17855
0.189007
0.190882
0.18768
0.180482
0.170186
0.162539
0.136612
0.182835
0.219827
0.233707
0.235535
0.230391
0.221208
0.208872
0.195238
0.187183
0.228777
0.26039
0.284181
0.287184
0.280362
0.268213
0.25321
0.236261
0.219718
0.20924
0.317715
0.334715
0.345245
0.337643
0.322413
0.303476
0.282979
0.261907
0.242588
0.229042
0.400193
0.403598
0.401377
0.383789
0.360693
0.335459
0.309968
0.285164
0.263028
0.246276
0.473381
0.464885
0.450993
0.424379
0.394223
0.363394
0.33355
0.305497
0.280703
0.260866
0.535134
0.516403
0.492606
0.458304
0.422161
0.386616
0.353137
0.322355
0.295223
0.272638
0.58343
0.556476
0.52495
0.484618
0.443785
0.404568
0.368279
0.335369
0.306342
0.281487
0.616604
0.583884
0.547058
0.502582
0.458526
0.416794
0.378589
0.344222
0.313863
0.287377
0.511695
0.466
0.422988
0.383812
0.348705
0.317658
0.290312
-0.237772
-0.237015
-0.236153
-0.235201
-0.234158
-0.233033
-0.23183
-0.230552
-0.229214
-0.227804
-0.226332
-0.2248
-0.22321
-0.221563
-0.219859
-0.218098
-0.216282
-0.21441
-0.212484
-0.210504
-0.20847
-0.206385
-0.204248
-0.202062
-0.199826
-0.197544
-0.195215
-0.192841
-0.190423
-0.238778
-0.238047
-0.2372
-0.236271
-0.235249
-0.234142
-0.232953
-0.231682
-0.230319
-0.228859
-0.227332
-0.225735
-0.224066
-0.222324
-0.220511
-0.218626
-0.216672
-0.214648
-0.212559
-0.210405
-0.208189
-0.205916
-0.203588
-0.201209
-0.198783
-0.196315
-0.193809
-0.191267
-0.188694
-0.240113
-0.239274
-0.2384
-0.237488
-0.236484
-0.235388
-0.234205
-0.232933
-0.23156
-0.230099
-0.228533
-0.22689
-0.225161
-0.223344
-0.22144
-0.21945
-0.217375
-0.21522
-0.212988
-0.210682
-0.208308
-0.205869
-0.203373
-0.200825
-0.198231
-0.195599
-0.192933
-0.190242
-0.187532
-0.242411
-0.240416
-0.239544
-0.238629
-0.237632
-0.236521
-0.235364
-0.234106
-0.23275
-0.231296
-0.229691
-0.228035
-0.22627
-0.224399
-0.222429
-0.220361
-0.2182
-0.215948
-0.21361
-0.21119
-0.208691
-0.206122
-0.203491
-0.200808
-0.198081
-0.195313
-0.192536
-0.189738
-0.186921
-0.184106
-0.241495
-0.241406
-0.240367
-0.239356
-0.238383
-0.237343
-0.236216
-0.234997
-0.233679
-0.232254
-0.230717
-0.229022
-0.22726
-0.22539
-0.2234
-0.221295
-0.219083
-0.216771
-0.214363
-0.211865
-0.209285
-0.20663
-0.20391
-0.201135
-0.198314
-0.195459
-0.192581
-0.18969
-0.186797
-0.183912
-0.238673
-0.239829
-0.239747
-0.239179
-0.238381
-0.23745
-0.236427
-0.235298
-0.234042
-0.232657
-0.231147
-0.229505
-0.227697
-0.225807
-0.223846
-0.22177
-0.21957
-0.217254
-0.214833
-0.212318
-0.209716
-0.207037
-0.204289
-0.201482
-0.198628
-0.195738
-0.192825
-0.189901
-0.186976
-0.184062
-0.235121
-0.236111
-0.237097
-0.23728
-0.236799
-0.236107
-0.235374
-0.234506
-0.233439
-0.232201
-0.230828
-0.22932
-0.227653
-0.225799
-0.223799
-0.221735
-0.219624
-0.217401
-0.21505
-0.212576
-0.209995
-0.207326
-0.204583
-0.201778
-0.198922
-0.19603
-0.193113
-0.190187
-0.187263
-0.184351
-0.181463
-0.231826
-0.231743
-0.233274
-0.233756
-0.233278
-0.23279
-0.232447
-0.231922
-0.231088
-0.230033
-0.228831
-0.227488
-0.22599
-0.224339
-0.222521
-0.220504
-0.218313
-0.216079
-0.213901
-0.211644
-0.209266
-0.206774
-0.204179
-0.201494
-0.198736
-0.195923
-0.193077
-0.190219
-0.187358
-0.184505
-0.181669
-0.178863
-0.22605
-0.226299
-0.228338
-0.228474
-0.227747
-0.227562
-0.227713
-0.227617
-0.227174
-0.226517
-0.225698
-0.224697
-0.223507
-0.222137
-0.220601
-0.218908
-0.21704
-0.214939
-0.212543
-0.210104
-0.207753
-0.205434
-0.203037
-0.200543
-0.197948
-0.195263
-0.192526
-0.189769
-0.187002
-0.184232
-0.18147
-0.178728
-0.21795
-0.220177
-0.221852
-0.220965
-0.22
-0.219997
-0.220291
-0.220358
-0.220192
-0.219879
-0.219415
-0.218781
-0.217976
-0.217003
-0.215861
-0.214549
-0.213077
-0.21147
-0.209725
-0.20777
-0.205516
-0.203102
-0.200786
-0.19855
-0.19622
-0.193775
-0.191275
-0.188752
-0.186205
-0.183631
-0.181042
-0.178452
-0.175874
-0.205322
-0.212402
-0.213479
-0.212174
-0.211187
-0.211068
-0.21139
-0.211726
-0.211903
-0.211893
-0.211708
-0.211364
-0.210863
-0.210201
-0.209372
-0.208376
-0.207212
-0.205886
-0.204402
-0.202779
-0.201039
-0.199168
-0.19712
-0.194915
-0.192619
-0.19025
-0.187887
-0.18552
-0.18313
-0.180716
-0.178289
-0.175858
-0.173434
-0.186501
-0.195853
-0.19896
-0.198479
-0.197546
-0.197397
-0.197929
-0.198647
-0.199206
-0.199503
-0.199568
-0.199452
-0.199181
-0.198758
-0.198173
-0.197421
-0.196502
-0.195421
-0.194183
-0.192794
-0.191255
-0.189575
-0.187788
-0.185946
-0.184106
-0.182312
-0.180486
-0.178584
-0.176587
-0.174513
-0.172398
-0.170266
-0.168128
-0.169637
-0.17967
-0.183878
-0.184337
-0.183955
-0.184143
-0.184979
-0.18603
-0.186925
-0.187535
-0.187887
-0.188046
-0.188053
-0.187916
-0.18763
-0.187189
-0.186594
-0.185851
-0.184968
-0.183955
-0.182827
-0.181601
-0.180295
-0.178918
-0.177467
-0.175923
-0.174253
-0.172471
-0.170621
-0.168755
-0.166877
-0.164983
-0.163076
-0.155299
-0.164804
-0.169474
-0.17076
-0.171068
-0.171704
-0.172842
-0.174151
-0.175311
-0.176193
-0.176815
-0.177237
-0.177502
-0.177625
-0.177603
-0.177431
-0.17711
-0.176645
-0.176045
-0.175318
-0.174473
-0.173515
-0.172447
-0.171273
-0.169998
-0.168632
-0.167191
-0.165704
-0.164194
-0.162648
-0.161053
-0.159412
-0.157737
-0.14227
-0.151213
-0.156112
-0.158027
-0.158945
-0.160013
-0.161434
-0.162966
-0.164351
-0.165473
-0.166342
-0.167009
-0.167513
-0.167871
-0.168084
-0.168149
-0.168067
-0.167845
-0.167488
-0.167004
-0.1664
-0.165681
-0.164853
-0.163925
-0.162907
-0.161814
-0.160659
-0.159447
-0.158176
-0.156839
-0.155444
-0.154003
-0.152525
-0.130608
-0.139032
-0.14399
-0.146328
-0.147716
-0.149146
-0.150818
-0.152549
-0.154128
-0.155459
-0.156545
-0.15743
-0.15815
-0.158719
-0.159143
-0.15942
-0.159554
-0.159548
-0.159411
-0.159148
-0.158766
-0.158272
-0.157673
-0.156978
-0.156195
-0.155332
-0.154393
-0.153382
-0.1523
-0.151154
-0.149955
-0.148705
-0.14741
-0.120406
-0.128213
-0.133093
-0.135703
-0.13744
-0.139155
-0.141033
-0.142928
-0.144668
-0.146171
-0.147441
-0.148514
-0.14942
-0.150175
-0.150785
-0.151251
-0.151575
-0.151762
-0.15182
-0.151754
-0.151572
-0.15128
-0.150884
-0.15039
-0.149805
-0.149133
-0.148381
-0.147552
-0.146653
-0.145689
-0.144666
-0.14359
-0.142463
-0.111391
-0.118581
-0.12332
-0.1261
-0.12809
-0.130019
-0.132054
-0.134077
-0.135943
-0.137585
-0.139006
-0.140235
-0.141301
-0.142217
-0.142989
-0.143619
-0.14411
-0.144467
-0.144697
-0.144806
-0.1448
-0.144684
-0.144465
-0.144146
-0.143735
-0.143236
-0.142654
-0.141994
-0.141263
-0.140464
-0.139603
-0.138682
-0.137707
-0.103373
-0.110011
-0.114578
-0.117452
-0.119618
-0.1217
-0.123847
-0.125962
-0.127924
-0.129674
-0.131215
-0.132574
-0.133772
-0.134824
-0.135735
-0.136506
-0.137142
-0.137648
-0.138028
-0.13829
-0.138438
-0.138477
-0.138413
-0.138251
-0.137995
-0.137651
-0.137223
-0.136717
-0.136136
-0.135485
-0.134769
-0.13399
-0.133152
-0.0962706
-0.102397
-0.10677
-0.109682
-0.111962
-0.114148
-0.11637
-0.118548
-0.120576
-0.122407
-0.124042
-0.125504
-0.126811
-0.127976
-0.129003
-0.129895
-0.130655
-0.131288
-0.131799
-0.132194
-0.132476
-0.132652
-0.132726
-0.132702
-0.132585
-0.132379
-0.132089
-0.131719
-0.131273
-0.130755
-0.130169
-0.129518
-0.128806
-0.0899784
-0.0956249
-0.0997923
-0.102704
-0.105056
-0.107309
-0.109575
-0.111789
-0.113862
-0.11575
-0.117455
-0.118997
-0.120391
-0.121648
-0.122771
-0.123764
-0.12463
-0.125372
-0.125995
-0.126505
-0.126905
-0.127201
-0.127395
-0.127493
-0.127499
-0.127416
-0.127248
-0.127
-0.126675
-0.126277
-0.125809
-0.125274
-0.124677
-0.0843815
-0.0895909
-0.0935548
-0.0964404
-0.0988328
-0.101123
-0.103411
-0.105642
-0.107738
-0.109665
-0.111421
-0.113023
-0.114485
-0.115816
-0.117018
-0.118095
-0.119048
-0.119883
-0.120603
-0.121211
-0.121714
-0.122113
-0.122413
-0.122618
-0.122732
-0.122758
-0.122699
-0.12256
-0.122343
-0.122053
-0.121691
-0.121262
-0.120768
-0.0793959
-0.0842125
-0.0879802
-0.0908228
-0.0932311
-0.0955379
-0.0978301
-0.100061
-0.102167
-0.104116
-0.105907
-0.107553
-0.109067
-0.110455
-0.11172
-0.112865
-0.113892
-0.114804
-0.115606
-0.116299
-0.116889
-0.117378
-0.117771
-0.11807
-0.118279
-0.118401
-0.118439
-0.118396
-0.118277
-0.118083
-0.117817
-0.117483
-0.117084
-0.0749558
-0.079418
-0.0829983
-0.0857869
-0.0881936
-0.090501
-0.0927842
-0.0950048
-0.097108
-0.099066
-0.100878
-0.102555
-0.104107
-0.10554
-0.106855
-0.108055
-0.109143
-0.110119
-0.110989
-0.111755
-0.112419
-0.112987
-0.113459
-0.11384
-0.114132
-0.114339
-0.114462
-0.114506
-0.114473
-0.114365
-0.114186
-0.113938
-0.113623
-0.0710001
-0.0751425
-0.0785464
-0.0812745
-0.0836678
-0.0859646
-0.0882297
-0.0904314
-0.0925231
-0.0944812
-0.0963044
-0.0980014
-0.0995803
-0.101046
-0.1024
-0.103644
-0.10478
-0.10581
-0.106737
-0.107563
-0.108292
-0.108926
-0.109468
-0.10992
-0.110285
-0.110566
-0.110765
-0.110885
-0.110928
-0.110898
-0.110796
-0.110625
-0.110388
-0.0674748
-0.0713305
-0.0745701
-0.0772351
-0.0796069
-0.0818854
-0.0841262
-0.0863032
-0.0883774
-0.0903283
-0.0921544
-0.0938626
-0.0954595
-0.0969488
-0.0983322
-0.0996107
-0.100786
-0.101859
-0.102834
-0.103712
-0.104495
-0.105186
-0.105787
-0.1063
-0.106729
-0.107075
-0.10734
-0.107528
-0.107639
-0.107678
-0.107645
-0.107543
-0.107375
-0.064335
-0.0679346
-0.0710229
-0.0736244
-0.0759694
-0.0782246
-0.0804372
-0.082586
-0.0846384
-0.086577
-0.0883999
-0.0901127
-0.0917204
-0.0932262
-0.0946311
-0.0959361
-0.0971423
-0.0982512
-0.0992648
-0.100185
-0.101014
-0.101753
-0.102406
-0.102972
-0.103456
-0.103859
-0.104182
-0.104429
-0.104601
-0.1047
-0.104729
-0.104689
-0.104583
-0.061543
-0.0649144
-0.0678641
-0.0704034
-0.0727188
-0.0749476
-0.0771298
-0.0792486
-0.0812767
-0.0831994
-0.0850148
-0.086727
-0.08834
-0.0898563
-0.0912766
-0.0926015
-0.093832
-0.0949693
-0.0960149
-0.0969705
-0.0978377
-0.0986183
-0.0993141
-0.0999267
-0.100458
-0.10091
-0.101285
-0.101583
-0.101808
-0.101962
-0.102045
-0.10206
-0.102009
-0.0590662
-0.0622348
-0.0650585
-0.0675383
-0.0698226
-0.0720236
-0.0741749
-0.0762629
-0.0782655
-0.0801702
-0.0819751
-0.083683
-0.0852972
-0.0868193
-0.08825
-0.0895896
-0.0908388
-0.0919986
-0.0930702
-0.0940549
-0.0949542
-0.0957695
-0.0965023
-0.0971541
-0.0977266
-0.0982213
-0.09864
-0.0989843
-0.099256
-0.0994567
-0.0995882
-0.0996523
-0.0996505
-0.0568763
-0.0598656
-0.0625757
-0.0649994
-0.0672528
-0.0694259
-0.0715464
-0.0736042
-0.0755811
-0.0774667
-0.0792591
-0.0809602
-0.0825724
-0.084097
-0.0855342
-0.0868843
-0.0881477
-0.0893252
-0.0904177
-0.0914263
-0.0923522
-0.0931965
-0.0939607
-0.0946459
-0.0952535
-0.0957851
-0.0962421
-0.0966261
-0.0969384
-0.0971808
-0.0973548
-0.0974619
-0.0975038
-0.0549496
-0.0577811
-0.0603896
-0.0627614
-0.0649847
-0.0671306
-0.0692217
-0.0712503
-0.0732022
-0.0750686
-0.0768475
-0.0785402
-0.0801484
-0.0816728
-0.0831135
-0.0844708
-0.0857447
-0.086936
-0.0880452
-0.0890732
-0.0900211
-0.0908897
-0.0916802
-0.0923937
-0.0930314
-0.0935947
-0.0940847
-0.0945029
-0.0948506
-0.0951293
-0.0953404
-0.0954854
-0.0955657
-0.0955828
-0.0532656
-0.0559593
-0.0584776
-0.0608022
-0.0629972
-0.0651173
-0.0671807
-0.0691821
-0.0711101
-0.0729578
-0.0747231
-0.0764066
-0.0780093
-0.0795318
-0.080974
-0.0823358
-0.0836174
-0.0848192
-0.0859416
-0.0869854
-0.0879512
-0.08884
-0.0896525
-0.0903899
-0.0910531
-0.0916433
-0.0921615
-0.0926092
-0.0929874
-0.0932975
-0.0935409
-0.0937188
-0.0938326
-0.0938837
-0.051807
-0.0543815
-0.0568208
-0.0591029
-0.061272
-0.0633683
-0.0654063
-0.0673826
-0.0692886
-0.0711187
-0.0728707
-0.0745447
-0.0761414
-0.0776608
-0.0791029
-0.0804674
-0.0817545
-0.0829642
-0.084097
-0.0851533
-0.0861338
-0.0870391
-0.08787
-0.0886273
-0.0893119
-0.0899248
-0.0904671
-0.0909398
-0.0913441
-0.0916812
-0.0919523
-0.0921585
-0.0923013
-0.0923819
-0.0505591
-0.0530317
-0.0554029
-0.0576477
-0.0597934
-0.0618683
-0.0638837
-0.0658375
-0.0677237
-0.0695375
-0.0712771
-0.072942
-0.0745324
-0.0760482
-0.0774892
-0.0788551
-0.0801459
-0.0813615
-0.0825023
-0.0835686
-0.0845609
-0.0854797
-0.0863256
-0.0870994
-0.0878018
-0.0884338
-0.0889962
-0.0894901
-0.0899164
-0.0902763
-0.0905709
-0.0908013
-0.0909688
-0.0910745
-0.0495097
-0.0518968
-0.0542102
-0.0564231
-0.0585484
-0.0606047
-0.0626003
-0.0645346
-0.0664033
-0.0682029
-0.0699312
-0.0715877
-0.0731721
-0.0746841
-0.0761234
-0.0774898
-0.0787829
-0.0800029
-0.0811499
-0.082224
-0.0832256
-0.0841552
-0.0850133
-0.0858005
-0.0865176
-0.0871652
-0.0877442
-0.0882556
-0.0887002
-0.0890791
-0.0893933
-0.089644
-0.0898321
-0.089959
-0.0486485
-0.0509654
-0.0532313
-0.0554176
-0.057526
-0.0595666
-0.0615456
-0.0634635
-0.0653175
-0.0671049
-0.0688235
-0.0704726
-0.0720515
-0.07356
-0.0749974
-0.0763637
-0.0776584
-0.0788815
-0.080033
-0.0811131
-0.082122
-0.0830601
-0.0839279
-0.0847258
-0.0854546
-0.0861148
-0.0867072
-0.0872327
-0.0876922
-0.0880865
-0.0884167
-0.0886839
-0.088889
-0.0890331
-0.0479673
-0.0502289
-0.0524571
-0.0546222
-0.056717
-0.058745
-0.0607108
-0.0626156
-0.0644578
-0.0662353
-0.0679461
-0.069589
-0.0711634
-0.0726687
-0.0741044
-0.0754702
-0.0767659
-0.0779912
-0.079146
-0.0802306
-0.0812451
-0.0821897
-0.0830649
-0.0838711
-0.0846088
-0.0852788
-0.0858817
-0.0864183
-0.0868893
-0.0872958
-0.0876386
-0.0879186
-0.0881371
-0.0882949
-0.0474607
-0.0496819
-0.0518823
-0.0540317
-0.0561162
-0.0581347
-0.0600904
-0.0619852
-0.0638184
-0.0655883
-0.0672931
-0.0689313
-0.0705021
-0.0720048
-0.0734391
-0.0748045
-0.0761006
-0.0773274
-0.0784846
-0.0795723
-0.0805907
-0.0815401
-0.0824206
-0.0832328
-0.0839772
-0.0846544
-0.0852649
-0.0858096
-0.0862893
-0.0867047
-0.0870567
-0.0873464
-0.0875747
-0.0877426
-0.0471198
-0.0493163
-0.0515003
-0.0536406
-0.055719
-0.0577315
-0.0596805
-0.0615685
-0.0633957
-0.0651605
-0.0668611
-0.068496
-0.0700642
-0.0715652
-0.0729983
-0.0743632
-0.0756596
-0.0768871
-0.0780458
-0.0791355
-0.0801564
-0.0811088
-0.0819928
-0.0828089
-0.0835576
-0.0842395
-0.084855
-0.0854051
-0.0858903
-0.0863116
-0.0866697
-0.0869657
-0.0872005
-0.0873751
-0.0469336
-0.0491188
-0.0512973
-0.053436
-0.0555138
-0.057525
-0.0594719
-0.0613574
-0.0631822
-0.0649449
-0.0666439
-0.0682775
-0.0698447
-0.071345
-0.0727777
-0.0741425
-0.075439
-0.0766671
-0.0778265
-0.0789173
-0.0799395
-0.0808934
-0.0817791
-0.0825972
-0.0833481
-0.0840323
-0.0846503
-0.085203
-0.0856911
-0.0861153
-0.0864765
-0.0867756
-0.0870137
-0.0871916
-0.19246
-0.173601
-0.156034
-0.14301
-0.131218
-0.120366
-0.111043
-0.102912
-0.0956363
-0.0891793
-0.0834794
-0.0784137
-0.0738942
-0.0698658
-0.0662759
-0.0630746
-0.0602206
-0.0576803
-0.0554247
-0.0534287
-0.0516707
-0.0501325
-0.0487986
-0.0476559
-0.0466933
-0.0459017
-0.0452736
-0.0448037
-0.0444822
-0.0443004
-0.179236
-0.161891
-0.144422
-0.132133
-0.121658
-0.111569
-0.102776
-0.0952908
-0.0886302
-0.0826694
-0.0774076
-0.072749
-0.0685922
-0.0648805
-0.0615707
-0.0586184
-0.0559842
-0.0536371
-0.0515507
-0.0497022
-0.048072
-0.0466434
-0.0454022
-0.0443366
-0.0434364
-0.042693
-0.0420997
-0.0416514
-0.0413379
-0.0411545
-0.167282
-0.151646
-0.134588
-0.122184
-0.11245
-0.103219
-0.0949309
-0.087933
-0.081821
-0.0763356
-0.0714662
-0.0671653
-0.0633373
-0.0599162
-0.0568625
-0.0541384
-0.0517073
-0.0495396
-0.0476112
-0.0459013
-0.0443918
-0.0430674
-0.0419151
-0.0409241
-0.040085
-0.03939
-0.0388329
-0.0384088
-0.0381079
-0.0379309
-0.154532
-0.139805
-0.124016
-0.11215
-0.103089
-0.0948143
-0.0872058
-0.080674
-0.0750445
-0.0700271
-0.0655483
-0.0615848
-0.0580654
-0.054922
-0.0521132
-0.0496062
-0.0473685
-0.0453727
-0.0435961
-0.0420196
-0.040627
-0.0394041
-0.0383391
-0.0374219
-0.0366441
-0.0359985
-0.0354796
-0.0350827
-0.0347988
-0.0346333
-0.141352
-0.127969
-0.113788
-0.102555
-0.0938557
-0.0862754
-0.0793623
-0.073329
-0.0681445
-0.0635761
-0.0594982
-0.0558765
-0.0526623
-0.0497954
-0.0472333
-0.044945
-0.0429022
-0.0410799
-0.0394574
-0.0380171
-0.0367442
-0.0356258
-0.0346513
-0.0338114
-0.0330985
-0.0325062
-0.0320295
-0.0316641
-0.0314022
-0.031253
-0.127726
-0.115352
-0.102645
-0.0923882
-0.0843179
-0.0774736
-0.0713256
-0.0658847
-0.0611658
-0.0570308
-0.0533529
-0.0500786
-0.0471684
-0.0445747
-0.0422577
-0.0401874
-0.0383384
-0.0366891
-0.0352206
-0.0339169
-0.0327644
-0.0317517
-0.0308691
-0.0301083
-0.0294624
-0.0289259
-0.0284943
-0.0281636
-0.0279273
-0.0277978
-0.113435
-0.102452
-0.0914192
-0.0822794
-0.0748659
-0.0686354
-0.0631458
-0.05829
-0.0540497
-0.0503407
-0.0470575
-0.0441354
-0.041534
-0.0392155
-0.0371466
-0.0352987
-0.0336479
-0.0321758
-0.0308655
-0.0297025
-0.0286746
-0.0277715
-0.0269847
-0.0263067
-0.0257317
-0.0252545
-0.0248714
-0.0245789
-0.0243719
-0.024265
-0.0987205
-0.0891593
-0.0796543
-0.0716675
-0.0650662
-0.0595522
-0.0547571
-0.050527
-0.0468063
-0.0435385
-0.0406499
-0.0380808
-0.0357896
-0.0337461
-0.0319262
-0.0303033
-0.0288542
-0.0275623
-0.0264131
-0.0253935
-0.0244928
-0.0237019
-0.0230134
-0.0224208
-0.021919
-0.0215036
-0.0211715
-0.0209197
-0.0207444
-0.020661
-0.0835181
-0.0754337
-0.0675579
-0.0608521
-0.0551531
-0.0503649
-0.0462205
-0.0425846
-0.0393827
-0.0365647
-0.0340763
-0.0318662
-0.0298921
-0.0281302
-0.026567
-0.0251778
-0.0239389
-0.0228349
-0.0218532
-0.0209828
-0.0202145
-0.0195405
-0.0189545
-0.0184511
-0.0180259
-0.0176755
-0.0173971
-0.0171884
-0.0170472
-0.0169866
-0.067878
-0.0611845
-0.0548566
-0.0494667
-0.0447734
-0.0408075
-0.0373732
-0.034368
-0.031719
-0.0293821
-0.0273178
-0.0254854
-0.0238468
-0.022384
-0.0210907
-0.0199455
-0.0189252
-0.0180161
-0.0172077
-0.0164914
-0.0158596
-0.0153061
-0.0148256
-0.014414
-0.0140678
-0.0137842
-0.0135613
-0.0133974
-0.013291
-0.0132521
-0.0513667
-0.0464028
-0.0415166
-0.0375787
-0.0339626
-0.0308901
-0.0281931
-0.0258374
-0.0237654
-0.0219415
-0.0203341
-0.0189095
-0.0176408
-0.0165139
-0.015509
-0.0146194
-0.0138263
-0.0131193
-0.0124904
-0.0119332
-0.0114421
-0.0110124
-0.0106405
-0.0103231
-0.0100578
-0.00984265
-0.0096765
-0.00955804
-0.00948489
-0.00947185
-0.0335809
-0.0311382
-0.0274987
-0.0251273
-0.0225711
-0.0204824
-0.0186036
-0.0169776
-0.0155498
-0.0142949
-0.0131879
-0.0122029
-0.0113385
-0.0105856
-0.00987708
-0.00924934
-0.00868743
-0.00818535
-0.0077381
-0.00734156
-0.00699225
-0.00668731
-0.00642436
-0.0062015
-0.0060172
-0.00587035
-0.00576074
-0.00568705
-0.00564552
-0.00566246
-0.0146275
-0.0151936
-0.0128649
-0.0120737
-0.0106977
-0.00967965
-0.00873002
-0.00791575
-0.0071966
-0.00655707
-0.00598266
-0.00546209
-0.00500046
-0.00459112
-0.00419652
-0.00383734
-0.00351192
-0.00321827
-0.00295504
-0.00272094
-0.0025148
-0.00233557
-0.00218238
-0.00205451
-0.00195139
-0.00187284
-0.00181913
-0.00178856
-0.00178115
-0.0018209
0.00527757
0.00209179
0.0025817
0.00177223
0.0016567
0.00141824
0.00127971
0.00118581
0.00114362
0.00114478
0.0011804
0.00124028
0.00131039
0.0013875
0.00147901
0.00157393
0.00166668
0.00175446
0.00183531
0.00190793
0.00197143
0.00202523
0.00206889
0.00210208
0.00212448
0.00213551
0.00213475
0.00212343
0.00209767
0.00204155
0.0259965
0.0203356
0.018533
0.0158345
0.0139906
0.0123941
0.0111489
0.0101682
0.00940146
0.00880092
0.00832795
0.00795072
0.00764379
0.00739266
0.00718796
0.00701889
0.00687633
0.00675423
0.00664812
0.00655464
0.00647124
0.00639591
0.00632704
0.0062633
0.0062035
0.00614644
0.00609155
0.00603899
0.00598265
0.00591561
0.0470022
0.0387232
0.0343015
0.0296894
0.0262355
0.0234272
0.021203
0.0194182
0.0179696
0.0167785
0.015786
0.0149477
0.0142311
0.0136139
0.0130792
0.0126138
0.0122064
0.0118483
0.0115328
0.0112544
0.0110085
0.0107915
0.0106002
0.010432
0.0102845
0.0101558
0.0100449
0.00995055
0.00986633
0.00979363
0.0675102
0.0568235
0.0501668
0.0441677
0.03951
0.0356855
0.0325265
0.0298786
0.0276342
0.0257148
0.0240612
0.0226272
0.0213779
0.0202861
0.01933
0.0184915
0.0177554
0.017109
0.0165415
0.0160438
0.015608
0.0152276
0.0148971
0.0146115
0.014367
0.0141602
0.0139891
0.0138512
0.0137411
0.0136669
0.0875722
0.0760906
0.0682134
0.06124
0.0553674
0.0502799
0.0458592
0.0420135
0.038666
0.0357506
0.0332097
0.0309928
0.0290575
0.0273673
0.0258907
0.0246007
0.023474
0.0224902
0.0216322
0.0208849
0.0202357
0.0196738
0.0191902
0.0187771
0.0184284
0.018139
0.0179051
0.0177229
0.0175893
0.0175153
0.108443
0.0980403
0.0888868
0.0803126
0.0725853
0.0657128
0.0596589
0.0543622
0.0497454
0.0457294
0.0422389
0.0392055
0.0365691
0.0342771
0.032284
0.0305504
0.0290426
0.0277316
0.0265927
0.0256051
0.0247508
0.0240151
0.0233855
0.0228515
0.0224047
0.0220384
0.0217471
0.0215259
0.0213734
0.0212989
0.12764
0.116508
0.104971
0.0943161
0.0848903
0.0766656
0.0695182
0.063317
0.05794
0.0532772
0.0492317
0.0457188
0.0426656
0.0400097
0.0376976
0.0356838
0.0339297
0.0324023
0.0310738
0.0299207
0.028923
0.0280642
0.0273304
0.0267098
0.0261932
0.0257729
0.0254427
0.0251979
0.0250366
0.0249624
0.142391
0.126449
0.113282
0.101811
0.0919052
0.0833748
0.0760045
0.0696138
0.0640587
0.0592216
0.0550035
0.0513201
0.0480995
0.0452806
0.0428113
0.0406474
0.0387514
0.0370912
0.0356399
0.0343743
0.033275
0.0323255
0.0315122
0.0308234
0.0302498
0.0297836
0.0294187
0.0291507
0.0289771
0.0288948
0.153946
0.135748
0.121873
0.11015
0.100002
0.0911999
0.0835593
0.0769072
0.0710977
0.0660116
0.0615508
0.0576326
0.0541867
0.0511535
0.0484817
0.0461281
0.0440554
0.042232
0.040631
0.0392292
0.0380071
0.0369481
0.0360382
0.0352656
0.0346206
0.0340952
0.033683
0.0333796
0.0331811
0.0330836
0.159398
0.142834
0.129006
0.117258
0.107082
0.0981995
0.0904284
0.0836148
0.0776255
0.072349
0.0676929
0.0635791
0.0599411
0.0567218
0.0538722
0.0513503
0.0491199
0.0471499
0.0454138
0.0438887
0.0425551
0.0413962
0.0403981
0.0395487
0.0388381
0.0382583
0.0378026
0.0374661
0.0372446
0.0371346
0.161934
0.147005
0.133949
0.12264
0.112743
0.104008
0.0962793
0.0894383
0.0833772
0.0780004
0.0732256
0.068982
0.0652087
0.0618527
0.0588683
0.0562157
0.0538603
0.0517725
0.0499264
0.0482998
0.0468734
0.045631
0.0445585
0.043644
0.0428777
0.0422514
0.0417584
0.0413936
0.0411528
0.0410331
0.162076
0.149183
0.137318
0.126678
0.117204
0.108751
0.101198
0.0944479
0.088416
0.0830246
0.0782041
0.0738934
0.0700386
0.0665922
0.0635128
0.0607638
0.0583131
0.0561329
0.0541986
0.0524892
0.0509863
0.0496739
0.0485386
0.0475687
0.0467545
0.0460881
0.0455627
0.0451733
0.0449159
0.0447878
0.16126
0.149877
0.139186
0.129387
0.1205
0.11246
0.105193
0.098633
0.0927177
0.0873885
0.0825902
0.0782723
0.0743889
0.070899
0.0677657
0.0649565
0.0624422
0.0601973
0.0581993
0.0564282
0.0548669
0.0535004
0.0523157
0.0513018
0.0504493
0.0497504
0.0491988
0.0487894
0.0485186
0.0483838
0.159485
0.149586
0.140066
0.131146
0.122902
0.115337
0.108424
0.102122
0.0963893
0.0911832
0.0864622
0.0821863
0.0783181
0.0748233
0.0716705
0.0688312
0.0662799
0.0639936
0.061952
0.0601369
0.0585325
0.0571249
0.0559019
0.0548533
0.0539702
0.0532452
0.0526724
0.0522468
0.051965
0.0518247
0.157377
0.148662
0.14016
0.132084
0.124512
0.11747
0.110959
0.104965
0.0994636
0.094428
0.0898289
0.0856365
0.0818219
0.0783572
0.0752165
0.0723758
0.069813
0.067508
0.065443
0.0636016
0.0619697
0.0605345
0.0592851
0.0582117
0.0573063
0.056562
0.0559732
0.0555354
0.0552454
0.0551009
0.154912
0.147289
0.139738
0.132461
0.125542
0.119026
0.112936
0.107276
0.102038
0.0972054
0.092761
0.0886838
0.0849524
0.0815453
0.0784419
0.0756226
0.0730689
0.0707639
0.0686919
0.066839
0.0651924
0.0637408
0.0624745
0.0613846
0.0604638
0.0597058
0.0591055
0.0586588
0.0583627
0.0582151
0.152401
0.14568
0.138946
0.132389
0.126088
0.12009
0.114427
0.109116
0.104158
0.0995514
0.0952852
0.0913471
0.0877226
0.0843959
0.0813515
0.0785737
0.0760477
0.0737595
0.071696
0.0698452
0.0681962
0.0667391
0.0654653
0.064367
0.0634376
0.0626716
0.0620643
0.0616119
0.0613119
0.0611623
0.149823
0.143906
0.137914
0.132017
0.12629
0.120783
0.115536
0.110572
0.105904
0.101534
0.0974607
0.0936779
0.0901769
0.0869474
0.083978
0.0812571
0.0787733
0.0765153
0.0744725
0.0726349
0.0709934
0.0695396
0.0682659
0.0671659
0.0662335
0.0654641
0.0648534
0.0643982
0.064096
0.0639453
0.14733
0.142091
0.136737
0.131423
0.126219
0.121173
0.116324
0.1117
0.10732
0.103191
0.0993185
0.0957013
0.0923356
0.0892156
0.0863339
0.0836825
0.0812529
0.0790365
0.077025
0.0752104
0.0735853
0.0721427
0.0708764
0.0697807
0.0688506
0.0680821
0.0674715
0.0670159
0.0667134
0.0665625
0.144908
0.140263
0.135479
0.13069
0.125961
0.121339
0.116864
0.112566
0.108465
0.104576
0.100906
0.0974594
0.0942357
0.091233
0.0884475
0.0858742
0.0835074
0.0813411
0.0793689
0.0775849
0.0759831
0.074558
0.0733046
0.0722181
0.0712946
0.0705304
0.0699227
0.069469
0.0691675
0.069017
0.142628
0.138489
0.134195
0.129868
0.125565
0.121331
0.117203
0.113211
0.109379
0.105723
0.102253
0.0989774
0.0958985
0.0930176
0.0903339
0.0878449
0.0855476
0.0834378
0.0815115
0.0797641
0.0781915
0.0767892
0.0755535
0.0744806
0.0735672
0.0728105
0.0722081
0.0717581
0.0714588
0.0713095
0.140477
0.136778
0.132917
0.129001
0.125081
0.121198
0.117389
0.113684
0.110105
0.106672
0.103397
0.100289
0.0973541
0.0945962
0.0920167
0.0896155
0.0873915
0.0853426
0.0834664
0.08176
0.0802206
0.0788451
0.0776307
0.0765745
0.0756741
0.0749273
0.0743322
0.0738872
0.0735912
0.0734434
0.138487
0.135164
0.131677
0.128121
0.124541
0.120975
0.117457
0.114015
0.110673
0.107451
0.104361
0.101416
0.0986222
0.0959863
0.0935114
0.0911993
0.0890507
0.0870653
0.0852422
0.0835799
0.0820769
0.0807311
0.0795407
0.0785038
0.0776187
0.0768837
0.0762974
0.0758587
0.0755668
0.075421
0.136645
0.133648
0.13049
0.127251
0.123974
0.120692
0.117437
0.114237
0.111115
0.108089
0.105174
0.102384
0.0997267
0.0972094
0.0948372
0.0926135
0.0905406
0.0886196
0.086851
0.0852344
0.0837695
0.0824553
0.0812908
0.0802749
0.0794065
0.0786846
0.0781083
0.0776768
0.0773894
0.0772459
0.134964
0.132246
0.129371
0.12641
0.123399
0.120371
0.117353
0.114373
0.111451
0.108607
0.105857
0.103212
0.100684
0.0982808
0.096008
0.0938707
0.0918724
0.0900154
0.0883014
0.0867312
0.0853052
0.0840236
0.082886
0.0818922
0.0810416
0.0803338
0.0797682
0.0793444
0.0790621
0.078921
0.133432
0.130955
0.128328
0.12561
0.122835
0.120032
0.117226
0.114444
0.111705
0.109028
0.106429
0.10392
0.101513
0.0992174
0.0970394
0.094985
0.0930589
0.0912643
0.0896038
0.0880794
0.0866923
0.0854434
0.0843331
0.0833617
0.0825294
0.081836
0.0812816
0.0808658
0.0805888
0.0804503
0.13205
0.129781
0.127367
0.12486
0.122292
0.119687
0.117071
0.114466
0.111891
0.109366
0.106905
0.104522
0.102228
0.100032
0.0979431
0.0959672
0.0941097
0.092375
0.0907663
0.0892863
0.0879372
0.0867204
0.0856371
0.0846881