/*--------------------------------*- C++ -*----------------------------------*\
  =========                 |
  \\      /  F ield         | OpenFOAM: The Open Source CFD Toolbox
   \\    /   O peration     | Website:  https://openfoam.org
    \\  /    A nd           | Version:  7
     \\/     M anipulation  |
\*---------------------------------------------------------------------------*/
FoamFile
{
    version     2.0;
    format      ascii;
    class       volScalarField;
    location    "60";
    object      p;
}
// * * * * * * * * * * * * * * * * * * * * * * * * * * * * * * * * * * * * * //

dimensions      [0 2 -2 0 0 0 0];

internalField   nonuniform List<scalar> 
6000
(
-0.250641
-0.250322
-0.249942
-0.249512
-0.249106
-0.250664
-0.250339
-0.249952
-0.24951
-0.249099
-0.250736
-0.250395
-0.249991
-0.249522
-0.249091
-0.250487
-0.250056
-0.249544
-0.249072
-0.250612
-0.250143
-0.249576
-0.249025
-0.250765
-0.250248
-0.249614
-0.24893
-0.25094
-0.250363
-0.249663
-0.24876
-0.251131
-0.250482
-0.249729
-0.248478
-0.251333
-0.250592
-0.249831
-0.248026
-0.251539
-0.250675
-0.249996
-0.247358
-0.251742
-0.25072
-0.250199
-0.246685
-0.250798
-0.250117
-0.246266
-0.250853
-0.250058
-0.245671
-0.250819
-0.25004
-0.244897
-0.250668
-0.250031
-0.243956
-0.249997
-0.242856
-0.249898
-0.241616
-0.249684
-0.240276
-0.238896
-0.237545
-0.236275
-0.248751
-0.247741
-0.24689
-0.245783
-0.244622
-0.243329
-0.241935
-0.240432
-0.238826
-0.237115
-0.2353
-0.233378
-0.231361
-0.229232
-0.227022
-0.224707
-0.222293
-0.219779
-0.217169
-0.214461
-0.211659
-0.208763
-0.205775
-0.202699
-0.199535
-0.196288
-0.192961
-0.189556
-0.186077
-0.182529
-0.178916
-0.17524
-0.171508
-0.167725
-0.163893
-0.160016
-0.156099
-0.152149
-0.148173
-0.144149
-0.140164
-0.136134
-0.132096
-0.128059
-0.124031
-0.120016
-0.116021
-0.112053
-0.108119
-0.104224
-0.100376
-0.0965801
-0.0928413
-0.0891647
-0.0855541
-0.0820126
-0.0785421
-0.0751436
-0.0718202
-0.0685713
-0.0654001
-0.0623024
-0.0592794
-0.0563366
-0.0534634
-0.0506647
-0.0479415
-0.0452874
-0.0427016
-0.0401867
-0.0377717
-0.0354256
-0.0331499
-0.0309485
-0.0288237
-0.0267767
-0.0248087
-0.0229207
-0.0211131
-0.0193865
-0.0177408
-0.0161756
-0.0146899
-0.0132826
-0.0119518
-0.0106955
-0.00951136
-0.00839674
-0.00734925
-0.00636528
-0.00544359
-0.00457784
-0.00377331
-0.00301013
-0.00232582
-0.00162893
-0.00112252
-0.000339769
-0.000344508
0.00128272
-0.248832
-0.247794
-0.246972
-0.24588
-0.244742
-0.243474
-0.242108
-0.240634
-0.239057
-0.237375
-0.235589
-0.233696
-0.2317
-0.229573
-0.227385
-0.225076
-0.22266
-0.220138
-0.21751
-0.214778
-0.211942
-0.209004
-0.205966
-0.202832
-0.199604
-0.196287
-0.192884
-0.189401
-0.185842
-0.182213
-0.178519
-0.174767
-0.170963
-0.167114
-0.163223
-0.159298
-0.155345
-0.151371
-0.147385
-0.143416
-0.139381
-0.135375
-0.131377
-0.127394
-0.123433
-0.119495
-0.115588
-0.111716
-0.107885
-0.104099
-0.100364
-0.096681
-0.093056
-0.0894913
-0.085989
-0.0825505
-0.0791755
-0.0758633
-0.0726166
-0.0694316
-0.0663157
-0.063257
-0.060258
-0.0573323
-0.0544646
-0.051661
-0.0489145
-0.0462276
-0.0436003
-0.041037
-0.0385536
-0.0361355
-0.0337833
-0.0315003
-0.0292898
-0.0271544
-0.0250964
-0.0231179
-0.0212207
-0.0194062
-0.0176756
-0.0160292
-0.0144672
-0.0129892
-0.0115941
-0.0102807
-0.00904719
-0.00789152
-0.00681183
-0.00580491
-0.00487008
-0.00400133
-0.00320467
-0.00246052
-0.00180785
-0.00115578
-0.000709967
-7.05913e-06
-0.000112434
0.00137187
-0.248992
-0.24788
-0.247099
-0.246017
-0.244903
-0.243659
-0.24232
-0.240874
-0.239327
-0.237674
-0.235916
-0.23405
-0.23208
-0.230023
-0.227794
-0.225486
-0.223068
-0.220538
-0.217894
-0.215137
-0.212268
-0.209289
-0.206202
-0.203011
-0.19972
-0.196333
-0.192857
-0.189296
-0.185658
-0.181949
-0.178177
-0.174349
-0.170474
-0.166559
-0.162612
-0.158639
-0.154648
-0.150648
-0.146649
-0.142662
-0.138662
-0.134677
-0.130712
-0.126782
-0.122889
-0.119026
-0.115205
-0.111426
-0.107696
-0.104017
-0.100391
-0.0968196
-0.0933056
-0.0898502
-0.0864534
-0.0831154
-0.0798334
-0.0766031
-0.0734284
-0.0703059
-0.0672403
-0.0642166
-0.0612375
-0.0583361
-0.0554726
-0.0526553
-0.0498857
-0.0471649
-0.0444947
-0.04188
-0.0393306
-0.036841
-0.0344124
-0.0320485
-0.0297535
-0.0275309
-0.0253844
-0.0233171
-0.021332
-0.0194315
-0.0176176
-0.0158919
-0.0142552
-0.0127079
-0.0112499
-0.00988036
-0.00859839
-0.00740229
-0.00629078
-0.00526107
-0.00431308
-0.00344103
-0.00265189
-0.00192604
-0.00130439
-0.000695977
-0.000309792
0.00031421
0.000113197
0.00144658
-0.249229
-0.247993
-0.247268
-0.246189
-0.245099
-0.243878
-0.242565
-0.241148
-0.239629
-0.238005
-0.236275
-0.234435
-0.232485
-0.230422
-0.22823
-0.225928
-0.22351
-0.220972
-0.218313
-0.215533
-0.212632
-0.209613
-0.206479
-0.203233
-0.19988
-0.196425
-0.192877
-0.189241
-0.185525
-0.181738
-0.17789
-0.173988
-0.170044
-0.166065
-0.162062
-0.158042
-0.154015
-0.14999
-0.145975
-0.141978
-0.137992
-0.134049
-0.130131
-0.12622
-0.122404
-0.118614
-0.114876
-0.111189
-0.107557
-0.10398
-0.100461
-0.0969969
-0.0935902
-0.0902402
-0.086945
-0.0837035
-0.0805094
-0.0773555
-0.0742497
-0.0711807
-0.0681602
-0.0651788
-0.0622558
-0.0593368
-0.0564697
-0.0536389
-0.0508445
-0.0480885
-0.0453741
-0.0427064
-0.0400927
-0.0375327
-0.0350287
-0.0325853
-0.0302074
-0.0278998
-0.0256671
-0.0235136
-0.0214433
-0.0194595
-0.0175652
-0.0157628
-0.0140539
-0.0124398
-0.010921
-0.00949736
-0.00816854
-0.00693338
-0.00579117
-0.00473944
-0.0037788
-0.0029036
-0.00212194
-0.00141389
-0.000822728
-0.000256731
7.12798e-05
0.000617838
0.000327668
0.00150471
-0.249543
-0.248122
-0.247472
-0.246391
-0.245324
-0.244125
-0.242837
-0.241448
-0.239957
-0.238362
-0.236659
-0.234844
-0.232914
-0.230867
-0.22869
-0.226397
-0.223979
-0.221435
-0.218761
-0.215959
-0.213028
-0.209971
-0.206791
-0.203492
-0.200079
-0.19656
-0.192942
-0.189233
-0.185443
-0.181581
-0.177658
-0.173686
-0.169674
-0.165634
-0.161576
-0.157512
-0.153449
-0.149399
-0.145371
-0.141371
-0.137399
-0.133474
-0.129606
-0.125796
-0.121986
-0.118254
-0.114605
-0.111005
-0.107468
-0.103991
-0.100574
-0.0972133
-0.0939096
-0.0906573
-0.0874571
-0.084306
-0.081199
-0.07811
-0.0750651
-0.0720512
-0.0690891
-0.0661475
-0.0632259
-0.0603219
-0.0574493
-0.0546021
-0.051781
-0.0489888
-0.0462292
-0.0435079
-0.0408313
-0.0382023
-0.0356246
-0.0331037
-0.0306455
-0.0282557
-0.0259401
-0.0237037
-0.0215516
-0.0194881
-0.017517
-0.0156414
-0.0138639
-0.0121861
-0.0106095
-0.00913447
-0.00776122
-0.00648906
-0.00531785
-0.00424543
-0.00327314
-0.00239533
-0.00162142
-0.000930864
-0.00036966
0.000155234
0.000427002
0.000898267
0.000526357
0.00154468
-0.249931
-0.248254
-0.247704
-0.246613
-0.24557
-0.244392
-0.24313
-0.241767
-0.240304
-0.238737
-0.23706
-0.23527
-0.233362
-0.231328
-0.22917
-0.226884
-0.224468
-0.221918
-0.219232
-0.216409
-0.21345
-0.210357
-0.207134
-0.203784
-0.200315
-0.196734
-0.193049
-0.189271
-0.185409
-0.181476
-0.177482
-0.173442
-0.169366
-0.165268
-0.161159
-0.157051
-0.152955
-0.148882
-0.144841
-0.140839
-0.136881
-0.132979
-0.12914
-0.125367
-0.121655
-0.118003
-0.114392
-0.110859
-0.107424
-0.104047
-0.100728
-0.0974633
-0.0942542
-0.0910967
-0.0879841
-0.0849112
-0.081876
-0.078864
-0.0758989
-0.0729531
-0.070003
-0.0670854
-0.0641797
-0.0612831
-0.0584023
-0.0555365
-0.0526873
-0.0498577
-0.0470524
-0.0442775
-0.0415396
-0.0388434
-0.0361942
-0.0335986
-0.0310631
-0.0285947
-0.0261998
-0.0238847
-0.0216551
-0.0195162
-0.0174725
-0.015528
-0.0136858
-0.0119485
-0.0103177
-0.0087946
-0.00737994
-0.0060734
-0.00487543
-0.00378411
-0.00280155
-0.001922
-0.0011563
-0.000483076
4.87372e-05
0.000533951
0.00075188
0.00115063
0.000705454
0.00156549
-0.250396
-0.248375
-0.247955
-0.246848
-0.24583
-0.244673
-0.243434
-0.242097
-0.240662
-0.239122
-0.237473
-0.235707
-0.233819
-0.231804
-0.229661
-0.227384
-0.22497
-0.222416
-0.219719
-0.216877
-0.213892
-0.210766
-0.207501
-0.204105
-0.200582
-0.196942
-0.193195
-0.189351
-0.185422
-0.181421
-0.177361
-0.173256
-0.16912
-0.164967
-0.16081
-0.156662
-0.152534
-0.14844
-0.144387
-0.140385
-0.136441
-0.13256
-0.128756
-0.125021
-0.121358
-0.11778
-0.114281
-0.110852
-0.107463
-0.104152
-0.10091
-0.0977305
-0.0946135
-0.0915518
-0.0885339
-0.0855512
-0.0825902
-0.0796547
-0.0767191
-0.0738085
-0.0709001
-0.0680027
-0.0651077
-0.0622126
-0.0593214
-0.0564353
-0.0535565
-0.0506888
-0.0478378
-0.0450099
-0.0422123
-0.0394512
-0.0367334
-0.0340661
-0.0314572
-0.0289141
-0.0264444
-0.0240552
-0.0217528
-0.0195434
-0.0174321
-0.0154234
-0.0135213
-0.0117287
-0.010048
-0.00848069
-0.00702809
-0.00569025
-0.00446816
-0.00336008
-0.00236891
-0.00148871
-0.000731836
-7.5834e-05
0.000427278
0.00087439
0.0010414
0.00137101
0.000861832
0.0015668
-0.250943
-0.248468
-0.248217
-0.247087
-0.246092
-0.244957
-0.243742
-0.242431
-0.241022
-0.23951
-0.237887
-0.236145
-0.234276
-0.232275
-0.230151
-0.227886
-0.225476
-0.22292
-0.220213
-0.217355
-0.214346
-0.211189
-0.207888
-0.204447
-0.200875
-0.197181
-0.193376
-0.18947
-0.185479
-0.181414
-0.177292
-0.173127
-0.168935
-0.164731
-0.160529
-0.156344
-0.152188
-0.148074
-0.144011
-0.14001
-0.136077
-0.132216
-0.128455
-0.124758
-0.121147
-0.117623
-0.114182
-0.110826
-0.107547
-0.104342
-0.101204
-0.0981232
-0.0950873
-0.0920899
-0.0891276
-0.0861934
-0.0832781
-0.080403
-0.0775249
-0.0746508
-0.0717725
-0.0688911
-0.0660027
-0.0631052
-0.0602013
-0.0572931
-0.0543837
-0.0514776
-0.0485811
-0.0457013
-0.042846
-0.0400228
-0.0372395
-0.0345043
-0.031826
-0.0292128
-0.0266732
-0.0242148
-0.021845
-0.0195703
-0.0173966
-0.0153291
-0.0133721
-0.0115291
-0.00980297
-0.00819567
-0.00670895
-0.00534316
-0.00409984
-0.00297736
-0.00197944
-0.0010998
-0.000352394
0.000286511
0.000761798
0.0011726
0.00129214
0.00155656
0.000993256
0.00154903
-0.25159
-0.248514
-0.248484
-0.24732
-0.246349
-0.245235
-0.244044
-0.242758
-0.241376
-0.239891
-0.238294
-0.236577
-0.234727
-0.232726
-0.230637
-0.228384
-0.225979
-0.223421
-0.220707
-0.217835
-0.214805
-0.211621
-0.208285
-0.204805
-0.201188
-0.197444
-0.193586
-0.189624
-0.185575
-0.181452
-0.177272
-0.173052
-0.168809
-0.164557
-0.160313
-0.156099
-0.151918
-0.147786
-0.143716
-0.139716
-0.135796
-0.13196
-0.128219
-0.124566
-0.121007
-0.11754
-0.114163
-0.110874
-0.107664
-0.104529
-0.101463
-0.0984563
-0.0954995
-0.0925829
-0.0896972
-0.0868324
-0.0839812
-0.0811491
-0.078313
-0.0754701
-0.0726147
-0.0697456
-0.0668601
-0.0639569
-0.061038
-0.0581063
-0.0551655
-0.0522211
-0.0492799
-0.0463498
-0.0434392
-0.0405569
-0.0377116
-0.0349127
-0.0321695
-0.0294912
-0.0268867
-0.0243647
-0.0219329
-0.0195985
-0.0173681
-0.0152471
-0.0132405
-0.0113521
-0.00958537
-0.00794245
-0.00642559
-0.00503535
-0.00377382
-0.00263939
-0.00163661
-0.000758763
-2.13959e-05
0.000600636
0.00104923
0.00142576
0.00150183
0.00170558
0.00109847
0.00151323
-0.252345
-0.248485
-0.248747
-0.247536
-0.246589
-0.245499
-0.24433
-0.24307
-0.241715
-0.240256
-0.238685
-0.236993
-0.235164
-0.233218
-0.231111
-0.228868
-0.226469
-0.223912
-0.221192
-0.218309
-0.215262
-0.212054
-0.208688
-0.205173
-0.201515
-0.197723
-0.193818
-0.189807
-0.185705
-0.18153
-0.177299
-0.17303
-0.16874
-0.164448
-0.160169
-0.155921
-0.151716
-0.14757
-0.143494
-0.139498
-0.13559
-0.131775
-0.128063
-0.124449
-0.120936
-0.117522
-0.114205
-0.110979
-0.107837
-0.104773
-0.101778
-0.0988412
-0.095953
-0.0931023
-0.0902787
-0.0874717
-0.0846736
-0.0818804
-0.0790783
-0.0762611
-0.0734233
-0.0705626
-0.0676766
-0.0647647
-0.061829
-0.0588726
-0.0559002
-0.0529179
-0.0499332
-0.0469547
-0.0439917
-0.0410537
-0.0381506
-0.0352923
-0.032489
-0.0297507
-0.027087
-0.0245068
-0.0220188
-0.0196305
-0.0173489
-0.0151801
-0.0131292
-0.0112006
-0.00939798
-0.00772385
-0.00618083
-0.00476966
-0.00349292
-0.00234895
-0.00134313
-0.0004682
0.000258708
0.000864272
0.00128763
0.00163221
0.00166933
0.00181746
0.00117717
0.00146107
-0.252934
-0.248575
-0.248922
-0.247743
-0.246802
-0.245736
-0.244592
-0.243357
-0.242028
-0.240596
-0.239051
-0.237384
-0.235573
-0.233648
-0.231561
-0.229329
-0.226938
-0.224383
-0.221661
-0.218769
-0.215707
-0.212479
-0.209088
-0.205542
-0.201849
-0.198021
-0.194072
-0.190014
-0.185866
-0.181645
-0.177368
-0.173055
-0.168724
-0.164394
-0.160084
-0.155809
-0.151586
-0.147428
-0.143348
-0.139355
-0.135459
-0.131666
-0.127981
-0.124402
-0.120932
-0.117567
-0.114303
-0.111136
-0.108056
-0.105055
-0.102124
-0.0992508
-0.0964239
-0.0936313
-0.090862
-0.0881045
-0.0853503
-0.0825917
-0.0798176
-0.0770208
-0.0741958
-0.0713394
-0.0684499
-0.0655269
-0.0625727
-0.059591
-0.0565872
-0.0535679
-0.0505415
-0.0475171
-0.0445048
-0.041515
-0.0385582
-0.0356453
-0.0327871
-0.0299942
-0.0272767
-0.0246442
-0.0221056
-0.0196692
-0.0173422
-0.015131
-0.0130412
-0.0110774
-0.00924358
-0.00754255
-0.00597724
-0.00454851
-0.00325941
-0.00210816
-0.00110093
-0.000229857
0.00048643
0.00107618
0.00147612
0.00179143
0.00179458
0.00189264
0.00122989
0.0013947
-0.253318
-0.248795
-0.248994
-0.247932
-0.246979
-0.245938
-0.244817
-0.243609
-0.242306
-0.240901
-0.239383
-0.23774
-0.235955
-0.234048
-0.231979
-0.22976
-0.227378
-0.224827
-0.222104
-0.219207
-0.216135
-0.212891
-0.209479
-0.205907
-0.202184
-0.198322
-0.194336
-0.19024
-0.186052
-0.18179
-0.177473
-0.173122
-0.168756
-0.164395
-0.160057
-0.155761
-0.151522
-0.147355
-0.143272
-0.139284
-0.135401
-0.131627
-0.127967
-0.124422
-0.120991
-0.11767
-0.114456
-0.111341
-0.108316
-0.105372
-0.102497
-0.0996793
-0.0969062
-0.0941646
-0.0914422
-0.0887271
-0.0860094
-0.0832797
-0.0805281
-0.0777466
-0.0749299
-0.0720745
-0.0691786
-0.0662427
-0.063269
-0.0602619
-0.0572273
-0.0541725
-0.0511065
-0.0480391
-0.0449811
-0.0419435
-0.0389376
-0.0359751
-0.0330672
-0.0302251
-0.0274595
-0.0247803
-0.0221971
-0.0197182
-0.0173513
-0.0151031
-0.0129795
-0.0109853
-0.00912484
-0.00740099
-0.00581703
-0.00437388
-0.00307501
-0.00191847
-0.000911208
-4.46324e-05
0.000661192
0.0012361
0.00161482
0.00190387
0.00187847
0.00193241
0.00125788
0.00131665
-0.253723
-0.248976
-0.249015
-0.24807
-0.247112
-0.246094
-0.244998
-0.243816
-0.24254
-0.241161
-0.23967
-0.238048
-0.236246
-0.234397
-0.232353
-0.230149
-0.227778
-0.225235
-0.222514
-0.219615
-0.216536
-0.21328
-0.209852
-0.206259
-0.202512
-0.198623
-0.194606
-0.190478
-0.186256
-0.18196
-0.17761
-0.173228
-0.168832
-0.164445
-0.160085
-0.155771
-0.151519
-0.147346
-0.143262
-0.139281
-0.13541
-0.131654
-0.128019
-0.124504
-0.121108
-0.117828
-0.114658
-0.111589
-0.108613
-0.105718
-0.102893
-0.100123
-0.0973966
-0.0946984
-0.0920157
-0.0893359
-0.086648
-0.0839417
-0.0812072
-0.0784366
-0.0756243
-0.0727667
-0.0698625
-0.0669122
-0.0639186
-0.0608864
-0.0578221
-0.0547338
-0.0516308
-0.0485237
-0.0454237
-0.0423427
-0.0392926
-0.0362855
-0.0333333
-0.0304476
-0.0276395
-0.0249194
-0.022297
-0.0197812
-0.0173798
-0.0150998
-0.0129472
-0.0109272
-0.00904425
-0.00730134
-0.00570204
-0.00424725
-0.00294087
-0.00178071
-0.00077441
8.73555e-05
0.000783251
0.00134462
0.00170475
0.0019709
0.00192274
0.00193886
0.00126298
0.00122962
-0.254119
-0.249146
-0.248975
-0.248144
-0.247191
-0.246192
-0.245124
-0.243968
-0.242719
-0.241367
-0.239904
-0.238316
-0.236615
-0.234708
-0.232677
-0.230489
-0.228131
-0.225597
-0.222882
-0.219983
-0.216902
-0.213639
-0.2102
-0.206592
-0.202827
-0.198916
-0.194875
-0.190721
-0.186473
-0.18215
-0.177774
-0.173366
-0.168947
-0.164539
-0.160161
-0.155834
-0.151574
-0.147396
-0.143315
-0.13934
-0.135481
-0.131743
-0.128131
-0.124644
-0.12128
-0.118035
-0.114903
-0.111875
-0.108941
-0.106089
-0.103306
-0.100578
-0.0978906
-0.0952288
-0.092579
-0.0899278
-0.0872635
-0.0845752
-0.0818531
-0.0790893
-0.076278
-0.0734159
-0.0705017
-0.0675363
-0.0645228
-0.0614664
-0.0583742
-0.0552545
-0.0521176
-0.0489744
-0.0458367
-0.0427169
-0.0396275
-0.0365811
-0.0335899
-0.0306661
-0.0278211
-0.0250656
-0.0224096
-0.0198621
-0.0174313
-0.0151242
-0.0129473
-0.0109057
-0.009004
-0.0072454
-0.00563366
-0.00416964
-0.00285761
-0.00169507
-0.000690337
0.000166701
0.000853606
0.00140313
0.00174767
0.00199461
0.00192974
0.0019146
0.0012474
0.00113636
-0.254468
-0.249313
-0.248859
-0.248144
-0.247205
-0.246223
-0.245181
-0.244054
-0.242832
-0.241508
-0.240071
-0.238505
-0.2368
-0.234946
-0.23294
-0.23077
-0.228427
-0.225905
-0.223199
-0.220305
-0.217225
-0.21396
-0.210515
-0.206898
-0.203121
-0.199195
-0.195137
-0.190965
-0.186697
-0.182354
-0.177958
-0.17353
-0.169094
-0.164671
-0.160282
-0.155945
-0.15168
-0.147501
-0.143423
-0.139456
-0.13561
-0.131889
-0.128297
-0.124834
-0.121499
-0.118285
-0.115187
-0.112194
-0.109297
-0.106481
-0.103733
-0.10104
-0.0983842
-0.095752
-0.0931285
-0.0904998
-0.0878535
-0.0851783
-0.0824645
-0.0797039
-0.076891
-0.0740225
-0.0710972
-0.0681164
-0.0650837
-0.0620045
-0.0588863
-0.0557382
-0.0525707
-0.0493953
-0.0462243
-0.0430705
-0.0399468
-0.0368663
-0.0338417
-0.0308852
-0.0280087
-0.0252231
-0.0225386
-0.0199645
-0.017509
-0.0151795
-0.0129824
-0.0109229
-0.00900586
-0.00723452
-0.00561281
-0.00414153
-0.00282525
-0.00166117
-0.00065817
0.000194629
0.000873894
0.00141363
0.00174596
0.00197767
0.00190233
0.00186266
0.00121354
0.00103949
-0.254718
-0.249472
-0.248658
-0.248054
-0.247141
-0.246174
-0.245159
-0.244061
-0.242869
-0.241573
-0.240164
-0.238624
-0.236948
-0.235116
-0.233131
-0.230982
-0.228657
-0.22615
-0.223456
-0.220571
-0.217497
-0.214235
-0.21079
-0.20717
-0.203387
-0.199453
-0.195385
-0.191201
-0.186921
-0.182565
-0.178156
-0.173716
-0.169269
-0.164836
-0.16044
-0.156099
-0.151832
-0.147655
-0.143582
-0.139624
-0.135789
-0.132084
-0.128512
-0.125071
-0.12176
-0.118574
-0.115504
-0.112541
-0.109673
-0.106887
-0.104169
-0.101503
-0.0988734
-0.0962645
-0.0936612
-0.0910494
-0.0884161
-0.0857497
-0.0830404
-0.0802802
-0.0774636
-0.0745872
-0.0716504
-0.0686546
-0.0656036
-0.0625034
-0.0593619
-0.0561885
-0.0529941
-0.0497907
-0.0465909
-0.0434079
-0.0402551
-0.0371458
-0.0340929
-0.0311092
-0.0282064
-0.0253958
-0.0226878
-0.0200918
-0.0176161
-0.0152681
-0.0130545
-0.0109805
-0.00905113
-0.00726954
-0.00563989
-0.00416285
-0.00284329
-0.00167806
-0.00067654
0.000172913
0.000846286
0.00137863
0.00170244
0.00192315
0.00184365
0.0017863
0.00116393
0.000941414
-0.254796
-0.249606
-0.248366
-0.247857
-0.246983
-0.24603
-0.245044
-0.243977
-0.242815
-0.24155
-0.24017
-0.238657
-0.237001
-0.2352
-0.233242
-0.231115
-0.228811
-0.226323
-0.223644
-0.220773
-0.21771
-0.214456
-0.211016
-0.2074
-0.203618
-0.199683
-0.195613
-0.191424
-0.187138
-0.182777
-0.178362
-0.173917
-0.169465
-0.165028
-0.16063
-0.156289
-0.152024
-0.147851
-0.143785
-0.139836
-0.136014
-0.132324
-0.128769
-0.125347
-0.122058
-0.118894
-0.115848
-0.112909
-0.110066
-0.107304
-0.104609
-0.101964
-0.0993545
-0.096763
-0.0941746
-0.0915745
-0.0889497
-0.0862883
-0.0835805
-0.0808183
-0.0779963
-0.0751114
-0.0721631
-0.069153
-0.0660854
-0.0629664
-0.0598044
-0.0566091
-0.0533917
-0.0501646
-0.0469407
-0.0437336
-0.0405567
-0.0374237
-0.0343479
-0.0313419
-0.0284179
-0.0255872
-0.0228603
-0.0202466
-0.0177548
-0.0153921
-0.0131653
-0.0110798
-0.00914055
-0.00735076
-0.00571474
-0.00423301
-0.0029107
-0.00174429
-0.000743582
0.000103791
0.000773381
0.00130104
0.00162027
0.0018344
0.00175703
0.00168885
0.00110101
0.000844211
-0.254615
-0.249675
-0.247975
-0.247533
-0.24671
-0.245776
-0.244819
-0.243787
-0.242658
-0.241425
-0.240076
-0.23859
-0.23695
-0.235186
-0.233259
-0.23116
-0.228881
-0.226414
-0.223756
-0.220903
-0.217855
-0.214615
-0.211188
-0.207581
-0.203807
-0.199878
-0.195812
-0.191627
-0.187344
-0.182984
-0.17857
-0.174126
-0.169675
-0.165241
-0.160845
-0.156508
-0.152249
-0.148083
-0.144026
-0.140088
-0.136278
-0.132602
-0.129062
-0.125657
-0.122386
-0.119241
-0.116214
-0.113294
-0.11047
-0.107727
-0.105049
-0.10242
-0.0998242
-0.0972449
-0.0946663
-0.0920735
-0.0894533
-0.0867937
-0.0840848
-0.0813188
-0.0784905
-0.0755968
-0.0726374
-0.0696143
-0.0665319
-0.0633968
-0.0602174
-0.0570038
-0.0537676
-0.0505212
-0.0472779
-0.0440515
-0.0408556
-0.037704
-0.0346101
-0.0315868
-0.0286464
-0.0258001
-0.0230586
-0.0204313
-0.0179269
-0.0155528
-0.0133158
-0.0112212
-0.00927422
-0.00747787
-0.00583663
-0.00435087
-0.00302594
-0.00185794
-0.000857
-1.01079e-05
0.000658116
0.00118403
0.00150283
0.00171489
0.00164579
0.00157357
0.00102711
0.000749575
-0.254081
-0.249614
-0.247472
-0.247062
-0.246301
-0.245392
-0.244468
-0.243473
-0.242381
-0.241185
-0.239871
-0.23842
-0.236818
-0.235073
-0.233175
-0.231105
-0.228855
-0.226416
-0.223782
-0.220952
-0.217926
-0.214706
-0.211297
-0.207707
-0.203947
-0.200032
-0.195978
-0.191804
-0.18753
-0.183179
-0.178774
-0.174338
-0.169895
-0.165468
-0.16108
-0.156752
-0.152501
-0.148346
-0.144299
-0.140372
-0.136575
-0.132912
-0.129385
-0.125995
-0.122738
-0.119608
-0.116596
-0.113691
-0.110881
-0.10815
-0.105484
-0.102866
-0.10028
-0.0977078
-0.0951346
-0.0925452
-0.0899262
-0.0872657
-0.0845538
-0.0817828
-0.0789475
-0.0760452
-0.0730757
-0.0700412
-0.0669463
-0.0637978
-0.0606044
-0.0573764
-0.0541254
-0.0508642
-0.0476062
-0.0443652
-0.0411552
-0.0379898
-0.0348827
-0.0318468
-0.0288943
-0.0260366
-0.0232844
-0.0206472
-0.0181335
-0.015751
-0.0135063
-0.0114047
-0.00945164
-0.00764996
-0.00600427
-0.00451477
-0.00318697
-0.00201665
-0.00101413
-0.000165843
0.000503679
0.00103098
0.00135357
0.00156813
0.0015132
0.00144358
0.000944331
0.000658798
-0.253115
-0.249328
-0.246834
-0.246423
-0.24573
-0.244856
-0.24397
-0.243018
-0.241968
-0.240813
-0.239538
-0.238115
-0.23646
-0.234816
-0.232971
-0.230941
-0.228725
-0.226318
-0.223715
-0.220913
-0.217914
-0.214721
-0.211336
-0.20777
-0.204033
-0.200139
-0.196105
-0.191949
-0.187693
-0.183358
-0.178967
-0.174546
-0.170117
-0.165704
-0.161329
-0.157013
-0.152775
-0.148632
-0.144597
-0.140683
-0.136898
-0.133247
-0.129733
-0.126355
-0.12311
-0.119991
-0.116989
-0.114095
-0.111294
-0.108572
-0.105913
-0.103301
-0.100719
-0.09815
-0.0955784
-0.092989
-0.0903684
-0.0877048
-0.0849884
-0.0822116
-0.0793693
-0.076459
-0.0734806
-0.0704366
-0.0673316
-0.0641728
-0.0609688
-0.0577302
-0.0544687
-0.0511971
-0.0479289
-0.044678
-0.0414584
-0.038284
-0.0351681
-0.0321238
-0.0291634
-0.0262982
-0.0235389
-0.0208949
-0.018375
-0.0159865
-0.0137363
-0.0116295
-0.00967165
-0.00786554
-0.00621582
-0.00472255
-0.00339135
-0.00221769
-0.00121197
-0.000360223
0.000313429
0.000845344
0.00117597
0.00139756
0.00136237
0.00130175
0.000854582
0.000572784
-0.251663
-0.248706
-0.246025
-0.245593
-0.244968
-0.244145
-0.243306
-0.242402
-0.241401
-0.240293
-0.239066
-0.237714
-0.236252
-0.234468
-0.232644
-0.230657
-0.228482
-0.226113
-0.223546
-0.220778
-0.217813
-0.214652
-0.2113
-0.207765
-0.204057
-0.200192
-0.196185
-0.192056
-0.187824
-0.183513
-0.179146
-0.174745
-0.170336
-0.165942
-0.161585
-0.157286
-0.153064
-0.148936
-0.144916
-0.141015
-0.137242
-0.133603
-0.130099
-0.126731
-0.123495
-0.120384
-0.11739
-0.114502
-0.111706
-0.108988
-0.106332
-0.103721
-0.10114
-0.0985703
-0.0959969
-0.0934048
-0.0907804
-0.088112
-0.0853901
-0.0826071
-0.0797581
-0.0768407
-0.0738549
-0.0708035
-0.0676911
-0.064525
-0.0613139
-0.0580685
-0.0548005
-0.0515228
-0.0482488
-0.0449925
-0.0417677
-0.0385884
-0.035468
-0.0324194
-0.0294548
-0.0265857
-0.0238224
-0.0211746
-0.0186509
-0.0162586
-0.0140046
-0.0118942
-0.0099325
-0.00812254
-0.00646894
-0.00497161
-0.00363623
-0.00245801
-0.0014473
-0.000589874
9.08333e-05
0.000630627
0.00097346
0.00120649
0.00119621
0.00115068
0.000759513
0.00049207
-0.249706
-0.247639
-0.245002
-0.244549
-0.24399
-0.243235
-0.242455
-0.241609
-0.240664
-0.239611
-0.238436
-0.23712
-0.235627
-0.233922
-0.23217
-0.23024
-0.228115
-0.225793
-0.223268
-0.220541
-0.217616
-0.214496
-0.211183
-0.207686
-0.204016
-0.200187
-0.196215
-0.19212
-0.187921
-0.183641
-0.179303
-0.17493
-0.170548
-0.166178
-0.161843
-0.157565
-0.153363
-0.149252
-0.145248
-0.141361
-0.137601
-0.133973
-0.130479
-0.127119
-0.123889
-0.120784
-0.117794
-0.114908
-0.112113
-0.109395
-0.106738
-0.104126
-0.101541
-0.0989681
-0.0963903
-0.093793
-0.091163
-0.0884887
-0.0857606
-0.0829714
-0.0801163
-0.0771929
-0.0742016
-0.0711449
-0.0680279
-0.0648575
-0.0616428
-0.0583943
-0.0551237
-0.0518439
-0.0485682
-0.0453106
-0.0420848
-0.0389046
-0.0357835
-0.0327342
-0.0297688
-0.0268988
-0.0241345
-0.0214854
-0.0189601
-0.016566
-0.0143097
-0.0121966
-0.0102319
-0.00841841
-0.00676084
-0.00525896
-0.00391843
-0.00273428
-0.00171668
-0.000851296
-0.000160593
0.000390304
0.000749356
0.000998064
0.00101739
0.000992673
0.000660539
0.000416883
-0.247262
-0.246047
-0.243711
-0.243265
-0.242773
-0.242106
-0.241399
-0.240621
-0.239743
-0.238752
-0.237638
-0.236383
-0.234975
-0.233368
-0.231576
-0.229688
-0.227621
-0.225352
-0.222877
-0.220197
-0.217319
-0.214247
-0.210981
-0.207529
-0.203904
-0.20012
-0.196191
-0.192137
-0.187978
-0.183736
-0.179435
-0.175096
-0.170746
-0.166406
-0.162099
-0.157846
-0.153666
-0.149575
-0.145589
-0.141718
-0.13797
-0.134353
-0.130868
-0.127514
-0.124289
-0.121186
-0.118197
-0.11531
-0.112514
-0.109793
-0.107131
-0.104514
-0.101923
-0.0993436
-0.0967589
-0.0941548
-0.0915178
-0.0888368
-0.0861022
-0.0833071
-0.0804466
-0.0775187
-0.0745236
-0.071464
-0.0683449
-0.0651734
-0.0619584
-0.0587102
-0.0554408
-0.0521626
-0.0488891
-0.0456339
-0.0424108
-0.0392334
-0.036115
-0.0330682
-0.0301052
-0.027237
-0.0244742
-0.021826
-0.019301
-0.0169065
-0.0146492
-0.0125343
-0.010567
-0.00875017
-0.00708835
-0.00558127
-0.00423453
-0.003043
-0.00201655
-0.00114093
-0.000437344
0.000127774
0.000506832
0.000775226
0.00082833
0.000829696
0.000558862
0.000347187
-0.244374
-0.243912
-0.242102
-0.24171
-0.241299
-0.240741
-0.240125
-0.239427
-0.238626
-0.237709
-0.236664
-0.235477
-0.234128
-0.232569
-0.230772
-0.228972
-0.226984
-0.224783
-0.222368
-0.219742
-0.216919
-0.213902
-0.21069
-0.207292
-0.20372
-0.199987
-0.196109
-0.192104
-0.187992
-0.183796
-0.179537
-0.17524
-0.170927
-0.166622
-0.162347
-0.158123
-0.153969
-0.149901
-0.145934
-0.142079
-0.138346
-0.134739
-0.131261
-0.127913
-0.12469
-0.121588
-0.118597
-0.115707
-0.112906
-0.110178
-0.10751
-0.104885
-0.102286
-0.0996974
-0.0971042
-0.0944916
-0.0918468
-0.0891585
-0.0864176
-0.083617
-0.0807522
-0.0778211
-0.0748241
-0.0717639
-0.0686453
-0.0654755
-0.0622632
-0.0590188
-0.0557538
-0.0524808
-0.0492128
-0.0459635
-0.0427465
-0.0395751
-0.0364624
-0.0334211
-0.030463
-0.0275991
-0.0248399
-0.0221945
-0.0196714
-0.0172778
-0.0150205
-0.0129044
-0.0109348
-0.00911453
-0.00744806
-0.00593504
-0.00458091
-0.00338053
-0.00234329
-0.00145521
-0.000735976
-0.000153676
0.00024889
0.000540687
0.00063122
0.000663434
0.000455481
0.000282748
-0.241303
-0.240136
-0.23986
-0.23956
-0.239133
-0.238625
-0.238023
-0.23731
-0.236477
-0.235511
-0.2344
-0.233127
-0.231668
-0.230022
-0.228157
-0.226218
-0.224089
-0.221742
-0.219176
-0.216414
-0.21346
-0.21031
-0.206973
-0.203461
-0.199787
-0.195967
-0.192018
-0.187961
-0.183817
-0.179607
-0.175357
-0.171087
-0.166822
-0.162584
-0.158393
-0.154268
-0.150225
-0.146279
-0.142442
-0.138723
-0.135126
-0.131656
-0.128312
-0.12509
-0.121987
-0.118992
-0.116097
-0.113288
-0.110552
-0.107875
-0.105239
-0.10263
-0.100031
-0.0974279
-0.0948059
-0.0921526
-0.0894569
-0.0867097
-0.0839043
-0.0810363
-0.0781036
-0.0751064
-0.0720476
-0.0689321
-0.0657666
-0.0625599
-0.0593221
-0.0560647
-0.0527998
-0.0495406
-0.0463002
-0.0430921
-0.0399295
-0.0368252
-0.0337918
-0.0308409
-0.0279835
-0.0252296
-0.0225886
-0.0200687
-0.017677
-0.0154203
-0.0133035
-0.0113318
-0.00950792
-0.0078363
-0.00631653
-0.00495385
-0.00374316
-0.00269325
-0.0017906
-0.00105312
-0.000450891
-2.16492e-05
0.000296934
0.000428014
0.000495291
0.000351229
0.000223186
-0.238306
-0.237802
-0.237702
-0.237551
-0.237279
-0.236899
-0.236407
-0.235795
-0.235057
-0.23418
-0.233155
-0.231966
-0.230585
-0.228972
-0.227091
-0.225278
-0.223254
-0.220993
-0.218497
-0.215805
-0.212921
-0.209842
-0.206573
-0.203128
-0.199521
-0.195766
-0.19188
-0.187884
-0.183798
-0.179644
-0.175446
-0.171225
-0.167005
-0.162808
-0.158653
-0.15456
-0.150545
-0.146622
-0.142804
-0.139099
-0.135513
-0.132049
-0.128708
-0.125487
-0.122381
-0.119381
-0.116478
-0.11366
-0.110914
-0.108225
-0.105578
-0.102956
-0.100346
-0.0977317
-0.0950996
-0.0924373
-0.0897341
-0.0869811
-0.0841717
-0.0813015
-0.0783684
-0.0753729
-0.0723175
-0.0692071
-0.0660483
-0.0628497
-0.0596212
-0.056374
-0.05312
-0.0498721
-0.0466433
-0.0434466
-0.0402952
-0.0372017
-0.0341783
-0.0312365
-0.0283872
-0.0256403
-0.0230049
-0.0204893
-0.0181004
-0.0158449
-0.0137277
-0.011754
-0.00992628
-0.00824899
-0.0067217
-0.00534936
-0.004127
-0.00306267
-0.00214353
-0.00138546
-0.00076081
-0.000302104
4.62702e-05
0.000220478
0.000326447
0.000246805
0.000168032
-0.235038
-0.235131
-0.235247
-0.235281
-0.235185
-0.23495
-0.234583
-0.234084
-0.233449
-0.232671
-0.23174
-0.230643
-0.229362
-0.227892
-0.226237
-0.224288
-0.222314
-0.220137
-0.217714
-0.215095
-0.212288
-0.209285
-0.206091
-0.20272
-0.199186
-0.195502
-0.191687
-0.187758
-0.183736
-0.179643
-0.175502
-0.171335
-0.167164
-0.163011
-0.158896
-0.154838
-0.150852
-0.146955
-0.143157
-0.139467
-0.135893
-0.132436
-0.129098
-0.125876
-0.122766
-0.119759
-0.116848
-0.114019
-0.111261
-0.108559
-0.105899
-0.103265
-0.100642
-0.0980156
-0.0953731
-0.0927018
-0.0899913
-0.0872329
-0.0844202
-0.0815488
-0.0786168
-0.0756245
-0.0725743
-0.069471
-0.066321
-0.0631327
-0.0599158
-0.0566811
-0.0534404
-0.0502062
-0.0469912
-0.0438082
-0.0406701
-0.0375893
-0.0345778
-0.0316469
-0.0288072
-0.0260686
-0.02344
-0.0209295
-0.0185442
-0.0162904
-0.0141731
-0.0121973
-0.0103656
-0.00868217
-0.00714663
-0.0057636
-0.00452834
-0.00344802
-0.00251062
-0.00172988
-0.0010806
-0.000590035
-0.000209245
1.01605e-05
0.000157866
0.00014277
0.000116763
-0.231643
-0.23221
-0.232557
-0.232805
-0.232902
-0.232827
-0.232596
-0.232216
-0.23169
-0.231014
-0.230179
-0.229175
-0.227984
-0.226581
-0.224913
-0.222998
-0.221189
-0.219139
-0.216811
-0.21428
-0.211561
-0.208642
-0.20553
-0.20224
-0.198785
-0.195179
-0.191439
-0.187583
-0.183631