/*--------------------------------*- C++ -*----------------------------------*\
  =========                 |
  \\      /  F ield         | OpenFOAM: The Open Source CFD Toolbox
   \\    /   O peration     | Website:  https://openfoam.org
    \\  /    A nd           | Version:  7
     \\/     M anipulation  |
\*---------------------------------------------------------------------------*/
FoamFile
{
    version     2.0;
    format      ascii;
    class       surfaceScalarField;
    location    "60";
    object      phi;
}
// * * * * * * * * * * * * * * * * * * * * * * * * * * * * * * * * * * * * * //

dimensions      [0 3 -1 0 0 0 0];

internalField   nonuniform List<scalar> 
11835
(
-0.000552891
4.08275e-05
-0.000587311
4.23635e-05
-0.000622735
4.44148e-05
-0.000659733
4.7109e-05
5.06833e-05
-0.000699116
-0.000544155
7.35654e-05
-0.000577263
7.54722e-05
-0.000611168
7.83193e-05
-0.000646436
8.23773e-05
8.8136e-05
-0.000683889
-0.000527112
-0.000557674
0.000106034
-0.000588621
0.000109267
-0.000620515
0.000114271
0.000121807
-0.000654186
-0.000528656
0.000132841
-0.000555236
0.000135846
-0.000582127
0.000141162
0.000149824
-0.000610144
-0.000490356
0.000154732
-0.000511193
0.000156683
-0.000531485
0.000161455
0.000170283
-0.000551943
-0.000442914
0.00017059
-0.000456685
0.000170454
-0.000468829
0.000173599
0.000181239
-0.000479785
-0.000386424
0.000179352
-0.000391857
0.000175888
-0.000394376
0.000176118
0.000180735
-0.000393872
-0.000320876
0.000179984
-0.000316747
0.000171758
-0.000308241
0.000167612
0.000166894
-0.0002944
-0.000246101
0.00017145
-0.000231196
0.000156853
-0.000210295
0.00014671
0.000138205
-0.000181605
-0.000161718
0.000152653
-0.00013482
0.000129955
-9.97246e-05
0.000111615
9.474e-05
-5.62599e-05
-6.70384e-05
-2.742e-05
9.03366e-05
2.50346e-05
5.91603e-05
3.42928e-05
8.54818e-05
9.3504e-05
3.5717e-05
0.000161123
-8.45851e-06
-4.93095e-05
0.000244725
0.000228333
-3.58185e-05
0.000314167
-9.42923e-05
-0.000156305
0.000421162
0.000378509
-0.000126414
0.000484892
-0.000200676
-0.000288418
0.000617006
0.000545444
0.000674814
-0.000330045
-0.000447659
0.000834055
0.000885135
-0.000485015
-0.000636021
0.0010735
0.00111629
-0.00066808
-0.000855088
0.00133535
0.00136754
-0.00110546
0.00161792
-0.00138606
0.00191721
-0.00169346
0.00222669
0.00253723
-0.000722801
4.27675e-05
-0.000741684
3.99783e-05
-0.00075942
4.04913e-05
-0.00077502
3.96724e-05
-0.000788991
3.88453e-05
-0.000801365
3.74398e-05
-0.000812268
3.54271e-05
-0.000821777
3.26866e-05
-0.000829962
2.91336e-05
-0.000836878
2.47021e-05
-0.000842573
1.93561e-05
-0.00084708
1.30887e-05
-0.000850435
5.88796e-06
-0.000852654
-2.19174e-06
-0.00085384
-1.08372e-05
-0.000853987
-2.01909e-05
-0.00085311
-3.00995e-05
-0.000851221
-4.04098e-05
-0.000848332
-5.09439e-05
-0.000844452
-6.15044e-05
-0.000839589
-7.18771e-05
-0.000833749
-8.18373e-05
-0.000826939
-9.11539e-05
-0.000819164
-9.95933e-05
-0.000810426
-0.000106927
-0.000800729
-0.000112935
-0.000790077
-0.000117412
-0.000778472
-0.000120178
-0.000765917
-0.000121073
-0.000752414
-0.00011997
-0.000737967
-0.000116778
-0.000722581
-0.000111446
-0.00070626
-0.000103961
-0.000689017
-9.4365e-05
-0.000670863
-8.2732e-05
-0.000651813
-6.91797e-05
-0.000631871
-5.38765e-05
-0.000611066
-3.70274e-05
-0.000589423
-1.88811e-05
-0.000566918
2.43366e-07
-0.000543621
2.01925e-05
-0.000519556
4.05482e-05
-0.00049474
6.09441e-05
-0.000469202
8.10319e-05
-0.000442975
0.000100467
-0.000416095
0.000118874
-0.000388591
0.000135901
-0.000360497
0.000151228
-0.000331845
0.000164544
-0.000302665
0.000175572
-0.000272989
0.000184064
-0.000242849
0.000189834
-0.000212277
0.000192723
-0.000181303
0.000192606
-0.000149963
0.000189459
-0.000118286
0.000183247
-8.63129e-05
0.000174017
-5.40832e-05
0.000161892
-2.16404e-05
0.000146985
1.09771e-05
0.000129485
4.371e-05
0.000109644
7.65106e-05
8.77265e-05
0.000109331
6.40002e-05
0.000142122
3.87904e-05
0.000174812
1.24851e-05
0.000207339
-1.45797e-05
0.000239666
-4.20764e-05
0.000271736
-6.9618e-05
0.000303503
-9.68389e-05
0.000334923
-0.000123388
0.00036595
-0.000148938
0.000396556
-0.000173161
0.000426717
-0.00019576
0.000456417
-0.000216465
0.000485649
-0.000235036
0.000514411
-0.000251265
0.000542712
-0.000264971
0.000570565
-0.000276012
0.00059799
-0.000284275
0.000625012
-0.000289683
0.000651659
-0.000292194
0.000677961
-0.000291798
0.000703947
-0.000288516
0.000729648
-0.000282404
0.000755092
-0.000273545
0.000780302
-0.000262052
0.0008053
-0.000248063
0.000830103
-0.000231742
0.000854721
-0.000213269
0.000879162
-0.000192851
0.000903426
-0.000170695
0.000927516
-0.000147041
0.000951419
-0.000122093
0.00097514
-9.61237e-05
0.000998657
-6.92822e-05
0.00102197
-4.18934e-05
0.0010451
-1.39277e-05
0.00106791
1.42233e-05
0.00109081
4.2424e-05
7.54242e-05
-0.000707194
6.60723e-05
-0.000725606
5.83907e-05
-0.000742963
5.78482e-05
-0.000758217
5.49259e-05
-0.000771868
5.24969e-05
-0.000783952
4.95237e-05
-0.000794589
4.60634e-05
-0.000803856
4.19544e-05
-0.000811823
3.71003e-05
-0.000818544
3.14232e-05
-0.000824065
2.48767e-05
-0.000828421
1.74452e-05
-0.000831663
9.1296e-06
-0.00083375
-1.04508e-07
-0.000834847
-9.74019e-06
-0.00083493
-2.01082e-05
-0.000834012
-3.10178e-05
-0.000832105
-4.23165e-05
-0.000829221
-5.38278e-05
-0.00082537
-6.53555e-05
-0.00082056
-7.66872e-05
-0.000814798
-8.75995e-05
-0.000808089
-9.78624e-05
-0.000800439
-0.000107244
-0.00079185
-0.000115515
-0.000782325
-0.00012246
-0.000771866
-0.000127871
-0.000760474
-0.00013157
-0.000748148
-0.000133398
-0.000734889
-0.000133229
-0.000720696
-0.000130971
-0.00070557
-0.000126572
-0.000689512
-0.000120019
-0.000672527
-0.00011135
-0.000654621
-0.000100639
-0.000635799
-8.80011e-05
-0.000616068
-7.36076e-05
-0.000595436
-5.76593e-05
-0.000573924
-4.03935e-05
-0.000551581
-2.20993e-05
-0.000528268
-3.1205e-06
-0.000504193
1.64732e-05
-0.000479291
3.60418e-05
-0.000453596
5.53366e-05
-0.000427139
7.40097e-05
-0.000399948
9.16832e-05
-0.000372051
0.000108005
-0.000343482
0.000122658
-0.000314273
0.000135335
-0.000284457
0.000145756
-0.000254068
0.000153674
-0.000223143
0.000158909
-0.000191722
0.000161302
-0.000159843
0.000160727
-0.000127553
0.000157169
-9.48919e-05
0.000150586
-6.1907e-05
0.000141033
-2.86551e-05
0.000128641
4.82135e-06
0.000113509
3.84064e-05
9.59004e-05
7.20984e-05
7.59523e-05
0.000105811
5.40141e-05
0.000139479
3.03318e-05
0.000173064
5.206e-06
0.000206406
-2.08569e-05
0.000239523
-4.76972e-05
0.000272325
-7.48781e-05
0.000304749
-0.000102042
0.000336739
-0.000128829
0.000368245
-0.000154894
0.00039922
-0.000179912
0.000429628
-0.00020357
0.000459446
-0.000225578
0.000488658
-0.000245677
0.000517259
-0.000263636
0.000545251
-0.000279256
0.000572647
-0.000292368
0.00059947
-0.000302835
0.000625748
-0.000310553
0.000651517
-0.000315452
0.000676815
-0.000317493
0.000701687
-0.00031667
0.000726177
-0.000313006
0.00075033
-0.000306557
0.00077419
-0.000297404
0.000797797
-0.000285659
0.000821189
-0.000271454
0.000844399
-0.000254952
0.000867455
-0.000236325
0.000890381
-0.000215777
0.000913194
-0.000193508
0.000935912
-0.000169759
0.000958539
-0.00014472
0.000981094
-0.000118679
0.00100357
-9.17604e-05
0.00102599
-6.43132e-05
0.00104839
-3.63289e-05
0.00107066
-8.04533e-06
0.00109329
1.97971e-05
5.33858e-05
-0.000676815
8.87014e-05
-0.000694362
7.59372e-05
-0.000711032
7.45187e-05
-0.000725657
6.95502e-05
-0.000738721
6.55618e-05
-0.000750264
6.10664e-05
-0.000760395
5.6194e-05
-0.000769192
5.07517e-05
-0.000776721
4.46294e-05
-0.000783035
3.77376e-05
-0.000788178
3.00194e-05
-0.000792184
2.14507e-05
-0.000795087
1.20331e-05
-0.000796916
1.72468e-06
-0.000797724
-8.93254e-06
-0.000797562
-2.027e-05
-0.000796429
-3.21512e-05
-0.000794335
-4.44107e-05
-0.000791291
-5.68716e-05
-0.000787308
-6.93387e-05
-0.000782393
-8.16014e-05
-0.000776555
-9.34376e-05
-0.000769799
-0.000104619
-0.000762129
-0.000114914
-0.000753548
-0.000124096
-0.000744057
-0.000131951
-0.000733659
-0.00013827
-0.000722351
-0.000142878
-0.000710132
-0.000145618
-0.000696999
-0.000146363
-0.000682948
-0.000145022
-0.000667977
-0.000141543
-0.000652082
-0.000135914
-0.000635262
-0.00012817
-0.000617516
-0.000118384
-0.000598847
-0.000106671
-0.000579251
-9.32031e-05
-0.000558733
-7.81773e-05
-0.000537296
-6.18302e-05
-0.00051496
-4.44359e-05
-0.000491794
-2.62865e-05
-0.000467595
-7.72529e-06
-0.000442598
1.1044e-05
-0.000416729
2.94682e-05
-0.000390047
4.73277e-05
-0.000362557
6.41936e-05
-0.000334293
7.97408e-05
-0.000305282
9.36475e-05
-0.000275563
0.000105616
-0.000245167
0.000115361
-0.000214131
0.000122639
-0.0001825
0.000127277
-0.000150318
0.000129121
-0.000117633
0.000128041
-8.44992e-05
0.000124036
-5.09681e-05
0.000117055
-1.70794e-05
0.000107144
1.70484e-05
9.45128e-05
5.13554e-05
7.92015e-05
8.58036e-05
6.14522e-05
0.000120311
4.14445e-05
0.000154787
1.95386e-05
0.00018917
-4.05111e-06
0.000223288
-2.89125e-05
0.000257187
-5.47556e-05
0.000290729
-8.12398e-05
0.000323847
-0.000107996
0.000356467
-0.000134662
0.000388526
-0.000160888
0.000419966
-0.000186335
0.000450739
-0.000210685
0.000480805
-0.000233636
0.000510139
-0.000254912
0.000538725
-0.000274263
0.000566559
-0.00029147
0.000593648
-0.000306345
0.00062001
-0.00031873
0.000645675
-0.000328499
0.000670678
-0.000335556
0.000695065
-0.000339839
0.000718887
-0.000341315
0.0007422
-0.000339983
0.000765063
-0.000335869
0.000787535
-0.000329029
0.000809675
-0.000319544
0.000831541
-0.000307524
0.000853185
-0.000293099
0.000874659
-0.000276426
0.000896007
-0.000257672
0.00091727
-0.00023704
0.00093848
-0.000214718
0.000959673
-0.000190951
0.000980869
-0.000165915
0.0010021
-0.000139911
0.00102338
-0.000113043
0.00104475
-8.56793e-05
0.00106627
-5.78466e-05
0.00108783
-2.96095e-05
0.00111001
-2.38333e-06
3.15526e-05
-0.000631811
0.000110368
-0.000648125
9.22521e-05
-0.00066382
9.02129e-05
-0.000677549
8.32796e-05
-0.000689775
7.77879e-05
-0.000700541
7.18319e-05
-0.000709941
6.55946e-05
-0.000718054
5.88643e-05
-0.00072494
5.15158e-05
-0.000730651
4.34479e-05
-0.000735225
3.45937e-05
-0.000738695
2.49212e-05
-0.000741091
1.44291e-05
-0.000742463
3.09652e-06
-0.00074283
-8.56592e-06
-0.000742261
-2.08391e-05
-0.000740752
-3.36596e-05
-0.000738314
-4.68486e-05
-0.000734958
-6.02277e-05
-0.000730694
-7.36029e-05
-0.000725531
-8.6765e-05
-0.000719475
-9.94933e-05
-0.000712533
-0.000111561
-0.000704709
-0.000122738
-0.000696005
-0.0001328
-0.000686421
-0.000141534
-0.00067596
-0.000148731
-0.000664618
-0.00015422
-0.000652391
-0.000157844
-0.000639274
-0.000159479
-0.000625261
-0.000159034
-0.000610346
-0.000156459
-0.00059452
-0.00015174
-0.000577778
-0.000144912
-0.000560113
-0.000136048
-0.000541524
-0.00012526
-0.000522
-0.000112727
-0.000501539
-9.86381e-05
-0.000480141
-8.32284e-05
-0.000457811
-6.67664e-05
-0.000434551
-4.95459e-05
-0.000410422
-3.18546e-05
-0.000385304
-1.40737e-05
-0.000359233
3.39696e-06
-0.00033235
2.0445e-05
-0.000304581
3.64242e-05
-0.00027599
5.11493e-05
-0.000246586
6.42444e-05
-0.000216418
7.5447e-05
-0.000185515
8.44579e-05
-0.000153918
9.10417e-05
-0.000121675
9.50342e-05
-8.8839e-05
9.62851e-05
-5.54572e-05
9.46592e-05
-2.15897e-05
9.01682e-05
1.26788e-05
8.27868e-05
4.72613e-05
7.25613e-05
8.2109e-05
5.96651e-05
0.000117147
4.41633e-05
0.000152277
2.63226e-05
0.000187464
6.25748e-06
0.000222498
-1.54951e-05
0.000257351
-3.89048e-05
0.000291954
-6.35153e-05
0.000326206
-8.90078e-05
0.000360011
-0.000115045
0.000393283
-0.000141268
0.000425943
-0.000167322
0.00045792
-0.000192864
0.000489151
-0.000217566
0.000519583
-0.000241117
0.000549176
-0.000263228
0.0005779
-0.000283636
0.00060574
-0.000302103
0.000632694
-0.000318424
0.000658772
-0.000332423
0.000683996
-0.000343955
0.000708401
-0.000352904
0.000732032
-0.000359187
0.000754942
-0.000362749
0.000777194
-0.000363567
0.000798854
-0.000361643
0.000819994
-0.000357009
0.000840688
-0.000349722
0.000861009
-0.000339865
0.00088103
-0.000327545
0.00090082
-0.00031289
0.000920448
-0.000296053
0.000939973
-0.000277197
0.000959454
-0.000256521
0.000978939
-0.000234203
0.00099848
-0.000210492
0.00101811
-0.000185548
0.00103789
-0.000159686
0.00105784
-0.000132993
0.001078
-0.000105847
0.00109849
-7.83342e-05
0.00111919
-5.03104e-05
0.00114075
-2.39413e-05
1.00783e-05
-0.00057236
0.000130785
-0.00058713
0.000107022
-0.000601584
0.000104666
-0.00061418
9.58758e-05
-0.000625341
8.89491e-05
-0.000635117
8.1608e-05
-0.000643587
7.40646e-05
-0.000650824
6.61011e-05
-0.000656884
5.75765e-05
-0.000661815
4.83789e-05
-0.000665653
3.84312e-05
-0.000668426
2.76944e-05
-0.000670165
1.61681e-05
-0.000670901
3.83254e-06
-0.000670693
-8.77389e-06
-0.000669575
-2.1957e-05
-0.000667552
-3.56832e-05
-0.000664634
-4.97669e-05
-0.000660832
-6.40294e-05
-0.000656157
-7.82778e-05
-0.000650618
-9.23044e-05
-0.000644221
-0.00010589
-0.000636973
-0.000118809
-0.000628877
-0.000130834
-0.000619936
-0.000141741
-0.000610149
-0.000151322
-0.000599517
-0.000159362
-0.000588037
-0.0001657
-0.000575702
-0.000170179
-0.000562506
-0.000172676
-0.000548439
-0.000173101
-0.000533493
-0.000171405
-0.000517655
-0.000167578
-0.000500916
-0.000161651
-0.000483264
-0.0001537
-0.000464694
-0.00014383
-0.00044519
-0.000132232
-0.000424741
-0.000119087
-0.000403344
-0.000104626
-0.000380995
-8.91151e-05
-0.000357694
-7.28468e-05
-0.000333426
-5.6123e-05
-0.00030825
-3.92496e-05
-0.000282168
-2.26851e-05
-0.000255006
-6.71652e-06
-0.000227001
8.41881e-06
-0.00019814
2.22887e-05
-0.000168402
3.45066e-05
-0.000137862
4.4907e-05
-0.000106544
5.3139e-05
-7.44847e-05
5.89829e-05
-4.17329e-05
6.22824e-05
-8.33251e-06
6.28847e-05
2.55761e-05
6.07506e-05
5.99782e-05
5.5766e-05
9.47988e-05
4.79663e-05
0.000129995
3.73651e-05
0.000165405
2.42547e-05
0.000201021
8.54751e-06
0.000236678
-9.334e-06
0.00027222
-2.92849e-05
0.000307695
-5.09697e-05
0.000342911
-7.41214e-05
0.000377791
-9.83952e-05
0.000412232
-0.000123449
0.000446133
-0.000148945
0.0004794
-0.000174535
0.000511947
-0.000199869
0.000543697
-0.000224615
0.000574583
-0.000248452
0.000604548
-0.000271082
0.000633548
-0.000292228
0.000661553
-0.000311641
0.000688548
-0.000329098
0.000714531
-0.000344407
0.000739514
-0.000357406
0.000763524
-0.000367964
0.000786599
-0.000375979
0.000808792
-0.000381379
0.000830163
-0.000384121
0.000850785
-0.000384188
0.000870733
-0.000381592
0.000890092
-0.000376368
0.000908948
-0.000368578
0.000927388
-0.000358305
0.0009455
-0.000345657
0.000963368
-0.000330758
0.000981076
-0.000313761
0.000998699
-0.000294821
0.00101631
-0.000274135
0.00103398
-0.000251873
0.00105177
-0.000228284
0.00106974
-0.000203515
0.00108795
-0.000177893
0.00110645
-0.000151493
0.00112529
-0.00012469
0.00114462
-9.76594e-05
0.00116431
-7.00027e-05
0.00118507
-4.47005e-05
-1.08792e-05
-0.000498638
0.000149637
-0.000511639
0.000120024
-0.000524618
0.000117645
-0.00053588
0.000107138
-0.000545786
9.88546e-05
-0.000554394
9.0216e-05
-0.000561765
8.14357e-05
-0.000567966
7.2302e-05
-0.000573049
6.26595e-05
-0.000577055
5.23852e-05
-0.000580017
4.13924e-05
-0.000581957
2.96351e-05
-0.000582904
1.71153e-05
-0.000582886
3.81377e-06
-0.000581981
-9.67829e-06
-0.000580197
-2.37407e-05
-0.000577544
-3.83362e-05
-0.000574035
-5.32768e-05
-0.000569679
-6.83849e-05
-0.000564488
-8.34687e-05
-0.000558471
-9.8322e-05
-0.000551633
-0.000112727
-0.000543982
-0.00012646
-0.000535521
-0.000139295
-0.000526252
-0.00015101
-0.000516171
-0.000161403
-0.000505283
-0.00017025
-0.000493582
-0.000177402
-0.000481059
-0.000182702
-0.000467707
-0.000186028
-0.000453514
-0.000187294
-0.000438468
-0.000186451
-0.000422555
-0.000183491
-0.000405761
-0.000178445
-0.00038807
-0.000171391
-0.000369474
-0.000162426
-0.000349951
-0.000151755
-0.000329485
-0.000139552
-0.000308066
-0.000126044
-0.000285686
-0.000111495
-0.000262339
-9.61943e-05
-0.000238011
-8.04509e-05
-0.00021272
-6.45408e-05
-0.000186461
-4.89434e-05
-0.000159302
-3.38754e-05
-0.000131158
-1.97258e-05
-0.000102023
-6.84639e-06
-7.20146e-05
4.49839e-06
-4.12018e-05
1.40942e-05
-9.55797e-06
2.14951e-05
2.28431e-05
2.65819e-05
5.59522e-05
2.91732e-05
8.97047e-05
2.91322e-05
0.000124034
2.64218e-05
0.000158857
2.0943e-05
0.000194088
1.27348e-05
0.000229747
1.70573e-06
0.000265543
-1.15414e-05
0.000301432
-2.73408e-05
0.000337394
-4.52958e-05
0.000373271
-6.51624e-05
0.000408964
-8.66626e-05
0.000444353
-0.000109511
0.00047933
-0.000133372
0.000513788
-0.000157906
0.000547619
-0.000182776
0.000580723
-0.000207639
0.000613009
-0.000232156
0.000644395
-0.000256
0.000674809
-0.000278865
0.000704191
-0.000300463
0.000732494
-0.000320532
0.000759688
-0.000338835
0.000785756
-0.000355166
0.000810698
-0.000369348
0.000834526
-0.000381235
0.000857271
-0.000390709
0.000878975
-0.000397683
0.000899695
-0.000402099
0.000919499
-0.000403925
0.000938465
-0.000403154
0.000956681
-0.000399807
0.000974238
-0.000393925
0.000991235
-0.000385575
0.00100777
-0.000374842
0.00102395
-0.000361834
0.00103986
-0.000346674
0.00105562
-0.000329513
0.0010713
-0.000310502
0.001087
-0.000289834
0.0011028
-0.000267671
0.00111877
-0.000244263
0.001135
-0.000219746
0.00115156
-0.000194451
0.00116852
-0.000168453
0.00118594
-0.000142106
0.00120399
-0.000115708
0.00122254
-8.85569e-05
0.00124234
-6.44949e-05
-3.11627e-05
-0.000410753
0.000166517
-0.000421917
0.000131187
-0.000433213
0.000128942
-0.000442992
0.000116917
-0.000451498
0.000107361
-0.000458803
9.75213e-05
-0.00046495
8.75824e-05
-0.000469996
7.73484e-05
-0.000473988
6.66516e-05
-0.000476962
5.53592e-05
-0.000478944
4.33743e-05
-0.000479953
3.06437e-05
-0.000480007
1.717e-05
-0.00047915
2.95602e-06
-0.00047746
-1.1368e-05
-0.000474925
-2.62756e-05
-0.00047156
-4.17012e-05
-0.000467378
-5.74587e-05
-0.000462391
-7.33719e-05
-0.000456609
-8.92508e-05
-0.00045004
-0.000104891
-0.000442692
-0.000120075
-0.00043457
-0.000134582
-0.000425677
-0.000148188
-0.000416016
-0.000160672
-0.000405579
-0.00017184
-0.000394374
-0.000181454
-0.000382394
-0.000189382
-0.000369628
-0.000195467
-0.000356068
-0.000199588
-0.0003417
-0.000201662
-0.00032651
-0.000201641
-0.000310481
-0.00019952
-0.000293594
-0.000195332
-0.000275831
-0.000189154
-0.000257184
-0.000181074
-0.000237623
-0.000171315
-0.000217129
-0.000160047
-0.000195686
-0.000147487
-0.000173281
-0.0001339
-0.000149901
-0.000119574
-0.000125532
-0.00010482
-0.000100202
-8.98706e-05
-7.3883e-05
-7.52627e-05
-4.65712e-05
-6.11872e-05
-1.83031e-05
-4.79939e-05
1.08837e-05
-3.60332e-05
4.09759e-05
-2.55938e-05
7.19916e-05
-1.69214e-05
0.000103836
-1.0349e-05
0.000136464
-6.04608e-06
0.00016982
-4.18261e-06
0.000203824
-4.87187e-06
0.000238407
-8.16156e-06
0.000273488
-1.41376e-05
0.000308981
-2.27583e-05
0.000344695
-3.40083e-05
0.000380726
-4.75726e-05
0.000416839
-6.34538e-05
0.000452934
-8.13909e-05
0.000488909
-0.000101137
0.000524644
-0.000122397
0.000560016
-0.000144884
0.00059491
-0.000168266
0.000629212
-0.000192207
0.000662809
-0.000216373
0.000695596
-0.000240427
0.000727478
-0.000264037
0.000758367
-0.00028689
0.00078819
-0.000308687
0.000816882
-0.000329156
0.000844398
-0.000348047
0.000870702
-0.00036514
0.00089578
-0.000380244
0.000919629
-0.000393197
0.000942265
-0.000403871
0.000963718
-0.000412163
0.000984036
-0.000418001
0.00100328
-0.000421341
0.00102152
-0.000422164
0.00103884
-0.000420475
0.00105533
-0.000416302
0.0010711
-0.000409697
0.00108626
-0.000400731
0.00110091
-0.000389491
0.00111516
-0.00037609
0.00112914
-0.000360648
0.00114294
-0.000343316
0.00115668
-0.000324238
0.00117045
-0.000303609
0.00118436
-0.000281579
0.0011985
-0.000258402
0.00121295
-0.0002342
0.00122781
-0.000209309
0.00124317
-0.000183812
0.00125908
-0.000158019
0.00127576
-0.00013239
0.00129307
-0.000105866
0.00131175
-8.31751e-05
-5.06202e-05
-0.000308678
0.000180796
-0.000318193
0.000140702
-0.000327607
0.000138356
-0.00033582
0.000125129
-0.000342843
0.000114384
-0.000348767
0.000103445
-0.000353617
9.24329e-05
-0.000357442
8.11726e-05
-0.000360279
6.94889e-05
-0.00036216
5.72399e-05
-0.000363104
4.43187e-05
-0.000363124
3.06638e-05
-0.000362251
1.62963e-05
-0.000360469
1.17478e-06
-0.000357961
-1.38759e-05
-0.000354629
-2.96082e-05
-0.000350505
-4.58247e-05
-0.000345607
-6.2357e-05
-0.000339946
-7.90329e-05
-0.000333532
-9.56648e-05
-0.000326373
-0.000112049
-0.000318477
-0.000127972
-0.000309848
-0.000143211
-0.000300489
-0.000157546
-0.000290403
-0.000170758
-0.000279579
-0.000182664
-0.000268028
-0.000193005
-0.00025574
-0.00020167
-0.000242705
-0.000208502
-0.000228913
-0.000213381
-0.000214348
-0.000216226
-0.000198996
-0.000216993
-0.000182836
-0.000215679
-0.000165846
-0.000212321
-0.000148004
-0.000206997
-0.000129304
-0.000199773
-0.000109714
-0.000190905
-8.92052e-05
-0.000180556
-6.77613e-05
-0.000168931
-4.5368e-05
-0.000156293
-2.20171e-05
-0.000142925
2.27841e-06
-0.000129116
2.77163e-05
-0.000115309
5.40765e-05
-0.000101623
8.14057e-05
-8.85164e-05
0.000109698
-7.62859e-05
0.00013894
-6.52759e-05
0.000169094
-5.57476e-05
0.000200149
-4.79766e-05
0.000232046
-4.22455e-05
0.000264726
-3.8726e-05
0.000298127
-3.7584e-05
0.000332187
-3.89314e-05
0.000366837
-4.28113e-05
0.000401982
-4.92827e-05
0.000437527
-5.83034e-05
0.000473331
-6.98129e-05
0.000509348
-8.35893e-05
0.00054544
-9.95458e-05
0.000581483
-0.000117434
0.000617357
-0.000137011
0.000652942
-0.000157982
0.000688111
-0.000180053
0.000722741
-0.000202896
0.000756714
-0.000226181
0.000789914
-0.000249574
0.000822233
-0.000272745
0.00085357
-0.000295375
0.000883837
-0.000317157
0.000912956
-0.000337806
0.000940862
-0.000357063
0.000967507
-0.000374692
0.000992857
-0.00039049
0.00101689
-0.00040428
0.00103962
-0.00041592
0.00106104
-0.000425295
0.0010812
-0.00043232
0.00110014
-0.00043694
0.00111792
-0.000439124
0.00113462
-0.000438867
0.00115033
-0.000436186
0.00116515
-0.000431122
0.00117919
-0.000423733
0.00119255
-0.000414097
0.00120537
-0.000402306
0.00121776
-0.000388476
0.00122984
-0.000372727
0.00124173
-0.000355211
0.00125356
-0.000336066
0.00126544
-0.000315487
0.00127748
-0.000293617
0.00128978
-0.000270708
0.00130246
-0.000246877
0.0013156
-0.000222452
0.00132933
-0.00019754
0.00134369
-0.000172384
0.00135894
-0.000147639
0.00137492
-0.000121848
0.00139236
-0.000100615
-6.91123e-05
-0.000192148
0.000191339
-0.000200626
0.00014918
-0.000207937
0.000145667
-0.000214585
0.000131777
-0.000220123
0.000119923
-0.000224658
0.00010798
-0.000228208
9.59825e-05
-0.000230806
8.37707e-05
-0.000232484
7.1167e-05
-0.000233267
5.80229e-05
-0.000233169
4.42204e-05
-0.000232191
2.96856e-05
-0.000230337
1.44426e-05
-0.000227734
-1.42788e-06
-0.000224358
-1.72524e-05
-0.000220216
-3.37495e-05
-0.000215329
-5.0712e-05
-0.000209711
-6.79755e-05
-0.000203373
-8.53711e-05
-0.000196325
-0.000102713
-0.000188575
-0.000119799
-0.00018013
-0.000136417
-0.000170994
-0.000152346
-0.000161173
-0.000167367
-0.000150664
-0.000181267
-0.000139455
-0.000193873
-0.000127561
-0.000204899
-0.00011497
-0.000214261
-0.000101673
-0.0002218
-8.76569e-05
-0.000227397
-7.29091e-05
-0.000230974
-5.74125e-05
-0.00023249
-4.11492e-05
-0.000231943
-2.41005e-05
-0.00022937
-6.26439e-06
-0.000224833
1.25029e-05
-0.00021854
3.21601e-05
-0.000210563
5.26961e-05
-0.000201092
7.41422e-05
-0.000190377
9.65224e-05
-0.000178674
0.000119858
-0.00016626
0.000144171
-0.000153429
0.000169433
-0.000140571
0.000195688
-0.000127878
0.000222924
-0.000115752
0.000251131
-0.000104493
0.000280288
-9.44327e-05
0.000310369
-8.58282e-05
0.000341345
-7.89526e-05
0.00037316
-7.40613e-05
0.000405761
-7.13267e-05
0.000439082
-7.09049e-05
0.000473051
-7.29005e-05
0.000507594
-7.73543e-05
0.000542616
-8.43049e-05
0.000578018
-9.37053e-05
0.000613678
-0.000105473
0.00064951
-0.00011942
0.000685381
-0.000135417
0.00072117
-0.000153223
0.000756748
-0.00017259
0.000791992
-0.000193226
0.00082677
-0.000214831
0.000860957
-0.000237083
0.000894431
-0.000259654
0.000927074
-0.000282216
0.000958774
-0.000304446
0.00098943
-0.000326031
0.00101895
-0.000346679
0.00104726
-0.000366115
0.00107429
-0.000384093
0.00109999
-0.000400393
0.00112433
-0.000414828
0.00114729
-0.000427237
0.00116886
-0.000437494
0.00118907
-0.000445501
0.00120794
-0.000451192
0.00122553
-0.000454526
0.00124189
-0.000455487
0.00125711
-0.000454086
0.00127128
-0.000450353
0.00128449
-0.000444339
0.00129687
-0.000436111
0.00130853
-0.000425756
0.0013196
-0.000413372
0.0013302
-0.000399078
0.00134047
-0.000382996
0.00135053
-0.000365278
0.00136053
-0.000346059
0.00137057
-0.000325535
0.0013808
-0.00030384
0.00139132
-0.000281226
0.00140225
-0.000257807
0.00141369
-0.000233896
0.00142579
-0.000209641
0.00143859
-0.000185185
0.00145237
-0.000161419
0.00146698
-0.000136453
0.00148308
-0.000116719
-8.65181e-05
-6.0205e-05
0.000195284
-6.94428e-05
0.000158418
-7.40897e-05
0.000150314
-7.9379e-05
0.000137066
-8.35243e-05
0.000124068
-8.67544e-05
0.00011121
-8.90796e-05
9.83077e-05
-9.05236e-05
8.52146e-05
-9.11089e-05
7.17524e-05
-9.08557e-05
5.77696e-05
-8.9773e-05
4.31377e-05
-8.78519e-05
2.77644e-05
-8.50899e-05
1.16806e-05
-8.1665e-05
-4.85279e-06
-7.74843e-05
-2.14331e-05
-7.25769e-05
-3.86569e-05
-6.69656e-05
-5.63233e-05
-6.0665e-05
-7.42761e-05
-5.36871e-05
-9.2349e-05
-4.60416e-05
-0.000110358
-3.77365e-05
-0.000128104
-2.87781e-05
-0.000145375
-1.91697e-05
-0.000161955
-8.9129e-06
-0.000177624
1.99813e-06
-0.000192178
1.34821e-05
-0.000205357
2.56619e-05
-0.000217079
3.85159e-05
-0.000227115
5.20403e-05
-0.000235324
6.62473e-05
-0.000241604
8.11538e-05
-0.00024588
9.67792e-05
-0.000248115
0.000113146
-0.000248309
0.000130279
-0.000246503
0.00014821
-0.000242764
0.000166943
-0.000237274
0.000186515
-0.000230135
0.00020696
-0.000221537
0.000228302
-0.000211719
0.000250562
-0.000200934
0.000273762
-0.00018946
0.000297922
-0.000177589
0.000323029
-0.000165678
0.000349113
-0.000153963
0.000376167
-0.000142806
0.000404183
-0.00013251
0.000433139
-0.000123388
0.000463011
-0.000115701
0.000493767
-0.000109708
0.000525354
-0.000105648
0.000557716
-0.000103689
0.000590788
-0.000103977
0.000624494
-0.000106607
0.000658756
-0.000111616
0.000693475
-0.000119024
0.000728549
-0.000128779
0.00076386
-0.000140785
0.000799308
-0.000154868
0.000834763
-0.000170872
0.0008701
-0.00018856
0.000905189
-0.000207678
0.0009399
-0.000227937
0.000974102
-0.000249034
0.00100767
-0.00027065
0.00104047
-0.00029246
0.0010724
-0.000314142
0.00110334
-0.000335381
0.00113318
-0.000355874
0.00116184
-0.000375337
0.00118923
-0.00039351
0.0012153
-0.00041016
0.00123999
-0.000425082
0.00126327
-0.000438103
0.00128511
-0.000449081
0.00130552
-0.000457905
0.00132452
-0.000464496
0.00134213
-0.000468802
0.0013584
-0.000470799
0.0013734
-0.000470488
0.00138721
-0.000467893
0.00139991
-0.000463058
0.00141162
-0.000456045
0.00142244
-0.000446934
0.0014325
-0.000435818
0.00144193
-0.000422803
0.00145086
-0.000408012
0.00145944
-0.000391569
0.00146779
-0.000373628
0.00147605
-0.000354325
0.00148437
-0.000333851
0.00149287
-0.000312339
0.00150168
-0.000290035
0.00151093
-0.000267058
0.00152073
-0.000243695
0.00153124
-0.000220149
0.00154249
-0.000196443
0.0015548
-0.000173725
0.00156801
-0.00014966
0.00158271
-0.000131423
-0.000102741
8.48173e-05
0.000195948
7.6699e-05
0.000166536
7.3695e-05
0.000153318
6.97836e-05
0.000140978
6.68279e-05
0.000127024
6.47182e-05
0.00011332
6.34378e-05
9.95881e-05
6.29793e-05
8.56731e-05
6.3329e-05
7.14027e-05
6.44702e-05
5.66284e-05
6.63978e-05
4.12101e-05
6.91277e-05
2.50346e-05
7.26636e-05
8.14468e-06
7.67953e-05
-8.98448e-06
8.16662e-05
-2.6304e-05
8.72276e-05
-4.42183e-05
9.34564e-05
-6.25521e-05
0.000100337
-8.11566e-05
0.000107857
-9.9869e-05
0.000116007
-0.000118508
0.000124778
-0.000136875
0.000134164
-0.000154761
0.00014416
-0.000171951
0.000154763
-0.000188227
0.000165971
-0.000203387
0.000177802
-0.000217187
0.00019024
-0.000229517
0.000203296
-0.000240171
0.000216983
-0.000249012
0.000231315
-0.000255936
0.000246309
-0.000260874
0.000261985
-0.000263791
0.000278365
-0.00026469
0.000295477
-0.000263615
0.00031335
-0.000260637
0.000331999
-0.000255922
0.000351457
-0.000249593
0.000371758
-0.000241839
0.000392929
-0.000232889
0.000414993
-0.000222998
0.000437973
-0.00021244
0.000461891
-0.000201506
0.000486741
-0.000190528
0.000512548
-0.000179769
0.000539306
-0.000169564
0.000567009
-0.000160212
0.000595635
-0.000152015
0.000625162
-0.000145227
0.000655553
-0.0001401
0.000686758
-0.000136853
0.000718721
-0.000135652
0.000751373
-0.000136629
0.000784639
-0.000139873
0.000818435
-0.000145412
0.000852664
-0.000153253
0.00088722
-0.000163335
0.000921987
-0.000175552
0.000956856
-0.000189738
0.000991699
-0.000205715
0.00102639
-0.00022325
0.0010608
-0.000242084
0.00109479
-0.000261928
0.00112823
-0.000282478
0.001161
-0.00030342
0.00119297
-0.000324432
0.00122403
-0.000345197
0.00125406
-0.000365409
0.00128295
-0.000384773
0.00131063
-0.000403017
0.00133702
-0.000419893
0.00136204
-0.000435182
0.00138565
-0.000448694
0.00140782
-0.000460271
0.00142852
-0.000469787
0.00144777
-0.000477147
0.00146556
-0.000482289
0.00148194
-0.000485178
0.00149694
-0.000485806
0.00151065
-0.00048419
0.00152312
-0.000480367
0.00153446
-0.000474395
0.00154476
-0.00046635
0.00155415
-0.00045632
0.00156274
-0.000444411
0.00157067
-0.000430732
0.00157807
-0.000415415
0.00158509
-0.000398585
0.00159186
-0.000380402
0.00159854
-0.000360998
0.00160525
-0.000340566
0.00161215
-0.000319236
0.00161936
-0.000297248
0.00162703
-0.000274729
0.00163527
-0.000251933
0.00164425
-0.000229133
0.00165402
-0.000206209
0.00166488
-0.000184582
0.0016767
-0.000161483
0.00168998
-0.000144703
-0.000117715
0.000244024
0.000196649
0.000238532
0.000172029
0.000235822
0.000156027
0.000233128
0.000143672
0.000231006
0.000129145
0.000229679
0.000114648
0.00022913
0.000100137
0.000229367
8.54362e-05
0.000230384
7.03853e-05
0.000232169
5.48435e-05
0.000234718
3.86618e-05
0.00023804
2.17117e-05
0.000242172
4.01303e-06
0.00024684
-1.36529e-05
0.00025224
-3.17037e-05
0.000258309
-5.02872e-05
0.00026502
-6.92631e-05
0.000272354
-8.84906e-05
0.000280296
-0.000107811
0.000288836
-0.000127047
0.000297962
-0.000146002
0.000307667
-0.000164467
0.000317946
-0.00018223
0.000328795
-0.000199075