/*--------------------------------*- C++ -*----------------------------------*\
  =========                 |
  \\      /  F ield         | OpenFOAM: The Open Source CFD Toolbox
   \\    /   O peration     | Website:  https://openfoam.org
    \\  /    A nd           | Version:  7
     \\/     M anipulation  |
\*---------------------------------------------------------------------------*/
FoamFile
{
    version     2.0;
    format      ascii;
    class       volVectorField;
    location    "30";
    object      U;
}
// * * * * * * * * * * * * * * * * * * * * * * * * * * * * * * * * * * * * * //

dimensions      [0 1 -1 0 0 0 0];

internalField   nonuniform List<vector> 
10880
(
(-0.00106242 0.00164453 -5.57395e-20)
(-0.00433242 0.00353703 2.33416e-21)
(-0.00954503 0.00443856 -6.53195e-20)
(-0.0152981 0.00465669 -3.7034e-20)
(-0.020719 0.00439582 2.32779e-20)
(-0.0253719 0.00379503 -3.98508e-21)
(-0.0289879 0.00295461 2.5902e-20)
(-0.0313925 0.00194721 -5.03361e-21)
(-0.0324842 0.000825204 -4.2977e-20)
(-0.0322136 -0.000373076 1.14176e-19)
(-0.0305664 -0.00161819 1.48796e-20)
(-0.027554 -0.0028852 -2.52416e-20)
(-0.0232089 -0.00414937 -5.09799e-20)
(-0.0175857 -0.00538209 5.28502e-21)
(-0.0107666 -0.00654642 4.92389e-20)
(-0.00287214 -0.00759302 -4.30171e-20)
(0.00592691 -0.00845802 6.45893e-20)
(0.0154142 -0.00906093 -4.9952e-20)
(0.0253107 -0.00928863 -5.31962e-20)
(0.0350462 -0.0089858 6.41572e-20)
(-0.00157566 0.00468913 -1.15215e-19)
(-0.0051368 0.0100402 1.41566e-19)
(-0.00988584 0.0125524 2.37566e-20)
(-0.0146502 0.0131042 8.99351e-20)
(-0.0187029 0.0122816 9.75716e-20)
(-0.0216922 0.010486 -2.00517e-19)
(-0.0234087 0.00800732 -5.63318e-20)
(-0.0237226 0.00505578 4.76989e-20)
(-0.0225658 0.00178284 -2.09076e-19)
(-0.0199132 -0.00170088 8.75646e-21)
(-0.0157695 -0.00531089 2.15256e-19)
(-0.0101604 -0.00897608 -2.81617e-20)
(-0.00313014 -0.0126269 -4.19569e-20)
(0.00525831 -0.0161831 -1.1383e-21)
(0.0149162 -0.0195403 4.65005e-20)
(0.0257137 -0.0225571 1.21675e-19)
(0.0374646 -0.0250455 4.20494e-20)
(0.0499677 -0.026755 -2.43079e-21)
(0.0630463 -0.0273124 -2.23356e-19)
(0.0758756 -0.0262428 -1.49295e-19)
(-0.00244751 0.00704014 -6.14898e-20)
(-0.00638662 0.0149178 6.88366e-20)
(-0.0100968 0.0184888 -8.31421e-20)
(-0.0128286 0.0190789 -1.76475e-19)
(-0.0141263 0.0175795 1.68311e-19)
(-0.0137954 0.0146099 1.87521e-19)
(-0.0117394 0.0106186 6.33051e-20)
(-0.00791423 0.00593094 -9.35308e-20)
(-0.00231559 0.000781419 -9.7015e-21)
(0.00503282 -0.00465914 1.28995e-19)
(0.0140887 -0.0102614 -1.1486e-19)
(0.0247958 -0.0159184 9.09935e-20)
(0.0370846 -0.0215285 -3.69268e-20)
(0.0508711 -0.0269752 3.28921e-19)
(0.0660492 -0.0321057 -4.82393e-19)
(0.0824668 -0.0367079 -1.23223e-19)
(0.099902 -0.0404863 4.43065e-19)
(0.118163 -0.043004 -3.99024e-19)
(0.137265 -0.0435326 -3.20761e-21)
(0.155973 -0.0412243 -7.44373e-20)
(-0.00339502 0.00835773 3.66706e-20)
(-0.0074146 0.0173587 3.49573e-19)
(-0.00928984 0.0211511 -3.98673e-19)
(-0.00882839 0.0213312 9.87586e-20)
(-0.00593565 0.0189854 -1.23703e-20)
(-0.000630532 0.0148837 3.85459e-20)
(0.00702825 0.00958704 2.36066e-19)
(0.016965 0.0035018 -2.70644e-19)
(0.0290923 -0.00307869 -7.58033e-21)
(0.0433149 -0.00994108 -4.62423e-19)
(0.059532 -0.0169257 -5.06033e-20)
(0.0776371 -0.0239045 6.13139e-20)
(0.0975163 -0.0307596 2.45695e-19)
(0.119046 -0.0373601 -1.37044e-19)
(0.142082 -0.043534 4.22656e-19)
(0.166433 -0.0490362 -6.06527e-19)
(0.19181 -0.0535054 7.28261e-19)
(0.217998 -0.0563273 -5.03329e-19)
(0.245251 -0.056296 3.14451e-19)
(0.271947 -0.0520378 1.6112e-19)
(-0.00405022 0.00845464 1.20307e-19)
(-0.00733144 0.0169027 4.62494e-20)
(-0.00625568 0.019914 2.48843e-19)
(-0.00125446 0.0191579 -1.44279e-19)
(0.0073546 0.0157866 -6.63885e-20)
(0.0193038 0.0106424 5.55686e-19)
(0.0343487 0.00434148 -8.75909e-19)
(0.0522667 -0.00266993 7.04529e-19)
(0.0728534 -0.0100699 3.22677e-19)
(0.0959172 -0.0176248 -6.85946e-19)
(0.121274 -0.0251619 1.76646e-19)
(0.148741 -0.0325468 7.11329e-20)
(0.178133 -0.0396622 7.78571e-19)
(0.209256 -0.0463854 -8.46985e-19)
(0.2419 -0.052558 -2.50302e-19)
(0.275803 -0.0579515 6.50114e-19)
(0.310582 -0.0622116 -5.39627e-19)
(0.345929 -0.0646215 3.67832e-19)
(0.382327 -0.063429 3.18379e-19)
(0.417991 -0.0564699 -1.08812e-18)
(-0.00400611 0.00730706 -3.80099e-19)
(-0.00512517 0.0134848 1.2072e-19)
(0.000415174 0.0147073 -1.6933e-19)
(0.0115494 0.0125229 4.90217e-22)
(0.0275319 0.00801837 4.61012e-19)
(0.0478281 0.00202503 -8.97689e-19)
(0.0719877 -0.0048466 8.03741e-19)
(0.0996168 -0.0121579 -7.2263e-19)
(0.130368 -0.0195934 7.39837e-19)
(0.163923 -0.0269255 -6.4837e-19)
(0.199982 -0.0339884 3.57667e-19)
(0.238251 -0.040658 -8.68969e-19)
(0.278433 -0.046834 1.08694e-18)
(0.320225 -0.0524207 8.88479e-20)
(0.363307 -0.0573022 -2.76069e-19)
(0.407311 -0.0613147 -5.35083e-19)
(0.451732 -0.0642002 -2.91463e-20)
(0.496115 -0.0652886 5.94556e-19)
(0.541091 -0.0623663 2.92436e-19)
(0.585098 -0.0522314 -6.33719e-19)
(-0.00285385 0.00503917 -1.24141e-19)
(0.000244513 0.00742492 -5.50131e-20)
(0.0121979 0.00602963 -8.46408e-20)
(0.0313344 0.00210297 4.48698e-20)
(0.0564893 -0.00345882 -6.13208e-19)
(0.0868544 -0.00991815 1.17434e-18)
(0.121756 -0.0167342 -1.40304e-20)
(0.160605 -0.0235269 -4.2646e-20)
(0.202877 -0.0300276 -4.20955e-19)
(0.248092 -0.0360471 -8.0375e-20)
(0.295788 -0.0414532 -1.25909e-19)
(0.345516 -0.0461543 -7.08733e-19)
(0.396818 -0.0500851 6.70758e-19)
(0.449232 -0.0531927 -5.82788e-19)
(0.50228 -0.0554197 3.49042e-19)
(0.555446 -0.0566927 -3.03587e-19)
(0.60809 -0.0569051 5.57689e-19)
(0.659597 -0.0555725 -4.12144e-19)
(0.710644 -0.0502943 1.48038e-19)
(0.760414 -0.0371028 7.52483e-19)
(-0.000204954 0.00189467 1.46691e-19)
(0.00976704 -0.000619789 -1.43735e-20)
(0.0304909 -0.00509487 -2.4284e-19)
(0.0597404 -0.010743 3.28817e-20)
(0.0959533 -0.0169793 5.21117e-19)
(0.138044 -0.0232412 -1.00471e-18)
(0.185096 -0.0291236 5.84502e-19)
(0.236295 -0.0343612 -3.15001e-20)
(0.290901 -0.0387816 4.26606e-19)
(0.348223 -0.0422773 -4.74776e-19)
(0.407598 -0.0447889 3.87201e-19)
(0.46837 -0.0462919 -1.01698e-18)
(0.52989 -0.0467847 -5.63613e-19)
(0.591507 -0.0462773 1.1681e-18)
(0.652572 -0.0447802 -4.67703e-19)
(0.712418 -0.0423025 -3.00789e-19)
(0.770307 -0.0388437 4.07722e-19)
(0.825534 -0.034075 8.81938e-19)
(0.878493 -0.0260225 -5.29079e-19)
(0.929203 -0.0122698 -1.42819e-19)
(0.00428947 -0.00178748 2.98876e-19)
(0.0243009 -0.00970465 -2.85594e-19)
(0.0564601 -0.0171862 -2.29213e-19)
(0.0980517 -0.0240682 -6.52815e-19)
(0.147146 -0.0301927 5.71886e-19)
(0.202373 -0.0352556 7.94386e-19)
(0.262551 -0.0390585 -4.00738e-19)
(0.326602 -0.041517 4.66517e-19)
(0.393526 -0.0426162 -1.63881e-19)
(0.462383 -0.0423898 4.99563e-20)
(0.532266 -0.0409085 8.22477e-19)
(0.602302 -0.0382698 -1.11707e-18)
(0.671652 -0.0345882 -3.98908e-20)
(0.739523 -0.0299834 2.28737e-19)
(0.805182 -0.0245704 8.3702e-20)
(0.867979 -0.0184451 -8.47008e-20)
(0.927389 -0.0116259 2.42681e-19)
(0.983086 -0.00391001 -1.33654e-19)
(1.03473 0.0046906 -7.5119e-19)
(1.08127 0.0114638 6.82118e-19)
(0.0109195 -0.00558346 2.34852e-19)
(0.0444829 -0.0186461 7.69703e-20)
(0.0908586 -0.028409 -2.31908e-19)
(0.146927 -0.0354913 2.71975e-19)
(0.210428 -0.0402802 -6.18392e-19)
(0.279698 -0.0428173 1.30889e-18)
(0.353262 -0.04319 -8.91163e-19)
(0.429745 -0.0415689 -4.84313e-19)
(0.507857 -0.0381681 1.28102e-18)
(0.586378 -0.0332294 -1.00908e-18)
(0.664156 -0.0270174 1.23732e-18)
(0.740109 -0.0198122 -1.51259e-18)
(0.813247 -0.0119015 5.08734e-19)
(0.882685 -0.00357221 5.95769e-19)
(0.947671 0.00489454 -5.13133e-19)
(1.00761 0.0132328 -1.04304e-20)
(1.06208 0.021223 -7.9381e-20)
(1.11089 0.0286525 -5.85943e-19)
(1.15362 0.0346374 4.27034e-19)
(1.18944 0.0373205 -1.18449e-19)
(0.0198804 -0.00899354 -3.1185e-19)
(0.0706221 -0.0260752 1.17715e-19)
(0.133849 -0.0366911 -5.25555e-21)
(0.206158 -0.0424009 -4.6444e-19)
(0.285005 -0.0442539 6.23647e-19)
(0.368441 -0.0427283 -8.56088e-19)
(0.454688 -0.0382794 7.83947e-20)
(0.542069 -0.0314077 2.50511e-19)
(0.629017 -0.0226204 -3.44842e-19)
(0.714075 -0.0124192 6.3554e-19)
(0.795915 -0.00129607 1.75062e-19)
(0.87336 0.0102752 7.26735e-20)
(0.94541 0.0218503 -7.21295e-19)
(1.01126 0.0330249 7.31175e-19)
(1.07034 0.0434442 -3.90802e-19)
(1.12227 0.0528136 2.88126e-19)
(1.16692 0.0609167 -6.03278e-19)
(1.20434 0.0675627 -3.41045e-19)
(1.23442 0.0722265 4.05271e-19)
(1.25672 0.0746022 1.05234e-19)
(0.0312231 -0.0114506 -3.03929e-19)
(0.102576 -0.0305041 4.19335e-19)
(0.184833 -0.0398795 8.82371e-20)
(0.274474 -0.0422134 -7.67634e-20)
(0.368757 -0.0393216 2.07572e-19)
(0.465482 -0.0322068 5.10695e-19)
(0.562608 -0.0217671 -2.63667e-19)
(0.658219 -0.00889306 -1.98351e-19)
(0.750562 0.00557373 -5.17256e-19)
(0.838084 0.0208556 4.54147e-19)
(0.919461 0.0362447 -2.38967e-19)
(0.993637 0.0511148 1.01403e-20)
(1.05984 0.0649346 1.10442e-18)
(1.11762 0.0772784 -7.71051e-19)
(1.16681 0.0878329 6.79279e-19)
(1.20751 0.0964016 -7.01134e-20)
(1.2401 0.102908 9.52598e-20)
(1.26508 0.107344 -2.21183e-19)
(1.28292 0.109575 -7.67393e-20)
(1.29395 0.110017 -4.0318e-19)
(0.0447985 -0.0123482 1.74863e-19)
(0.13964 -0.0304352 1.12252e-19)
(0.242337 -0.0359405 -7.28293e-20)
(0.349477 -0.0326627 -9.71428e-19)
(0.458257 -0.0232552 2.93595e-19)
(0.566323 -0.00930887 -7.10538e-20)
(0.671486 0.00779088 -3.97708e-20)
(0.771746 0.0267451 -5.10062e-20)
(0.865364 0.0463925 8.35843e-20)
(0.950922 0.0657281 -6.15242e-19)
(1.02737 0.0839119 3.27871e-19)
(1.09405 0.100278 -5.00522e-19)
(1.15069 0.114342 6.47081e-20)
(1.19742 0.1258 -2.63633e-19)
(1.23466 0.134523 -9.73747e-20)
(1.26312 0.140535 5.00106e-19)
(1.2837 0.143999 -5.38059e-19)
(1.29738 0.14515 8.23773e-20)
(1.30502 0.144179 2.11357e-19)
(1.30732 0.141841 -2.24191e-19)
(0.0602142 -0.0110932 2.70771e-19)
(0.180489 -0.0245155 -4.20524e-20)
(0.304001 -0.0231997 -3.46713e-19)
(0.427729 -0.0121035 -4.76622e-20)
(0.549012 0.00527486 6.0881e-19)
(0.665521 0.0267472 -2.53555e-19)
(0.775131 0.0504588 2.3938e-19)
(0.876006 0.074759 -2.67825e-19)
(0.966702 0.0982622 1.26541e-19)
(1.04624 0.119868 -1.20552e-19)
(1.11413 0.138763 5.35088e-19)
(1.17037 0.154411 -3.29154e-19)
(1.21539 0.166541 -3.66981e-20)
(1.25 0.175121 -4.28699e-20)
(1.27528 0.180314 7.11578e-20)
(1.29246 0.182437 -1.08864e-19)
(1.30285 0.181912 2.44928e-19)
(1.30769 0.17919 7.42132e-21)
(1.30805 0.174687 -3.64898e-19)
(1.3047 0.169234 -1.10808e-19)
(0.076818 -0.00718092 -2.10743e-19)
(0.223192 -0.0117233 1.66948e-19)
(0.366688 -0.000594327 5.85972e-20)
(0.505005 0.0202157 -7.40958e-20)
(0.635891 0.0464556 -2.00688e-20)
(0.757308 0.0754187 8.54749e-20)
(0.867485 0.104893 -6.72588e-20)
(0.965065 0.133028 2.90612e-19)
(1.04922 0.158403 -2.00548e-19)
(1.11968 0.180027 9.5821e-20)
(1.17677 0.197319 -2.15626e-19)
(1.22128 0.210063 2.0845e-19)
(1.2544 0.218353 8.45207e-20)
(1.27758 0.222527 -2.33092e-19)
(1.29242 0.223092 2.36109e-19)
(1.3005 0.22065 -9.48037e-20)
(1.3033 0.215832 4.1426e-20)
(1.30211 0.209234 3.71402e-20)
(1.29794 0.20139 1.98042e-21)
(1.29143 0.193012 3.71193e-20)
(0.0937206 -0.000279861 -9.70282e-20)
(0.26533 0.00844392 1.61192e-19)
(0.426733 0.0321063 -9.91048e-20)
(0.576688 0.0639608 7.96277e-20)
(0.713672 0.0992226 -1.02213e-19)
(0.836255 0.134859 -1.51247e-20)
(0.943352 0.168521 4.37145e-20)
(1.0344 0.198408 -1.65137e-20)
(1.10945 0.22332 -1.7355e-20)
(1.16917 0.242619 8.6349e-20)
(1.21477 0.256163 -1.2999e-20)
(1.24784 0.264207 -4.69259e-20)
(1.27023 0.2673 9.39305e-20)
(1.28388 0.266173 -7.06304e-20)
(1.29066 0.261643 1.60087e-20)
(1.29228 0.254525 -2.11228e-20)
(1.29016 0.245565 5.92639e-20)
(1.28546 0.235412 -4.65363e-20)
(1.27898 0.224628 -6.71997e-21)
(1.27118 0.213644 -1.10532e-20)
(0.109859 0.0096905 5.63438e-20)
(0.304197 0.035819 -1.71523e-19)
(0.480279 0.0741592 1.0383e-19)
(0.638239 0.117642 -1.59835e-20)
(0.777598 0.161308 2.98312e-20)
(0.897858 0.202108 -5.0367e-20)
(0.998915 0.237872 -3.26196e-20)
(1.08125 0.267166 6.77017e-21)
(1.14595 0.289289 7.85935e-20)
(1.19468 0.304186 -1.11543e-19)
(1.22947 0.312307 1.61204e-20)
(1.2526 0.314455 2.35046e-20)
(1.26636 0.311634 -3.35385e-20)
(1.27293 0.304918 8.88961e-20)
(1.27425 0.295343 -3.08344e-20)
(1.27192 0.283827 2.32605e-20)
(1.26719 0.271132 -4.96417e-20)
(1.26097 0.257888 1.28771e-20)
(1.25382 0.244613 2.0504e-20)
(1.24602 0.231358 1.16514e-20)
(0.124091 0.0225047 1.11443e-19)
(0.337063 0.0694862 9.82653e-20)
(0.523675 0.123819 -3.39872e-20)
(0.685667 0.178687 -1.18824e-19)
(0.823858 0.229433 -6.31242e-20)
(0.938933 0.273397 1.49395e-19)
(1.03198 0.308965 6.0957e-20)
(1.10462 0.335391 -1.21762e-19)
(1.15901 0.352727 4.85792e-20)
(1.19769 0.361661 -4.22012e-22)
(1.22337 0.363306 1.61021e-19)
(1.23876 0.358999 -6.29414e-20)
(1.24637 0.350133 -1.42907e-19)
(1.2484 0.338016 1.64696e-19)
(1.24664 0.323789 -6.67747e-20)
(1.2425 0.308368 9.58359e-20)
(1.23697 0.29245 -3.20577e-20)
(1.2307 0.27659 8.09959e-21)
(1.22401 0.261233 -1.58781e-20)
(1.21709 0.246025 -1.14008e-20)
(0.135316 0.0376116 -1.12983e-19)
(0.361459 0.107792 -2.31079e-19)
(0.553854 0.178433 3.65776e-19)
(0.715922 0.243637 2.02521e-19)
(0.849911 0.299605 -5.86778e-19)
(0.957815 0.344515 3.44813e-19)
(1.04195 0.377676 7.96148e-20)
(1.10507 0.399314 1.33627e-19)
(1.15024 0.410409 -1.07657e-21)
(1.18066 0.412459 -1.02534e-20)
(1.19949 0.407217 -2.63811e-19)
(1.20962 0.396476 1.764e-19)
(1.21354 0.381896 6.06176e-20)
(1.21332 0.3649 -3.11967e-20)
(1.21052 0.346624 -7.75432e-20)
(1.20626 0.327904 9.397e-21)
(1.20129 0.309323 -2.02017e-20)
(1.19602 0.291341 -1.46348e-21)
(1.19055 0.274318 5.51725e-20)
(1.18508 0.257505 -8.50005e-22)
(0.142592 0.0541548 -2.5774e-19)
(0.375446 0.14845 -1.1286e-19)
(0.568641 0.234641 -1.149e-19)
(0.727168 0.308439 2.97223e-19)
(0.854652 0.367465 2.59954e-20)
(0.95435 0.411151 -1.06283e-19)
(1.02971 0.440043 -1.83157e-19)
(1.08439 0.455522 -1.57298e-20)
(1.12213 0.459569 9.69851e-22)
(1.14656 0.454461 2.11037e-19)
(1.16099 0.442502 -2.06612e-19)
(1.16828 0.425807 4.26219e-20)
(1.17075 0.406176 -9.62943e-20)
(1.17021 0.385034 3.6145e-20)
(1.16796 0.36343 8.57999e-22)
(1.16488 0.342071 -4.82497e-20)
(1.16148 0.321406 1.34665e-20)
(1.15798 0.301822 -1.3566e-20)
(1.15432 0.283585 2.30042e-20)
(1.15084 0.26546 -1.36239e-20)
(0.145248 0.071034 1.08385e-19)
(0.377818 0.188718 1.29327e-19)
(0.566967 0.288658 -1.5875e-19)
(0.718913 0.36879 2.24269e-19)
(0.838415 0.428636 5.56944e-20)
(0.929764 0.469214 -2.71559e-19)
(0.997274 0.492491 6.57289e-20)
(1.04524 0.501079 5.74924e-20)
(1.07776 0.497922 7.53729e-20)
(1.09859 0.485971 -4.72429e-20)
(1.11097 0.467932 7.30931e-20)
(1.11758 0.446105 1.76691e-20)
(1.12047 0.422306 1.20186e-20)
(1.12116 0.397874 2.21621e-21)
(1.12068 0.373718 1.16047e-20)
(1.11971 0.350392 1.02938e-20)
(1.11861 0.328218 -6.02345e-21)
(1.11745 0.307517 4.53321e-20)
(1.11607 0.288484 -1.67053e-20)
(1.11505 0.269516 -1.65403e-19)
(0.142961 0.0870013 3.16552e-19)
(0.368239 0.225641 -2.25835e-19)
(0.54896 0.336595 1.04795e-20)
(0.692012 0.420478 -1.80341e-19)
(0.802844 0.479038 -1.61056e-19)
(0.886431 0.515065 2.42348e-19)
(0.947588 0.531993 -2.62763e-20)
(0.990876 0.533607 -8.33409e-21)
(1.02046 0.52368 1.52566e-20)
(1.03997 0.505678 -2.96199e-20)
(1.05241 0.482555 -2.3792e-21)
(1.06016 0.456654 4.02607e-20)
(1.06495 0.42971 -9.83374e-20)
(1.06802 0.402916 1.60393e-19)
(1.07019 0.377016 3.25867e-20)
(1.07197 0.352412 4.39961e-20)
(1.07363 0.329311 -2.24583e-19)
(1.07516 0.307977 -1.09416e-19)
(1.07639 0.288568 5.09961e-19)
(1.07824 0.269281 -1.95492e-19)
(0.13577 0.100757 -2.46671e-20)
(0.347286 0.256307 -2.28052e-20)
(0.515931 0.374764 1.19267e-19)
(0.648534 0.459704 5.50694e-20)
(0.750703 0.515172 1.79764e-20)
(0.827639 0.545717 1.05993e-20)
(0.884226 0.556167 9.97042e-21)
(0.924941 0.551303 7.52698e-20)
(0.953733 0.535534 -5.51668e-20)
(0.973922 0.512648 -1.60344e-20)
(0.988162 0.485684 3.23617e-19)
(0.998465 0.456919 1.74753e-20)
(1.00627 0.427939 2.76074e-19)
(1.01257 0.39976 8.78091e-20)
(1.01799 0.372958 -1.72548e-19)
(1.02295 0.347801 1.53794e-19)
(1.02764 0.324395 7.92151e-20)
(1.03207 0.302916 -3.03312e-19)
(1.03623 0.283507 6.27218e-20)
(1.04128 0.264547 -1.50318e-19)
(0.124184 0.111024 1.00369e-19)
(0.31643 0.278013 -2.78952e-20)
(0.47021 0.399991 1.3738e-20)
(0.591575 0.483325 -1.79641e-19)
(0.68564 0.534273 3.83505e-20)
(0.757312 0.558959 1.4782e-19)
(0.811154 0.563354 -2.702e-19)
(0.851245 0.552989 2.78039e-19)
(0.881091 0.532667 1.76419e-19)
(0.903574 0.506304 1.24835e-19)
(0.920937 0.476885 2.17478e-19)
(0.934841 0.446534 -5.71301e-19)
(0.946455 0.416646 -3.53377e-19)
(0.956561 0.388053 2.2088e-19)
(0.965668 0.361186 1.52743e-19)
(0.974092 0.336213 -2.05866e-19)
(0.982028 0.313151 2.05904e-19)
(0.989625 0.292019 -5.11442e-20)
(0.99717 0.273041 -4.07023e-19)
(1.00553 0.255878 5.50936e-19)
(0.109013 0.116816 2.51078e-20)
(0.277819 0.288668 -1.43772e-19)
(0.414999 0.409829 6.62862e-20)
(0.525016 0.489078 1.24155e-19)
(0.611884 0.534496 1.30714e-19)
(0.679763 0.553431 -4.48535e-19)
(0.732534 0.552647 6.33139e-19)
(0.773629 0.53811 5.91028e-19)
(0.805965 0.514765 -4.73224e-20)
(0.831908 0.486467 -1.88047e-19)
(0.853282 0.456027 7.969e-19)
(0.871425 0.425345 -8.54668e-19)
(0.887272 0.395598 -4.75479e-20)
(0.901459 0.367423 7.86119e-19)
(0.914396 0.341095 -5.28164e-19)
(0.926327 0.316673 -7.12507e-20)
(0.937444 0.294029 9.15147e-20)
(0.948159 0.272766 8.15587e-19)
(0.958947 0.252531 -7.34238e-19)
(0.968025 0.234908 -1.61231e-19)
(0.0913663 0.117355 1.94221e-19)
(0.234216 0.286814 1.61811e-20)
(0.3541 0.402749 -5.04946e-19)
(0.45323 0.475697 7.83006e-21)
(0.534006 0.514978 -3.14853e-19)
(0.599467 0.528671 1.18577e-19)
(0.652552 0.523918 1.61067e-19)
(0.695874 0.506776 -4.06341e-19)
(0.731677 0.482089 5.49414e-19)
(0.761791 0.453489 1.48869e-19)
(0.787637 0.423526 4.18265e-19)
(0.810263 0.393854 -1.43619e-18)
(0.830418 0.365439 5.00722e-19)
(0.848619 0.338763 -1.89306e-19)
(0.865209 0.314001 1.92317e-19)
(0.88041 0.291151 -6.61717e-19)
(0.894429 0.270075 6.73476e-19)
(0.907627 0.250444 -7.78186e-19)
(0.920122 0.231963 4.49369e-19)
(0.930112 0.21561 5.32975e-19)
(0.0725727 0.112223 -5.0507e-19)
(0.188728 0.271777 3.94732e-19)
(0.291638 0.378223 2.56334e-19)
(0.380797 0.44297 6.34156e-20)
(0.456649 0.475846 3.65352e-19)
(0.520862 0.485089 -6.07488e-19)
(0.575275 0.477759 8.83374e-19)
(0.62161 0.459669 -5.08137e-19)
(0.661417 0.435324 3.55801e-19)
(0.696019 0.408003 -9.25588e-19)
(0.726475 0.379932 7.96154e-19)
(0.753602 0.3525 -7.0395e-19)
(0.778006 0.326476 1.17985e-18)
(0.800134 0.302214 -3.07519e-19)
(0.820301 0.279808 -4.86903e-19)
(0.838739 0.259214 -3.95322e-19)
(0.855671 0.240291 -6.11871e-20)
(0.871417 0.22278 9.39157e-19)
(0.886035 0.206485 4.87549e-19)
(0.898171 0.192066 -6.61118e-19)
(0.0540529 0.101389 3.80146e-20)
(0.144577 0.243731 1.03631e-19)
(0.231776 0.336755 1.15616e-19)
(0.312232 0.391735 -3.78116e-19)
(0.384278 0.418196 2.0755e-19)
(0.448124 0.423936 6.0304e-19)
(0.504466 0.415475 -9.84605e-19)
(0.554141 0.398058 4.40187e-19)
(0.598046 0.375653 1.81967e-19)
(0.637046 0.351074 -1.13764e-18)
(0.6719 0.326181 4.13027e-19)
(0.703238 0.302093 -4.48294e-19)
(0.731571 0.279403 1.17112e-18)
(0.757301 0.258359 -7.76952e-19)
(0.780745 0.239001 -2.39923e-19)
(0.80215 0.221263 5.67064e-19)
(0.821761 0.20501 -8.01942e-19)
(0.839873 0.190041 5.56157e-19)
(0.856575 0.176194 5.05995e-19)
(0.870947 0.163838 -1.24461e-18)
(0.0372091 0.0852217 -1.73049e-19)
(0.104874 0.203681 5.77423e-19)
(0.178455 0.279845 -6.37873e-19)
(0.25172 0.323821 -1.75082e-19)
(0.320971 0.344028 -2.8553e-19)
(0.385014 0.347239 6.44874e-20)
(0.443479 0.339016 -3.28371e-20)
(0.496399 0.323754 4.3465e-19)
(0.544102 0.304714 1.08191e-19)
(0.587068 0.284164 -8.65962e-19)
(0.625813 0.263567 -8.90115e-20)
(0.660834 0.243781 3.25224e-19)
(0.692575 0.225241 4.06694e-19)
(0.721418 0.208112 -5.50601e-19)
(0.747688 0.192401 1.09511e-18)
(0.771658 0.178037 -8.16312e-19)
(0.793588 0.164907 9.78459e-19)
(0.813762 0.152857 -8.17889e-19)
(0.832308 0.141754 3.86869e-19)
(0.848687 0.131753 1.99464e-19)
(0.0233168 0.064459 -1.93614e-19)
(0.072397 0.153399 2.11082e-19)
(0.135142 0.209895 6.671e-20)
(0.202897 0.24194 -6.63849e-20)
(0.270222 0.256128 1.21702e-19)
(0.334724 0.257699 -6.10731e-21)
(0.395138 0.2509 4.05253e-20)
(0.45084 0.239042 -5.16824e-19)
(0.501702 0.22455 1.83566e-19)
(0.547906 0.209083 4.80735e-19)
(0.589793 0.193693 -5.92273e-19)
(0.627761 0.178984 2.42979e-19)
(0.662213 0.165252 -2.29777e-19)
(0.693526 0.152599 6.60119e-19)
(0.722036 0.141016 -8.28036e-19)
(0.748038 0.130443 -6.39628e-20)
(0.771807 0.120794 8.13248e-19)
(0.793616 0.111961 -7.48592e-19)
(0.813633 0.103839 -1.33911e-19)
(0.831642 0.0964638 -2.6652e-19)
(0.0134274 0.0401622 -2.38561e-19)
(0.0494084 0.095308 2.3276e-19)
(0.104629 0.130057 -8.6387e-21)
(0.168662 0.149532 -1.03355e-19)
(0.234793 0.157934 2.51287e-19)
(0.299757 0.158572 -5.8464e-20)
(0.361647 0.154109 -1.03393e-19)
(0.419374 0.146602 2.28262e-20)
(0.472493 0.137541 -4.9983e-19)
(0.520985 0.127939 6.50781e-19)
(0.565073 0.11843 1.06357e-19)
(0.605095 0.109371 -2.27005e-19)
(0.641431 0.100933 -7.6003e-21)
(0.674456 0.0931707 2.54807e-19)
(0.704516 0.0860746 4.43074e-20)
(0.731925 0.0796033 1.6301e-19)
(0.756968 0.073703 1.26611e-19)
(0.779907 0.0683106 -3.84454e-19)
(0.800944 0.0633586 9.45709e-20)
(0.820097 0.0588345 -2.25095e-19)
(0.00828848 0.0136405 -1.46989e-19)
(0.0375022 0.0323246 2.61805e-19)
(0.0888706 0.0440509 7.62474e-20)
(0.151029 0.0505834 1.11876e-20)
(0.216591 0.0533641 1.41665e-19)
(0.281835 0.0535246 -1.16089e-19)
(0.344518 0.0519717 7.02148e-20)
(0.403309 0.0494027 -2.6706e-20)
(0.457602 0.046321 -1.01271e-19)
(0.507277 0.0430661 1.58337e-19)
(0.552498 0.0398499 -7.52433e-20)
(0.593574 0.0367907 -9.02686e-20)
(0.630875 0.0339446 2.19179e-20)
(0.664775 0.0313286 -7.27759e-20)
(0.695629 0.0289386 3.83207e-20)
(0.723757 0.0267599 -5.59544e-20)
(0.74945 0.0247745 2.2006e-19)
(0.772966 0.0229614 -7.32806e-20)
(0.794525 0.0212972 -2.51165e-20)
(0.814268 0.0197721 1.23269e-19)
(0.00828848 -0.0136405 1.46989e-19)
(0.0375022 -0.0323246 -2.61805e-19)
(0.0888706 -0.0440509 -6.37124e-20)
(0.151029 -0.0505834 8.30335e-20)
(0.216591 -0.0533641 -5.40789e-20)
(0.281835 -0.0535246 9.68168e-21)
(0.344518 -0.0519717 -5.55879e-20)
(0.403309 -0.0494027 1.1042e-20)
(0.457602 -0.046321 8.65712e-20)
(0.507277 -0.0430661 -2.25961e-19)
(0.552498 -0.0398499 -2.60887e-20)
(0.593574 -0.0367907 4.91299e-20)
(0.630875 -0.0339446 9.39302e-20)
(0.664775 -0.0313286 -9.9186e-21)
(0.695629 -0.0289386 -8.86881e-20)
(0.723757 -0.0267599 7.56735e-20)
(0.74945 -0.0247745 -1.13014e-19)
(0.772966 -0.0229614 8.68207e-20)
(0.794525 -0.0212972 9.01765e-20)
(0.814268 -0.0197721 -1.06576e-19)
(0.0134274 -0.0401622 2.28884e-19)
(0.0494084 -0.095308 -3.36641e-19)
(0.104629 -0.130057 -4.07348e-19)
(0.168662 -0.149532 -1.94867e-19)
(0.234793 -0.157934 -2.09998e-19)
(0.299757 -0.158572 4.21939e-19)
(0.361647 -0.154109 1.14705e-19)
(0.419374 -0.146602 -9.52153e-20)
(0.472493 -0.137541 4.07777e-19)
(0.520985 -0.127939 -2.6127e-20)
(0.565073 -0.11843 -4.07205e-19)
(0.605095 -0.109371 5.69895e-20)
(0.641431 -0.100933 7.25991e-20)
(0.674456 -0.0931707 7.73625e-22)
(0.704516 -0.0860746 -7.84979e-20)
(0.731925 -0.0796033 -2.07373e-19)
(0.756968 -0.073703 -6.9982e-20)
(0.779907 -0.0683106 7.59261e-21)
(0.800944 -0.0633586 3.74355e-19)
(0.820097 -0.0588345 2.42694e-19)
(0.0233168 -0.064459 1.34724e-19)
(0.072397 -0.153399 -1.55521e-19)
(0.135142 -0.209895 3.36735e-19)
(0.202897 -0.24194 3.52937e-19)
(0.270222 -0.256128 -3.38799e-19)
(0.334724 -0.257699 -3.66482e-19)
(0.395138 -0.2509 -1.17803e-19)
(0.45084 -0.239042 1.87393e-19)
(0.501702 -0.22455 1.41911e-20)
(0.547906 -0.209083 -2.41065e-19)
(0.589793 -0.193693 2.1162e-19)
(0.627761 -0.178984 -1.54056e-19)
(0.662213 -0.165252 6.02359e-20)
(0.693526 -0.152599 -5.61866e-19)
(0.722036 -0.141016 8.10494e-19)
(0.748038 -0.130443 1.98298e-19)
(0.771807 -0.120794 -7.3236e-19)
(0.793616 -0.111961 6.49951e-19)
(0.813633 -0.103839 1.39393e-21)
(0.831642 -0.0964638 1.07689e-19)
(0.0372091 -0.0852217 -6.12185e-20)
(0.104874 -0.203681 -6.3752e-19)
(0.178455 -0.279845 5.20446e-19)
(0.25172 -0.323821 9.25302e-20)
(0.320971 -0.344028 3.95633e-20)
(0.385014 -0.347239 -5.88458e-20)
(0.443479 -0.339016 -3.80095e-19)
(0.496399 -0.323754 4.4939e-19)
(0.544102 -0.304714 4.75967e-21)
(0.587068 -0.284164 7.40025e-19)
(0.625813 -0.263567 9.21468e-20)
(0.660834 -0.243781 -1.04806e-19)
(0.692575 -0.225241 -3.91858e-19)
(0.721418 -0.208112 2.09536e-19)
(0.747688 -0.192401 -6.62808e-19)
(0.771658 -0.178037 9.29653e-19)
(0.793588 -0.164907 -1.12521e-18)
(0.813762 -0.152857 7.75613e-19)
(0.832308 -0.141754 -4.82339e-19)
(0.848687 -0.131753 -2.2748e-19)
(0.0540529 -0.101389 -1.56279e-19)
(0.144577 -0.243731 -5.68576e-20)
(0.231776 -0.336755 -3.35354e-19)
(0.312232 -0.391735 3.20576e-19)
(0.384278 -0.418196 1.42702e-19)
(0.448124 -0.423936 -7.82927e-19)
(0.504466 -0.415475 1.29425e-18)
(0.554141 -0.398058 -1.02902e-18)
(0.598046 -0.375653 -4.66483e-19)
(0.637046 -0.351074 9.76253e-19)
(0.6719 -0.326181 -2.36704e-19)
(0.703238 -0.302093 -8.80113e-20)
(0.731571 -0.279403 -1.10419e-18)
(0.757301 -0.258359 1.18499e-18)
(0.780745 -0.239001 3.29844e-19)
(0.80215 -0.221263 -9.1537e-19)
(0.821761 -0.20501 7.56616e-19)
(0.839873 -0.190041 -5.15896e-19)
(0.856575 -0.176194 -4.56319e-19)
(0.870947 -0.163838 1.51793e-18)
(0.0725727 -0.112223 5.11241e-19)
(0.188728 -0.271777 -1.61238e-19)
(0.291638 -0.378223 1.99567e-19)
(0.380797 -0.44297 2.62009e-21)
(0.456649 -0.475846 -3.81436e-19)
(0.520862 -0.485089 1.03802e-18)
(0.575275 -0.477759 -9.18198e-19)
(0.62161 -0.459669 8.44619e-19)
(0.661417 -0.435324 -8.47347e-19)
(0.696019 -0.408003 7.85716e-19)
(0.726475 -0.379932 -4.3735e-19)
(0.753602 -0.3525 1.07992e-18)
(0.778006 -0.326476 -1.33114e-18)
(0.800134 -0.302214 -1.19267e-19)
(0.820301 -0.279808 3.16304e-19)
(0.838739 -0.259214 6.66341e-19)
(0.855671 -0.240291 3.88452e-20)
(0.871417 -0.22278 -7.59009e-19)
(0.886035 -0.206485 -3.93176e-19)
(0.898171 -0.192066 8.13823e-19)
(0.0913663 -0.117355 1.42584e-19)
(0.234216 -0.286814 1.26245e-20)
(0.3541 -0.402749 9.82356e-20)
(0.45323 -0.475697 -3.34985e-20)
(0.534006 -0.514978 5.37037e-19)
(0.599467 -0.528671 -2.5936e-19)
(0.652552 -0.523918 2.82989e-20)
(0.695874 -0.506776 2.83316e-20)
(0.731677 -0.482089 3.91178e-19)
(0.761791 -0.453489 6.72316e-20)
(0.787637 -0.423526 1.27155e-19)
(0.810263 -0.393854 7.09737e-19)
(0.830418 -0.365439 -6.61712e-19)
(0.848619 -0.338763 5.9241e-19)
(0.865209 -0.314001 -3.76062e-19)
(0.88041 -0.291151 3.33854e-19)
(0.894429 -0.270075 -6.07716e-19)
(0.907627 -0.250444 4.69297e-19)
(0.920122 -0.231963 -1.74091e-19)
(0.930112 -0.21561 -8.61021e-19)
(0.109013 -0.116816 -5.25864e-20)
(0.277819 -0.288668 -2.02354e-20)
(0.414999 -0.409829 1.62702e-19)
(0.525016 -0.489078 -3.25079e-20)
(0.611884 -0.534496 -3.06749e-19)
(0.679763 -0.553431 4.97905e-19)
(0.732534 -0.552647 -5.42368e-19)
(0.773629 -0.53811 -4.27219e-19)
(0.805965 -0.514765 -3.21174e-19)
(0.831908 -0.486467 2.97785e-19)
(0.853282 -0.456027 -3.07062e-19)
(0.871425 -0.425345 7.69806e-19)
(0.887272 -0.395598 4.62689e-19)
(0.901459 -0.367423 -9.90649e-19)
(0.914396 -0.341095 3.96046e-19)
(0.926327 -0.316673 2.7679e-19)
(0.937444 -0.294029 -3.59064e-19)
(0.948159 -0.272766 -8.17778e-19)
(0.958947 -0.252531 4.74722e-19)
(0.968025 -0.234908 1.47069e-19)
(0.124184 -0.111024 -6.65968e-20)
(0.31643 -0.278013 9.4187e-21)
(0.47021 -0.399991 4.50512e-20)
(0.591575 -0.483325 1.04587e-19)
(0.68564 -0.534273 -9.00327e-20)
(0.757312 -0.558959 -2.03873e-19)
(0.811154 -0.563354 1.26764e-19)
(0.851245 -0.552989 -3.3066e-19)
(0.881091 -0.532667 -3.65512e-20)
(0.903574 -0.506304 -3.4952e-19)
(0.920937 -0.476885 -4.69269e-19)
(0.934841 -0.446534 5.90717e-19)
(0.946455 -0.416646 3.87778e-20)
(0.956561 -0.388053 -1.51807e-19)
(0.965668 -0.361186 -4.73682e-20)
(0.974092 -0.336213 7.07378e-20)
(0.982028 -0.313151 -1.49186e-19)
(0.989625 -0.292019 1.18908e-19)
(0.99717 -0.273041 5.51487e-19)
(1.00553 -0.255878 -5.1674e-19)
(0.13577 -0.100757 -1.01498e-20)
(0.347286 -0.256307 -2.18238e-20)
(0.515931 -0.374764 -1.12299e-20)
(0.648534 -0.459704 6.26356e-20)
(0.750703 -0.515172 -2.70454e-20)
(0.827639 -0.545717 3.18683e-20)
(0.884226 -0.556167 5.77826e-20)
(0.924941 -0.551303 7.07105e-20)
(0.953733 -0.535534 -2.06122e-19)
(0.973922 -0.512648 7.12961e-20)
(0.988162 -0.485684 -2.90745e-19)
(0.998465 -0.456919 -8.55213e-20)
(1.00627 -0.427939 -1.57414e-19)
(1.01257 -0.39976 -2.66592e-19)
(1.01799 -0.372958 2.14366e-19)
(1.02295 -0.347801 9.34823e-21)
(1.02764 -0.324395 4.71621e-20)
(1.03207 -0.302916 3.54871e-19)
(1.03623 -0.283507 -2.63448e-19)
(1.04128 -0.264547 9.00971e-20)
(0.142961 -0.0870013 -1.09092e-19)
(0.368239 -0.225641 7.696e-21)
(0.54896 -0.336595 3.99851e-20)
(0.692012 -0.420478 -1.48881e-19)
(0.802844 -0.479038 1.69455e-19)
(0.886431 -0.515065 -1.8297e-19)
(0.947588 -0.531993 5.22622e-20)
(0.990876 -0.533607 3.52e-20)
(1.02046 -0.52368 2.78373e-20)
(1.03997 -0.505678 -2.89864e-20)
(1.05241 -0.482555 -2.48907e-20)
(1.06016 -0.456654 -3.83816e-20)
(1.06495 -0.42971 1.03516e-19)
(1.06802 -0.402916 -1.74645e-19)
(1.07019 -0.377016 -1.13278e-19)
(1.07197 -0.352412 -9.54353e-20)
(1.07363 -0.329311 2.13148e-19)
(1.07516 -0.307977 1.6696e-19)
(1.07639 -0.288568 -1.62489e-19)
(1.07824 -0.269281 -4.31808e-20)
(0.145248 -0.071034 -1.46252e-19)
(0.377818 -0.188718 2.12677e-19)
(0.566967 -0.288658 6.4422e-20)
(0.718913 -0.36879 -6.91943e-20)
(0.838415 -0.428636 1.11291e-19)
(0.929764 -0.469214 2.241e-19)
(0.997274 -0.492491 -1.26771e-19)
(1.04524 -0.501079 -7.94157e-20)
(1.07776 -0.497922 -1.43142e-19)
(1.09859 -0.485971 9.52298e-20)
(1.11097 -0.467932 -1.90334e-20)
(1.11758 -0.446105 1.10672e-20)
(1.12047 -0.422306 3.96831e-20)
(1.12116 -0.397874 1.079e-20)
(1.12068 -0.373718 -9.04793e-21)
(1.11971 -0.350392 -1.4082e-20)
(1.11861 -0.328218 -8.5056e-21)
(1.11745 -0.307517 -3.21555e-20)
(1.11607 -0.288484 2.24134e-20)
(1.11505 -0.269516 1.32241e-19)
(0.142592 -0.0541548 1.29662e-19)
(0.375446 -0.14845 8.27207e-20)
(0.568641 -0.234641 -5.691e-20)