/*--------------------------------*- C++ -*----------------------------------*\
  =========                 |
  \\      /  F ield         | OpenFOAM: The Open Source CFD Toolbox
   \\    /   O peration     | Website:  https://openfoam.org
    \\  /    A nd           | Version:  7
     \\/     M anipulation  |
\*---------------------------------------------------------------------------*/
FoamFile
{
    version     2.0;
    format      ascii;
    class       volVectorField;
    location    "5";
    object      U;
}
// * * * * * * * * * * * * * * * * * * * * * * * * * * * * * * * * * * * * * //

dimensions      [0 1 -1 0 0 0 0];

internalField   nonuniform List<vector> 
10880
(
(-0.00118205 0.00183385 -6.31623e-20)
(-0.00482112 0.00394769 2.6329e-21)
(-0.010634 0.00497112 -7.40035e-20)
(-0.0170806 0.00524895 -4.19624e-20)
(-0.0232063 0.00500662 2.63811e-20)
(-0.0285369 0.00439534 -4.52163e-21)
(-0.0327785 0.00352257 2.93769e-20)
(-0.0357363 0.00246469 -5.70731e-21)
(-0.0372921 0.00127522 -4.88004e-20)
(-0.0373802 -8.23462e-06 1.29685e-19)
(-0.035969 -0.00135829 1.69317e-20)
(-0.0330508 -0.00275367 -2.86773e-20)
(-0.0286359 -0.00417325 -5.79586e-20)
(-0.0227527 -0.00559207 6.03372e-21)
(-0.0154546 -0.00697584 5.59445e-20)
(-0.00683314 -0.00827536 -4.87917e-20)
(0.00296806 -0.00942263 7.30976e-20)
(0.0137565 -0.0103265 -5.65793e-20)
(0.0252688 -0.0108525 -6.00028e-20)
(0.036889 -0.010808 7.20299e-20)
(-0.00174145 0.00521234 -1.30535e-19)
(-0.00567412 0.0111746 1.60337e-19)
(-0.0109286 0.0140235 2.6866e-20)
(-0.0162283 0.0147374 1.01862e-19)
(-0.0207814 0.0139598 1.106e-19)
(-0.0242037 0.0121254 -2.27244e-19)
(-0.0262628 0.0095443 -6.38936e-20)
(-0.0268088 0.00643692 5.41119e-20)
(-0.0257553 0.00295812 -2.37478e-19)
(-0.0230591 -0.000783425 9.81054e-21)
(-0.0187063 -0.00470962 2.44671e-19)
(-0.0127016 -0.00875832 -3.19637e-20)
(-0.00506468 -0.0128705 -4.77961e-20)
(0.00416785 -0.016977 -1.34517e-21)
(0.0149361 -0.0209818 5.29133e-20)
(0.027139 -0.0247455 1.38201e-19)
(0.0406162 -0.0280702 4.72787e-20)
(0.0551934 -0.0306751 -3.29835e-21)
(0.0707329 -0.032121 -2.53182e-19)
(0.0863465 -0.0318248 -1.68256e-19)
(-0.00268175 0.0077775 -6.95976e-20)
(-0.00697957 0.0165127 7.79151e-20)
(-0.0110152 0.0205536 -9.41813e-20)
(-0.0139912 0.0213598 -1.99825e-19)
(-0.0154164 0.019901 1.90543e-19)
(-0.0150745 0.016843 2.12472e-19)
(-0.0128504 0.0126631 7.18188e-20)
(-0.00868125 0.00770158 -1.06174e-19)
(-0.00254423 0.00219773 -1.11009e-20)
(0.00555597 -0.00368029 1.46633e-19)
(0.0155979 -0.00981157 -1.30612e-19)
(0.0275473 -0.0161017 1.03629e-19)
(0.0413578 -0.0224649 -4.21363e-20)
(0.0569698 -0.0288018 3.74884e-19)
(0.0743026 -0.0349749 -5.50056e-19)
(0.0932286 -0.0407796 -1.40598e-19)
(0.113544 -0.0459121 5.04878e-19)
(0.135081 -0.0498933 -4.5458e-19)
(0.157916 -0.0518864 -3.34233e-21)
(0.180754 -0.0508623 -8.34984e-20)
(-0.00368245 0.00915144 4.13877e-20)
(-0.00800289 0.0190606 3.95105e-19)
(-0.00995185 0.0233398 -4.50752e-19)
(-0.00934972 0.0237179 1.11715e-19)
(-0.0060999 0.0213606 -1.41033e-20)
(-0.000213315 0.0170885 4.35726e-20)
(0.0082628 0.0114933 2.67474e-19)
(0.0192667 0.00499804 -3.06888e-19)
(0.0327267 -0.00209847 -8.48559e-21)
(0.0485644 -0.00958531 -5.25986e-19)
(0.0666966 -0.0173114 -5.81233e-20)
(0.0870338 -0.0251627 6.93875e-20)
(0.109478 -0.0330391 2.80201e-19)
(0.133922 -0.0408305 -1.56862e-19)
(0.160234 -0.0483854 4.83448e-19)
(0.188233 -0.0554752 -6.94793e-19)
(0.217635 -0.0617414 8.34355e-19)
(0.248221 -0.066535 -5.7684e-19)
(0.280304 -0.0685191 3.60547e-19)
(0.312248 -0.0660549 1.84057e-19)
(-0.00433885 0.00915213 1.35464e-19)
(-0.00778549 0.01836 5.20967e-20)
(-0.00646963 0.021749 2.80671e-19)
(-0.000885655 0.0210906 -1.62841e-19)
(0.00862055 0.0176012 -7.50726e-20)
(0.0217743 0.0121675 6.28678e-19)
(0.0383319 0.0054335 -9.9174e-19)
(0.0580759 -0.00214 7.98678e-19)
(0.0808091 -0.010226 3.66855e-19)
(0.106348 -0.0185932 -7.79837e-19)
(0.134514 -0.0270767 2.00825e-19)
(0.16513 -0.0355547 8.08997e-20)
(0.19801 -0.0439263 8.90289e-19)
(0.232955 -0.0520884 -9.69497e-19)
(0.269747 -0.0599053 -2.88065e-19)
(0.308108 -0.0671714 7.47207e-19)
(0.347635 -0.0735507 -6.21754e-19)
(0.387978 -0.0783211 4.24337e-19)
(0.429625 -0.079628 3.68303e-19)
(0.470846 -0.0749786 -1.25461e-18)
(-0.0042194 0.00779436 -4.28238e-19)
(-0.00526429 0.0144243 1.35858e-19)
(0.000890106 0.0158069 -1.90803e-19)
(0.0130834 0.0135468 4.49572e-22)
(0.0305184 0.00876986 5.20283e-19)
(0.0526386 0.00233915 -1.01375e-18)
(0.0789808 -0.00511473 9.08972e-19)
(0.109142 -0.0131431 -8.18144e-19)
(0.142766 -0.021428 8.39526e-19)
(0.179526 -0.0297445 -7.36997e-19)
(0.219108 -0.0379338 4.07202e-19)
(0.2612 -0.0458822 -9.92355e-19)
(0.305479 -0.0535024 1.24354e-18)
(0.351607 -0.0607148 1.03063e-19)
(0.399224 -0.0674223 -3.17139e-19)
(0.447914 -0.073484 -6.17532e-19)
(0.497119 -0.0786672 -3.50245e-20)
(0.546306 -0.0823307 6.89439e-19)
(0.59602 -0.0822458 3.41486e-19)
(0.644791 -0.0749205 -7.39022e-19)
(-0.00290613 0.00525527 -1.39416e-19)
(0.000625015 0.00769251 -6.09915e-20)
(0.0136299 0.0061715 -9.51762e-20)
(0.0343268 0.001951 5.04161e-20)
(0.0614835 -0.00406206 -6.90447e-19)
(0.0942544 -0.0111141 1.32419e-18)
(0.131936 -0.0186544 -1.49158e-20)
(0.17391 -0.0262994 -4.74432e-20)
(0.219622 -0.0337821 -4.76578e-19)
(0.268555 -0.0409178 -9.05077e-20)
(0.320209 -0.0475821 -1.43052e-19)
(0.37408 -0.0536928 -8.10159e-19)
(0.429656 -0.0591958 7.66821e-19)
(0.486405 -0.0640511 -6.69752e-19)
(0.543774 -0.0682161 4.00966e-19)
(0.601167 -0.071635 -3.5199e-19)
(0.657864 -0.0742218 6.45456e-19)
(0.713158 -0.0755356 -4.80966e-19)
(0.767563 -0.0732726 1.71294e-19)
(0.820289 -0.0633915 8.75764e-19)
(-1.43279e-05 0.001829 1.63775e-19)
(0.0108687 -0.00105464 -1.56304e-20)
(0.0331468 -0.00595624 -2.7253e-19)
(0.0644791 -0.0121205 3.70514e-20)
(0.103224 -0.0189778 5.86265e-19)
(0.148243 -0.0259656 -1.13063e-18)
(0.198568 -0.0326799 6.59089e-19)
(0.253329 -0.0388602 -3.5004e-20)
(0.311729 -0.0443408 4.84108e-19)
(0.373009 -0.049023 -5.38423e-19)
(0.436428 -0.0528578 4.41903e-19)
(0.50125 -0.0558321 -1.1602e-18)
(0.566732 -0.0579566 -6.46626e-19)
(0.632125 -0.0592548 1.34063e-18)
(0.696677 -0.0597515 -5.37911e-19)
(0.759621 -0.0594706 -3.48036e-19)
(0.820126 -0.058426 4.71488e-19)
(0.877391 -0.0563301 1.0273e-18)
(0.931611 -0.0513665 -6.15145e-19)
(0.982665 -0.0411877 -1.67293e-19)
(0.00479527 -0.00210694 3.33127e-19)
(0.0263017 -0.01077 -3.17747e-19)
(0.0605738 -0.0189417 -2.56142e-19)
(0.104781 -0.0265229 -7.31168e-19)
(0.156902 -0.0333941 6.39674e-19)
(0.215494 -0.039266 8.92417e-19)
(0.279301 -0.0439529 -4.51208e-19)
(0.347159 -0.0473836 5.26225e-19)
(0.417978 -0.0495574 -1.8437e-19)
(0.490717 -0.0505217 5.71863e-20)
(0.564363 -0.0503616 9.36739e-19)
(0.637931 -0.0491889 -1.27328e-18)
(0.710465 -0.0471317 -4.70986e-20)
(0.781059 -0.0443229 2.61101e-19)
(0.84887 -0.040889 9.56544e-20)
(0.913144 -0.0369357 -9.7995e-20)
(0.97326 -0.0324903 2.79217e-19)
(1.02879 -0.0273646 -1.54787e-19)
(1.07926 -0.0215456 -8.6323e-19)
(1.12342 -0.0173406 7.84104e-19)
(0.0117997 -0.00610385 2.61478e-19)
(0.0475224 -0.0201969 8.70824e-20)
(0.0966017 -0.030834 -2.57996e-19)
(0.155802 -0.0387262 3.03074e-19)
(0.222758 -0.0443194 -6.92369e-19)
(0.295713 -0.0476842 1.46764e-18)
(0.37309 -0.0489325 -1.00128e-18)
(0.453399 -0.0482582 -5.46709e-19)
(0.535232 -0.0458968 1.44736e-18)
(0.617247 -0.0421102 -1.14312e-18)
(0.698165 -0.0371805 1.40693e-18)
(0.776788 -0.0314024 -1.72237e-18)
(0.852015 -0.0250739 5.79813e-19)
(0.922867 -0.0184871 6.82423e-19)
(0.988518 -0.0119208 -5.88177e-19)
(1.04831 -0.00563018 -1.21208e-20)
(1.10182 0.000186307 -9.13965e-20)
(1.14879 0.0053511 -6.74717e-19)
(1.18881 0.00907366 4.92031e-19)
(1.22106 0.009832 -1.36904e-19)
(0.021178 -0.00964558 -3.45179e-19)
(0.0747861 -0.0279189 1.29974e-19)
(0.141301 -0.0394889 -6.8416e-21)
(0.217203 -0.0460314 -5.17307e-19)
(0.299829 -0.0486723 6.96693e-19)
(0.387115 -0.047934 -9.58121e-19)
(0.477155 -0.0443083 8.68647e-20)
(0.56814 -0.0383294 2.81343e-19)
(0.658367 -0.0305343 -3.89935e-19)
(0.746254 -0.0214492 7.19218e-19)
(0.830357 -0.0115847 1.99187e-19)
(0.909405 -0.00142601 8.34294e-20)
(0.982328 0.00857987 -8.22377e-19)
(1.04829 0.018036 8.35651e-19)
(1.10669 0.0266057 -4.46966e-19)
(1.1572 0.034024 3.30964e-19)
(1.19973 0.0401164 -6.93619e-19)
(1.2344 0.0447457 -3.93109e-19)
(1.26119 0.0474689 4.66517e-19)
(1.27976 0.0481822 1.2125e-19)
(0.0329602 -0.0121545 -3.34992e-19)
(0.107883 -0.0324226 4.6342e-19)
(0.193961 -0.0427216 9.79178e-20)
(0.287557 -0.0458256 -8.44761e-20)
(0.385801 -0.043644 2.31063e-19)
(0.486357 -0.0372381 5.71256e-19)
(0.587045 -0.0275546 -2.93696e-19)
(0.685811 -0.0155265 -2.21774e-19)
(0.780776 -0.00202976 -5.82475e-19)
(0.87028 0.0121335 5.13086e-19)
(0.952925 0.0262424 -2.70626e-19)
(1.02761 0.0396696 1.10727e-20)
(1.09357 0.0518958 1.25852e-18)
(1.15037 0.0625202 -8.79767e-19)
(1.19791 0.0712658 7.78149e-19)
(1.23641 0.0779823 -7.95653e-20)
(1.26633 0.0826472 1.10407e-19)
(1.28831 0.0853081 -2.55049e-19)
(1.30292 0.0858879 -8.86094e-20)
(1.3106 0.0849125 -4.69404e-19)
(0.0469707 -0.0130184 1.92248e-19)
(0.146032 -0.0322042 1.24992e-19)
(0.252986 -0.038502 -7.8786e-20)
(0.364309 -0.0358644 -1.07637e-18)
(0.477063 -0.027053 3.25153e-19)
(0.588757 -0.0137292 -7.9386e-20)
(0.697065 0.0026644 -4.4191e-20)
(0.799865 0.0207834 -5.68665e-20)
(0.895325 0.0394349 9.44488e-20)
(0.98197 0.0575989 -6.94782e-19)
(1.05873 0.0744364 3.70265e-19)
(1.12498 0.0892992 -5.68751e-19)
(1.18052 0.101735 7.31229e-20)
(1.22555 0.111486 -3.01734e-19)
(1.26064 0.118472 -1.12652e-19)
(1.28661 0.122773 5.7555e-19)
(1.30449 0.124608 -6.21158e-19)
(1.31536 0.124256 9.49811e-20)
(1.32018 0.121943 2.46411e-19)
(1.31971 0.11848 -2.61749e-19)
(0.0627862 -0.0116449 2.96609e-19)
(0.187826 -0.025924 -4.52134e-20)
(0.315899 -0.0251903 -3.8187e-19)
(0.443884 -0.0145643 -5.34195e-20)
(0.568991 0.00233932 6.75809e-19)
(0.688768 0.0232555 -2.81378e-19)
(0.800976 0.0462718 2.67713e-19)
(0.903698 0.0696986 -3.00104e-19)
(0.99545 0.0921324 1.41832e-19)
(1.07526 0.112477 -1.36402e-19)
(1.14269 0.129942 6.06246e-19)
(1.19783 0.144032 -3.73233e-19)
(1.24123 0.15453 -4.18536e-20)
(1.27382 0.16146 -4.95851e-20)
(1.29682 0.165044 8.19508e-20)
(1.3116 0.165651 -1.26111e-19)
(1.31954 0.163746 2.85564e-19)
(1.32199 0.159808 1.00185e-20)
(1.32002 0.154266 -4.30136e-19)
(1.31446 0.147973 -1.33504e-19)
(0.0797242 -0.00753772 -2.30455e-19)
(0.231265 -0.0125934 1.8304e-19)
(0.379473 -0.00178516 6.44806e-20)
(0.521966 0.0187362 -8.18205e-20)
(0.656389 0.0446048 -2.22548e-20)
(0.780608 0.0730407 9.49909e-20)
(0.892785 0.101785 -7.51281e-20)
(0.991535 0.128967 3.25797e-19)
(1.07605 0.15317 -2.25122e-19)
(1.14616 0.173436 1.08493e-19)
(1.20225 0.189231 -2.44835e-19)
(1.24528 0.200401 2.37192e-19)
(1.27657 0.207106 9.74499e-20)
(1.29772 0.209744 -2.69019e-19)
(1.31043 0.208875 2.73951e-19)
(1.31638 0.20514 -1.11394e-19)
(1.3171 0.199195 4.85463e-20)
(1.31393 0.191644 4.42283e-20)
(1.30788 0.18302 2.27234e-21)
(1.2996 0.174029 4.53379e-20)
(0.0968691 -0.000381666 -1.06125e-19)
(0.273875 0.00824005 1.76693e-19)
(0.439983 0.0318637 -1.08982e-19)
(0.593904 0.0635981 8.79563e-20)
(0.734043 0.0985587 -1.13365e-19)
(0.858922 0.133656 -1.69655e-20)
(0.967441 0.166516 4.88201e-20)
(1.05908 0.195349 -1.84731e-20)
(1.13397 0.218987 -1.97483e-20)
(1.1929 0.236853 9.79618e-20)
(1.23722 0.248875 -1.4476e-20)
(1.26869 0.255381 -5.36707e-20)
(1.28928 0.256986 1.08867e-19)
(1.30106 0.254477 -8.23995e-20)
(1.30597 0.248708 1.88418e-20)
(1.30577 0.240513 -2.5368e-20)
(1.30194 0.230646 7.16638e-20)
(1.29562 0.219753 -5.62165e-20)
(1.28761 0.208381 -8.63103e-21)
(1.27836 0.196944 -1.44113e-20)
(0.11314 0.00988107 6.17147e-20)
(0.312922 0.0363478 -1.88202e-19)
(0.493561 0.0749241 1.14317e-19)
(0.655177 0.118427 -1.76086e-20)
(0.797265 0.161824 3.31064e-20)
(0.919329 0.20204 -5.61084e-20)
(1.02131 0.236915 -3.65284e-20)
(1.10379 0.265055 7.54849e-21)
(1.16799 0.285827 8.94756e-20)
(1.2157 0.299258 -1.27608e-19)
(1.24914 0.30588 1.81409e-20)
(1.27071 0.306571 2.70263e-20)
(1.28283 0.302394 -3.95359e-20)
(1.28777 0.294463 1.05988e-19)
(1.2875 0.283834 -3.73251e-20)
(1.28366 0.271428 2.88924e-20)
(1.27751 0.258001 -6.24788e-20)
(1.26996 0.244169 1.54514e-20)
(1.26153 0.230437 2.74334e-20)
(1.25252 0.216827 1.63675e-20)
(0.127389 0.022999 1.22012e-19)
(0.345677 0.0707497 1.08783e-19)
(0.53658 0.125564 -3.74643e-20)
(0.701859 0.180555 -1.32234e-19)
(0.842352 0.231034 -7.08908e-20)
(0.958801 0.274354 1.66749e-19)
(1.05239 0.308947 6.89556e-20)
(1.12487 0.334145 -1.38495e-19)
(1.17858 0.350093 5.48459e-20)
(1.21618 0.357574 -9.06426e-22)
(1.24056 0.357786 1.89604e-19)
(1.25454 0.352136 -7.35616e-20)
(1.26073 0.342059 -1.74825e-19)
(1.26137 0.328887 2.04729e-19)
(1.25829 0.313766 -8.34787e-20)
(1.2529 0.297605 1.26953e-19)
(1.2462 0.281083 -4.27458e-20)
(1.2388 0.26474 1.1415e-20)
(1.23101 0.249007 -2.32396e-20)
(1.22302 0.233501 -1.80804e-20)
(0.13852 0.038395 -1.2504e-19)
(0.369697 0.109733 -2.56755e-19)
(0.56603 0.181057 4.07271e-19)
(0.730993 0.24645 2.27439e-19)
(0.866894 0.302133 -6.60903e-19)
(0.975824 0.346339 3.89769e-19)
(1.06024 0.378463 9.21555e-20)
(1.12304 0.398836 1.55643e-19)
(1.16745 0.408549 -2.16032e-23)
(1.19686 0.409199 -1.1168e-20)
(1.21452 0.402622 -3.2228e-19)
(1.22343 0.390664 2.19142e-19)
(1.22616 0.375016 7.74419e-20)
(1.22478 0.357109 -3.94236e-20)
(1.22088 0.338074 -1.09004e-19)
(1.21558 0.318732 1.64313e-20)
(1.20963 0.299646 -3.31732e-20)
(1.2034 0.281268 -1.2197e-20)
(1.19698 0.263947 1.20534e-19)
(1.1906 0.246867 8.76679e-21)
(0.145603 0.0551901 -2.8875e-19)
(0.383087 0.150962 -1.29013e-19)
(0.579816 0.237986 -1.31854e-19)
(0.740852 0.312011 3.36691e-19)
(0.869913 0.370727 2.82614e-20)
(0.970378 0.413665 -1.22387e-19)
(1.04585 0.441487 -2.13031e-19)
(1.10015 0.455704 -1.95077e-20)
(1.13718 0.458414 1.65784e-21)
(1.1607 0.451992 2.66712e-19)
(1.17413 0.43881 -2.7036e-19)
(1.1804 0.421027 6.17834e-20)
(1.18188 0.400457 -1.48883e-19)
(1.1804 0.378525 6.34558e-20)
(1.17724 0.356267 8.74762e-21)
(1.17329 0.33437 -1.38652e-19)
(1.16907 0.313267 4.06525e-20)
(1.16475 0.293337 2.47878e-21)
(1.16028 0.274834 -1.73312e-20)
(1.15602 0.25647 1.86161e-20)
(0.147989 0.0722667 1.20598e-19)
(0.384701 0.191663 1.51527e-19)
(0.576955 0.292536 -1.87628e-19)
(0.731052 0.372907 2.6561e-19)
(0.851857 0.432425 6.41296e-20)
(0.943793 0.472234 -3.35863e-19)
(1.01133 0.494445 7.24606e-20)
(1.05893 0.501811 6.60985e-20)
(1.09083 0.497393 1.02741e-19)
(1.11089 0.48423 -7.34739e-20)
(1.12246 0.465089 1.08819e-19)
(1.12824 0.442296 4.7373e-20)
(1.13032 0.417674 3.73243e-20)
(1.13023 0.392552 -7.14717e-21)
(1.12901 0.367825 -1.69086e-20)
(1.12732 0.344027 2.36878e-20)
(1.12551 0.321466 1.03448e-20)
(1.12365 0.300454 2.26794e-20)
(1.12157 0.281179 -8.47252e-21)
(1.11988 0.261984 -9.00533e-20)
(0.145378 0.0883663 3.81379e-19)
(0.374265 0.228866 -2.65763e-19)
(0.557664 0.340804 5.06208e-21)
(0.702549 0.424921 -2.2707e-19)
(0.814462 0.48314 -2.11091e-19)
(0.898518 0.518413 3.19899e-19)
(0.959689 0.534312 -3.91453e-20)
(1.00267 0.534771 2.24926e-22)
(1.03175 0.52368 -1.07484e-21)
(1.05064 0.504583 -4.66508e-20)
(1.06243 0.480476 1.24212e-20)
(1.06952 0.453722 1.39913e-20)
(1.07366 0.426056 -3.79354e-20)
(1.0761 0.398657 8.71691e-20)
(1.07766 0.372254 1.82727e-20)
(1.07884 0.347231 2.50263e-20)
(1.07991 0.323782 -1.49538e-19)
(1.08084 0.302166 -7.70439e-20)
(1.08147 0.282534 3.58839e-19)
(1.08274 0.263031 -1.37713e-19)
(0.137841 0.102186 -1.4026e-20)
(0.352416 0.259648 -1.97054e-20)
(0.523329 0.379104 1.75046e-19)
(0.65748 0.464278 7.34261e-20)
(0.76056 0.519406 5.74935e-20)
(0.837905 0.549221 -8.58565e-20)
(0.894525 0.558706 8.12804e-20)
(0.935017 0.552782 1.42489e-20)
(0.963425 0.535961 -1.32971e-20)
(0.983145 0.512096 -8.807e-21)
(0.996879 0.484264 2.09122e-19)
(1.00667 0.454751 -9.7482e-22)
(1.01396 0.425138 2.01239e-19)
(1.01975 0.396426 6.13932e-20)
(1.02468 0.369179 -1.34901e-19)
(1.02914 0.343648 1.19902e-19)
(1.03334 0.319927 6.39789e-20)
(1.03726 0.298192 -2.374e-19)
(1.0409 0.278579 4.57881e-20)
(1.04546 0.259415 -1.1599e-19)
(0.125895 0.11246 2.59503e-20)
(0.320663 0.281336 -2.78619e-20)
(0.476338 0.404278 1.37309e-20)
(0.599009 0.487836 -1.00848e-19)
(0.693862 0.538465 9.25347e-21)
(0.765912 0.562472 9.48691e-20)
(0.819827 0.565986 -1.9029e-19)
(0.859781 0.554667 2.19567e-19)
(0.889362 0.533411 1.35781e-19)
(0.911506 0.506188 8.82774e-20)
(0.928493 0.47601 1.772e-19)
(0.942007 0.445006 -4.7198e-19)
(0.953224 0.414565 -2.95469e-19)
(0.962932 0.385505 1.79021e-19)
(0.971636 0.358244 1.27887e-19)
(0.979654 0.332938 -1.71973e-19)
(0.987176 0.309593 1.76222e-19)
(0.994345 0.288226 -4.00661e-20)
(1.00145 0.26906 -3.44819e-19)
(1.0094 0.251707 4.64171e-19)
(0.110377 0.118196 2.26039e-20)
(0.281209 0.291841 -1.23495e-19)
(0.419947 0.413906 6.43922e-20)
(0.531065 0.493365 9.86808e-20)
(0.618626 0.538494 1.03823e-19)
(0.68687 0.556817 -3.78081e-19)
(0.739762 0.555251 5.40065e-19)
(0.780808 0.539875 5.05993e-19)
(0.812984 0.515716 -4.50598e-20)
(0.838701 0.486674 -1.67574e-19)
(0.859811 0.455579 6.96331e-19)
(0.877667 0.424335 -7.50206e-19)
(0.893216 0.39411 -4.22669e-20)
(0.907093 0.36553 6.8664e-19)
(0.919711 0.338861 -4.63223e-19)
(0.931312 0.31415 -6.13814e-20)
(0.942091 0.291266 8.10092e-20)
(0.952456 0.269803 7.1411e-19)
(0.962887 0.24941 -6.43152e-19)
(0.971592 0.231678 -1.39854e-19)
(0.0924136 0.118629 1.78427e-19)
(0.236842 0.289729 8.68789e-21)
(0.357989 0.406488 -4.495e-19)
(0.458048 0.479628 7.184e-21)
(0.539444 0.518657 -2.86472e-19)
(0.605269 0.531818 1.06253e-19)
(0.658522 0.526387 1.45523e-19)
(0.701873 0.508526 -3.66633e-19)
(0.737607 0.483143 4.97705e-19)
(0.767591 0.45391 1.34509e-19)
(0.793265 0.423391 3.78896e-19)
(0.815693 0.393239 -1.29957e-18)
(0.83563 0.364415 4.54267e-19)
(0.853598 0.337391 -1.71744e-19)
(0.869943 0.312332 1.72253e-19)
(0.884888 0.289231 -5.93502e-19)
(0.898642 0.267944 6.03669e-19)
(0.91157 0.248136 -6.94723e-19)
(0.923794 0.229511 3.99509e-19)
(0.933499 0.213054 4.74836e-19)
(0.0733416 0.11335 -4.68684e-19)
(0.190688 0.274351 3.68658e-19)
(0.29461 0.38152 2.39149e-19)
(0.384557 0.44644 5.91109e-20)
(0.46097 0.479105 3.39071e-19)
(0.52555 0.4879 -5.62838e-19)
(0.580174 0.480002 8.2043e-19)
(0.626603 0.461311 -4.71517e-19)
(0.666418 0.436387 3.32153e-19)
(0.700967 0.408539 -8.5554e-19)
(0.731327 0.380005 7.34873e-19)
(0.758325 0.352171 -6.46753e-19)
(0.782576 0.325804 1.08501e-18)
(0.804531 0.301248 -2.83905e-19)
(0.824509 0.27859 -4.48182e-19)
(0.842744 0.257782 -3.60506e-19)
(0.859463 0.238676 -5.46878e-20)
(0.874989 0.221011 8.52404e-19)
(0.889384 0.204587 4.39985e-19)
(0.901285 0.190069 -5.98943e-19)
(0.0545875 0.102342 3.79669e-20)
(0.145981 0.245902 9.88683e-20)
(0.233984 0.339535 1.10639e-19)
(0.315112 0.394664 -3.57345e-19)
(0.387675 0.420957 1.96539e-19)
(0.451891 0.426334 5.69093e-19)
(0.50848 0.417414 -9.25272e-19)
(0.558301 0.399511 4.13136e-19)
(0.602276 0.376639 1.69802e-19)
(0.641285 0.351637 -1.06618e-18)
(0.676101 0.326369 3.87713e-19)
(0.707367 0.301957 -4.16671e-19)
(0.735599 0.278988 1.08845e-18)
(0.761205 0.257704 -7.22363e-19)
(0.784505 0.238139 -2.22802e-19)
(0.80575 0.220224 5.23241e-19)
(0.825189 0.203821 -7.37815e-19)
(0.84312 0.188723 5.10896e-19)
(0.859635 0.17477 4.62102e-19)
(0.873808 0.16233 -1.13538e-18)
(0.0375564 0.0859792 -1.65779e-19)
(0.105835 0.205405 5.52936e-19)
(0.180055 0.282054 -6.09498e-19)
(0.253901 0.326151 -1.67073e-19)
(0.323634 0.346231 -2.71143e-19)
(0.38805 0.349163 6.18521e-20)
(0.446789 0.340588 -3.02602e-20)
(0.499897 0.324953 4.11588e-19)
(0.547716 0.305555 1.01614e-19)
(0.590738 0.284679 -8.1802e-19)
(0.629492 0.263795 -8.13564e-20)
(0.664484 0.243758 3.06945e-19)
(0.696164 0.225002 3.8169e-19)
(0.72492 0.207686 -5.14346e-19)
(0.751081 0.191814 1.02014e-18)
(0.774924 0.177311 -7.59268e-19)
(0.796713 0.164062 9.05764e-19)
(0.816735 0.151912 -7.55985e-19)
(0.83512 0.140724 3.56201e-19)
(0.851327 0.130656 1.82725e-19)
(0.0235246 0.0650078 -1.86811e-19)
(0.0730287 0.154647 2.04029e-19)
(0.136291 0.211495 6.4225e-20)
(0.20456 0.24363 -6.32725e-20)
(0.272339 0.25773 1.17015e-19)
(0.337216 0.259104 -5.86612e-21)
(0.397924 0.252056 3.85796e-20)
(0.453844 0.239936 -4.92083e-19)
(0.504854 0.22519 1.74964e-19)
(0.551149 0.209493 4.55744e-19)
(0.593078 0.193899 -5.6056e-19)
(0.631048 0.179012 2.29943e-19)
(0.665469 0.165126 -2.16492e-19)
(0.696722 0.15234 6.19116e-19)
(0.725149 0.140642 -7.75591e-19)
(0.751048 0.129969 -5.87587e-20)
(0.774698 0.120234 7.56902e-19)
(0.796376 0.111329 -6.9473e-19)
(0.816252 0.103146 -1.22961e-19)
(0.834108 0.0957218 -2.44531e-19)
(0.0135429 0.0404943 -2.31168e-19)
(0.0498222 0.0960627 2.25061e-19)
(0.105479 0.131025 -7.8408e-21)
(0.169981 0.150556 -9.94866e-20)
(0.236548 0.158906 2.4128e-19)
(0.301889 0.159427 -5.65517e-20)
(0.364086 0.154816 -9.9074e-20)
(0.422049 0.147152 2.19947e-20)
(0.475338 0.137941 -4.76449e-19)
(0.523943 0.128202 6.19992e-19)
(0.568095 0.118571 1.00683e-19)
(0.60814 0.109405 -2.15098e-19)
(0.644463 0.100875 -7.31591e-21)
(0.677446 0.0930332 2.39883e-19)
(0.70744 0.0858677 4.13639e-20)
(0.734763 0.0793364 1.52033e-19)
(0.759701 0.0733846 1.17064e-19)
(0.782523 0.0679486 -3.58458e-19)
(0.803431 0.0629599 8.76163e-20)
(0.822445 0.058406 -2.08037e-19)
(0.00835821 0.0137516 -1.425e-19)
(0.0378078 0.0325771 2.53525e-19)
(0.0895721 0.0443748 7.38141e-20)
(0.152177 0.0509262 1.08439e-20)
(0.218167 0.0536898 1.36469e-19)
(0.283788 0.0538118 -1.11589e-19)
(0.346783 0.0522097 6.73998e-20)
(0.40582 0.0495887 -2.56103e-20)
(0.460294 0.046457 -9.67058e-20)
(0.510093 0.0431565 1.50981e-19)
(0.555388 0.0398998 -7.17588e-20)
(0.596497 0.0368053 -8.57264e-20)
(0.633795 0.0339284 2.07334e-20)
(0.667662 0.0312858 -6.85117e-20)
(0.698458 0.0288726 3.61401e-20)
(0.726507 0.0266739 -5.24142e-20)
(0.752104 0.0246713 2.05672e-19)
(0.775509 0.0228436 -6.85041e-20)
(0.796945 0.0211672 -2.33444e-20)
(0.816556 0.0196321 1.14126e-19)
(0.0083582 -0.0137516 1.425e-19)
(0.0378078 -0.0325771 -2.53525e-19)
(0.0895721 -0.0443748 -6.17105e-20)
(0.152177 -0.0509262 7.99912e-20)
(0.218167 -0.0536898 -5.21625e-20)
(0.283788 -0.0538118 9.33925e-21)
(0.346783 -0.0522097 -5.33703e-20)
(0.40582 -0.0495887 1.06164e-20)
(0.460294 -0.046457 8.26653e-20)
(0.510093 -0.0431565 -2.15419e-19)
(0.555388 -0.0398998 -2.4559e-20)
(0.596497 -0.0368053 4.67254e-20)
(0.633795 -0.0339285 8.87958e-20)
(0.667662 -0.0312858 -9.45209e-21)
(0.698458 -0.0288726 -8.34884e-20)
(0.726507 -0.0266739 7.08963e-20)
(0.752104 -0.0246713 -1.05645e-19)
(0.775509 -0.0228436 8.11173e-20)
(0.796945 -0.0211672 8.37612e-20)
(0.816556 -0.0196321 -9.86727e-20)
(0.0135429 -0.0404942 2.21664e-19)
(0.0498222 -0.0960626 -3.25268e-19)
(0.105479 -0.131025 -3.92864e-19)
(0.169981 -0.150556 -1.87528e-19)
(0.236548 -0.158906 -2.01842e-19)
(0.301889 -0.159427 4.05228e-19)
(0.364086 -0.154816 1.09865e-19)
(0.422049 -0.147152 -9.1092e-20)
(0.475338 -0.137941 3.88759e-19)
(0.523943 -0.128202 -2.58103e-20)
(0.568095 -0.118571 -3.86971e-19)
(0.60814 -0.109405 5.43569e-20)
(0.644463 -0.100875 6.83963e-20)
(0.677446 -0.0930332 7.22615e-22)
(0.70744 -0.0858677 -7.33328e-20)
(0.734763 -0.0793364 -1.93563e-19)
(0.759701 -0.0733847 -6.44792e-20)
(0.782523 -0.0679486 8.14311e-21)
(0.803431 -0.06296 3.47854e-19)
(0.822445 -0.058406 2.24264e-19)
(0.0235246 -0.0650078 1.29831e-19)
(0.0730287 -0.154647 -1.50091e-19)
(0.136291 -0.211495 3.2437e-19)
(0.20456 -0.24363 3.38467e-19)
(0.272339 -0.25773 -3.25078e-19)
(0.337216 -0.259104 -3.50804e-19)
(0.397924 -0.252056 -1.12311e-19)
(0.453844 -0.239936 1.7917e-19)
(0.504854 -0.22519 1.31303e-20)
(0.551149 -0.209493 -2.29138e-19)
(0.593078 -0.193899 2.00835e-19)
(0.631048 -0.179012 -1.45369e-19)
(0.665469 -0.165126 5.65063e-20)
(0.696722 -0.15234 -5.27676e-19)
(0.725149 -0.140642 7.59505e-19)
(0.751048 -0.129969 1.84001e-19)
(0.774698 -0.120234 -6.82354e-19)
(0.796376 -0.111329 6.03244e-19)
(0.816252 -0.103146 8.67266e-23)
(0.834108 -0.0957218 9.82215e-20)
(0.0375564 -0.0859792 -5.83956e-20)
(0.105835 -0.205405 -6.09711e-19)
(0.180055 -0.282054 4.97812e-19)
(0.253901 -0.326151 8.80569e-20)
(0.323634 -0.346231 3.8528e-20)
(0.38805 -0.349163 -5.56842e-20)
(0.446789 -0.340588 -3.59958e-19)
(0.499897 -0.324953 4.26005e-19)
(0.547716 -0.305555 4.27631e-21)
(0.590738 -0.284679 6.97535e-19)
(0.629492 -0.263795 8.63466e-20)
(0.664484 -0.243758 -9.98408e-20)
(0.696164 -0.225002 -3.679e-19)
(0.72492 -0.207686 1.95133e-19)
(0.751081 -0.191814 -6.18048e-19)
(0.774924 -0.177311 8.63631e-19)
(0.796713 -0.164062 -1.04261e-18)
(0.816735 -0.151912 7.1738e-19)
(0.83512 -0.140724 -4.43936e-19)
(0.851327 -0.130656 -2.07733e-19)
(0.0545875 -0.102342 -1.47081e-19)
(0.145981 -0.245902 -5.32018e-20)
(0.233984 -0.339535 -3.15291e-19)
(0.315112 -0.394664 3.03439e-19)
(0.387675 -0.420957 1.35433e-19)
(0.451891 -0.426334 -7.36085e-19)
(0.50848 -0.417414 1.21986e-18)
(0.558301 -0.399511 -9.67916e-19)
(0.602276 -0.376639 -4.37189e-19)
(0.641285 -0.351637 9.13994e-19)
(0.676101 -0.326369 -2.20732e-19)
(0.707367 -0.301957 -8.15842e-20)
(0.735599 -0.278988 -1.02675e-18)
(0.761205 -0.257704 1.09956e-18)
(0.784505 -0.238139 3.02846e-19)
(0.80575 -0.220224 -8.448e-19)
(0.825189 -0.203821 6.95545e-19)
(0.84312 -0.188723 -4.73367e-19)
(0.859635 -0.17477 -4.16336e-19)
(0.873808 -0.16233 1.38467e-18)
(0.0733416 -0.11335 4.81781e-19)
(0.190688 -0.274351 -1.52273e-19)
(0.29461 -0.38152 1.8581e-19)
(0.384557 -0.44644 2.56014e-21)
(0.46097 -0.479105 -3.54127e-19)
(0.52555 -0.4879 9.62751e-19)
(0.580174 -0.480002 -8.49454e-19)
(0.626603 -0.461311 7.82038e-19)
(0.666418 -0.436387 -7.81375e-19)
(0.700967 -0.408539 7.26827e-19)
(0.731327 -0.380005 -4.04234e-19)
(0.758325 -0.352171 9.9628e-19)
(0.782576 -0.325804 -1.22423e-18)
(0.804531 -0.301248 -1.08884e-19)
(0.824509 -0.27859 2.881e-19)
(0.842744 -0.257782 6.07583e-19)
(0.859463 -0.238676 3.38889e-20)
(0.874989 -0.221011 -6.89363e-19)
(0.889384 -0.204587 -3.54917e-19)
(0.901285 -0.190069 7.34742e-19)
(0.0924136 -0.118629 1.33535e-19)
(0.236842 -0.289729 9.12875e-21)
(0.357989 -0.406488 9.18427e-20)
(0.458048 -0.479628 -2.98266e-20)
(0.539444 -0.518657 4.79993e-19)
(0.605269 -0.531818 -2.35117e-19)
(0.658522 -0.526387 2.79614e-20)
(0.701873 -0.508526 2.52094e-20)
(0.737607 -0.483143 3.54148e-19)
(0.767591 -0.45391 6.0535e-20)
(0.793265 -0.423391 1.15733e-19)
(0.815693 -0.393239 6.41069e-19)
(0.83563 -0.364415 -5.96651e-19)
(0.853598 -0.337391 5.32642e-19)
(0.869943 -0.312332 -3.40366e-19)
(0.884888 -0.289231 2.99612e-19)
(0.898642 -0.267944 -5.4586e-19)
(0.91157 -0.248136 4.19435e-19)
(0.923794 -0.229511 -1.57795e-19)
(0.933499 -0.213054 -7.68433e-19)
(0.110377 -0.118196 -4.12032e-20)
(0.281209 -0.291841 -2.11078e-20)
(0.419947 -0.413906 1.43041e-19)
(0.531065 -0.493365 -2.98547e-20)
(0.618626 -0.538494 -2.62606e-19)
(0.68687 -0.556817 4.16595e-19)
(0.739762 -0.555251 -4.6718e-19)
(0.780808 -0.539875 -3.60899e-19)
(0.812984 -0.515716 -2.82449e-19)
(0.838701 -0.486674 2.54614e-19)
(0.859811 -0.455579 -2.70075e-19)
(0.877667 -0.424335 6.72668e-19)
(0.893216 -0.39411 4.05774e-19)
(0.907093 -0.36553 -8.72358e-19)
(0.919711 -0.338861 3.47609e-19)
(0.931312 -0.31415 2.4336e-19)
(0.942091 -0.291266 -3.1377e-19)
(0.952456 -0.269803 -7.11288e-19)
(0.962887 -0.24941 4.1207e-19)
(0.971592 -0.231678 1.29078e-19)
(0.125895 -0.11246 -4.36031e-20)
(0.320663 -0.281336 -1.31039e-20)
(0.476338 -0.404278 2.61578e-20)
(0.599009 -0.487836 4.88998e-20)
(0.693862 -0.538465 -4.18501e-20)
(0.765912 -0.562472 -1.35007e-19)
(0.819827 -0.565986 9.16262e-20)
(0.859781 -0.554667 -2.51846e-19)
(0.889362 -0.533411 -4.00401e-20)
(0.911506 -0.506188 -2.77708e-19)
(0.928493 -0.47601 -3.91172e-19)
(0.942007 -0.445006 4.83351e-19)
(0.953224 -0.414565 3.35106e-20)
(0.962932 -0.385505 -1.30005e-19)
(0.971636 -0.358244 -3.92332e-20)
(0.979654 -0.332938 6.09165e-20)
(0.987176 -0.309593 -1.22447e-19)
(0.994345 -0.288226 1.03152e-19)
(1.00145 -0.26906 4.60426e-19)
(1.0094 -0.251707 -4.33431e-19)
(0.137841 -0.102186 8.5155e-21)
(0.352416 -0.259648 -1.4237e-20)
(0.523329 -0.379104 -2.98689e-20)
(0.65748 -0.464278 8.61579e-20)
(0.76056 -0.519406 -8.11915e-20)
(0.837905 -0.549221 1.47553e-19)
(0.894525 -0.558706 -2.1322e-20)
(0.935017 -0.552782 2.65345e-20)
(0.963425 -0.535961 -8.85395e-20)
(0.983145 -0.512096 1.76904e-20)
(0.996879 -0.484264 -1.95046e-19)
(1.00667 -0.454751 -5.19486e-20)
(1.01396 -0.425138 -1.073e-19)
(1.01975 -0.396426 -2.047e-19)
(1.02468 -0.369179 1.59897e-19)
(1.02914 -0.343648 8.06828e-21)
(1.03334 -0.319927 3.83936e-20)
(1.03726 -0.298192 2.8467e-19)
(1.0409 -0.278579 -2.12716e-19)
(1.04546 -0.259415 7.23495e-20)
(0.145378 -0.0883663 -1.34132e-19)
(0.374265 -0.228866 1.57507e-20)
(0.557664 -0.340804 3.9418e-20)
(0.702549 -0.424921 -1.89694e-19)
(0.814462 -0.48314 2.25026e-19)
(0.898518 -0.518413 -2.59641e-19)
(0.959689 -0.534312 5.92661e-20)
(1.00267 -0.534771 5.80322e-20)
(1.03175 -0.52368 -4.3405e-21)
(1.05064 -0.504583 3.11813e-20)
(1.06243 -0.480476 -7.48975e-21)
(1.06952 -0.453722 -2.46414e-20)
(1.07366 -0.426056 3.52441e-20)
(1.0761 -0.398657 -8.85588e-20)
(1.07766 -0.372254 -7.47072e-20)
(1.07884 -0.347231 -6.21042e-20)
(1.07991 -0.323782 1.41113e-19)
(1.08084 -0.302166 1.22315e-19)
(1.08147 -0.282534 -1.1281e-19)
(1.08274 -0.263031 -2.9422e-20)
(0.147989 -0.0722667 -1.7007e-19)
(0.384701 -0.191663 2.47587e-19)
(0.576955 -0.292536 7.26956e-20)
(0.731052 -0.372907 -7.60076e-20)
(0.851858 -0.432425 1.30343e-19)
(0.943793 -0.472234 2.71767e-19)
(1.01133 -0.494445 -1.50748e-19)
(1.05893 -0.501811 -9.76679e-20)
(1.09083 -0.497393 -1.9278e-19)
(1.11089 -0.48423 1.39792e-19)
(1.12246 -0.465089 -4.23981e-20)
(1.12824 -0.442296 1.17518e-20)
(1.13032 -0.417674 1.57886e-19)
(1.13023 -0.392552 -7.26007e-20)
(1.12901 -0.367825 3.23532e-20)
(1.12732 -0.344027 -9.47977e-21)
(1.12551 -0.321466 2.75225e-22)
(1.12365 -0.300454 -1.49221e-20)
(1.12157 -0.281179 1.20546e-20)
(1.11988 -0.261984 6.87486e-20)
(0.145603 -0.0551901 1.44463e-19)
(0.383087 -0.150962 9.40066e-20)
(0.579816 -0.237986 -6.19282e-20)
(0.740852 -0.312011 -7.47078e-19)