/*--------------------------------*- C++ -*----------------------------------*\
  =========                 |
  \\      /  F ield         | OpenFOAM: The Open Source CFD Toolbox
   \\    /   O peration     | Website:  https://openfoam.org
    \\  /    A nd           | Version:  7
     \\/     M anipulation  |
\*---------------------------------------------------------------------------*/
FoamFile
{
    version     2.0;
    format      ascii;
    class       surfaceScalarField;
    location    "35";
    object      phi;
}
// * * * * * * * * * * * * * * * * * * * * * * * * * * * * * * * * * * * * * //

dimensions      [0 3 -1 0 0 0 0];

internalField   nonuniform List<scalar> 
6855
(
-7.51811e-05
5.9426e-10
7.48725e-10
-0.000609616
1.40939e-10
-0.0014916
1.7886e-10
1.66054e-10
-0.000609616
0.000609617
-0.0014916
0.000881984
-0.00240593
0.000914331
-0.0033351
0.000929166
-0.0042952
0.000960105
-0.00529603
0.00100083
-0.00634738
0.00105135
-0.00745623
0.00110884
-0.00862866
0.00117243
0.00124439
-0.00987304
-0.000600324
0.00120994
-0.00147386
0.00175552
-0.00238129
0.00182176
-0.00330385
0.00185173
-0.00425738
0.00191364
-0.00525166
0.00199511
-0.00629652
0.00209621
-0.0073991
0.00221143
-0.00856564
0.00233898
0.00248308
-0.00980434
-0.00058183
0.00179177
-0.00143849
0.00261218
-0.00233207
0.00271534
-0.00324143
0.00276109
-0.00418183
0.00285403
-0.00516297
0.00297625
-0.00619472
0.00312796
-0.00728466
0.00330137
-0.00843903
0.00349335
0.00370932
-0.00966527
-0.00055442
0.00234619
-0.00138575
0.00344351
-0.00225842
0.00358802
-0.00314806
0.00365073
-0.00406888
0.00377485
-0.00503037
0.00393774
-0.00604231
0.0041399
-0.00711283
0.00437188
-0.00824834
0.00462886
0.00491567
-0.0094547
-0.000519117
0.00286531
-0.00131589
0.00424028
-0.00216036
0.00443248
-0.00302374
0.00451412
-0.00391845
0.00466956
-0.00485368
0.00487296
-0.00583905
0.00512528
-0.00688353
0.00541636
-0.0079936
0.00573893
0.00609467
-0.00917259
-0.000478035
0.00334334
-0.00122896
0.0049912
-0.00203823
0.00524175
-0.0028694
0.00534528
-0.0037323
0.00553246
-0.00463552
0.00577618
-0.00558794
0.00607769
-0.00659914
0.00642756
-0.00767641
0.0068162
0.00723835
-0.00882009
-0.000425307
0.00376865
-0.00112364
0.00568954
-0.0018918
0.00600992
-0.00268462
0.00613809
-0.00350902
0.00635686
-0.00437289
0.00664005
-0.00528414
0.00698895
-0.0062538
0.00739721
-0.00729349
0.00785589
0.00834311
-0.00839825
-0.000362448
0.0041311
-0.00100028
0.00632736
-0.00172144
0.00673108
-0.00247069
0.00688735
-0.0032519
0.00713807
-0.00407298
0.00746113
-0.00494044
0.00785641
-0.00586329
0.00832007
-0.00685627
0.00884888
0.00939976
-0.00791293
-0.000290439
0.00442154
-0.000859569
0.00689649
-0.00152756
0.00739907
-0.00222789
0.00758768
-0.00295995
0.00787012
-0.0037307
0.00823189
-0.00454379
0.0086695
-0.00540316
0.00917943
-0.00632842
0.00977414
0.0104275
-0.0073562
-0.000209584
0.00463112
-0.000702227
0.00738914
-0.00131075
0.00800759
-0.00195724
0.00823417
-0.00263542
0.0085483
-0.00335204
0.00894851
-0.00411232
0.00942979
-0.00491903
0.00998614
-0.00577313
0.0106282
0.0114271
-0.00677271
-0.000119396
0.00475052
-0.000529429
0.00779917
-0.00107182
0.00854999
-0.00165993
0.00882227
-0.00227998
0.00916836
-0.00293711
0.00960564
-0.00363609
0.0101288
-0.00437973
0.0107298
-0.00517189
0.0114204
0.0122005
-0.00594529
-1.34034e-05
0.00476392
-0.000342443
0.00812821
-0.000811053
0.0090186
-0.00133712
0.00934833
-0.00189508
0.00972632
-0.00248802
0.0101986
-0.00312024
0.010761
-0.00379325
0.0114028
-0.00450225
0.0121294
0.0129536
-0.00525536
7.29292e-05
0.00469099
-0.000140445
0.00834158
-0.000530555
0.00940871
-0.000990548
0.00980833
-0.00148272
0.0102185
-0.00200835
0.0107242
-0.00257146
0.0113241
-0.00317639
0.0120077
-0.00382475
0.0127778
0.0136386
-0.00450973
0.000166496
0.0045245
7.45557e-05
0.00843352
-0.00023477
0.00971803
-0.000621846
0.0101954
-0.00104489
0.0106415
-0.00150092
0.0111802
-0.0019924
0.0118156
-0.00252495
0.0125403
-0.00309744
0.0133502
0.0142477
-0.00370656
0.000261796
0.0042627
0.000285949
0.00840937
7.62051e-05
0.00992777
-0.000233772
0.0105054
-0.000584082
0.0109918
-0.000967635
0.0115638
-0.00138358
0.0122315
-0.00183853
0.0129952
-0.00233104
0.0138428
0.0147738
-0.00285705
0.000353321
0.00390938
0.00050694
0.00825575
0.000407832
0.0100269
0.00017575
0.0107375
-0.000104538
0.0112721
-0.000410821
0.0118701
-0.000747855
0.0125686
-0.00111983
0.0133672
-0.00152981
0.0142527
0.0152127
-0.00196875
0.000435559
0.00347382
0.000727006
0.0079643
0.000745341
0.0100085
0.000606023
0.0108768
0.000404018
0.0114741
0.000169238
0.0121048
-9.16746e-05
0.0128295
-0.00037495
0.0136505
-0.000694041
0.0145718
0.0155645
-0.00104587
0.000501435
0.00297238
0.000937014
0.00752873
0.00108602
0.00985954
0.00104637
0.0109164
0.000927449
0.0115931
0.000774294
0.012258
0.000597021
0.0130067
0.000394969
0.0138525
0.000171981
0.0147948
0.0158369
-0.000100426
0.000542914
0.00242947
0.00112672
0.00694492
0.00142169
0.00956458
0.00149357
0.0108445
0.0014627
0.0116239
0.00139171
0.012329
0.00129863
0.0130998
0.00118592
0.0139652
0.0010506
0.0149301
0.0159824
0.000905093
0.000553103
0.00187637
0.00128375
0.00621427
0.00174015
0.00910817
0.00193967
0.010645
0.00200582
0.0115578
0.00201987
0.0123149
0.00201182
0.0131079
0.00198925
0.0139878
0.00195282
0.0149666
0.016025
0.00191029
0.000529184
0.00134718
0.00139415
0.00534931
0.00202563
0.00847669
0.00237274
0.0102979
0.00254998
0.0113805
0.00265472
0.0122102
0.00273318
0.0130294
0.00280093
0.01392
0.00286038
0.0149071
0.0159728
0.00291256
0.000473719
0.000873465
0.00144307
0.00437996
0.00225718
0.00766258
0.0027769
0.0097782
0.00308509
0.0110724
0.00329008
0.0120052
0.00345774
0.0128618
0.00361517
0.0137626
0.0037682
0.0147541
0.0158239
0.00391706
0.0003941
0.000479365
0.00140761
0.00336645
0.00240835
0.00666184
0.00312871
0.00905784
0.00359514
0.0106059
0.00391661
0.0116837
0.00417915
0.0125992
0.0044274
0.0135144
0.00467503
0.0145065
0.015578
0.00492095
0.000302581
0.000176784
0.00128274
0.00238629
0.00245099
0.00549359
0.00339487
0.00811396
0.0040544
0.00994639
0.00451894
0.0112192
0.00488964
0.0122285
0.00523117
0.0131728
0.00557466
0.014163
0.0152325
0.00592015
0.000214486
-3.77026e-05
0.00108532
0.00151546
0.00235799
0.00422093
0.00353149
0.00694046
0.00442404
0.00905384
0.00507134
0.0105719
0.00557432
0.0117256
0.00602043
0.0127267
0.00645946
0.0137239
0.0147939
0.00689804
0.000141723
-0.000179426
0.000848482
0.000808697
0.00211425
0.00295516
0.00348721
0.0055675
0.00464671
0.00789434
0.00553002
0.00968857
0.0062084
0.0110472
0.00677736
0.0121578
0.00732573
0.0131756
0.0142603
0.00785934
8.69874e-05
-0.000266413
0.00061312
0.000282565
0.00174246
0.00182582
0.00321793
0.00409203
0.0046465
0.00646577
0.00582242
0.00851264
0.00674114
0.0101285
0.00748128
0.0114176
0.00814588
0.012511
0.0136164
0.00878983
4.79143e-05
-0.000314328
0.000412984
-8.25049e-05
0.00131473
0.000924079
0.00272832
0.00267844
0.00434183
0.00485226
0.00584214
0.00701233
0.00708225
0.00888836
0.0080664
0.0104335
0.00891813
0.0116592
0.0128836
0.00965088
2.17326e-05
-0.00033606
0.000261636
-0.000322408
0.00091587
0.000269846
0.00210696
0.00148735
0.00371733
0.00324189
0.00545761
0.00527205
0.00708363
0.00726233
0.00841751
0.00909959
0.00953816
0.0105386
0.011917
0.0105048
6.16125e-06
-0.000342222
0.000156328
-0.000472575
0.000598471
-0.000172297
0.00149096
0.000594857
0.00288534
0.00184752
0.00464703
0.00351036
0.00654063
0.00536873
0.00832976
0.00731046
0.00985917
0.00900917
0.0107824
0.0109938
-2.02456e-06
-0.000340197
8.73621e-05
-0.000561962
0.00037104
-0.000455975
0.000981575
-1.5678e-05
0.00203831
0.00079078
0.00357669
0.00197198
0.00545174
0.00349368
0.00749949
0.00526271
0.00960495
0.0069037
0.00914265
0.0112447
-6.43091e-06
-0.000333766
4.22202e-05
-0.000610613
0.000214698
-0.000628453
0.000604738
-0.000405718
0.00132774
6.77806e-05
0.00249254
0.000807183
0.00407863
0.00190759
0.00604768
0.00329366
0.00840972
0.00454166
0.00702512
0.0105273
-9.53817e-06
-0.000324228
8.61537e-06
-0.000628767
0.000101463
-0.000721301
0.000333759
-0.000638013
0.000790011
-0.000388471
0.00156508
3.21153e-05
0.00275043
0.000722242
0.00434135
0.00170274
0.00642585
0.00245716
0.00465022
0.00880075
-1.44474e-05
-0.000309781
-2.44266e-05
-0.000618787
6.82144e-06
-0.000752549
0.000123884
-0.000755076
0.000383003
-0.00064759
0.000846898
-0.000431779
0.00163402
-6.48818e-05
0.00275378
0.000582977
0.00429409
0.000916859
0.00250137
0.00644294
-2.29165e-05
-0.000286864
-6.12868e-05
-0.000580417
-8.40061e-05
-0.00072983
-5.82424e-05
-0.000780839
5.59586e-05
-0.000761791
0.000290597
-0.000666418
0.00074039
-0.000514675
0.00145002
-0.000126649
0.00241903
-5.21567e-05
0.000960294
0.00396011
-3.44153e-05
-0.000252449
-0.00010229
-0.000512542
-0.000174987
-0.000657133
-0.000226371
-0.000729455
-0.000232674
-0.000755489
-0.0001634
-0.000735693
3.72928e-05
-0.000715367
0.000387387
-0.000476744
0.000888618
-0.000553387
7.92334e-05
0.00176968
-4.74746e-05
-0.000204974
-0.000144347
-0.00041567
-0.000262565
-0.000538915
-0.000380752
-0.000611268
-0.000481978
-0.000654263
-0.000541317
-0.000676353
-0.000562036
-0.000694648
-0.000450116
-0.000588664
-0.000312378
-0.000691125
-0.000292854
5.97096e-05
-5.99908e-05
-0.000144983
-0.00018243
-0.00029323
-0.00033884
-0.000382505
-0.000510789
-0.000439319
-0.000685604
-0.000479447
-0.000851109
-0.000510849
-0.00101119
-0.000534566
-0.00109304
-0.000506817
-0.00121531
-0.000568852
-0.00038365
-0.00112451
-6.98017e-05
-7.51817e-05
-0.000211322
-0.00015171
-0.000395337
-0.00019849
-0.000605189
-0.000229467
-0.000831634
-0.000253002
-0.00106924
-0.000273244
-0.0013153
-0.000288503
-0.00153426
-0.000287855
-0.00178856
-0.00031456
-0.00025167
-0.00192054
-7.51811e-05
-0.000226891
-0.00042538
-0.000654847
-0.00090785
-0.0011811
-0.0014696
-0.00175746
-0.00207203
-0.00232371
-0.0100966
0.00022358
-0.0102682
0.000171567
-0.0104186
0.00015043
-0.0105367
0.000118073
-0.0106378
0.000101113
-0.0107176
7.97453e-05
-0.0107842
6.66499e-05
-0.0108362
5.19853e-05
-0.0108782
4.19688e-05
-0.0109097
3.15586e-05
-0.0109336
2.38606e-05
-0.0109498
1.623e-05
-0.0109601
1.02539e-05
-0.0109647
4.59692e-06
-0.0109649
2.53627e-07
-0.0109603
-4.56463e-06
-0.0109518
-8.52667e-06
-0.0109397
-1.21487e-05
-0.0109244
-1.53071e-05
-0.0109061
-1.82286e-05
-0.0108853
-2.08326e-05
-0.010862
-2.32559e-05
-0.0108366
-2.54587e-05
-0.0108091
-2.75261e-05
-0.0107796
-2.94416e-05
-0.0107484
-3.12579e-05
-0.0107154
-3.29725e-05
-0.0106808
-3.46301e-05
-0.0106445
-3.62554e-05
-3.79003e-05
-0.0100307
0.000449914
-0.0102041
0.000345047
-0.0103565
0.000302736
-0.0104762
0.000237791
-0.0105791
0.000204051
-0.0106607
0.000161342
-0.0107294
0.000135326
-0.0107835
0.000106057
-0.0108276
8.61382e-05
-0.0108614
6.5359e-05
-0.0108876
5.00269e-05
-0.0109062
3.47915e-05
-0.0109188
2.28772e-05
-0.0109257
1.15436e-05
-0.0109281
2.61989e-06
-0.010926
-6.60331e-06
-0.01092
-1.45322e-05
-0.0109104
-2.18297e-05
-0.0108975
-2.81425e-05
-0.0108818
-3.40022e-05
-0.0108634
-3.92067e-05
-0.0108426
-4.40602e-05
-0.0108196
-4.84666e-05
-0.0107945
-5.26071e-05
-0.0107675
-5.64413e-05
-0.0107387
-6.00794e-05
-0.0107081
-6.35139e-05
-0.0106759
-6.68356e-05
-0.0106421
-7.0091e-05
-7.33823e-05
-0.00989665
0.000681292
-0.010074
0.000522403
-0.0102304
0.000459109
-0.0103538
0.000361221
-0.0104608
0.000311022
-0.0105464
0.000246962
-0.0106194
0.000208294
-0.0106778
0.00016448
-0.0107265
0.000134832
-0.0107649
0.000103731
-0.0107957
8.08651e-05
-0.010819
5.80593e-05
-0.0108363
4.02519e-05
-0.010848
2.31636e-05
-0.0108548
9.45206e-06
-0.0108578
-3.58655e-06
-0.0108567
-1.56183e-05
-0.0108519
-2.6615e-05
-0.010844
-3.60659e-05
-0.0108331
-4.48712e-05
-0.0108197
-5.2678e-05
-0.0108038
-5.99712e-05
-0.0107856
-6.65884e-05
-0.0107654
-7.28118e-05
-0.0107433
-7.85725e-05
-0.0107193
-8.40436e-05
-0.0106936
-8.9209e-05
-0.0106663
-9.42073e-05
-0.0106373
-9.9102e-05
-0.000104043
-0.00969289
0.000919483
-0.00987602
0.000705541
-0.0100389
0.000621966
-0.0101684
0.000490763
-0.010282
0.00042458
-0.0103741
0.00033909
-0.0104539
0.000288072
-0.0105191
0.000229721
-0.0105748
0.000190526
-0.0106202
0.000149127
-0.0106582
0.00011883
-0.0106886
8.84705e-05
-0.0107132
6.48189e-05
-0.0107319
4.19486e-05
-0.0107459
2.33798e-05
-0.0107557
6.19766e-06
-0.0107621
-9.19667e-06
-0.0107647
-2.39869e-05
-0.0107641
-3.66318e-05
-0.0107606
-4.84101e-05
-0.0107545
-5.88308e-05
-0.0107458
-6.85773e-05
-0.010735
-7.74177e-05
-0.0107221
-8.57372e-05
-0.0107072
-9.34399e-05
-0.0106905
-0.000100761
-0.010672
-0.000107674
-0.0106519
-0.000114367
-0.0106301
-0.000120915
-0.000127509
-0.00941917
0.00116606
-0.00961
0.000896374
-0.00978186
0.000793821
-0.00992002
0.000628927
-0.0100428
0.000547368
-0.010144
0.000440312
-0.0102332
0.000377257
-0.0103078
0.000304338
-0.0103731
0.000255756
-0.010428
0.000204056
-0.0104756
0.000166407
-0.0105156
0.000128488
-0.0105498
9.90305e-05
-0.0105783
7.04131e-05
-0.010602
4.70885e-05
-0.0106208
2.49929e-05
-0.0106367
6.73938e-06
-0.0106492
-1.14723e-05
-0.0106584
-2.74781e-05
-0.0106646
-4.21977e-05
-0.0106681
-5.52951e-05
-0.0106692
-6.75063e-05
-0.010668
-7.85831e-05
-0.0106647
-8.90308e-05
-0.0106595
-9.86958e-05
-0.0106523
-0.000107886
-0.0106435
-0.000116571
-0.0106328
-0.000124986
-0.0106205
-0.000133202
-0.000141452
-0.00907644
0.00142241
-0.0092767
0.00109663
-0.00945982
0.000976941
-0.00960905
0.000778159
-0.00974373
0.000682052
-0.00985675
0.000553327
-0.00995803
0.000478537
-0.0100447
0.000390978
-0.010122
0.000333107
-0.010189
0.000271064
-0.0102487
0.00022609
-0.0103008
0.00018058
-0.0103471
0.000145316
-0.0103876
0.000110942
-0.0104235
8.29517e-05
-0.0104547
5.62473e-05
-0.0104817
3.3659e-05
-0.0105058
1.26344e-05
-0.0105275
-5.74688e-06
-0.0105457
-2.40337e-05
-0.0105612
-3.97571e-05
-0.0105743
-5.44109e-05
-0.0105851
-6.77908e-05
-0.0105937
-8.04092e-05
-0.0106004
-9.20351e-05
-0.0106051
-0.00010313
-0.0106081
-0.000113631
-0.0106092
-0.000123796
-0.0106088
-0.000133698
-0.000143604
-0.00866671
0.00169087
-0.00887819
0.00130812
-0.00907519
0.00117394
-0.00923806
0.000941024
-0.00938703
0.000831028
-0.00951434
0.000680639
-0.00963009
0.00059428
-0.00973124
0.000492134
-0.00982312
0.000424991
-0.00990467
0.00035261
-0.00997886
0.000300279
-0.0100454
0.000247154
-0.0101062
0.000206043
-0.0101611
0.000165881
-0.0102114
0.00013321
-0.0102571
0.000101985
-0.010299
7.55428e-05
-0.0103369
5.05625e-05
-0.0103715
2.88565e-05
-0.0104044
8.81005e-06
-0.0104345
-9.59841e-06
-0.0104617
-2.72443e-05
-0.0104867
-4.28148e-05
-0.0105095
-5.75435e-05
-0.0105303
-7.12556e-05
-0.0105491
-8.43087e-05
-0.0105661
-9.66601e-05
-0.0105813
-0.000108601
-0.0105948
-0.000120216
-0.000131774
-0.00819316
0.0019711
-0.00841739
0.00153235
-0.00862891
0.00138546
-0.0088073
0.00111942
-0.00897277
0.000996496
-0.00911719
0.000825055
-0.0092502
0.000727293
-0.00936867
0.000610604
-0.00947777
0.000534092
-0.00957643
0.000451266
-0.00966761
0.000391459
-0.00975105
0.0003306
-0.00982856
0.000283547
-0.00990017
0.000237497
-0.00996704
0.000200076
-0.0100293
0.000164277
-0.0100878
0.00013402
-0.0101426
0.000105379
-0.0101942
8.04271e-05
-0.0102424
5.70072e-05
-0.0102881
3.60954e-05
-0.0103317
1.64127e-05
-0.0103738
-7.78249e-07
-0.0104127
-1.85766e-05
-0.0104496
-3.4383e-05
-0.0104847
-4.92555e-05
-0.0105179
-6.34765e-05
-0.0105491
-7.73111e-05
-0.0105787
-9.06752e-05
-0.00010386
-0.00765697
0.00227187
-0.00789775
0.00177313
-0.00812705
0.00161476
-0.00832532
0.00131768
-0.00850899
0.00118017
-0.00867267
0.000988736
-0.00882422
0.000878834
-0.00896177
0.000748161
-0.00908969
0.000662006
-0.00920735
0.000568932
-0.00931741
0.000501516
-0.00941976
0.000432951
-0.00951608
0.000379871
-0.00960649
0.0003279
-0.00969207
0.000285654
-0.009773
0.000245211
-0.00985005
0.000211066
-0.00992343
0.000178764
-0.00999366
0.000150658
-0.0100608
0.000124153
-0.0101252
0.00010046
-0.010187
7.82201e-05
-0.0102459
5.81114e-05
-0.0103033
3.88998e-05
-0.0103588
2.10764e-05
-0.0104124
4.31343e-06
-0.0104637
-1.21536e-05
-0.010513
-2.79959e-05
-0.0105606
-4.30744e-05
-5.78716e-05
-0.0070855
0.00258466
-0.00733514
0.00202277
-0.00757528
0.00185489
-0.00778839
0.0015308
-0.00799103
0.00138281
-0.00817511
0.00117282
-0.00834939
0.00105311
-0.00850897
0.000907742
-0.00865952
0.000812553
-0.00879903
0.000708446
-0.00893099
0.000633477
-0.00905468
0.000556641
-0.00917226
0.000497449
-0.00928355
0.000439193
-0.00938992
0.000392027
-0.00949143
0.000346717
-0.00958896
0.000308593
-0.00968264
0.000272452
-0.00977308
0.000241094
-0.00986043
0.000211499
-0.00994511
0.000185143
-0.0100272
0.000160313
-0.0101068
0.000137679
-0.0101841
0.000116194
-0.0102593
9.63567e-05
-0.0103325
7.74226e-05
-0.0104038
5.9212e-05
-0.0104732
4.14317e-05
-0.0105407
2.4383e-05
8.02515e-06
-0.0126722
0.00237485
0.012882
-0.0125783
0.00192891
-0.0125719
0.00184851
-0.0125698
0.00152866
-0.0126015
0.00141451
-0.0126263
0.00119765
-0.0126663
0.00109307
-0.0127012
0.000942636
-0.0127419
0.000853286
-0.0127784
0.00074492
-0.0128162
0.00067127
-0.0128503
0.00059078
-0.0128837
0.000530843
-0.0129139
0.000469411
-0.0129425
0.000420627
-0.0129683
0.000372539
-0.0129922
0.000332513
-0.0130137
0.000293939
-0.0130333
0.000260656
-0.0130507
0.000228935
-0.0130664
0.000200783
-0.0130801
0.000174036
-0.0130921
0.000149669
-0.0131024
0.000126483
-0.013111
0.000105004
-0.0131179
8.43467e-05
-0.0131234
6.46695e-05
-0.0131275
4.5517e-05
-0.0131302
2.70866e-05
8.96709e-06
-0.0128909
0.00221091
0.0130548
-0.012828
0.00186603
-0.0127587
0.00177924
-0.0127418
0.00151169
-0.0127364
0.0014091
-0.0127483
0.00120954
-0.0127662
0.00111101
-0.012789
0.000965487
-0.0128151
0.000879378
-0.0128418
0.000771564
-0.0128694
0.000698913
-0.012896
0.000617312
-0.0129221
0.000556984
-0.0129465
0.000493851
-0.0129699
0.000443946
-0.0129913
0.000394011
-0.0130114
0.000352545
-0.0130296
0.000312161
-0.0130463
0.000277346
-0.0130613
0.000243931
-0.0130748
0.000214265
-0.0130867
0.000185937
-0.0130971
0.000160144
-0.0131061
0.000135496
-0.0131137
0.000112576
-0.0131198
9.04824e-05
-0.0131247
6.94765e-05
-0.0131282
4.9045e-05
-0.0131304
2.92858e-05
9.71713e-06
-0.0130737
0.00206521
0.0132194
-0.0130009
0.00179328
-0.0129258
0.00170414
-0.0128944
0.00148022
-0.0128676
0.00138233
-0.0128643
0.00120625
-0.0128651
0.0011118
-0.012876
0.000976373
-0.0128891
0.000892486
-0.0129062
0.00078864
-0.0129241
0.000716841
-0.0129431
0.000636319
-0.012962
0.000575875
-0.0129806
0.000512456
-0.0129985
0.000461841
-0.0130155
0.000411003
-0.0130315
0.000368511
-0.0130463
0.000326971
-0.0130599
0.000290994
-0.0130723
0.000256347
-0.0130835
0.000225476
-0.0130935
0.000195921
-0.0131023
0.00016895
-0.0131099
0.000143106
-0.0131164
0.000119003
-0.0131216
9.57365e-05
-0.0131257
7.35955e-05
-0.0131287
5.2025e-05
-0.0131305
3.10981e-05
1.03231e-05
-0.0132277
0.0019358
0.0133571
-0.0131433
0.00170888
-0.0130675
0.00162841
-0.0130241
0.00143681
-0.0129869
0.00134512
-0.0129702
0.00118957
-0.0129584
0.00110001
-0.012958
0.000975913
-0.0129603
0.000894818
-0.0129682
0.000796583
-0.0129775
0.000726125
-0.0129893
0.000648078
-0.0130014
0.000588013
-0.0130143
0.000525377
-0.013027
0.000474529
-0.0130396
0.000423577
-0.0130516
0.00038049
-0.013063
0.000338379
-0.0130736
0.00030161
-0.0130834
0.000266172
-0.0130924
0.000234413
-0.0131004
0.00020397
-0.0131075
0.000176075
-0.0131137
0.000149305
-0.013119
0.000124261
-0.0131233
0.000100064
-0.0131267
7.69897e-05
-0.0131292
5.44717e-05
-0.0131306
3.25731e-05
1.08143e-05
-0.0133531
0.00181684
0.013472
-0.0132646
0.0016204
-0.0131877
0.00155154
-0.0131354
0.00138447
-0.0130916
0.00130133
-0.0130646
0.00116261
-0.0130437
0.00107909
-0.0130334
0.000965629
-0.013027
0.000888386
-0.0130266
0.000796228
-0.0130284
0.000727928
-0.0130334
0.000653084
-0.0130395
0.000594053
-0.013047
0.000532903
-0.0130548
0.000482363
-0.0130632
0.000431898
-0.0130713
0.000388665
-0.0130794
0.000346472
-0.0130871
0.000309286
-0.0130944
0.000273449
-0.0131011
0.000241115
-0.0131072
0.000210103
-0.0131127
0.000181546
-0.0131175
0.000154112
-0.0131216
0.000128361
-0.013125
0.000103461
-0.0131277
7.96557e-05
-0.0131296
5.63956e-05
-0.0131307
3.37309e-05
1.12009e-05
-0.0134554
0.00170451
0.0135677
-0.013367
0.00153207
-0.0132893
0.00147383
-0.0132314
0.0013265
-0.0131825
0.00125249
-0.013148
0.00112806
-0.0131201
0.00105126
-0.0131019
0.00094742
-0.0130883
0.000874792
-0.0130808
0.000788694
-0.0130762
0.000723286
-0.0130751
0.00065201
-0.0130757
0.000594639
-0.0130782
0.000535441
-0.0130816
0.000485732
-0.0130859
0.000436207
-0.0130905
0.000393264
-0.0130954
0.00035139
-0.0131003
0.000314149
-0.0131051
0.000278255
-0.0131096
0.000245654
-0.0131139
0.000214361
-0.0131177
0.000185403
-0.0131212
0.000157557
-0.0131241
0.000131327
-0.0131266
0.00010594
-0.0131286
8.16089e-05
-0.01313
5.78108e-05
-0.0131308
3.45829e-05
1.14866e-05
-0.0135395
0.00159732
0.0136467
-0.0134528
0.00144534
-0.013375
0.00139602
-0.0133138
0.00126538
-0.0132612
0.00119989
-0.0132212
0.00108801
-0.0131879
0.00101801
-0.0131635
0.000922995
-0.013144
0.000855328
-0.0131305
0.000775142
-0.0131203
0.000713113
-0.0131139
0.0006456
-0.0131096
0.000590381
-0.0131077
0.000533463
-0.013107
0.000485031
-0.0131076
0.000436799
-0.0131088
0.000394535
-0.0131108
0.000353314
-0.013113
0.000316353
-0.0131154
0.000280703
-0.0131179
0.00024812
-0.0131203
0.000216812
-0.0131226
0.000187703
-0.0131247
0.000159679
-0.0131266
0.000133192
-0.0131282
0.000107529
-0.0131295
8.28723e-05
-0.0131304
5.87347e-05
-0.0131309
3.51405e-05
1.16747e-05
-0.0136089
0.00149485
0.0137113
-0.0135242
0.00136068
-0.0134469
0.00131876
-0.0133842
0.00120265
-0.013329
0.00114471
-0.0132851
0.00104406
-0.0132476
0.000980538
-0.0132184
0.000893729
-0.0131941
0.000831071
-0.0131756
0.000756628
-0.0131607
0.000698227
-0.0131497
0.000634588
-0.0131412
0.000581858
-0.0131352
0.000527458
-0.0131308
0.000480654
-0.013128
0.000433998
-0.0131262
0.000392741
-0.0131253
0.000352455
-0.013125
0.00031607
-0.0131253
0.000280926
-0.0131258
0.000248624
-0.0131265
0.000217541
-0.0131273
0.000188515
-0.0131282
0.000160532
-0.013129
0.000133999
-0.0131297
0.00010826
-0.0131303
8.34732e-05
-0.0131308
5.91873e-05
-0.013131
3.54159e-05
1.17687e-05
-0.0136659
0.00139693
0.0137638
-0.0135836
0.00127834
-0.0135074
0.00124254
-0.013444
0.00113927
-0.0133872
0.00108794
-0.0133406
0.000997417
-0.0132999
0.00093988
-0.0132669
0.000860717
-0.0132388
0.000802935
-0.0132162
0.00073405
-0.0131973
0.000679365
-0.0131824
0.000619647
-0.0131701
0.000569616
-0.0131606
0.000517908
-0.0131529
0.000472989
-0.0131471
0.000428133
-0.0131425
0.00038815
-0.013139
0.000349037
-0.0131365
0.000313481
-0.0131346
0.000279077
-0.0131333
0.00024729
-0.0131324
0.000216649
-0.0131318
0.00018792
-0.0131314
0.000160181
-0.0131312
0.000133799
-0.0131311
0.000108173
-0.0131311
8.34428e-05
-0.0131311
5.91905e-05
-0.0131311
3.54224e-05
1.17732e-05
-0.0137125
0.00130337
0.0138061
-0.0136327
0.00119846
-0.0135579
0.00116776
-0.0134945
0.00107588
-0.0134369
0.00103032
-0.0133884
0.000948957
-0.0133454
0.000896887
-0.0133095
0.000824836
-0.0132783
0.000771708
-0.0132524
0.000708168
-0.0132302
0.000657184
-0.013212
0.00060138
-0.0131965
0.000554163
-0.0131839
0.000505261
-0.0131733
0.00046241
-0.0131647
0.000419532
-0.0131576
0.000381031
-0.0131518
0.00034329
-0.0131471
0.000308777
-0.0131434
0.000275313
-0.0131403
0.000244246
-0.0131379
0.000214243
-0.013136
0.000186006
-0.0131345
0.000158697
-0.0131334
0.000132649
-0.0131325
0.000107314
-0.0131319
8.28156e-05
-0.0131315
5.87686e-05
-0.0131312
3.51746e-05
1.16929e-05
-0.0137504
0.00121397
0.0138398
-0.013673
0.00112112
-0.0135999
0.00109467
-0.013537
0.00101291
-0.0134791
0.000972416
-0.0134295
0.00089934
-0.0133848
0.000852246
-0.0133468
0.000786788
-0.0133131
0.000738054
-0.0132846
0.000679617
-0.0132596
0.00063226
-0.0132386
0.000580317
-0.0132204
0.000535963
-0.013205
0.000489933
-0.0131919
0.000449274
-0.0131809
0.000408503
-0.0131715
0.000371647
-0.0131636
0.000335442
-0.013157
0.000302147
-0.0131515
0.000269798
-0.0131469
0.00023963
-0.0131431
0.000210439
-0.0131399
0.000182868
-0.0131374
0.000156157
-0.0131354
0.000130613
-0.0131338
0.000105732
-0.0131326
8.16286e-05
-0.0131318
5.79476e-05
-0.0131313
3.46878e-05
1.1533e-05
-0.0137808
0.00112851
0.0138663
-0.013706
0.00104631
-0.0136348
0.00102343
-0.0135725
0.000950676
-0.0135148
0.000914644
-0.0134645
0.000849064
-0.0134187
0.000806499
-0.0133791
0.000747136
-0.0133436
0.000702528
-0.0133129
0.000648933
-0.0132857
0.000605092
-0.0132623
0.000556921
-0.0132418
0.000515433
-0.0132241
0.000472298
-0.0132088
0.000433911
-0.0131956
0.00039534
-0.0131842
0.000360252
-0.0131745
0.000325711
-0.0131661
0.00029378
-0.013159
0.000262692
-0.013153
0.000233577
-0.0131479
0.00020535
-0.0131436
0.000178601
-0.0131401
0.000152642
-0.0131372
0.000127753
-0.013135
0.000103479
-0.0131333
7.99207e-05
-0.0131321
5.6755e-05
-0.0131314
3.39783e-05
1.12987e-05
-0.013805
0.00104675
0.0138868
-0.0137327
0.000973981
-0.0136634
0.000954122
-0.0136021
0.0008894
-0.0135447
0.000857307
-0.0134942
0.000798509
-0.0134478
0.000760069
-0.013407
0.00070633
-0.01337
0.000665586
-0.0133376
0.000616565
-0.0133087
0.000576108
-0.0132833
0.000531593
-0.0132608
0.000492944
-0.0132412
0.000452693
-0.013224
0.000416624
-0.0132089
0.000380311
-0.0131958
0.000347083
-0.0131844
0.000314306
-0.0131744
0.000283858
-0.0131659
0.000254153
-0.0131585
0.000226223
-0.0131523
0.000199092
-0.013147
0.000173302
-0.0131426
0.000148231
-0.0131389
0.000124137
-0.0131361
0.000100606
-0.0131339
7.77315e-05
-0.0131324
5.52185e-05
-0.0131314
3.30626e-05
1.09957e-05
-0.013824
0.000968453
0.0139023
-0.013754
0.000904049
-0.0136867
0.000886761
-0.0136265
0.000829218
-0.0135698
0.00080062
-0.0135193
0.000747963
-0.0134725
0.000713285
-0.0134309
0.00066473
-0.0133929
0.000627599
-0.0133592
0.000582883
-0.0133288
0.00054567
-0.0133019
0.000504678
-0.0132777
0.000468819
-0.0132565
0.000431419
-0.0132375
0.000397685
-0.0132209
0.000363664
-0.0132062
0.000332361
-0.0131933
0.000301423
-0.013182
0.000272552
-0.0131721
0.00024433
-0.0131636
0.000217696
-0.0131563
0.000191777
-0.0131501
0.000167065
-0.0131448
0.000143005
-0.0131405
0.000119829
-0.0131371
9.71664e-05
-0.0131345
7.51009e-05
-0.0131326
5.33663e-05
-0.0131315
3.19575e-05
1.06295e-05
-0.0138386
0.000893367
0.0139137
-0.013771
0.000836406
-0.0137055
0.000821321
-0.0136465
0.000770207
-0.0135906
0.000744725
-0.0135403
0.000697636
-0.0134934
0.000666397
-0.0134513
0.00062262
-0.0134126
0.000588866
-0.0133779
0.000548196
-0.0133463
0.000514082
-0.0133181
0.000476472
-0.0132926
0.00044334
-0.0132699
0.000408738
-0.0132496
0.000377339
-0.0132315
0.000345621
-0.0132155
0.000316287
-0.0132013
0.000287243
-0.0131887
0.000260024
-0.0131778
0.000233367
-0.0131682
0.000208123
-0.0131599
0.000183513
-0.0131529
0.000159984
-0.0131469
0.00013704
-0.013142
0.000114893
-0.013138
9.32108e-05
-0.013135
7.20682e-05
-0.0131328
5.12262e-05
-0.0131316
3.06794e-05
1.02055e-05
-0.0138496
0.000821247
0.0139217
-0.0137842
0.000770928
-0.0137206
0.000757742
-0.0136628
0.000712402
-0.0136078
0.000689712
-0.0135578
0.000647681
-0.013511
0.000619593
-0.0134686
0.000580224
-0.0134294
0.000549628
-0.0133939
0.000512756
-0.0133614
0.000481599
-0.0133322
0.000447227
-0.0133056
0.000416749
-0.0132817
0.000384882
-0.0132602
0.000355802
-0.013241
0.000326382
-0.0132237
0.000299046
-0.0132084
0.000271932
-0.0131948
0.000246423
-0.0131828
0.000221397
-0.0131723
0.00019762
-0.0131632
0.000174402
-0.0131554
0.000152146
-0.0131488
0.000130412
-0.0131433
0.000109392
-0.0131388
8.87893e-05
-0.0131354
6.86717e-05
-0.013133
4.88252e-05
-0.0131316
2.92446e-05
9.72927e-06
-0.0138577
0.00075185
0.0139271
-0.0137943
0.000707476
-0.0137325
0.000695941
-0.0136759
0.000655802
-0.0136218
0.000635626
-0.0135723
0.000598201
-0.0135257
0.000573011
-0.0134832
0.000537712
-0.0134436
0.000510074
-0.0134076
0.000476768
-0.0133745
0.000448431
-0.0133444
0.000417153
-0.0133169
0.000389252
-0.0132921
0.00036005
-0.0132695
0.000333263
-0.0132493
0.000306127
-0.013231
0.000280801
-0.0132147
0.000255642
-0.0132002
0.000231886
-0.0131874
0.000208541
-0.013176
0.000186296
-0.0131662
0.000164539
-0.0131577
0.000143634
-0.0131504
0.000123192
-0.0131444
0.000103385
-0.0131396
8.39497e-05
-0.0131359
6.49481e-05
-0.0131332
4.61893e-05
-0.0131317
2.76686e-05
9.20586e-06
-0.0138634
0.00068494
0.0139303
-0.0138018
0.000645908
-0.0137417
0.000635818
-0.0136863
0.000600381
-0.0136331
0.000582481
-0.0135842
0.000549261
-0.0135379
0.000526747
-0.0134954
0.000495214
-0.0134557
0.000470351
-0.0134193
0.000440397
-0.0133856
0.000414749
-0.0133549
0.000386429
-0.0133267
0.000361025
-0.0133011
0.000334414
-0.0132777
0.000309888
-0.0132566
0.00028501
-0.0132375
0.000261699
-0.0132203
0.000238509
-0.013205
0.000216537
-0.0131914
0.000194914
-0.0131793
0.000174252
-0.0131688
0.000154015
-0.0131597
0.000134527
-0.0131519
0.000115446
-0.0131455
9.69269e-05
-0.0131403
7.87373e-05
-0.0131362
6.09326e-05
-0.0131334
4.33436e-05
-0.0131317
2.59663e-05
8.64027e-06
-0.0138671
0.000620288
0.0139318
-0.0138073
0.000586074
-0.0137487
0.00057726
-0.0136945
0.00054609
-0.0136422
0.000530264
-0.0135939
0.000500899
-0.013548
0.000480862
-0.0135056
0.000452824
-0.0134658
0.000430572
-0.0134292
0.000403774
-0.0133951
0.000380691
-0.0133639
0.0003552
-0.0133351
0.000332216
-0.0133088
0.000308122
-0.0132847
0.000285819
-0.0132629
0.00026317
-0.0132431
0.000241871
-0.0132252
0.000220653
-0.0132092
0.000200489
-0.0131949
0.000180617
-0.0131822
0.000161581
-0.0131711
0.000142911
-0.0131615
0.000124897
-0.0131533
0.000107237
-0.0131464
9.00711e-05
-0.0131409
7.3195e-05
-0.0131366
5.6658e-05
-0.0131336
4.03115e-05
-0.0131317
2.41519e-05
8.03718e-06
-0.0138694
0.00055767
0.013932
-0.0138111
0.000527824
-0.013754
0.000520146
-0.0137008
0.000492866
-0.0136495
0.000478941
-0.0136017
0.000453123
-0.0135562
0.000435392
-0.013514
0.000410609
-0.0134743
0.000390819
-0.0134375
0.000366999
-0.0134032
0.00034637
-0.0133715
0.000323587
-0.0133423
0.000302948
-0.0133155
0.000281298
-0.0132908
0.000261178
-0.0132684
0.000240727
-0.0132479
0.00022143
-0.0132295