/*--------------------------------*- C++ -*----------------------------------*\
  =========                 |
  \\      /  F ield         | OpenFOAM: The Open Source CFD Toolbox
   \\    /   O peration     | Website:  https://openfoam.org
    \\  /    A nd           | Version:  7
     \\/     M anipulation  |
\*---------------------------------------------------------------------------*/
FoamFile
{
    version     2.0;
    format      ascii;
    class       volVectorField;
    location    "35";
    object      U;
}
// * * * * * * * * * * * * * * * * * * * * * * * * * * * * * * * * * * * * * //

dimensions      [0 1 -1 0 0 0 0];

internalField   nonuniform List<vector> 
3500
(
(-0.00754265 0.00523252 -5.24024e-22)
(-0.0297592 0.00915394 1.04185e-21)
(0.0724234 0.0414173 -1.37288e-21)
(0.225036 0.0503937 1.78568e-21)
(0.377858 0.0419799 1.33228e-19)
(0.0724234 -0.0414174 1.37288e-21)
(0.225036 -0.0503938 -1.78568e-21)
(0.377858 -0.04198 -1.33228e-19)
(0.484388 -0.0344294 -2.37226e-20)
(0.573244 -0.0286218 -4.00485e-20)
(0.643794 -0.024066 2.13749e-20)
(0.702639 -0.0203997 3.36876e-20)
(0.750913 -0.0173708 -3.08824e-20)
(0.791393 -0.0147946 -2.69237e-20)
(0.825178 -0.0127016 -1.83302e-20)
(0.0839057 -0.123007 1.6196e-19)
(0.238939 -0.149962 -1.14978e-19)
(0.389305 -0.125029 1.63581e-19)
(0.493539 -0.102584 -2.08282e-21)
(0.580617 -0.0853157 9.48058e-20)
(0.649839 -0.0717658 -7.65881e-21)
(0.707697 -0.0608577 -4.7513e-20)
(0.755268 -0.0518442 1.91253e-19)
(0.7951 -0.0441904 -4.47698e-20)
(0.828008 -0.0379982 -1.24096e-21)
(0.106382 -0.200907 -3.47007e-19)
(0.266291 -0.24591 4.06586e-20)
(0.411885 -0.205371 -2.20163e-19)
(0.511597 -0.168649 2.03823e-20)
(0.595169 -0.140381 1.88372e-19)
(0.661769 -0.118182 -1.26893e-19)
(0.717672 -0.100294 5.02198e-20)
(0.763847 -0.0855057 -4.66783e-20)
(0.802418 -0.0729798 1.23054e-19)
(0.833656 -0.0629211 -1.62903e-19)
(0.1389 -0.272818 -4.57203e-21)
(0.306203 -0.335937 4.9567e-19)
(0.444979 -0.281265 2.69497e-19)
(0.538079 -0.231285 -1.3082e-19)
(0.616531 -0.192755 -1.53867e-19)
(0.679291 -0.162464 2.29627e-19)
(0.732307 -0.138033 -8.76967e-20)
(0.776422 -0.117835 -5.46524e-20)
(0.813184 -0.10077 -1.80586e-19)
(0.842108 -0.0871767 2.29577e-19)
(0.180112 -0.336701 1.51734e-19)
(0.357364 -0.417874 -2.19103e-19)
(0.487652 -0.351101 -6.03437e-19)
(0.572251 -0.289312 2.86458e-19)
(0.644124 -0.241564 -2.5487e-19)
(0.701927 -0.203979 -3.57511e-19)
(0.751182 -0.173604 2.83718e-20)
(0.79262 -0.148426 -1.172e-20)
(0.827145 -0.127153 2.57139e-19)
(0.853285 -0.110366 -1.19214e-19)
(0.228463 -0.390916 2.53823e-19)
(0.418114 -0.489684 -1.45079e-19)
(0.538698 -0.413423 7.41394e-19)
(0.613233 -0.341613 -3.46131e-19)
(0.677336 -0.285826 -3.32195e-20)
(0.729257 -0.241781 3.91673e-19)
(0.773973 -0.206089 1.20869e-19)
(0.812152 -0.176503 -9.96104e-20)
(0.844083 -0.151617 -1.65486e-19)
(0.867115 -0.132183 8.84717e-20)
(0.282073 -0.433787 -6.0416e-21)
(0.486427 -0.549609 3.83609e-19)
(0.596531 -0.467159 -4.22605e-19)
(0.659878 -0.3874 2.89393e-19)
(0.715214 -0.325044 -7.12626e-20)
(0.760403 -0.275758 -2.33646e-19)
(0.799793 -0.235806 3.81934e-19)
(0.834144 -0.202631 1.46347e-19)
(0.863383 -0.174511 -1.27092e-19)
(0.883356 -0.152431 -6.30905e-20)
(0.338537 -0.463743 -1.23422e-19)
(0.560046 -0.596449 -6.01057e-19)
(0.659491 -0.511522 5.83973e-19)
(0.711025 -0.425963 -1.55974e-19)
(0.756955 -0.358474 -3.37758e-19)
(0.794953 -0.304912 1.61759e-19)
(0.828621 -0.261222 3.1439e-20)
(0.858812 -0.2247 1.75959e-19)
(0.885309 -0.19376 -2.02966e-19)
(0.902169 -0.170166 1.344e-19)
(0.395034 -0.479762 2.12169e-19)
(0.636459 -0.629472 -4.27169e-20)
(0.725853 -0.545999 -2.06295e-19)
(0.765406 -0.456902 8.24196e-20)
(0.801518 -0.385901 3.20452e-19)
(0.831953 -0.329425 -3.52727e-19)
(0.859315 -0.283386 -2.27442e-19)
(0.884382 -0.245152 -1.82748e-19)
(0.907538 -0.212861 1.47284e-19)
(0.922254 -0.187987 -1.09916e-19)
(0.448431 -0.481418 -5.8915e-20)
(0.712868 -0.648299 7.39465e-20)
(0.793808 -0.570321 4.46086e-20)
(0.821731 -0.48 -1.32183e-19)
(0.847892 -0.407078 -2.13027e-20)
(0.8707 -0.348794 1.9507e-19)
(0.891711 -0.300976 -1.98675e-19)
(0.9115 -0.260742 2.80704e-19)
(0.931554 -0.225882 1.3661e-19)
(0.946741 -0.199666 -4.6593e-20)
(0.495569 -0.46909 9.93149e-21)
(0.786613 -0.653271 -8.86804e-21)
(0.861562 -0.584422 -8.13887e-20)
(0.878709 -0.495255 -4.94981e-20)
(0.895078 -0.421997 5.2884e-20)
(0.910399 -0.363065 1.37686e-19)
(0.925249 -0.314481 -5.95864e-20)
(0.939471 -0.273843 -7.13779e-20)
(0.95428 -0.240508 -2.65177e-19)
(0.968608 -0.216944 1.48281e-19)
(0.532288 -0.44314 2.06116e-19)
(0.854696 -0.644818 1.55652e-20)
(0.927231 -0.588499 -9.83814e-21)
(0.93508 -0.502921 4.01001e-20)
(0.94211 -0.43085 -1.18876e-19)
(0.950207 -0.372384 -6.42285e-20)
(0.959217 -0.323913 -8.21992e-20)
(0.968072 -0.283471 1.52577e-19)
(0.977304 -0.250542 6.11822e-20)
(0.988021 -0.223332 -5.75499e-20)
(0.556239 -0.406807 9.96836e-20)
(0.914574 -0.624474 -1.61245e-19)
(0.989277 -0.582657 -3.7915e-20)
(0.98965 -0.503442 1.72599e-21)
(0.988106 -0.433918 2.8636e-20)
(0.989398 -0.376932 -1.28346e-22)
(0.992967 -0.329256 1.38733e-19)
(0.997074 -0.289219 -1.18106e-19)
(1.0013 -0.256436 -1.0955e-20)
(1.00762 -0.227464 1.61342e-19)
(0.566233 -0.362656 -3.98761e-19)
(0.962214 -0.592584 -1.13284e-19)
(1.04583 -0.567809 -1.08632e-20)
(1.04127 -0.497376 9.01537e-22)
(1.03227 -0.431634 1.67061e-20)
(1.02733 -0.377058 4.32322e-20)
(1.02595 -0.330843 -7.74357e-20)
(1.02607 -0.291657 1.83848e-20)
(1.02636 -0.259456 -2.69327e-20)
(1.02857 -0.230523 -4.39066e-20)
(0.561148 -0.312385 9.81555e-21)
(0.995117 -0.550723 3.16005e-19)
(1.09488 -0.545205 3.69932e-20)
(1.08886 -0.485178 -2.02519e-20)
(1.07388 -0.424535 -3.37044e-21)
(1.06351 -0.373252 2.45502e-20)
(1.05767 -0.329206 1.98898e-20)
(1.05445 -0.291375 -9.04535e-21)
(1.05178 -0.260126 -2.63884e-21)
(1.0505 -0.232155 -2.01688e-21)
(0.539909 -0.258279 7.7891e-20)
(1.01173 -0.500973 -1.45018e-19)
(1.1341 -0.515709 5.53129e-20)
(1.13145 -0.467643 7.23968e-20)
(1.11231 -0.413395 -5.17337e-20)
(1.09741 -0.366057 -3.59511e-21)
(1.08771 -0.324756 -3.54201e-20)
(1.08167 -0.288773 -2.73254e-21)
(1.07671 -0.258624 2.04901e-21)
(1.07256 -0.232267 3.51604e-21)
(0.50231 -0.203118 1.06524e-19)
(1.01027 -0.444967 1.83602e-19)
(1.16146 -0.480323 1.06273e-19)
(1.16794 -0.445804 -1.18885e-19)
(1.14725 -0.398858 1.13653e-19)
(1.12876 -0.355982 -5.19023e-20)
(1.1158 -0.317987 -8.76573e-21)
(1.10719 -0.284175 -6.69869e-21)
(1.10057 -0.255238 -5.1747e-21)
(1.09403 -0.230928 -9.97981e-21)
(0.449483 -0.149793 2.7239e-19)
(0.988831 -0.384264 -1.444e-19)
(1.17513 -0.440077 8.31965e-20)
(1.19692 -0.420483 7.87079e-20)
(1.17801 -0.381645 -3.7265e-20)
(1.15739 -0.343635 5.83494e-20)
(1.14187 -0.309199 1.91087e-20)
(1.13088 -0.277915 2.20071e-20)
(1.12281 -0.250244 1.3608e-20)
(1.11488 -0.228229 1.18975e-20)
(0.384112 -0.101073 -9.94687e-20)
(0.945696 -0.320515 -1.39477e-19)
(1.17308 -0.395894 -9.3754e-20)
(1.21699 -0.392337 -8.70326e-20)
(1.20391 -0.362431 -3.17165e-20)
(1.18294 -0.329568 4.11043e-20)
(1.16571 -0.298766 -1.72795e-20)
(1.15283 -0.270223 3.35113e-21)
(1.14341 -0.244264 -1.09354e-20)
(1.13482 -0.224334 5.6937e-21)
(0.31047 -0.0595494 2.57712e-20)
(0.879555 -0.255502 -5.62441e-21)
(1.15277 -0.348617 2.36047e-20)
(1.22644 -0.361811 1.58193e-20)
(1.2242 -0.341742 1.38671e-20)
(1.2051 -0.314317 -3.30925e-20)
(1.18714 -0.287166 1.52507e-20)
(1.17305 -0.261447 -1.45921e-20)
(1.16238 -0.23738 -3.87116e-21)
(1.15309 -0.219279 -5.44639e-21)
(0.234105 -0.0275387 1.06609e-21)
(0.789969 -0.191294 -8.5196e-22)
(1.11137 -0.299153 -5.63969e-21)
(1.22289 -0.329167 7.16298e-20)
(1.23772 -0.319857 -1.97147e-20)
(1.22356 -0.298328 -2.30253e-20)
(1.20614 -0.274843 4.18787e-21)
(1.19137 -0.251884 -4.36134e-21)
(1.18 -0.229645 -1.05906e-20)
(1.16979 -0.213138 -2.41115e-20)
(0.161093 -0.00666935 -1.03436e-19)
(0.677858 -0.130463 2.25607e-20)
(1.04584 -0.24834 -1.94343e-19)
(1.20303 -0.294457 -7.42987e-20)
(1.2426 -0.29682 -2.75363e-20)
(1.23769 -0.281843 -8.06648e-21)
(1.22261 -0.262158 -2.18722e-20)
(1.208 -0.241875 -2.10121e-20)
(1.19593 -0.221175 6.68637e-21)
(1.18545 -0.206032 1.67991e-20)
(0.0970373 0.00300206 1.75091e-19)
(0.547781 -0.0766844 -9.9072e-20)
(0.953526 -0.1972 1.52532e-19)
(1.16245 -0.257505 7.88385e-20)
(1.23573 -0.272335 -4.63841e-20)
(1.24626 -0.264935 1.46174e-19)
(1.23628 -0.24929 -3.0612e-20)
(1.22273 -0.231662 5.7295e-20)
(1.21093 -0.212512 3.89224e-21)
(1.20006 -0.198006 5.80264e-20)
(0.0458421 0.00350042 -1.08186e-19)
(0.409817 -0.0347887 4.52203e-19)
(0.832764 -0.147112 -9.96521e-20)
(1.09563 -0.21817 -8.52239e-20)
(1.21248 -0.245892 2.19453e-19)
(1.24663 -0.247219 -9.83622e-20)
(1.2464 -0.236331 -5.13832e-20)
(1.23582 -0.221414 -2.82173e-20)
(1.22407 -0.203769 -1.07507e-19)
(1.21439 -0.189548 3.80182e-20)
(0.00874298 -0.00161403 -1.96591e-19)
(0.278299 -0.00950612 -2.69256e-19)
(0.68495 -0.100392 2.13307e-19)
(0.996804 -0.176736 6.00004e-20)
(1.16607 -0.21667 -1.56977e-19)
(1.23455 -0.228097 -1.60236e-19)
(1.25068 -0.222813 8.5186e-21)
(1.2464 -0.211135 -1.04927e-19)
(1.23684 -0.195479 1.62764e-19)
(1.22658 -0.180255 -2.35589e-20)
(-0.0156042 -0.00880114 8.81442e-20)
(0.166718 -0.00182603 4.21896e-19)
(0.519123 -0.0613164 -5.27133e-20)
(0.861765 -0.134103 1.50007e-20)
(1.08797 -0.183915 -3.5462e-20)
(1.20221 -0.2061 2.08645e-19)
(1.24548 -0.208344 7.16482e-20)
(1.25292 -0.200192 1.22185e-19)
(1.24683 -0.187313 -1.13245e-19)
(1.24017 -0.171543 6.78202e-20)
(-0.0300657 -0.0158652 -6.5195e-19)
(0.0818604 -0.0070156 1.66953e-19)
(0.355052 -0.0356906 -2.12324e-19)
(0.692808 -0.0932561 2.57415e-19)
(0.968584 -0.146955 -6.35906e-20)
(1.13926 -0.179963 -3.65278e-19)
(1.22171 -0.190864 1.96399e-19)
(1.25199 -0.188498 -7.44503e-20)
(1.25478 -0.178917 6.69942e-20)
(1.24869 -0.161459 2.03049e-19)
(-0.0374293 -0.0220141 3.05104e-19)
(0.0230492 -0.0183752 -4.60372e-19)
(0.214944 -0.0264763 -5.70152e-20)
(0.506271 -0.0606826 -2.85734e-19)
(0.803597 -0.107888 -3.54243e-19)
(1.03049 -0.147365 1.74927e-19)
(1.16827 -0.169487 -2.18414e-19)
(1.23275 -0.172732 -2.65747e-20)
(1.25592 -0.170634 -2.16574e-20)
(1.25965 -0.15196 -2.59357e-19)
(-0.0398083 -0.0270745 2.84445e-19)
(-0.0143669 -0.0312513 -1.09166e-19)
(0.110152 -0.0304954 1.04287e-19)
(0.330903 -0.0429925 -1.55231e-19)
(0.60646 -0.0736942 1.5258e-19)
(0.866447 -0.110344 2.83536e-19)
(1.062 -0.13954 1.68498e-19)
(1.18463 -0.153651 -8.08434e-21)
(1.23679 -0.156519 -1.89109e-19)
(1.26118 -0.141887 1.53251e-19)
(-0.0389266 -0.0311654 3.32108e-19)
(-0.0358248 -0.0434975 1.06586e-19)
(0.0394848 -0.0415373 1.79022e-19)
(0.190624 -0.0407809 5.2526e-20)
(0.410131 -0.052871 -2.56484e-19)
(0.660711 -0.0763129 7.69342e-20)
(0.891089 -0.105093 -2.93196e-19)
(1.07102 -0.12164 4.06578e-19)
(1.1903 -0.143631 2.43973e-19)
(1.23433 -0.118688 6.59107e-20)
(-0.0361213 -0.0344623 -4.69965e-19)
(-0.0461714 -0.0542083 -1.17174e-19)
(-0.00422668 -0.0545129 -1.36552e-19)
(0.0921968 -0.0486098 7.95898e-20)
(0.246954 -0.0474339 3.23878e-19)
(0.450274 -0.0553268 -2.60815e-19)
(0.675332 -0.073973 -1.13436e-19)
(0.883331 -0.0867733 -1.43357e-19)
(1.05604 -0.11081 -4.59116e-19)
(1.19879 -0.115156 1.16854e-19)
(-0.0323586 -0.0370183 -1.92223e-19)
(-0.0494032 -0.0628251 4.20482e-20)
(-0.0291546 -0.0663011 2.11022e-20)
(0.0290906 -0.0598937 -1.28884e-19)
(0.129115 -0.0523445 -2.06416e-19)
(0.273883 -0.0514694 5.45661e-19)
(0.453169 -0.0509234 7.66435e-20)
(0.663403 -0.0643183 2.38983e-19)
(0.818317 -0.0695521 -4.68744e-20)
(1.08084 -0.0949064 1.8028e-19)
(-0.0283032 -0.0387362 3.43023e-19)
(-0.0485604 -0.0687658 7.68806e-20)
(-0.0423811 -0.0749533 -3.63119e-19)
(-0.00968405 -0.0698535 2.02413e-19)
(0.0508207 -0.0608081 3.2957e-19)
(0.146126 -0.0565751 -3.21243e-19)
(0.262604 -0.0400751 2.73911e-19)
(0.455885 -0.0565309 -1.49265e-19)
(0.539565 -0.0398426 2.16643e-19)
(0.873179 -0.0674729 -3.41375e-19)
(-0.0243027 -0.0393835 6.61371e-20)
(-0.0456744 -0.0714023 -4.95115e-19)
(-0.0491775 -0.0792403 4.81442e-19)
(-0.0340297 -0.0756544 -2.75562e-20)
(-0.000537523 -0.0672771 -1.60252e-19)
(0.0581851 -0.0611851 -5.46742e-21)
(0.123992 -0.0425985 -4.21764e-19)
(0.275713 -0.0518449 3.79621e-19)
(0.306902 -0.0308358 -3.0342e-19)
(0.612129 -0.0463004 2.11996e-19)
(-0.0204503 -0.038571 9.92156e-20)
(-0.0420218 -0.0702104 -4.98294e-20)
(-0.0529609 -0.0785076 -1.70531e-19)
(-0.0507642 -0.076036 -2.09357e-19)
(-0.0362243 -0.0689689 4.74478e-20)
(-0.00372417 -0.0619034 -2.32991e-19)
(0.0300925 -0.0487613 -7.74404e-21)
(0.129149 -0.0452297 -3.52512e-20)
(0.145222 -0.0376042 1.04452e-19)
(0.352048 -0.0341551 4.71333e-21)
(-0.0168008 -0.0358785 -2.8465e-19)
(-0.0383634 -0.064929 2.03674e-19)
(-0.0555476 -0.0726368 2.86531e-19)
(-0.0636299 -0.0708183 -1.23807e-20)
(-0.0629363 -0.0650855 9.46121e-20)
(-0.049889 -0.0581837 -8.88559e-20)
(-0.0370427 -0.0503318 3.55328e-19)
(0.0183791 -0.0389312 -1.14592e-19)
(0.0291077 -0.0426969 -3.63451e-19)
(0.141975 -0.0215187 1.72462e-19)
(-0.0134769 -0.0310433 -2.01931e-20)
(-0.0351158 -0.0556085 -2.29363e-19)
(-0.0576706 -0.0619944 -1.81334e-19)
(-0.0740199 -0.0605619 1.7669e-19)
(-0.0839645 -0.0559573 -1.30218e-19)
(-0.0861849 -0.0501793 5.93163e-20)
(-0.0864965 -0.0451798 4.44345e-20)
(-0.0619859 -0.032673 2.07772e-20)
(-0.0607636 -0.0373936 1.07707e-19)
(-0.00502051 -0.0109866 -2.04079e-19)
(-0.0106747 -0.0240677 1.57207e-19)
(-0.0325104 -0.0426564 1.98301e-19)
(-0.0594567 -0.0473263 6.17301e-21)
(-0.0821985 -0.0462086 -1.58949e-19)
(-0.10028 -0.0427668 2.59884e-20)
(-0.113384 -0.0385403 4.07413e-20)
(-0.123073 -0.0344266 -6.18351e-20)
(-0.120397 -0.0255087 3.22667e-20)
(-0.12628 -0.0273172 3.31307e-20)
(-0.104582 -0.00712483 -3.40007e-20)
(-0.00862734 -0.0152647 -2.24225e-20)
(-0.030693 -0.0268274 3.09118e-20)
(-0.0607886 -0.0296381 -1.38025e-19)
(-0.0879427 -0.0289009 3.58602e-20)
(-0.111575 -0.0267595 -7.90206e-20)
(-0.131543 -0.024167 2.14074e-20)
(-0.147902 -0.0212901 3.85469e-20)
(-0.157883 -0.0163863 -6.89907e-20)
(-0.168884 -0.016031 -8.00993e-21)
(-0.165881 -0.00558637 3.08509e-20)
(-0.00754265 -0.00523269 -1.54522e-20)
(-0.0297592 -0.00915414 3.29945e-21)
(-0.0615049 -0.0100886 7.35767e-20)
(-0.0909186 -0.00982858 2.91996e-20)
(-0.117355 -0.00910006 -1.71845e-20)
(-0.14064 -0.00821971 9.75311e-21)
(-0.160508 -0.00718886 -1.30614e-20)
(-0.176065 -0.00566022 2.01443e-20)
(-0.190048 -0.00526726 1.33414e-20)
(-0.195485 -0.00218867 5.75499e-24)
(0.850487 -0.0114626 4.04519e-20)
(0.870079 -0.0091877 -2.4222e-20)
(0.886712 -0.00825615 9.00011e-21)
(0.90113 -0.00683562 -6.02591e-21)
(0.913497 -0.00608737 1.22612e-20)
(0.92435 -0.005148 -6.86525e-21)
(0.933739 -0.00457086 4.26999e-22)
(0.942042 -0.0039263 7.5665e-21)
(0.949284 -0.00348565 -1.91479e-22)
(0.955723 -0.00302831 2.83517e-22)
(0.961379 -0.00268994 -3.64083e-21)
(0.966427 -0.00235419 4.46048e-21)
(0.970895 -0.00209033 -7.58102e-21)
(0.974907 -0.0018386 2.95295e-21)
(0.978478 -0.0016381 5.42078e-21)
(0.981664 -0.00145458 -7.76481e-21)
(0.984478 -0.00129487 2.93219e-22)
(0.98698 -0.00114587 3.10182e-21)
(0.989189 -0.00101383 -3.07278e-21)
(0.991142 -0.000890716 1.97926e-21)
(0.992855 -0.000779953 -1.21093e-21)
(0.994354 -0.000676271 3.01628e-21)
(0.995649 -0.000581315 -1.14267e-21)
(0.99676 -0.000491705 -2.51905e-21)
(0.997694 -0.000408163 1.18638e-21)
(0.998464 -0.000328568 2.56945e-22)
(0.999075 -0.00025308 3.48731e-22)
(0.999533 -0.000179919 8.49579e-22)
(0.999839 -0.000108183 2.10169e-23)
(0.999994 -3.60694e-05 3.09918e-22)
(0.852412 -0.0343309 -1.47758e-20)
(0.871587 -0.0274865 -2.68682e-20)
(0.887891 -0.024694 4.23528e-20)
(0.902115 -0.0204309 1.11133e-21)
(0.914275 -0.0181984 -1.97655e-20)
(0.925 -0.0153882 1.88888e-20)
(0.934253 -0.0136686 -4.72454e-20)
(0.94247 -0.0117424 8.23843e-21)
(0.949625 -0.0104287 -1.04417e-20)
(0.956007 -0.00906205 4.27453e-20)
(0.961607 -0.00805246 -1.93837e-20)
(0.966617 -0.00704967 -1.37258e-21)
(0.971046 -0.00626381 1.22464e-21)
(0.975023 -0.00551398 7.74158e-22)
(0.978559 -0.00491481 3.67068e-21)
(0.981727 -0.00435959 3.00789e-21)
(0.98453 -0.00387839 -1.05805e-20)
(0.987022 -0.00342991 7.27814e-22)
(0.989222 -0.00303481 -8.0219e-21)
(0.991167 -0.00266603 6.71635e-21)
(0.992874 -0.0023349 -1.26304e-21)
(0.994367 -0.00202447 -2.55992e-21)
(0.995657 -0.0017404 -2.35249e-21)
(0.996764 -0.00147209 -9.31022e-22)
(0.997695 -0.00122203 3.00064e-21)
(0.998462 -0.000983678 5.37125e-22)
(0.999071 -0.000757657 -2.83641e-21)
(0.999529 -0.000538549 1.14567e-22)
(0.999836 -0.000323754 -6.43021e-22)
(0.999994 -0.000107912 -7.50073e-22)
(0.856309 -0.0569769 -1.96996e-20)
(0.874642 -0.0455323 8.2706e-20)
(0.890264 -0.0409035 -3.98145e-20)
(0.904083 -0.0338029 9.10096e-20)
(0.915821 -0.0301251 -1.04843e-20)
(0.926287 -0.0254673 -9.2391e-20)
(0.935269 -0.0226382 3.42911e-21)
(0.943317 -0.0194509 3.36604e-20)
(0.950298 -0.0172868 2.92272e-20)
(0.956568 -0.0150252 -3.81463e-20)
(0.962056 -0.0133591 4.56769e-20)
(0.966991 -0.0116998 -1.14886e-20)
(0.97134 -0.010402 8.30401e-22)
(0.975252 -0.00915727 7.70262e-21)
(0.978725 -0.0081545 -3.10531e-20)
(0.981862 -0.00722115 5.84882e-21)
(0.984639 -0.00643335 1.59526e-20)
(0.987109 -0.00568745 1.14132e-20)
(0.989288 -0.0050359 -1.62827e-20)
(0.991218 -0.00442322 1.27662e-20)
(0.992911 -0.00387523 2.48548e-21)
(0.994393 -0.00335984 -6.60077e-21)
(0.995674 -0.00288896 9.73601e-21)
(0.996773 -0.0024435 -6.63598e-21)
(0.997697 -0.00202857 2.04783e-21)
(0.998459 -0.00163276 1.71206e-21)
(0.999065 -0.00125751 2.12994e-21)
(0.999522 -0.000893565 1.57212e-22)
(0.999832 -0.000536944 3.06334e-21)
(0.999993 -0.000178868 1.10068e-21)
(0.862244 -0.07923 -4.84225e-20)
(0.879293 -0.0632039 1.02925e-19)
(0.893842 -0.056813 -7.16798e-20)
(0.907027 -0.0468934 1.1192e-19)
(0.918114 -0.0418253 -1.0812e-19)
(0.928192 -0.0353452 6.86764e-20)
(0.936767 -0.0314465 -1.81364e-20)
(0.944566 -0.0270207 8.20485e-21)
(0.95129 -0.0240337 -6.09346e-20)
(0.957396 -0.0208944 2.37412e-21)
(0.96272 -0.0185907 -1.27502e-20)
(0.967545 -0.0162882 8.53636e-20)
(0.971783 -0.0144903 -5.23238e-20)
(0.97561 -0.0127535 -9.18461e-22)
(0.978993 -0.0113427 -1.83688e-20)
(0.982059 -0.0100259 5.48129e-21)
(0.984791 -0.0089389 -2.69093e-21)
(0.987236 -0.00790474 -8.47266e-21)
(0.989387 -0.00700214 1.41979e-20)
(0.991296 -0.00615175 -6.28262e-21)
(0.992967 -0.00539099 1.05768e-20)
(0.994434 -0.00467472 -5.13754e-21)
(0.9957 -0.00402011 -5.97102e-21)
(0.996788 -0.00340023 8.47145e-21)
(0.997702 -0.00282298 -7.88018e-21)
(0.998457 -0.00227198 7.00105e-22)
(0.999056 -0.00174952 8.00462e-22)
(0.999512 -0.00124258 -7.45421e-21)
(0.999826 -0.000746156 3.93525e-21)
(0.999992 -0.000248355 -1.72761e-21)
(0.87025 -0.100828 1.46666e-19)
(0.885566 -0.0802857 5.54019e-20)
(0.898639 -0.0722658 -1.54428e-19)
(0.910955 -0.0595694 -5.4924e-20)
(0.921155 -0.0531974 3.27269e-20)
(0.930713 -0.0449382 2.00504e-20)
(0.938742 -0.0400288 2.44214e-20)
(0.946212 -0.0343989 2.1058e-20)
(0.952594 -0.0306276 -8.1193e-20)
(0.958486 -0.0266359 1.00067e-20)
(0.963591 -0.02372 5.72494e-20)
(0.968274 -0.0207925 -3.85452e-20)
(0.972371 -0.018513 -3.74078e-20)
(0.976098 -0.0163002 9.09451e-21)
(0.979373 -0.0144935 1.37029e-20)
(0.982342 -0.0127858 9.67148e-21)
(0.984996 -0.0113689 -1.69304e-20)
(0.987404 -0.0100657 1.11763e-20)
(0.989519 -0.00892352 1.90409e-20)
(0.9914 -0.00784018 -1.09464e-20)
(0.993045 -0.00687336 6.77524e-21)
(0.994491 -0.00596115 -3.87127e-20)
(0.995739 -0.00512681 1.94469e-20)
(0.996812 -0.00433661 -3.51798e-21)
(0.997713 -0.00360089 -7.13811e-21)
(0.998457 -0.00289765 6.92687e-21)
(0.999049 -0.00223061 -5.471e-21)
(0.999502 -0.0015832 7.05106e-21)
(0.999819 -0.000949782 -6.73654e-21)
(0.999991 -0.000315784 -1.43753e-21)
(0.880362 -0.121605 -1.29872e-19)
(0.893495 -0.0967154 -1.97961e-20)
(0.904664 -0.0873066 2.22481e-19)
(0.915852 -0.0719122 -1.63439e-19)
(0.924914 -0.0643394 1.16818e-19)
(0.933817 -0.0543346 1.90794e-20)
(0.941162 -0.0484581 2.90084e-21)
(0.948229 -0.0416431 -2.93362e-20)
(0.954189 -0.0371102 -6.74458e-20)
(0.959821 -0.0322802 3.93413e-20)
(0.964659 -0.0287668 2.69657e-20)
(0.969167 -0.0252253 -1.51687e-20)
(0.973091 -0.0224757 3.43138e-20)
(0.976705 -0.0198004 -4.54081e-20)
(0.979867 -0.017616 4.23416e-20)
(0.982742 -0.0155314 -4.36129e-20)
(0.985273 -0.0137713 3.31293e-20)
(0.9876 -0.0121468 1.1869e-20)
(0.989682 -0.0107616 -2.23218e-20)
(0.991534 -0.00947718 -2.91063e-21)
(0.993145 -0.00831028 1.87313e-21)
(0.994567 -0.00720838 1.25252e-20)
(0.995792 -0.00620293 -1.51154e-20)
(0.996847 -0.00524876 5.61898e-21)
(0.997731 -0.00435814 4.41699e-21)
(0.998462 -0.00350593 9.23461e-21)
(0.999044 -0.00269771 -3.12903e-22)
(0.999494 -0.00191303 -3.12352e-21)
(0.999814 -0.00114611 2.78557e-21)
(0.99999 -0.000380529 3.09097e-21)
(0.892497 -0.141283 3.2283e-20)
(0.90302 -0.112198 -3.55488e-20)
(0.911884 -0.101592 1.98104e-20)
(0.921735 -0.083563 8.30157e-21)
(0.929423 -0.0749134 1.08399e-19)
(0.937548 -0.0632452 -1.59545e-19)
(0.944064 -0.0564947 1.51487e-19)
(0.950648 -0.0485647 -6.64685e-20)
(0.9561 -0.0433321 3.85861e-20)
(0.961419 -0.0377132 -4.63883e-20)
(0.965937 -0.0336422 -4.29216e-21)
(0.970237 -0.0295196 -5.48678e-20)
(0.973954 -0.0263253 -6.12586e-21)
(0.977427 -0.0232098 6.54339e-20)
(0.980459 -0.0206723 -3.45275e-21)
(0.983247 -0.0182462 -2.80208e-20)
(0.985689 -0.0161828 3.73869e-20)
(0.987905 -0.0142328 -2.41561e-20)
(0.989867 -0.0125605 1.79129e-20)
(0.991676 -0.0110205 -3.80791e-20)
(0.99327 -0.00967202 2.21966e-20)
(0.994661 -0.0084168 3.3757e-21)
(0.995859 -0.00725289 1.50395e-20)
(0.996895 -0.00612814 -1.39429e-20)
(0.997761 -0.00508774 -1.46191e-20)
(0.998476 -0.00409287 7.70074e-21)
(0.999045 -0.00314806 8.61891e-21)
(0.999489 -0.0022293 -3.23789e-21)
(0.99981 -0.0013331 -4.23062e-21)
(0.99999 -0.000441829 3.41775e-21)
(0.906748 -0.159726 -8.9117e-20)
(0.914365 -0.126663 2.97276e-20)
(0.920421 -0.11543 4.10453e-21)
(0.928641 -0.0950508 1.04684e-19)
(0.934641 -0.0855052 4.96864e-20)
(0.94183 -0.072268 4.66954e-20)
(0.94737 -0.0646472 -8.76111e-20)
(0.953394 -0.0556091 -1.28732e-19)
(0.958266 -0.0496448 -1.83562e-21)
(0.963231 -0.0432218 1.60361e-19)
(0.967389 -0.0385642 2.39449e-20)
(0.971455 -0.0338442 2.50509e-21)
(0.974939 -0.0301854 -7.91478e-20)
(0.978252 -0.0266165 -6.13163e-20)
(0.981131 -0.0237124 1.95283e-20)
(0.983813 -0.020942 8.5072e-20)
(0.986161 -0.0185971 -1.03834e-21)
(0.988315 -0.016376 -5.82516e-20)
(0.990198 -0.014429 4.91826e-21)
(0.991893 -0.0126081 5.30727e-20)
(0.993385 -0.0110173 -6.35141e-20)
(0.99475 -0.0095297 6.40061e-21)
(0.995951 -0.00818738 1.16463e-22)
(0.996969 -0.00694492 9.27602e-21)
(0.997804 -0.00578001 6.74217e-21)
(0.998501 -0.0046573 -1.34954e-20)
(0.999056 -0.00357608 6.49505e-21)
(0.999493 -0.00252829 2.5331e-21)
(0.999811 -0.00150792 2.42259e-22)
(0.99999 -0.000498703 -4.91023e-23)
(0.923016 -0.177014 -1.82617e-19)
(0.927041 -0.140094 1.84094e-19)
(0.930081 -0.128059 -5.94197e-20)
(0.936482 -0.10517 -2.9945e-20)
(0.940697 -0.0947116 3.78153e-20)
(0.946835 -0.0799884 -5.27141e-21)
(0.951303 -0.0716529 1.30182e-19)
(0.956663 -0.0616569 -1.50401e-19)
(0.960874 -0.0551198 1.31531e-19)
(0.965409 -0.0480264 -1.53012e-19)
(0.969147 -0.0429075 -2.03247e-20)
(0.972927 -0.0376924 -1.61614e-20)
(0.976137 -0.0336599 1.32768e-20)
(0.979255 -0.0297103 5.97612e-20)
(0.981949 -0.0265001 -1.54716e-20)
(0.984497 -0.0234284 5.77038e-21)
(0.986719 -0.0208345 2.78541e-20)
(0.988782 -0.0183822 -4.07297e-20)
(0.990588 -0.0162463 6.87355e-21)
(0.992234 -0.0142279 -5.89514e-21)
(0.993671 -0.01241 4.47998e-21)
(0.994951 -0.0107008 1.34855e-21)
(0.996042 -0.00917482 6.75269e-21)
(0.997011 -0.00775871 -8.50133e-21)
(0.997844 -0.00643356 4.24654e-22)
(0.998539 -0.00517081 -1.03728e-20)
(0.999085 -0.00397285 1.00191e-20)
(0.999508 -0.00280471 -2.86738e-21)
(0.999818 -0.00166777 -1.53515e-21)
(0.999991 -0.000549586 -4.33721e-21)
(0.943632 -0.190922 1.07446e-19)
(0.943346 -0.151249 8.54237e-20)
(0.942484 -0.139469 -2.17128e-19)
(0.946408 -0.116061 -7.24831e-21)
(0.948155 -0.105063 -2.55474e-20)
(0.952831 -0.0895445 9.41315e-20)
(0.955911 -0.0803358 -5.4896e-20)
(0.96045 -0.06944 9.61168e-21)
(0.963848 -0.0620818 1.86756e-20)
(0.967887 -0.054191 3.55221e-20)
(0.971127 -0.048387 -6.9735e-20)
(0.974588 -0.04252 1.8582e-19)
(0.977479 -0.0379359 -8.44053e-20)
(0.980385 -0.0334679 -4.36111e-20)
(0.982869 -0.0298176 1.85129e-20)
(0.985271 -0.0263358 4.4394e-21)
(0.987351 -0.0233906 -2.44851e-20)
(0.989309 -0.0206147 9.71652e-21)
(0.991014 -0.0182019 1.45181e-20)
(0.992588 -0.0159376 3.67977e-22)
(0.993958 -0.0139203 -3.66815e-20)
(0.995191 -0.0120251 8.181e-21)
(0.996246 -0.0102951 6.833e-21)
(0.997173 -0.00864513 2.22263e-20)
(0.997949 -0.00713189 4.1081e-21)
(0.998596 -0.00570151 -1.70147e-20)
(0.999118 -0.00436208 1.79629e-20)
(0.999534 -0.0030602 -5.48354e-21)
(0.999834 -0.00180909 1.06798e-21)
(0.999995 -0.000595806 -4.55795e-21)
(0.967165 -0.19397 0)
(0.963224 -0.150475 0)
(0.956981 -0.142988 0)
(0.958687 -0.116793 0)
(0.958007 -0.107666 0)
(0.961319 -0.0907463 0)
(0.962803 -0.0822978 0)
(0.966354 -0.0707608 0)
(0.968672 -0.0637055 0)
(0.97201 -0.0555037 0)
(0.974518 -0.0498143 0)
(0.97748 -0.0437796 0)
(0.97987 -0.0392275 0)
(0.982417 -0.0346549 0)
(0.984553 -0.0309961 0)
(0.986695 -0.0274362 0)
(0.988529 -0.0244598 0)
(0.990296 -0.0216146 0)
(0.991825 -0.0191535 0)
(0.993257 -0.0168204 0)
(0.994497 -0.014748 0)
(0.995628 -0.0127873 0)
(0.996596 -0.0109997 0)
(0.99745 -0.00929298 0)
(0.99816 -0.00770479 0)
(0.998755 -0.00617711 0)
(0.99923 -0.00472334 0)
(0.999603 -0.00331584 0)
(0.99986 -0.00196447 0)
(0.999996 -0.000650211 0)
(0.984691 -0.175854 0)
(0.979651 -0.146212 0)
(0.972985 -0.138796 0)
(0.971844 -0.116016 0)
(0.969733 -0.107781 0)
(0.971006 -0.0917158 0)
(0.971294 -0.0840673 0)
(0.973452 -0.0726581 0)
(0.97482 -0.0660322 0)
(0.977184 -0.0577299 0)
(0.978962 -0.0521896 0)
(0.981231 -0.0459854 0)
(0.983068 -0.0414222 0)
(0.985112 -0.0366654 0)
(0.986833 -0.0329168 0)
(0.988606 -0.0291796 0)
(0.990129 -0.0260822 0)
(0.991623 -0.0230745 0)
(0.99292 -0.0204849 0)
(0.994148 -0.0180048 0)
(0.995213 -0.0158058 0)
(0.996193 -0.0137112 0)
(0.997035 -0.0118069 0)
(0.997783 -0.00998832 0)
(0.998406 -0.00829639 0)
(0.998932 -0.00666446 0)
(0.999348 -0.00511084 0)
(0.99967 -0.00360031 0)
(0.999885 -0.00214249 0)
(0.999997 -0.000709251 0)
(0.998466 -0.162584 0)
(0.992622 -0.140245 0)
(0.986307 -0.1331 0)
(0.983485 -0.114436 0)
(0.98058 -0.106526 0)
(0.980171 -0.0921975 0)
(0.979547 -0.084815 0)
(0.980412 -0.0740756 0)
(0.980984 -0.0676053 0)
(0.982388 -0.0595071 0)
(0.983513 -0.0540107 0)
(0.985071 -0.0478095 0)
(0.986389 -0.0432111 0)
(0.987907 -0.0383736 0)
(0.989222 -0.0345438 0)
(0.990603 -0.0306942 0)
(0.991813 -0.0274942 0)
(0.993015 -0.0243663 0)
(0.994072 -0.0216672 0)
(0.995082 -0.0190692 0)
(0.995966 -0.0167604 0)
(0.996784 -0.0145519 0)
(0.99749 -0.012541 0)
(0.998121 -0.0106167 0)
(0.99865 -0.00882502 0)
(0.999099 -0.00709634 0)
(0.999454 -0.00545143 0)
(0.999726 -0.00384866 0)
(0.999905 -0.00229552 0)
(0.999998 -0.00076075 0)
(1.00988 -0.152275 0)
(1.0036 -0.133701 0)
(0.997393 -0.127184 0)
(0.993585 -0.111519 0)
(0.990143 -0.104119 0)
(0.988552 -0.0914936 0)
(0.98717 -0.0843964 0)
(0.986983 -0.0745077 0)
(0.986843 -0.0681911 0)
(0.987403 -0.0604824 0)
(0.987924 -0.0550493 0)
(0.988828 -0.0489966 0)
(0.989655 -0.0443983 0)
(0.990671 -0.0395859 0)
(0.991595 -0.0357155 0)
(0.992593 -0.0318299 0)
(0.993497 -0.0285657 0)
(0.994409 -0.0253731 0)
(0.995229 -0.0225984 0)
(0.99602 -0.0199238 0)
(0.996723 -0.0175346 0)
(0.997377 -0.0152449 0)
(0.997949 -0.0131517 0)
(0.99846 -0.0111442 0)
(0.998893 -0.00926997 0)
(0.999261 -0.00746024 0)
(0.999553 -0.00573629 0)
(0.999776 -0.00405443 0)
(0.999923 -0.00242051 0)
(0.999998 -0.000802724 0)
(1.01943 -0.142988 0)
(1.0129 -0.126941 0)
(1.00673 -0.12127 0)
(1.00227 -0.107708 0)
(0.998437 -0.100992 0)
(0.996019 -0.0897983 0)
(0.994033 -0.0831385 0)
(0.993025 -0.0740873 0)
(0.992267 -0.0680205 0)
(0.99212 -0.0607639 0)
(0.992093 -0.0554598 0)
(0.99242 -0.0496299 0)
(0.992788 -0.0450825 0)
(0.993345 -0.0403611 0)
(0.993898 -0.036492 0)
(0.994537 -0.0326234 0)
(0.995146 -0.0293303 0)
(0.995779 -0.0261145 0)
(0.996368 -0.0232936 0)
(0.996945 -0.0205749 0)
(0.99747 -0.0181303 0)
(0.997964 -0.015786 0)
(0.998401 -0.0136325 0)
(0.998795 -0.0115645 0)
(0.999132 -0.00962692 0)
(0.99942 -0.00775426 0)
(0.99965 -0.00596631 0)
(0.999824 -0.00422014 0)
(0.999939 -0.00252046 0)
(0.999998 -0.000836213 0)
(1.02736 -0.134198 0)
(1.02069 -0.120163 0)
(1.01461 -0.11534 0)
(1.00972 -0.10341 0)
(1.0056 -0.0974139 0)
(1.00259 -0.0874051 0)
(1.00014 -0.0812663 0)
(0.998489 -0.072985 0)
(0.997217 -0.06725 0)
(0.996482 -0.0604549 0)
(0.995974 -0.0553456 0)
(0.995799 -0.0497748 0)
(0.995751 -0.0453305 0)
(0.995896 -0.0407415 0)
(0.996102 -0.0369157 0)
(0.99641 -0.0331025 0)
(0.996738 -0.0298148 0)
(0.997109 -0.0266087 0)
(0.997474 -0.0237697 0)
(0.997848 -0.021034 0)
(0.998199 -0.0185574 0)
(0.998537 -0.0161811 0)
(0.998844 -0.0139874 0)
(0.999124 -0.0118789 0)
(0.999366 -0.00989617 0)
(0.999575 -0.00797806 0)
(0.999743 -0.00614197 0)
(0.999871 -0.00434704 0)
(0.999955 -0.00259687 0)
(0.999999 -0.000861851 0)
(1.03391 -0.125809 0)
(1.02718 -0.113467 0)
(1.02123 -0.10939 0)
(1.01606 -0.0988276 0)
(1.01178 -0.0935144 0)
(1.00832 -0.0845234 0)
(1.00552 -0.0789198 0)
(1.00337 -0.0713427 0)
(1.00169 -0.0659829 0)
(1.00047 -0.0596431 0)
(0.999546 -0.0547767 0)
(0.998939 -0.0494849 0)
(0.99852 -0.0451875 0)
(0.998297 -0.04076 0)
(0.998187 -0.0370153 0)
(0.998192 -0.0332875 0)
(0.998257 -0.030037 0)
(0.998384 -0.0268682 0)
(0.998538 -0.0240379 0)
(0.998719 -0.0213095 0)
(0.998904 -0.0188233 0)
(0.999093 -0.016436 0)
(0.999272 -0.0142213 0)
(0.999442 -0.0120905 0)
(0.999593 -0.0100799 0)
(0.999725 -0.00813285 0)
(0.999833 -0.00626434 0)
(0.999916 -0.00443606 0)
(0.999971 -0.00265056 0)
(0.999999 -0.000879942 0)
(1.03931 -0.117798 0)
(1.03257 -0.106912 0)
(1.02677 -0.103457 0)
(1.02146 -0.0940811 0)
(1.01707 -0.0893833 0)
(1.0133 -0.081296 0)
(1.01024 -0.0762061 0)
(1.00771 -0.0692798 0)
(1.00568 -0.064307 0)
(1.00407 -0.0584122 0)
(1.0028 -0.0538163 0)
(1.00182 -0.0488157 0)