/*--------------------------------*- C++ -*----------------------------------*\
  =========                 |
  \\      /  F ield         | OpenFOAM: The Open Source CFD Toolbox
   \\    /   O peration     | Website:  https://openfoam.org
    \\  /    A nd           | Version:  7
     \\/     M anipulation  |
\*---------------------------------------------------------------------------*/
FoamFile
{
    version     2.0;
    format      ascii;
    class       volScalarField;
    location    "80";
    object      p;
}
// * * * * * * * * * * * * * * * * * * * * * * * * * * * * * * * * * * * * * //

dimensions      [0 2 -2 0 0 0 0];

internalField   nonuniform List<scalar> 
6000
(
-0.266478
-0.268545
-0.269396
-0.270179
-0.270822
-0.271385
-0.27191
-0.272412
-0.272895
-0.273358
-0.273792
-0.27419
-0.274542
-0.274838
-0.27507
-0.27523
-0.275312
-0.275313
-0.275234
-0.27508
-0.266291
-0.268319
-0.269151
-0.269913
-0.270535
-0.271075
-0.271575
-0.272049
-0.272504
-0.272938
-0.273343
-0.273714
-0.274041
-0.274318
-0.274537
-0.274693
-0.274785
-0.274811
-0.274778
-0.274693
-0.266218
-0.268193
-0.269
-0.269736
-0.270332
-0.270845
-0.271317
-0.271762
-0.272186
-0.272589
-0.272965
-0.273307
-0.273609
-0.273865
-0.27407
-0.274223
-0.274322
-0.274371
-0.274379
-0.274357
-0.266256
-0.268163
-0.26894
-0.269645
-0.27021
-0.270693
-0.271134
-0.271547
-0.271939
-0.272309
-0.272653
-0.272965
-0.273241
-0.273475
-0.273666
-0.273812
-0.273917
-0.273986
-0.274029
-0.274063
-0.274111
-0.2664
-0.268226
-0.268967
-0.269636
-0.270167
-0.270616
-0.271021
-0.271399
-0.271756
-0.272092
-0.272402
-0.272683
-0.272931
-0.273142
-0.273316
-0.273455
-0.273562
-0.273646
-0.273719
-0.2738
-0.273914
-0.266642
-0.268377
-0.269078
-0.269705
-0.270198
-0.270608
-0.270976
-0.271315
-0.271634
-0.271932
-0.272206
-0.272454
-0.272671
-0.272857
-0.273013
-0.27314
-0.273247
-0.273342
-0.273439
-0.273558
-0.273726
-0.266976
-0.26861
-0.269266
-0.269848
-0.270297
-0.270666
-0.270991
-0.271288
-0.271565
-0.271823
-0.272058
-0.272269
-0.272454
-0.272612
-0.272746
-0.27286
-0.272962
-0.273064
-0.273178
-0.273328
-0.273537
-0.267395
-0.268921
-0.269527
-0.270059
-0.27046
-0.270782
-0.271061
-0.271312
-0.271543
-0.271757
-0.27195
-0.272121
-0.27227
-0.272398
-0.272506
-0.272603
-0.272697
-0.272799
-0.272926
-0.273097
-0.273338
-0.26789
-0.269303
-0.269856
-0.270333
-0.270682
-0.270952
-0.271179
-0.27138
-0.271561
-0.271726
-0.271873
-0.272001
-0.272111
-0.272203
-0.272283
-0.272359
-0.272439
-0.272538
-0.27267
-0.272856
-0.273121
-0.268454
-0.269749
-0.270247
-0.270664
-0.270956
-0.27117
-0.27134
-0.271485
-0.271611
-0.271723
-0.271819
-0.271899
-0.271965
-0.272019
-0.272066
-0.272116
-0.272178
-0.272268
-0.2724
-0.272594
-0.272874
-0.269078
-0.270256
-0.270693
-0.271048
-0.271277
-0.271429
-0.271537
-0.27162
-0.271686
-0.271739
-0.271779
-0.271807
-0.271824
-0.271835
-0.271845
-0.271864
-0.271904
-0.271979
-0.272106
-0.272302
-0.272588
-0.269757
-0.270816
-0.271192
-0.271479
-0.271641
-0.271724
-0.271764
-0.271779
-0.271778
-0.271767
-0.271746
-0.271716
-0.27168
-0.271642
-0.27161
-0.271593
-0.271605
-0.271661
-0.271776
-0.271968
-0.272256
-0.27265
-0.270482
-0.271426
-0.271737
-0.271953
-0.272042
-0.272051
-0.272016
-0.271956
-0.271882
-0.2718
-0.271712
-0.271619
-0.271524
-0.271433
-0.271353
-0.271296
-0.271275
-0.271306
-0.271404
-0.271587
-0.271869
-0.272266
-0.271249
-0.272082
-0.272326
-0.272466
-0.272477
-0.272405
-0.272288
-0.272146
-0.271992
-0.271833
-0.271671
-0.271509
-0.27135
-0.271201
-0.271069
-0.270967
-0.270907
-0.270907
-0.270983
-0.271151
-0.27142
-0.271824
-0.272054
-0.27278
-0.272955
-0.273015
-0.272942
-0.272783
-0.272576
-0.272345
-0.272104
-0.27186
-0.271619
-0.271382
-0.271154
-0.270941
-0.270753
-0.2706
-0.270498
-0.270463
-0.270511
-0.270658
-0.270904
-0.271324
-0.272893
-0.273519
-0.273623
-0.273599
-0.273436
-0.273182
-0.272878
-0.27255
-0.272214
-0.27188
-0.271552
-0.271235
-0.270933
-0.270652
-0.270402
-0.270196
-0.270047
-0.269972
-0.269987
-0.27011
-0.270318
-0.270765
-0.270778
-0.273766
-0.274298
-0.27433
-0.274217
-0.273957
-0.273601
-0.273192
-0.27276
-0.272322
-0.27189
-0.27147
-0.271067
-0.270686
-0.270334
-0.270019
-0.269755
-0.269557
-0.269439
-0.269415
-0.26951
-0.269663
-0.270153
-0.269892
-0.274673
-0.275119
-0.275075
-0.274869
-0.274505
-0.27404
-0.273518
-0.272974
-0.272427
-0.271891
-0.271374
-0.27088
-0.270416
-0.269988
-0.269607
-0.269283
-0.269032
-0.268867
-0.2688
-0.268865
-0.268944
-0.269488
-0.268889
-0.275618
-0.275982
-0.275861
-0.275557
-0.275083
-0.2745
-0.273858
-0.273194
-0.272532
-0.271886
-0.271266
-0.270677
-0.270127
-0.269621
-0.26917
-0.268785
-0.268479
-0.268266
-0.26815
-0.26818
-0.268164
-0.268767
-0.267785
-0.271128
-0.276604
-0.276894
-0.27669
-0.276283
-0.275692
-0.274984
-0.274215
-0.273424
-0.27264
-0.271878
-0.271151
-0.270464
-0.269825
-0.26924
-0.268718
-0.26827
-0.267907
-0.267642
-0.26747
-0.267459
-0.267328
-0.267973
-0.266605
-0.270262
-0.277638
-0.277857
-0.277568
-0.277052
-0.276336
-0.275496
-0.274592
-0.273669
-0.272756
-0.271874
-0.271036
-0.270249
-0.269519
-0.268853
-0.268259
-0.267746
-0.267323
-0.267001
-0.266762
-0.266698
-0.266435
-0.267076
-0.265369
-0.269118
-0.278729
-0.278879
-0.278501
-0.277868
-0.27702
-0.276042
-0.274996
-0.273933
-0.272888
-0.271882
-0.27093
-0.27004
-0.269218
-0.26847
-0.267802
-0.267221
-0.266732
-0.266344
-0.266026
-0.265884
-0.265479
-0.266038
-0.26408
-0.267636
-0.259338
-0.279887
-0.279968
-0.279494
-0.278738
-0.277753
-0.276627
-0.275433
-0.274226
-0.273044
-0.271911
-0.270843
-0.269848
-0.268932
-0.2681
-0.267356
-0.266701
-0.266137
-0.265668
-0.265252
-0.264997
-0.264438
-0.264816
-0.262712
-0.26579
-0.25796
-0.281124
-0.281134
-0.280558
-0.27967
-0.278539
-0.27726
-0.275912
-0.274556
-0.273233
-0.271971
-0.270785
-0.269684
-0.268673
-0.267753
-0.266926
-0.266189
-0.265536
-0.264963
-0.264422
-0.26401
-0.263282
-0.263373
-0.261211
-0.263587
-0.256492
-0.282454
-0.282386
-0.281699
-0.280674
-0.279388
-0.277949
-0.276442
-0.274933
-0.273467
-0.272073
-0.270767
-0.269558
-0.268448
-0.267436
-0.266517
-0.265682
-0.264917
-0.26421
-0.26351
-0.262887
-0.261965
-0.261679
-0.259506
-0.261056
-0.254815
-0.283892
-0.283737
-0.282929
-0.281758
-0.280309
-0.278703
-0.277033
-0.275368
-0.273756
-0.272229
-0.270801
-0.269481
-0.268267
-0.267153
-0.266127
-0.265172
-0.264266
-0.263386
-0.262483
-0.261593
-0.260438
-0.259709
-0.257529
-0.258232
-0.252833
-0.285455
-0.285199
-0.284259
-0.282931
-0.281313
-0.279534
-0.277696
-0.275871
-0.274112
-0.272449
-0.270897
-0.269461
-0.268134
-0.266903
-0.265749
-0.264645
-0.263561
-0.262461
-0.261302
-0.260089
-0.258654
-0.257437
-0.255227
-0.255125
-0.250485
-0.287158
-0.28678
-0.285705
-0.284206
-0.282409
-0.280452
-0.278441
-0.276454
-0.274545
-0.272743
-0.271063
-0.269502
-0.26805
-0.266683
-0.265373
-0.264083
-0.262773
-0.261402
-0.259933
-0.258346
-0.256576
-0.254842
-0.252551
-0.251681
-0.247714
-0.289018
-0.288497
-0.287274
-0.285593
-0.283609
-0.281467
-0.279279
-0.277128
-0.275066
-0.273122
-0.271306
-0.269609
-0.268013
-0.266483
-0.264981
-0.26346
-0.261874
-0.260178
-0.258344
-0.256342
-0.254186
-0.251923
-0.249465
-0.247756
-0.244455
-0.291053
-0.290365
-0.288978
-0.287104
-0.284923
-0.28259
-0.280222
-0.277902
-0.275683
-0.273591
-0.271629
-0.269781
-0.268015
-0.266289
-0.264552
-0.26275
-0.260834
-0.258762
-0.256517
-0.254072
-0.251489
-0.248717
-0.245979
-0.243284
-0.240621
-0.293281
-0.292396
-0.290831
-0.28875
-0.286363
-0.283833
-0.281279
-0.278787
-0.276406
-0.274157
-0.272035
-0.270012
-0.268046
-0.266082
-0.264061
-0.261925
-0.259628
-0.257134
-0.254443
-0.25154
-0.248511
-0.245278
-0.242171
-0.238668
-0.236031
-0.29572
-0.294602
-0.292844
-0.290543
-0.287941
-0.285206
-0.282461
-0.279792
-0.277242
-0.274823
-0.272521
-0.270295
-0.26809
-0.265841
-0.263483
-0.26096
-0.258234
-0.255285
-0.252128
-0.248766
-0.245293
-0.241643
-0.238099
-0.234185
-0.230931
-0.298379
-0.297
-0.295029
-0.292494
-0.289666
-0.286719
-0.283778
-0.280924
-0.278194
-0.27559
-0.273082
-0.270617
-0.268128
-0.265542
-0.262793
-0.259834
-0.256642
-0.253214
-0.249585
-0.245774
-0.241881
-0.237843
-0.233922
-0.229658
-0.225936
-0.301276
-0.299602
-0.2974
-0.294615
-0.29155
-0.288384
-0.28524
-0.282192
-0.279268
-0.276455
-0.273709
-0.270963
-0.268138
-0.26516
-0.261969
-0.258531
-0.254845
-0.250928
-0.246834
-0.242596
-0.238312
-0.233929
-0.229678
-0.225139
-0.221135
-0.304427
-0.302418
-0.299967
-0.296919
-0.293605
-0.290211
-0.286854
-0.283601
-0.280464
-0.277414
-0.274391
-0.271314
-0.268097
-0.264671
-0.26099
-0.257042
-0.252845
-0.248443
-0.243901
-0.239262
-0.234622
-0.229931
-0.2254
-0.22064
-0.216422
-0.307843
-0.30546
-0.302743
-0.299415
-0.295843
-0.292211
-0.288631
-0.285156
-0.281781
-0.278459
-0.275112
-0.271647
-0.267981
-0.264055
-0.259845
-0.255362
-0.250652
-0.245776
-0.240808
-0.235798
-0.230835
-0.225872
-0.221101
-0.216152
-0.21178
-0.311538
-0.308741
-0.30574
-0.302117
-0.298274
-0.294395
-0.290578
-0.28686
-0.283217
-0.279578
-0.275851
-0.271939
-0.267767
-0.263294
-0.258523
-0.253495
-0.248277
-0.242944
-0.237578
-0.232228
-0.226972
-0.221765
-0.216783
-0.211672
-0.207165
-0.315522
-0.312271
-0.308968
-0.305036
-0.300911
-0.296772
-0.292702
-0.288715
-0.284763
-0.280756
-0.276588
-0.272167
-0.267432
-0.262372
-0.257021
-0.251446
-0.245733
-0.239967
-0.234229
-0.228566
-0.223044
-0.217618
-0.212445
-0.207189
-0.202562
-0.319805
-0.316061
-0.31244
-0.308184
-0.303766
-0.299352
-0.295007
-0.290717
-0.286408
-0.281972
-0.277298
-0.272305
-0.266958
-0.261281
-0.255338
-0.249223
-0.243034
-0.23686
-0.230776
-0.224825
-0.219057
-0.213431
-0.208083
-0.202694
-0.197952
-0.324396
-0.320119
-0.316165
-0.311573
-0.306848
-0.302143
-0.297494
-0.292859
-0.288137
-0.283204
-0.277955
-0.272329
-0.266329
-0.260013
-0.253478
-0.246836
-0.240192
-0.233634
-0.227228
-0.221009
-0.215014
-0.209203
-0.203691
-0.198178
-0.193326
-0.329301
-0.324453
-0.320154
-0.315213
-0.310167
-0.30515
-0.300162
-0.29513
-0.289927
-0.284425
-0.27853
-0.272218
-0.26553
-0.258565
-0.251444
-0.244292
-0.237217
-0.230298
-0.223591
-0.217122
-0.210914
-0.204929
-0.199262
-0.193634
-0.188674
-0.334525
-0.329071
-0.324415
-0.319112
-0.31373
-0.308374
-0.303004
-0.297512
-0.291755
-0.285605
-0.278998
-0.271951
-0.264552
-0.256935
-0.249241
-0.2416
-0.234115
-0.226857
-0.219867
-0.213161
-0.206753
-0.200604
-0.19479
-0.189054
-0.183988
-0.340069
-0.333977
-0.328954
-0.323278
-0.317542
-0.311812
-0.306006
-0.299984
-0.293589
-0.286712
-0.27933
-0.271511
-0.263388
-0.255123
-0.246872
-0.238764
-0.230891
-0.223311
-0.216053
-0.209125
-0.202527
-0.196221
-0.190267
-0.184429
-0.17926
-0.345933
-0.339172
-0.333775
-0.327715
-0.3216
-0.315455
-0.309149
-0.302514
-0.295396
-0.287715
-0.279503
-0.270882
-0.262029
-0.253128
-0.24434
-0.235785
-0.227544
-0.219659
-0.212148
-0.205007
-0.198228
-0.191774
-0.185686
-0.179753
-0.174483
-0.352112
-0.344657
-0.338879
-0.332421
-0.325899
-0.319287
-0.312407
-0.30507
-0.297138
-0.288581
-0.279493
-0.270052
-0.260472
-0.25095
-0.241645
-0.232665
-0.224073
-0.215898
-0.208145
-0.200801
-0.193849
-0.187254
-0.181039
-0.175018
-0.169651
-0.358596
-0.350425
-0.344263
-0.337391
-0.330427
-0.323287
-0.315746
-0.307611
-0.298776
-0.289277
-0.279277
-0.269008
-0.25871
-0.248587
-0.238785
-0.229399
-0.220473
-0.212022
-0.204037
-0.1965
-0.189384
-0.182655
-0.17632
-0.170218
-0.164757
-0.365371
-0.356467
-0.349918
-0.342614
-0.335163
-0.327422
-0.319126
-0.310092
-0.300269
-0.289772
-0.278836
-0.267739
-0.256738
-0.246034
-0.235757
-0.225983
-0.216739
-0.208023
-0.199818
-0.192096
-0.184825
-0.177969
-0.171521
-0.165345
-0.159795
-0.372416
-0.362769
-0.355829
-0.34807
-0.340081
-0.331654
-0.3225
-0.312465
-0.301577
-0.290038
-0.278152
-0.266234
-0.254549
-0.243285
-0.232555
-0.22241
-0.212861
-0.203894
-0.195479
-0.187581
-0.180163
-0.173188
-0.166636
-0.160393
-0.154759
-0.379705
-0.36931
-0.361976
-0.353733
-0.345142
-0.335937
-0.325815
-0.314682
-0.30266
-0.290046
-0.277205
-0.264481
-0.252134
-0.240334
-0.22917
-0.218671
-0.208833
-0.199625
-0.19101
-0.182946
-0.175391
-0.168305
-0.161658
-0.155356
-0.149644
-0.387206
-0.376062
-0.36833
-0.359569
-0.350304
-0.340215
-0.329015
-0.316691
-0.303479
-0.289768
-0.27598
-0.262469
-0.249484
-0.237171
-0.225593
-0.214758
-0.204642
-0.195207
-0.186403
-0.178184
-0.170502
-0.163314
-0.15658
-0.150228
-0.144442
-0.394876
-0.382992
-0.374855
-0.365534
-0.35551
-0.344428
-0.332039
-0.318442
-0.303996
-0.289181
-0.274459
-0.260185
-0.246589
-0.233786
-0.221813
-0.210658
-0.200281
-0.190629
-0.181649
-0.173285
-0.165486
-0.158206
-0.151396
-0.145002
-0.139151
-0.402669
-0.390058
-0.381507
-0.371576
-0.3607
-0.348508
-0.334824
-0.319884
-0.304175
-0.288259
-0.272624
-0.257616
-0.243435
-0.230166
-0.217819
-0.206361
-0.195736
-0.185883
-0.176739
-0.168242
-0.160338
-0.152975
-0.146101
-0.139674
-0.133764
-0.410528
-0.397211
-0.388233
-0.377632
-0.365804
-0.352385
-0.337309
-0.320968
-0.303981
-0.286977
-0.270458
-0.254746
-0.240009
-0.226299
-0.213599
-0.201855
-0.190999
-0.180959
-0.171663
-0.163047
-0.155049
-0.147615
-0.140688
-0.134237
-0.128277
-0.41839
-0.404394
-0.394971
-0.383634
-0.370745
-0.355985
-0.33943
-0.321648
-0.303382
-0.285314
-0.267943
-0.251561
-0.236298
-0.222171
-0.209139
-0.197128
-0.186058
-0.175846
-0.166414
-0.157691
-0.149613
-0.14212
-0.135152
-0.128686
-0.122686
-0.426185
-0.411541
-0.401651
-0.389504
-0.375442
-0.359231
-0.341126
-0.321879
-0.302346
-0.283246
-0.265061
-0.248045
-0.232286
-0.217769
-0.204427
-0.192169
-0.180902
-0.170535
-0.160982
-0.152168
-0.144023
-0.136485
-0.129489
-0.123018
-0.116988
-0.433834
-0.41858
-0.408195
-0.395157
-0.37981
-0.362048
-0.342338
-0.321618
-0.300843
-0.28075
-0.261792
-0.244179
-0.227957
-0.213078
-0.19945
-0.186966
-0.175522
-0.165017
-0.15536
-0.146471
-0.138274
-0.130703
-0.123694
-0.117227
-0.111178
-0.441253
-0.425432
-0.414518
-0.400502
-0.38376
-0.36436
-0.343009
-0.320824
-0.298843
-0.277804
-0.258119
-0.239949
-0.223297
-0.208084
-0.194194
-0.181507
-0.169906
-0.159283
-0.149541
-0.140592
-0.13236
-0.124771
-0.117762
-0.11131
-0.105256
-0.448352
-0.43201
-0.420528
-0.405445
-0.387203
-0.366096
-0.343084
-0.319459
-0.29632
-0.274386
-0.254022
-0.235337
-0.21829
-0.202773
-0.188649
-0.175783
-0.164047
-0.153326
-0.143516
-0.134527
-0.126275
-0.118684
-0.111691
-0.105266
-0.0992202
-0.455035
-0.438222
-0.426129
-0.409889
-0.390053
-0.367185
-0.342513
-0.317488
-0.293245
-0.270475
-0.249483
-0.230325
-0.212921
-0.197132
-0.182802
-0.169781
-0.157934
-0.147137
-0.137281
-0.128268
-0.120014
-0.112439
-0.105477
-0.0990912
-0.0930745
-0.461203
-0.443971
-0.431219
-0.413733
-0.392222
-0.367561
-0.341249
-0.314876
-0.289595
-0.266049
-0.244483
-0.224899
-0.207176
-0.191148
-0.176641
-0.163494
-0.151561
-0.14071
-0.130828
-0.121812
-0.113574
-0.106031
-0.0991168
-0.0927863
-0.0868217
-0.466755
-0.449157
-0.435695
-0.416881
-0.393629
-0.367162
-0.339249
-0.311593
-0.285345
-0.261089
-0.239005
-0.219042
-0.201041
-0.18481
-0.170158
-0.156913
-0.144919
-0.134039
-0.124152
-0.115154
-0.106951
-0.0994579
-0.092608
-0.0863492
-0.0804597
-0.471585
-0.453677
-0.439453
-0.419234
-0.394194
-0.365931
-0.336472
-0.30761
-0.280472
-0.255576
-0.233033
-0.21274
-0.194503
-0.178106
-0.163343
-0.15003
-0.138002
-0.127118
-0.11725
-0.10829
-0.100141
-0.0927156
-0.0859471
-0.0797789
-0.0739861
-0.475591
-0.457427
-0.44239
-0.4207
-0.393844
-0.363816
-0.332883
-0.302902
-0.274957
-0.249492
-0.226552
-0.205981
-0.187552
-0.171028
-0.156188
-0.142838
-0.130806
-0.119942
-0.110117
-0.101216
-0.093141
-0.0858002
-0.07913
-0.0730739
-0.0673997
-0.478668
-0.460305
-0.444402
-0.42119
-0.392513
-0.360771
-0.32845
-0.297444
-0.268781
-0.242823
-0.219547
-0.198751
-0.180176
-0.163566
-0.148687
-0.135333
-0.123325
-0.11251
-0.10275
-0.0939308
-0.0859481
-0.0787079
-0.0721511
-0.0662276
-0.0606883
-0.480717
-0.462209
-0.445394
-0.420621
-0.390139
-0.356754
-0.323145
-0.291216
-0.261926
-0.235553
-0.212007
-0.191041
-0.172369
-0.155715
-0.140833
-0.127509
-0.115557
-0.104817
-0.095149
-0.0864327
-0.0785614
-0.0714371
-0.065007
-0.059225
-0.0538001
-0.48164
-0.463039
-0.445272
-0.41892
-0.38667
-0.351731
-0.316944
-0.284202
-0.254379
-0.22767
-0.203921
-0.182842
-0.164122
-0.147468
-0.132623
-0.119365
-0.1075
-0.0968637
-0.0873121
-0.0787217
-0.0709814
-0.0639903
-0.0577038
-0.0520579
-0.0466387
-0.481345
-0.462704
-0.443951
-0.416016
-0.382059
-0.345671
-0.309827
-0.276386
-0.246129
-0.219165
-0.195281
-0.174148
-0.155431
-0.138822
-0.124055
-0.110898
-0.0991525
-0.088649
-0.0792401
-0.070799
-0.0632094
-0.0563712
-0.0502528
-0.0447452
-0.0391994
-0.479747
-0.461116
-0.441352
-0.411853
-0.376268
-0.338551
-0.30178
-0.267757
-0.237165
-0.210031
-0.186081
-0.164954
-0.146292
-0.129776
-0.115127
-0.102108
-0.0905152
-0.0801741
-0.0709346
-0.0626668
-0.0552492
-0.0485838
-0.0426559
-0.0372707
-0.0318436
-0.476765
-0.458194
-0.437406
-0.406379
-0.369265
-0.330353
-0.292791
-0.258307
-0.227483
-0.200261
-0.176318
-0.155258
-0.136705
-0.120328
-0.10584
-0.0929958
-0.0815892
-0.0714422
-0.0623989
-0.0543292
-0.0471073
-0.0406427
-0.0349085
-0.0296412
-0.0244663
-0.472331
-0.453866
-0.432053
-0.399554
-0.361028
-0.321065
-0.282853
-0.248032
-0.217078
-0.189855
-0.16599
-0.14506
-0.12667
-0.110479
-0.096194
-0.0835656
-0.0723782
-0.0624586
-0.053639
-0.0457899
-0.0387861
-0.032543
-0.0270142
-0.0218984
-0.0169974
-0.466382
-0.448069
-0.425243
-0.391347
-0.351541
-0.310681
-0.271966
-0.236932
-0.205951
-0.178813
-0.155099
-0.13436
-0.116188
-0.100234
-0.0861945
-0.0738242
-0.0628919
-0.0532239
-0.0446567
-0.0370537
-0.030291
-0.0242878
-0.018982
-0.0140478
-0.00941689
-0.458867
-0.440751
-0.416938
-0.381736
-0.340797
-0.299202
-0.26013
-0.225009
-0.194105
-0.167137
-0.143647
-0.123162
-0.105267
-0.0895998
-0.0758537
-0.0637717
-0.0531304
-0.0437464
-0.0354585
-0.0281268
-0.0216274
-0.0158832
-0.0108196
-0.00608831
-0.00172809
-0.449746
-0.43187
-0.407108
-0.370709
-0.328796
-0.286631
-0.247353
-0.21227
-0.181546
-0.154833
-0.13164
-0.111473
-0.093921
-0.0785838
-0.065171
-0.0534182
-0.0431015
-0.0340331
-0.0260519
-0.0190159
-0.012802
-0.00733635
-0.00253323
0.00197951
0.00606145
-0.438986
-0.421394
-0.395738
-0.358264
-0.315545
-0.272981
-0.233647
-0.198726
-0.168282
-0.141912
-0.119093
-0.0993151
-0.0821428
-0.0671919
-0.0541568
-0.0427725
-0.0328144
-0.0240925
-0.0164451
-0.00972904
-0.00382227
0.00134513
0.00587081
0.0101517
0.0139437
-0.42657
-0.409304
-0.382821
-0.344408
-0.301058
-0.258268
-0.219026
-0.184388
-0.154327
-0.128392
-0.106018
-0.0866861
-0.0699527
-0.0554359
-0.0428219
-0.0318448
-0.0222792
-0.0139342
-0.00664745
-0.000275252
0.00530299
0.010153
0.0143855
0.0184221
0.0219109
-0.412489
-0.39559
-0.368363
-0.329157
-0.285357
-0.242513
-0.203511
-0.169276
-0.139707
-0.114284
-0.0924243
-0.0736021
-0.0573641
-0.0433289
-0.0311789
-0.020647
-0.0115074
-0.00356913
0.00333051
0.00933544
0.0145641
0.0190782
0.0230027
0.0267827
0.0299554
-0.396748
-0.380258
-0.352378
-0.312535
-0.268469
-0.225745
-0.187126
-0.15342
-0.124434
-0.0996038
-0.0783316
-0.0600802
-0.0443925
-0.030886
-0.0192418
-0.00919219
-0.000511581
0.00699072
0.0134773
0.019092
0.0239505
0.0281106
0.0317129
0.0352244
0.0380686
-0.379359
-0.363323
-0.334891
-0.294576
-0.250431
-0.207995
-0.169902
-0.13684
-0.108531
-0.0843755
-0.0637599
-0.0461396
-0.0310552
-0.0181238
-0.00702621
0.0025048
0.0106943
0.0177321
0.0237803
0.0289822
0.0334505
0.0372392
0.0405057
0.0437366
0.0462405
-0.36035
-0.344812
-0.315935
-0.275321
-0.23129
-0.189294
-0.15187
-0.119564
-0.0920248
-0.0686236
-0.0487321
-0.0318016
-0.0173719
-0.00506058
0.00545062
0.0144279
0.0220951
0.0286408
0.0342259
0.0389932
0.0430515
0.0464519
0.0493693
0.0523077
0.05446
-0.339758
-0.324761
-0.295553
-0.254829
-0.211084
-0.16968
-0.133066
-0.101625
-0.0749469
-0.0523756
-0.0332734
-0.0170894
-0.00336406
0.0082836
0.0181701
0.0265598
0.0336746
0.0397013
0.0447996
0.0491108
0.0527399
0.0557356
0.0582911
0.0609244
0.0627144
-0.317627
-0.303216
-0.273806
-0.233169
-0.189809
-0.149222
-0.113533
-0.0830609
-0.0573302
-0.0356617
-0.0174115
-0.00202859
0.0109448
0.0218871
0.0311121
0.0388818
0.0454155
0.0508975
0.055486
0.0593203
0.0625013
0.0650764
0.067257
0.0695715
0.0709887
-0.294009
-0.28024
-0.250771
-0.210372
-0.167548
-0.127949
-0.093316
-0.0639122
-0.0392108
-0.0185148
-0.00117654
0.0133534
0.0255295
0.0357267
0.0442554
0.0513741
0.0572992
0.0622121
0.0662689
0.0696063
0.0723206
0.0744593
0.0762518
0.078231
0.0792614
-0.26896
-0.255913
-0.226516
-0.186366
-0.144473
-0.105927
-0.0724643
-0.0442224
-0.020628
-0.000970248
0.0153994
0.0290272
0.0403631
0.0497776
0.057577
0.0640159
0.0693066
0.0736274
0.0771317
0.0799529
0.0821824
0.0838691
0.0852587
0.086881
0.0875055
-0.242551
-0.230328
-0.201027
-0.161387
-0.120562
-0.0832145
-0.0510303
-0.0240379
-0.00162322
0.0169343
0.0322821
0.0449615
0.055417
0.0640138
0.0710532
0.0767851
0.0814175
0.0851248
0.0880572
0.0903439
0.092071
0.0932902
0.0942611
0.0954996
0.0956987
-0.214864
-0.203582
-0.174291
-0.13559
-0.095889
-0.0598739
-0.0290693
-0.0034077
0.0177594
0.0351591
0.0494354
0.0611234
0.0706613
0.0784079
0.0846589
0.0896589
0.0936108
0.0966851
0.0990279
0.100763
0.10197
0.102708
0.103245
0.104072
0.103827
-0.185981
-0.175706
-0.146571
-0.108965
-0.0705341
-0.0359705
-0.00663885
0.0176167
0.0374735
0.0536621
0.0668213
0.0774785
0.0860645
0.0929313
0.098368
0.102613
0.105865
0.108289
0.110026
0.111193
0.111864
0.112108
0.112204
0.112587
0.111841
-0.155995
-0.146748
-0.118068
-0.0815898
-0.0445747
-0.0115725
0.0162008
0.0389814
0.0574707
0.0723998
0.0844002
0.0939909
0.101594
0.107554
0.112153
0.115624
0.118158
0.119916
0.121033
0.121617
0.121737
0.121481
0.12113
0.120998
0.119591
-0.12506
-0.11686
-0.0888107
-0.0535577
-0.01809
0.0132497
0.0393871
0.0606306
0.077701
0.0913268
0.102131
0.110623
0.117216
0.122246
0.125987
0.128666
0.130467
0.131546
0.132032
0.13202
0.131581
0.130829
0.130005
0.129189
0.126894
-0.0933568
-0.0860792
-0.0588721
-0.0249648
0.00883802
0.0384236
0.0628556
0.0825067
0.0981122
0.110396
0.119972
0.127337
0.132895
0.136974
0.13984
0.141712
0.142768
0.143158
0.143003
0.142389
0.141395
0.140162
0.13882
0.137087
0.133786
-0.0609111
-0.0545752
-0.0283469
0.00409237
0.0361246
0.0638747
0.0865401
0.10455
0.118651
0.12956
0.137878
0.144093
0.148597
0.151707
0.153683
0.154735
0.155036
0.154729
0.153927
0.152709
0.151175
0.149481
0.147583
0.14486
0.140817
-0.0278305
-0.0224833
0.00266061
0.0335156
0.0636829
0.0895266
0.110373
0.126701
0.139263
0.148769
0.155806
0.16085
0.164283
0.166411
0.167486
0.167709
0.167247
0.166237
0.164782
0.162964
0.160899
0.158737
0.156235
0.152607
0.149631
0.00575838
0.010074
0.0340399
0.0632051
0.0914247
0.115302
0.134284
0.148896
0.159893
0.167973
0.173711
0.177569
0.179917
0.181053
0.181217
0.180605
0.179375
0.177657
0.175548
0.173131
0.170531
0.167854
0.164749
0.160697
0.158353
0.0397286
0.042975
0.0656776
0.0930594
0.119261
0.141121
0.158204
0.171073
0.180484
0.187121
0.191545
0.194206
0.195461
0.195597
0.194846
0.193394
0.191393
0.188965
0.186203
0.18319
0.180049
0.176839
0.173193
0.168852
0.166545
0.073952
0.0760969
0.0974586
0.122976
0.1471
0.166905
0.182062
0.19317
0.200979
0.206162
0.209264
0.21072
0.210877
0.21001
0.20834
0.206047
0.203274
0.200137
0.196724
0.193116
0.189428
0.185689
0.181558
0.176951
0.17443
0.108299
0.109316
0.129267
0.152854
0.174854
0.192573
0.205788
0.215121
0.221321
0.225043
0.226819
0.227069
0.226126
0.224256
0.221669
0.218536
0.214993
0.21115
0.207088
0.202888
0.198652
0.19439
0.189799
0.184892
0.18205
0.14264
0.142507
0.160989
0.182588
0.20243
0.218046
0.229308
0.236863
0.241452
0.243714
0.244165
0.243211
0.241171
0.2383
0.2348
0.230831
0.226523
0.221977
0.217272
0.212483
0.207702
0.202928
0.197889
0.192655
0.189443
0.176843
0.175545
0.192507
0.212078
0.229739
0.243244
0.252553
0.258333
0.261315
0.262123
0.261255
0.259102
0.255972
0.252108
0.247701
0.242903
0.237837
0.232596
0.227254
0.221881
0.21656
0.211283
0.2058
0.200224
0.19662
0.21078
0.208308
0.223708
0.241222
0.256692
0.268087
0.275452
0.279467
0.280853
0.280218
0.278042
0.274702
0.270493
0.265645
0.260341
0.254725
0.248909
0.242982
0.237011
0.231061
0.225209
0.219437
0.213516
0.20759
0.203582
0.24432
0.24067
0.254479
0.26992
0.2832
0.292498
0.297934
0.300203
0.30001
0.297948
0.29448
0.289968
0.284694
0.278877
0.272689
0.266266
0.259713
0.25311
0.246521
0.240005
0.233629
0.227371
0.221019
0.214742
0.210324
0.277336
0.272511
0.28471
0.298073
0.309176
0.316398
0.319932
0.320478
0.31873
0.315263
0.310524
0.30486
0.298539
0.29177
0.284715
0.2775
0.270223
0.262958
0.255763
0.248691
0.241802
0.235069
0.228295
0.22167
0.216838
0.309703
0.303711
0.314291
0.325585
0.334535
0.339713
0.341376
0.340231
0.336959
0.332115
0.32613
0.319337
0.311991
0.30429
0.296387
0.288398
0.280414
0.272503
0.264716
0.257102
0.249712
0.242515
0.235331
0.228362
0.223116
0.341298
0.334153
0.343116
0.352363
0.359193
0.362368
0.362201
0.359404
0.354642
0.348453
0.341253
0.333359
0.325015
0.316407
0.307677
0.298934
0.290263
0.281723
0.273359
0.265218
0.257341
0.249693
0.242111
0.234805
0.229147
0.372001
0.363722
0.371082
0.378313
0.38307
0.384291
0.382342
0.377938
0.371728
0.364233
0.355852
0.346889
0.337575
0.328086
0.318555
0.309082
0.299744
0.290594
0.281674
0.273021
0.264672
0.256589
0.248623
0.240989
0.234921
0.401696
0.392309
0.398088
0.403348
0.406088
0.405412
0.401738
0.395777
0.388166
0.379408
0.369885
0.359889
0.349639
0.339299
0.328994
0.318817
0.308835
0.299098
0.289639
0.280494
0.27169
0.263187
0.254854
0.2469
0.240429
0.43027
0.419806
0.424039
0.427382
0.428169
0.425664
0.420326
0.412867
0.403907
0.393933
0.383313
0.372324
0.361173
0.350016
0.338968
0.328113
0.317514
0.307212
0.297238
0.287619
0.278379
0.269475
0.26079
0.252528
0.245662
0.457616
0.446111
0.448841
0.450333
0.449243
0.444982
0.43805
0.429157
0.418905
0.407768
0.396097
0.384158
0.372146
0.360208
0.348449
0.336948
0.325758
0.314918
0.304452
0.294382
0.284725
0.275438
0.26642
0.257861
0.25061
0.48363
0.471127
0.472407
0.472123
0.469239
0.463304
0.454855
0.444595
0.433115
0.42087
0.408201
0.395358
0.382528
0.369847
0.357414
0.345298
0.333549
0.322197
0.311263
0.300765
0.290713
0.281064
0.27173
0.262888
0.255265
0.508215
0.49476
0.494654
0.492679
0.488092
0.480572
0.470687
0.459135
0.446494
0.433203
0.419589
0.405893
0.392291
0.378909
0.365839
0.353143
0.340865
0.329032
0.317657
0.306755
0.29633
0.28634
0.276711
0.2676
0.259619
0.531277
0.516924
0.515501
0.51193
0.50574
0.496731
0.485497
0.472733
0.459002
0.44473
0.430231
0.415734
0.401407
0.387369
0.373701
0.360463
0.34769
0.335405
0.323617
0.312337
0.301563
0.291256
0.28135
0.271986
0.263663
0.552731
0.537536
0.534877
0.529811
0.522126
0.511728
0.499239
0.485347
0.470602
0.455416
0.440094
0.424853
0.409853
0.395203
0.380981
0.367238
0.354006
0.341301
0.32913
0.317499
0.306401
0.295798
0.285637
0.276037
0.267392
0.572496
0.55652
0.552711
0.546262
0.537195
0.525516
0.51187
0.496938
0.481258
0.465231
0.44915
0.433224
0.417603
0.402392
0.387659
0.373452
0.359796
0.346705
0.334183
0.322228
0.310832
0.299959
0.289564
0.279744
0.270799
0.590497
0.573806
0.568942
0.561226
0.550897
0.538051
0.523349
0.507469
0.490938
0.474145
0.457373
0.440824
0.424638
0.408914
0.393717
0.379087
0.365047
0.351605
0.338762
0.326513
0.314846
0.303728
0.293122
0.283101
0.273879
0.606668
0.589331
0.583512
0.574653
0.563188
0.549292
0.533641
0.51691
0.499613
0.482132
0.46474
0.447629
0.430937
0.414754
0.399139
0.38413
0.369744
0.355987
0.342857
0.330345
0.318435
0.307097
0.296301
0.2861
0.276625
0.620948
0.603037
0.596371
0.586499
0.574028
0.559203
0.542714
0.52523
0.507258
0.489169
0.471228
0.453623
0.436482
0.419893
0.403911
0.388567
0.373876
0.359842
0.346458
0.333713
0.32159
0.310058
0.299096
0.288735
0.279034
0.633283
0.614875
0.607472
0.596721
0.583381
0.567752
0.550539
0.532404
0.513848
0.495233
0.476819
0.458786
0.441259
0.42432
0.40802
0.392387
0.377433
0.363159
0.349556
0.336611
0.324303
0.312605
0.301499
0.291
0.281103
0.643627
0.624801
0.616776
0.605287
0.591215
0.574912
0.557091
0.53841
0.519363
0.500308
0.481496
0.463105
0.445254
0.428021
0.411454
0.395579
0.380405
0.36593
0.352144
0.33903
0.326568
0.314731
0.303505
0.29289
0.282827
0.651941
0.632777
0.624252
0.612167
0.597506
0.58066
0.562349
0.543229
0.523788
0.504377
0.485246
0.466566
0.448454
0.430985
0.414204
0.398135
0.382784
0.368148
0.354215
0.340967
0.32838
0.316431
0.30511
0.294401
0.284204
0.658195
0.638776
0.629872
0.617337
0.602232
0.584977
0.566296
0.546846
0.527107
0.50743
0.488058
0.469161
0.450853
0.433206
0.416264
0.400048
0.384564
0.369807
0.355763
0.342414
0.329734
0.317702
0.306309
0.29553
0.285232
0.662365
0.642775
0.633616
0.62078
0.605378
0.587849
0.568921
0.549249
0.529312
0.509456
0.489923
0.470881
0.452442
0.434676
0.417627
0.401314
0.385741
0.370903
0.356786
0.34337
0.330628
0.318541
0.3071
0.296274
0.285909
0.664435
0.644758
0.635472
0.622485
0.606933
0.589266
0.570215
0.550431
0.530394
0.510449
0.490836
0.471721
0.453217
0.435392
0.41829
0.401928
0.386311
0.371434
0.357281
0.343831
0.33106
0.318945
0.307482
0.296633
0.286235
-0.265999
-0.261773
-0.257365
-0.252925
-0.248576
-0.253268
-0.244521
-0.248784
-0.237865
-0.24279
-0.224099
-0.230494
-0.211293
-0.218144
-0.199034
-0.205928
-0.187259
-0.194107
-0.176164
-0.182871
-0.16579
-0.172296
-0.15614
-0.162413
-0.147206
-0.153229
-0.138963
-0.144728
-0.131376
-0.136885
-0.12441
-0.129669
-0.118027
-0.123047
-0.112193
-0.116985
-0.106873
-0.111451
-0.102034
-0.106413
-0.0976466
-0.10184
-0.0936816
-0.0977054
-0.0901138
-0.0939828
-0.0869197
-0.0906488
-0.0840786
-0.087682
-0.0815716
-0.0850634
-0.0793825
-0.0827762
-0.0774967
-0.0808057
-0.075902
-0.0791391
-0.0745877
-0.0777656
-0.0735456
-0.0766765
-0.0727677
-0.0758643
-0.072253
-0.075326
-0.0719864
-0.075053
-0.230935
-0.216072
-0.202966
-0.19108
-0.179588
-0.168885
-0.158943
-0.149722
-0.141209
-0.133364
-0.12615
-0.11953
-0.113469
-0.10793
-0.102881
-0.0982887
-0.0941249
-0.0903621
-0.0869758
-0.0839437