/*--------------------------------*- C++ -*----------------------------------*\
  =========                 |
  \\      /  F ield         | OpenFOAM: The Open Source CFD Toolbox
   \\    /   O peration     | Website:  https://openfoam.org
    \\  /    A nd           | Version:  7
     \\/     M anipulation  |
\*---------------------------------------------------------------------------*/
FoamFile
{
    version     2.0;
    format      ascii;
    class       volVectorField;
    location    "80";
    object      U;
}
// * * * * * * * * * * * * * * * * * * * * * * * * * * * * * * * * * * * * * //

dimensions      [0 1 -1 0 0 0 0];

internalField   nonuniform List<vector> 
6000
(
(-0.000816458 0.000358191 6.0074e-22)
(-0.00521337 0.00210418 -2.69463e-21)
(-0.0133796 0.00442959 -2.97885e-22)
(-0.0230675 0.00696817 1.84714e-21)
(-0.033731 0.00948355 -1.3023e-21)
(-0.0447989 0.0118602 4.26735e-21)
(-0.0558897 0.0140745 1.3323e-21)
(-0.0667583 0.0161654 -1.38837e-21)
(-0.0772466 0.0182055 5.3741e-22)
(-0.0872581 0.0202766 -4.37527e-21)
(-0.0967368 0.0224541 9.34208e-22)
(-0.105651 0.0247977 -8.29008e-23)
(-0.113983 0.0273487 -1.14599e-21)
(-0.121722 0.0301306 2.65108e-21)
(-0.128859 0.033152 5.92899e-23)
(-0.135384 0.036408 -2.33161e-21)
(-0.14129 0.0398828 -9.2588e-22)
(-0.146575 0.0435504 -1.3782e-22)
(-0.151246 0.047376 -1.69029e-21)
(-0.155328 0.0513179 -7.91146e-22)
(-0.000862825 0.00171563 -2.60039e-22)
(-0.00529683 0.005317 -5.51291e-21)
(-0.0134244 0.00888055 -3.98293e-21)
(-0.0230342 0.0122171 -7.33162e-21)
(-0.0335857 0.0152023 6.16725e-21)
(-0.0445146 0.0178108 -3.96429e-21)
(-0.0554445 0.020087 7.54888e-22)
(-0.0661329 0.0221205 -1.15984e-21)
(-0.0764235 0.0240205 -6.23573e-21)
(-0.0862204 0.025895 -8.66838e-22)
(-0.0954669 0.0278369 -1.11815e-21)
(-0.104131 0.0299168 -1.32792e-21)
(-0.112193 0.0321822 7.15709e-21)
(-0.11964 0.0346599 3.43775e-21)
(-0.126462 0.0373596 -3.23385e-21)
(-0.132648 0.0402778 7.14614e-21)
(-0.138191 0.043401 4.96955e-22)
(-0.143084 0.0467085 3.79609e-21)
(-0.147333 0.0501751 5.57983e-21)
(-0.150959 0.0537745 -4.07278e-22)
(-0.000971565 0.00303722 6.76421e-21)
(-0.0055064 0.00845013 1.76928e-22)
(-0.0136041 0.0132262 -1.68257e-20)
(-0.023113 0.0173459 1.42703e-20)
(-0.0335053 0.0207932 1.65315e-21)
(-0.0442303 0.0236299 -1.00834e-20)
(-0.0549204 0.0259662 -5.61279e-21)
(-0.0653387 0.0279407 -5.43811e-21)
(-0.0753323 0.0296986 -1.13644e-22)
(-0.0848065 0.0313734 -2.45446e-21)
(-0.0937051 0.0330751 -2.84042e-21)
(-0.101995 0.0348855 3.58191e-21)
(-0.109655 0.0368586 -1.45135e-20)
(-0.116672 0.0390245 -1.36951e-20)
(-0.123032 0.0413946 1.10809e-20)
(-0.128725 0.0439666 -1.81085e-20)
(-0.133739 0.0467291 -3.75109e-21)
(-0.138064 0.049666 1.7598e-20)
(-0.141701 0.0527609 2.02784e-21)
(-0.14466 0.0560013 -3.91387e-21)
(-0.00113962 0.00431016 -5.33851e-21)
(-0.00583704 0.0114758 1.98492e-20)
(-0.0139149 0.0174306 2.74645e-20)
(-0.0233023 0.0223145 -1.17072e-20)
(-0.0334912 0.026214 -1.74385e-21)
(-0.0439502 0.0292747 2.71596e-20)
(-0.0543244 0.0316696 1.66071e-21)
(-0.0643852 0.0335845 2.13983e-21)
(-0.0739844 0.0351994 1.17179e-20)
(-0.08303 0.0366726 -2.23131e-20)
(-0.0914665 0.0381311 -6.37751e-21)
(-0.09926 0.039668 3.68633e-21)
(-0.106389 0.0413439 -3.77404e-21)
(-0.112838 0.0431925 1.18804e-20)
(-0.118591 0.045227 -5.2702e-21)
(-0.123636 0.0474461 2.54821e-20)
(-0.127956 0.04984 6.67198e-21)
(-0.131538 0.0523962 -8.09977e-22)
(-0.134374 0.0551048 1.00028e-20)
(-0.136462 0.0579649 -9.46226e-21)
(-0.13782 0.0609906 -5.3335e-21)
(-0.00136304 0.00552289 1.12769e-20)
(-0.00628212 0.0143687 -1.74286e-20)
(-0.0143516 0.0214603 7.65467e-21)
(-0.0235995 0.0270846 1.07306e-20)
(-0.0335439 0.0314245 -3.72247e-20)
(-0.0436781 0.0347039 -8.59095e-21)
(-0.0536635 0.0371558 1.10834e-20)
(-0.0632819 0.039011 -1.13149e-21)
(-0.0723918 0.0404828 2.12201e-20)
(-0.0809049 0.0417537 1.60508e-21)
(-0.0887667 0.0429675 1.38001e-20)
(-0.0959434 0.0442283 1.34733e-20)
(-0.102412 0.0456037 2.63458e-20)
(-0.108155 0.0471314 -1.28125e-20)
(-0.113157 0.0488262 3.82727e-21)
(-0.117398 0.0506878 -5.01218e-21)
(-0.120861 0.052707 -1.40429e-20)
(-0.123526 0.0548731 -5.57178e-21)
(-0.125373 0.0571803 2.6232e-21)
(-0.126389 0.0596363 -1.29925e-20)
(-0.126569 0.0622701 9.13633e-21)
(-0.0016371 0.00666525 -2.024e-20)
(-0.00683363 0.0171058 -3.03176e-21)
(-0.0149075 0.0252847 -1.95146e-20)
(-0.0240011 0.031621 -8.33112e-21)
(-0.0336636 0.0363864 3.11426e-20)
(-0.0434177 0.0398779 -2.14667e-21)
(-0.0529446 0.0423846 -2.59e-20)
(-0.0620388 0.04418 2.19344e-20)
(-0.0705671 0.0455093 -1.02149e-20)
(-0.0784456 0.046578 3.62487e-20)
(-0.0856218 0.0475464 -1.8644e-20)
(-0.092062 0.0485299 -3.20331e-20)
(-0.0977422 0.0496032 6.13133e-21)
(-0.102643 0.050808 -2.23055e-21)
(-0.106745 0.0521611 -1.35626e-20)
(-0.110029 0.0536626 -1.52457e-20)
(-0.112469 0.0553031 -1.14876e-20)
(-0.11404 0.0570718 1.10864e-20)
(-0.114712 0.0589641 7.6911e-23)
(-0.114457 0.0609921 6.2439e-21)
(-0.113247 0.0631952 -1.57986e-20)
(-0.00195649 0.00772874 6.06697e-20)
(-0.00748244 0.0196675 -1.52861e-20)
(-0.0155747 0.0288767 -1.82415e-20)
(-0.0245022 0.0358914 -8.4394e-21)
(-0.0338494 0.041064 -2.42705e-20)
(-0.0431722 0.0447588 1.2154e-20)
(-0.0521745 0.0473171 1.89974e-20)
(-0.0606659 0.0490522 -2.0138e-20)
(-0.0685227 0.0502395 1.43427e-20)
(-0.0756666 0.0511066 -2.81735e-20)
(-0.0820477 0.05183 -3.10842e-21)
(-0.0876323 0.0525359 -1.18006e-20)
(-0.0923957 0.0533066 -2.45342e-20)
(-0.0963162 0.0541881 -2.74661e-20)
(-0.0993719 0.0551992 -8.54388e-21)
(-0.101539 0.0563402 1.641e-20)
(-0.102788 0.0576008 -9.71212e-21)
(-0.103087 0.0589682 -2.3698e-20)
(-0.102395 0.0604359 -2.4834e-20)
(-0.10067 0.0620154 2.43195e-20)
(-0.0978622 0.0637504 -2.08094e-20)
(-0.00231555 0.00870664 -6.45005e-21)
(-0.00821864 0.0220374 4.33227e-20)
(-0.0163448 0.0322125 2.26454e-20)
(-0.0250974 0.0398667 1.51018e-20)
(-0.0340996 0.0454246 3.32525e-20)
(-0.0429439 0.0493113 -1.94882e-20)
(-0.0513593 0.0519161 -1.68049e-21)
(-0.0591724 0.0535895 -2.7987e-20)
(-0.0662705 0.0546349 -2.88887e-20)
(-0.0725817 0.0553012 1.79622e-20)
(-0.0780591 0.0557801 2.65738e-20)
(-0.0826697 0.056209 -2.25894e-20)
(-0.0863874 0.0566776 -1.41477e-20)
(-0.0891881 0.0572366 7.57847e-20)
(-0.0910468 0.057907 3.35764e-21)
(-0.0919353 0.0586894 8.27298e-21)
(-0.0918203 0.0595718 6.75839e-21)
(-0.090662 0.0605382 8.54838e-21)
(-0.0884118 0.0615772 -1.11312e-20)
(-0.0850127 0.0626949 3.59406e-21)
(-0.0803961 0.063932 -5.76422e-21)
(-0.0027084 0.0095941 -5.22575e-20)
(-0.00903182 0.0242026 -3.1553e-20)
(-0.0172082 0.0352728 -4.90646e-20)
(-0.0257804 0.043522 1.55819e-20)
(-0.0344119 0.0494387 -5.5825e-20)
(-0.0427344 0.0535025 4.16561e-21)
(-0.0505042 0.0561464 4.25287e-20)
(-0.0575664 0.057755 -9.77232e-21)
(-0.0638208 0.0586579 3.95713e-21)
(-0.0692027 0.0591236 -3.27881e-20)
(-0.0736688 0.0593588 -1.94751e-20)
(-0.0771867 0.0595116 4.1806e-20)
(-0.0797286 0.0596792 2.31387e-20)
(-0.0812678 0.0599173 -3.67232e-20)
(-0.0817753 0.0602497 9.5671e-21)
(-0.0812183 0.0606772 -2.3295e-20)
(-0.0795583 0.0611863 -5.13766e-21)
(-0.0767491 0.0617568 -1.85225e-20)
(-0.0727338 0.0623704 4.17057e-20)
(-0.067444 0.0630233 6.39593e-21)
(-0.0607961 0.0637456 -1.59032e-20)
(-0.00312922 0.0103883 2.14597e-20)
(-0.00991143 0.0261542 3.51202e-21)
(-0.0181552 0.0380421 3.74868e-20)
(-0.0265439 0.0468362 1.68704e-20)
(-0.0347826 0.0530802 5.8503e-20)
(-0.0425436 0.0573024 -4.795e-20)
(-0.0496122 0.059975 -1.43765e-20)
(-0.0558538 0.0615136 3.31191e-20)
(-0.0611815 0.0622719 -3.44574e-20)
(-0.0655387 0.0625367 -3.70301e-21)
(-0.0688859 0.0625285 -8.74727e-21)
(-0.0711911 0.0624061 -1.56741e-20)
(-0.072425 0.0622742 1.95555e-20)
(-0.072557 0.0621938 -1.53767e-20)
(-0.0715535 0.0621917 -7.87363e-21)
(-0.0693762 0.0622698 3.98e-21)
(-0.0659803 0.0624133 1.06186e-20)
(-0.061313 0.0625976 3.76249e-20)
(-0.0553096 0.0627968 -3.44983e-20)
(-0.0478917 0.0629946 -7.4677e-21)
(-0.0389649 0.0632028 4.24856e-20)
(-0.0035724 0.0110881 -1.89145e-20)
(-0.010847 0.0278867 8.97499e-21)
(-0.0191757 0.0405093 -1.10003e-21)
(-0.0273802 0.0497922 2.67999e-20)
(-0.0352067 0.056327 -6.3125e-20)
(-0.0423696 0.0606843 1.00086e-19)
(-0.0486843 0.0633716 2.56446e-20)
(-0.0540375 0.0648324 7.38173e-22)
(-0.0583566 0.0654421 6.28069e-20)
(-0.0615937 0.0655044 9.96287e-21)
(-0.0637133 0.0652527 1.92819e-20)
(-0.0646839 0.0648558 -5.7957e-20)
(-0.0644734 0.064426 -1.98186e-20)
(-0.0630468 0.0640299 6.49803e-20)
(-0.0603646 0.0636977 -9.03847e-21)
(-0.0563813 0.0634333 1.03411e-20)
(-0.0510448 0.0632209 -2.99263e-21)
(-0.0442941 0.0630332 -8.36812e-20)
(-0.0360566 0.0628364 2.53033e-20)
(-0.0262451 0.0626013 1.90193e-20)
(-0.0147551 0.0623172 1.25185e-20)
(-0.00403277 0.0116947 2.43526e-20)
(-0.0118286 0.0293985 1.67977e-20)
(-0.0202597 0.0426676 -5.55668e-20)
(-0.0282803 0.0523776 -3.44452e-20)
(-0.0356776 0.0591608 -3.27344e-21)
(-0.0422078 0.0636251 -3.98234e-20)
(-0.0477176 0.0663091 -4.75111e-20)
(-0.0521155 0.0676811 -2.10819e-21)
(-0.0553442 0.068136 -6.94178e-20)
(-0.0573648 0.0679927 5.46939e-21)
(-0.0581455 0.0674966 2.4914e-20)
(-0.0576547 0.0668257 5.00921e-20)
(-0.0558572 0.0660998 -1.46146e-20)
(-0.052712 0.0653911 -4.51936e-20)
(-0.0481718 0.0647341 -2.33954e-20)
(-0.0421826 0.0641352 -3.13779e-20)
(-0.0346818 0.063579 -4.46433e-20)
(-0.0255991 0.0630367 8.40317e-20)
(-0.0148518 0.062469 -9.9874e-21)
(-0.00234328 0.0618346 -5.20668e-20)
(0.0120403 0.0611008 9.95225e-21)
(0.0284554 0.0602868 -3.34562e-20)
(-0.00450575 0.0122105 8.15098e-21)
(-0.0128469 0.0306914 1.26182e-20)
(-0.0213967 0.0445145 4.35423e-20)
(-0.0292344 0.054584 7.83095e-20)
(-0.0361864 0.0615676 4.94821e-20)
(-0.0420503 0.0661055 1.04147e-20)
(-0.0467043 0.0687637 2.24634e-20)
(-0.0500798 0.0700325 7.10166e-21)
(-0.0521345 0.0703241 5.57647e-20)
(-0.0528387 0.0699707 -2.6955e-21)
(-0.0521641 0.0692284 1.58529e-20)
(-0.0500783 0.0682838 3.7017e-20)
(-0.0465412 0.067264 -1.76239e-20)
(-0.0415045 0.0662468 6.15201e-20)
(-0.0349109 0.0652714 3.62571e-20)
(-0.0266951 0.0643476 3.71251e-20)
(-0.016782 0.0634626 8.84896e-20)
(-0.00508761 0.0625868 -3.72575e-20)
(0.00848271 0.0616785 -4.77523e-20)
(0.024037 0.0606881 2.73679e-21)
(0.0417027 0.0595641 4.95943e-20)
(0.0616037 0.0582937 -3.6108e-20)
(-0.00498749 0.0126399 -3.53358e-20)
(-0.0138932 0.0317703 -6.46465e-20)
(-0.0225766 0.0460512 9.6181e-21)
(-0.0302314 0.0564075 -7.19244e-20)
(-0.0367212 0.0635377 8.80711e-21)
(-0.0418843 0.0681104 1.91431e-21)
(-0.0456305 0.0707159 -9.05971e-20)
(-0.0479137 0.0718637 1.78444e-20)
(-0.0487069 0.0719807 4.00256e-20)
(-0.047989 0.0714111 -3.45237e-21)
(-0.0457344 0.0704202 -3.95121e-20)
(-0.0419083 0.0692026 -1.97682e-20)
(-0.0364645 0.0678919 2.22095e-20)
(-0.0293448 0.0665721 3.81333e-21)
(-0.0204795 0.0652875 3.82362e-20)
(-0.00978835 0.0640519 -5.41862e-20)
(0.0028191 0.0628565 -4.40065e-20)
(0.0174439 0.061673 -9.10082e-21)
(0.0341973 0.0604606 9.19413e-21)
(0.0531997 0.0591659 -8.39614e-21)
(0.0746041 0.0577251 -3.54975e-20)
(0.0984506 0.0561034 2.15285e-20)
(-0.00547497 0.0129884 7.51383e-21)
(-0.0149599 0.0326432 1.1507e-19)
(-0.0237887 0.0472828 -7.22105e-20)
(-0.0312582 0.0578484 -3.70639e-20)
(-0.0372666 0.0650659 -4.39846e-20)
(-0.0416917 0.0696295 -3.74436e-20)
(-0.0444741 0.0721509 5.88446e-20)
(-0.0455899 0.0731561 -3.99293e-21)
(-0.045027 0.0730851 -2.42913e-20)
(-0.0427714 0.0722919 3.16684e-20)
(-0.0387992 0.07105 3.86452e-21)
(-0.0330712 0.0695611 3.66704e-21)
(-0.0255324 0.0679651 -9.555e-21)
(-0.0161121 0.0663518 -5.79851e-20)
(-0.0047249 0.0647713 -4.78702e-20)
(0.00872767 0.0632426 3.71551e-20)
(0.0243558 0.0617614 -3.53726e-20)
(0.0422806 0.0603043 4.29592e-21)
(0.062634 0.0588331 3.05119e-20)
(0.0855482 0.0572961 -1.27983e-20)
(0.111222 0.0556248 2.1395e-20)
(0.139528 0.0537711 -9.61905e-21)
(-0.00596605 0.0132627 -6.44705e-20)
(-0.0160401 0.0333203 -3.00421e-20)
(-0.0250224 0.0482175 9.14637e-20)
(-0.0322996 0.0589106 3.26017e-20)
(-0.0378027 0.0661512 1.46978e-20)
(-0.041447 0.0706571 2.25296e-20)
(-0.0432029 0.0730588 2.49987e-20)
(-0.0430677 0.0738971 -6.55673e-20)
(-0.0410427 0.0736227 2.39558e-20)
(-0.0371197 0.0725981 -7.52007e-20)
(-0.0312736 0.0711037 4.28961e-21)
(-0.0234586 0.0693474 -4.72616e-20)
(-0.0136076 0.0674753 6.63388e-20)
(-0.00163378 0.0655832 1.56315e-20)
(0.0125677 0.0637274 -7.97362e-21)
(0.0291173 0.0619331 -9.81223e-21)
(0.0481485 0.0602023 3.91e-20)
(0.0698054 0.0585178 -1.00598e-20)
(0.0942434 0.0568474 5.41204e-20)
(0.121598 0.0551445 1.90828e-20)
(0.152149 0.0533468 -2.87859e-20)
(0.185461 0.0513829 -2.54928e-20)
(0.224133 0.0492473 -3.75676e-21)
(-0.00645943 0.0134702 7.70334e-20)
(-0.0171279 0.0338135 1.39175e-20)
(-0.0262658 0.0488665 4.22553e-20)
(-0.0333377 0.0596019 5.55537e-20)
(-0.0383041 0.0667972 -1.39077e-22)
(-0.0411162 0.0711925 -5.16057e-20)
(-0.0417724 0.0734357 -1.7909e-20)
(-0.0402898 0.0740803 2.93896e-20)
(-0.0366807 0.0735862 3.72157e-21)
(-0.03094 0.0723228 5.94516e-20)
(-0.0230385 0.0705766 4.10943e-20)
(-0.0129198 0.068561 4.68659e-20)
(-0.00050096 0.0664283 -3.23104e-20)
(0.0143253 0.0642806 6.03607e-20)
(0.0316874 0.062181 -2.09753e-20)
(0.0517311 0.0601623 1.97962e-20)
(0.0746156 0.0582342 4.86404e-20)
(0.100508 0.0563876 -4.3976e-20)
(0.129589 0.0545992 -1.66558e-20)
(0.161977 0.0528279 -1.14357e-20)
(0.198073 0.0510363 -7.77329e-21)
(0.236944 0.0490784 3.8869e-20)
(0.282666 0.047259 -4.34153e-20)
(-0.00695465 0.0136187 -5.94779e-21)
(-0.0182177 0.034136 -6.12434e-21)
(-0.0275063 0.0492429 -1.08972e-19)
(-0.0343505 0.0599331 1.5368e-20)
(-0.0387385 0.0670116 1.88062e-20)
(-0.0406548 0.0712404 3.05203e-20)
(-0.0401238 0.0732838 7.79107e-21)
(-0.0371795 0.0737069 -3.57282e-20)
(-0.0318423 0.072977 7.92864e-20)
(-0.0241065 0.0714697 -7.44068e-20)
(-0.0139344 0.0694764 -1.05323e-19)
(-0.00125459 0.0672163 -1.47952e-21)
(0.0140367 0.0648476 1.36807e-21)
(0.0320715 0.0624796 9.76374e-21)
(0.0530054 0.0601834 4.31847e-20)
(0.0770118 0.0580004 -1.56352e-20)
(0.104276 0.0559497 -6.63273e-20)
(0.134982 0.0540321 5.69066e-20)
(0.16933 0.0522361 2.36457e-20)
(0.20739 0.0505208 -2.52641e-20)
(0.249726 0.0489085 -4.29503e-20)
(0.294669 0.0470664 -3.89258e-20)
(0.348238 0.0459228 -1.13992e-21)
(-0.00745187 0.0137162 -2.86562e-20)
(-0.019304 0.0343017 -3.84475e-20)
(-0.0287292 0.0493616 5.88463e-20)
(-0.0353118 0.059918 -1.16837e-19)
(-0.0390658 0.066806 -1.89797e-20)
(-0.0400063 0.0708108 -3.05431e-20)
(-0.038181 0.0726125 5.84278e-21)
(-0.0336374 0.0727863 -1.77405e-20)
(-0.0263993 0.0718068 -1.77917e-19)
(-0.016456 0.0700543 4.76417e-20)
(-0.00375577 0.0678255 9.76876e-20)
(0.0117933 0.065345 1.39785e-20)
(0.0303206 0.0627779 3.541e-20)
(0.0519871 0.0602414 -1.64544e-20)
(0.0769775 0.057816 -7.82596e-20)
(0.105492 0.0555534 -5.70389e-20)
(0.137735 0.0534836 6.82245e-20)
(0.173897 0.0516181 1.15483e-21)
(0.214181 0.0499601 -6.32156e-20)
(0.258555 0.0484557 4.56582e-20)
(0.307778 0.0472421 -5.09764e-20)
(0.359202 0.0456261 -1.14567e-20)
(0.421124 0.045541 -1.64486e-20)
(0.469613 0.0420041 3.19217e-20)
(-0.00795175 0.0137702 2.62033e-20)
(-0.0203813 0.0343243 7.62373e-20)
(-0.0299173 0.0492382 -8.25399e-20)
(-0.0361897 0.0595723 9.63842e-20)
(-0.0392365 0.066196 9.16638e-20)
(-0.0391005 0.0699193 4.02264e-20)
(-0.035849 0.0714381 -4.11611e-20)
(-0.0295383 0.0713375 5.21006e-20)
(-0.0201908 0.0700985 1.18457e-19)
(-0.007784 0.0681065 -6.05195e-20)
(0.00775333 0.0656633 1.40286e-20)
(0.0265396 0.0629997 -6.83222e-20)
(0.0487343 0.0602886 -1.14489e-20)
(0.0745291 0.0576568 -8.34154e-20)
(0.104137 0.0551952 8.83335e-20)
(0.137776 0.0529675 -9.63008e-21)
(0.175656 0.0510154 -1.43579e-20)
(0.217949 0.04936 -1.33267e-20)
(0.264827 0.0480236 2.53651e-20)
(0.316093 0.0469135 -4.2507e-20)
(0.37268 0.0463541 3.51041e-20)
(0.430813 0.0450904 8.01981e-21)
(0.501054 0.0464095 -8.76145e-21)
(0.553481 0.0428556 -3.39763e-20)
(-0.00845516 0.0137876 6.24268e-21)
(-0.0214429 0.0342167 -1.09357e-19)
(-0.0310502 0.0488887 1.10848e-20)
(-0.036946 0.0589137 -8.356e-20)
(-0.0391907 0.0652008 -4.20688e-20)
(-0.0378517 0.0685871 3.31082e-20)
(-0.0330114 0.0697846 -1.24914e-20)
(-0.0247294 0.0693891 -1.18987e-20)
(-0.01302 0.067888 -4.39022e-20)
(0.00215754 0.065672 4.40402e-20)
(0.0209008 0.0630487 -1.12328e-19)
(0.0433594 0.0602564 5.66924e-20)
(0.0697254 0.0574772 9.18138e-20)
(0.100219 0.0548488 2.65875e-21)
(0.135072 0.0524743 2.1055e-20)
(0.174505 0.0504293 3.34425e-20)
(0.218705 0.0487671 1.27733e-20)
(0.267779 0.0475151 3.1801e-20)
(0.321819 0.0467162 -2.38185e-20)
(0.380388 0.0462069 1.15522e-19)
(0.444493 0.0465597 1.28535e-19)
(0.509268 0.0458096 8.61937e-20)
(0.587025 0.0487499 5.01601e-20)
(0.642935 0.0452869 8.1729e-20)
(-0.00896285 0.0137745 8.43166e-21)
(-0.0224808 0.0339905 5.86007e-20)
(-0.0321036 0.0483287 1.0985e-19)
(-0.0375347 0.0579607 2.10223e-20)
(-0.0388567 0.0638427 6.81709e-20)
(-0.0361573 0.0668402 -1.0115e-19)
(-0.0295292 0.067684 6.00913e-20)
(-0.0190283 0.0669807 -2.00713e-20)
(-0.00465367 0.0652249 1.51682e-19)
(0.0136609 0.0628136 -9.76147e-20)
(0.036045 0.0600617 2.54209e-20)
(0.0626821 0.0572164 -4.48286e-20)
(0.0937946 0.0544707 -1.21266e-19)
(0.129622 0.0519744 -7.61163e-20)
(0.170396 0.0498431 -3.12613e-20)
(0.216306 0.0481632 1.07059e-20)
(0.267469 0.0469967 1.20878e-20)
(0.323868 0.0463697 -1.71371e-20)
(0.385432 0.0463427 -3.24828e-20)
(0.451422 0.0466519 -1.04436e-19)
(0.522722 0.0481263 -8.2279e-20)
(0.593651 0.0480928 -5.61497e-20)
(0.677223 0.0526555 -3.06978e-20)
(0.735932 0.0494808 7.14554e-20)
(0.851491 0.0575949 -1.15104e-20)
(-0.00947517 0.0137354 5.47883e-20)
(-0.0234847 0.0336555 2.19594e-20)
(-0.0330481 0.0475724 -3.47569e-20)
(-0.0379016 0.0567329 -2.86839e-20)
(-0.03815 0.0621465 -4.32137e-20)
(-0.0338973 0.0647103 3.96609e-20)
(-0.0252397 0.0651761 -1.17342e-21)
(-0.0122227 0.0641627 4.98258e-20)
(0.00517784 0.0621733 -9.75989e-20)
(0.0270598 0.0596127 1.03143e-19)
(0.0535881 0.0568048 1.3068e-20)
(0.0849785 0.0540075 1.47902e-21)
(0.121474 0.0514261 7.42489e-20)
(0.163312 0.0492228 4.94541e-20)
(0.210689 0.047524 1.5786e-20)
(0.263714 0.0464232 2.84031e-20)
(0.322365 0.0459837 -6.25479e-20)
(0.386419 0.0462184 1.389e-20)
(0.455538 0.0471915 -8.14951e-20)
(0.528636 0.0485292 1.21912e-19)
(0.60621 0.0512348 1.45373e-21)
(0.682253 0.0521331 -2.39012e-21)
(0.76911 0.0580707 -2.51726e-20)
(0.829588 0.0554262 -8.58415e-20)
(0.944253 0.0653924 -4.70222e-20)
(-0.00999162 0.0136733 -1.28326e-19)
(-0.0244416 0.033219 -2.26383e-20)
(-0.0338483 0.0466327 1.0545e-20)
(-0.037984 0.0552506 3.21075e-20)
(-0.0369732 0.0601391 2.14877e-20)
(-0.0309333 0.0622337 -1.73918e-20)
(-0.019957 0.0623087 -9.85435e-21)
(-0.00407156 0.060997 8.03525e-20)
(0.0167772 0.0588121 -1.91946e-20)
(0.0427231 0.056169 -1.69865e-20)
(0.0739651 0.0534026 3.06587e-20)
(0.110742 0.0507832 2.35961e-20)
(0.153295 0.0485283 -2.91984e-20)
(0.201824 0.0468111 -1.03148e-19)
(0.256437 0.0457642 1.78292e-20)
(0.317088 0.0454796 -2.15621e-21)
(0.38353 0.046009 -1.10315e-20)
(0.455235 0.047336 1.59854e-20)
(0.531485 0.0494995 1.28573e-19)
(0.610831 0.0520355 -2.55833e-20)
(0.693127 0.0559501 -5.23069e-20)
(0.772612 0.0579402 -6.91878e-21)
(0.859658 0.0647943 6.08768e-20)
(0.920453 0.0628716 5.13125e-20)
(1.029 0.0738492 1.37952e-20)
(-0.0105105 0.0135898 5.01621e-20)
(-0.025335 0.0326856 -5.81708e-20)
(-0.0344627 0.0455211 4.00647e-21)
(-0.0377083 0.0535322 3.39935e-20)
(-0.0352153 0.0578493 5.86794e-20)
(-0.0271093 0.0594513 2.73626e-20)
(-0.013473 0.0591371 -3.04288e-20)
(0.00569187 0.0575561 8.96145e-21)
(0.0304742 0.0552349 5.63464e-20)
(0.0610439 0.0526008 -6.68476e-20)
(0.0976254 0.0500015 1.79586e-20)
(0.140459 0.0477203 -5.94284e-20)
(0.189749 0.0459855 8.28553e-20)
(0.245601 0.0449762 4.85744e-20)
(0.307957 0.0448221 -3.25917e-20)
(0.376525 0.0455994 -3.24989e-21)
(0.450725 0.0473284 -3.86738e-20)
(0.529632 0.0499439 3.2794e-20)
(0.612047 0.053417 1.73018e-20)
(0.696166 0.0572368 2.84878e-20)
(0.781069 0.0622033 -1.05301e-19)
(0.86173 0.0653123 8.13418e-20)
(0.945704 0.0724938 -1.18546e-19)
(1.005 0.0713523 5.8303e-20)
(1.10286 0.0823439 3.33101e-20)
(-0.0110286 0.0134842 -5.79584e-20)
(-0.0261433 0.0320568 1.25037e-19)
(-0.0348436 0.0442471 -2.64159e-20)
(-0.0369916 0.0515958 -1.25669e-19)
(-0.0327519 0.055308 5.36575e-20)
(-0.0222524 0.0564083 -5.214e-20)
(-0.0055598 0.0557238 -4.22733e-20)
(0.017355 0.0539233 -4.56347e-20)
(0.0466172 0.0515489 5.12299e-20)
(0.0824253 0.0490428 6.39273e-20)
(0.12501 0.0467665 -5.2865e-20)
(0.174577 0.0450146 4.33737e-20)
(0.231237 0.0440217 4.74236e-21)
(0.294924 0.043963 -1.95985e-20)
(0.365316 0.0449499 5.76795e-20)
(0.441769 0.0470222 -8.50827e-20)
(0.523264 0.0501428 4.94174e-20)
(0.608395 0.0541753 -3.47649e-20)
(0.695441 0.0589783 -1.20544e-20)
(0.782278 0.0640405 1.29126e-19)
(0.867275 0.0697855 1.33157e-19)
(0.946446 0.0738619 2.58248e-20)
(1.02435 0.0807342 -6.18246e-20)
(1.0802 0.0802832 -3.59291e-20)
(1.16414 0.0902955 1.61493e-20)
(-0.0115409 0.0133541 7.0555e-20)
(-0.02684 0.0313309 -1.31885e-19)
(-0.0349356 0.0428178 4.6917e-20)
(-0.0357415 0.0494593 9.58381e-20)
(-0.029446 0.0525467 -7.76365e-20)
(-0.0161751 0.0531535 5.82447e-20)
(0.00402588 0.0521379 -6.91364e-20)
(0.0312191 0.0501913 6.02792e-21)
(0.0655607 0.0478742 -3.39153e-20)
(0.107261 0.0456447 -3.96087e-20)
(0.156523 0.0438776 9.33283e-21)
(0.213463 0.0428744 -7.80799e-20)
(0.278018 0.0428663 5.35633e-20)
(0.349853 0.0440088 -1.43437e-21)
(0.428271 0.0463727 -1.08638e-20)
(0.512163 0.0499345 -4.06181e-21)
(0.599986 0.0545692 6.78505e-21)
(0.689814 0.0600474 9.65634e-20)
(0.779438 0.0660837 -1.4451e-19)
(0.866507 0.0721961 6.43541e-20)
(0.948932 0.0783631 -1.44018e-19)
(1.02387 0.0830855 -4.97014e-21)
(1.09333 0.0890327 6.24594e-21)
(1.14403 0.0890925 4.4974e-20)
(1.21239 0.0972394 3.31378e-20)
(-0.0120405 0.0131955 3.35012e-20)
(-0.0273949 0.0305057 2.55777e-20)
(-0.034674 0.041237 -1.36797e-19)
(-0.0338559 0.0471388 -1.2723e-20)
(-0.0251493 0.0495981 -3.65375e-20)
(-0.00867769 0.0497391 -1.38223e-20)
(0.015538 0.0484547 2.0349e-19)
(0.0475899 0.0464617 -7.19291e-20)
(0.0876511 0.0443413 -1.38198e-20)
(0.135913 0.0425674 4.33166e-20)
(0.192499 0.0415243 -1.14049e-20)
(0.257358 0.0415116 2.87891e-20)
(0.330157 0.0427408 -1.97411e-20)
(0.410171 0.045325 -1.43658e-21)
(0.496217 0.0492654 -3.37405e-20)
(0.586626 0.0544435 1.10275e-20)
(0.67929 0.0606176 2.62516e-20)
(0.771795 0.0674469 -2.85004e-20)
(0.861575 0.0744986 4.60332e-20)
(0.946204 0.0813267 -4.87199e-20)
(1.02353 0.0875202 2.82075e-20)
(1.09178 0.0924486 4.09664e-20)
(1.15132 0.0969464 3.51493e-21)
(1.19565 0.0973633 -7.45579e-21)
(1.24821 0.10286 -5.76162e-20)
(-0.0125178 0.0130036 -1.28873e-20)
(-0.0277733 0.0295762 3.98221e-20)
(-0.0339875 0.0395054 9.73546e-20)
(-0.0312226 0.0446504 1.96218e-20)
(-0.0197038 0.0464961 1.23271e-20)
(0.000448077 0.0462208 -2.28766e-21)
(0.0292347 0.0447552 -9.58509e-20)
(0.0667672 0.0428441 -2.08976e-20)
(0.11321 0.0410898 2.25665e-20)
(0.168687 0.0399797 -1.28977e-20)
(0.233169 0.0398994 1.10953e-19)
(0.306341 0.0411314 -1.09082e-20)
(0.387477 0.0438445 5.11348e-20)
(0.475346 0.0480786 8.62813e-20)
(0.568173 0.0537313 -4.68719e-20)
(0.663686 0.0605579 1.81221e-20)
(0.759241 0.0681787 4.38455e-20)
(0.852051 0.0761352 -1.4624e-20)
(0.939414 0.0838751 -1.09717e-19)
(1.01905 0.0909848 2.29841e-21)
(1.08916 0.0968204 4.08936e-20)
(1.14888 0.10146 -3.72082e-20)
(1.198 0.104183 4.09962e-20)
(1.23525 0.104916 -3.38447e-20)
(1.27284 0.106938 -3.87453e-20)
(-0.012961 0.0127721 -5.7297e-20)
(-0.0279333 0.0285331 2.06916e-20)
(-0.032799 0.0376245 -1.0149e-20)
(-0.0277221 0.0420102 -7.82868e-20)
(-0.0129442 0.0432761 5.82794e-20)
(0.0114146 0.0426576 2.14231e-20)
(0.0453704 0.0411255 -5.37597e-20)
(0.0890326 0.0394542 6.90801e-20)
(0.142514 0.0382654 -3.34076e-20)
(0.205807 0.0380534 -6.00048e-20)
(0.27863 0.0391911 -1.66449e-19)
(0.360287 0.0419211 6.22834e-20)
(0.449532 0.0463384 -1.10268e-19)
(0.544517 0.0523732 -4.12019e-21)
(0.642818 0.059785 -1.18771e-20)
(0.741575 0.0681775 1.4819e-20)
(0.837729 0.077028 -3.4645e-20)
(0.928333 0.0857732 -1.39673e-20)
(1.01082 0.0937953 4.68698e-20)
(1.08334 0.100719 -5.25936e-20)
(1.14473 0.105864 -6.09985e-20)
(1.1949 0.109736 8.73541e-20)
(1.23398 0.110689 -5.71644e-20)
(1.26373 0.111681 -6.31146e-21)
(1.28782 0.109241 -1.38956e-20)
(-0.0133554 0.0124929 -3.3356e-20)
(-0.0278278 0.027367 -3.69968e-20)
(-0.0310244 0.0355957 5.92259e-20)
(-0.0232283 0.0392349 4.06554e-21)
(-0.00470044 0.0399757 -1.04103e-19)
(0.0244338 0.0391124 -1.44915e-19)
(0.0641886 0.0376575 4.47453e-20)
(0.114637 0.0364137 -5.4754e-20)
(0.175781 0.0360176 5.08695e-20)
(0.247388 0.0369581 -4.73041e-20)
(0.328814 0.0395741 1.09339e-19)
(0.418843 0.0440371 -1.53129e-20)
(0.515593 0.0503299 5.01877e-20)
(0.616521 0.0582348 7.07683e-20)
(0.718557 0.0673431 -7.48696e-20)
(0.818364 0.0770973 -7.73109e-20)
(0.912678 0.0868474 5.0898e-21)
(0.998667 0.0959632 1.61473e-20)
(1.0742 0.103829 -1.61109e-20)
(1.13808 0.110136 7.4632e-20)
(1.18997 0.114325 9.00051e-20)
(1.23046 0.117057 -1.00614e-19)
(1.26054 0.116597 1.396e-20)
(1.2826 0.11728 2.54864e-20)
(1.29501 0.109583 -3.8039e-20)
(-0.0136822 0.0121573 9.55122e-20)
(-0.0274056 0.02607 6.03008e-20)
(-0.0285733 0.0334203 -8.87162e-20)
(-0.01761 0.0363425 5.66101e-20)
(0.00519947 0.0366356 3.53549e-20)
(0.0397119 0.0356529 1.66884e-19)
(0.085912 0.0344479 1.07646e-19)
(0.143786 0.0338487 -5.29365e-22)
(0.213144 0.0344964 -3.80633e-20)
(0.293418 0.0368554 1.03399e-19)
(0.383464 0.0412006 -1.07291e-19)
(0.481418 0.0475928 4.25448e-20)
(0.584663 0.0558604 3.20853e-20)
(0.689946 0.0656023 -9.78135e-20)
(0.793641 0.0762265 7.31848e-21)
(0.892138 0.0870255 1.09253e-19)
(0.982247 0.0972627 1.29009e-20)
(1.06156 0.106299 1.44635e-20)
(1.12862 0.113591 6.65414e-20)
(1.18306 0.118942 -4.37826e-20)
(1.22538 0.121981 -8.11511e-20)
(1.2568 0.123411 6.59557e-20)
(1.27906 0.121931 -1.60018e-19)
(1.29364 0.121132 7.20078e-20)
(1.30267 0.113783 -2.15595e-20)
(-0.0139215 0.0117592 -1.06446e-19)
(-0.0266087 0.0246343 -1.07935e-19)
(-0.0253505 0.0311006 2.19386e-20)
(-0.0107321 0.033354 3.09148e-20)
(0.0169262 0.0333006 -3.87299e-20)
(0.0574434 0.0323518 -1.63445e-19)
(0.110734 0.0315993 -4.43227e-20)
(0.176628 0.0318886 1.06382e-19)
(0.25464 0.0338488 1.49688e-21)
(0.343734 0.0378922 -4.76338e-20)
(0.442124 0.04419 8.81815e-20)
(0.547184 0.0526472 -1.3036e-20)
(0.655518 0.0628958 1.44041e-19)
(0.763225 0.0743285 2.81486e-20)
(0.866313 0.0861753 -3.30586e-20)
(0.961174 0.0976157 -4.1131e-20)
(1.045 0.107889 6.11454e-21)
(1.11608 0.116415 2.74354e-20)
(1.17382 0.122784 5.24686e-20)
(1.21871 0.126951 6.69364e-21)
(1.25198 0.128739 -6.92442e-21)
(1.2754 0.128922 -2.53114e-20)
(1.29095 0.126452 7.67906e-20)
(1.30021 0.124679 1.1415e-20)
(1.30571 0.117148 6.58277e-20)
(-0.0140532 0.0112927 -4.08408e-21)
(-0.0253745 0.0230523 3.72579e-20)
(-0.0212555 0.0286427 5.16326e-20)
(-0.00245812 0.0302949 -7.66373e-20)
(0.0306457 0.0300215 1.04247e-20)
(0.0778061 0.0292888 3.3219e-20)
(0.138811 0.0292199 -2.25529e-20)
(0.21324 0.0306643 -1.05972e-20)
(0.30019 0.0342148 2.01721e-20)
(0.39801 0.0401931 -4.85342e-20)
(0.504139 0.0486199 -8.3606e-20)
(0.61511 0.059196 -4.20708e-20)
(0.726779 0.0713251 -2.99999e-20)
(0.834758 0.0841898 -8.99393e-20)
(0.934956 0.0968741 3.06149e-20)
(1.02409 0.108506 -1.12891e-22)
(1.10003 0.118372 -5.51043e-20)
(1.16194 0.12602 8.46354e-21)
(1.21015 0.131218 2.3936e-20)
(1.24594 0.134085 -1.0018e-23)
(1.2711 0.134631 6.98135e-21)
(1.28777 0.133667 6.50043e-20)
(1.29796 0.13037 -7.19307e-20)
(1.3032 0.127806 -7.90931e-20)
(1.3059 0.120165 -1.64725e-20)
(-0.014054 0.0107515 1.25345e-19)
(-0.0236385 0.0213206 1.06079e-19)
(-0.0161849 0.0260571 -7.33035e-20)
(0.0073484 0.0271968 5.42147e-20)
(0.0465155 0.0268566 -3.95381e-20)
(0.100954 0.026551 5.61066e-20)
(0.170248 0.0274234 -1.5587e-20)
(0.253616 0.0303063 -3.8909e-20)
(0.34959 0.0357214 -2.59598e-20)
(0.455756 0.0438528 1.03855e-19)
(0.568667 0.0545168 4.20818e-20)
(0.684006 0.0671679 4.0291e-20)
(0.797002 0.0809659 -5.66252e-20)
(0.903031 0.0949066 1.15229e-19)
(0.998228 0.107986 -1.11439e-19)
(1.07994 0.119356 -2.36693e-20)
(1.14694 0.128428 2.01788e-20)
(1.19936 0.134923 -3.97951e-20)
(1.23838 0.138809 -1.35128e-19)
(1.26592 0.140363 4.18909e-20)
(1.28415 0.139746 1.77131e-20)
(1.29534 0.137784 -4.26349e-20)
(1.3014 0.133812 3.1895e-20)
(1.30371 0.130634 4.08132e-21)
(1.30457 0.122922 -2.62537e-20)
(-0.0138983 0.010131 -1.8277e-19)
(-0.0213326 0.0194399 -3.51065e-20)
(-0.0100336 0.0233602 -6.03666e-21)
(0.0188212 0.0240989 2.47308e-20)
(0.0646807 0.0238726 6.28024e-20)
(0.12701 0.0242336 -5.56444e-20)
(0.205095 0.0263278 -7.1718e-20)
(0.297655 0.0309406 -6.97639e-21)
(0.402501 0.0384771 5.36882e-20)
(0.516317 0.0489273 -1.51176e-19)
(0.634715 0.0618509 -1.57772e-20)
(0.752599 0.0764261 4.66452e-22)
(0.864788 0.0915792 -1.32017e-22)
(0.966743 0.106171 -5.73099e-20)
(1.05515 0.119187 9.96653e-20)
(1.12826 0.129884 4.1003e-20)
(1.18584 0.137854 1.1252e-20)
(1.22896 0.143025 -2.38065e-20)
(1.25954 0.145559 7.09907e-20)
(1.27992 0.145863 -9.78096e-21)
(1.29245 0.144213 2.7981e-20)
(1.29934 0.141412 1.13584e-20)
(1.30233 0.13691 9.82727e-22)
(1.3026 0.133259 3.28639e-21)
(1.30209 0.125502 -9.8045e-21)
(-0.0135594 0.00942874 1.52819e-19)
(-0.0183864 0.0174155 -7.10649e-20)
(-0.0026959 0.0205754 8.37061e-20)
(0.0320887 0.0210496 -1.9993e-20)
(0.0852694 0.0211464 -2.76988e-20)
(0.156063 0.0224403 5.38828e-20)
(0.243333 0.026054 7.61472e-20)
(0.345152 0.0326846 3.84445e-20)
(0.458447 0.0425643 -5.58761e-20)
(0.578898 0.0554281 9.62472e-20)
(0.701189 0.070534 -1.87685e-20)
(0.819612 0.0867775 -1.61857e-20)
(0.928882 0.102891 2.60483e-20)
(1.02489 0.117676 1.88121e-21)
(1.10517 0.130193 -3.8833e-20)
(1.16901 0.139876 1.42697e-20)
(1.21721 0.146537 -5.75905e-21)
(1.25166 0.150312 4.88812e-20)
(1.27478 0.151534 -3.01967e-20)
(1.28916 0.150703 -9.73099e-21)
(1.29715 0.148169 3.39435e-21)
(1.30078 0.144684 -2.93191e-20)
(1.30154 0.139777 2.72686e-20)
(1.30039 0.135757 3.77765e-20)
(1.29898 0.12799 5.2257e-20)
(-0.0130095 0.00864443 -5.23207e-20)