/*--------------------------------*- C++ -*----------------------------------*\
  =========                 |
  \\      /  F ield         | OpenFOAM: The Open Source CFD Toolbox
   \\    /   O peration     | Website:  https://openfoam.org
    \\  /    A nd           | Version:  7
     \\/     M anipulation  |
\*---------------------------------------------------------------------------*/
FoamFile
{
    version     2.0;
    format      ascii;
    class       surfaceScalarField;
    location    "10";
    object      phi;
}
// * * * * * * * * * * * * * * * * * * * * * * * * * * * * * * * * * * * * * //

dimensions      [0 3 -1 0 0 0 0];

internalField   nonuniform List<scalar> 
2630
(
-0.000698338
0.000358196
-0.00114367
0.000445336
-0.00165364
0.000509971
-0.00221066
0.000557019
-0.00280172
0.000591054
-0.00341778
0.000616059
-0.00405306
0.00063528
-0.00470425
0.000651198
-0.00536984
0.000665589
-0.00604948
0.000679638
-0.00674357
0.000694084
-0.00745291
0.000709347
-0.00817856
0.000725651
-0.00892167
0.000743104
-0.00968342
0.000761754
-0.010465
0.000781598
-0.0112676
0.000802573
0.000824723
-0.0120923
-0.000681596
0.000708435
-0.00111818
0.000881917
-0.00161931
0.0010111
-0.0021678
0.00110551
-0.0027508
0.00117406
-0.00335929
0.00122455
-0.00398741
0.0012634
-0.00463174
0.00129552
-0.00529063
0.00132448
-0.00596365
0.00135266
-0.00665111
0.00138154
-0.00735377
0.00141201
-0.00807262
0.0014445
-0.00880876
0.00147925
-0.00956336
0.00151636
-0.0103376
0.00155582
-0.0111325
0.00159751
0.00164151
-0.0119493
-0.000648482
-0.00106766
0.00130109
-0.00155116
0.00149461
-0.00208262
0.00163697
-0.00264953
0.00174096
-0.00324289
0.00181791
-0.0038567
0.0018772
-0.00448732
0.00192614
-0.00513287
0.00197004
-0.00579273
0.00201252
-0.00646704
0.00205586
-0.00715645
0.00210141
-0.00786183
0.00214988
-0.00858422
0.00220164
-0.00932471
0.00225684
-0.0100844
0.00231549
-0.0108643
0.0023774
0.00244264
-0.0116654
-0.000993064
-0.00145029
0.00195183
-0.00195626
0.00214295
-0.00249904
0.00228374
-0.00306972
0.00238859
-0.00366209
0.00246958
-0.00427221
0.00253627
-0.00489789
0.00259572
-0.00553818
0.00265281
-0.006193
0.00271068
-0.0068628
0.00277121
-0.00754834
0.00283542
-0.00825051
0.00290382
-0.00897031
0.00297664
-0.00970871
0.0030539
-0.0104666
0.00313533
0.00322095
-0.011245
-0.00131833
0.0023743
-0.00179045
0.00261507
-0.00230108
0.00279437
-0.0028415
0.00292901
-0.00340532
0.0030334
-0.00398822
0.00311917
-0.00458758
0.00319507
-0.00520206
0.00326729
-0.00583128
0.0033399
-0.00647544
0.00341537
-0.00713512
0.0034951
-0.00781109
0.00357979
-0.00850422
0.00366977
-0.0092154
0.00376507
-0.00994536
0.00386529
0.00397021
-0.0106946
-0.00115757
-0.00158758
0.00304508
-0.00205805
0.00326484
-0.00256062
0.00343157
-0.00308875
0.00356153
-0.00363772
0.00366814
-0.00420441
0.00376176
-0.00478702
0.00384991
-0.00538478
0.00393766
-0.00599761
0.0040282
-0.0066259
0.00412338
-0.00727028
0.00422416
-0.00793153
0.00433102
-0.00861051
0.00444406
-0.00930788
0.00456266
0.00468579
-0.0100235
-0.0013508
-0.00177312
-0.00223016
0.00388861
-0.00271536
0.00404673
-0.0032236
0.00417638
-0.00375124
0.0042894
-0.00429594
0.00439461
-0.00485648
0.00449819
-0.00543245
0.00460418
-0.00602408
0.004715
-0.0066319
0.00483199
-0.00725668
0.00495579
-0.00789963
0.00508701
-0.00856297
0.005226
0.00536833
-0.00924551
-0.0018542
-0.0022891
-0.00274974
0.00463702
-0.00323193
0.00477159
-0.00373276
0.00489544
-0.00425051
0.00501594
-0.00478444
0.00513811
-0.00533466
0.00526522
-0.00590195
0.00539929
-0.00648754
0.00554137
-0.00709253
0.005692
-0.00771975
0.00585323
0.00603361
-0.00838504
-0.00221995
-0.00264935
-0.00309898
0.00534507
-0.00356627
0.00548322
-0.00404966
0.00562149
-0.00454841
0.00576397
-0.00506241
0.00591329
-0.00559213
0.00607109
-0.00613884
0.00623872
-0.00670384
0.00641822
0.0066088
-0.00727902
-0.00240393
-0.00281553
-0.00324403
-0.00368807
0.00620801
-0.00414699
0.00637221
-0.00462067
0.00654477
-0.00510897
0.00672702
-0.00561048
0.00691972
0.00712268
-0.00612436
-0.00275775
-0.00315687
-0.00356981
-0.00399576
0.00715298
-0.00443349
0.00735745
0.00757055
-0.00488136
-0.00280365
-0.00317365
-0.0035537
-0.0122894
0.000197125
-0.0124667
0.000177293
-0.0126245
0.000157749
-0.0127643
0.000139843
-0.0128881
0.000123779
-0.0129975
0.000109435
-0.0130942
9.66205e-05
-0.0131793
8.51452e-05
-0.0132541
7.48401e-05
-0.0133197
6.55585e-05
-0.0133769
5.71741e-05
-0.0134265
4.95784e-05
-0.0134691
4.26776e-05
-0.0135055
3.6391e-05
-0.0135362
3.06483e-05
-0.0135616
2.53884e-05
-0.0135821
2.05585e-05
-0.0135982
1.61123e-05
-0.0136102
1.20096e-05
-0.0136185
8.21571e-06
-0.0136232
4.70495e-06
-0.0136246
1.48664e-06
-0.0136231
-1.58027e-06
-0.0136186
-4.5004e-06
-0.0136114
-7.20313e-06
-0.0136016
-9.73578e-06
-0.0135895
-1.21213e-05
-0.0135751
-1.4376e-05
-0.0135586
-1.65144e-05
-0.0135401
-1.85491e-05
-0.0135196
-2.04919e-05
-0.0134972
-2.2353e-05
-0.0134731
-2.41424e-05
-0.0134472
-2.58689e-05
-0.0134197
-2.75411e-05
-0.0133905
-2.91669e-05
-0.0133598
-3.07536e-05
-0.0133274
-3.23082e-05
-0.0132936
-3.38377e-05
-3.53527e-05
-0.0121482
0.000396025
-0.0123277
0.000356798
-0.0124881
0.000318145
-0.0126309
0.000282667
-0.0127579
0.000250786
-0.0128708
0.000222282
-0.012971
0.000196788
-0.0130597
0.000173937
-0.0131383
0.000153398
-0.0132076
0.000134886
-0.0132686
0.000118152
-0.013322
0.000102983
-0.0133685
8.91954e-05
-0.0134088
7.66289e-05
-0.0134433
6.51449e-05
-0.0134725
5.46227e-05
-0.0134969
4.49567e-05
-0.0135168
3.6055e-05
-0.0135327
2.78373e-05
-0.0135447
2.02342e-05
-0.0135532
1.31863e-05
-0.0135583
6.65143e-06
-0.0135607
7.50835e-07
-0.0135599
-5.21784e-06
-0.0135565
-1.06471e-05
-0.0135505
-1.5726e-05
-0.0135421
-2.05074e-05
-0.0135315
-2.50276e-05
-0.0135187
-2.93159e-05
-0.0135038
-3.33972e-05
-0.013487
-3.72948e-05
-0.0134683
-4.10297e-05
-0.0134479
-4.46214e-05
-0.0134256
-4.80881e-05
-0.0134017
-5.14467e-05
-0.0133762
-5.47132e-05
-0.013349
-5.79026e-05
-0.0133203
-6.10287e-05
-0.0132901
-6.4106e-05
-6.71556e-05
-0.0118677
0.000598337
-0.0120515
0.000540621
-0.0122171
0.000483742
-0.0123658
0.000431371
-0.0124992
0.000384178
-0.0126188
0.000341888
-0.012726
0.000303991
-0.0128221
0.000269965
-0.012908
0.000239339
-0.0129848
0.000211699
-0.0130534
0.000186687
-0.0131144
0.000163992
-0.0131685
0.000143346
-0.0132164
0.000124514
-0.0132586
0.000107293
-0.0132954
9.15044e-05
-0.0133275
7.69932e-05
-0.013355
6.36224e-05
-0.0133785
5.12719e-05
-0.0133981
3.98365e-05
-0.0134141
2.92258e-05
-0.0134268
1.93638e-05
-0.0134363
1.01868e-05
-0.0134433
1.7643e-06
-0.0134473
-6.56429e-06
-0.0134488
-1.42361e-05
-0.0134479
-2.14528e-05
-0.0134446
-2.82699e-05
-0.0134392
-3.47338e-05
-0.0134317
-4.08863e-05
-0.0134223
-4.67631e-05
-0.0134109
-5.23967e-05
-0.0133977
-5.78163e-05
-0.0133827
-6.30495e-05
-0.0133661
-6.81221e-05
-0.0133477
-7.30585e-05
-0.0133277
-7.78813e-05
-0.0133062
-8.26116e-05
-0.013283
-8.7272e-05
-9.18937e-05
-0.011452
0.000805433
-0.0116421
0.000730662
-0.0118153
0.000656906
-0.0119726
0.000588686
-0.0121153
0.000526961
-0.0122449
0.000471463
-0.0123625
0.000421589
-0.0124693
0.000376703
-0.0125661
0.000336216
-0.012654
0.00029961
-0.0127338
0.00026643
-0.0128061
0.000236281
-0.0128716
0.000208819
-0.0129308
0.000183743
-0.0129843
0.00016079
-0.0130325
0.000139728
-0.0130759
0.000120356
-0.0131147
0.000102495
-0.0131495
8.59863e-05
-0.0131803
7.06912e-05
-0.0132076
5.64862e-05
-0.0132315
4.32638e-05
-0.0132522
3.09297e-05
-0.0132698
1.93971e-05
-0.013285
8.58139e-06
-0.0132978
-1.4128e-06
-0.0133079
-1.13832e-05
-0.0133156
-2.05205e-05
-0.0133212
-2.91963e-05
-0.0133246
-3.74549e-05
-0.013326
-4.53444e-05
-0.0133255
-5.29104e-05
-0.0133231
-6.01929e-05
-0.0133189
-6.72293e-05
-0.013313
-7.40545e-05
-0.0133054
-8.07015e-05
-0.0132961
-8.72009e-05
-0.0132851
-9.35818e-05
-0.0132725
-9.98749e-05
-0.000106121
-0.0109076
0.00101837
-0.0111054
0.000928519
-0.0112882
0.00083969
-0.0114566
0.000757045
-0.0116115
0.00068186
-0.0117539
0.000613962
-0.0118851
0.000552716
-0.0120058
0.000497415
-0.012117
0.000447392
-0.0122194
0.000402051
-0.0123138
0.000360863
-0.0124009
0.000323366
-0.0124813
0.000289152
-0.0125554
0.000257863
-0.0126238
0.000229187
-0.0126869
0.000202844
-0.0127451
0.000178591
-0.0127988
0.00015621
-0.0128484
0.000135509
-0.012894
0.000116318
-0.012936
9.8483e-05
-0.0129746
8.18693e-05
-0.01301
6.63528e-05
-0.0130424
5.18225e-05
-0.013072
3.81905e-05
-0.0130988
2.53628e-05
-0.0131234
1.32199e-05
-0.0131459
1.9163e-06
-0.0131658
-9.23323e-06
-0.0131836
-1.96726e-05
-0.0131993
-2.9611e-05
-0.0132131
-3.91525e-05
-0.0132249
-4.83433e-05
-0.013235
-5.72281e-05
-0.0132432
-6.58527e-05
-0.0132496
-7.42596e-05
-0.0132543
-8.2488e-05
-0.0132573
-9.05755e-05
-0.0132586
-9.85612e-05
-0.000106496
-0.0102428
0.00123774
-0.0104496
0.0011353
-0.0106436
0.00103366
-0.010825
0.000938443
-0.0109944
0.000851238
-0.0111524
0.000772043
-0.0113
0.000700256
-0.0114377
0.000635154
-0.0115664
0.00057604
-0.0116866
0.000522275
-0.011799
0.00047329
-0.0119042
0.000428579
-0.0120028
0.000387691
-0.0120951
0.000350228
-0.0121818
0.000315834
-0.0122631
0.000284195
-0.0123396
0.000255031
-0.0124115
0.00022809
-0.0124791
0.000203151
-0.0125428
0.000180013
-0.0126028
0.000158497
-0.0126594
0.000138443
-0.0127127
0.000119706
-0.0127631
0.000102154
-0.0128105
8.56673e-05
-0.0128553
7.01359e-05
-0.0128976
5.54721e-05
-0.0129372
4.15904e-05
-0.0129748
2.83627e-05
-0.0130103
1.57596e-05
-0.0130437
3.76953e-06
-0.0130749
-7.86712e-06
-0.0131042
-1.90372e-05
-0.0131317
-2.98183e-05
-0.0131572
-4.02884e-05
-0.013181
-5.05082e-05
-0.0132029
-6.05235e-05
-0.0132231
-7.03785e-05
-0.0132416
-8.01224e-05
-8.98135e-05
-0.00947155
0.00146378
-0.00968813
0.00135188
-0.00989453
0.00124006
-0.0100905
0.0011344
-0.0102761
0.00103688
-0.0104518
0.000947722
-0.010618
0.00086641
-0.0107751
0.000792275
-0.0109237
0.00072464
-0.0110643
0.000662874
-0.0111974
0.000606397
-0.0113235
0.000554686
-0.0114431
0.000507269
-0.0115566
0.00046372
-0.0116644
0.000423658
-0.0117669
0.000386741
-0.0118646
0.000352659
-0.0119576
0.000321136
-0.0120464
0.000291923
-0.0121312
0.000264795
-0.0122122
0.00023955
-0.0122898
0.000216005
-0.0123641
0.000193994
-0.0124353
0.000173367
-0.0125036
0.000153986
-0.0125692
0.000135726
-0.0126322
0.000118473
-0.0126927
0.00010212
-0.0127509
8.65704e-05
-0.0128069
7.17422e-05
-0.0128607
5.75551e-05
-0.0129125
4.39155e-05
-0.0129623
3.07641e-05
-0.0130101
1.80371e-05
-0.0130561
5.68647e-06
-0.0131002
-6.41807e-06
-0.0131424
-1.8283e-05
-0.0131829
-2.99566e-05
-0.0132215
-4.1515e-05
-5.30273e-05
-0.00860793
0.00168668
-0.00882871
0.00157266
-0.00904359
0.00145494
-0.0092523
0.0013431
-0.00945427
0.00123886
-0.009649
0.00114245
-0.00983618
0.00105359
-0.0100157
0.000971808
-0.0101877
0.000896601
-0.0103522
0.000827452
-0.0105097
0.000763864
-0.0106604
0.000705364
-0.0108046
0.000651509
-0.0109428
0.000601886
-0.0110753
0.000556112
-0.0112024
0.000513838
-0.0113244
0.00047474
-0.0114418
0.000438526
-0.0115548
0.000404927
-0.0116637
0.000373698
-0.0117688
0.000344617
-0.0118703
0.000317479
-0.0119684
0.0002921
-0.0120633
0.000268309
-0.0121553
0.000245952
-0.0122444
0.000224886
-0.012331
0.00020498
-0.0124149
0.000186112
-0.0124965
0.000168172
-0.0125759
0.000151059
-0.012653
0.000134675
-0.012728
0.000118931
-0.012801
0.000103744
-0.012872
8.9035e-05
-0.012941
7.47292e-05
-0.0130082
6.07465e-05
-0.0130735
4.70209e-05
-0.0131369
3.34854e-05
-0.0131985
2.0074e-05
6.70754e-06
-0.0147047
0.00155293
0.0148385
-0.0146024
0.00147034
-0.0145243
0.00137679
-0.0144659
0.00128475
-0.0144238
0.00119679
-0.014395
0.00111364
-0.0143769
0.00103548
-0.0143674
0.000962291
-0.0143647
0.00089394
-0.0143675
0.000830216
-0.0143745
0.000770876
-0.0143848
0.000715653
-0.0143976
0.000664277
-0.0144122
0.000616476
-0.014428
0.000571987
-0.0144448
0.000530557
-0.014462
0.000491944
-0.0144794
0.000455921
-0.0144967
0.000422276
-0.0145138
0.000390808
-0.0145305
0.000361333
-0.0145467
0.000333677
-0.0145623
0.000307681
-0.0145772
0.000283196
-0.0145913
0.000260084
-0.0146047
0.000238215
-0.0146172
0.000217471
-0.0146288
0.000197739
-0.0146395
0.000178916
-0.0146494
0.000160903
-0.0146583
0.000143608
-0.0146663
0.000126946
-0.0146734
0.000110834
-0.0146796
9.51928e-05
-0.0146848
7.99481e-05
-0.0146891
6.50262e-05
-0.0146924
5.03576e-05
-0.0146948
3.58742e-05
-0.0146962
2.15096e-05
7.18387e-06
-0.0150115
0.00142853
0.0151359
-0.0149025
0.00136127
-0.0148117
0.00128605
-0.0147379
0.00121086
-0.0146787
0.00113764
-0.0146322
0.00106711
-0.0145964
0.000999662
-0.0145696
0.000935483
-0.0145503
0.000874657
-0.0145372
0.000817182
-0.0145294
0.000762993
-0.0145257
0.000711987
-0.0145254
0.000664031
-0.0145279
0.000618975
-0.0145326
0.00057666
-0.014539
0.00053692
-0.0145466
0.000499592
-0.0145552
0.000464512
-0.0145645
0.000431524
-0.0145741
0.000400473
-0.014584
0.000371215
-0.0145939
0.00034361
-0.0146038
0.000317527
-0.0146134
0.000292839
-0.0146228
0.000269429
-0.0146318
0.000247186
-0.0146403
0.000226002
-0.0146483
0.000205778
-0.0146558
0.00018642
-0.0146628
0.000167838
-0.0146691
0.000149947
-0.0146748
0.000132664
-0.0146799
0.000115914
-0.0146843
9.96196e-05
-0.0146881
8.37099e-05
-0.0146912
6.81148e-05
-0.0146936
5.27668e-05
-0.0146953
3.76003e-05
-0.0146964
2.25494e-05
7.53091e-06
-0.0152382
0.00130774
0.015359
-0.0151307
0.00125371
-0.0150373
0.00119273
-0.0149575
0.00113101
-0.0148899
0.00107004
-0.0148332
0.00101044
-0.0147862
0.000952633
-0.0147476
0.000896883
-0.0147163
0.000843368
-0.0146913
0.000792191
-0.0146717
0.000743395
-0.0146567
0.000696979
-0.0146456
0.000652907
-0.0146377
0.000611116
-0.0146326
0.000571527
-0.0146297
0.000534046
-0.0146287
0.000498572
-0.0146292
0.000464997
-0.0146309
0.000433213
-0.0146335
0.000403109
-0.0146369
0.000374576
-0.0146408
0.000347507
-0.014645
0.000321799
-0.0146495
0.000297349
-0.0146542
0.000274059
-0.0146588
0.000251836
-0.0146634
0.00023059
-0.0146679
0.000210233
-0.0146721
0.000190683
-0.0146761
0.000171858
-0.0146799
0.000153682
-0.0146833
0.000136081
-0.0146864
0.000118983
-0.0146891
0.000102318
-0.0146914
8.60193e-05
-0.0146933
7.00209e-05
-0.0146948
5.42594e-05
-0.0146958
3.8672e-05
-0.0146965
2.31948e-05
7.74676e-06
-0.0154136
0.00119427
0.015527
-0.01531
0.00115016
-0.0152174
0.00110014
-0.0151355
0.00104911
-0.0150636
0.00099816
-0.015001
0.000947803
-0.0149468
0.000898395
-0.0149001
0.000850211
-0.0148602
0.000803455
-0.0148263
0.000758274
-0.0147976
0.000714765
-0.0147736
0.000672984
-0.0147537
0.000632957
-0.0147372
0.000594678
-0.0147238
0.000558124
-0.014713
0.000523254
-0.0147045
0.000490013
-0.0146978
0.000458341
-0.0146928
0.000428165
-0.0146891
0.000399414
-0.0146865
0.000372009
-0.0146849
0.000345872
-0.014684
0.000320924
-0.0146837
0.000297086
-0.014684
0.00027428
-0.0146846
0.000252429
-0.0146854
0.000231458
-0.0146865
0.000211294
-0.0146877
0.000191865
-0.0146889
0.000173102
-0.0146902
0.000154935
-0.0146914
0.0001373
-0.0146925
0.000120131
-0.0146936
0.000103365
-0.0146945
8.6941e-05
-0.0146953
7.07977e-05
-0.0146959
5.48761e-05
-0.0146963
3.91177e-05
-0.0146966
2.34627e-05
7.83488e-06
-0.0155481
0.00108704
0.0156553
-0.0154488
0.00105091
-0.0153584
0.00100967
-0.0152765
0.000967283
-0.015203
0.000924593
-0.0151372
0.000882007
-0.0150786
0.000839827
-0.0150267
0.000798304
-0.0149809
0.000757636
-0.0149406
0.000717983
-0.0149053
0.000679462
-0.0148745
0.000642161
-0.0148476
0.000606135
-0.0148244
0.000571418
-0.0148043
0.000538021
-0.014787
0.00050594
-0.0147721
0.000475154
-0.0147594
0.000445635
-0.0147486
0.000417344
-0.0147394
0.000390234
-0.0147316
0.000364256
-0.0147251
0.000339354
-0.0147197
0.000315472
-0.0147151
0.000292549
-0.0147114
0.000270527
-0.0147083
0.000249343
-0.0147058
0.000228938
-0.0147037
0.00020925
-0.0147021
0.00019022
-0.0147008
0.000171788
-0.0146997
0.000153895
-0.0146989
0.000136483
-0.0146983
0.000119496
-0.0146978
0.000102877
-0.0146974
8.65705e-05
-0.0146971
7.05216e-05
-0.0146969
5.46763e-05
-0.0146968
3.89811e-05
-0.0146967
2.33812e-05
7.80644e-06
-0.0156492
0.000985814
0.0157504
-0.0155545
0.00095618
-0.0154669
0.000922081
-0.0153864
0.000886777
-0.0153127
0.000850944
-0.0152456
0.00081491
-0.0151848
0.00077893
-0.0151297
0.00074322
-0.01508
0.000707964
-0.0150353
0.000673317
-0.0149953
0.0006394
-0.0149594
0.000606311
-0.0149274
0.000574124
-0.0148989
0.000542891
-0.0148735
0.000512644
-0.014851
0.000483404
-0.014831
0.000455173
-0.0148133
0.000427946
-0.0147977
0.000401707
-0.0147839
0.00037643
-0.0147717
0.000352087
-0.014761
0.000328642
-0.0147516
0.000306054
-0.0147433
0.000284283
-0.014736
0.000263282
-0.0147297
0.000243006
-0.0147242
0.000223405
-0.0147194
0.000204432
-0.0147152
0.000186036
-0.0147116
0.000168169
-0.0147084
0.000150781
-0.0147058
0.000133821
-0.0147035
0.00011724
-0.0147016
0.00010099
-0.0147001
8.50206e-05
-0.0146989
6.92833e-05
-0.0146979
5.37298e-05
-0.0146972
3.83119e-05
-0.0146968
2.29802e-05
7.67147e-06
-0.0157231
0.000890396
0.0158185
-0.015633
0.000866063
-0.0155487
0.000837813
-0.0154703
0.000808362
-0.0153976
0.000778257
-0.0153305
0.000747764
-0.0152686
0.000717098
-0.0152119
0.000686444
-0.0151599
0.000655967
-0.0151124
0.000625807
-0.0150691
0.000596083
-0.0150296
0.000566892
-0.0149938
0.000538314
-0.0149613
0.00051041
-0.0149319
0.000483225
-0.0149053
0.000456792
-0.0148813
0.00043113
-0.0148596
0.000406248
-0.01484
0.000382145
-0.0148224
0.000358814
-0.0148065
0.00033624
-0.0147923
0.000314402
-0.0147795
0.000293274
-0.0147681
0.000272829
-0.0147578
0.000253033
-0.0147487
0.000233851
-0.0147405
0.000215248
-0.0147333
0.000197184
-0.0147268
0.00017962
-0.0147212
0.000162515
-0.0147162
0.000145828
-0.0147119
0.000129517
-0.0147082
0.000113539
-0.0147051
9.78522e-05
-0.0147025
8.2414e-05
-0.0147004
6.71816e-05
-0.0146988
5.21124e-05
-0.0146976
3.71639e-05
-0.0146969
2.2292e-05
7.4406e-06
-0.0157751
0.000800504
0.015865
-0.0156895
0.000780511
-0.0156088
0.000757082
-0.0155329
0.000732494
-0.0154619
0.000707196
-0.0153955
0.000681405
-0.0153337
0.000655299
-0.0152763
0.00062904
-0.0152231
0.000602767
-0.0151739
0.000576608
-0.0151285
0.000550672
-0.0150867
0.00052505
-0.0150482
0.000499822
-0.0150128
0.000475052
-0.0149804
0.00045079
-0.0149507
0.000427075
-0.0149235
0.000403935
-0.0148986
0.00038139
-0.0148759
0.00035945
-0.0148552
0.000338116
-0.0148364
0.000317386
-0.0148192
0.00029725
-0.0148036
0.000277694
-0.0147895
0.000258699
-0.0147767
0.000240242
-0.0147652
0.0002223
-0.0147548
0.000204844
-0.0147454
0.000187846
-0.0147371
0.000171273
-0.0147296
0.000155093
-0.0147231
0.000139272
-0.0147173
0.000123776
-0.0147124
0.000108569
-0.0147081
9.36142e-05
-0.0147046
7.88762e-05
-0.0147017
6.43179e-05
-0.0146995
4.99023e-05
-0.014698
3.55924e-05
-0.014697
2.13498e-05
7.12531e-06
-0.0158098
0.000715791
0.0158945
-0.0157286
0.000699361
-0.0156515
0.000679926
-0.0155784
0.000659399
-0.0155093
0.000638152
-0.0154443
0.000616364
-0.0153832
0.000594183
-0.0153259
0.000571743
-0.0152723
0.000549168
-0.0152222
0.000526567
-0.0151756
0.000504038
-0.0151322
0.000481665
-0.0150919
0.000459524
-0.0150545
0.000437675
-0.0150199
0.000416171
-0.0149879
0.000395053
-0.0149583
0.000374354
-0.014931
0.000354098
-0.0149059
0.000334301
-0.0148827
0.000314974
-0.0148615
0.00029612
-0.014842
0.000277738
-0.0148241
0.000259821
-0.0148077
0.00024236
-0.0147928
0.000225339
-0.0147793
0.000208741
-0.014767
0.000192548
-0.0147559
0.000176736
-0.0147459
0.000161281
-0.014737
0.000146159
-0.014729
0.00013134
-0.014722
0.000116798
-0.014716
0.000102503
-0.0147108
8.84235e-05
-0.0147064
7.45307e-05
-0.0147029
6.07922e-05
-0.0147002
4.71767e-05
-0.0146983
3.36525e-05
-0.0146971
2.01865e-05
6.73629e-06
-0.0158311
0.000635854
0.0159111
-0.0157541
0.00062236
-0.0156805
0.000606249
-0.0156102
0.000589133
-0.0155434
0.000571318
-0.0154799
0.000552952
-0.0154199
0.000534158
-0.0153632
0.000515048
-0.0153098
0.000495726
-0.0152595
0.000476289
-0.0152123
0.00045682
-0.015168
0.000437398
-0.0151266
0.000418088
-0.0150879
0.000398948
-0.0150517
0.000380029
-0.015018
0.000361371
-0.0149867
0.000343009
-0.0149576
0.000324969
-0.0149305
0.000307271
-0.0149055
0.000289929
-0.0148823
0.000272952
-0.0148609
0.000256343
-0.0148412
0.000240103
-0.0148231
0.000224226
-0.0148064
0.000208704
-0.0147912
0.000193527
-0.0147773
0.00017868
-0.0147648
0.000164147
-0.0147534
0.000149911
-0.0147432
0.00013595
-0.0147341
0.000122245
-0.0147261
0.00010877
-0.0147191
9.55039e-05
-0.0147131
8.24205e-05
-0.014708
6.94945e-05
-0.0147039
5.66996e-05
-0.0147008
4.40093e-05
-0.0146985
3.13967e-05
-0.0146972
1.88336e-05
6.28416e-06
-0.0158425
0.000560253
0.0159181
-0.0157693
0.00054919
-0.0156989
0.000535863
-0.0156314
0.000521628
-0.0155668
0.000506738
-0.0155052
0.000491312
-0.0154465
0.000475454
-0.0153907
0.000459257
-0.0153378
0.000442808
-0.0152877
0.000426189
-0.0152403
0.000409473
-0.0151957
0.000392727
-0.0151536
0.000376011
-0.015114
0.000359378
-0.0150769
0.000342873
-0.015042
0.000326535
-0.0150094
0.000310398
-0.0149789
0.000294488
-0.0149505
0.000278826
-0.014924
0.000263429
-0.0148994
0.000248309
-0.0148765
0.000233471
-0.0148553
0.000218921
-0.0148357
0.000204656
-0.0148177
0.000190673
-0.0148011
0.000176967
-0.014786
0.000163528
-0.0147722
0.000150343
-0.0147597
0.0001374
-0.0147484
0.000124685
-0.0147383
0.000112179
-0.0147294
9.98645e-05
-0.0147217
8.7723e-05
-0.014715
7.57341e-05
-0.0147094
6.38764e-05
-0.0147048
5.21286e-05
-0.0147012
4.04684e-05
-0.0146987
2.88736e-05
-0.0146972
1.73204e-05
5.77879e-06
-0.0158466
0.000488526
0.0159183
-0.0157769
0.000479489
-0.0157095
0.000468512
-0.0156446
0.000456729
-0.0155822
0.000444348
-0.0155224
0.000431467
-0.0154651
0.00041817
-0.0154104
0.000404535
-0.0153582
0.000390634
-0.0153086
0.000376535
-0.0152614
0.000362301
-0.0152166
0.000347991
-0.0151743
0.000333655
-0.0151343
0.000319341
-0.0150965
0.000305089
-0.0150609
0.000290935
-0.0150274
0.00027691
-0.0149959
0.000263039
-0.0149665
0.000249344
-0.0149389
0.000235842
-0.0149131
0.000222544
-0.0148891
0.000209461
-0.0148668
0.000196597
-0.0148461
0.000183955
-0.0148269
0.000171533
-0.0148093
0.00015933
-0.0147931
0.000147339
-0.0147783
0.000135553
-0.0147649
0.000123961
-0.0147527
0.000112553
-0.0147419
0.000101315
-0.0147322
9.02344e-05
-0.0147238
7.9295e-05
-0.0147166
6.84808e-05
-0.0147105
5.77749e-05
-0.0147055
4.71595e-05
-0.0147016
3.66167e-05
-0.0146989
2.61278e-05
-0.0146972
1.56735e-05
5.22878e-06
-0.0158457
0.000420206
0.015914
-0.015779
0.000412873
-0.0157144
0.000403897
-0.0156519
0.00039422
-0.0155916
0.000384011
-0.0155335
0.000373351
-0.0154776
0.000362305
-0.015424
0.000350939
-0.0153727
0.000339312
-0.0153236
0.000327481
-0.0152768
0.000315498
-0.0152322
0.000303412
-0.0151899
0.000291267
-0.0151496
0.000279104
-0.0151115
0.000266958
-0.0150754
0.000254862
-0.0150413
0.000242842
-0.0150092
0.000230922
-0.014979
0.000219122
-0.0149506
0.000207459
-0.014924
0.000195944
-0.0148991
0.000184588
-0.014876
0.000173398
-0.0148544
0.000162376
-0.0148344
0.000151525
-0.0148159
0.000140844
-0.0147989
0.000130328
-0.0147833
0.000119974
-0.0147691
0.000109775
-0.0147563
9.97221e-05
-0.0147448
8.98058e-05
-0.0147345
8.00155e-05
-0.0147256
7.03392e-05
-0.0147179
6.07645e-05
-0.0147114
5.12773e-05
-0.0147061
4.1864e-05
-0.014702
3.25095e-05
-0.014699
2.3199e-05
-0.0146973
1.39166e-05
4.64247e-06
-0.0158415
0.00035483
0.0159069
-0.0157776
0.000348947
-0.0157154
0.000341695
-0.015655
0.000333847
-0.0155966
0.000325539
-0.01554
0.000316834
-0.0154855
0.000307787
-0.015433
0.000298449
-0.0153826
0.000288869
-0.0153342
0.000279093
-0.0152879
0.000269164
-0.0152436
0.000259123
-0.0152013
0.000249006
-0.0151611
0.000238848
-0.0151228
0.000228678
-0.0150864
0.000218525
-0.015052
0.000208412
-0.0150195
0.000198361
-0.0149887
0.000188388
-0.0149598
0.000178508
-0.0149326
0.000168735
-0.0149071
0.000159076
-0.0148832
0.00014954
-0.0148609
0.00014013
-0.0148403
0.000130849
-0.0148211
0.000121698
-0.0148035
0.000112675
-0.0147873
0.000103776
-0.0147725
9.49988e-05
-0.0147591
8.6336e-05
-0.0147471
7.77809e-05
-0.0147364
6.93252e-05
-0.014727
6.096e-05
-0.0147189
5.26753e-05
-0.0147121
4.44606e-05
-0.0147066
3.63046e-05
-0.0147022
2.81958e-05
-0.0146992
2.01221e-05
-0.0146973
1.20711e-05
4.02644e-06
-0.0158357
0.000291945
0.0158986
-0.015774
0.000287312
-0.0157139
0.000281567
-0.0156554
0.000275328
-0.0155986
0.000268704
-0.0155435
0.000261745
-0.0154902
0.000254492
-0.0154387
0.000246987
-0.0153891
0.000239269
-0.0153414
0.000231373
-0.0152956
0.000223335
-0.0152516
0.000215188
-0.0152096
0.000206962
-0.0151694
0.000198684
-0.0151311
0.000190379
-0.0150947
0.00018207
-0.01506
0.000173778
-0.0150272
0.00016552
-0.0149961
0.000157311
-0.0149668
0.000149165
-0.0149391
0.000141091
-0.0149132
0.000133099
-0.0148888
0.000125195
-0.0148661
0.000117384
-0.0148449
0.000109668
-0.0148252
0.000102049
-0.0148071
9.45268e-05
-0.0147904
8.70994e-05
-0.0147752
7.9764e-05
-0.0147614
7.25167e-05
-0.0147489
6.5352e-05
-0.0147379
5.82642e-05
-0.0147281
5.12466e-05
-0.0147198
4.42916e-05
-0.0147127
3.7391e-05
-0.0147069
3.05361e-05
-0.0147024
2.3718e-05
-0.0146993
1.69277e-05
-0.0146973
1.01548e-05
3.38702e-06
-0.0158292
0.000231109
0.0158901
-0.0157695
0.000227575
-0.0157111
0.000223168
-0.0156541
0.000218368
-0.0155987
0.000213259
-0.0155448
0.000207879
-0.0154926
0.00020226
-0.015442
0.000196433
-0.0153932
0.000190427
-0.0153461
0.000184272
-0.0153007
0.000177994
-0.0152572
0.000171619
-0.0152154
0.00016517
-0.0151754
0.000158669
-0.0151371
0.000152136
-0.0151006
0.000145589
-0.0150659
0.000139044
-0.0150329
0.000132516
-0.0150016
0.000126018
-0.014972
0.000119558
-0.0149441
0.000113148
-0.0149178
0.000106793
-0.0148931
0.0001005
-0.0148699
9.42726e-05
-0.0148484
8.81141e-05
-0.0148284
8.20259e-05
-0.0148099
7.60083e-05
-0.0147928
7.00605e-05
-0.0147772
6.41807e-05
-0.0147631
5.83663e-05
-0.0147503
5.26136e-05
-0.014739
4.69184e-05
-0.014729
4.12758e-05
-0.0147204
3.56802e-05
-0.0147131
3.01256e-05
-0.0147072
2.46055e-05
-0.0147026
1.91133e-05
-0.0146993
1.36419e-05
-0.0146974
8.18377e-06
2.72952e-06
-0.0158231
0.000171897
0.0158823
-0.0157648
0.000169347
-0.0157078
0.000166152
-0.0156521
0.000162663
-0.0155978
0.000158941
-0.0155449
0.000155013
-0.0154936
0.000150904
-0.0154438
0.000146635
-0.0153956
0.000142228
-0.015349
0.000137704
-0.0153041
0.000133084
-0.0152609
0.000128385
-0.0152193
0.000123624
-0.0151795
0.000118819
-0.0151413
0.000113984
-0.0151049
0.000109132
-0.0150701
0.000104276
-0.015037
9.9426e-05
-0.0150056
9.45919e-05
-0.0149758
8.97818e-05
-0.0149477
8.50029e-05
-0.0149211
8.02602e-05
-0.0148962
7.55591e-05
-0.0148728
7.09023e-05
-0.014851
6.62925e-05
-0.0148307
6.17315e-05
-0.0148119
5.72195e-05
-0.0147946
5.27562e-05
-0.0147788
4.83407e-05
-0.0147644
4.39712e-05
-0.0147514
3.96454e-05
-0.0147398
3.53604e-05
-0.0147297
3.11128e-05
-0.0147209
2.68985e-05
-0.0147135
2.27137e-05
-0.0147074
1.85533e-05
-0.0147027
1.4413e-05
-0.0146994
1.02876e-05
-0.0146974
6.17155e-06
2.05832e-06
-0.0158179
0.000113891
0.0158759
-0.0157608
0.000112248
-0.0157048
0.000110175
-0.01565
0.000107904
-0.0155966
0.000105476
-0.0155445
0.00010291
-0.0154938
0.00010022
-0.0154446
9.74224e-05
-0.0153969
9.45307e-05
-0.0153507
9.15589e-05
-0.0153062
8.85198e-05
-0.0152632
8.54259e-05
-0.0152219
8.22886e-05
-0.0151822
7.91186e-05
-0.0151441
7.59258e-05
-0.0151077
7.2719e-05
-0.0150729
6.95064e-05
-0.0150398
6.62953e-05
-0.0150083
6.30919e-05
-0.0149784
5.99019e-05
-0.0149502
5.67298e-05
-0.0149235
5.35796e-05
-0.0148984
5.04545e-05
-0.0148748
4.73569e-05
-0.0148528
4.42886e-05
-0.0148323
4.12505e-05
-0.0148134
3.82434e-05
-0.0147959
3.52671e-05
-0.0147799
3.23211e-05
-0.0147653
2.94043e-05
-0.0147522
2.65155e-05
-0.0147404
2.36526e-05
-0.0147301
2.08137e-05
-0.0147212
1.79963e-05
-0.0147137
1.51976e-05
-0.0147076
1.24148e-05
-0.0147028
9.64483e-06
-0.0146994
6.88442e-06
-0.0146974
4.13012e-06
1.37751e-06
-0.0158141
5.66924e-05
0.0158713
-0.0157578
5.59091e-05
-0.0157025
5.48986e-05
-0.0156484
5.37845e-05
-0.0155955
5.2589e-05
-0.0155439
5.13228e-05
-0.0154937
4.99935e-05
-0.0154449
4.86096e-05
-0.0153975
4.71776e-05
-0.0153517
4.57049e-05
-0.0153073
4.41978e-05
-0.0152646
4.26624e-05
-0.0152234
4.11048e-05
-0.0151838
3.95297e-05
-0.0151458
3.79424e-05
-0.0151094
3.63473e-05
-0.0150747
3.47487e-05
-0.0150415
3.31497e-05
-0.01501
3.15537e-05
-0.0149801
2.99639e-05
-0.0149517
2.83819e-05
-0.0149249
2.68104e-05
-0.0148997
2.52507e-05
-0.0148761
2.3704e-05
-0.014854
2.21714e-05
-0.0148334
2.06531e-05
-0.0148143
1.915e-05
-0.0147967
1.76616e-05
-0.0147805
1.61879e-05
-0.0147659
1.47286e-05
-0.0147526
1.32826e-05
-0.0147408
1.18493e-05
-0.0147304
1.0428e-05
-0.0147215
9.01684e-06
-0.0147139
7.61484e-06
-0.0147077
6.22091e-06
-0.0147029
4.83305e-06
-0.0146994
3.45002e-06
-0.0146974
2.07011e-06
6.90109e-07
-0.015812
0.0158687
-0.0157561
-0.0157012
-0.0156475
-0.0155949
-0.0155435
-0.0154935
-0.0154449
-0.0153978
-0.0153521
-0.0153079
-0.0152652
-0.0152241
-0.0151846
-0.0151466
-0.0151103
-0.0150755
-0.0150424
-0.0150108
-0.0149809
-0.0149525
-0.0149257
-0.0149004
-0.0148767
-0.0148545
-0.0148339
-0.0148147
-0.0147971
-0.0147809
-0.0147662
-0.0147529
-0.014741
-0.0147306
-0.0147216
-0.014714
-0.0147077
-0.0147029
-0.0146995
-0.0146974
-0.00717571
0.0147352
-0.00700851
0.0149687
-0.00678083
0.0151313
-0.00650679
0.015253
-0.00619589
0.0153444
-0.00585537
0.0154099
-0.0054912
0.0154544
-0.00510837
0.0154821
-0.00471097
0.0154971
-0.00430236
0.0155025
-0.00388526
0.015501
-0.00346184
0.0154949
-0.00303386
0.015486
-0.00260272
0.0154758
-0.00216955
0.0154654
-0.00173524
0.0154558
-0.00130056
0.0154476
-0.000866125
0.0154415
-0.000432474
0.0154377
0.0154363
-0.00605957
0.0146704
-0.00592839
0.0148376
-0.00575001
0.014953
-0.00553317
0.0150361
-0.00528313
0.0150944
-0.00500511
0.0151319
-0.00470418
0.0151534
-0.00438481
0.0151628
-0.00405078
0.0151631
-0.00370524
0.0151569
-0.00335075
0.0151465
-0.0029894
0.0151335
-0.00262288
0.0151195
-0.00225254
0.0151054
-0.00187948
0.0150923
-0.0015046
0.0150809
-0.00112863
0.0150716
-0.000752204
0.015065
-0.000375845
0.0150613
0.0150604