/*--------------------------------*- C++ -*----------------------------------*\
  =========                 |
  \\      /  F ield         | OpenFOAM: The Open Source CFD Toolbox
   \\    /   O peration     | Website:  https://openfoam.org
    \\  /    A nd           | Version:  7
     \\/     M anipulation  |
\*---------------------------------------------------------------------------*/
FoamFile
{
    version     2.0;
    format      ascii;
    class       volVectorField;
    location    "10";
    object      U;
}
// * * * * * * * * * * * * * * * * * * * * * * * * * * * * * * * * * * * * * //

dimensions      [0 1 -1 0 0 0 0];

internalField   nonuniform List<vector> 
1360
(
(0.0889653 -0.0440945 -6.14667e-20)
(0.151184 -0.0506296 7.97138e-20)
(0.216803 -0.053408 -5.19751e-20)
(0.282098 -0.0535634 9.30634e-21)
(0.344823 -0.0520039 -5.32081e-20)
(0.403648 -0.0494279 1.05824e-20)
(0.457965 -0.0463396 8.24703e-20)
(0.507657 -0.0430787 -2.14949e-19)
(0.552889 -0.0398571 -2.45378e-20)
(0.59397 -0.0367932 4.66364e-20)
(0.631271 -0.033943 8.86748e-20)
(0.665168 -0.0313235 -9.43398e-21)
(0.696014 -0.0289303 -8.34001e-20)
(0.724133 -0.026749 7.08401e-20)
(0.749813 -0.0247613 -1.0557e-19)
(0.773315 -0.0229462 8.10627e-20)
(0.794858 -0.0212803 8.37171e-20)
(0.814584 -0.0197539 -9.8623e-20)
(0.104744 -0.130187 -3.9148e-19)
(0.16884 -0.14967 -1.86902e-19)
(0.235029 -0.158065 -2.01194e-19)
(0.300044 -0.158687 4.03963e-19)
(0.361976 -0.154205 1.09559e-19)
(0.419735 -0.146676 -9.085e-20)
(0.472877 -0.137596 3.879e-19)
(0.521384 -0.127976 -2.56534e-20)
(0.565481 -0.11845 -3.86248e-19)
(0.605507 -0.109377 5.42396e-20)
(0.641842 -0.100927 6.83203e-20)
(0.674862 -0.0931541 7.23238e-22)
(0.704914 -0.0860488 -7.32894e-20)
(0.732312 -0.0795694 -1.93446e-19)
(0.757341 -0.0736622 -6.4467e-20)
(0.780265 -0.0682639 8.11225e-21)
(0.801286 -0.0633069 3.47684e-19)
(0.820421 -0.0587787 2.24161e-19)
(0.135297 -0.210111 3.23264e-19)
(0.203121 -0.242168 3.37467e-19)
(0.270507 -0.256344 -3.24103e-19)
(0.335059 -0.257888 -3.49837e-19)
(0.395513 -0.251056 -1.12054e-19)
(0.451245 -0.239164 1.78708e-19)
(0.502127 -0.224638 1.31456e-20)
(0.548344 -0.20914 -2.28697e-19)
(0.590237 -0.193723 2.00481e-19)
(0.628206 -0.17899 -1.45187e-19)
(0.662655 -0.165238 5.6461e-20)
(0.69396 -0.152567 -5.272e-19)
(0.722459 -0.140969 7.58924e-19)
(0.748448 -0.130383 1.83945e-19)
(0.772202 -0.120722 -6.82e-19)
(0.793994 -0.111879 6.03e-19)
(0.813993 -0.103749 9.77343e-23)
(0.831981 -0.096367 9.81614e-20)
(0.252013 -0.324135 8.78944e-20)
(0.321329 -0.344325 3.83363e-20)
(0.385423 -0.347498 -5.56087e-20)
(0.443924 -0.339228 -3.59396e-19)
(0.49687 -0.323917 4.25287e-19)
(0.54459 -0.304829 4.29422e-21)
(0.587563 -0.284236 6.96737e-19)
(0.62631 -0.263601 8.62865e-20)
(0.661328 -0.243782 -9.96451e-20)
(0.693061 -0.225213 -3.67594e-19)
(0.721894 -0.208059 1.95068e-19)
(0.74815 -0.192327 -6.17772e-19)
(0.772103 -0.177944 8.63401e-19)
(0.794015 -0.164798 -1.04237e-18)
(0.814169 -0.152735 7.17242e-19)
(0.832694 -0.14162 -4.43868e-19)
(0.84905 -0.131609 -2.07664e-19)
(0.384735 -0.418568 1.3521e-19)
(0.448631 -0.424259 -7.35624e-19)
(0.505006 -0.415737 1.21866e-18)
(0.554701 -0.398255 -9.67118e-19)
(0.598616 -0.375788 -4.36944e-19)
(0.637618 -0.351153 9.13575e-19)
(0.672467 -0.32621 -2.20719e-19)
(0.703796 -0.302079 -8.16301e-20)
(0.732116 -0.279352 -1.02666e-18)
(0.757831 -0.258276 1.09961e-18)
(0.781256 -0.238891 3.03013e-19)
(0.80264 -0.221129 -8.44932e-19)
(0.822228 -0.204856 6.95696e-19)
(0.840317 -0.189869 -4.73476e-19)
(0.856995 -0.176008 -4.16377e-19)
(0.87134 -0.163641 1.38466e-18)
(0.45723 -0.476284 -3.54547e-19)
(0.521492 -0.485468 9.63998e-19)
(0.575934 -0.478062 -8.50622e-19)
(0.622282 -0.459892 7.82917e-19)
(0.662091 -0.43547 -7.82434e-19)
(0.696686 -0.408079 7.27429e-19)
(0.72713 -0.379946 -4.04551e-19)
(0.75424 -0.352461 9.9703e-19)
(0.778625 -0.326391 -1.22535e-18)
(0.80073 -0.30209 -1.08938e-19)
(0.820873 -0.279651 2.88517e-19)
(0.839284 -0.259029 6.08119e-19)
(0.856189 -0.240081 3.38986e-20)
(0.871905 -0.222549 -6.89861e-19)
(0.886494 -0.206237 -3.55026e-19)
(0.898599 -0.191804 7.35154e-19)
(0.600247 -0.529095 -2.36025e-19)
(0.653355 -0.524251 2.7926e-20)
(0.696681 -0.507014 2.548e-20)
(0.732475 -0.482234 3.55554e-19)
(0.762573 -0.453549 6.08719e-20)
(0.788396 -0.423513 1.16041e-19)
(0.810997 -0.393777 6.42848e-19)
(0.831123 -0.365308 -5.98401e-19)
(0.849294 -0.338586 5.34e-19)
(0.865852 -0.313785 -3.41052e-19)
(0.881019 -0.290901 3.00109e-19)
(0.895004 -0.269797 -5.46834e-19)
(0.908166 -0.250142 4.19996e-19)
(0.920626 -0.231641 -1.58015e-19)
(0.930578 -0.215274 -7.68924e-19)
(0.774595 -0.538349 -3.66095e-19)
(0.80691 -0.514896 -2.84474e-19)
(0.832823 -0.486499 2.57433e-19)
(0.854163 -0.455972 -2.71646e-19)
(0.872268 -0.425216 6.77167e-19)
(0.888076 -0.395405 4.07841e-19)
(0.902223 -0.367176 -8.76404e-19)
(0.915118 -0.340803 3.49185e-19)
(0.927005 -0.316342 2.44143e-19)
(0.938078 -0.293667 -3.14914e-19)
(0.948747 -0.272377 -7.13228e-19)
(0.959488 -0.25212 4.13328e-19)
(0.968517 -0.234482 1.29289e-19)
(0.904642 -0.506292 -2.83783e-19)
(0.921956 -0.476772 -3.96177e-19)
(0.935809 -0.446334 4.90494e-19)
(0.94737 -0.416373 3.34623e-20)
(0.957424 -0.387718 -1.31204e-19)
(0.966478 -0.360799 -3.97169e-20)
(0.974849 -0.335782 6.11e-20)
(0.982731 -0.312683 -1.23484e-19)
(0.990271 -0.291519 1.03408e-19)
(0.997758 -0.272516 4.61996e-19)
(1.00607 -0.255328 -4.34846e-19)
(0.999572 -0.456633 -5.56176e-20)
(1.00731 -0.427569 -1.11555e-19)
(1.01354 -0.399319 -2.08528e-19)
(1.0189 -0.372459 1.63224e-19)
(1.02379 -0.347252 8.0887e-21)
(1.02842 -0.323804 3.87614e-20)
(1.03278 -0.302292 2.86684e-19)
(1.03687 -0.282855 -2.14175e-19)
(1.04186 -0.263868 7.26357e-20)
(1.0712 -0.376384 -7.74512e-20)
(1.0729 -0.351724 -6.39815e-20)
(1.07449 -0.328577 1.44665e-19)
(1.07593 -0.307206 1.23445e-19)
(1.07709 -0.287767 -1.14831e-19)
(1.07886 -0.268451 -2.98732e-20)
(1.1183 -0.306575 -1.58222e-20)
(1.11683 -0.287511 1.24461e-20)
(1.11571 -0.268512 7.02555e-20)
(0.831336 -0.0185014 1.33756e-19)
(0.846102 -0.0169176 -5.62973e-20)
(0.859547 -0.0153587 4.88118e-20)
(0.871775 -0.0139318 -6.35e-20)
(0.882905 -0.0126528 5.59872e-20)
(0.893055 -0.0115121 -6.04752e-20)
(0.902327 -0.0104939 -2.89321e-20)
(0.910814 -0.00958291 4.27235e-20)
(0.918595 -0.00876556 -1.65713e-21)
(0.925741 -0.00802998 1.95548e-20)
(0.932312 -0.00736603 3.299e-20)
(0.938362 -0.00676497 -2.17435e-20)
(0.943939 -0.00621928 -4.47562e-20)
(0.949085 -0.00572245 4.80796e-20)
(0.953836 -0.00526886 -4.57587e-20)
(0.958226 -0.00485361 4.84627e-20)
(0.962284 -0.00447243 1.47471e-20)
(0.966035 -0.00412161 2.68637e-21)
(0.969503 -0.00379787 -5.35187e-20)
(0.972709 -0.00349834 -1.38524e-20)
(0.975672 -0.00322066 -3.54821e-21)
(0.978411 -0.00296315 3.43654e-20)
(0.980939 -0.00272408 -1.22695e-20)
(0.983265 -0.00249895 -1.71909e-20)
(0.9854 -0.00228736 4.06371e-20)
(0.987358 -0.00208835 -1.51243e-20)
(0.989149 -0.00190064 -2.38584e-20)
(0.99078 -0.00172301 3.28445e-20)
(0.992261 -0.00155439 -8.83767e-22)
(0.993597 -0.00139378 -3.02758e-20)
(0.994794 -0.0012403 1.3897e-20)
(0.995858 -0.00109313 8.93814e-21)
(0.996794 -0.000951489 4.41643e-22)
(0.997605 -0.000814678 -2.21603e-22)
(0.998295 -0.000682028 -4.82781e-21)
(0.998866 -0.000552909 -2.19827e-22)
(0.999321 -0.000426727 3.00649e-21)
(0.999661 -0.000302932 -5.98641e-21)
(0.999881 -0.000180967 2.98799e-21)
(0.999985 -6.01625e-05 -4.56305e-22)
(0.836423 -0.055099 -2.29707e-19)
(0.850525 -0.0504111 -1.07518e-19)
(0.863362 -0.0457919 1.07475e-19)
(0.875061 -0.0415582 -1.79421e-19)
(0.885739 -0.0377594 2.76213e-19)
(0.895503 -0.0343678 1.73925e-19)
(0.904447 -0.0313383 -2.50334e-19)
(0.912652 -0.0286259 1.75167e-20)
(0.920192 -0.0261908 5.64729e-20)
(0.927129 -0.0239981 -6.19728e-20)
(0.933521 -0.0220181 1.4417e-19)
(0.939416 -0.0202248 -1.95756e-19)
(0.944858 -0.0185962 2.28996e-19)
(0.949886 -0.0171128 -2.61623e-19)
(0.954535 -0.0157582 1.62938e-19)
(0.958835 -0.0145177 -1.22355e-20)
(0.962814 -0.0133786 -7.41128e-20)
(0.966496 -0.01233 1.13952e-20)
(0.969903 -0.0113619 3.4311e-20)
(0.973055 -0.010466 -3.65807e-20)
(0.975968 -0.00963454 6.3574e-20)
(0.97866 -0.00886156 4.5099e-21)
(0.981153 -0.00814267 1.57394e-20)
(0.983451 -0.00747348 -5.62398e-20)
(0.985559 -0.00684325 1.00733e-19)
(0.987491 -0.00624925 -1.64852e-19)
(0.989259 -0.00568825 6.44231e-20)
(0.990871 -0.00515716 -2.42541e-20)
(0.992335 -0.00465285 3.11086e-20)
(0.993656 -0.00417245 -1.75645e-20)
(0.99484 -0.00371329 4.22142e-20)
(0.995894 -0.00327292 -4.14219e-20)
(0.99682 -0.00284908 1.88491e-20)
(0.997623 -0.00243963 1.36226e-21)
(0.998306 -0.00204258 1.59133e-20)
(0.998872 -0.00165604 -8.98944e-21)
(0.999324 -0.00127823 -9.0584e-21)
(0.999661 -0.000907504 1.2849e-20)
(0.99988 -0.00054218 -7.89062e-21)
(0.999984 -0.000180254 -2.0739e-21)
(0.846529 -0.0904865 -4.47421e-21)
(0.859321 -0.0828835 -5.08067e-19)
(0.870952 -0.0753767 -1.32385e-19)
(0.881604 -0.0684774 2.72411e-19)
(0.891385 -0.0622727 -6.83739e-19)
(0.900383 -0.0567223 1.67905e-19)
(0.908672 -0.0517562 1.64114e-19)
(0.916318 -0.0473038 2.75359e-20)
(0.923377 -0.0433015 2.29925e-19)
(0.9299 -0.0396939 7.14887e-20)
(0.935934 -0.0364329 -4.06658e-19)
(0.94152 -0.0334771 1.39528e-19)
(0.946693 -0.0307905 1.56746e-19)
(0.951487 -0.0283422 2.20194e-21)
(0.955932 -0.0261049 6.50084e-20)
(0.960053 -0.0240552 -1.73282e-19)
(0.963876 -0.0221723 -1.16387e-20)
(0.96742 -0.0204381 4.70908e-20)
(0.970707 -0.0188368 -1.60614e-19)
(0.973752 -0.0173542 6.20311e-20)
(0.976572 -0.0159777 1.24319e-19)
(0.979178 -0.0146966 7.1204e-20)
(0.981582 -0.0135022 -1.35725e-19)
(0.983811 -0.0123886 -6.4892e-20)
(0.98587 -0.0113473 8.43727e-20)
(0.987756 -0.0103668 -2.33955e-20)
(0.989481 -0.00943733 2.93254e-20)
(0.991054 -0.00855707 8.71411e-20)
(0.992484 -0.00772106 -1.04879e-19)
(0.993775 -0.00692464 -5.50369e-20)
(0.994934 -0.00616339 7.28714e-20)
(0.995965 -0.00543321 -1.55026e-20)
(0.996872 -0.0047303 7.31373e-20)
(0.99766 -0.00405114 -6.21309e-20)
(0.99833 -0.00339239 -3.2466e-20)
(0.998886 -0.00275091 4.29536e-20)
(0.99933 -0.00212373 2.17579e-20)
(0.999662 -0.00150808 -1.01844e-20)
(0.999878 -0.000901148 -5.64072e-21)
(0.999983 -0.000299619 -2.596e-21)
(0.861527 -0.123882 2.7823e-19)
(0.872395 -0.113673 4.33678e-19)
(0.882248 -0.103562 -5.2107e-19)
(0.891352 -0.0942296 9.43191e-20)
(0.899804 -0.0858059 4.10062e-19)
(0.907666 -0.0782479 -1.4472e-19)
(0.914984 -0.0714682 -2.59937e-19)
(0.921796 -0.0653766 8.93412e-20)
(0.92814 -0.0598904 -6.40628e-20)
(0.934047 -0.0549369 3.25196e-19)
(0.939548 -0.0504528 5.72021e-20)
(0.944672 -0.046383 1.30217e-19)
(0.949444 -0.04268 -6.62353e-19)
(0.953889 -0.0393019 -3.48741e-20)
(0.958028 -0.0362124 4.66883e-19)
(0.961883 -0.0333799 -5.08417e-19)
(0.965471 -0.0307762 4.34584e-19)
(0.968809 -0.0283771 -1.18248e-19)
(0.971914 -0.0261607 8.37773e-20)
(0.9748 -0.0241079 -3.74659e-20)
(0.97748 -0.0222018 7.77336e-20)
(0.979963 -0.0204272 -1.05639e-19)
(0.982259 -0.0187701 9.46601e-21)
(0.984375 -0.0172183 1.92947e-19)
(0.986334 -0.015765 -5.6305e-20)
(0.988153 -0.0143984 7.31174e-20)
(0.98982 -0.0131134 -2.48984e-19)
(0.991335 -0.0118967 2.01874e-19)
(0.992713 -0.0107371 -1.91665e-19)
(0.993959 -0.00963149 3.0172e-20)
(0.995078 -0.00857446 6.83141e-20)
(0.996075 -0.00756024 1.42212e-21)
(0.996954 -0.0065836 -4.17995e-20)
(0.997717 -0.00563966 -5.33439e-21)
(0.998368 -0.00472377 3.46176e-20)
(0.998908 -0.00383153 5.48276e-22)
(0.99934 -0.0029588 -5.58701e-21)
(0.999664 -0.00210167 -5.94904e-21)
(0.999876 -0.00125616 1.25169e-20)
(0.999981 -0.000417698 -4.69601e-21)
(0.881261 -0.154513 -1.58901e-19)
(0.889643 -0.142118 -6.86592e-19)
(0.897181 -0.129795 -5.25363e-19)
(0.904262 -0.118352 3.16522e-19)
(0.910969 -0.107971 -1.16029e-20)
(0.917335 -0.0986196 -2.26264e-19)
(0.923372 -0.0902015 3.61877e-19)
(0.929085 -0.0826146 -2.25439e-19)
(0.934482 -0.0757634 4.66427e-21)
(0.939573 -0.0695626 5.97308e-19)
(0.944369 -0.0639373 -3.04098e-19)
(0.94888 -0.0588223 -3.46463e-19)
(0.95312 -0.0541601 1.96483e-19)
(0.957101 -0.0499008 1.32664e-19)
(0.960835 -0.0460003 2.40169e-19)
(0.964335 -0.0424201 -3.13438e-19)
(0.967611 -0.0391261 -1.09695e-19)
(0.970675 -0.0360881 5.45292e-19)
(0.973539 -0.0332797 -3.37193e-19)
(0.976211 -0.0306771 -2.44014e-19)
(0.978702 -0.0282594 2.19036e-19)
(0.98102 -0.0260078 -2.03623e-19)
(0.983173 -0.0239051 1.17056e-19)
(0.985167 -0.0219348 1.04869e-19)
(0.987007 -0.0200824 -1.5356e-19)
(0.988698 -0.0183413 8.40006e-20)
(0.99026 -0.0167013 1.64749e-19)
(0.991707 -0.0151473 -2.82535e-19)
(0.993025 -0.0136747 2.57948e-19)
(0.994211 -0.0122723 -2.1197e-19)
(0.995277 -0.01093 1.80674e-19)
(0.996229 -0.00964006 -6.31698e-20)
(0.997068 -0.008397 -1.62161e-20)
(0.997799 -0.00719511 -1.88023e-20)
(0.998422 -0.00602844 6.65028e-20)
(0.998941 -0.0048913 -5.0078e-20)
(0.999356 -0.00377841 -1.65741e-20)
(0.999669 -0.00268474 1.58043e-20)
(0.999875 -0.0016051 1.05309e-20)
(0.99998 -0.000533784 -7.83299e-21)
(0.905608 -0.181768 -5.04194e-19)
(0.910988 -0.167704 1.68326e-19)
(0.915706 -0.153664 4.10768e-19)
(0.920308 -0.140515 -5.87789e-20)
(0.92487 -0.128504 5.14017e-20)
(0.929391 -0.117619 1.39917e-19)
(0.933843 -0.107772 2.14366e-19)
(0.938195 -0.0988573 -3.18709e-19)
(0.942421 -0.0907763 -1.73249e-19)
(0.946501 -0.0834382 -2.29419e-19)
(0.950422 -0.0767622 5.07537e-19)
(0.954174 -0.0706768 -2.73234e-19)
(0.957753 -0.0651186 1.59913e-19)
(0.961157 -0.0600317 -5.20767e-19)
(0.964386 -0.0553663 5.43186e-19)
(0.967443 -0.0510786 -1.63434e-19)
(0.97033 -0.0471294 1.91277e-19)
(0.973051 -0.0434841 -6.05347e-20)
(0.975611 -0.0401118 6.57161e-20)
(0.978015 -0.0369848 -2.27531e-19)
(0.980268 -0.0340787 -1.46713e-19)
(0.982375 -0.0313713 -1.33032e-19)
(0.984341 -0.0288427 1.17091e-19)
(0.986171 -0.0264748 2.18466e-19)
(0.987869 -0.0242509 -1.30629e-19)
(0.98944 -0.0221551 2.90956e-19)
(0.990886 -0.0201722 -2.85675e-19)
(0.99221 -0.0182969 -2.28384e-21)
(0.993422 -0.0165195 -1.64616e-20)
(0.994532 -0.0148246 6.04945e-20)
(0.995535 -0.0132034 -9.2658e-20)
(0.996432 -0.0116484 9.84663e-20)
(0.997222 -0.0101505 -2.72732e-21)
(0.997909 -0.00870136 1.70036e-20)
(0.998497 -0.00729348 9.22047e-21)
(0.998988 -0.00591992 4.31114e-20)
(0.999381 -0.00457467 -8.09257e-20)
(0.999678 -0.00325173 3.715e-20)
(0.999877 -0.00194468 -2.44327e-20)
(0.999979 -0.000646741 1.3695e-20)
(0.934576 -0.204651 1.4875e-18)
(0.936476 -0.189364 -7.62252e-19)
(0.937897 -0.174064 -7.3032e-20)
(0.939597 -0.15962 -8.93163e-19)
(0.941639 -0.146351 8.79309e-19)
(0.943983 -0.134271 4.20974e-19)
(0.94656 -0.123294 -1.45369e-18)
(0.949294 -0.113318 1.56863e-18)
(0.95212 -0.104242 -1.39682e-19)
(0.954987 -0.0959711 -1.28134e-18)
(0.957853 -0.0884221 6.34588e-19)
(0.960686 -0.08152 5.54214e-19)
(0.963463 -0.0751982 -2.38847e-19)
(0.966165 -0.0693972 -1.22402e-19)
(0.968779 -0.0640643 1.86591e-19)
(0.971294 -0.0591524 4.22625e-20)
(0.973704 -0.0546195 -2.12171e-20)
(0.976004 -0.0504279 -3.02433e-20)
(0.978192 -0.0465442 -4.98336e-19)
(0.980266 -0.042938 3.83371e-19)
(0.982226 -0.0395824 3.95191e-20)
(0.984073 -0.0364528 -1.65752e-19)
(0.985808 -0.0335272 -1.15478e-19)
(0.987432 -0.0307856 1.59821e-20)
(0.988948 -0.0282099 1.18684e-19)
(0.990357 -0.0257833 -6.10334e-20)
(0.991661 -0.0234902 8.97317e-20)
(0.992863 -0.0213168 6.90867e-20)
(0.993965 -0.019248 -9.13524e-20)
(0.99497 -0.0172753 -1.18701e-19)
(0.995878 -0.0153895 1.66033e-19)
(0.996692 -0.0135805 -1.14693e-19)
(0.997417 -0.0118369 8.37618e-21)
(0.998051 -0.0101496 1.41792e-19)
(0.998596 -0.00851012 -2.21027e-20)
(0.999051 -0.00691088 4.45195e-20)
(0.999416 -0.00534366 -9.69625e-20)
(0.999693 -0.00380055 1.89377e-20)
(0.999881 -0.00227395 9.81573e-21)
(0.99998 -0.000756372 2.63872e-21)
(0.969409 -0.224345 2.59445e-19)
(0.966998 -0.209079 1.99378e-19)
(0.964371 -0.193487 -8.00249e-20)
(0.962533 -0.17851 1.61332e-19)
(0.961529 -0.164538 1.05557e-19)
(0.961264 -0.151627 -1.36951e-18)
(0.961607 -0.139738 5.06933e-19)
(0.962424 -0.128808 -2.25444e-19)
(0.963601 -0.118766 -4.01709e-19)
(0.965043 -0.10954 1.27931e-18)
(0.966675 -0.101063 -3.37456e-19)
(0.968436 -0.0932694 -8.98924e-19)
(0.970278 -0.0860985 7.68569e-19)
(0.972161 -0.0794945 -1.96407e-19)
(0.974056 -0.0734058 4.20347e-19)
(0.975938 -0.0677851 -1.97338e-19)
(0.97779 -0.0625893 -3.85816e-19)
(0.979596 -0.0577789 3.27115e-19)
(0.981345 -0.0533179 1.86938e-19)
(0.983029 -0.0491737 3.8064e-20)
(0.984643 -0.0453165 5.30302e-20)
(0.98618 -0.0417192 -5.9037e-20)
(0.987638 -0.038357 -4.15843e-19)
(0.989015 -0.0352074 1.04712e-19)
(0.99031 -0.0322498 4.59126e-19)
(0.991522 -0.0294653 3.01713e-20)
(0.99265 -0.0268366 -4.77926e-19)
(0.993695 -0.0243475 2.07539e-19)
(0.994658 -0.0219828 6.12334e-20)
(0.995539 -0.0197295 -1.42468e-19)
(0.996338 -0.0175748 -3.41178e-20)
(0.997056 -0.0155061 -1.77474e-20)
(0.997696 -0.0135132 -1.14996e-19)
(0.998256 -0.0115861 -1.04614e-10)
(0.998737 -0.00971476 1.04198e-10)
(0.99914 -0.00788982 6.29837e-20)
(0.999467 -0.00610131 2.14736e-20)
(0.999718 -0.00433997 -9.34387e-21)
(0.99989 -0.00259725 -6.45736e-21)
(0.999983 -0.000864982 1.3239e-20)
(1.00336 -0.226464 -2.06094e-27)
(0.996784 -0.212456 8.07805e-28)
(0.990658 -0.197389 0)
(0.98603 -0.182931 0)
(0.982657 -0.169356 0)
(0.980286 -0.156705 1.18924e-27)
(0.978722 -0.144959 -4.21639e-28)
(0.97781 -0.134079 0)
(0.977418 -0.124015 -9.78343e-28)
(0.977441 -0.114714 -3.30143e-27)
(0.977789 -0.106122 5.9793e-27)
(0.97839 -0.0981842 0)
(0.979185 -0.0908491 -9.91157e-28)
(0.980124 -0.084067 0)
(0.981168 -0.0777912 4.38856e-27)
(0.982282 -0.0719784 0)
(0.983441 -0.0665879 0)
(0.984622 -0.0615825 0)
(0.985807 -0.0569277 0)
(0.986982 -0.052592 0)
(0.988135 -0.0485462 0)
(0.989256 -0.0447636 5.72e-27)
(0.990338 -0.0412198 -5.72015e-27)
(0.991376 -0.0378922 0)
(0.992364 -0.0347602 0)
(0.993299 -0.0318046 -9.48743e-28)
(0.994177 -0.0290078 -1.23431e-27)
(0.994998 -0.0263536 0)
(0.99576 -0.0238268 0)
(0.99646 -0.0214136 -5.52944e-27)
(0.997099 -0.0191005 6.74892e-27)
(0.997676 -0.0168753 4.13497e-27)
(0.99819 -0.0147265 0)
(0.99864 -0.0126431 -2.03833e-10)
(0.999027 -0.0106144 2.0384e-10)
(0.999351 -0.00863014 0)
(0.99961 -0.00668086 0)
(0.999805 -0.0047573 -4.40661e-29)
(0.999932 -0.00285034 1.25031e-27)
(0.999992 -0.000951134 8.16998e-28)
(1.02477 -0.202618 2.06416e-27)
(1.01749 -0.192539 -8.0967e-28)
(1.01065 -0.181219 0)
(1.00507 -0.169956 0)
(1.00058 -0.159067 0)
(0.997017 -0.148661 8.47528e-27)
(0.994244 -0.138784 -9.24452e-27)
(0.992138 -0.129453 0)
(0.990591 -0.12067 9.80287e-28)
(0.98951 -0.112421 -8.57399e-27)
(0.988814 -0.10469 5.89107e-27)
(0.988434 -0.0974514 0)
(0.988312 -0.0906799 9.93009e-28)
(0.988398 -0.0843476 0)
(0.98865 -0.0784263 -4.39654e-27)
(0.989032 -0.0728879 0)
(0.989514 -0.0677054 0)
(0.990071 -0.0628522 0)
(0.990682 -0.0583035 0)
(0.991329 -0.0540353 0)
(0.991996 -0.0500252 0)
(0.992673 -0.046252 0)
(0.993348 -0.0426958 0)
(0.994012 -0.039338 0)
(0.994659 -0.036161 0)
(0.995284 -0.0331486 9.50208e-28)
(0.99588 -0.0302853 1.23618e-27)
(0.996444 -0.0275567 0)
(0.996974 -0.0249493 0)
(0.997465 -0.0224502 0)
(0.997917 -0.0200473 -1.22099e-27)
(0.998328 -0.0177292 -4.14057e-27)
(0.998695 -0.0154848 0)
(0.999019 -0.0133039 -1.99518e-10)
(0.999298 -0.0111761 1.99518e-10)
(0.999531 -0.00909175 0)
(0.999718 -0.00704142 0)
(0.999859 -0.00501595 -7.84319e-27)
(0.999951 -0.00300618 6.63564e-27)
(0.999994 -0.00100273 -8.17752e-28)
(1.04039 -0.185798 -1.42729e-27)
(1.03303 -0.177708 -2.14451e-27)
(1.02613 -0.168594 2.65758e-27)
(1.02025 -0.159401 0)
(1.01526 -0.150363 0)
(1.01106 -0.141576 2.58923e-27)
(1.00755 -0.1331 -1.90515e-27)
(1.00465 -0.12497 0)
(1.00229 -0.117209 3.41127e-27)
(1.00039 -0.109825 -1.3927e-27)
(0.998891 -0.102819 3.51651e-27)
(0.997725 -0.0961863 0)
(0.996846 -0.0899168 5.61017e-28)
(0.996209 -0.0839971 -1.22476e-27)
(0.995775 -0.0784118 0)
(0.995509 -0.0731439 5.70865e-28)
(0.995382 -0.0681758 0)
(0.995369 -0.0634896 4.95683e-27)
(0.995447 -0.0590675 -4.95683e-27)
(0.995598 -0.0548916 0)
(0.995805 -0.050945 0)
(0.996055 -0.0472108 5.05765e-27)
(0.996335 -0.043673 -5.63399e-27)
(0.996636 -0.0403164 5.76065e-28)
(0.996948 -0.0371262 6.18819e-28)
(0.997265 -0.0340885 0)
(0.997581 -0.0311897 1.24596e-27)
(0.99789 -0.0284173 6.17352e-28)
(0.998187 -0.025759 0)
(0.998469 -0.0232033 -3.64971e-27)
(0.998734 -0.0207391 4.31952e-27)
(0.998977 -0.0183558 0)
(0.999198 -0.0160432 5.71963e-28)
(0.999395 -0.0137913 -1.94693e-10)
(0.999566 -0.0115908 1.94693e-10)
(0.999709 -0.00943232 -5.70961e-28)
(0.999825 -0.00730691 0)
(0.999912 -0.00520583 -6.13281e-28)
(0.999969 -0.00312021 -1.2365e-27)
(0.999996 -0.00104081 0)
(1.05227 -0.170106 1.42632e-27)
(1.04513 -0.163504 1.20383e-27)
(1.0384 -0.156033 -1.7169e-27)
(1.03247 -0.148432 0)
(1.02726 -0.140874 0)
(1.0227 -0.133437 -8.04067e-11)
(1.01873 -0.126175 8.04067e-11)
(1.01531 -0.119127 0)
(1.01238 -0.112319 -3.41127e-27)
(1.00988 -0.105771 1.3927e-27)
(1.00776 -0.0994937 -3.51651e-27)
(1.00598 -0.0934913 0)
(1.0045 -0.0877644 -5.61017e-28)
(1.00327 -0.0823092 4.64363e-27)
(1.00226 -0.0771193 -3.41887e-27)
(1.00144 -0.072186 -5.70865e-28)
(1.00079 -0.0674993 0)
(1.00028 -0.0630479 0)
(0.999883 -0.0588199 0)
(0.999589 -0.0548029 0)
(0.99938 -0.0509845 0)
(0.999239 -0.0473522 -4.17663e-27)
(0.999156 -0.0438934 4.75297e-27)
(0.99912 -0.0405961 -5.76065e-28)
(0.99912 -0.0374484 -6.18819e-28)
(0.999149 -0.0344385 0)
(0.999201 -0.0315553 -1.24596e-27)
(0.999267 -0.0287878 -6.17352e-28)
(0.999345 -0.0261255 0)
(0.999428 -0.0235581 4.17121e-27)
(0.999514 -0.0210758 -4.84102e-27)
(0.999598 -0.018669 0)
(0.999679 -0.0163284 -5.71963e-28)
(0.999755 -0.0140449 -9.48755e-11)
(0.999822 -0.0118097 9.48755e-11)
(0.99988 -0.00961423 5.70961e-28)
(0.999928 -0.00745003 0)
(0.999964 -0.00530886 -5.54641e-28)
(0.999987 -0.00318228 2.40442e-27)
(0.999999 -0.0010615 0)
(1.06134 -0.155052 0)
(1.05446 -0.149648 -2.76232e-11)
(1.04795 -0.143501 -2.96018e-11)
(1.0421 -0.137202 0)
(1.03682 -0.13088 0)
(1.03209 -0.124597 -7.3414e-11)
(1.02787 -0.118399 7.3414e-11)
(1.02412 -0.112322 0)
(1.0208 -0.106393 0)
(1.01788 -0.100635 0)
(1.01532 -0.0950633 0)
(1.01308 -0.0896878 0)
(1.01112 -0.084515 7.61517e-28)
(1.00943 -0.0795476 -6.26634e-29)
(1.00796 -0.074785 1.07102e-27)
(1.00669 -0.0702248 0)
(1.0056 -0.0658624 0)
(1.00467 -0.0616917 -5.11334e-27)
(1.00387 -0.0577057 5.11334e-27)
(1.00319 -0.0538964 0)
(1.00262 -0.0502553 0)
(1.00214 -0.0467735 0)
(1.00173 -0.0434419 0)
(1.0014 -0.040251 0)
(1.00112 -0.0371917 0)
(1.00088 -0.0342545 0)
(1.0007 -0.0314302 0)
(1.00054 -0.0287098 0)
(1.00042 -0.0260843 0)
(1.00032 -0.023545 0)
(1.00024 -0.0210831 0)
(1.00018 -0.0186902 0)
(1.00013 -0.0163581 0)
(1.00009 -0.0140786 -5.26405e-27)
(1.00006 -0.0118437 5.26405e-27)
(1.00004 -0.00964553 0)
(1.00002 -0.00747637 0)
(1.00001 -0.00532858 0)
(1 -0.00319434 0)
(1 -0.00106545 0)
(1.06811 -0.140866 0)
(1.06151 -0.136435 2.76232e-11)
(1.05527 -0.131357 2.96018e-11)
(1.04955 -0.126116 0)
(1.04431 -0.120814 0)
(1.03953 -0.1155 4.06285e-27)
(1.03518 -0.110212 -4.06285e-27)
(1.03124 -0.104982 0)
(1.02769 -0.0998358 0)
(1.02448 -0.0947959 0)
(1.02161 -0.0898789 0)
(1.01903 -0.0850978 0)
(1.01673 -0.0804618 -7.61517e-28)
(1.01467 -0.0759772 -1.00836e-27)
(1.01285 -0.0716475 0)
(1.01122 -0.0674739 0)
(1.00978 -0.0634557 0)
(1.0085 -0.0595908 0)
(1.00737 -0.0558757 0)
(1.00637 -0.0523058 0)
(1.00549 -0.0488757 0)
(1.00472 -0.0455795 -4.70796e-27)
(1.00403 -0.0424108 4.70796e-27)
(1.00343 -0.0393626 0)
(1.00291 -0.036428 0)
(1.00245 -0.0335996 8.88695e-11)
(1.00205 -0.0308702 -8.88695e-11)
(1.0017 -0.0282322 0)
(1.00139 -0.0256783 0)
(1.00113 -0.0232011 0)
(1.0009 -0.0207932 0)
(1.0007 -0.0184473 0)
(1.00054 -0.0161562 0)
(1.00039 -0.0139126 -8.9922e-11)
(1.00028 -0.0117094 8.9922e-11)
(1.00018 -0.00953967 0)
(1.00011 -0.00739629 0)
(1.00005 -0.00527238 -6.01118e-27)
(1.00002 -0.00316084 6.01118e-27)
(1 -0.00105422 0)
(1.073 -0.127491 7.88859e-28)
(1.06671 -0.123854 -2.49257e-27)
(1.06074 -0.11965 1.57329e-27)
(1.05521 -0.11528 0)
(1.05007 -0.110827 0)
(1.04532 -0.106329 1.17453e-27)
(1.04094 -0.101821 -1.17453e-27)
(1.0369 -0.0973274 1.1839e-27)
(1.03321 -0.0928736 -1.78126e-28)
(1.02983 -0.0884793 0)
(1.02674 -0.0841614 0)
(1.02393 -0.0799334 0)
(1.02138 -0.0758059 1.97558e-28)
(1.01906 -0.0717869 4.63164e-28)
(1.01696 -0.0678821 0)
(1.01506 -0.0640952 0)
(1.01334 -0.0604281 0)
(1.01178 -0.0568812 -3.81718e-27)
(1.01038 -0.0534534 3.81718e-27)
(1.00912 -0.0501429 2.17986e-28)
(1.00799 -0.0469466 -2.80546e-27)
(1.00697 -0.043861 3.94107e-27)
(1.00605 -0.0408816 -3.94107e-27)
(1.00523 -0.0380038 0)
(1.00449 -0.0352224 0)
(1.00383 -0.0325318 1.71831e-10)
(1.00324 -0.0299264 -1.71831e-10)
(1.00272 -0.0274003 0)
(1.00226 -0.0249475 0)
(1.00185 -0.0225617 4.06727e-27)
(1.00149 -0.0202369 -4.06727e-27)
(1.00117 -0.0179669 2.95139e-27)
(1.0009 -0.0157454 -2.31777e-28)
(1.00067 -0.0135661 -8.7508e-11)
(1.00047 -0.0114229 8.7508e-11)
(1.00031 -0.00930946 0)
(1.00019 -0.00721966 0)
(1.00009 -0.00514731 -3.78386e-27)
(1.00003 -0.00308605 3.24798e-27)
(1 -0.00102922 -2.06204e-28)
(1.0764 -0.114888 -7.88502e-28)
(1.07041 -0.111901 -2.152e-27)
(1.06472 -0.108415 3.07129e-27)
(1.0594 -0.104768 0)
(1.0544 -0.101025 0)
(1.04973 -0.0972202 -5.80533e-11)
(1.04537 -0.0933796 5.80533e-11)
(1.04132 -0.0895267 -1.1839e-27)
(1.03756 -0.0856824 1.78126e-28)
(1.03408 -0.0818649 0)
(1.03087 -0.0780897 0)
(1.0279 -0.0743701 0)
(1.02517 -0.0707169 -1.97558e-28)
(1.02266 -0.0671388 -4.63164e-28)
(1.02036 -0.0636426 0)
(1.01825 -0.0602332 0)
(1.01632 -0.0569142 0)
(1.01455 -0.0536875 0)
(1.01293 -0.0505541 0)
(1.01146 -0.0475135 -2.17986e-28)
(1.01012 -0.0445648 2.80546e-27)
(1.00889 -0.041706 0)
(1.00778 -0.0389345 0)
(1.00677 -0.0362471 0)
(1.00586 -0.0336402 0)
(1.00503 -0.0311099 8.31162e-11)
(1.00429 -0.0286517 -8.31162e-11)
(1.00362 -0.0262612 0)
(1.00302 -0.0239335 0)
(1.00248 -0.0216636 0)
(1.002 -0.0194465 0)
(1.00159 -0.017277 -2.95139e-27)
(1.00122 -0.0151498 2.31777e-28)
(1.00091 -0.0130596 0)
(1.00065 -0.011001 0)
(1.00043 -0.00896862 0)
(1.00026 -0.00695703 0)
(1.00013 -0.00496082 5.35887e-28)
(1.00004 -0.00297442 0)
(1.00001 -0.000991941 2.06204e-28)
(1.07861 -0.103017 0)
(1.07293 -0.100562 0)
(1.06752 -0.0976701 1.64034e-28)
(1.06241 -0.0946245 0)
(1.05757 -0.0914799 -2.44548e-11)
(1.05301 -0.0882633 -8.01711e-11)
(1.04872 -0.0849968 5.43841e-11)
(1.0447 -0.0817003 1.41196e-27)
(1.04093 -0.0783917 -5.39522e-28)
(1.0374 -0.0750872 0)
(1.03412 -0.0718009 -3.13151e-11)
(1.03106 -0.068545 -3.22113e-11)
(1.02821 -0.0653298 6.08023e-28)
(1.02557 -0.0621642 2.58858e-27)
(1.02313 -0.0590552 3.45345e-11)
(1.02086 -0.0560084 3.51978e-11)
(1.01877 -0.0530281 -6.5892e-28)
(1.01684 -0.0501174 2.97096e-27)
(1.01506 -0.0472781 0)
(1.01341 -0.0445113 0)
(1.01191 -0.041817 0)
(1.01052 -0.0391946 -3.822e-11)
(1.00925 -0.0366428 -7.71787e-11)
(1.00809 -0.0341596 -3.89266e-11)
(1.00703 -0.0317427 -3.92338e-11)
(1.00606 -0.0293893 -3.95129e-11)
(1.00518 -0.0270963 3.97655e-11)
(1.00439 -0.02486 7.99864e-11)
(1.00367 -0.0226768 8.0395e-11)
(1.00303 -0.0205428 -4.16564e-11)
(1.00245 -0.0184538 8.2036e-11)
(1.00195 -0.0164055 -3.32266e-27)
(1.0015 -0.0143936 7.50808e-28)
(1.00112 -0.0124136 -2.00922e-27)
(1.0008 -0.010461 4.0995e-11)
(1.00053 -0.00853098 4.10646e-11)
(1.00032 -0.00661906 4.11178e-11)
(1.00016 -0.00472051 4.11544e-11)
(1.00006 -0.00283049 -2.34518e-27)
(1.00001 -0.000943897 0)
(1.07992 -0.0918254 0)
(1.07453 -0.0898081 0)
(1.06938 -0.0874096 -1.64034e-28)
(1.06449 -0.084868 0)
(1.05982 -0.0822287 2.44548e-11)
(1.05539 -0.0795139 2.5787e-11)
(1.0512 -0.0767419 2.69389e-27)
(1.04723 -0.0739294 -1.41196e-27)
(1.04348 -0.071092 5.39522e-28)
(1.03995 -0.0682434 0)
(1.03664 -0.0653961 3.13151e-11)
(1.03353 -0.0625613 3.22113e-11)
(1.03061 -0.0597485 -6.08023e-28)
(1.02789 -0.056966 0)
(1.02534 -0.0542208 -3.45345e-11)
(1.02297 -0.0515185 -3.51978e-11)
(1.02076 -0.0488639 6.5892e-28)
(1.01871 -0.0462603 -2.97096e-27)
(1.0168 -0.0437105 0)
(1.01503 -0.0412161 0)
(1.01339 -0.0387781 0)
(1.01187 -0.0363967 3.822e-11)
(1.01048 -0.0340714 7.71787e-11)
(1.00919 -0.0318014 3.89266e-11)
(1.00801 -0.0295851 3.92338e-11)
(1.00693 -0.0274208 3.95129e-11)
(1.00594 -0.0253061 -3.97655e-11)
(1.00504 -0.0232385 -7.99864e-11)
(1.00422 -0.0212152 -8.0395e-11)
(1.00349 -0.019233 -1.20185e-10)
(1.00284 -0.0172887 7.98051e-11)
(1.00225 -0.0153788 3.32266e-27)
(1.00174 -0.0134998 -7.50808e-28)
(1.0013 -0.0116478 -8.08556e-11)
(1.00093 -0.00981917 3.98606e-11)
(1.00062 -0.00800989 -4.10646e-11)
(1.00037 -0.00621606 -4.11178e-11)
(1.00018 -0.0044337 -4.11544e-11)
(1.00006 -0.00265865 0)
(1.00001 -0.000886557 0)
(1.08055 -0.0812553 -8.25171e-28)
(1.07544 -0.0795996 5.76542e-28)
(1.07054 -0.0776129 3.88634e-28)
(1.06585 -0.0754957 -3.79839e-28)
(1.06135 -0.0732857 1.09776e-27)
(1.05706 -0.0710009 0)
(1.05297 -0.0686566 -1.2186e-27)
(1.04907 -0.0662667 0)
(1.04537 -0.0638442 4.88266e-28)
(1.04187 -0.0614012 -2.09626e-28)
(1.03856 -0.0589484 5.24249e-28)
(1.03543 -0.0564956 0)
(1.03248 -0.0540514 0)
(1.0297 -0.0516234 -1.05552e-27)
(1.02709 -0.0492182 4.39561e-27)
(1.02465 -0.0468413 -5.97395e-28)
(1.02235 -0.0444972 6.09402e-28)
(1.02021 -0.0421898 -3.46174e-27)
(1.0182 -0.0399217 3.46174e-27)
(1.01634 -0.0376953 -6.40798e-28)
(1.0146 -0.0355119 2.88445e-27)
(1.01298 -0.0333723 8.59438e-28)
(1.01149 -0.0312768 6.65958e-28)
(1.0101 -0.029225 0)
(1.00882 -0.0272163 -3.01691e-27)
(1.00765 -0.0252494 7.58376e-11)
(1.00657 -0.0233228 -7.58376e-11)
(1.00558 -0.0214347 0)
(1.00469 -0.019583 0)
(1.00388 -0.0177653 -3.89002e-27)
(1.00316 -0.0159791 3.18162e-27)
(1.00251 -0.0142215 0)
(1.00194 -0.0124897 0)
(1.00145 -0.0107806 -1.57813e-10)
(1.00103 -0.00909109 1.57813e-10)
(1.00069 -0.00741791 0)
(1.00041 -0.00575777 -7.2154e-28)
(1.00021 -0.00410731 -2.2346e-27)
(1.00007 -0.00246306 2.2346e-27)
(1.00001 -0.000821301 6.39503e-28)
(1.0807 -0.0712447 8.24957e-28)
(1.07584 -0.0698893 6.67468e-28)
(1.07116 -0.0682487 -1.63264e-27)
(1.06666 -0.0664914 3.79839e-28)
(1.06233 -0.0646484 -1.09776e-27)
(1.05817 -0.0627343 -4.64208e-11)
(1.05419 -0.0607618 4.64208e-11)
(1.05038 -0.0587424 0)