/*--------------------------------*- C++ -*----------------------------------*\
  =========                 |
  \\      /  F ield         | OpenFOAM: The Open Source CFD Toolbox
   \\    /   O peration     | Website:  https://openfoam.org
    \\  /    A nd           | Version:  7
     \\/     M anipulation  |
\*---------------------------------------------------------------------------*/
FoamFile
{
    version     2.0;
    format      ascii;
    class       surfaceScalarField;
    location    "65";
    object      phi;
}
// * * * * * * * * * * * * * * * * * * * * * * * * * * * * * * * * * * * * * //

dimensions      [0 3 -1 0 0 0 0];

internalField   nonuniform List<scalar> 
11803
(
-4.09616e-05
4.07526e-05
-0.000128793
8.7385e-05
-0.00024066
0.000111304
-0.000362835
0.000121571
-0.000488555
0.000125111
-0.00061523
0.000126076
-0.000742242
0.000126427
-0.000869679
0.000126868
-0.000997808
0.000127576
-0.00112691
0.000128562
-0.00125724
0.000129811
-0.00138905
0.000131302
-0.00152256
0.000133019
-0.00165799
0.000134948
-0.00179553
0.000137076
-0.00193538
0.000139394
-0.00207771
0.000141894
-0.0022227
0.000144567
-0.00237052
0.000147408
-0.00252133
0.000150412
-0.00267529
0.000153576
-0.00283256
0.000156898
-0.00299329
0.000160368
-0.0031576
0.000163965
0.000167717
-0.00332566
-4.08731e-05
8.16257e-05
-0.00012856
0.000175072
-0.000240281
0.000223025
-0.000362327
0.000243617
-0.000487932
0.000250716
-0.000614501
0.000252645
-0.00074141
0.000253336
-0.000868746
0.000254205
-0.000996776
0.000255605
-0.00112578
0.000257564
-0.00125601
0.000260047
-0.00138773
0.000263015
-0.00152114
0.000266434
-0.00165647
0.000270277
-0.00179391
0.000274519
-0.00193366
0.000279141
-0.00207589
0.000284125
-0.00222078
0.000289458
-0.0023685
0.000295126
-0.00251921
0.00030112
-0.00267307
0.000307433
-0.00283023
0.000314064
-0.00299085
0.000320991
-0.00315506
0.000328173
0.000335663
-0.00332301
-4.06963e-05
0.000122322
-0.000128094
0.000262469
-0.000239524
0.000334456
-0.000361312
0.000365405
-0.000486688
0.000376092
-0.000613044
0.000379
-0.000739748
0.00038004
-0.000866884
0.000381341
-0.000994715
0.000383437
-0.00112352
0.00038637
-0.00125356
0.000390087
-0.00138508
0.000394532
-0.0015183
0.000399654
-0.00165343
0.00040541
-0.00179068
0.000411766
-0.00193023
0.000418691
-0.00207226
0.000426159
-0.00221695
0.000434149
-0.00236447
0.000442643
-0.00251497
0.000451624
-0.00266863
0.000461085
-0.00282558
0.000471021
-0.002986
0.000481403
-0.00314999
0.000492166
0.000503389
-0.00331772
-4.04315e-05
0.000162753
-0.000127395
0.000349433
-0.00023839
0.000445451
-0.000359791
0.000486806
-0.000484822
0.000501123
-0.000610859
0.000505037
-0.000737256
0.000506437
-0.000864091
0.000508176
-0.000991625
0.000510971
-0.00112014
0.00051488
-0.00124988
0.000519834
-0.00138111
0.000525757
-0.00151403
0.000532581
-0.00164888
0.000540252
-0.00178583
0.00054872
-0.00192509
0.000557946
-0.00206682
0.000567896
-0.00221122
0.000578542
-0.00235843
0.000589857
-0.00250863
0.000601824
-0.00266197
0.000614428
-0.00281862
0.000627666
-0.00297871
0.000641498
-0.00314239
0.000655838
0.000670787
-0.00330978
-4.00789e-05
0.000202832
-0.000126464
0.000435818
-0.000236879
0.000555865
-0.000357763
0.000607689
-0.000482335
0.000625695
-0.000607946
0.000630649
-0.000733935
0.000632426
-0.000860369
0.000634611
-0.000987507
0.000638109
-0.00111562
0.000642997
-0.00124498
0.00064919
-0.00137582
0.000656592
-0.00150835
0.00066512
-0.00164281
0.000674703
-0.00177937
0.000685283
-0.00191823
0.000696809
-0.00205957
0.000709239
-0.00220357
0.000722536
-0.00235038
0.000736671
-0.00250018
0.000751617
-0.00265311
0.000767361
-0.00280934
0.000783895
-0.00296901
0.000801172
-0.00313226
0.000819084
0.000837752
-0.00329922
-3.96391e-05
0.000242471
-0.000125302
0.000521482
-0.000234991
0.000665553
-0.000355228
0.000727927
-0.000479226
0.000749693
-0.000604307
0.000755729
-0.000729785
0.000757904
-0.000855719
0.000760545
-0.000982363
0.000764752
-0.00110999
0.000770624
-0.00123886
0.000778059
-0.00136921
0.000786941
-0.00150126
0.000797173
-0.00163523
0.000808669
-0.0017713
0.000821359
-0.00190967
0.000835182
-0.00205052
0.000850087
-0.00219402
0.000866033
-0.00234033
0.000882982
-0.00248962
0.000900903
-0.00264204
0.000919779
-0.00279774
0.000939603
-0.00295689
0.000960319
-0.0031196
0.000981798
0.00100417
-0.00328603
-3.91126e-05
0.000281584
-0.00012391
0.000606279
-0.000232726
0.00077437
-0.000352188
0.000847389
-0.000475498
0.000873003
-0.000599941
0.000880172
-0.000724807
0.00088277
-0.000850142
0.00088588
-0.000976193
0.000890803
-0.00110323
0.000897663
-0.00123152
0.000906342
-0.00136128
0.000916708
-0.00149275
0.000928643
-0.00162614
0.000942051
-0.00176163
0.000956849
-0.00189941
0.000972967
-0.00203967
0.000990345
-0.00218257
0.00100893
-0.00232828
0.00102869
-0.00247696
0.00104958
-0.00262876
0.00107158
-0.00278384
0.00109469
-0.00294236
0.00111883
-0.00310443
0.00114387
0.00116994
-0.00327021
-3.85e-05
0.000320084
-0.000122288
0.000690066
-0.000230087
0.000882169
-0.000348643
0.000965945
-0.000471149
0.000995509
-0.000594849
0.00100387
-0.000719003
0.00100692
-0.000843639
0.00101052
-0.000968999
0.00101616
-0.00109535
0.00102402
-0.00122296
0.00103395
-0.00135204
0.00104579
-0.00148284
0.00105944
-0.00161554
0.00107475
-0.00175035
0.00109166
-0.00188745
0.00111007
-0.00202702
0.00112991
-0.00216923
0.00115114
-0.00231423
0.0011737
-0.0024622
0.00119755
-0.00261329
0.00122267
-0.00276765
0.00124904
-0.00292542
0.00127661
-0.00308675
0.0013052
0.00133496
-0.00325176
-3.78023e-05
0.000357886
-0.000120437
0.000772701
-0.000227073
0.000988805
-0.000344593
0.00108347
-0.00046618
0.0011171
-0.000589032
0.00112672
-0.000712372
0.00113026
-0.000836211
0.00113436
-0.000960784
0.00114074
-0.00108636
0.00114959
-0.00121318
0.00116077
-0.0013415
0.00117411
-0.00147151
0.00118945
-0.00160344
0.00120668
-0.00173748
0.00122569
-0.00187379
0.00124639
-0.00201258
0.0012687
-0.00215399
0.00129256
-0.0022982
0.00131791
-0.00244536
0.00134471
-0.00259563
0.00137294
-0.00274916
0.00140257
-0.00290609
0.00143355
-0.00306657
0.00146568
0.0014991
-0.00323071
-3.70203e-05
0.000394907
-0.000118359
0.00085404
-0.000223686
0.00109413
-0.00034004
0.00119982
-0.000460593
0.00123765
-0.000582491
0.00124862
-0.000704916
0.00125269
-0.00082786
0.0012573
-0.000951549
0.00126443
-0.00107625
0.00127429
-0.0012022
0.00128672
-0.00132964
0.00130155
-0.00145879
0.0013186
-0.00158985
0.00133774
-0.00172301
0.00135885
-0.00185845
0.00138183
-0.00199635
0.0014066
-0.00213688
0.00143308
-0.00228019
0.00146122
-0.00242644
0.00149096
-0.00257579
0.00152228
-0.00272838
0.00155517
-0.00288437
0.00158954
-0.00304389
0.0016252
0.00166226
-0.00320706
-3.6155e-05
0.000431062
-0.000116056
0.00093394
-0.000219927
0.001198
-0.000334983
0.00131488
-0.000454387
0.00135705
-0.000575227
0.00136946
-0.000696638
0.0013741
-0.000818589
0.00137925
-0.000941297
0.00138713
-0.00106502
0.00139801
-0.00119001
0.00141171
-0.00131649
0.00142803
-0.00144467
0.00144679
-0.00157477
0.00146784
-0.00170696
0.00149104
-0.00184143
0.0015163
-0.00197835
0.00154352
-0.00211789
0.00157262
-0.0022602
0.00160353
-0.00240545
0.00163621
-0.00255378
0.00167061
-0.00270534
0.00170673
-0.00286028
0.00174448
-0.00301874
0.00178366
0.00182434
-0.00318082
-3.52078e-05
0.000466269
-0.000113529
0.00101226
-0.000215798
0.00130027
-0.000329425
0.0014285
-0.000447564
0.00147519
-0.000567239
0.00148914
-0.000687537
0.0014944
-0.000808399
0.00150011
-0.000930031
0.00150877
-0.00105269
0.00152067
-0.00117661
0.00153564
-0.00130203
0.00155345
-0.00142916
0.00157392
-0.0015582
0.00159687
-0.00168933
0.00162217
-0.00182273
0.0016497
-0.00195858
0.00167937
-0.00209703
0.00171107
-0.00223825
0.00174476
-0.00238239
0.00178035
-0.0025296
0.00181782
-0.00268003
0.00185715
-0.00283382
0.00189827
-0.00299111
0.00194095
0.00198523
-0.003152
-3.41799e-05
0.000500449
-0.00011078
0.00108886
-0.0002113
0.00140079
-0.000323366
0.00154057
-0.000440124
0.00159195
-0.000558531
0.00160754
-0.000677616
0.00161348
-0.000797292
0.00161979
-0.000917754
0.00162923
-0.00103925
0.00164216
-0.00116202
0.00165841
-0.00128629
0.00167772
-0.00141227
0.0016999
-0.00154015
0.00172475
-0.00167013
0.00175215
-0.00180237
0.00178195
-0.00193705
0.00181404
-0.00207432
0.00184835
-0.00221435
0.00188479
-0.00235729
0.00192329
-0.00250328
0.00196381
-0.00265247
0.00200634
-0.00280501
0.00205081
-0.00296102
0.00209696
0.00214482
-0.00312062
-3.30727e-05
0.000533522
-0.000107811
0.0011636
-0.000206435
0.00149942
-0.000316806
0.00165094
-0.000432069
0.00170721
-0.000549102
0.00172458
-0.000666876
0.00173126
-0.000785272
0.00173818
-0.000904469
0.00174843
-0.00102471
0.0017624
-0.00114623
0.00177993
-0.00126926
0.00180074
-0.00139399
0.00182463
-0.00152063
0.00185139
-0.00164936
0.00188087
-0.00178035
0.00191293
-0.00191376
0.00194746
-0.00204977
0.00198435
-0.00218851
0.00202353
-0.00233015
0.00206492
-0.00247482
0.00210848
-0.00262268
0.00215419
-0.00277386
0.00220199
-0.0029285
0.00225161
0.00230301
-0.00308669
-3.1888e-05
0.00056541
-0.000104625
0.00123634
-0.000201205
0.001596
-0.000309749
0.00175948
-0.000423398
0.00182086
-0.000538955
0.00184013
-0.00065532
0.00184762
-0.00077234
0.0018552
-0.00089018
0.00186627
-0.00100907
0.0018813
-0.00112926
0.00190011
-0.00125095
0.00192244
-0.00137435
0.00194803
-0.00149965
0.0019767
-0.00162704
0.00200826
-0.00175668
0.00204258
-0.00188874
0.00207952
-0.00202337
0.00211899
-0.00216074
0.0021609
-0.00230098
0.00220517
-0.00244424
0.00225174
-0.00259066
0.00230061
-0.00274039
0.00235172
-0.00289355
0.00240477
0.00245969
-0.00305023
-3.06275e-05
0.000596037
-0.000101225
0.00130693
-0.000195612
0.00169038
-0.000302195
0.00186607
-0.000414115
0.00193278
-0.000528089
0.00195411
-0.000642949
0.00196248
-0.0007585
0.00197075
-0.00087489
0.00198266
-0.000992347
0.00199876
-0.0011111
0.00201886
-0.00123136
0.0020427
-0.00135334
0.00207001
-0.00147722
0.00210057
-0.00160317
0.00213421
-0.00173137
0.00217078
-0.00186198
0.00221013
-0.00199516
0.00225216
-0.00213105
0.00229679
-0.0022698
0.00234392
-0.00241155
0.00239349
-0.00255644
0.0024455
-0.00270461
0.00249989
-0.0028562
0.00255636
0.00261476
-0.00301127
-2.92931e-05
0.000625331
-9.76126e-05
0.00137525
-0.00018966
0.00178243
-0.000294146
0.00197055
-0.000404219
0.00204285
-0.000516508
0.0020664
-0.000629766
0.00207574
-0.000743755
0.00208474
-0.000858603
0.0020975
-0.000974532
0.00211468
-0.00109177
0.0021361
-0.00121051
0.00216145
-0.00133098
0.00219047
-0.00145334
0.00222293
-0.00157777
0.00225865
-0.00170444
0.00229745
-0.00183351
0.0023392
-0.00196514
0.00238379
-0.00209946
0.00243111
-0.00223663
0.00248108
-0.00237677
0.00253364
-0.00252004
0.00258877
-0.00266656
0.00264641
-0.00281647
0.00270627
0.00276812
-0.00296982
-2.78871e-05
0.000653218
-9.37926e-05
0.00144116
-0.00018335
0.00187199
-0.000285605
0.00207281
-0.000393713
0.00215096
-0.000504213
0.0021769
-0.000615772
0.0021873
-0.000728107
0.00219708
-0.000841325
0.00221072
-0.000955637
0.002229
-0.00107126
0.00225172
-0.00118841
0.00227859
-0.00130726
0.00230933
-0.00142802
0.00234369
-0.00155084
0.00238147
-0.00167589
0.0024225
-0.00180334
0.00246664
-0.00193332
0.00251377
-0.00206598
0.00256378
-0.00220147
0.00261657
-0.00233992
0.00267209
-0.00248146
0.00273031
-0.00262623
0.00279118
-0.00277437
0.0028544
0.00291966
-0.00292591
-2.64117e-05
0.000679629
-8.9768e-05
0.00150451
-0.000176687
0.00195891
-0.000276572
0.00217269
-0.000382597
0.00225699
-0.000491204
0.00228551
-0.000600971
0.00229707
-0.000711561
0.00230767
-0.000823059
0.00232222
-0.000935665
0.0023416
-0.00104959
0.00236565
-0.00116505
0.00239405
-0.00128222
0.0024265
-0.00140128
0.00246275
-0.0015224
0.00250259
-0.00164575
0.00254585
-0.00177147
0.00259237
-0.00189972
0.00264202
-0.00203063
0.00269469
-0.00216435
0.00275029
-0.00230101
0.00280875
-0.00244074
0.00287003
-0.00258367
0.00293412
-0.00272993
0.00300067
0.0030693
-0.00287957
-2.48694e-05
0.000704499
-8.5543e-05
0.00156519
-0.000169674
0.00204304
-0.000267052
0.00227007
-0.000370875
0.00236081
-0.000477485
0.00239212
-0.000585365
0.00240495
-0.000694121
0.00241642
-0.000803811
0.00243191
-0.000914625
0.00245242
-0.00102677
0.0024778
-0.00114045
0.00250772
-0.00125584
0.00254189
-0.00137312
0.00258003
-0.00149246
0.00262193
-0.00161401
0.0026674
-0.00173792
0.00271628
-0.00186435
0.00276844
-0.00199342
0.00282377
-0.00212529
0.00288216
-0.00226006
0.00294353
-0.00239789
0.00300786
-0.00253889
0.00307512
-0.00268319
0.00314497
0.00321693
-0.00283082
-2.3263e-05
0.000727762
-8.11221e-05
0.00162305
-0.000162315
0.00212423
-0.000257046
0.0023648
-0.000358547
0.00246231
-0.000463057
0.00249663
-0.000568956
0.00251084
-0.000675789
0.00252326
-0.000783585
0.00253971
-0.000892522
0.00256135
-0.0010028
0.00258808
-0.00111461
0.00261954
-0.00122814
0.00265542
-0.00134356
0.00269545
-0.00146102
0.0027394
-0.00158069
0.00278707
-0.00170271
0.0028383
-0.00182723
0.00289296
-0.00195438
0.00295091
-0.00208429
0.00301207
-0.0022171
0.00307634
-0.00235293
0.00314368
-0.00249191
0.0032141
-0.00263416
0.00328722
0.00336247
-0.0027797
-2.15954e-05
0.000749357
-7.651e-05
0.00167796
-0.000154615
0.00220234
-0.000246559
0.00245675
-0.000345616
0.00256137
-0.000447922
0.00259893
-0.000551748
0.00261467
-0.00065657
0.00262808
-0.000762387
0.00264552
-0.000869362
0.00266833
-0.000977689
0.0026964
-0.00108756
0.0027294
-0.00119914
0.002767
-0.00131261
0.00280891
-0.00142812
0.0028549
-0.00154582
0.00290477
-0.00166586
0.00295834
-0.00178838
0.00301547
-0.00191351
0.00307605
-0.00204139
0.00313995
-0.00217214
0.00320709
-0.00230589
0.00327743
-0.00244276
0.00335097
-0.00258289
0.00342735
0.00350583
-0.00272625
-1.98698e-05
0.000769227
-7.17123e-05
0.0017298
-0.000146579
0.00227721
-0.000235593
0.00254576
-0.000332085
0.00265786
-0.000432083
0.00269893
-0.000533743
0.00271633
-0.000636468
0.0027308
-0.000740223
0.00274928
-0.000845154
0.00277326
-0.000951447
0.0028027
-0.00105929
0.00283724
-0.00116884
0.00287656
-0.00128028
0.00292035
-0.00139375
0.00296837
-0.0015094
0.00302042
-0.00162737
0.00307632
-0.00174781
0.00313591
-0.00187084
0.00319908
-0.0019966
0.00326571
-0.0021252
0.00333569
-0.00225678
0.00340901
-0.00239147
0.00348567
-0.00252939
0.00356527
0.00364694
-0.0026705
-1.80895e-05
0.000787317
-6.67349e-05
0.00177845
-0.000138212
0.00234868
-0.000224153
0.0026317
-0.000317956
0.00275166
-0.000415542
0.00279652
-0.000514945
0.00281573
-0.000615488
0.00283135
-0.000717098
0.00285089
-0.000819903
0.00287606
-0.000924083
0.00290688
-0.00102981
0.00294297
-0.00113726
0.002984
-0.00124658
0.00302967
-0.00135793
0.00307972
-0.00147145
0.00313394
-0.00158728
0.00319214
-0.00170554
0.00325418
-0.00182639
0.00331992
-0.00194994
0.00338925
-0.00207631
0.00346206
-0.00220563
0.00353833
-0.00233806
0.0036181
-0.00247373
0.00370093
0.00378574
-0.00261253
-1.62583e-05
0.000803575
-6.15843e-05
0.00182378
-0.000129521
0.00241662
-0.000212244
0.00271442
-0.000303233
0.00284265
-0.000398302
0.00289159
-0.000495356
0.00291279
-0.000593635
0.00292963
-0.000693019
0.00295027
-0.00079362
0.00297667
-0.000895606
0.00300886
-0.000999148
0.00304651
-0.00110441
0.00308926
-0.00121154
0.0031368
-0.00132068
0.00318887
-0.00143199
0.00324524
-0.00154558
0.00330574
-0.0016616
0.0033702
-0.00178017
0.0034385
-0.00190143
0.00351051
-0.00202549
0.00358612
-0.00215247
0.00366531
-0.00228255
0.00374818
-0.00241592
0.00383429
0.00392223
-0.0025524
-1.43801e-05
0.000817955
-5.62677e-05
0.00186566
-0.000120513
0.00248086
-0.000199871
0.00279378
-0.000287919
0.0029307
-0.000380366
0.00298403
-0.000474981
0.0030074
-0.000570912
0.00302556
-0.000667992
0.00304735
-0.00076631
0.00307498
-0.000866026
0.00310858
-0.000967303
0.00314779
-0.0010703
0.00319226
-0.00117516
0.00324166
-0.00128202
0.00329574
-0.00139103
0.00335425
-0.00150231
0.00341702
-0.001616
0.00348388
-0.00173221
0.00355471
-0.00185109
0.00362939
-0.00197275
0.00370778
-0.0020973
0.00378986
-0.00222495
0.00387584
-0.002356
0.00396534
0.00405643
-0.0024902
-1.24593e-05
0.000830414
-5.0793e-05
0.001904
-0.000111196
0.00254127
-0.00018704
0.00286963
-0.000272019
0.00301568
-0.000361737
0.00307375
-0.000453824
0.00309949
-0.000547326
0.00311906
-0.000642023
0.00314205
-0.000737984
0.00317094
-0.000835353
0.00320595
-0.000934289
0.00324673
-0.00103494
0.00329291
-0.00113745
0.00334417
-0.00124196
0.00340024
-0.0013486
0.00346089
-0.00145749
0.00352591
-0.00156876
0.00359515
-0.00168253
0.00366849
-0.00179895
0.00374581
-0.00191813
0.00382696
-0.00204015
0.00391188
-0.00216524
0.00400092
-0.00229395
0.00409405
0.00418853
-0.00242605
-1.05007e-05
0.000840915
-4.51685e-05
0.00193866
-0.000101579
0.00259768
-0.000173758
0.0029418
-0.000255537
0.00309746
-0.00034242
0.00316063
-0.000431888
0.00318896
-0.000522881
0.00321005
-0.000615121
0.00323429
-0.000708649
0.00326447
-0.000803599
0.0033009
-0.00090012
0.00334325
-0.000998356
0.00339115
-0.00109845
0.00344426
-0.00120052
0.00350232
-0.00130471
0.00356507
-0.00141113
0.00363233
-0.0015199
0.00370393
-0.00163116
0.00377975
-0.00174503
0.00385968
-0.00186166
0.00394359
-0.0019811
0.00403132
-0.00210347
0.00412329
-0.00222973
0.00422031
0.004319
-0.0023602
-8.51037e-06
0.000849425
-3.94036e-05
0.00196956
-9.16707e-05
0.00264994
-0.000160033
0.00301017
-0.00023848
0.0031759
-0.000322418
0.00324457
-0.000409178
0.00327572
-0.000497583
0.00329846
-0.000587292
0.003324
-0.000678315
0.0033555
-0.000770774
0.00339336
-0.000864808
0.00343728
-0.000960557
0.0034869
-0.00105815
0.00354186
-0.00115772
0.00360188
-0.00125938
0.00366673
-0.00136325
0.00373621
-0.00146946
0.00381013
-0.00157811
0.0038884
-0.00168934
0.00397091
-0.00180331
0.00405757
-0.0019201
0.0041481
-0.00203949
0.00424268
-0.00216249
0.00434331
0.0044489
-0.00229239
-6.49591e-06
0.000855921
-3.35076e-05
0.00199657
-8.14829e-05
0.00269792
-0.000145873
0.00307456
-0.000220852
0.00325088
-0.000301736
0.00332546
-0.000385699
0.00335968
-0.000471438
0.0033842
-0.000558543
0.0034111
-0.000646992
0.00344394
-0.000736889
0.00348325
-0.000828367
0.00352876
-0.000921558
0.00358009
-0.00101659
0.00363689
-0.00111357
0.00369887
-0.00121264
0.0037658
-0.00131389
0.00383746
-0.00141745
0.00391369
-0.00152342
0.00399437
-0.00163193
0.00407943
-0.00174319
0.00416882
-0.00185742
0.00426234
-0.00197438
0.00435964
-0.00209318
0.00446211
0.00458067
-0.00222494
-4.46905e-06
0.00086039
-2.74897e-05
0.00201959
-7.10273e-05
0.00274146
-0.00013129
0.00313482
-0.000202662
0.00332225
-0.00028038
0.00340317
-0.000361455
0.00344076
-0.000444453
0.00346719
-0.000528884
0.00349553
-0.00061469
0.00352975
-0.000701958
0.00357052
-0.000790812
0.00361761
-0.000881376
0.00367065
-0.00097377
0.00372928
-0.00106811
0.00379321
-0.0011645
0.00386219
-0.00126307
0.00393602
-0.0013639
0.00401453
-0.00146712
0.00409758
-0.00157283
0.00418513
-0.00168118
0.00427718
-0.00179239
0.00437355
-0.00190666
0.00447391
-0.00202482
0.00458027
0.00469793
-0.00214209
-2.45268e-06
0.000862843
-2.13567e-05
0.00203849
-6.03167e-05
0.00278042
-0.000116294
0.0031908
-0.000183918
0.00338988
-0.000258357
0.00347761
-0.000336454
0.00351885
-0.000416633
0.00354737
-0.000498321
0.00357722
-0.000581418
0.00361285
-0.000665992
0.0036551
-0.000752156
0.00370378
-0.000840028
0.00375852
-0.000929721
0.00381897
-0.00102134
0.00388483
-0.001115
0.00395585
-0.0012108
0.00403182
-0.00130884
0.00411257
-0.00140923
0.00419797
-0.00151204
0.00428795
-0.0016174
0.00438253
-0.00172548
0.00448163
-0.00183655
0.00458498
-0.00195044
0.00469416
0.00481525
-0.00206776
-5.27149e-07
0.00086337
-1.51093e-05
0.00205308
-4.93657e-05
0.00281467
-0.000100898
0.00324233
-0.000164629
0.00345361
-0.000235672
0.00354866
-0.0003107
0.00359388
-0.000387986
0.00362466
-0.000466865
0.0036561
-0.000547188
0.00369317
-0.000629005
0.00373691
-0.000712416
0.00378719
-0.000797532
0.00384364
-0.000884459
0.0039059
-0.000973302
0.00397368
-0.00106416
0.00404671
-0.00115713
0.00412479
-0.00125231
0.00420775
-0.00134979
0.00429545
-0.00144966
0.00438782
-0.00155201
0.00448489
-0.00165705
0.00458667
-0.00176523
0.00469315
-0.00187684
0.00480577
0.00492847
-0.00199007
1.70578e-06
0.000861664
-8.72962e-06
0.00206351
-3.81892e-05
0.00284413
-8.51163e-05
0.00328926
-0.000144808
0.0035133
-0.000212336
0.00361619
-0.000284201
0.00366575
-0.00035852
0.00369898
-0.000434523
0.0037321
-0.000512011
0.00377066
-0.000591009
0.00381591
-0.000671606
0.00386779
-0.000753905
0.00392594
-0.000838005
0.00399
-0.000924005
0.00405968
-0.001012
0.0041347
-0.00110208
0.00421487
-0.00119433
0.0043
-0.00128886
0.00438997
-0.00138575
0.00448471
-0.0014851
0.00458424
-0.00158717
0.00468873
-0.0016924
0.00479838
-0.00180092
0.0049143
0.0050386
-0.00191105
3.86577e-06
0.000857799
-2.14151e-06
0.00206952
-2.68051e-05
0.0028688
-6.89664e-05
0.00333142
-0.000124467
0.0035688
-0.000188357
0.00368007
-0.000256966
0.00373436
-0.000328242
0.00377025
-0.000401306
0.00380516
-0.000475899
0.00384525
-0.00055202
0.00389203
-0.000629744
0.00394551
-0.000709166
0.00400536
-0.000790379
0.00407121
-0.000873475
0.00414277
-0.000958545
0.00421977
-0.00104567
0.004302
-0.00113495
0.00438928
-0.00122647
0.00448149
-0.00132034
0.00457857
-0.00141669
0.0046806
-0.00151577
0.00478781
-0.00161794
0.00490055
-0.00172313
0.00501949
0.0051453
-0.00182983
5.92935e-06
0.000851869
4.11497e-06
0.00207133
-1.52307e-05
0.00288814
-5.24712e-05
0.00336866
-0.000103625
0.00361996
-0.000163747
0.0037402
-0.000229003
0.00379961
-0.000297162
0.00383841
-0.000367223
0.00387523
-0.000438863
0.00391689
-0.00051205
0.00396522
-0.000586845
0.00402031
-0.000663333
0.00408185
-0.000741602
0.00414948
-0.000821738
0.00422291
-0.000903825
0.00430186
-0.000987948
0.00438612
-0.00107419
0.00447553
-0.00116265
0.00456996
-0.00125346
0.00466937
-0.00134675
0.00477389
-0.00144279
0.00488385
-0.00154182
0.00499959
-0.00164364
0.00512131
0.00524855
-0.0017469
7.94183e-06
0.000843927
1.04081e-05
0.00206887
-3.27763e-06
0.00290183
-3.56626e-05
0.00340104
-8.2299e-05
0.00366659
-0.000138521
0.00379642
-0.000200324
0.00386141
-0.000265289
0.00390338
-0.000332285
0.00394222
-0.000400917
0.00398552
-0.000471115
0.00403542
-0.000542927
0.00409212
-0.000616427
0.00415535
-0.000691697
0.00422475
-0.000768816
0.00430003
-0.000847866
0.00438091
-0.000928927
0.00446718
-0.00101208
0.00455868
-0.00109744
0.00465531
-0.00118513
0.00475706
-0.00127531
0.00486408
-0.00136821
0.00497675
-0.00146399
0.00509537
-0.00156236
0.00521968
0.00534842
-0.00166222
9.91537e-06
0.000834012
1.67793e-05
0.002062
8.38013e-06
0.00291023
-1.85798e-05
0.003428
-6.05038e-05
0.00370852
-0.000112695
0.00384861
-0.000170939
0.00391966
-0.000232634
0.00396507
-0.000296504
0.00400609
-0.000362072
0.00405109
-0.000429231
0.00410257
-0.000498007
0.00416089
-0.000568467
0.00422581
-0.000640685
0.00429697
-0.000714734
0.00437408
-0.000790693
0.00445687
-0.000868638
0.00454513
-0.000948656
0.0046387
-0.00103085
0.00473751
-0.00111537
0.00484157
-0.00120237
0.00495108
-0.00129204
0.00506642
-0.00138444
0.00518777
-0.00147924
0.00531449
0.00544482
-0.00157564
1.18448e-05
0.000822167
2.31497e-05
0.0020507
2.01827e-05
0.00291319
-8.96108e-07
0.00344908
-3.82687e-05
0.00374589
-8.6288e-05
0.00389663
-0.000140863
0.00397423
-0.000199209
0.00402342
-0.000259892
0.00406677
-0.000322344
0.00411354
-0.000386413
0.00416664
-0.000452104
0.00422659
-0.000519474
0.00429318
-0.000588588
0.00436608
-0.000659517
0.00444501
-0.000732332
0.00452968
-0.000807108
0.0046199
-0.000883934
0.00471553
-0.000962917
0.00481649
-0.0010442
0.00492285
-0.00112794
0.00503483
-0.00121427
0.00515275
-0.00130319
0.00527669
-0.00139435
0.00540564
0.00553763
-0.00148716
1.37203e-05
0.000808447
2.94953e-05
0.00203492
3.20945e-05
0.0029106
1.63622e-05
0.00346481
-1.56724e-05
0.00377792
-5.93181e-05
0.00394027
-0.000110112
0.00402503
-0.000165026
0.00407833
-0.000222461
0.00412421
-0.000281746
0.00417283
-0.000342677
0.00422757
-0.000405237
0.00428915
-0.000469468
0.00435741
-0.000535431
0.00443205
-0.000603189
0.00451276
-0.00067281
0.0045993
-0.000744367
0.00469146
-0.000817947
0.00478911
-0.000893659
0.0048922
-0.000971641
0.00500083
-0.00105204
0.00511522
-0.00113494
0.00523565
-0.00122028
0.00536202
-0.00130774
0.0054931
0.00562679
-0.00139689
1.55512e-05
0.000792896
3.5785e-05
0.00201469
4.40607e-05
0.00290232
3.41143e-05
0.00347476
7.35472e-06
0.00380468
-3.18164e-05
0.00397945
-7.87041e-05
0.00407191
-0.0001301
0.00412973
-0.000184225
0.00417833
-0.000240293
0.0042289
-0.000298041
0.00428532
-0.000357424
0.00434853
-0.000418472
0.00441846
-0.000481237
0.00449481
-0.000545776
0.0045773
-0.000612154
0.00466568
-0.000680441
0.00475975
-0.000750722
0.00485939
-0.000823106
0.00496459
-0.000897722
0.00507545
-0.000974693
0.0051922
-0.00105407
0.00531503
-0.00113575
0.0054437
-0.00121945
0.00557681
0.00571224
-0.00130491
1.73274e-05
0.000775568
4.19895e-05
0.00199003
5.6036e-05
0.00288827
5.20364e-05
0.00347876
3.06498e-05
0.00382607
-3.8056e-06
0.0040139
-4.66584e-05
0.00411477
-9.44476e-05
0.00417752
-0.000145199
0.00422908
-0.000198001
0.0042817
-0.000252522
0.00433984
-0.000308686
0.00440469
-0.000366508
0.00447628
-0.00042603
0.00455433
-0.000487306
0.00463858
-0.000550393
0.00472877
-0.00061536
0.00482471
-0.00068229
0.00492632
-0.000751287
0.00503358
-0.000822469
0.00514663
-0.000895937
0.00526566
-0.000971706
0.0053908
-0.00104966
0.00552165
-0.00112956
0.00565671
0.00579394
-0.00121126
1.90333e-05
0.000756535
4.80771e-05
0.00196098
6.79653e-05
0.00286838
7.00721e-05
0.00347665
5.42964e-05
0.00384185
2.46832e-05
0.00404351
-1.40029e-05
0.00415345
-5.80865e-05
0.0042216
-0.0001054
0.0042764
-0.000154886
0.00433118
-0.000206139
0.0043911
-0.000259043
0.0044576
-0.000313598
0.00453083
-0.000369836
0.00461057
-0.000427804
0.00469655
-0.000487555
0.00478852
-0.000549155
0.00488631
-0.000612682
0.00498985
-0.000678234
0.00509914
-0.000745916
0.00521431
-0.000815807
0.00533555
-0.000887897
0.00546289
-0.00096206
0.00559582
-0.00103813
0.00573278
0.00587184
-0.00111602
2.06555e-05
0.00073588
5.4015e-05
0.00192762
7.97954e-05
0.0028426
8.81687e-05
0.00346828
7.8201e-05
0.00385181
5.36234e-05
0.00406809
1.92508e-05
0.00418783
-2.10434e-05
0.0042619
-6.48456e-05
0.0043202
-0.000110968
0.00437731
-0.000158911
0.00443904
-0.000208518
0.00450721
-0.000259768
0.00458208
-0.000312682
0.00466349
-0.0003673
0.00475116
-0.000423672
0.00484489
-0.000481857
0.0049445
-0.000541931
0.00504992
-0.000603982
0.00516119
-0.000668102
0.00527843
-0.000734349
0.0054018
-0.000802694
0.00553123
-0.000873021
0.00566614
-0.000945206
0.00580496
0.00594588
-0.00101925
2.2182e-05
0.000713698
5.97665e-05
0.00189004
9.1472e-05
0.0028109
0.000106263
0.00345349
0.000102307
0.00385577
8.29641e-05
0.00408744
5.3062e-05
0.00421773
1.66706e-05
0.00429829
-2.35629e-05
0.00436043
-6.62661e-05
0.00442001
-0.000110859
0.00448363
-0.000157132
0.00455348
-0.000205041
0.00462999
-0.000254593
0.00471304
-0.000305823
0.00480239
-0.000358773
0.00489784
-0.0004135
0.00499923
-0.000470071
0.00510649
-0.000528567
0.00521968
-0.000589066
0.00533893
-0.000651608
0.00546434
-0.000716154
0.00559578
-0.000782598
0.00573259
-0.000850866
0.00587323
0.00601601
-0.000920998
2.36016e-05
0.000690096
6.52942e-05
0.00184835
0.000102938
0.00277325
0.000124288
0.00343214
0.000126554
0.0038535
0.000112653
0.00410134
8.73912e-05
0.00424299
5.50353e-05
0.00433064
1.84405e-05
0.00439703
-2.081e-05
0.00445926
-6.20066e-05
0.00452483
-0.000104908
0.00459638
-0.000149444
0.00467453
-0.000195599
0.00475919
-0.000243402
0.0048502
-0.000292892
0.00494733
-0.000344117
0.00505045
-0.00039714
0.00515951
-0.00045203
0.00527457
-0.000508852
0.00539576
-0.000567633
0.00552312
-0.000628329
0.00565647
-0.000690851
0.00579511
-0.000755163
0.00593754
0.00608219
-0.000821336
2.49044e-05
0.000665192
7.05647e-05
0.00180269
0.000114133
0.00272969
0.000142169
0.0034041
0.000150868
0.0038448
0.000142633
0.00410957
0.000122194
0.00426343
9.39967e-05
0.00435884
6.11492e-05
0.00442988
2.5405e-05
0.004495
-1.23936e-05
0.00456263
-5.18717e-05
0.00463586
-9.30065e-05
0.00471566
-0.000135729
0.00480192
-0.000180071
0.00489454
-0.000226062
0.00499332
-0.000273745
0.00509813
-0.000323174
0.00520894
-0.000374411
0.00532581
-0.000427506
0.00544885
-0.000482475
0.00557809
-0.000539276
0.00571328
-0.000597839
0.00585367
-0.000658158
0.00599786
0.00614435
-0.000720321
2.60812e-05
0.00063911
7.55429e-05
0.00175322
0.000124994
0.00268024
0.000159827
0.00336927
0.000175172
0.00382946
0.000172837
0.00411191
0.000157419
0.00427885
0.000133524
0.00438274
0.000104506
0.00445889
7.23449e-05
0.00452717
3.80112e-05
0.00459696
1.88306e-06
0.00467199
-3.57602e-05
0.00475331
-7.50122e-05
0.00484117
-0.000115861
0.00493539
-0.000158318
0.00503578
-0.000202421
0.00514224
-0.000248216
0.00525474
-0.000295753
0.00537335
-0.000345074
0.00549817
-0.000396186
0.00562921
-0.000449051
0.00576614
-0.00050362
0.00590824
-0.000559912
0.00605415
0.00620245
-0.000618013
2.71234e-05
0.000611987
8.01937e-05
0.00170015
0.000135452
0.00262498
0.000177176
0.00332755
0.000199377
0.00380726
0.000203185
0.0041081
0.000193007
0.00428903
0.000173573
0.00440217
0.000148489
0.00448398
0.000119966
0.00455569
8.91449e-05
0.00462778
5.65349e-05
0.0047046
2.2289e-05
0.00478755
-1.34965e-05
0.00487695
-5.08089e-05
0.0049727
-8.96969e-05
0.00507466
-0.000130183
0.00518272
-0.000172304
0.00529686
-0.000216102
0.00541714
-0.000261606
0.00554368
-0.000308819
0.00567642
-0.000357708
0.00581503
-0.00040825
0.00595879
-0.000460486
0.00610639
0.00625644
-0.000514472
2.80233e-05
0.000583964
8.44817e-05
0.0016437
0.000145438
0.00256402
0.000194121
0.00327886
0.000223382
0.003778
0.000233592
0.00409789
0.000228888
0.00429373
0.000214094
0.00441697
0.000193059
0.00450501
0.000168245
0.0045805
0.000140972
0.00465505
0.000111846
0.00473372
8.11072e-05
0.00481829
4.88372e-05
0.00490922
1.50487e-05
0.00500649
-2.02453e-05
0.00510996
-5.7075e-05
0.00521955
-9.54852e-05
0.00533527
-0.000135504
0.00545716
-0.00017715
0.00558532
-0.000220427
0.0057197
-0.000265302
0.0058599
-0.000311781
0.00600526
-0.000359943
0.00615455
0.00630626
-0.000409763
2.87741e-05
0.00055519
8.83721e-05