/*--------------------------------*- C++ -*----------------------------------*\
  =========                 |
  \\      /  F ield         | OpenFOAM: The Open Source CFD Toolbox
   \\    /   O peration     | Website:  https://openfoam.org
    \\  /    A nd           | Version:  7
     \\/     M anipulation  |
\*---------------------------------------------------------------------------*/
FoamFile
{
    version     2.0;
    format      ascii;
    class       volVectorField;
    location    "100";
    object      U;
}
// * * * * * * * * * * * * * * * * * * * * * * * * * * * * * * * * * * * * * //

dimensions      [0 1 -1 0 0 0 0];

internalField   nonuniform List<vector> 
3500
(
(-0.0606309 0.028047 6.44845e-20)
(-0.0894334 0.0306169 1.12435e-20)
(-0.11521 0.0325938 2.18755e-20)
(-0.137766 0.0346703 -1.26605e-20)
(-0.15688 0.0365917 -2.35355e-20)
(-0.171608 0.0371983 2.29028e-20)
(-0.184872 0.0375625 2.2547e-20)
(-0.189505 0.0328065 1.76392e-20)
(-0.00878404 0.0212678 -8.18915e-20)
(-0.0303011 0.0398498 5.41396e-20)
(-0.0591493 0.0468616 -7.36393e-20)
(-0.0849777 0.0489724 3.94596e-21)
(-0.107196 0.0495168 -5.25411e-20)
(-0.125603 0.0498421 6.49582e-21)
(-0.140452 0.0500211 3.38967e-20)
(-0.148677 0.0471903 -1.49941e-19)
(-0.158107 0.0479729 3.73162e-20)
(-0.153633 0.0359672 6.80903e-23)
(-0.0108942 0.0291837 1.52455e-19)
(-0.0320001 0.0543771 -1.35117e-20)
(-0.057145 0.0632518 1.02337e-19)
(-0.0779194 0.0650134 -9.54621e-21)
(-0.0938896 0.0642306 -1.12021e-19)
(-0.104532 0.0628197 8.28691e-20)
(-0.112017 0.0619672 -3.57565e-20)
(-0.106385 0.0552234 3.60478e-20)
(-0.109538 0.0586909 -1.11459e-19)
(-0.0853801 0.0370207 1.61081e-19)
(-0.0136596 0.0350166 1.78691e-20)
(-0.0344786 0.0655736 -2.42127e-19)
(-0.0548591 0.0761006 -1.43873e-19)
(-0.068745 0.0775407 7.56514e-20)
(-0.0760749 0.0755037 9.02347e-20)
(-0.0749771 0.0723617 -1.5017e-19)
(-0.072435 0.0706041 6.45519e-20)
(-0.0440838 0.0609136 4.32708e-20)
(-0.0386091 0.0664828 1.77196e-19)
(0.0197785 0.0396114 -2.33355e-19)
(-0.0168549 0.0386001 -7.66969e-20)
(-0.0376211 0.0728351 1.19106e-19)
(-0.0525089 0.0844876 3.4812e-19)
(-0.057874 0.0854459 -1.73632e-19)
(-0.0543706 0.0820636 1.6126e-19)
(-0.0377503 0.0778665 2.726e-19)
(-0.021257 0.0728086 -7.67631e-21)
(0.0382984 0.0635094 7.901e-21)
(0.053095 0.0677249 -2.59444e-19)
(0.172143 0.0469262 1.27787e-19)
(-0.0203236 0.0400907 -1.81247e-19)
(-0.0412385 0.0759389 1.0713e-19)
(-0.050052 0.087814 -4.84997e-19)
(-0.045232 0.0879164 2.36002e-19)
(-0.0278668 0.0829364 3.31571e-20)
(0.00783629 0.0783674 -3.06241e-19)
(0.0441513 0.067424 -9.09618e-20)
(0.148897 0.0647061 9.19104e-20)
(0.166457 0.0584664 1.77616e-19)
(0.382144 0.0529383 -9.96848e-20)
(-0.0240086 0.0398927 -1.96914e-20)
(-0.0449474 0.0750322 -3.36558e-19)
(-0.0467612 0.0859299 3.31945e-19)
(-0.0294158 0.0845604 -2.38265e-19)
(0.00639439 0.077883 5.91164e-20)
(0.0679166 0.073647 1.99185e-19)
(0.134887 0.0568387 -3.6493e-19)
(0.29277 0.066182 -1.55526e-19)
(0.324718 0.0469962 1.34043e-19)
(0.638954 0.0580026 8.13149e-20)
(-0.0279262 0.0385246 1.9815e-19)
(-0.048021 0.0706207 5.80208e-19)
(-0.0407132 0.0791748 -5.59006e-19)
(-0.00642695 0.0757988 1.36518e-19)
(0.0557843 0.0680261 3.41269e-19)
(0.153359 0.0651517 -1.73568e-19)
(0.271133 0.0502361 -5.56854e-20)
(0.469707 0.0657078 -2.10946e-19)
(0.556573 0.0507477 2.5136e-19)
(0.896709 0.0734643 -1.83096e-19)
(-0.0320044 0.0364234 -3.62984e-19)
(-0.0491603 0.0633789 1.00186e-19)
(-0.0282748 0.0684358 2.08842e-19)
(0.031098 0.0632697 -1.03682e-19)
(0.132636 0.0566967 -3.50114e-19)
(0.279618 0.0567218 4.15142e-19)
(0.461183 0.0576665 2.65738e-19)
(0.675924 0.0696556 2.42914e-19)
(0.835721 0.0760842 -2.00108e-19)
(1.10114 0.0964506 1.54231e-19)
(-0.0359009 0.0337943 -8.9826e-20)
(-0.0461885 0.0539533 -2.92549e-19)
(-0.0038281 0.0551532 -1.7322e-19)
(0.0937583 0.0500939 2.03197e-19)
(0.250441 0.0497674 3.89363e-20)
(0.456463 0.0583695 -2.44888e-19)
(0.684209 0.0780323 2.87313e-19)
(0.896035 0.0897649 -4.06592e-19)
(1.0715 0.114122 -2.3036e-19)
(1.21525 0.113229 8.2644e-20)
(-0.0389027 0.0306166 2.19725e-19)
(-0.0359514 0.0428813 3.08044e-19)
(0.0400248 0.0413226 1.27841e-19)
(0.192948 0.0411795 1.77941e-19)
(0.415042 0.0540701 -1.02994e-19)
(0.668306 0.0781803 -2.64442e-19)
(0.900802 0.107319 1.06391e-19)
(1.08265 0.123077 1.31621e-19)
(1.202 0.144166 4.42278e-19)
(1.24724 0.114309 -2.62461e-19)
(-0.0399537 0.0267274 3.27031e-19)
(-0.014354 0.0305971 -3.99036e-20)
(0.111553 0.0299772 2.94671e-19)
(0.334956 0.0430483 -1.30807e-19)
(0.613177 0.0744275 4.0014e-19)
(0.874847 0.111425 1.59224e-19)
(1.07114 0.140443 1.97926e-19)
(1.19376 0.153653 -3.24905e-19)
(1.246 0.154868 -1.33774e-19)
(1.27036 0.138271 1.28707e-19)
(-0.0376758 0.0218583 2.32873e-20)
(0.0234998 0.0178176 -2.88125e-19)
(0.217791 0.0260555 -2.73387e-19)
(0.512189 0.0608169 -6.89782e-20)
(0.811269 0.108342 -1.08778e-19)
(1.03849 0.147687 1.19376e-19)
(1.17589 0.169298 -4.94564e-19)
(1.24015 0.171502 3.32457e-19)
(1.26321 0.168602 -2.4938e-21)
(1.26692 0.147798 -3.95728e-19)
(-0.0303144 0.0158234 -4.66186e-19)
(0.0830446 0.00657921 -9.50524e-20)
(0.359559 0.0355859 -1.01052e-20)
(0.699851 0.0934811 2.9315e-20)
(0.976121 0.147028 1.54031e-19)
(1.14626 0.179592 -4.81497e-19)
(1.22817 0.189861 4.72679e-19)
(1.2582 0.186857 -1.04156e-19)
(1.26093 0.176257 6.19257e-20)
(1.25486 0.157709 1.01931e-19)
(-0.0157417 0.00878112 1.24628e-20)
(0.168895 0.00155484 3.82252e-19)
(0.524951 0.0615241 9.70588e-20)
(0.869007 0.134243 -5.21135e-20)
(1.09485 0.18359 -4.3695e-20)
(1.20836 0.20523 2.80471e-19)
(1.25111 0.206975 -1.22651e-21)
(1.25835 0.198168 2.06018e-19)
(1.25221 0.184698 -6.42582e-20)
(1.24538 0.167988 -2.91054e-21)
(0.0088551 0.00155209 7.61558e-20)
(0.281602 0.00950964 -1.3862e-19)
(0.691415 0.100752 1.09156e-19)
(1.00372 0.176702 1.44133e-19)
(1.17228 0.216055 -9.45446e-20)
(1.24004 0.226974 -1.54242e-20)
(1.25575 0.221214 -2.74443e-19)
(1.25131 0.209098 -1.80505e-19)
(1.24161 0.192838 2.20969e-19)
(1.23118 0.176937 -1.39263e-19)
(0.0463507 -0.00359819 9.85158e-20)
(0.414141 0.0351368 1.75632e-19)
(0.839314 0.14749 1.23345e-19)
(1.10205 0.217991 -1.8627e-19)
(1.21811 0.245122 2.2011e-19)
(1.25163 0.245978 -1.16944e-19)
(1.25107 0.234719 -2.93578e-20)
(1.24032 0.219372 -1.0582e-20)
(1.22841 0.201281 -6.25786e-20)
(1.21846 0.186559 2.00279e-20)
(0.0980493 -0.00306282 2.49623e-19)
(0.552806 0.0773279 -1.38788e-19)
(0.95989 0.197557 8.68501e-20)
(1.16836 0.257238 1.01496e-19)
(1.2409 0.271511 -7.25266e-20)
(1.25091 0.263708 1.10062e-19)
(1.24064 0.247717 4.01926e-20)
(1.22691 0.229747 5.35748e-20)
(1.21489 0.210197 3.42239e-20)
(1.20373 0.195265 5.47041e-20)
(0.162649 0.00673848 -9.19043e-20)
(0.683219 0.13131 -1.34852e-19)
(1.0519 0.248689 -1.05659e-19)
(1.2085 0.294166 -1.00258e-19)
(1.2474 0.296027 -4.41835e-20)
(1.24205 0.280693 4.85848e-20)
(1.22672 0.26071 -2.39913e-20)
(1.2119 0.240099 -1.7343e-22)
(1.19958 0.219065 -2.21733e-20)
(1.1888 0.203601 4.06885e-21)
(0.236175 0.0278053 2.4593e-20)
(0.79539 0.192277 -5.35146e-21)
(1.11709 0.299523 2.38465e-20)
(1.22796 0.328914 1.86679e-20)
(1.24221 0.319152 1.40121e-20)
(1.22769 0.297309 -3.76272e-20)
(1.21001 0.273539 1.74549e-20)
(1.19502 0.250289 -1.70679e-20)
(1.18339 0.227757 -5.46289e-21)
(1.17288 0.210958 -8.91651e-21)
(0.31297 0.0600392 1.26937e-21)
(0.884884 0.256591 -7.55143e-22)
(1.15815 0.349043 -5.18442e-21)
(1.23117 0.361644 6.22112e-20)
(1.22843 0.341166 -1.69025e-20)
(1.20901 0.313452 -1.59519e-20)
(1.19081 0.286034 2.08947e-21)
(1.17648 0.26004 -1.75353e-21)
(1.16554 0.23571 -6.407e-21)
(1.15596 0.217366 -1.34348e-20)
(0.386922 0.101786 -1.0575e-19)
(0.950845 0.321704 2.00611e-20)
(1.17812 0.396406 -1.70992e-19)
(1.22142 0.392291 -6.00289e-20)
(1.20791 0.362009 -1.8379e-20)
(1.18665 0.328874 -2.363e-21)
(1.16917 0.297811 -1.23023e-20)
(1.15606 0.269012 -6.81417e-21)
(1.14638 0.242819 6.1917e-21)
(1.13749 0.222657 9.23865e-21)
(0.452472 0.15072 1.82442e-19)
(0.993747 0.385555 -9.3266e-20)
(1.17984 0.440698 1.29953e-19)
(1.20107 0.420582 5.19901e-20)
(1.18179 0.38139 -1.83849e-20)
(1.16091 0.343115 6.14184e-20)
(1.14515 0.308425 -1.54393e-20)
(1.13393 0.276893 1.80371e-20)
(1.1256 0.249017 3.43388e-21)
(1.11738 0.226794 6.83446e-21)
(0.505359 0.204248 -1.11772e-19)
(1.01492 0.446365 4.24166e-19)
(1.16585 0.48107 -7.82619e-20)
(1.17183 0.446062 -4.39905e-20)
(1.15082 0.398774 9.31652e-20)
(1.13208 0.355633 -3.89157e-20)
(1.1189 0.317391 -1.38227e-20)
(1.11005 0.283337 -8.797e-21)
(1.10318 0.254214 -1.04722e-21)
(1.09639 0.229708 -1.00178e-20)
(0.542919 0.259596 -2.02892e-19)
(1.01609 0.502486 -2.27026e-19)
(1.13819 0.51659 1.3924e-19)
(1.13509 0.468063 3.83941e-20)
(1.11569 0.413481 -4.66451e-20)
(1.10054 0.365872 -8.2679e-21)
(1.09064 0.324332 1.94023e-20)
(1.08436 0.28812 4.81131e-21)
(1.07916 0.257787 -1.79135e-20)
(1.07478 0.231244 -3.00935e-21)
(0.564048 0.313869 7.04464e-20)
(0.999178 0.552352 2.93122e-19)
(1.09865 0.546218 -5.8339e-20)
(1.09227 0.485754 4.71147e-21)
(1.07704 0.424782 -3.87383e-21)
(1.06646 0.37323 4.75417e-21)
(1.06041 0.328943 1.65455e-20)
(1.05698 0.290895 -9.81212e-21)
(1.05408 0.259467 1.78732e-20)
(1.05258 0.231311 -1.85163e-20)
(0.568975 0.364286 -5.2078e-19)
(0.965952 0.594328 2.82873e-20)
(1.04931 0.56895 -1.09358e-19)
(1.04445 0.498093 1.68712e-20)
(1.03523 0.432033 -2.90679e-21)
(1.03009 0.377186 5.35511e-20)
(1.02852 0.330734 -4.5191e-20)
(1.02844 0.29134 2.68941e-20)
(1.02851 0.258964 -2.57865e-20)
(1.03053 0.229853 -8.67352e-20)
(0.558781 0.408561 2.63623e-19)
(0.917976 0.626315 -2.4901e-19)
(0.992474 0.58392 -1.79049e-20)
(0.99259 0.504285 -7.80614e-21)
(0.99086 0.434453 8.66421e-20)
(0.991972 0.3772 -5.97038e-21)
(0.995364 0.329289 6.88895e-20)
(0.999286 0.28905 7.98065e-21)
(1.00332 0.256098 5.349e-21)
(1.00947 0.22696 1.21924e-19)
(0.534589 0.444987 1.47884e-19)
(0.857773 0.646745 -2.1821e-20)
(0.930157 0.589865 -6.27463e-21)
(0.937787 0.503883 6.99568e-20)
(0.944658 0.431506 -2.84604e-20)
(0.952595 0.372777 -1.0613e-19)
(0.961445 0.324076 -6.8581e-20)
(0.970133 0.283435 6.98479e-21)
(0.979199 0.25034 9.51774e-20)
(0.989764 0.222979 -7.77182e-20)
(0.497607 0.470977 -5.90311e-21)
(0.789369 0.655254 -2.43778e-20)
(0.864216 0.585875 -9.78302e-20)
(0.881186 0.496317 5.51269e-21)
(0.897423 0.42276 1.47407e-19)
(0.912602 0.363571 -4.71347e-20)
(0.92731 0.314761 1.7674e-19)
(0.941386 0.273925 -2.44212e-19)
(0.956052 0.24042 -1.65206e-19)
(0.970244 0.216713 -3.53036e-20)
(0.450219 0.483327 2.79346e-20)
(0.715312 0.650321 5.22345e-20)
(0.796198 0.571838 3.25457e-20)
(0.823982 0.481146 -5.24998e-20)
(0.850038 0.407931 -2.23437e-19)
(0.872724 0.349398 2.11777e-19)
(0.893611 0.301364 8.20202e-20)
(0.913273 0.260937 1.06522e-19)
(0.933202 0.225898 3.0449e-19)
(0.948239 0.199518 -7.38695e-20)
(0.396571 0.481661 1.2824e-19)
(0.638601 0.631506 -2.27096e-20)
(0.727988 0.547561 -5.78047e-20)
(0.767439 0.458112 1.10991e-19)
(0.803471 0.386828 1.99052e-19)
(0.833804 0.330113 -4.71803e-19)
(0.861062 0.283867 -7.37682e-20)
(0.886019 0.245456 -1.91875e-19)
(0.90906 0.213016 3.89389e-20)
(0.923629 0.188024 -1.39626e-19)
(0.339834 0.465602 -2.6123e-19)
(0.561901 0.598475 -1.19604e-19)
(0.661383 0.513108 3.96839e-19)
(0.712847 0.427217 -2.27928e-19)
(0.758722 0.359459 -3.28638e-19)
(0.796639 0.305668 3.08444e-19)
(0.830223 0.261778 -2.83583e-19)
(0.86032 0.225078 1.40764e-19)
(0.88671 0.19398 -1.75149e-19)
(0.903428 0.170264 2.77227e-19)
(0.283145 0.43558 -1.07736e-19)
(0.488013 0.551603 5.89298e-19)
(0.598192 0.46875 -6.15055e-19)
(0.661501 0.388682 2.55847e-20)
(0.716804 0.326072 2.01125e-19)
(0.761931 0.276572 -1.26275e-20)
(0.801254 0.236437 4.33656e-19)
(0.835527 0.203103 -3.78233e-19)
(0.864673 0.174845 2.75574e-19)
(0.884521 0.152649 -1.86404e-19)
(0.229329 0.392619 -1.76477e-19)
(0.419452 0.491625 9.66039e-20)
(0.540144 0.415002 2.65569e-19)
(0.614669 0.342905 3.05468e-19)
(0.67876 0.286881 -7.01343e-20)
(0.730639 0.242634 2.89741e-19)
(0.775303 0.206767 2.45391e-20)
(0.813415 0.177027 3.12233e-20)
(0.845264 0.152012 -1.1126e-19)
(0.868186 0.132476 -6.04131e-21)
(0.180795 0.338293 5.32762e-19)
(0.358479 0.419742 -3.69923e-19)
(0.488898 0.352651 -4.94345e-19)
(0.573514 0.290598 2.78138e-20)
(0.645394 0.242634 -1.45454e-19)
(0.703172 0.204865 1.21487e-19)
(0.752389 0.174332 -4.4392e-19)
(0.793774 0.149015 1.30887e-19)
(0.828228 0.127621 3.7257e-19)
(0.854273 0.110736 -1.80266e-19)
(0.139425 0.274289 7.27365e-20)
(0.307117 0.337712 4.60447e-19)
(0.446042 0.282769 3.32497e-19)
(0.539183 0.232551 -3.11056e-19)
(0.61766 0.193825 1.93943e-19)
(0.680409 0.163366 -8.78846e-20)
(0.733401 0.138791 -5.7237e-20)
(0.777472 0.118467 -2.72388e-20)
(0.814174 0.101292 -1.15262e-19)
(0.843015 0.0876098 2.12845e-19)
(0.106773 0.202248 -3.57398e-19)
(0.267029 0.247574 -4.16598e-19)
(0.412786 0.206815 -6.72361e-21)
(0.512558 0.169882 2.96638e-19)
(0.59617 0.141442 -5.44764e-20)
(0.662773 0.119095 -5.87659e-20)
(0.718662 0.101078 8.54138e-20)
(0.764803 0.0861755 -4.61809e-20)
(0.803323 0.07355 -3.68024e-20)
(0.834492 0.0634091 3.82902e-20)
(0.0841842 0.124208 5.19651e-20)
(0.239526 0.151503 -6.83667e-20)
(0.390065 0.1264 2.95033e-19)
(0.494376 0.103773 -7.2346e-20)
(0.581506 0.0863571 1.36426e-19)
(0.650741 0.0726786 -3.66524e-20)
(0.708593 0.0616585 -5.71491e-20)
(0.756137 0.0525451 9.14957e-20)
(0.795927 0.0448028 1.27503e-20)
(0.828775 0.0385368 -3.29363e-20)
(0.48512 0.0355667 -6.85332e-20)
(0.574037 0.0296363 3.14329e-20)
(0.644609 0.0249722 -1.66495e-20)
(0.703454 0.0212107 1.98412e-20)
(0.751706 0.018095 -2.60491e-20)
(0.79215 0.0154398 -1.58697e-20)
(0.825887 0.0132784 5.39096e-24)
(-0.192211 0.029876 -5.1802e-20)
(-0.195772 0.0260294 3.71882e-20)
(-0.198812 0.0211141 5.59613e-22)
(-0.201484 0.0152248 -6.42713e-21)
(-0.203858 0.0083496 -1.29128e-20)
(-0.205929 0.000503519 -1.48908e-20)
(-0.207756 -0.00826278 -2.55147e-20)
(-0.209396 -0.0178456 4.53541e-20)
(-0.210837 -0.0281562 -2.57256e-20)
(-0.212076 -0.0390831 5.2727e-20)
(-0.213113 -0.0504959 -3.31976e-20)
(-0.213948 -0.0622462 -4.77757e-21)
(-0.214581 -0.0741703 -1.16409e-20)
(-0.215012 -0.0860908 3.01513e-20)
(-0.215241 -0.0978203 -1.98164e-20)
(-0.215273 -0.109165 2.00669e-20)
(-0.21511 -0.119926 -1.39538e-20)
(-0.214756 -0.129905 -1.164e-20)
(-0.214212 -0.138901 7.49912e-21)
(-0.213478 -0.146717 -4.92078e-21)
(-0.212553 -0.153156 1.83331e-20)
(-0.211435 -0.158037 -8.34916e-21)
(-0.210119 -0.161193 -1.22827e-20)
(-0.208593 -0.162475 7.60897e-21)
(-0.206842 -0.161755 -1.03109e-20)
(-0.204841 -0.158926 1.21295e-20)
(-0.202566 -0.153914 3.38561e-21)
(-0.199995 -0.146671 -9.75292e-21)
(-0.197104 -0.137171 1.75698e-20)
(-0.151473 0.0359568 5.23714e-21)
(-0.154523 0.0318314 4.54457e-20)
(-0.156875 0.0264598 -7.19299e-20)
(-0.158938 0.020174 1.10548e-19)
(-0.160846 0.0129533 -9.14356e-20)
(-0.162607 0.00481709 -3.1561e-21)
(-0.164208 -0.00422452 1.20366e-19)
(-0.165659 -0.0140825 -3.92208e-20)
(-0.167022 -0.0246778 1.4617e-20)
(-0.168302 -0.0359029 -4.75841e-20)
(-0.169505 -0.0476299 -5.54677e-20)
(-0.17064 -0.0597117 3.0074e-20)
(-0.171715 -0.0719834 -3.81969e-20)
(-0.172738 -0.0842654 7.68128e-20)
(-0.17372 -0.096367 -2.39243e-20)
(-0.174672 -0.108091 2.46828e-20)
(-0.175605 -0.119238 -1.26803e-20)
(-0.176523 -0.129605 -2.82504e-20)
(-0.17742 -0.138984 3.17054e-20)
(-0.178289 -0.14718 -1.0207e-20)
(-0.179124 -0.153997 -4.40434e-20)
(-0.179925 -0.159261 4.13111e-20)
(-0.180683 -0.162812 -2.57838e-20)
(-0.181382 -0.164509 -5.33358e-21)
(-0.182 -0.164232 1.02779e-20)
(-0.182506 -0.161884 2.80136e-20)
(-0.182864 -0.157394 -7.45429e-21)
(-0.183033 -0.150714 4.97037e-20)
(-0.182967 -0.141822 -9.90494e-22)
(-0.0766019 0.040135 -1.4415e-19)
(-0.0784771 0.0363796 5.81398e-20)
(-0.0792699 0.0310224 -1.5607e-19)
(-0.0799147 0.0246707 2.85515e-19)
(-0.0806344 0.0173798 -1.93623e-19)
(-0.0813798 0.00919694 2.37168e-19)
(-0.0821327 0.00016647 -2.37198e-19)
(-0.0828859 -0.00969225 1.07408e-19)
(-0.0836777 -0.0203024 -2.42229e-20)
(-0.0845262 -0.0315658 1.30449e-19)
(-0.0854509 -0.0433597 -6.14523e-20)
(-0.0864713 -0.05554 -7.71552e-20)
(-0.0876063 -0.0679434 -1.46192e-19)
(-0.0888754 -0.0803903 1.50763e-19)
(-0.0903008 -0.0926873 -2.17592e-21)
(-0.0919066 -0.104635 -1.30732e-19)
(-0.0937053 -0.116038 3.19006e-20)
(-0.0956928 -0.12668 1.1174e-19)
(-0.0978638 -0.136287 -3.13093e-20)
(-0.100201 -0.144745 5.64239e-21)
(-0.102684 -0.151849 6.07667e-20)
(-0.105304 -0.157431 -5.90502e-20)
(-0.108041 -0.161339 8.94936e-20)
(-0.110864 -0.163439 -1.61949e-20)
(-0.113735 -0.163617 -1.13e-19)
(-0.116603 -0.161783 1.09448e-19)
(-0.119415 -0.157869 -4.03507e-20)
(-0.12211 -0.151831 3.54214e-20)
(-0.124619 -0.143651 -1.05101e-19)
(0.0346617 0.0401054 7.66746e-21)
(0.0339907 0.037272 -1.76803e-19)
(0.0347796 0.0328376 1.58181e-19)
(0.0358864 0.0270868 1.15848e-19)
(0.0367793 0.0202544 -7.77388e-20)
(0.037504 0.0124477 -1.56051e-19)
(0.0380598 0.00375098 6.04996e-21)
(0.0384486 -0.00577879 1.14382e-19)
(0.0386675 -0.0160639 -9.41894e-20)
(0.0386791 -0.027018 1.58408e-19)
(0.0384526 -0.0385222 -2.01772e-19)
(0.0379518 -0.0504359 1.91701e-19)
(0.0371408 -0.0626025 -4.37427e-20)
(0.0359862 -0.0748493 2.82793e-20)
(0.0344479 -0.0869925 4.9915e-20)
(0.0324735 -0.098841 -4.5332e-20)
(0.0300575 -0.110185 -1.75493e-19)
(0.0273165 -0.120781 7.27659e-20)
(0.0240975 -0.130447 1.29832e-19)
(0.0203398 -0.139011 -4.16368e-20)
(0.0162123 -0.146272 -5.58524e-20)
(0.0117145 -0.152078 -1.83984e-20)
(0.00688654 -0.156288 -5.68721e-21)
(0.00178519 -0.158773 -4.50775e-20)
(-0.00351972 -0.159425 1.22059e-19)
(-0.00894694 -0.158158 -3.79558e-21)
(-0.0144061 -0.154906 -3.73118e-20)
(-0.0197999 -0.149626 1.68024e-20)
(-0.0250265 -0.1423 -3.0408e-20)
(-0.0299814 -0.132934 -5.04731e-20)
(0.186943 0.0405757 6.87009e-20)
(0.188893 0.0362677 1.122e-20)
(0.18935 0.0317582 -3.49418e-19)
(0.190571 0.0266856 1.51468e-19)
(0.192105 0.0206478 -1.3104e-19)
(0.193667 0.0135729 3.07101e-20)
(0.195176 0.00556334 -5.69145e-20)
(0.196551 -0.00330987 1.29998e-19)
(0.197736 -0.0129836 -3.82088e-21)
(0.198668 -0.0233384 4.11168e-19)
(0.199285 -0.0342516 -6.96142e-20)
(0.199515 -0.0455823 -1.76753e-19)
(0.199284 -0.0571749 -2.84227e-20)
(0.198523 -0.0688606 -8.95627e-21)
(0.197165 -0.0804597 -6.64801e-20)
(0.195151 -0.0917782 -5.86262e-20)
(0.192458 -0.102601 5.45413e-21)
(0.189095 -0.112733 7.26665e-20)
(0.185019 -0.122063 9.20083e-20)
(0.180198 -0.130327 -1.05432e-19)
(0.174661 -0.137385 1.02271e-19)
(0.168443 -0.1431 -1.34931e-19)
(0.161595 -0.147346 4.29714e-20)
(0.154192 -0.150011 -1.50801e-20)
(0.146328 -0.151002 -9.6847e-20)
(0.138116 -0.15024 8.54821e-20)
(0.129689 -0.147665 2.10386e-20)
(0.12119 -0.143236 -4.80121e-20)
(0.112774 -0.13693 6.30415e-20)
(0.104602 -0.128742 2.65195e-20)
(0.384729 0.0451476 -1.46333e-20)
(0.386345 0.0390787 -8.60834e-20)
(0.386342 0.0334722 8.2848e-20)
(0.385932 0.0278531 2.0343e-19)
(0.385827 0.0215736 5.31666e-20)
(0.386251 0.0145604 -2.02938e-19)
(0.38704 0.00692238 3.59045e-20)
(0.387959 -0.00139423 2.66969e-19)
(0.388891 -0.0104771 -7.27395e-19)
(0.389775 -0.0202045 2.58057e-19)
(0.390463 -0.0304086 -2.18127e-19)
(0.39083 -0.0409713 3.98064e-19)
(0.390761 -0.0517748 1.14889e-19)
(0.390146 -0.0626702 -3.26504e-19)
(0.388888 -0.0734811 4.54985e-19)
(0.386898 -0.0840149 -1.01699e-19)
(0.384108 -0.0940717 -2.88181e-19)
(0.380462 -0.103466 -2.49658e-19)
(0.375905 -0.112041 3.27597e-19)
(0.370408 -0.119631 1.70481e-19)
(0.36396 -0.126096 -2.28892e-19)
(0.356573 -0.131317 2.15241e-19)
(0.348281 -0.135192 -3.15719e-19)
(0.339138 -0.137639 7.92638e-20)
(0.329226 -0.138595 -2.30348e-20)
(0.318653 -0.13801 1.11111e-19)
(0.307556 -0.135851 3.19724e-20)
(0.296097 -0.132097 -1.59032e-19)
(0.284463 -0.126734 -1.46826e-20)
(0.272858 -0.119759 9.06793e-20)
(0.624433 0.0506024 -1.28426e-19)
(0.620255 0.045062 1.39818e-20)
(0.61739 0.039886 2.31081e-19)
(0.613865 0.0339865 -2.61545e-19)
(0.610328 0.0269343 1.35014e-19)
(0.607702 0.0192891 1.26899e-19)
(0.605948 0.011393 1.12187e-19)
(0.604581 0.00303306 -3.3707e-19)
(0.603436 -0.0059169 -1.99849e-19)
(0.602556 -0.0154586 -3.82261e-20)
(0.601819 -0.0254199 6.02858e-19)
(0.600948 -0.0355751 8.34579e-21)
(0.599772 -0.0458081 -5.58765e-19)
(0.598173 -0.0560103 1.96307e-19)
(0.596038 -0.0660472 -1.36085e-20)
(0.593264 -0.0757686 1.15712e-19)
(0.589763 -0.0850077 6.1672e-20)
(0.585458 -0.0935907 -1.02974e-19)
(0.580276 -0.101354 2.37362e-19)
(0.57416 -0.108149 1.65081e-21)
(0.567076 -0.113851 -4.31788e-19)
(0.559009 -0.118353 2.06025e-19)
(0.549966 -0.121569 9.25724e-20)
(0.539971 -0.123439 -1.72715e-20)
(0.529066 -0.123924 -4.1673e-20)
(0.51732 -0.12301 4.2986e-20)
(0.504823 -0.120701 7.1079e-20)
(0.491698 -0.11702 -2.73513e-19)
(0.478098 -0.111996 2.15021e-19)
(0.464203 -0.105661 -1.24775e-19)
(0.450223 -0.0980458 -2.82499e-20)
(0.873106 0.0626667 1.29871e-19)
(0.863526 0.0568703 -3.22975e-19)
(0.856655 0.0520865 -1.50104e-21)
(0.849105 0.0456369 3.12592e-19)
(0.841609 0.0376061 -8.82923e-20)
(0.835503 0.0293684 -2.18662e-19)
(0.830504 0.0211744 3.79082e-20)
(0.826008 0.012653 8.20755e-20)
(0.821768 0.00368995 -1.00919e-19)
(0.817843 -0.00560161 1.60103e-19)
(0.814428 -0.0151289 8.70268e-20)
(0.811309 -0.0250205 7.35581e-20)
(0.8081 -0.034981 -1.97025e-19)
(0.804613 -0.0448479 6.89867e-20)
(0.80073 -0.0544866 5.1735e-21)
(0.796356 -0.0637811 -2.39204e-19)
(0.791415 -0.072591 3.16123e-19)
(0.785835 -0.0807507 -2.41821e-19)
(0.779538 -0.0881077 1.39281e-19)
(0.772456 -0.0945313 -1.48451e-19)
(0.764547 -0.0999037 9.64009e-20)
(0.755793 -0.10412 -6.86987e-20)
(0.746195 -0.107096 -8.15346e-21)
(0.735764 -0.10877 -1.20051e-19)
(0.724526 -0.109104 3.75099e-20)
(0.712523 -0.108087 1.64102e-19)
(0.69981 -0.105733 5.85114e-20)
(0.686461 -0.102086 -1.32278e-19)
(0.672574 -0.0972144 8.22839e-20)
(0.658271 -0.0911952 -5.29045e-20)
(0.643695 -0.0841081 6.53169e-20)
(0.629011 -0.0760277 -5.17719e-20)
(1.07847 0.0817262 5.09199e-21)
(1.06855 0.0757574 1.79853e-19)
(1.06024 0.0704876 1.60206e-19)
(1.05058 0.0624892 -4.54887e-19)
(1.04134 0.0533637 1.58056e-19)
(1.03377 0.0446081 1.81417e-19)
(1.02718 0.0358389 4.1577e-20)
(1.02098 0.0266345 1.25672e-19)
(1.01498 0.0170617 -2.90134e-19)
(1.00922 0.00734623 -1.63484e-19)
(1.0033 -0.00259534 3.30161e-19)
(0.997674 -0.0124435 -1.27777e-19)
(0.992407 -0.0222695 -3.09428e-19)
(0.987067 -0.0320508 4.06014e-19)
(0.981416 -0.0415019 -2.29799e-19)
(0.97534 -0.0505437 9.8013e-20)
(0.96881 -0.059043 2.25462e-19)
(0.961791 -0.0668242 -2.48749e-19)
(0.954212 -0.0737604 -2.87851e-19)
(0.946011 -0.079755 2.50526e-20)
(0.937158 -0.0847124 3.06785e-19)
(0.927652 -0.0885438 2.18419e-19)
(0.917507 -0.0911784 -2.18746e-19)
(0.906749 -0.0925669 -1.99605e-19)
(0.895416 -0.0926824 1.18442e-19)
(0.883559 -0.0915184 1.19224e-19)
(0.871228 -0.0890953 4.76749e-20)
(0.858468 -0.0854568 -9.82742e-20)
(0.845341 -0.0806567 9.66362e-20)
(0.831932 -0.0747676 -1.82711e-19)
(0.818343 -0.0678895 4.72507e-20)
(0.804684 -0.0601256 -4.69053e-20)
(1.20338 0.0988651 -2.98408e-19)
(1.1985 0.0947703 4.36382e-19)
(1.19269 0.0891663 -5.38322e-20)
(1.18506 0.0807558 -2.35582e-19)
(1.17806 0.0721446 3.53812e-19)
(1.17219 0.0638046 -4.5984e-19)
(1.16666 0.0550718 -1.47594e-19)
(1.1612 0.0458449 -1.29482e-19)
(1.15586 0.0363671 3.7097e-19)
(1.1506 0.0267426 -2.31037e-19)
(1.14527 0.0170675 3.12221e-19)
(1.13956 0.00733461 1.39418e-19)
(1.13342 -0.00259241 -1.92685e-19)
(1.12742 -0.0121973 -3.47907e-19)
(1.12126 -0.0215664 4.07572e-19)
(1.11456 -0.0308637 8.47757e-20)
(1.10737 -0.0397963 -8.73657e-20)
(1.09969 -0.0481094 -1.63742e-19)
(1.09148 -0.0556815 3.11798e-19)
(1.08268 -0.0624133 -3.63684e-19)
(1.0733 -0.0681933 3.70667e-19)
(1.06337 -0.0729189 -9.7085e-20)
(1.05293 -0.0765087 -2.4611e-19)
(1.04204 -0.0789044 -5.60877e-20)
(1.03075 -0.0800688 3.30624e-19)
(1.01915 -0.0799849 1.26346e-20)
(1.00732 -0.0786574 -1.4777e-19)
(0.995349 -0.0761056 1.8719e-20)
(0.983304 -0.0723656 -1.51057e-19)
(0.971244 -0.0675079 5.04537e-21)
(0.959235 -0.0616177 1.2183e-19)
(0.947365 -0.0547776 1.74174e-20)
(0.935724 -0.0470805 -7.97596e-20)
(1.2755 0.118894 0)
(1.27687 0.110269 0)
(1.27339 0.102098 0)
(1.26821 0.0938692 0)
(1.26349 0.0854604 0)
(1.25953 0.0767314 0)
(1.25593 0.0678162 0)
(1.25233 0.0588915 0)
(1.24855 0.0500071 0)
(1.24451 0.0411031 0)
(1.24013 0.0322033 0)
(1.23534 0.0232762 0)
(1.23004 0.0145995 0)
(1.22411 0.00617701 0)
(1.21745 -0.00209105 0)
(1.2103 -0.0099877 0)
(1.2029 -0.0173472 0)
(1.19517 -0.0241337 0)
(1.18698 -0.0303001 0)
(1.17832 -0.03577 0)
(1.16922 -0.0404686 0)
(1.15973 -0.044331 0)
(1.1499 -0.0473028 0)
(1.13982 -0.049343 0)
(1.12955 -0.0504248 0)
(1.11917 -0.0505363 0)
(1.10877 -0.0496816 0)
(1.09842 -0.0478798 0)
(1.0882 -0.0451661 0)
(1.0782 -0.0415894 1.12871e-27)
(1.06849 -0.0371987 -1.12869e-27)
(1.05914 -0.0320528 0)
(1.05022 -0.0262277 0)
(1.27423 0.120171 0)
(1.28197 0.110932 0)
(1.28414 0.102482 0)
(1.28321 0.0944445 0)
(1.28175 0.0863918 0)
(1.28072 0.0781542 0)
(1.27996 0.0697744 0)
(1.27901 0.0613222 0)
(1.27756 0.0528193 0)
(1.27547 0.0442662 0)
(1.27276 0.0356822 0)
(1.26943 0.0271277 0)
(1.26554 0.0186867 0)
(1.26117 0.0105126 0)
(1.25646 0.00274299 0)
(1.25149 -0.00446354 0)
(1.24598 -0.0111559 0)
(1.23982 -0.0173298 0)
(1.23313 -0.0229386 0)
(1.22598 -0.0279018 0)
(1.21846 -0.0321367 0)
(1.21064 -0.0355812 0)
(1.20258 -0.0381884 0)
(1.19436 -0.0399238 0)
(1.18606 -0.0407654 0)
(1.17777 -0.0407042 0)
(1.16956 -0.0397447 0)
(1.16153 -0.0379046 0)
(1.15375 -0.0352147 0)
(1.1463 -0.0317189 3.48805e-27)
(1.13926 -0.027473 -3.48805e-27)
(1.13269 -0.0225435 0)
(1.12666 -0.0170107 0)
(1.26353 0.116174 0)
(1.27241 0.107983 0)
(1.27613 0.0999197 0)
(1.27664 0.0921585 0)
(1.27635 0.0845752 0)
(1.27635 0.0770271 0)
(1.27664 0.0694548 0)
(1.2768 0.061867 0)
(1.27651 0.0543012 0)
(1.27566 0.0468025 0)
(1.27426 0.0394282 0)
(1.27239 0.032237 0)
(1.27006 0.0253039 0)
(1.26728 0.0186661 0)
(1.26402 0.0123599 0)
(1.26017 0.00631666 0)
(1.25574 0.000558045 0)
(1.25086 -0.00480165 0)
(1.24557 -0.00965347 0)
(1.23997 -0.0139274 0)
(1.2341 -0.017575 0)
(1.22799 -0.0205546 0)
(1.2217 -0.0228378 0)
(1.21531 -0.0244041 0)
(1.20888 -0.0252402 0)
(1.2025 -0.0253421 0)
(1.19624 -0.0247169 0)
(1.19019 -0.0233815 0)
(1.18442 -0.0213638 0)
(1.179 -0.0187014 1.11519e-27)
(1.17401 -0.0154406 -1.11519e-27)
(1.1695 -0.0116369 0)
(1.16553 -0.00735297 0)
(1.25076 0.111708 0)
(1.25923 0.104336 0)
(1.26337 0.0968444 0)
(1.26458 0.0895593 0)
(1.2649 0.0825066 0)
(1.26535 0.0755899 0)
(1.26603 0.0687276 0)
(1.26662 0.0618984 0)
(1.26683 0.0551257 0)
(1.26654 0.0484455 0)
(1.26578 0.0418899 0)
(1.26456 0.0354822 0)
(1.2629 0.0292448 0)
(1.26079 0.0231959 0)
(1.25822 0.0173707 0)
(1.25521 0.0118158 0)
(1.25181 0.00664036 0)
(1.2481 0.00190004 0)
(1.2441 -0.00235524 0)
(1.23982 -0.00610016 0)
(1.23529 -0.00931551 0)
(1.23057 -0.0119754 0)
(1.2257 -0.014055 0)
(1.22075 -0.0155367 0)
(1.21581 -0.0164105 0)
(1.21092 -0.0166747 0)
(1.20617 -0.0163364 0)
(1.20161 -0.0154111 0)
(1.19731 -0.0139226 0)
(1.19335 -0.0119041 0)
(1.18977 -0.00939616 0)
(1.18665 -0.00644891 0)
(1.18405 -0.00312361 0)
(1.23751 0.106396 0)
(1.24548 0.0997913 0)
(1.24974 0.0930212 0)
(1.2514 0.0863746 0)
(1.25214 0.0799256 0)
(1.25291 0.0736242 0)
(1.25381 0.0674042 0)
(1.25461 0.0612376 0)
(1.25508 0.0551343 0)
(1.2551 0.0491212 0)
(1.25469 0.0432261 0)
(1.25386 0.0374746 0)
(1.25265 0.0318942 0)
(1.25107 0.0265227 0)
(1.24915 0.0214081 0)
(1.24689 0.0166 0)
(1.24434 0.0121364 0)
(1.2415 0.00804515 0)
(1.23838 0.00433841 0)
(1.23501 0.00103628 0)
(1.23145 -0.00183263 0)
(1.22774 -0.00424405 0)
(1.22394 -0.00617506 0)
(1.2201 -0.00761131 0)
(1.21626 -0.00854676 0)
(1.2125 -0.0089811 0)
(1.20885 -0.00892233 0)
(1.20539 -0.00838542 0)
(1.20216 -0.00739084 0)
(1.19922 -0.005967 0)
(1.19662 -0.00414861 0)
(1.1944 -0.00197546 0)
(1.1926 0.000507561 0)
(1.22522 0.100666 0)
(1.23267 0.0948334 0)
(1.2369 0.0888026 0)
(1.23879 0.0828291 0)
(1.23983 0.0770019 0)
(1.24082 0.0713011 0)
(1.24189 0.0656828 0)
(1.24283 0.0601251 0)
(1.24348 0.0546352 0)
(1.24373 0.0492371 0)
(1.24359 0.0439591 0)
(1.24309 0.0388289 0)
(1.24228 0.0338745 0)
(1.24116 0.0291255 0)
(1.23975 0.0246116 0)
(1.23806 0.0203571 0)
(1.2361 0.0163819 0)
(1.23389 0.0127065 0)
(1.23146 0.00935444 0)
(1.22882 0.00635412 0)
(1.22604 0.00372731 0)
(1.22314 0.00149115 0)
(1.22017 -0.000342023 0)
(1.21718 -0.00176447 0)
(1.2142 -0.0027737 0)
(1.21129 -0.00337365 0)
(1.20848 -0.00357171 0)
(1.20582 -0.00338126 0)
(1.20336 -0.00282219 0)
(1.20115 -0.0019188 0)
(1.19923 -0.000701401 0)
(1.19765 0.000796078 0)
(1.19642 0.0025383 0)
(1.21435 0.0950364 0)
(1.2212 0.0898873 0)
(1.22527 0.0845226 0)
(1.2273 0.0791771 0)
(1.22854 0.0739402 0)
(1.2297 0.0688068 5.20446e-28)
(1.23089 0.0637484 -5.20446e-28)
(1.23197 0.0587511 0)
(1.23276 0.0538229 0)
(1.23321 0.0489854 0)
(1.23331 0.0442637 0)
(1.23311 0.0396818 0)
(1.23262 0.0352611 0)
(1.23188 0.0310222 0)
(1.23088 0.0269844 0)
(1.22963 0.0231672 0)
(1.22816 0.0195905 0)
(1.22647 0.0162749 0)
(1.2246 0.0132416 0)
(1.22258 0.0105099 0)
(1.22043 0.00809618 0)
(1.21819 0.00601186 0)
(1.21589 0.00426342 0)
(1.21358 0.00285479 0)
(1.21127 0.00178643 0)
(1.20902 0.00105337 0)
(1.20686 0.000648011 0)
(1.20483 0.000558303 0)
(1.20296 0.000766576 0)
(1.2013 0.00125143 0)
(1.19987 0.00198667 0)
(1.19871 0.00293979 0)
(1.19785 0.00407204 0)
(1.20467 0.0895357 0)
(1.21093 0.0849791 0)
(1.21482 0.0802148 0)
(1.21693 0.0754474 0)
(1.21833 0.0707605 0)
(1.21962 0.0661564 -8.1813e-28)
(1.22092 0.0616164 8.1813e-28)
(1.2221 0.057132 0)
(1.22303 0.052712 0)
(1.22365 0.0483752 0)
(1.22397 0.0441432 0)
(1.22402 0.0400356 0)
(1.22382 0.0360702 0)
(1.22338 0.0322636 0)
(1.22273 0.0286326 0)
(1.22186 0.0251942 0)
(1.2208 0.021966 0)
(1.21957 0.0189648 0)
(1.21817 0.0162058 0)
(1.21665 0.0137023 0)
(1.21503 0.0114649 0)
(1.21332 0.00950144 0)
(1.21157 0.00781649 0)
(1.20979 0.00641199 0)
(1.20803 0.0052868 0)
(1.20631 0.0044375 0)
(1.20466 0.00385539 0)
(1.20312 0.00352844 0)
(1.20171 0.00344166 0)
(1.20047 0.00357573 3.27786e-27)
(1.19941 0.00390802 -3.27786e-27)
(1.19857 0.0044126 0)
(1.19797 0.00506017 0)
(1.19594 0.0841498 0)