/*--------------------------------*- C++ -*----------------------------------*\
  =========                 |
  \\      /  F ield         | OpenFOAM: The Open Source CFD Toolbox
   \\    /   O peration     | Website:  https://openfoam.org
    \\  /    A nd           | Version:  7
     \\/     M anipulation  |
\*---------------------------------------------------------------------------*/
FoamFile
{
    version     2.0;
    format      ascii;
    class       volScalarField;
    location    "95.001";
    object      p;
}
// * * * * * * * * * * * * * * * * * * * * * * * * * * * * * * * * * * * * * //

dimensions      [0 2 -2 0 0 0 0];

internalField   nonuniform List<scalar> 
14800
(
-0.29738
-0.300157
-0.301059
-0.302192
-0.303448
-0.304914
-0.306594
-0.308483
-0.310581
-0.312886
-0.315381
-0.318023
-0.320734
-0.323401
-0.325758
-0.299327
-0.30181
-0.302667
-0.303817
-0.305192
-0.306898
-0.308967
-0.311428
-0.314326
-0.317706
-0.321601
-0.325999
-0.330819
-0.336008
-0.340973
-0.301443
-0.303592
-0.304386
-0.305529
-0.307
-0.30892
-0.311345
-0.314339
-0.317987
-0.32238
-0.327594
-0.333652
-0.340422
-0.347998
-0.355136
-0.303676
-0.305458
-0.306167
-0.307277
-0.308811
-0.310906
-0.313642
-0.317112
-0.321438
-0.326752
-0.333168
-0.340753
-0.349219
-0.35907
-0.367682
-0.305972
-0.307365
-0.307965
-0.309007
-0.310563
-0.312785
-0.315772
-0.319645
-0.324556
-0.33067
-0.338129
-0.347096
-0.356868
-0.368967
-0.378156
-0.308281
-0.309272
-0.309735
-0.310671
-0.312199
-0.314489
-0.317656
-0.321841
-0.327224
-0.333997
-0.342296
-0.352522
-0.3631
-0.377222
-0.386934
-0.310556
-0.311143
-0.311441
-0.312225
-0.313668
-0.315956
-0.319219
-0.323616
-0.329343
-0.336618
-0.345528
-0.356636
-0.36798
-0.383644
-0.39326
-0.31276
-0.312949
-0.313052
-0.313635
-0.314929
-0.317138
-0.320407
-0.324907
-0.330841
-0.338452
-0.347739
-0.359566
-0.371066
-0.388208
-0.396905
-0.31486
-0.314669
-0.314551
-0.314878
-0.315954
-0.318001
-0.321182
-0.325673
-0.331679
-0.339469
-0.348883
-0.361278
-0.372347
-0.390835
-0.397908
-0.316839
-0.316299
-0.315924
-0.315943
-0.316729
-0.318532
-0.321531
-0.325907
-0.331854
-0.339683
-0.348992
-0.361799
-0.371959
-0.391467
-0.396119
-0.318693
-0.317838
-0.317173
-0.316833
-0.31726
-0.318738
-0.321467
-0.325633
-0.331408
-0.339157
-0.348178
-0.361198
-0.370214
-0.390185
-0.392808
-0.320432
-0.319299
-0.318313
-0.317564
-0.317568
-0.31865
-0.321032
-0.324907
-0.330421
-0.337986
-0.346598
-0.359556
-0.367445
-0.38691
-0.388043
-0.322079
-0.320704
-0.31937
-0.318168
-0.317695
-0.31832
-0.320293
-0.323818
-0.329007
-0.336291
-0.344456
-0.35695
-0.363931
-0.381601
-0.381834
-0.323676
-0.322087
-0.32038
-0.318689
-0.317695
-0.317819
-0.319342
-0.322476
-0.327299
-0.334212
-0.341906
-0.353464
-0.359748
-0.374409
-0.37389
-0.325277
-0.323492
-0.321391
-0.319185
-0.317641
-0.317238
-0.318288
-0.321005
-0.325442
-0.331874
-0.339033
-0.349187
-0.354732
-0.365689
-0.363946
-0.326951
-0.324971
-0.322459
-0.319721
-0.317617
-0.316679
-0.31725
-0.319536
-0.323549
-0.329366
-0.335829
-0.344162
-0.348633
-0.355839
-0.352304
-0.328779
-0.326585
-0.323649
-0.320374
-0.317712
-0.316247
-0.316343
-0.318177
-0.321694
-0.326717
-0.332212
-0.338349
-0.34131
-0.345083
-0.339592
-0.330849
-0.328398
-0.325029
-0.321221
-0.318018
-0.316042
-0.315665
-0.317002
-0.319897
-0.323886
-0.32806
-0.33168
-0.332767
-0.33333
-0.326418
-0.333252
-0.330479
-0.326671
-0.32234
-0.318619
-0.316149
-0.315281
-0.316036
-0.318119
-0.320794
-0.323271
-0.324194
-0.323155
-0.32026
-0.312377
-0.336072
-0.332898
-0.328641
-0.323801
-0.319583
-0.316623
-0.315213
-0.31525
-0.316277
-0.317357
-0.317812
-0.316084
-0.312773
-0.306085
-0.297569
-0.339385
-0.335724
-0.331
-0.325661
-0.320957
-0.317484
-0.315439
-0.31457
-0.31427
-0.31351
-0.311737
-0.307587
-0.302032
-0.29238
-0.282092
-0.343269
-0.339006
-0.333798
-0.32796
-0.322762
-0.318717
-0.315899
-0.313902
-0.312002
-0.309224
-0.305176
-0.298865
-0.291187
-0.28005
-0.268473
-0.347787
-0.342788
-0.337075
-0.330725
-0.324992
-0.320279
-0.316512
-0.313139
-0.309401
-0.304509
-0.298274
-0.290053
-0.280726
-0.268552
-0.256195
-0.352988
-0.347106
-0.340861
-0.333963
-0.327623
-0.32211
-0.317181
-0.312176
-0.306421
-0.299412
-0.291155
-0.281317
-0.270668
-0.257818
-0.245307
-0.358904
-0.351991
-0.34518
-0.337672
-0.330619
-0.324139
-0.317798
-0.310922
-0.303049
-0.293992
-0.283924
-0.27272
-0.261042
-0.247745
-0.235133
-0.365554
-0.357468
-0.350049
-0.341839
-0.333942
-0.326282
-0.318251
-0.309307
-0.299292
-0.288312
-0.276646
-0.264299
-0.251793
-0.238167
-0.225542
-0.372952
-0.36356
-0.355479
-0.346449
-0.337544
-0.328436
-0.318434
-0.307286
-0.295172
-0.28242
-0.269355
-0.256042
-0.242853
-0.22899
-0.216311
-0.381096
-0.370285
-0.361471
-0.351483
-0.341361
-0.330478
-0.318254
-0.304835
-0.29071
-0.276345
-0.262056
-0.247916
-0.234149
-0.220095
-0.207357
-0.389979
-0.377653
-0.368013
-0.356917
-0.345293
-0.332282
-0.317637
-0.301943
-0.285923
-0.270099
-0.254733
-0.239875
-0.225609
-0.211404
-0.198585
-0.399577
-0.385656
-0.375082
-0.362701
-0.349204
-0.333724
-0.316526
-0.298602
-0.280817
-0.263675
-0.247358
-0.231867
-0.217165
-0.202837
-0.189929
-0.40985
-0.394263
-0.382638
-0.368738
-0.352937
-0.334692
-0.314876
-0.294802
-0.275385
-0.257052
-0.239888
-0.223836
-0.208753
-0.194329
-0.181326
-0.420729
-0.403413
-0.390617
-0.374879
-0.356321
-0.335082
-0.312644
-0.290528
-0.269608
-0.250198
-0.23228
-0.215727
-0.200315
-0.185821
-0.172724
-0.432117
-0.41301
-0.398921
-0.380923
-0.359186
-0.334804
-0.309791
-0.285754
-0.263458
-0.243075
-0.224485
-0.207488
-0.191799
-0.177259
-0.164077
-0.443874
-0.422929
-0.407393
-0.386636
-0.361368
-0.333773
-0.306273
-0.280448
-0.256897
-0.235639
-0.216453
-0.19907
-0.183157
-0.168597
-0.155344
-0.455819
-0.43301
-0.415817
-0.391775
-0.362711
-0.331907
-0.302044
-0.274568
-0.249881
-0.227843
-0.208136
-0.190424
-0.174343
-0.15979
-0.146487
-0.467721
-0.443065
-0.42391
-0.396094
-0.363067
-0.329127
-0.297049
-0.268069
-0.242364
-0.21964
-0.199489
-0.18151
-0.165316
-0.150797
-0.137472
-0.479311
-0.452867
-0.431351
-0.399353
-0.362301
-0.325354
-0.291235
-0.260901
-0.234297
-0.210984
-0.190467
-0.172288
-0.15604
-0.141584
-0.128273
-0.490281
-0.462155
-0.437794
-0.401323
-0.360285
-0.320513
-0.284541
-0.253011
-0.225633
-0.201831
-0.181032
-0.162725
-0.146485
-0.132125
-0.118878
-0.500299
-0.470625
-0.442898
-0.401793
-0.356902
-0.314528
-0.27691
-0.244347
-0.216323
-0.192138
-0.171146
-0.152787
-0.136622
-0.122407
-0.109299
-0.509021
-0.477942
-0.446344
-0.400568
-0.352047
-0.307331
-0.268285
-0.23486
-0.206326
-0.181869
-0.160778
-0.142447
-0.126424
-0.112417
-0.0995533
-0.516097
-0.483742
-0.447846
-0.397479
-0.345622
-0.298853
-0.258613
-0.224505
-0.195603
-0.170992
-0.149898
-0.131675
-0.115862
-0.102133
-0.0896151
-0.52119
-0.487656
-0.447157
-0.392386
-0.337545
-0.289038
-0.247845
-0.21324
-0.184121
-0.159479
-0.138485
-0.120453
-0.104914
-0.0915191
-0.0793875
-0.523974
-0.489321
-0.444072
-0.385176
-0.327746
-0.277835
-0.235941
-0.201035
-0.171854
-0.14731
-0.12652
-0.108765
-0.0935778
-0.0805569
-0.0687291
-0.524151
-0.488408
-0.438416
-0.375764
-0.316172
-0.265203
-0.222871
-0.187865
-0.158782
-0.134467
-0.11399
-0.0966053
-0.081861
-0.0692782
-0.0575536
-0.521453
-0.484637
-0.430039
-0.364086
-0.302784
-0.251115
-0.208612
-0.173711
-0.144887
-0.120939
-0.100888
-0.0839762
-0.0697704
-0.0576898
-0.0460345
-0.515648
-0.47778
-0.41883
-0.350105
-0.287561
-0.235552
-0.193144
-0.158556
-0.130167
-0.106733
-0.0872286
-0.0708991
-0.0573209
-0.0456134
-0.0344831
-0.506545
-0.467658
-0.404721
-0.333803
-0.270496
-0.218503
-0.176455
-0.14239
-0.114648
-0.0918758
-0.073041
-0.0573894
-0.0444664
-0.0331836
-0.0227831
-0.493992
-0.454152
-0.387682
-0.315186
-0.251594
-0.199971
-0.158558
-0.125241
-0.098382
-0.0763784
-0.0583142
-0.0434446
-0.0312251
-0.02047
-0.010877
-0.477886
-0.437198
-0.36772
-0.294282
-0.230872
-0.179985
-0.139516
-0.107227
-0.0812949
-0.0602423
-0.0430758
-0.0290802
-0.0176297
-0.00749761
0.00124225
-0.458167
-0.416784
-0.344882
-0.271138
-0.208368
-0.158629
-0.11939
-0.0882783
-0.0634636
-0.0435001
-0.027355
-0.0143238
-0.00371411
0.0057178
0.0135568
-0.434823
-0.392951
-0.319258
-0.245833
-0.184174
-0.135969
-0.098168
-0.0684478
-0.0449333
-0.026194
-0.0111871
0.000789964
0.0104871
0.0191516
0.0260374
-0.407892
-0.365791
-0.290961
-0.218467
-0.158423
-0.111996
-0.0759178
-0.0477958
-0.0257542
-0.00837145
0.0053862
0.0162217
0.0249367
0.0327677
0.0386423
-0.377464
-0.335474
-0.260075
-0.189148
-0.131168
-0.0868211
-0.0527155
-0.0263914
-0.00598295
0.00991495
0.0223175
0.0319279
0.0395941
0.0465218
0.0513221
-0.343685
-0.302257
-0.226597
-0.158015
-0.102522
-0.060552
-0.0286497
-0.00431016
0.0143152
0.0286065
0.0395535
0.0478615
0.0544176
0.0603709
0.0640394
-0.306742
-0.266364
-0.190715
-0.125179
-0.0726175
-0.0333073
-0.00381911
0.0183639
0.0350678
0.0476382
0.057035
0.0639714
0.0693675
0.0742806
0.0767722
-0.266838
-0.227669
-0.153049
-0.0908215
-0.0415975
-0.00521373
0.021668
0.0415394
0.0561955
0.066939
0.0746983
0.0802054
0.0844027
0.0882012
0.089427
-0.224222
-0.186146
-0.1141
-0.0552338
-0.00962348
0.0235945
0.0476959
0.0651178
0.0776135
0.0864348
0.0924815
0.0965168
0.0994673
0.10199
0.101696
-0.179169
-0.142409
-0.0738216
-0.0186512
0.0231256
0.0529748
0.0741417
0.0889943
0.0992316
0.10605
0.110331
0.112871
0.11448
0.115369
0.113143
-0.13182
-0.0970987
-0.0323702
0.0187195
0.0564625
0.0827749
0.100876
0.113058
0.120955
0.12571
0.128199
0.129232
0.129351
0.128145
0.123741
-0.0827249
-0.0504697
0.0100072
0.0566676
0.0901967
0.112835
0.127764
0.137192
0.142685
0.145334
0.146022
0.145523
0.143994
0.140548
0.134599
-0.0322684
-0.00284026
0.0530263
0.0949682
0.124133
0.14299
0.154665
0.161278
0.164321
0.164842
0.163715
0.16161
0.158289
0.152822
0.148492
0.0191497
0.045436
0.0963877
0.133385
0.15807
0.17307
0.181435
0.185193
0.185761
0.184144
0.18118
0.177378
0.172278
0.165514
0.161973
0.0711115
0.0939945
0.139785
0.171675
0.191804
0.202902
0.207927
0.208811
0.206899
0.203147
0.198331
0.192813
0.186107
0.178383
0.174568
0.123193
0.142464
0.18291
0.209588
0.225128
0.23231
0.233992
0.232008
0.227628
0.221752
0.215082
0.20787
0.199707
0.191112
0.186553
0.174974
0.190465
0.225454
0.246875
0.257834
0.261119
0.259483
0.254658
0.247838
0.239865
0.231359
0.222505
0.21298
0.203475
0.197949
0.226034
0.237622
0.267111
0.283289
0.289715
0.289156
0.284252
0.276634
0.267423
0.257391
0.247089
0.236653
0.225834
0.21539
0.208804
0.275953
0.283566
0.307581
0.318585
0.320568
0.316248
0.308154
0.297815
0.286275
0.274241
0.262195
0.25024
0.23818
0.226784
0.219101
0.324322
0.327943
0.346572
0.352525
0.350193
0.342229
0.331047
0.318078
0.304291
0.290326
0.276603
0.263198
0.24995
0.237608
0.228819
0.370742
0.37041
0.383802
0.384877
0.378399
0.366937
0.352795
0.337309
0.321371
0.305561
0.29024
0.275457
0.26108
0.247815
0.237928
0.41483
0.41064
0.419004
0.415423
0.405
0.390217
0.373267
0.355394
0.337421
0.319865
0.303034
0.286954
0.271515
0.25736
0.2464
0.456224
0.448327
0.451925
0.443954
0.429825
0.411923
0.392339
0.37223
0.352351
0.33316
0.314918
0.29763
0.281203
0.266203
0.254205
0.494585
0.483182
0.482327
0.470274
0.452708
0.431916
0.409894
0.387716
0.366076
0.345376
0.325831
0.307432
0.290095
0.274304
0.261318
0.5296
0.51494
0.509993
0.494204
0.473499
0.450071
0.425825
0.401763
0.378519
0.356444
0.335715
0.316308
0.298148
0.281628
0.267717
0.560983
0.54336
0.534725
0.515581
0.492062
0.466272
0.440036
0.414287
0.389608
0.366305
0.344518
0.324213
0.30532
0.288142
0.273383
0.588478
0.568229
0.556347
0.534259
0.508274
0.480416
0.452438
0.425214
0.399282
0.374906
0.352194
0.331107
0.311578
0.293818
0.2783
0.611865
0.589359
0.574706
0.55011
0.522029
0.492414
0.462956
0.434481
0.407484
0.382198
0.358703
0.336955
0.316888
0.29863
0.282455
0.630956
0.606593
0.58967
0.563027
0.533237
0.502189
0.471526
0.442032
0.414169
0.388142
0.364011
0.341726
0.321224
0.302558
0.285838
0.645597
0.619803
0.601136
0.572923
0.541824
0.50968
0.478096
0.447823
0.4193
0.392707
0.368091
0.345398
0.324564
0.305585
0.288442
0.655674
0.628893
0.609024
0.579733
0.547735
0.514841
0.482627
0.451821
0.422847
0.395869
0.370921
0.34795
0.326891
0.307698
0.290262
0.661109
0.633798
0.613281
0.583411
0.550934
0.517639
0.485091
0.454004
0.424791
0.397609
0.372487
0.34937
0.328195
0.30889
0.291299
0.661863
0.634485
0.613878
0.583935
0.5514
0.51806
0.485475
0.454359
0.425122
0.397922
0.372783
0.349653
0.328469
0.309156
0.291546
0.657934
0.630952
0.610817
0.581305
0.549134
0.516103
0.48378
0.452887
0.423841
0.396805
0.371808
0.348798
0.327712
0.308493
0.291005
0.649362
0.623233
0.604122
0.575542
0.544154
0.511783
0.480018
0.449599
0.420957
0.394267
0.369569
0.34681
0.32593
0.306906
0.289676
0.63622
0.611391
0.593847
0.56669
0.536497
0.505131
0.474214
0.444516
0.416488
0.390324
0.366079
0.343702
0.323135
0.304406
0.287564
0.618624
0.59552
0.58007
0.554815
0.526216
0.496192
0.466408
0.437671
0.410461
0.385
0.361359
0.339493
0.319341
0.301003
0.284675
0.596723
0.575748
0.562894
0.54
0.513384
0.485027
0.456651
0.429108
0.402915
0.378326
0.355435
0.334204
0.314572
0.296715
0.281015
0.570703
0.55223
0.542448
0.522355
0.49809
0.471711
0.445006
0.41888
0.393895
0.370341
0.348343
0.327868
0.308852
0.291561
0.276593
0.540785
0.525152
0.518884
0.502003
0.480439
0.456334
0.431549
0.407052
0.383456
0.361092
0.34012
0.320517
0.302214
0.285568
0.271423
0.50722
0.494725
0.492378
0.479091
0.460554
0.438997
0.416365
0.393697
0.371659
0.350631
0.330813
0.312192
0.294694
0.278762
0.26552
0.470292
0.46119
0.463125
0.45378
0.438569
0.419815
0.399552
0.378896
0.358575
0.33902
0.320474
0.302938
0.28633
0.271177
0.258903
0.430312
0.424809
0.431343
0.426249
0.414635
0.398914
0.381215
0.362741
0.344281
0.326324
0.309159
0.292806
0.277167
0.262848
0.251595
0.387615
0.385867
0.397264
0.396691
0.388913
0.376429
0.361471
0.345329
0.328861
0.312614
0.29693
0.281848
0.267253
0.253813
0.24362
0.342562
0.344671
0.361142
0.365314
0.361577
0.352506
0.340442
0.326765
0.312403
0.297968
0.283853
0.270124
0.256639
0.244115
0.235007
0.295531
0.301543
0.323241
0.332335
0.332808
0.3273
0.318259
0.307159
0.295004
0.282466
0.269999
0.257696
0.24538
0.233795
0.225786
0.246917
0.256823
0.283841
0.297983
0.302799
0.300971
0.295057
0.286629
0.276761
0.266192
0.255441
0.244634
0.23354
0.222903
0.215985
0.197126
0.210863
0.243231
0.262495
0.271745
0.273685
0.270977
0.265292
0.257777
0.249235
0.240255
0.231005
0.221187
0.211484
0.205627
0.146576
0.164025
0.201708
0.226113
0.23985
0.245612
0.246164
0.243272
0.238159
0.231684
0.224514
0.216883
0.208407
0.199611
0.194727
0.0956828
0.11668
0.159576
0.189084
0.207319
0.216925
0.220763
0.220695
0.218013
0.213634
0.208294
0.202333
0.195291
0.187362
0.183239
0.0448623
0.0692062
0.117141
0.151654
0.174358
0.187799
0.194922
0.197684
0.197448
0.195177
0.191668
0.1874
0.181937
0.174956
0.171141
-0.00546934
0.0219717
0.0747078
0.11407
0.141172
0.158406
0.168789
0.174366
0.176572
0.176413
0.174723
0.172132
0.168414
0.162701
0.158169
-0.0549001
-0.0246629
0.0325801
0.0765744
0.107965
0.128919
0.142509
0.150864
0.15549
0.157436
0.157543
0.156545
0.154589
0.150842
0.144786
-0.103034
-0.0703485
-0.00894629
0.0394009
0.0749347
0.0995073
0.116226
0.1273
0.134303
0.138332
0.140226
0.140753
0.140426
0.138863
0.134302
-0.149488
-0.114764
-0.0495901
0.00277301
0.0422754
0.0703339
0.0900792
0.103794
0.113112
0.119185
0.122857
0.124884
0.126036
0.12652
0.124051
-0.193772
-0.15763
-0.0891055
-0.0330997
0.0101755
0.0415574
0.0642032
0.0804607
0.092017
0.100075
0.105498
0.109014
0.111501
0.113588
0.112992
-0.235688
-0.198389
-0.127335
-0.068012
-0.0211805
0.0133286
0.0387263
0.0574114
0.0711111
0.0810774
0.088201
0.0931803
0.0969102
0.100259
0.10115
-0.274972
-0.236449
-0.164301
-0.101734
-0.0516166
-0.0142114
0.0137704
0.0347501
0.0504849
0.0622677
0.0710199
0.0774221
0.0823482
0.086805
0.0889426
-0.311382
-0.271774
-0.199555
-0.133988
-0.0809741
-0.0409297
-0.0105496
0.0125752
0.0302234
0.0437211
0.0540181
0.061788
0.0678731
0.0733667
0.0766654
-0.344724
-0.304493
-0.232481
-0.164592
-0.109112
-0.0667014
-0.0341264
-0.00902223
0.010406
0.0255089
0.0372602
0.0463316
0.0535275
0.0599944
0.0644106
-0.374816
-0.334396
-0.26289
-0.193438
-0.135899
-0.0914097
-0.0568622
-0.0299581
-0.00889478
0.00769681
0.0208065
0.031105
0.0393529
0.0467248
0.052203
-0.401515
-0.361236
-0.290784
-0.220386
-0.161225
-0.114949
-0.0786692
-0.0501563
-0.0276139
-0.00965573
0.00471154
0.0161572
0.0253929
0.033603
0.0400825
-0.424734
-0.384851
-0.316083
-0.24533
-0.185036
-0.137211
-0.0994724
-0.0695462
-0.0456959
-0.0264948
-0.0109755
0.0015336
0.0116903
0.0206752
0.0281008
-0.444438
-0.405151
-0.338677
-0.268175
-0.207202
-0.158206
-0.119206
-0.0880657
-0.0630923
-0.0427704
-0.026211
-0.0127238
-0.00171541
0.00797931
0.0163025
-0.460642
-0.422104
-0.358482
-0.288846
-0.227636
-0.177863
-0.137885
-0.105661
-0.0797585
-0.0584366
-0.0409584
-0.026577
-0.014787
-0.00445799
0.004721
-0.473404
-0.435723
-0.375456
-0.307298
-0.246303
-0.196105
-0.155445
-0.12245
-0.0955711
-0.0734586
-0.0551863
-0.0399948
-0.027487
-0.0166192
-0.00661958
-0.482829
-0.446077
-0.389594
-0.323506
-0.263189
-0.212903
-0.171821
-0.138251
-0.110654
-0.0878466
-0.0688616
-0.0529587
-0.039778
-0.0284751
-0.0177218
-0.489064
-0.453288
-0.40093
-0.337468
-0.27829
-0.228259
-0.187002
-0.153047
-0.124951
-0.101575
-0.0819918
-0.0654761
-0.0516324
-0.039944
-0.0286463
-0.4923
-0.457533
-0.409535
-0.349203
-0.291614
-0.242183
-0.201004
-0.166858
-0.138426
-0.114615
-0.094546
-0.0775135
-0.0630857
-0.0508432
-0.0395564
-0.492764
-0.459039
-0.415523
-0.358752
-0.303185
-0.254695
-0.213847
-0.179703
-0.151082
-0.12696
-0.106508
-0.0890483
-0.0741356
-0.0614196
-0.0500026
-0.490718
-0.458081
-0.419042
-0.366181
-0.313046
-0.265827
-0.225556
-0.191598
-0.162933
-0.138617
-0.117879
-0.100076
-0.0847671
-0.0716406
-0.0598696
-0.486453
-0.454977
-0.420264
-0.371579
-0.321252
-0.275621
-0.236162
-0.202569
-0.173998
-0.149602
-0.128668
-0.110598
-0.0949578
-0.0814589
-0.0692735
-0.480285
-0.450077
-0.419397
-0.375061
-0.327876
-0.284129
-0.245708
-0.212647
-0.184302
-0.159933
-0.138889
-0.120619
-0.104703
-0.0908825
-0.0783378
-0.472542
-0.443733
-0.416684
-0.37677
-0.333006
-0.291415
-0.254245
-0.221874
-0.193877
-0.169631
-0.148558
-0.130153
-0.114015
-0.0999339
-0.0871266
-0.463558
-0.436287
-0.412407
-0.376877
-0.336739
-0.297548
-0.261828
-0.230297
-0.20276
-0.178726
-0.157696
-0.139218
-0.122912
-0.108622
-0.095643
-0.453665
-0.428057
-0.406877
-0.375574
-0.339188
-0.302605
-0.26852
-0.237968
-0.210992
-0.18725
-0.166327
-0.147832
-0.131409
-0.116946
-0.103857
-0.44318
-0.419329
-0.400422
-0.37307
-0.340474
-0.306665
-0.274384
-0.244941
-0.218621
-0.195241
-0.17448
-0.156017
-0.139518
-0.124904
-0.111744
-0.432393
-0.410351
-0.393366
-0.369591
-0.340727
-0.309814
-0.279486
-0.251272
-0.225695
-0.202737
-0.182186
-0.163792
-0.147255
-0.132504
-0.119298
-0.421562
-0.401335
-0.386012
-0.36537
-0.340088
-0.312137
-0.283891
-0.257018
-0.232261
-0.209781
-0.189478
-0.171182
-0.154636
-0.139761
-0.126524
-0.410901
-0.392462
-0.378616
-0.360643
-0.338707
-0.313723
-0.287661
-0.262231
-0.238369
-0.216414
-0.19639
-0.178211
-0.161682
-0.146691
-0.133429
-0.400582
-0.383882
-0.371378
-0.355645
-0.336742
-0.314663
-0.290854
-0.266962
-0.244065
-0.222678
-0.202957
-0.184907
-0.16841
-0.153309
-0.140019
-0.390734
-0.375714
-0.36444
-0.350593
-0.334355
-0.31505
-0.293526
-0.271252
-0.249389
-0.228612
-0.209214
-0.191298
-0.174841
-0.159628
-0.146299
-0.381448
-0.368046
-0.357896
-0.345669
-0.331708
-0.314981
-0.29573
-0.275139
-0.254375
-0.234249
-0.215194
-0.197408
-0.180991
-0.165663
-0.152275
-0.37278
-0.360931
-0.351805
-0.341005
-0.32896
-0.314556
-0.297516
-0.27865
-0.25905
-0.239617
-0.220924
-0.203264
-0.186878
-0.171424
-0.157947
-0.364756
-0.354393
-0.346203
-0.33668
-0.326246
-0.31388
-0.298933
-0.281806
-0.263428
-0.244734
-0.226427
-0.208886
-0.192516
-0.176919
-0.163318
-0.35738
-0.348425
-0.341106
-0.332731
-0.323673
-0.313052
-0.300033
-0.284621
-0.267513
-0.249608
-0.231716
-0.214292
-0.197917
-0.182158
-0.168382
-0.350634
-0.343003
-0.336505
-0.329163
-0.321303
-0.312164
-0.300868
-0.287105
-0.271295
-0.254231
-0.236791
-0.219488
-0.20309
-0.187138
-0.17314
-0.344484
-0.338085
-0.332372
-0.325964
-0.319159
-0.311281
-0.301489
-0.289268
-0.274759
-0.258582
-0.24164
-0.224473
-0.208035
-0.191868
-0.177566
-0.338884
-0.333622
-0.328663
-0.323107
-0.317232
-0.310438
-0.301942
-0.291121
-0.277881
-0.262627
-0.246232
-0.229231
-0.212746
-0.196326
-0.181701
-0.33378
-0.329558
-0.32532
-0.320552
-0.315498
-0.309641
-0.302254
-0.292676
-0.280638
-0.266323
-0.250525
-0.233726
-0.217213
-0.200524
-0.185503
-0.329117
-0.32584
-0.322283
-0.318246
-0.313922
-0.308874
-0.302435
-0.293941
-0.283009
-0.269624
-0.254455
-0.237918
-0.221387
-0.204454
-0.189175
-0.324837
-0.322416
-0.319494
-0.316131
-0.312461
-0.308111
-0.302479
-0.29492
-0.284978
-0.272491
-0.257963
-0.241736
-0.225258
-0.208092
-0.192611
-0.320887
-0.319242
-0.316899
-0.314155
-0.311068
-0.30732
-0.302374
-0.295612
-0.286539
-0.274894
-0.260984
-0.245153
-0.228609
-0.211848
-0.195464
-0.317216
-0.316289
-0.314456
-0.312271
-0.309702
-0.306474
-0.302104
-0.296017
-0.287692
-0.27682
-0.263467
-0.248158
-0.231351
-0.215319
-0.197579
-0.313806
-0.313514
-0.312136
-0.310447
-0.308334
-0.305551
-0.301665
-0.296141
-0.288452
-0.278274
-0.265395
-0.25073
-0.233385
-0.218066
-0.198855
-0.310625
-0.310897
-0.309927
-0.308666
-0.306946
-0.304543
-0.301061
-0.296004
-0.288849
-0.279283
-0.266793
-0.252875
-0.23468
-0.220281
-0.199199
-0.307655
-0.308437
-0.30782
-0.306922
-0.305538
-0.303456
-0.30031
-0.295639
-0.288931
-0.279899
-0.267736
-0.254626
-0.235338
-0.222321
-0.198698
-0.304893
-0.306135
-0.305816
-0.305228
-0.304125
-0.302314
-0.299449
-0.295097
-0.28877
-0.280195
-0.268348
-0.256007
-0.235644
-0.224322
-0.197537
-0.302342
-0.303998
-0.303929
-0.303602
-0.302737
-0.301151
-0.298528
-0.294449
-0.288455
-0.280271
-0.268785
-0.257041
-0.236028
-0.226128
-0.196081
-0.300012
-0.30204
-0.30218
-0.302071
-0.301409
-0.300021
-0.297606
-0.293774
-0.288088
-0.280257
-0.269202
-0.257835
-0.236883
-0.22759
-0.19529
-0.29792
-0.300279
-0.300593
-0.300668
-0.30018
-0.298971
-0.296755
-0.293162
-0.287779
-0.280308
-0.269733
-0.258624
-0.238397
-0.228841
-0.195949
-0.296087
-0.298737
-0.299195
-0.299426
-0.299094
-0.298055
-0.29604
-0.292695
-0.287642
-0.280567
-0.270512
-0.259719
-0.240594
-0.230364
-0.198419
-0.294535
-0.297436
-0.298013
-0.298378
-0.29819
-0.297322
-0.29552
-0.292455
-0.287766
-0.2811
-0.271782
-0.261321
-0.243504
-0.232747
-0.202661
-0.293287
-0.296396
-0.297071
-0.297554
-0.297505
-0.296815
-0.295249
-0.292501
-0.288234
-0.282084
-0.273584
-0.263383
-0.247522
-0.236271
-0.208511
-0.292363
-0.295638
-0.296393
-0.296981
-0.297069
-0.29657
-0.295268
-0.292882
-0.289101
-0.283578
-0.275947
-0.266346
-0.25261
-0.240701
-0.216274
-0.291781
-0.295176
-0.295995
-0.296678
-0.296906
-0.296612
-0.295605
-0.29363
-0.290405
-0.28561
-0.278938
-0.270278
-0.258516
-0.246719
-0.226588
-0.291554
-0.29502
-0.295888
-0.296659
-0.297031
-0.296959
-0.296276
-0.294761
-0.292159
-0.288191
-0.282585
-0.275134
-0.265273
-0.254392
-0.237975
-0.291688
-0.295173
-0.296079
-0.29693
-0.297449
-0.297614
-0.297285
-0.296273
-0.29436
-0.291307
-0.286874
-0.280843
-0.272906
-0.26355
-0.250511
-0.292179
-0.295631
-0.296561
-0.297487
-0.298157
-0.298572
-0.298623
-0.298152
-0.296984
-0.294921
-0.291762
-0.28731
-0.281372
-0.273994
-0.264187
-0.293018
-0.296382
-0.297325
-0.298317
-0.29914
-0.299816
-0.300265
-0.300367
-0.299987
-0.298975
-0.297172
-0.294419
-0.290568
-0.285494
-0.278845
-0.294185
-0.297406
-0.298349
-0.2994
-0.300374
-0.301317
-0.302176
-0.30287
-0.30331
-0.303391
-0.303003
-0.302025
-0.300339
-0.297778
-0.294235
-0.295652
-0.298675
-0.299605
-0.300704
-0.301825
-0.303033
-0.304306
-0.305601
-0.306873
-0.308068
-0.309124
-0.309959
-0.310478
-0.310532
-0.310016
-0.328366
-0.328269
-0.326438
-0.321398
-0.313357
-0.30227
-0.288993
-0.274856
-0.261565
-0.250754
-0.243799
-0.241572
-0.244128
-0.250528
-0.258934
-0.267012
-0.272056
-0.27209
-0.265957
-0.253261
-0.23505
-0.213085
-0.189672
-0.167046
-0.146941
-0.130424
-0.117967
-0.109654
-0.105477
-0.105589
-0.110301
-0.11969
-0.133065
-0.148719
-0.164196
-0.176894
-0.184612
-0.185936
-0.180478
-0.169096
-0.153435
-0.135594
-0.117555
-0.100817
-0.0862815
-0.0743319
-0.0650115
-0.0581975
-0.0537108
-0.0513621
-0.0510056
-0.052635
-0.0564307
-0.0626186
-0.071148
-0.0814156
-0.0922519
-0.102168
-0.109708
-0.113746
-0.113685
-0.10957
-0.101942
-0.0917429
-0.0800327
-0.0677915
-0.0557896
-0.0445437
-0.034341
-0.0252923
-0.0174328
-0.0107337
-0.00515905
-0.000657401
0.00279598
0.00503954
0.00613168
0.00559776
0.00429993
0.000860785
-0.346668
-0.348263
-0.347818
-0.343072
-0.334296
-0.321267
-0.304825
-0.286511
-0.268262
-0.251877
-0.238953
-0.230766
-0.22775
-0.229407
-0.234199
-0.240003
-0.244233
-0.244538
-0.239929
-0.22963
-0.214591
-0.196187
-0.176457
-0.157378
-0.140518
-0.126878
-0.116935
-0.110855
-0.108776
-0.11102
-0.117989
-0.129686
-0.1452
-0.162577
-0.179194
-0.192384
-0.19994
-0.200445
-0.193638
-0.180479
-0.162817
-0.142944
-0.122988
-0.104525
-0.0884698
-0.0751871
-0.0646817
-0.0567849
-0.0512771
-0.0479381
-0.0465896
-0.0471773
-0.0498307
-0.0547636
-0.0619794
-0.0709787
-0.0807096
-0.08979
-0.0968473
-0.100813
-0.101107
-0.0977112
-0.0911094
-0.0821229
-0.0716976
-0.0607205
-0.0498971
-0.039706
-0.0304209
-0.0221572
-0.0149667
-0.0088325
-0.00373519
0.000370448
0.00347564
0.00541279
0.006221
0.00546053
0.00406885
0.000633668
-0.364094
-0.367104
-0.367998
-0.363469
-0.353944
-0.339002
-0.319381
-0.296966
-0.273914
-0.252079
-0.233275
-0.219185
-0.210522
-0.207254
-0.208133
-0.211376
-0.214438
-0.214979
-0.211935
-0.204027
-0.192241
-0.177453
-0.161465
-0.145993
-0.132432
-0.121708
-0.114308
-0.110501
-0.110596
-0.115076
-0.124395
-0.138439
-0.156063
-0.175086
-0.192758
-0.206381
-0.213749
-0.213476
-0.205383
-0.190545
-0.171001
-0.14923
-0.127497
-0.107441
-0.0899857
-0.0754727
-0.0638698
-0.054966
-0.0485029
-0.0442308
-0.0419423
-0.0415405
-0.0431053
-0.0468312
-0.0527692
-0.0605237
-0.0691638
-0.0774146
-0.0839845
-0.0878585
-0.0884678
-0.0857527
-0.0801294
-0.0723085
-0.0631294
-0.0533894
-0.04373
-0.0345905
-0.0262299
-0.0187668
-0.0122674
-0.00672383
-0.00213212
0.00154585
0.00426511
0.00585445
0.00633597
0.0053127
0.0038066
0.000369243
-0.379965
-0.384099
-0.38621
-0.381796
-0.371518
-0.354785
-0.331974
-0.305671
-0.278138
-0.251124
-0.226722
-0.20702
-0.192797
-0.184611
-0.181353
-0.181816
-0.183339
-0.183778
-0.182463
-0.176665
-0.168128
-0.156914
-0.144653
-0.132771
-0.122497
-0.114684
-0.109842
-0.108353
-0.110707
-0.117532
-0.129285
-0.145693
-0.165372
-0.185949
-0.204594
-0.218602
-0.22578
-0.224793
-0.215524
-0.199147
-0.177883
-0.154386
-0.131047
-0.109559
-0.0908451
-0.0752209
-0.0626198
-0.0527931
-0.0454477
-0.0403066
-0.0371369
-0.0358045
-0.0363422
-0.0389194
-0.0436257
-0.0501674
-0.0577367
-0.0651674
-0.0712459
-0.0750055
-0.0758901
-0.0738031
-0.0690997
-0.0623852
-0.0543998
-0.0458564
-0.0373331
-0.0292302
-0.0217913
-0.0151364
-0.00934351
-0.00441065
-0.000348875
0.00287214
0.00516873
0.00636952
0.00648139
0.00515905
0.00351586
6.99759e-05
-0.393977
-0.398697
-0.401713
-0.397349
-0.386295
-0.368066
-0.341971
-0.312185
-0.280622
-0.248864
-0.219319
-0.19456
-0.174988
-0.162076
-0.154506
-0.151958
-0.151664
-0.151457
-0.151702
-0.147787
-0.142399
-0.134614
-0.12598
-0.117605
-0.110557
-0.105624
-0.103355
-0.104249
-0.108963
-0.118245
-0.132501
-0.151262
-0.172915
-0.194941
-0.214474
-0.228821
-0.235822
-0.234221
-0.223913
-0.206172
-0.183383
-0.158368
-0.133625
-0.110888
-0.0910738
-0.0744706
-0.0609795
-0.0503204
-0.0421707
-0.0362296
-0.0322424
-0.0300437
-0.0296218
-0.0311169
-0.0346466
-0.0400141
-0.0465369
-0.053159
-0.0587432
-0.0623654
-0.0634799
-0.0619597
-0.0581108
-0.0524333
-0.0455778
-0.0381782
-0.0307517
-0.0236599
-0.0171307
-0.0112838
-0.00620593
-0.00189806
0.0016136
0.00435124
0.00619013
0.00696316
0.00666308
0.00500595
0.00320094
-0.000260278
-0.404337
-0.410617
-0.414098
-0.409765
-0.397779
-0.377579
-0.349603
-0.316757
-0.281319
-0.245339
-0.211108
-0.182134
-0.157449
-0.140361
-0.128314
-0.122667
-0.120251
-0.11881
-0.120162
-0.117885
-0.115271
-0.110669
-0.10548
-0.100461
-0.0965358
-0.0944391
-0.094763
-0.0981287
-0.105334
-0.117177
-0.133973
-0.155037
-0.178554
-0.201906
-0.222234
-0.236882
-0.243722
-0.241638
-0.230449
-0.211542
-0.187455
-0.161157
-0.135235
-0.111449
-0.0907068
-0.073266
-0.0589996
-0.0476026
-0.0387295
-0.0320605
-0.0273229
-0.0243252
-0.0230155
-0.023501
-0.0259171
-0.0301553
-0.035659
-0.0414849
-0.0465719
-0.0500341
-0.0513327
-0.0503106
-0.047247
-0.0425285
-0.0367292
-0.0304105
-0.0240313
-0.0179156
-0.0122756
-0.00722896
-0.00286777
0.000806616
0.00375241
0.0059836
0.00733218
0.00764077
0.00688792
0.00486146
0.00286803
-0.000616189
-0.41227
-0.419447
-0.423046
-0.418715
-0.405873
-0.384148
-0.354389
-0.318931
-0.280233
-0.240779
-0.203055
-0.169578
-0.140222
-0.120128
-0.10335
-0.0949177
-0.0898185
-0.0871554
-0.0881257
-0.0875339
-0.0870554
-0.0853268
-0.0833039
-0.0814308
-0.0804951
-0.0811812
-0.0841217
-0.0900636
-0.0998935
-0.114387
-0.133711
-0.156982
-0.182219
-0.206757
-0.22778
-0.242709
-0.249435
-0.246983
-0.235077
-0.215218
-0.190081
-0.162754
-0.135895
-0.111277
-0.0897872
-0.0716557
-0.0567322
-0.044694
-0.0351796
-0.0278555
-0.022436
-0.0187082
-0.0165852
-0.0161381
-0.0175093
-0.0206684
-0.0251829
-0.0302257
-0.0348127
-0.0380925
-0.0395301
-0.0389325
-0.0365858
-0.0327406
-0.0279161
-0.0226072
-0.017217
-0.0120342
-0.00725523
-0.0029938
0.000655617
0.00369389
0.00606262
0.00776815
0.00859702
0.00840794
0.00716381
0.00473531
0.00252517
-0.000990916
-0.417131
-0.425049
-0.42845
-0.424028
-0.41052
-0.387668
-0.356381
-0.318865
-0.277707
-0.235531
-0.194893
-0.157938
-0.125653
-0.100679
-0.0797042
-0.06962
-0.0612355
-0.0568347
-0.0571268