/*--------------------------------*- C++ -*----------------------------------*\
  =========                 |
  \\      /  F ield         | OpenFOAM: The Open Source CFD Toolbox
   \\    /   O peration     | Website:  https://openfoam.org
    \\  /    A nd           | Version:  7
     \\/     M anipulation  |
\*---------------------------------------------------------------------------*/
FoamFile
{
    version     2.0;
    format      ascii;
    class       volVectorField;
    location    "95.001";
    object      U;
}
// * * * * * * * * * * * * * * * * * * * * * * * * * * * * * * * * * * * * * //

dimensions      [0 1 -1 0 0 0 0];

internalField   nonuniform List<vector> 
14800
(
(-0.0030195 0.0291963 -1.88499e-20)
(-0.0141646 0.0628637 2.46334e-21)
(-0.0322406 0.0813044 1.06741e-20)
(-0.0512872 0.0901384 -5.65675e-21)
(-0.0703283 0.0941447 -1.84444e-20)
(-0.0883798 0.0963785 1.74333e-20)
(-0.105081 0.0982199 7.32272e-22)
(-0.120344 0.0998572 2.06555e-21)
(-0.134179 0.100824 -9.8054e-21)
(-0.146614 0.100364 -1.2597e-21)
(-0.157635 0.0975905 7.44976e-21)
(-0.167174 0.0915446 6.42509e-21)
(-0.17512 0.0812497 2.43213e-20)
(-0.181446 0.0658575 -2.73221e-20)
(-0.18586 0.044005 1.1394e-20)
(-0.00397835 0.0321816 3.97532e-20)
(-0.0154389 0.0692887 -2.45333e-20)
(-0.0326414 0.0895554 -8.68824e-21)
(-0.0504643 0.0991647 1.84593e-21)
(-0.0681101 0.103268 1.72243e-20)
(-0.0846981 0.105219 3.45438e-20)
(-0.0998792 0.106596 -2.96477e-20)
(-0.113543 0.107702 5.39741e-21)
(-0.125675 0.108116 2.58965e-20)
(-0.136275 0.107084 2.82079e-20)
(-0.145301 0.103698 -3.53955e-20)
(-0.152635 0.09697 3.92507e-20)
(-0.158017 0.0858788 -5.7199e-20)
(-0.161497 0.0698033 5.53872e-20)
(-0.16192 0.0471605 1.2244e-20)
(-0.00509627 0.0346843 6.42313e-20)
(-0.0169655 0.0748852 1.14026e-19)
(-0.0331668 0.0969259 6.19226e-21)
(-0.0495049 0.10736 -3.13481e-20)
(-0.0653828 0.111627 -1.54522e-20)
(-0.080039 0.113346 -5.469e-20)
(-0.0931367 0.114291 3.87288e-20)
(-0.104533 0.114887 4.90108e-20)
(-0.114173 0.114776 -5.57571e-20)
(-0.122005 0.11321 -2.20661e-20)
(-0.127941 0.109259 7.58715e-20)
(-0.131812 0.101897 -2.61376e-20)
(-0.133091 0.0899578 2.52677e-20)
(-0.13217 0.0732542 3.17112e-20)
(-0.126103 0.0493416 5.109e-20)
(-0.00632869 0.0366565 -5.41703e-20)
(-0.0186915 0.0795457 -1.89073e-19)
(-0.0337929 0.103273 9.23551e-20)
(-0.0484144 0.11456 -9.00772e-21)
(-0.062176 0.119049 3.45844e-20)
(-0.0744502 0.120578 -1.0287e-19)
(-0.0849148 0.12111 3.64337e-21)
(-0.0933865 0.121206 1.65914e-21)
(-0.0997484 0.120576 3.88634e-20)
(-0.103884 0.118491 -4.63336e-20)
(-0.105622 0.113998 -1.28359e-19)
(-0.104804 0.106055 -4.67766e-20)
(-0.100368 0.0931615 -6.12461e-21)
(-0.0937749 0.0759466 1.49862e-20)
(-0.0787047 0.050029 -5.48753e-20)
(-0.00762924 0.0380694 -1.21216e-19)
(-0.0205618 0.0831881 8.92998e-20)
(-0.0344985 0.108472 5.64922e-21)
(-0.0472076 0.120615 9.58802e-21)
(-0.0585364 0.125364 -7.5686e-20)
(-0.0680053 0.126734 5.6762e-20)
(-0.0753113 0.126862 -2.08076e-20)
(-0.0802235 0.126444 3.36338e-20)
(-0.0825495 0.125278 -1.91963e-20)
(-0.0820844 0.122663 1.18792e-19)
(-0.0785272 0.117624 9.37243e-20)
(-0.0718814 0.109168 6.40583e-20)
(-0.0600226 0.0952382 -1.03821e-19)
(-0.0467401 0.0775047 2.97125e-20)
(-0.0202316 0.0493471 -3.08563e-20)
(-0.00895284 0.0389155 1.23144e-22)
(-0.0225223 0.0857601 1.55826e-19)
(-0.0352657 0.112422 -1.16015e-19)
(-0.0459073 0.125386 9.65184e-20)
(-0.0545255 0.130414 8.43207e-20)
(-0.0608009 0.131639 -4.81219e-20)
(-0.0644571 0.131354 3.3406e-20)
(-0.0652129 0.130392 -1.3615e-19)
(-0.0627867 0.128643 3.97861e-20)
(-0.0568752 0.125456 -9.07353e-20)
(-0.0469491 0.119838 4.87463e-20)
(-0.0334325 0.110839 -1.16349e-19)
(-0.0125223 0.0960827 -3.01757e-20)
(0.00852909 0.07762 -5.94755e-20)
(0.0482098 0.0473559 7.4041e-20)
(-0.010259 0.0392096 -1.37926e-20)
(-0.0245226 0.0872405 -1.6006e-19)
(-0.0360807 0.115051 1.47523e-20)
(-0.0445421 0.128757 2.03495e-21)
(-0.0502146 0.13405 2.39657e-20)
(-0.0529487 0.135125 2.12251e-19)
(-0.0525051 0.134402 -1.68083e-20)
(-0.0485534 0.132846 1.11509e-19)
(-0.0407119 0.130444 1.37335e-20)
(-0.0285841 0.126609 8.25492e-21)
(-0.0113161 0.120343 -3.61945e-20)
(0.0100838 0.110769 8.80798e-20)
(0.0417423 0.0952528 2.25982e-19)
(0.0709914 0.0762551 -2.59477e-19)
(0.127514 0.0439676 -9.54339e-20)
(-0.0115144 0.0389863 9.16946e-20)
(-0.0265192 0.0876425 1.58493e-19)
(-0.0369322 0.116317 -4.26667e-20)
(-0.0431421 0.130633 -7.37313e-20)
(-0.0456759 0.136142 -7.34201e-20)
(-0.0445621 0.137038 9.7178e-21)
(-0.0396094 0.135837 6.81602e-20)
(-0.0304436 0.133621 -2.17233e-19)
(-0.0165731 0.130476 -3.68051e-21)
(0.00247346 0.125887 -6.74544e-20)
(0.0280461 0.118872 -1.68089e-19)
(0.0580016 0.108683 1.75515e-19)
(0.102581 0.0922375 -2.46361e-19)
(0.139529 0.0730775 1.36848e-19)
(0.217633 0.0393034 1.03567e-19)
(-0.0126958 0.0383018 -5.01005e-20)
(-0.028477 0.087016 5.88264e-20)
(-0.0378088 0.116209 -1.05752e-19)
(-0.041731 0.13095 8.99287e-20)
(-0.0409693 0.136582 1.21959e-19)
(-0.0357348 0.137245 1.45599e-19)
(-0.0258931 0.135511 -5.94068e-20)
(-0.0110329 0.132561 -4.63749e-20)
(0.00946213 0.128574 2.17763e-19)
(0.036094 0.123108 1.59787e-19)
(0.0709871 0.115246 1.53387e-19)
(0.109986 0.104203 -2.32242e-19)
(0.170051 0.0870773 6.92198e-20)
(0.213607 0.0672819 7.06334e-20)
(0.318556 0.0333689 -1.9128e-21)
(-0.013792 0.0372303 -2.19255e-19)
(-0.0303726 0.0854399 -2.8403e-19)
(-0.0386972 0.114753 1.06229e-19)
(-0.0403138 0.129676 1.43333e-19)
(-0.0361227 0.135293 -2.96452e-19)
(-0.0265106 0.135641 -1.35193e-20)
(-0.0114024 0.133309 -1.17662e-19)
(0.00964966 0.129552 2.83616e-19)
(0.0374134 0.124637 -1.27025e-19)
(0.0723649 0.118172 -1.52774e-20)
(0.117745 0.109465 1.03646e-19)
(0.166377 0.0970955 2.65012e-19)
(0.244691 0.0801756 1.19561e-19)
(0.293987 0.0584792 -1.00388e-19)
(0.430525 0.0260964 -1.99436e-20)
(-0.0148053 0.0358568 1.52316e-19)
(-0.0321899 0.0830164 2.03367e-19)
(-0.0395758 0.11201 -1.3914e-19)
(-0.0388655 0.126817 -4.74115e-19)
(-0.031107 0.132237 -5.19722e-20)
(-0.0168423 0.132163 1.52234e-21)
(0.00395759 0.129164 1.5842e-19)
(0.0317904 0.124542 -3.56055e-19)
(0.0676227 0.118654 -1.65078e-20)
(0.111869 0.111095 -1.94194e-19)
(0.169171 0.101734 -2.62292e-19)
(0.22868 0.0874554 -1.74627e-19)
(0.327585 0.0720489 1.75113e-20)
(0.383262 0.047232 -6.1457e-20)
(0.554139 0.0181238 -2.01503e-19)
(-0.0157505 0.0342727 8.39565e-20)
(-0.0339187 0.0798696 1.466e-19)
(-0.0404033 0.108077 -6.70491e-20)
(-0.0373118 0.122423 -6.0453e-20)
(-0.025804 0.127425 3.86199e-19)
(-0.00653921 0.126802 -3.99474e-19)
(0.0205017 0.123073 2.06995e-20)
(0.0559076 0.117567 9.37284e-20)
(0.100907 0.110735 6.96964e-20)
(0.155886 0.102069 4.98496e-20)
(0.226843 0.0924675 8.88308e-20)
(0.299656 0.0759867 -6.94591e-20)
(0.420048 0.0631663 2.16038e-19)
(0.485208 0.0350887 1.82098e-19)
(0.687686 0.0107429 1.26099e-19)
(-0.0166536 0.0325708 3.60622e-20)
(-0.0355498 0.0761374 -2.9681e-19)
(-0.0411084 0.103078 4.31777e-19)
(-0.0355063 0.116588 5.33947e-19)
(-0.0199673 0.120926 -1.79689e-19)
(0.00479416 0.119623 6.43828e-20)
(0.0388561 0.115129 -1.67322e-19)
(0.0829733 0.108785 -2.81419e-20)
(0.138697 0.101159 -3.23907e-19)
(0.2065 0.0915831 7.12981e-20)
(0.293084 0.0822123 2.83872e-19)
(0.382786 0.0641583 -3.98034e-20)
(0.523103 0.0542113 9.90658e-20)
(0.602631 0.0243185 -3.96232e-20)
(0.826207 0.00602729 1.25106e-20)
(-0.0175469 0.0308378 -1.77294e-19)
(-0.037066 0.0719614 -1.98418e-19)
(-0.0415749 0.0971648 -4.7237e-19)
(-0.0332053 0.109456 -3.37446e-19)
(-0.0131801 0.112879 -2.65583e-19)
(0.0178231 0.110785 3.01869e-19)
(0.0600452 0.105547 5.99424e-20)
(0.114506 0.0985222 1.32331e-19)
(0.183087 0.0904284 7.33619e-20)
(0.266448 0.080465 -2.05348e-19)
(0.370649 0.0717016 -1.10709e-19)
(0.480803 0.05391 3.47287e-20)
(0.636724 0.0462723 -4.21799e-19)
(0.734188 0.0172336 9.7911e-20)
(0.960875 0.00538651 -2.61756e-19)
(-0.0184643 0.0291482 9.08256e-20)
(-0.0384322 0.0674774 6.92202e-19)
(-0.0416261 0.0905056 3.49935e-19)
(-0.0300422 0.101215 1.62786e-19)
(-0.00481629 0.103502 4.13331e-19)
(0.0335358 0.100558 -3.61455e-19)
(0.0855441 0.0946988 -1.50461e-19)
(0.152577 0.0873208 -1.46378e-19)
(0.236699 0.0792918 7.14649e-19)
(0.338593 0.069877 2.36442e-19)
(0.461898 0.0621003 -1.87583e-19)
(0.593742 0.0470063 1.04596e-19)
(0.758645 0.0408133 -1.41519e-19)
(0.872226 0.015363 1.53706e-19)
(1.08145 0.0088325 7.44874e-20)
(-0.0194338 0.0275579 -8.72588e-21)
(-0.0395827 0.0628062 -3.69118e-19)
(-0.0410098 0.0832816 -3.34568e-19)
(-0.0255077 0.0921008 -1.15727e-19)
(0.00598569 0.0930924 -2.03317e-19)
(0.0532629 0.0893394 2.09697e-19)
(0.117254 0.083136 1.02534e-19)
(0.199641 0.0759559 -1.55623e-19)
(0.302245 0.0687632 1.36975e-21)
(0.424992 0.0611866 -1.24017e-19)
(0.567399 0.0549684 2.84365e-20)
(0.717696 0.0445277 4.02932e-20)
(0.883262 0.0390479 3.69067e-20)
(1.00432 0.0188358 9.31583e-20)
(1.17983 0.0151421 -2.57147e-19)
(-0.0204692 0.0260988 -1.81148e-19)
(-0.0404101 0.0580457 1.48655e-19)
(-0.0393861 0.0756759 1.3966e-19)
(-0.018939 0.0823842 1.75798e-20)
(0.0203217 0.0820313 1.40397e-19)
(0.0786377 0.0776574 -1.89381e-19)
(0.157355 0.0715922 1.97669e-19)
(0.258161 0.0654242 3.28586e-20)
(0.381757 0.0600929 -2.29216e-19)
(0.525787 0.0556861 7.12697e-21)
(0.684467 0.0518093 -2.38248e-19)
(0.845051 0.04671 2.1874e-19)
(1.00196 0.0412167 3.12995e-20)
(1.11823 0.0264678 5.15036e-20)
(1.2523 0.0223046 2.58337e-19)
(-0.0215621 0.0247755 5.06885e-19)
(-0.0407564 0.0532654 -1.99369e-19)
(-0.0363238 0.0678645 -1.05661e-19)
(-0.00952886 0.0723636 -1.29669e-19)
(0.0394818 0.0707675 -3.50905e-19)
(0.111474 0.0661593 -1.15715e-19)
(0.208008 0.0609589 2.30106e-19)
(0.330006 0.0568661 -1.5356e-19)
(0.475624 0.054579 -6.06102e-19)
(0.638313 0.0543128 2.25699e-19)
(0.806755 0.0534106 5.45579e-20)
(0.966282 0.0529144 -1.44323e-19)
(1.1057 0.0465263 8.50719e-20)
(1.20652 0.0365506 -8.44012e-20)
(1.30017 0.0289017 1.03889e-19)
(-0.0226742 0.0235653 -8.20084e-20)
(-0.0404078 0.0485039 2.61794e-19)
(-0.031306 0.0600071 2.92238e-19)
(0.00364601 0.0623506 2.24461e-19)
(0.0648666 0.0598022 3.45493e-19)
(0.153562 0.0555803 3.06591e-19)
(0.270923 0.0522223 -3.47799e-19)
(0.415736 0.0514084 4.86207e-19)
(0.581782 0.0532499 3.86822e-19)
(0.756952 0.0573977 -3.65689e-19)
(0.925622 0.0594824 2.82835e-19)
(1.07273 0.0617734 -7.61013e-20)
(1.18848 0.0538121 -1.41683e-19)
(1.26789 0.0477335 -1.96199e-19)
(1.32682 0.0335546 -9.95684e-20)
(-0.0237358 0.0224243 -2.26518e-19)
(-0.0390927 0.0437671 4.4965e-19)
(-0.023746 0.0522404 -2.45253e-20)
(0.0215736 0.052657 4.63022e-20)
(0.0978596 0.0496659 -6.28887e-20)
(0.206393 0.0467021 -4.86678e-21)
(0.346856 0.0463631 2.9587e-19)
(0.513974 0.0499524 -2.27703e-19)
(0.695532 0.0565251 2.32241e-19)
(0.874138 0.0645254 2.94323e-19)
(1.03274 0.0688184 -1.92073e-19)
(1.15908 0.0717053 1.54862e-19)
(1.24905 0.0622839 -5.94613e-20)
(1.30558 0.0589499 1.47268e-19)
(1.33758 0.0356109 7.0088e-20)
(-0.0246514 0.0212953 -3.18064e-19)
(-0.0364852 0.0390284 3.48005e-20)
(-0.013011 0.0446771 1.19789e-19)
(0.0452412 0.0435869 -1.92925e-19)
(0.139675 0.0409003 -2.20319e-19)
(0.270843 0.040304 1.35257e-19)
(0.43514 0.0442126 -2.53089e-19)
(0.621167 0.0529455 2.00419e-19)
(0.810304 0.0640528 -8.35977e-20)
(0.982309 0.0746517 -3.19562e-19)
(1.12246 0.0798315 -1.85938e-19)
(1.22416 0.0815771 2.74051e-19)
(1.28981 0.0715709 -1.17198e-19)
(1.32546 0.0683037 -7.17607e-20)
(1.3373 0.0343388 -1.22719e-19)
(-0.0253013 0.020108 6.25378e-19)
(-0.0322197 0.0342406 -7.68502e-19)
(0.00154983 0.0374139 -1.75484e-19)
(0.0755641 0.0354376 -1.03164e-19)
(0.191196 0.0340478 6.40427e-20)
(0.346874 0.0370952 -2.55205e-19)
(0.533433 0.0462846 1.48478e-19)
(0.731999 0.0602271 7.42221e-20)
(0.919206 0.0748475 -4.98578e-19)
(1.07587 0.0864661 4.11616e-19)
(1.19275 0.091156 1.09728e-19)
(1.26993 0.0909796 -2.95304e-19)
(1.31453 0.0808367 1.71846e-19)
(1.3335 0.074004 1.11537e-19)
(1.33889 0.0498026 2.58717e-20)
(-0.0255393 0.0187858 -4.21348e-19)
(-0.0259061 0.0293552 6.99335e-19)
(0.0205744 0.0305457 6.80121e-20)
(0.113315 0.028513 -2.50276e-19)
(0.252808 0.0296441 3.08692e-19)
(0.433298 0.0376257 -1.87086e-19)
(0.637826 0.0526325 2.02548e-20)
(0.84045 0.0710619 -2.4104e-19)
(1.01667 0.0876516 4.38229e-19)
(1.15215 0.0987917 -1.96498e-19)
(1.24461 0.102003 5.4614e-20)
(1.29984 0.0998401 -8.55352e-20)
(1.32739 0.0888059 -8.76693e-21)
(1.3359 0.0819575 1.17609e-20)
(1.33458 0.0581409 2.70452e-20)
(-0.0251994 0.0172601 9.0471e-20)
(-0.0171398 0.0243405 -4.14241e-19)
(0.0446612 0.0241861 -3.62265e-19)
(0.159052 0.0231458 9.60221e-20)
(0.324241 0.0282001 -2.50573e-19)
(0.527703 0.0421755 -2.31734e-19)
(0.743444 0.0628148 7.32607e-20)
(0.941118 0.0843799 3.44992e-19)
(1.0994 0.101306 1.1429e-19)
(1.21116 0.110832 -2.25248e-19)
(1.28069 0.112089 -6.20406e-20)
(1.31761 0.10788 3.19987e-20)
(1.33267 0.0966115 1.79955e-19)
(1.33361 0.088437 -4.0457e-20)
(1.32848 0.0673067 -4.71742e-20)
(-0.0241043 0.0154825 -4.9648e-20)
(-0.00551147 0.0191992 5.4404e-19)
(0.0743447 0.0184935 2.55217e-19)
(0.213049 0.01972 9.02706e-20)
(0.404438 0.0301485 1.77813e-19)
(0.626641 0.0506646 3.44091e-19)
(0.845368 0.0760195 1.6125e-19)
(1.0302 0.0990898 -3.57383e-19)
(1.16644 0.114965 -2.26227e-19)
(1.25465 0.122194 3.889e-19)
(1.3042 0.121322 -3.82746e-20)
(1.32678 0.115394 -2.59703e-20)
(1.33279 0.103739 -2.28668e-19)
(1.329 0.0951537 -2.93273e-20)
(1.32191 0.0753615 2.08792e-19)
(-0.0220718 0.0134316 -8.5643e-20)
(0.00938101 0.0139862 -6.87401e-19)
(0.110068 0.0136977 -5.17403e-20)
(0.275194 0.0186746 -1.45469e-19)
(0.491505 0.0357536 -3.93707e-19)
(0.72612 0.0626517 1.31705e-19)
(0.939526 0.0912927 -3.22534e-19)
(1.10577 0.114303 1.46625e-19)
(1.21855 0.128129 -1.28553e-20)
(1.28514 0.132745 -2.20257e-19)
(1.31823 0.129836 1.42661e-19)
(1.33001 0.122424 -7.33401e-20)
(1.32984 0.11067 9.33658e-20)
(1.3231 0.101478 1.55294e-19)
(1.31459 0.0829721 -3.03667e-20)
(-0.0189192 0.0111176 -4.03954e-22)
(0.0279205 0.00882265 1.13836e-19)
(0.152143 0.0101205 1.09582e-19)
(0.344898 0.0204663 -1.04553e-20)
(0.582819 0.0450246 5.53621e-20)
(0.822264 0.0774472 -4.16525e-19)
(1.0232 0.107753 9.86015e-20)
(1.16755 0.129411 -6.35235e-20)
(1.25746 0.140573 4.96296e-20)
(1.3053 0.142537 1.24585e-19)
(1.32539 0.137779 -1.5104e-19)
(1.32934 0.129194 3.8088e-20)
(1.32504 0.117366 3.34057e-20)
(1.31647 0.107727 -4.17995e-20)
(1.30739 0.0903509 2.81664e-20)
(-0.0144674 0.0085833 1.98532e-19)
(0.0504555 0.00390461 3.51006e-19)
(0.200695 0.00817982 5.37998e-20)
(0.42101 0.025488 -1.29889e-19)
(0.675335 0.0576936 3.78127e-19)
(0.911889 0.0942838 2.52717e-19)
(1.09507 0.124711 -9.13399e-20)
(1.21639 0.144062 3.58331e-21)
(1.28531 0.152257 -8.69175e-20)
(1.31758 0.151697 2.45698e-20)
(1.32774 0.145336 2.01208e-20)
(1.32616 0.135808 -8.62922e-20)
(1.31916 0.123981 -1.77826e-19)
(1.30956 0.11389 1.1089e-19)
(1.30005 0.0974636 -1.65723e-19)
(-0.0085437 0.00590285 -2.16822e-19)
(0.0772799 -0.000494089 -1.14076e-19)
(0.255588 0.00836801 -3.05663e-19)
(0.501834 0.0339705 4.83599e-19)
(0.766014 0.073283 -4.21798e-19)
(0.992801 0.112457 1.72246e-19)
(1.15497 0.141687 1.07194e-19)
(1.25372 0.158096 1.18764e-19)
(1.30425 0.163251 7.3996e-20)
(1.324 0.160388 -1.46022e-20)
(1.3268 0.152658 -7.26187e-20)
(1.32141 0.142383 -1.71058e-19)
(1.31269 0.130546 8.95175e-20)
(1.30247 0.120016 8.34293e-20)
(1.2928 0.104452 1.76307e-19)
(-0.000986333 0.00317931 -1.9366e-19)
(0.108607 -0.00402449 9.45655e-20)
(0.316358 0.0111971 9.74406e-20)
(0.585255 0.0459225 -2.11909e-19)
(0.852219 0.0912228 8.21834e-20)
(1.06381 0.1314 -7.29352e-20)
(1.20351 0.158387 -1.11758e-19)
(1.28125 0.171484 -1.26836e-19)
(1.31621 0.173681 4.71636e-20)
(1.32619 0.168767 1.4464e-19)
(1.32364 0.159874 2.08735e-19)
(1.31567 0.148983 8.04399e-20)
(1.30585 0.137106 -5.26819e-20)
(1.29531 0.126131 -5.6171e-20)
(1.28553 0.111298 -4.68864e-20)
(0.00835172 0.000541639 1.86835e-19)
(0.144536 -0.00627172 -9.36126e-20)
(0.382167 0.0171192 5.3896e-20)
(0.668983 0.0611405 3.0671e-19)
(0.931952 0.110954 2.93715e-19)
(1.12457 0.150693 -2.73172e-19)
(1.24177 0.17466 1.33704e-19)
(1.30068 0.184279 1.55209e-19)
(1.32282 0.183691 -2.64619e-19)
(1.32534 0.176972 5.44156e-20)
(1.31898 0.167074 -1.20353e-19)
(1.3093 0.15565 1.93088e-20)
(1.29879 0.143672 -5.99177e-20)
(1.28807 0.13224 1.07088e-19)
(1.27826 0.118041 -1.15301e-19)
(0.0195962 -0.00185697 -1.69079e-19)
(0.185013 -0.00677297 1.15234e-19)
(0.451818 0.0264483 1.55886e-19)
(0.750815 0.0792768 -4.05008e-20)
(1.00391 0.131989 -3.70354e-19)
(1.17534 0.170049 -1.31679e-19)
(1.27101 0.190453 -2.06125e-19)
(1.31355 0.19658 8.81714e-20)
(1.32539 0.193419 -1.23011e-20)
(1.32234 0.18511 -1.40313e-19)
(1.3133 0.17432 -1.2914e-19)
(1.30249 0.162404 2.41663e-20)
(1.29153 0.150249 4.86205e-20)
(1.28076 0.138351 -9.85459e-20)
(1.27093 0.124675 4.93556e-20)
(0.0328444 -0.00384059 7.22239e-20)
(0.229801 -0.00504759 1.62937e-21)
(0.523839 0.0393155 -4.68516e-19)
(0.828858 0.0999197 -3.37442e-20)
(1.06744 0.153932 2.64936e-19)
(1.21676 0.189285 2.68276e-19)
(1.29255 0.205779 1.83961e-19)
(1.32121 0.208499 -3.40421e-20)
(1.32493 0.202987 5.64853e-20)
(1.31777 0.193259 -1.85593e-21)
(1.30689 0.181647 1.02542e-19)
(1.29533 0.169244 4.01506e-20)
(1.28411 0.156831 8.64816e-20)
(1.27333 0.144457 -6.44509e-20)
(1.26351 0.131203 -4.77929e-20)
(0.0481572 -0.0052117 -1.27003e-20)
(0.278451 -0.000637849 1.32307e-19)
(0.596617 0.0556716 2.45969e-19)
(0.901637 0.122655 8.28813e-20)
(1.12234 0.17647 -2.37707e-19)
(1.24968 0.208295 -2.97812e-19)
(1.30761 0.22069 1.22173e-19)
(1.32473 0.220147 -7.42148e-20)
(1.32219 0.212489 2.10324e-19)
(1.31206 0.201469 5.82048e-21)
(1.29991 0.189068 -5.32608e-20)
(1.28787 0.176161 -2.01989e-20)
(1.27649 0.163405 9.76936e-20)
(1.26577 0.150552 8.55652e-20)
(1.25596 0.137616 9.09941e-20)
(0.0655482 -0.00575361 1.89559e-19)
(0.330306 0.00684542 -2.04469e-19)
(0.66854 0.0753251 1.2904e-19)
(0.968122 0.147098 1.81824e-19)
(1.16881 0.199366 1.57478e-19)
(1.27505 0.227031 6.36369e-20)
(1.31728 0.235256 3.39345e-20)
(1.32501 0.231622 -1.33239e-20)
(1.3177 0.221992 -9.6548e-20)
(1.30544 0.209765 3.64429e-20)
(1.29245 0.196579 8.72928e-20)
(1.2801 0.183133 3.55478e-20)
(1.26866 0.169958 -3.39224e-20)
(1.25804 0.156623 -3.57646e-20)
(1.24825 0.143901 -4.29738e-20)
(0.0849731 -0.00523645 -1.02e-19)
(0.384527 0.0176836 7.38939e-20)
(0.738123 0.0979909 -8.26606e-21)
(1.02768 0.172906 -1.91186e-19)
(1.20725 0.22244 -5.02341e-20)
(1.29377 0.245475 1.12377e-19)
(1.3225 0.249546 -1.00467e-19)
(1.32269 0.243001 6.81738e-21)
(1.31182 0.231537 -6.2211e-21)
(1.29809 0.21815 -3.34036e-20)
(1.28454 0.204164 -5.53728e-20)
(1.27203 0.190136 -7.85857e-20)
(1.26059 0.176469 -3.01337e-20)
(1.2501 0.162654 5.19696e-20)
(1.24034 0.150042 1.23076e-20)
(0.106319 -0.00342734 -1.30981e-19)
(0.440139 0.0320271 -1.67864e-20)
(0.804097 0.123333 -8.4195e-20)
(1.08 0.199774 7.89623e-20)
(1.23821 0.245551 -9.29085e-20)
(1.30673 0.263632 -4.05929e-20)
(1.32403 0.263626 1.05404e-20)
(1.3183 0.254336 -1.59882e-20)
(1.30482 0.241141 3.21402e-20)
(1.29008 0.226612 3.39855e-22)
(1.2762 0.211798 2.23775e-20)
(1.26362 0.197139 3.91201e-20)
(1.25225 0.18292 4.55296e-20)
(1.24192 0.168628 -2.0253e-20)
(1.23222 0.156021 -1.49237e-20)
(0.1294 -0.00010452 7.86686e-20)
(0.496093 0.0498922 8.35299e-20)
(0.865442 0.150991 2.9219e-20)
(1.12503 0.227426 -4.62924e-20)
(1.2623 0.26859 1.02715e-20)
(1.31469 0.281511 7.07822e-20)
(1.32249 0.277541 -4.8693e-20)
(1.31219 0.265656 -4.26404e-20)
(1.29685 0.250799 -1.37172e-20)
(1.28146 0.235125 8.7017e-21)
(1.26741 0.219446 -4.83984e-20)
(1.25486 0.204108 1.04247e-20)
(1.24362 0.189288 2.73481e-20)
(1.23347 0.174521 -1.08082e-20)
(1.22386 0.161816 -8.57191e-21)
(0.153955 0.00492693 -5.17007e-20)
(0.551326 0.0711717 -3.55391e-20)
(0.921395 0.1806 -6.92717e-20)
(1.16287 0.255615 -1.11964e-20)
(1.28013 0.291468 -7.28445e-21)
(1.31832 0.29912 -7.70004e-20)
(1.31836 0.291322 2.4434e-20)
(1.30461 0.276965 1.48518e-20)
(1.28799 0.260489 -2.47667e-20)
(1.27223 0.243652 -1.50275e-20)
(1.25815 0.227071 -6.1381e-22)
(1.24571 0.211007 -1.44167e-20)
(1.23467 0.195547 -2.21141e-20)
(1.22476 0.180303 -1.95235e-20)
(1.21529 0.167401 1.37791e-20)
(0.179652 0.0118204 -2.37557e-20)
(0.604816 0.0956547 8.70456e-21)
(0.971426 0.2118 1.17687e-20)
(1.19377 0.28411 1.21529e-20)
(1.2923 0.314101 2.07089e-20)
(1.3182 0.316459 1.46027e-20)
(1.31202 0.304974 -4.09775e-21)
(1.29574 0.288249 1.42681e-20)
(1.27831 0.270174 -7.39233e-22)
(1.2624 0.25215 -7.60532e-23)
(1.24841 0.234627 5.79468e-21)
(1.23616 0.217796 -2.69715e-21)
(1.22537 0.201664 1.84932e-21)
(1.21576 0.185932 7.58014e-21)
(1.20652 0.172745 -6.08398e-21)
(0.206104 0.0206766 -1.50946e-20)
(0.655627 0.123047 -3.90711e-21)
(1.01521 0.244234 1.73696e-20)
(1.21803 0.312692 7.58455e-21)
(1.29935 0.336413 2.1023e-20)
(1.3148 0.333514 1.41255e-20)
(1.30374 0.318485 -4.71976e-22)
(1.28569 0.299471 1.65624e-20)
(1.26783 0.279807 -8.20622e-21)
(1.25195 0.260568 8.93785e-22)
(1.23816 0.242068 5.28156e-21)
(1.22618 0.224435 -2.39227e-21)
(1.21572 0.207601 2.2783e-21)
(1.20646 0.191354 8.08449e-21)
(1.19755 0.177818 -2.91987e-21)
(0.23288 0.0315383 -2.17348e-20)
(0.702936 0.152988 -6.17671e-20)
(1.05257 0.277554 -6.91487e-20)
(1.23602 0.341156 -2.55226e-21)
(1.30179 0.358322 -1.01512e-20)
(1.30849 0.350256 -6.95595e-20)
(1.29373 0.331822 3.40517e-20)
(1.27455 0.310584 3.50974e-21)
(1.25655 0.289329 -2.12803e-20)
(1.24087 0.26885 -1.86147e-20)
(1.22739 0.249345 2.65571e-21)
(1.21576 0.230882 -1.03816e-20)
(1.20568 0.21332 -1.10883e-20)
(1.19684 0.196522 -1.5233e-20)
(1.18831 0.182593 9.02138e-21)
(0.259519 0.044389 8.17998e-20)
(0.746051 0.185071 5.97968e-20)
(1.08349 0.311417 2.51373e-20)
(1.24812 0.369308 -3.51971e-20)
(1.30005 0.379744 1.62306e-20)
(1.29959 0.36664 3.68904e-20)
(1.28215 0.344933 -2.84522e-20)
(1.26236 0.321524 -5.45376e-20)
(1.24448 0.298676 -4.09673e-21)
(1.22915 0.276935 3.06824e-20)
(1.21607 0.256408 -3.54619e-20)
(1.20487 0.237097 1.48713e-20)
(1.19526 0.218787 6.78929e-21)
(1.18688 0.201411 1.18487e-21)
(1.1787 0.187058 1.08576e-22)
(0.28555 0.0591571 -9.91119e-20)
(0.784422 0.218854 -6.24523e-20)
(1.10804 0.345484 -9.73672e-20)
(1.25471 0.396958 8.51804e-20)
(1.29454 0.400587 -8.8725e-20)
(1.28837 0.382604 -2.0827e-20)
(1.2691 0.357751 -1.6608e-21)
(1.24914 0.332217 1.31612e-21)
(1.23162 0.307777 3.97793e-20)
(1.21677 0.284763 -4.20991e-20)
(1.20421 0.263204 3.34884e-20)
(1.19352 0.243034 1.29589e-20)
(1.18445 0.223971 3.07483e-20)
(1.17659 0.206041 -8.07002e-22)
(1.16861 0.19122 -8.50556e-21)
(0.310507 0.0757193 1.42597e-20)
(0.817646 0.253877 1.81543e-20)
(1.12633 0.379421 -3.3116e-20)
(1.25617 0.423926 -1.28748e-19)
(1.28558 0.420753 -3.1654e-20)
(1.27501 0.398071 8.19841e-20)
(1.25467 0.370196 -6.27841e-20)
(1.23492 0.342584 -2.99141e-20)
(1.21796 0.316557 9.11429e-21)
(1.20374 0.292268 -8.98972e-21)
(1.19179 0.269676 -4.80555e-20)
(1.1817 0.24864 -2.31564e-20)
(1.17326 0.228822 -3.03357e-21)
(1.16599 0.210455 6.34163e-21)
(1.15812 0.195103 4.70271e-21)
(0.333946 0.0939032 1.9005e-19)
(0.845455 0.289679 -2.37563e-19)
(1.13857 0.412905 1.59711e-19)
(1.25286 0.450029 8.08934e-20)
(1.2735 0.440133 2.26726e-19)
(1.25969 0.412953 5.66512e-21)
(1.23893 0.382179 5.46314e-20)
(1.21972 0.352537 1.48751e-20)
(1.2035 0.32494 -9.01773e-20)
(1.19005 0.299383 3.17829e-20)
(1.17882 0.275767 2.37822e-20)
(1.16944 0.253866 3.10524e-20)
(1.16172 0.233296 -2.79175e-20)
(1.15497 0.214601 -5.86537e-21)
(1.1475 0.198668 -7.51739e-23)
(0.355459 0.113493 -2.5333e-20)
(0.867692 0.325805 2.76788e-19)
(1.14499 0.445617 2.0717e-19)
(1.24512 0.475087 3.43315e-20)
(1.25854 0.458614 -2.11861e-19)
(1.24255 0.427149 -1.25313e-19)
(1.22193 0.3936 3.84984e-20)
(1.20354 0.361984 -2.2061e-20)
(1.18827 0.332845 4.95939e-20)
(1.17572 0.30604 1.10127e-20)
(1.16533 0.28142 1.04668e-20)
(1.15674 0.258662 -1.63313e-20)
(1.14979 0.237405 6.72296e-21)
(1.14355 0.218376 2.24377e-20)
(1.13676 0.20186 1.72842e-20)
(0.374682 0.134236 2.1309e-19)
(0.884299 0.361806 -2.28179e-19)
(1.14585 0.477253 -3.45612e-19)
(1.2333 0.498918 2.52275e-20)
(1.24095 0.476074 1.69755e-19)
(1.2237 0.440553 1.57549e-19)
(1.2037 0.404356 7.59739e-20)
(1.1864 0.370818 6.23092e-21)
(1.17231 0.340187 1.02462e-20)
(1.16078 0.312171 1.39681e-21)
(1.15132 0.286578 2.60649e-20)
(1.14361 0.262995 3.86171e-21)
(1.13746 0.241096 -1.41353e-21)
(1.13184 0.221745 -6.84292e-21)
(1.1258 0.204632 -7.73187e-21)
(0.391306 0.155848 -2.75066e-19)
(0.895301 0.397249 2.10205e-19)
(1.14145 0.507518 1.80678e-19)
(1.2177 0.521345 -1.19699e-19)
(1.22093 0.492387 -2.40023e-19)
(1.20324 0.45305 -4.73365e-20)
(1.18432 0.414344 -1.06623e-19)
(1.16841 0.378948 4.12253e-20)
(1.15561 0.346873 -7.66776e-21)
(1.14523 0.317721 -2.50893e-20)
(1.1368 0.291183 -1.02167e-20)
(1.13007 0.266816 -3.92603e-21)
(1.12477 0.244332 -9.83486e-21)
(1.11984 0.224663 -4.64281e-22)
(1.11466 0.206965 -4.23286e-21)
(0.40508 0.178024 3.9177e-19)
(0.900796 0.431718 -2.49901e-19)
(1.1321 0.536131 1.30828e-19)
(1.19862 0.542194 1.20322e-19)
(1.19868 0.507419 2.03556e-19)
(1.18132 0.464517 -1.19515e-19)
(1.1639 0.423439 4.17824e-20)
(1.14957 0.386291 3.98668e-20)
(1.13818 0.352839 -2.99273e-20)
(1.12909 0.322602 -4.01355e-21)
(1.12182 0.29518 2.3683e-21)
(1.11613 0.270084 -5.79464e-21)
(1.11175 0.247067 -5.99334e-21)
(1.10758 0.227097 -2.09458e-21)
(1.10332 0.20884 1.1826e-20)
(0.415818 0.20044 -2.16989e-19)
(0.900944 0.464816 1.37802e-20)
(1.11813 0.562827 8.60121e-20)
(1.17636 0.561297 -1.79548e-19)
(1.17438 0.52103 6.89269e-20)
(1.15806 0.474827 1.4925e-20)
(1.14244 0.431542 -5.18195e-20)
(1.12989 0.392748 -2.01153e-20)
(1.12009 0.358007 9.55352e-21)
(1.11241 0.326755 1.62302e-20)
(1.10639 0.298515 8.55321e-21)
(1.10183 0.272754 -8.25118e-21)
(1.09842 0.249262 -4.56127e-21)
(1.09507 0.229012 1.50279e-20)
(1.09181 0.210247 7.72408e-21)
(0.423393 0.222766 4.10237e-20)
(0.895961 0.496165 -2.22467e-19)
(1.09988 0.587358 -2.82406e-19)
(1.15121 0.57849 2.10299e-19)
(1.14827 0.533092 -1.11519e-19)
(1.13353 0.483849 5.9769e-20)
(1.12 0.438545 3.25169e-20)
(1.10944 0.398228 1.32395e-20)
(1.10138 0.362299 1.35267e-20)
(1.09523 0.330116 -4.24218e-21)
(1.09057 0.301134 -1.67189e-21)
(1.08721 0.274785 4.34088e-21)
(1.08482 0.250881 -6.71934e-21)
(1.08234 0.230378 -4.24319e-21)
(1.08016 0.211176 -3.31731e-20)
(0.427747 0.244667 1.64077e-19)
(0.886129 0.525421 4.16388e-19)
(1.07767 0.609478 -7.073e-20)
(1.12342 0.5936 -1.3139e-19)
(1.12049 0.543482 1.98478e-19)
(1.10783 0.491469 5.73891e-20)
(1.09668 0.444339 -9.98435e-22)
(1.08828 0.402641 -1.50345e-20)
(1.08211 0.365641 1.69809e-21)
(1.07761 0.332625 6.45123e-21)
(1.0744 0.302988 -7.83096e-21)
(1.0723 0.276134 -3.19231e-21)
(1.07099 0.251888 2.52918e-20)
(1.06943 0.231164 9.36818e-21)
(1.06841 0.211615 3.28302e-20)
(0.428894 0.265815 -7.29266e-20)
(0.8718 0.552302 1.57634e-19)
(1.05175 0.628926 1.33263e-19)
(1.09329 0.606464 -6.18361e-20)
(1.09123 0.552063 -3.44767e-20)
(1.08108 0.49758 -4.07187e-20)
(1.07256 0.448826 -6.64349e-21)
(1.06649 0.405906 -6.85579e-21)
(1.06235 0.367964 7.39235e-21)
(1.05961 0.334224 -1.9442e-20)
(1.05793 0.30403 2.66526e-20)
(1.05717 0.276764 -1.59103e-20)
(1.05696 0.252248 -4.15872e-20)
(1.05638 0.231333 5.77542e-20)
(1.05658 0.211546 -4.23014e-20)
(0.426928 0.285869 -1.44059e-19)
(0.853344 0.576607 -5.2435e-19)
(1.02238 0.645478 1.72374e-20)
(1.0611 0.616884 -7.15593e-20)
(1.06065 0.558719 -1.14467e-19)
(1.05341 0.502078 3.38772e-20)
(1.04774 0.451914 -5.72655e-21)
(1.04416 0.407945 -1.11446e-20)
(1.04215 0.369204 -1.47217e-20)
(1.04127 0.334861 3.12281e-20)
(1.04122 0.304217 -1.59793e-20)
(1.04185 0.27664 -1.04007e-20)
(1.04279 0.251929 -4.84993e-21)
(1.04322 0.230847 -1.63957e-20)
(1.04468 0.210951 1.54506e-20)
(0.421986 0.304467 1.28503e-20)
(0.830969 0.598053 2.74975e-19)
(0.990037 0.659086 1.13016e-19)
(1.02716 0.624674 5.68507e-20)
(1.02897 0.563326 3.13092e-20)
(1.02496 0.504868 -2.70636e-21)
(1.02233 0.45352 -1.02947e-20)
(1.02136 0.408687 3.60746e-20)
(1.02161 0.369303 7.69575e-20)
(1.02268 0.334487 -8.26864e-20)
(1.02434 0.303509 -1.1198e-20)
(1.02641 0.275733 9.41518e-21)
(1.02851 0.250906 7.51532e-20)
(1.03 0.229669 2.41651e-20)
(1.03277 0.209821 -7.05924e-20)
(0.414199 0.321318 8.33433e-20)
(0.804765 0.616167 -2.78453e-19)
(0.955303 0.66972 -2.96209e-20)
(0.99176 0.629775 -4.35856e-20)
(0.996363 0.565777 8.11158e-21)
(0.995862 0.50586 -1.70832e-20)
(0.996432 0.453572 3.00123e-21)
(0.998207 0.40807 -5.61546e-20)
(1.00081 0.368206 -4.00856e-20)
(1.00391 0.333057 5.96279e-20)
(1.00734 0.301869 -4.72676e-20)
(1.0109 0.274016 6.54697e-20)
(1.01418 0.249161 -6.18619e-20)
(1.01682 0.227783 1.91281e-20)
(1.0211 0.208143 6.85047e-20)
(0.403686 0.336253 -2.16003e-19)
(0.775107 0.630616 3.17066e-19)
(0.918544 0.677146 -4.03244e-21)
(0.955164 0.632177 -5.36703e-21)
(0.963029 0.565995 -1.80021e-20)
(0.966269 0.504976 9.59169e-21)
(0.970172 0.452004 5.39805e-20)
(0.974787 0.406041 7.75179e-20)
(0.979817 0.36587 -1.64485e-19)
(0.985031 0.33053 4.96739e-20)
(0.990284 0.299261 1.31359e-20)
(0.995351 0.271449 -9.14686e-20)
(0.999888 0.246661 7.42613e-20)
(1.00396 0.225184 -2.52886e-20)
(1.01004 0.205942 3.25319e-20)
(0.390575 0.349057 2.61446e-19)
(0.74268 0.641391 -2.08476e-19)
(0.880065 0.681156 -1.9995e-20)
(0.917629 0.631809 1.1715e-20)
(0.92916 0.563915 -8.99748e-21)
(0.936329 0.50215 5.78853e-20)
(0.943675 0.448763 -8.07392e-20)
(0.95121 0.402554 7.21385e-20)
(0.95874 0.362256 1.01577e-19)
(0.966117 0.326877 -1.48145e-19)
(0.973224 0.295652 4.51157e-20)
(0.979815 0.267979 -2.30471e-20)
(0.98575 0.243308 -5.78587e-21)
(0.991678 0.221771 -8.03166e-20)
(0.999714 0.203415 -4.25445e-20)
(0.375058 0.359397 -7.98466e-20)
(0.707946 0.648309 5.80145e-20)
(0.840193 0.681655 2.50363e-20)
(0.879411 0.628603 1.82496e-20)
(0.894954 0.559482 8.49918e-20)
(0.906197 0.497331 -8.35719e-20)
(0.917069 0.443804 1.17194e-19)
(0.927589 0.397575 -9.51877e-20)
(0.937668 0.357337 1.14228e-19)
(0.947242 0.322078 1.28064e-19)
(0.95621 0.291027 -2.35474e-20)
(0.964346 0.263576 1.68962e-20)
(0.971867 0.238999 -2.72977e-20)
(0.979989 0.217169 1.63844e-20)
(0.989447 0.200257 3.03566e-20)