/*--------------------------------*- C++ -*----------------------------------*\
  =========                 |
  \\      /  F ield         | OpenFOAM: The Open Source CFD Toolbox
   \\    /   O peration     | Website:  https://openfoam.org
    \\  /    A nd           | Version:  7
     \\/     M anipulation  |
\*---------------------------------------------------------------------------*/
FoamFile
{
    version     2.0;
    format      ascii;
    class       volScalarField;
    location    "45";
    object      p;
}
// * * * * * * * * * * * * * * * * * * * * * * * * * * * * * * * * * * * * * //

dimensions      [0 2 -2 0 0 0 0];

internalField   nonuniform List<scalar> 
14800
(
-0.245842
-0.248803
-0.249769
-0.250815
-0.251776
-0.252718
-0.253625
-0.254451
-0.255148
-0.255667
-0.255959
-0.255988
-0.255732
-0.255189
-0.254415
-0.246102
-0.249016
-0.249968
-0.250999
-0.25195
-0.252885
-0.253786
-0.254609
-0.255304
-0.255821
-0.256112
-0.256135
-0.255862
-0.255296
-0.254416
-0.246614
-0.249437
-0.250359
-0.251362
-0.252291
-0.25321
-0.2541
-0.254915
-0.255606
-0.256121
-0.256408
-0.256419
-0.256109
-0.255516
-0.254393
-0.247367
-0.250056
-0.250932
-0.251891
-0.252787
-0.253679
-0.25455
-0.255352
-0.256035
-0.256545
-0.256826
-0.256825
-0.256448
-0.255861
-0.254296
-0.248339
-0.250857
-0.251671
-0.252569
-0.253417
-0.254272
-0.255113
-0.255894
-0.256564
-0.257064
-0.257335
-0.257329
-0.256833
-0.256356
-0.254053
-0.249508
-0.251822
-0.252556
-0.253376
-0.254159
-0.254961
-0.25576
-0.25651
-0.257158
-0.257643
-0.257895
-0.257906
-0.257191
-0.257044
-0.253554
-0.250848
-0.25293
-0.253567
-0.254287
-0.254985
-0.255716
-0.256458
-0.257162
-0.257777
-0.258238
-0.258452
-0.258537
-0.257407
-0.257971
-0.252706
-0.25233
-0.254161
-0.25468
-0.255277
-0.255867
-0.256505
-0.25717
-0.257811
-0.258377
-0.258804
-0.258933
-0.259209
-0.257383
-0.259057
-0.251861
-0.253929
-0.255494
-0.255875
-0.256323
-0.256778
-0.257297
-0.25786
-0.258416
-0.258913
-0.259297
-0.259262
-0.259842
-0.257376
-0.259735
-0.25106
-0.255621
-0.256911
-0.257131
-0.257402
-0.257691
-0.258063
-0.258497
-0.258943
-0.259343
-0.259675
-0.259523
-0.260207
-0.257136
-0.260447
-0.249949
-0.257389
-0.258399
-0.258433
-0.258494
-0.258585
-0.258776
-0.259052
-0.259362
-0.259642
-0.259885
-0.259559
-0.260453
-0.2565
-0.261093
-0.248597
-0.259219
-0.259948
-0.259769
-0.259588
-0.259444
-0.25942
-0.259507
-0.259651
-0.259781
-0.259921
-0.259347
-0.260515
-0.25553
-0.261412
-0.247246
-0.261108
-0.261555
-0.261134
-0.260676
-0.26026
-0.259987
-0.259851
-0.259802
-0.259752
-0.259771
-0.25891
-0.260273
-0.254386
-0.261044
-0.246191
-0.263062
-0.263223
-0.26253
-0.261758
-0.261034
-0.260476
-0.260088
-0.25982
-0.259564
-0.259424
-0.258288
-0.259601
-0.253254
-0.259626
-0.245476
-0.265095
-0.264965
-0.263964
-0.262843
-0.261775
-0.260901
-0.260233
-0.259721
-0.259235
-0.258879
-0.257513
-0.258397
-0.252199
-0.257042
-0.244689
-0.267233
-0.266796
-0.265454
-0.263949
-0.262504
-0.261285
-0.260312
-0.259529
-0.258789
-0.25814
-0.256573
-0.256645
-0.251046
-0.253527
-0.243202
-0.269509
-0.268732
-0.267034
-0.265102
-0.26325
-0.261661
-0.260359
-0.259276
-0.258245
-0.257214
-0.255401
-0.254393
-0.249437
-0.249434
-0.240636
-0.271969
-0.270815
-0.268725
-0.266334
-0.26405
-0.26207
-0.260415
-0.258994
-0.25761
-0.256095
-0.253897
-0.251683
-0.247059
-0.244856
-0.236986
-0.274671
-0.273078
-0.270562
-0.267686
-0.264949
-0.262555
-0.260518
-0.258704
-0.256877
-0.254753
-0.251972
-0.248521
-0.243776
-0.239564
-0.232386
-0.277671
-0.275561
-0.272589
-0.269201
-0.265991
-0.263162
-0.260698
-0.258415
-0.256022
-0.253144
-0.249567
-0.244918
-0.239635
-0.233444
-0.226949
-0.281009
-0.278324
-0.274852
-0.270928
-0.267223
-0.263925
-0.260973
-0.258116
-0.255009
-0.251223
-0.246666
-0.240899
-0.234785
-0.227124
-0.22063
-0.284753
-0.281405
-0.277397
-0.272911
-0.268686
-0.264873
-0.261346
-0.257782
-0.253792
-0.248954
-0.243294
-0.236475
-0.229386
-0.221076
-0.213691
-0.288966
-0.284848
-0.280272
-0.275197
-0.270415
-0.266017
-0.261803
-0.257374
-0.252326
-0.246317
-0.239499
-0.231679
-0.223769
-0.21488
-0.206938
-0.293702
-0.288698
-0.283521
-0.277825
-0.272433
-0.267359
-0.262317
-0.256844
-0.25057
-0.243311
-0.235332
-0.226607
-0.217966
-0.20866
-0.200488
-0.299009
-0.293001
-0.287193
-0.28083
-0.274752
-0.268888
-0.262845
-0.256133
-0.248495
-0.239946
-0.230852
-0.221309
-0.212055
-0.202419
-0.194063
-0.304929
-0.297796
-0.291326
-0.284236
-0.277377
-0.270576
-0.263324
-0.25518
-0.24608
-0.236244
-0.226104
-0.215832
-0.206045
-0.196126
-0.187659
-0.311496
-0.303123
-0.295956
-0.288058
-0.280299
-0.272372
-0.263675
-0.25393
-0.243315
-0.232227
-0.22112
-0.210196
-0.199932
-0.189774
-0.181167
-0.318733
-0.309014
-0.301106
-0.292298
-0.283493
-0.274198
-0.263812
-0.252337
-0.240199
-0.227915
-0.215918
-0.204403
-0.193703
-0.183327
-0.174573
-0.32665
-0.315493
-0.306785
-0.296951
-0.286904
-0.275946
-0.26365
-0.250365
-0.23673
-0.223316
-0.210499
-0.198441
-0.187335
-0.176762
-0.167841
-0.335243
-0.322569
-0.312983
-0.301991
-0.290433
-0.277499
-0.263113
-0.247985
-0.232902
-0.218426
-0.204853
-0.192291
-0.180804
-0.17005
-0.160949
-0.34449
-0.330228
-0.319674
-0.307358
-0.293945
-0.278733
-0.262132
-0.245169
-0.228702
-0.213234
-0.198961
-0.185927
-0.174083
-0.163165
-0.153876
-0.354339
-0.33843
-0.326808
-0.312943
-0.297281
-0.279532
-0.260646
-0.241888
-0.224112
-0.207717
-0.192796
-0.17932
-0.167146
-0.156082
-0.1466
-0.364713
-0.347103
-0.334309
-0.318582
-0.300269
-0.279783
-0.258597
-0.238111
-0.219104
-0.201847
-0.186326
-0.172438
-0.159965
-0.148776
-0.139105
-0.375501
-0.356141
-0.342058
-0.324068
-0.302736
-0.279385
-0.255929
-0.233799
-0.213644
-0.195589
-0.179518
-0.165251
-0.152517
-0.141222
-0.131372
-0.386547
-0.365407
-0.349882
-0.329166
-0.304512
-0.278241
-0.252586
-0.228911
-0.207692
-0.188907
-0.172336
-0.157731
-0.144775
-0.133399
-0.123387
-0.397653
-0.374733
-0.357544
-0.333634
-0.305438
-0.276259
-0.248508
-0.223398
-0.201208
-0.181761
-0.164748
-0.149847
-0.136717
-0.125284
-0.115134
-0.408579
-0.383919
-0.364759
-0.337227
-0.305363
-0.27335
-0.243635
-0.217212
-0.194146
-0.174114
-0.156718
-0.141575
-0.12832
-0.116856
-0.1066
-0.419046
-0.392731
-0.371204
-0.339711
-0.30415
-0.269431
-0.237907
-0.210302
-0.186463
-0.165928
-0.148218
-0.132892
-0.119567
-0.108102
-0.0977867
-0.428746
-0.400896
-0.376545
-0.340865
-0.301669
-0.264421
-0.231264
-0.202619
-0.178116
-0.157168
-0.139219
-0.123778
-0.110441
-0.0990187
-0.0887127
-0.437351
-0.408108
-0.38046
-0.340483
-0.297805
-0.258244
-0.223646
-0.194112
-0.169065
-0.147801
-0.129696
-0.11421
-0.100928
-0.0896083
-0.0794083
-0.444525
-0.414032
-0.382648
-0.338382
-0.292453
-0.250832
-0.215001
-0.18474
-0.159275
-0.1378
-0.119626
-0.104172
-0.0910109
-0.0798669
-0.0698789
-0.449936
-0.418314
-0.382844
-0.334405
-0.285522
-0.242122
-0.20528
-0.174461
-0.148716
-0.127142
-0.108992
-0.0936457
-0.0806725
-0.0697728
-0.0600706
-0.453261
-0.420603
-0.380823
-0.328423
-0.276936
-0.232061
-0.19444
-0.163245
-0.137364
-0.11581
-0.0977812
-0.0826239
-0.0699068
-0.0592945
-0.0498572
-0.454198
-0.42056
-0.376399
-0.320338
-0.266632
-0.220604
-0.18245
-0.151066
-0.125201
-0.103791
-0.0859842
-0.0711035
-0.0587237
-0.0484264
-0.0390771
-0.452473
-0.417891
-0.369412
-0.310074
-0.254567
-0.207722
-0.169285
-0.137907
-0.112214
-0.0910765
-0.0735992
-0.0590872
-0.0471393
-0.0372013
-0.0277587
-0.447843
-0.41235
-0.359734
-0.297583
-0.240714
-0.193396
-0.154929
-0.123752
-0.0983955
-0.0776678
-0.0606396
-0.0465916
-0.0351639
-0.0255765
-0.0164216
-0.440105
-0.403739
-0.347277
-0.28284
-0.225064
-0.177614
-0.139367
-0.108602
-0.0837573
-0.0635829
-0.0471321
-0.033663
-0.0227981
-0.0135473
-0.00498128
-0.429094
-0.391913
-0.331993
-0.265841
-0.207616
-0.160366
-0.122602
-0.0924869
-0.0683347
-0.0488665
-0.0330778
-0.0202919
-0.0100389
-0.00120976
0.00664976
-0.41469
-0.376785
-0.313872
-0.246602
-0.188372
-0.141651
-0.104691
-0.0754741
-0.0521545
-0.0335019
-0.0185041
-0.0064936
0.0030847
0.011394
0.0184931
-0.39682
-0.358321
-0.292941
-0.225154
-0.167337
-0.121543
-0.0857653
-0.057528
-0.0352213
-0.0175277
-0.00344156
0.00770396
0.0165362
0.0242412
0.0305335
-0.375454
-0.336539
-0.269272
-0.201566
-0.144581
-0.100264
-0.0656869
-0.0387
-0.0175769
-0.000984406
0.0120737
0.0222649
0.0302777
0.0373062
0.0427399
-0.350609
-0.311504
-0.242977
-0.175947
-0.120359
-0.0776126
-0.0445774
-0.0190473
0.000726738
0.0160815
0.0279997
0.0371484
0.04427
0.0505527
0.0550678
-0.322355
-0.283347
-0.214179
-0.14839
-0.0946402
-0.0537508
-0.0225136
0.00136269
0.019631
0.0336182
0.0442891
0.0523102
0.0584718
0.0639368
0.0674657
-0.290818
-0.252305
-0.182903
-0.119001
-0.0675138
-0.0287893
0.000417319
0.022456
0.0390702
0.0515672
0.0608886
0.0677027
0.0728409
0.0774151
0.0798954
-0.256179
-0.218679
-0.149075
-0.0879694
-0.0391206
-0.00284478
0.0241201
0.0441502
0.0589721
0.0698637
0.0777392
0.0832749
0.0873374
0.0909524
0.0923335
-0.218636
-0.182522
-0.1132
-0.0553618
-0.00960303
0.0239587
0.0484897
0.0663556
0.0792585
0.0884375
0.0947778
0.0989748
0.10192
0.104499
0.104687
-0.178389
-0.143338
-0.0762325
-0.0214939
0.0208855
0.0514898
0.0734125
0.0889755
0.0998453
0.107215
0.111942
0.114755
0.116532
0.117913
0.116654
-0.135707
-0.101947
-0.0379623
0.0133908
0.0521718
0.0796098
0.0987684
0.111907
0.120644
0.126121
0.129179
0.130579
0.131091
0.130923
0.127821
-0.0908026
-0.0588824
0.00150824
0.0490868
0.084071
0.10817
0.12443
0.13504
0.14156
0.14508
0.14644
0.146411
0.145508
0.14334
0.13818
-0.0441094
-0.0144706
0.0419473
0.0853896
0.116395
0.137014
0.150265
0.158261
0.162496
0.164016
0.163662
0.162175
0.159705
0.155403
0.148779
0.00397983
0.0309727
0.0830747
0.12208
0.148951
0.165978
0.176135
0.18145
0.183353
0.182845
0.180762
0.177746
0.17357
0.167349
0.162282
0.0530706
0.077106
0.124594
0.158927
0.181541
0.194895
0.201896
0.204488
0.204029
0.20148
0.197644
0.193009
0.18714
0.179691
0.175392
0.102755
0.123574
0.166201
0.195688
0.213964
0.223594
0.227405
0.227251
0.22442
0.21983
0.214223
0.207949
0.200548
0.192193
0.187638
0.152618
0.170009
0.20759
0.232119
0.246015
0.251901
0.252514
0.249614
0.244419
0.237795
0.230412
0.222519
0.213726
0.204545
0.199278
0.202248
0.216038
0.248455
0.267973
0.277488
0.279642
0.277076
0.271452
0.263919
0.255282
0.246141
0.236674
0.226578
0.21653
0.210333
0.251226
0.261288
0.288492
0.303002
0.308177
0.306646
0.300945
0.292641
0.282811
0.272199
0.261334
0.25035
0.239015
0.228069
0.22085
0.299139
0.305399
0.327404
0.336966
0.337881
0.332742
0.323976
0.313058
0.300991
0.288455
0.275915
0.263474
0.25095
0.23909
0.230814
0.345579
0.348018
0.364899
0.369625
0.366402
0.357763
0.346031
0.332584
0.318356
0.303963
0.289812
0.275978
0.262314
0.249547
0.240203
0.390151
0.388804
0.4007
0.400753
0.393549
0.381549
0.366971
0.351103
0.334807
0.318639
0.302951
0.287793
0.273046
0.259391
0.24899
0.432476
0.427434
0.434537
0.430129
0.419139
0.403947
0.386668
0.368504
0.35025
0.332402
0.315262
0.298857
0.283091
0.268581
0.257143
0.472193
0.4636
0.466161
0.457546
0.442998
0.424809
0.404998
0.384683
0.364595
0.345175
0.326678
0.309112
0.292396
0.277075
0.264636
0.508965
0.497016
0.495334
0.48281
0.464964
0.444
0.421845
0.399541
0.377759
0.356888
0.337137
0.318504
0.300915
0.284834
0.271443
0.542479
0.527417
0.52184
0.505742
0.484887
0.461393
0.437103
0.412989
0.389664
0.367472
0.346584
0.326983
0.308605
0.291823
0.277541
0.572452
0.554564
0.545481
0.526178
0.502631
0.476873
0.450675
0.424942
0.400241
0.37687
0.354966
0.334504
0.315424
0.29801
0.282913
0.59863
0.578241
0.566082
0.543973
0.518073
0.490338
0.462473
0.435329
0.409427
0.385027
0.362239
0.341028
0.321338
0.303367
0.287543
0.620791
0.598264
0.583488
0.559001
0.531107
0.501699
0.472424
0.444084
0.417166
0.391898
0.368361
0.346519
0.326316
0.307869
0.291416
0.638749
0.614473
0.597571
0.571154
0.541644
0.51088
0.480462
0.451155
0.423414
0.397442
0.3733
0.350947
0.33033
0.311495
0.294525
0.652351
0.626743
0.608226
0.580345
0.549611
0.51782
0.486536
0.456497
0.428133
0.401628
0.377028
0.35429
0.33336
0.31423
0.296863
0.661483
0.634977
0.615373
0.586509
0.554954
0.522472
0.490607
0.460076
0.431295
0.404432
0.379525
0.356529
0.33539
0.31606
0.298423
0.666069
0.63911
0.61896
0.589603
0.557634
0.524806
0.492649
0.461872
0.432881
0.405838
0.380777
0.357651
0.336407
0.316977
0.299204
0.666069
0.63911
0.61896
0.589603
0.557634
0.524806
0.492649
0.461872
0.432881
0.405838
0.380777
0.357651
0.336407
0.316977
0.299204
0.661483
0.634977
0.615373
0.586509
0.554954
0.522472
0.490607
0.460076
0.431295
0.404432
0.379525
0.356529
0.33539
0.31606
0.298423
0.652351
0.626743
0.608225
0.580345
0.549611
0.517819
0.486536
0.456497
0.428133
0.401628
0.377028
0.35429
0.33336
0.31423
0.296863
0.638749
0.614473
0.597571
0.571154
0.541644
0.51088
0.480462
0.451155
0.423414
0.397442
0.3733
0.350947
0.33033
0.311495
0.294525
0.620791
0.598263
0.583488
0.559001
0.531107
0.501699
0.472423
0.444084
0.417166
0.391898
0.368361
0.346519
0.326316
0.307869
0.291416
0.59863
0.578241
0.566081
0.543973
0.518072
0.490338
0.462473
0.435329
0.409427
0.385027
0.362239
0.341028
0.321338
0.303367
0.287542
0.572452
0.554563
0.545481
0.526178
0.50263
0.476873
0.450674
0.424942
0.400241
0.37687
0.354966
0.334504
0.315424
0.29801
0.282913
0.542479
0.527417
0.52184
0.505741
0.484887
0.461392
0.437103
0.412988
0.389664
0.367472
0.346584
0.326983
0.308604
0.291823
0.277541
0.508964
0.497015
0.495334
0.48281
0.464964
0.444
0.421845
0.399541
0.377759
0.356887
0.337137
0.318504
0.300915
0.284834
0.271443
0.472192
0.463599
0.466161
0.457546
0.442998
0.424809
0.404998
0.384683
0.364595
0.345175
0.326677
0.309112
0.292396
0.277075
0.264636
0.432475
0.427433
0.434537
0.430129
0.419139
0.403946
0.386668
0.368504
0.35025
0.332402
0.315261
0.298857
0.283091
0.268581
0.257143
0.390151
0.388803
0.400699
0.400752
0.393549
0.381549
0.366971
0.351103
0.334807
0.318639
0.302951
0.287793
0.273046
0.259391
0.24899
0.345579
0.348017
0.364899
0.369625
0.366402
0.357763
0.34603
0.332584
0.318356
0.303963
0.289812
0.275977
0.262314
0.249547
0.240203
0.299139
0.305399
0.327403
0.336965
0.337881
0.332741
0.323976
0.313058
0.300991
0.288455
0.275915
0.263474
0.25095
0.23909
0.230813
0.251226
0.261288
0.288492
0.303002
0.308177
0.306646
0.300944
0.29264
0.282811
0.272199
0.261333
0.25035
0.239015
0.228069
0.220849
0.202247
0.216037
0.248455
0.267972
0.277487
0.279642
0.277075
0.271452
0.263918
0.255282
0.246141
0.236674
0.226578
0.21653
0.210332
0.152617
0.170008
0.207589
0.232119
0.246015
0.2519
0.252514
0.249613
0.244419
0.237795
0.230412
0.222519
0.213725
0.204545
0.199278
0.102754
0.123573
0.1662
0.195688
0.213964
0.223593
0.227405
0.227251
0.22442
0.219829
0.214222
0.207949
0.200547
0.192193
0.187637
0.0530698
0.0771053
0.124593
0.158926
0.181541
0.194895
0.201896
0.204488
0.204029
0.20148
0.197644
0.193009
0.187139
0.17969
0.175392
0.00397898
0.030972
0.0830741
0.12208
0.148951
0.165978
0.176134
0.18145
0.183353
0.182845
0.180762
0.177746
0.17357
0.167349
0.162282
-0.0441103
-0.0144713
0.0419467
0.0853891
0.116395
0.137014
0.150265
0.15826
0.162496
0.164016
0.163662
0.162175
0.159705
0.155402
0.148779
-0.0908034
-0.0588831
0.00150766
0.0490863
0.0840707
0.10817
0.12443
0.13504
0.141559
0.14508
0.146439
0.14641
0.145508
0.14334
0.138179
-0.135707
-0.101947
-0.0379628
0.0133903
0.0521715
0.0796095
0.0987681
0.111906
0.120643
0.12612
0.129179
0.130579
0.131091
0.130923
0.127821
-0.178389
-0.143339
-0.076233
-0.0214944
0.0208852
0.0514895
0.0734122
0.0889753
0.0998451
0.107215
0.111942
0.114755
0.116532
0.117913
0.116654
-0.218637
-0.182522
-0.113201
-0.0553622
-0.00960336
0.0239584
0.0484894
0.0663554
0.0792583
0.0884373
0.0947775
0.0989745
0.10192
0.104498
0.104686
-0.25618
-0.218679
-0.149076
-0.0879697
-0.0391209
-0.00284504
0.0241199
0.04415
0.0589719
0.0698635
0.077739
0.0832747
0.0873371
0.0909521
0.0923331
-0.290819
-0.252305
-0.182903
-0.119002
-0.0675141
-0.0287895
0.000417104
0.0224557
0.0390699
0.0515669
0.0608883
0.0677024
0.0728406
0.0774147
0.079895
-0.322356
-0.283348
-0.214179
-0.14839
-0.0946405
-0.053751
-0.0225138
0.00136249
0.0196307
0.033618
0.0442888
0.0523099
0.0584714
0.0639364
0.0674654
-0.35061
-0.311504
-0.242977
-0.175947
-0.12036
-0.0776128
-0.0445776
-0.0190475
0.000726527
0.0160813
0.0279995
0.037148
0.0442696
0.0505524
0.0550674
-0.375454
-0.336539
-0.269272
-0.201566
-0.144581
-0.100264
-0.0656871
-0.0387002
-0.0175771
-0.000984649
0.0120734
0.0222645
0.0302773
0.0373058
0.0427394
-0.39682
-0.358322
-0.292941
-0.225154
-0.167337
-0.121543
-0.0857654
-0.0575282
-0.0352215
-0.0175279
-0.00344186
0.00770361
0.0165358
0.0242407
0.030533
-0.414691
-0.376785
-0.313872
-0.246602
-0.188372
-0.141651
-0.104691
-0.0754742
-0.0521547
-0.0335022
-0.0185045
-0.00649397
0.00308427
0.0113935
0.0184926
-0.429094
-0.391913
-0.331993
-0.265841
-0.207616
-0.160366
-0.122602
-0.092487
-0.0683348
-0.0488668
-0.0330781
-0.0202923
-0.0100394
-0.00121028
0.0066492
-0.440104
-0.403739
-0.347277
-0.28284
-0.225063
-0.177614
-0.139367
-0.108602
-0.0837575
-0.0635832
-0.0471324
-0.0336634
-0.0227986
-0.0135478
-0.00498189
-0.447843
-0.41235
-0.359734
-0.297583
-0.240714
-0.193396
-0.154929
-0.123752
-0.0983956
-0.077668
-0.0606399
-0.046592
-0.0351645
-0.0255771
-0.0164223
-0.452472
-0.417891
-0.369412
-0.310074
-0.254567
-0.207722
-0.169285
-0.137907
-0.112214
-0.0910768
-0.0735996
-0.0590876
-0.0471399
-0.037202
-0.0277595
-0.454197
-0.42056
-0.376399
-0.320337
-0.266632
-0.220604
-0.182449
-0.151066
-0.125201
-0.103791
-0.0859846
-0.071104
-0.0587243
-0.0484272
-0.0390779
-0.45326
-0.420602
-0.380823
-0.328423
-0.276936
-0.23206
-0.19444
-0.163245
-0.137364
-0.11581
-0.0977816
-0.0826244
-0.0699075
-0.0592953
-0.0498581
-0.449935
-0.418314
-0.382843
-0.334404
-0.285522
-0.242122
-0.205279
-0.174461
-0.148716
-0.127142
-0.108993
-0.0936464
-0.0806733
-0.0697737
-0.0600716
-0.444524
-0.414031
-0.382647
-0.338381
-0.292452
-0.250832
-0.215001
-0.18474
-0.159275
-0.1378
-0.119626
-0.104172
-0.0910117
-0.0798679
-0.06988
-0.43735
-0.408107
-0.380459
-0.340482
-0.297804
-0.258244
-0.223646
-0.194112
-0.169065
-0.147801
-0.129696
-0.114211
-0.100929
-0.0896094
-0.0794094
-0.428745
-0.400895
-0.376544
-0.340864
-0.301668
-0.26442
-0.231263
-0.202619
-0.178116
-0.157168
-0.13922
-0.123778
-0.110442
-0.0990199
-0.088714
-0.419045
-0.39273
-0.371202
-0.33971
-0.304149
-0.26943
-0.237907
-0.210302
-0.186463
-0.165929
-0.148219
-0.132893
-0.119568
-0.108103
-0.0977881
-0.408578
-0.383918
-0.364757
-0.337226
-0.305362
-0.27335
-0.243635
-0.217212
-0.194146
-0.174115
-0.156719
-0.141576
-0.128321
-0.116857
-0.106602
-0.397651
-0.374732
-0.357543
-0.333632
-0.305437
-0.276258
-0.248507
-0.223398
-0.201208
-0.181762
-0.164748
-0.149848
-0.136718
-0.125285
-0.115135
-0.386545
-0.365405
-0.34988
-0.329165
-0.304511
-0.27824
-0.252585
-0.22891
-0.207692
-0.188907
-0.172337
-0.157732
-0.144777
-0.133401
-0.123389
-0.375499
-0.356139
-0.342057
-0.324066
-0.302734
-0.279384
-0.255929
-0.233799
-0.213644
-0.19559
-0.179519
-0.165253
-0.152519
-0.141224
-0.131375
-0.364712
-0.347101
-0.334307
-0.318581
-0.300268
-0.279782
-0.258596
-0.238111
-0.219104
-0.201847
-0.186327
-0.172439
-0.159967
-0.148778
-0.139107
-0.354337
-0.338428
-0.326806
-0.312941
-0.29728
-0.27953
-0.260645
-0.241888
-0.224112
-0.207718
-0.192797
-0.179321
-0.167147
-0.156084
-0.146603
-0.344488
-0.330226
-0.319672
-0.307356
-0.293944
-0.278732
-0.262131
-0.245168
-0.228702
-0.213235
-0.198962
-0.185929
-0.174085
-0.163168
-0.153879
-0.335241
-0.322567
-0.312981
-0.301989
-0.290431
-0.277497
-0.263111
-0.247984
-0.232901
-0.218427
-0.204854
-0.192293
-0.180806
-0.170053
-0.160953
-0.326648
-0.315491
-0.306783
-0.296949
-0.286902
-0.275944
-0.263649
-0.250364
-0.23673
-0.223316
-0.2105
-0.198443
-0.187338
-0.176766
-0.167845
-0.318731
-0.309012
-0.301104
-0.292296
-0.283491
-0.274195
-0.26381
-0.252336
-0.240199
-0.227916
-0.215919
-0.204405
-0.193706
-0.18333
-0.174578
-0.311494
-0.303121
-0.295954
-0.288055
-0.280296
-0.27237
-0.263673
-0.253929
-0.243315
-0.232228
-0.221121
-0.210198
-0.199935
-0.189778
-0.181171
-0.304927
-0.297794
-0.291324
-0.284234
-0.277374
-0.270574
-0.263321
-0.255179
-0.246079
-0.236244
-0.226105
-0.215835
-0.206049
-0.19613
-0.187664
-0.299007
-0.292998
-0.28719
-0.280828
-0.27475
-0.268885
-0.262842
-0.256131
-0.248494
-0.239946
-0.230853
-0.221311
-0.212059
-0.202425
-0.194069
-0.2937
-0.288696
-0.283519
-0.277823
-0.27243
-0.267357
-0.262314
-0.256842
-0.250569
-0.243311
-0.235333
-0.22661
-0.21797
-0.208666
-0.200495
-0.288964
-0.284846
-0.280269
-0.275194
-0.270412
-0.266014
-0.2618
-0.257372
-0.252324
-0.246317
-0.2395
-0.231682
-0.223774
-0.214886
-0.206946
-0.284751
-0.281402
-0.277395
-0.272908
-0.268683
-0.26487
-0.261343
-0.257779
-0.25379
-0.248953
-0.243295
-0.236478
-0.229391
-0.221083
-0.2137
-0.281007
-0.278321
-0.27485
-0.270925
-0.26722
-0.263922
-0.26097
-0.258113
-0.255007
-0.251222
-0.246667
-0.240902
-0.234791
-0.227132
-0.22064
-0.277669
-0.275559
-0.272587
-0.269199
-0.265988
-0.263158
-0.260695
-0.258412
-0.25602
-0.253143
-0.249568
-0.244922
-0.23964
-0.233452
-0.226961
-0.274669
-0.273076
-0.27056
-0.267683
-0.264946
-0.262552
-0.260515
-0.258701
-0.256875
-0.254752
-0.251973
-0.248525
-0.243782
-0.239573
-0.232399
-0.271968
-0.270813
-0.268722
-0.266332
-0.264048
-0.262067
-0.260412
-0.258991
-0.257608
-0.256094
-0.253898
-0.251687
-0.247065
-0.244866
-0.237
-0.269507
-0.26873
-0.267032
-0.265099
-0.263247
-0.261658
-0.260356
-0.259273
-0.258243
-0.257213
-0.255402
-0.254397
-0.249444
-0.249445
-0.240652
-0.267231
-0.266795
-0.265453
-0.263947
-0.262501
-0.261282
-0.260309
-0.259526
-0.258787
-0.258139
-0.256574
-0.256649
-0.251053
-0.253538
-0.243218
-0.265094
-0.264964
-0.263963
-0.262841
-0.261773
-0.260898
-0.260231
-0.259718
-0.259233
-0.258878
-0.257514
-0.258401
-0.252206
-0.257053
-0.244705
-0.263061
-0.263222
-0.262529
-0.261756
-0.261032
-0.260474
-0.260086
-0.259818
-0.259562
-0.259423
-0.258289
-0.259604
-0.253261
-0.259637
-0.245493
-0.261108
-0.261554
-0.261133
-0.260674
-0.260258
-0.259985
-0.259849
-0.2598
-0.259751
-0.259771
-0.258911
-0.260277
-0.254393
-0.261055
-0.246208
-0.259219
-0.259947
-0.259768
-0.259587
-0.259443
-0.259419
-0.259505
-0.259649
-0.25978
-0.259921
-0.259349
-0.260519
-0.255538
-0.261424
-0.247264
-0.257389
-0.258398
-0.258432
-0.258493
-0.258584
-0.258775
-0.259051
-0.259361
-0.259641
-0.259885
-0.259561
-0.260457
-0.256508
-0.261105
-0.248615
-0.255621
-0.256911
-0.257131
-0.257401
-0.25769
-0.258062
-0.258496
-0.258942
-0.259342
-0.259676
-0.259526
-0.260211
-0.257144
-0.260459
-0.249966
-0.253929
-0.255493
-0.255875
-0.256323
-0.256777
-0.257297
-0.25786
-0.258416
-0.258913
-0.259298
-0.259265
-0.259848
-0.257384
-0.259746
-0.251078
-0.25233
-0.25416
-0.25468
-0.255277
-0.255867
-0.256505
-0.257169
-0.257811
-0.258378
-0.258806
-0.258936
-0.259214
-0.25739
-0.259069
-0.251878
-0.250848
-0.25293
-0.253567
-0.254287
-0.254985
-0.255715
-0.256457
-0.257162
-0.257778
-0.25824
-0.258455
-0.258542
-0.257414
-0.257982
-0.252721
-0.249509
-0.251822
-0.252556
-0.253376
-0.254158
-0.25496
-0.25576
-0.25651
-0.257159
-0.257644
-0.257898
-0.257911
-0.257198
-0.257054
-0.253568
-0.24834
-0.250857
-0.251671
-0.252569
-0.253417
-0.254272
-0.255113
-0.255895
-0.256565
-0.257066
-0.257337
-0.257333
-0.256839
-0.256365
-0.254065
-0.247367
-0.250056
-0.250932
-0.251891
-0.252787
-0.253679
-0.25455
-0.255352
-0.256036
-0.256546
-0.256828
-0.256828
-0.256453
-0.255868
-0.254306
-0.246615
-0.249437
-0.250359
-0.251362
-0.252291
-0.25321
-0.2541
-0.254915
-0.255607
-0.256121
-0.256409
-0.256422
-0.256113
-0.255521
-0.2544
-0.246102
-0.249016
-0.249968
-0.250999
-0.25195
-0.252885
-0.253786
-0.254609
-0.255304
-0.255822
-0.256113
-0.256136
-0.255864
-0.255299
-0.25442
-0.245842
-0.248803
-0.249769
-0.250815
-0.251776
-0.252718
-0.253625
-0.254451
-0.255148
-0.255667
-0.25596
-0.255989
-0.255733
-0.25519
-0.254417
-0.253938
-0.252692
-0.251472
-0.249943
-0.248253
-0.246363
-0.244296
-0.242052
-0.239636
-0.237051
-0.234298
-0.231384
-0.228317
-0.225103
-0.221741
-0.218232
-0.214579
-0.210785
-0.206854
-0.202789
-0.198595
-0.194277
-0.18984
-0.185291
-0.180636
-0.175883
-0.17104
-0.166116
-0.16112
-0.156064
-0.150957
-0.145813
-0.140641
-0.135456
-0.130268
-0.12509
-0.119935
-0.114815
-0.109742
-0.104728
-0.0997841
-0.0949205
-0.0901472
-0.0854732
-0.0809066
-0.0764549
-0.0721248
-0.0679214
-0.0638493
-0.0599122
-0.056113
-0.0524534
-0.0489345
-0.0455568
-0.0423198
-0.0392226
-0.0362636
-0.0334407
-0.0307515
-0.0281932
-0.0257627
-0.0234566
-0.0212714
-0.0192035
-0.0172494
-0.0154053
-0.0136677
-0.0120329
-0.0104981
-0.00905916
-0.00771496
-0.00645929
-0.00529734
-0.00421119
-0.00323393
-0.00228984
-0.00154239
-0.000634486
-0.000358896
0.000999626
-0.254105
-0.252796
-0.25158
-0.250044
-0.248351
-0.246459
-0.244391
-0.242146
-0.239731
-0.237146
-0.234394
-0.231478
-0.228419
-0.225208
-0.221848
-0.218341
-0.214691
-0.210899
-0.20697
-0.202908
-0.198716
-0.1944
-0.189965
-0.185416
-0.180762
-0.176008
-0.171165
-0.166239
-0.161241
-0.156182
-0.151073
-0.145925
-0.14075
-0.13556
-0.130367
-0.125184
-0.120024
-0.1149
-0.109822
-0.104804
-0.0998549
-0.0949871
-0.0902099
-0.0855325
-0.0809628
-0.0765087
-0.0721761
-0.0679709
-0.0638974
-0.0599593
-0.0561593
-0.0524993
-0.0489802
-0.0456025
-0.0423656
-0.0392685
-0.0363097
-0.0334871
-0.0307981
-0.0282398
-0.0258092
-0.0235029
-0.0213174
-0.0192489
-0.017294
-0.0154489
-0.0137101
-0.012074
-0.0105376
-0.00909689
-0.00775083
-0.00649299
-0.00532898
-0.00424023
-0.00326089
-0.00231368
-0.00156392
-0.000653412
-0.000370192
0.000974029
-0.254433
-0.252991
-0.251788
-0.25024
-0.248541
-0.246646
-0.244576
-0.242332
-0.239917
-0.237332
-0.23458
-0.231671
-0.228615
-0.225408
-0.222052
-0.218549
-0.214903
-0.211114
-0.207189
-0.20313
-0.198941
-0.194628
-0.190194
-0.185647
-0.180994
-0.17624
-0.171396
-0.166469
-0.161468
-0.156406
-0.151293
-0.14614
-0.140959
-0.135763
-0.130564
-0.125374
-0.120208
-0.115076
-0.109991
-0.104966
-0.10001
-0.0951354
-0.0903518
-0.0856684
-0.0810925
-0.0766333
-0.072296
-0.0680863
-0.0640089
-0.0600672
-0.056264
-0.0526011
-0.0490795
-0.0456994
-0.0424605
-0.0393615
-0.0364009
-0.0335765
-0.0308858
-0.0283258
-0.0258935
-0.0235853
-0.0213977
-0.0193272
-0.0173701
-0.0155226
-0.0137813
-0.0121425
-0.0106033
-0.00915961
-0.00781057
-0.00654933
-0.00538228
-0.00428956
-0.00330732
-0.00235529
-0.00160224
-0.000687932
-0.000391181
0.000925016
-0.254904
-0.253251
-0.252072
-0.250512
-0.248806
-0.246908
-0.244838
-0.242595
-0.240183
-0.237602
-0.234855
-0.231956
-0.228899
-0.225694
-0.222343
-0.218845
-0.215204
-0.21142
-0.2075
-0.203445
-0.19926
-0.19495
-0.190519
-0.185974
-0.181321
-0.176568
-0.171722
-0.166794
-0.16179
-0.156724
-0.151606
-0.146448
-0.141261
-0.136057
-0.130851
-0.125653
-0.120478
-0.115337
-0.110244
-0.105209
-0.100243
-0.0953604
-0.0905684
-0.0858766
-0.0812933
-0.0768264
-0.072482
-0.0682657
-0.064182
-0.0602345
-0.056426
-0.0527581
-0.0492318
-0.0458474
-0.0426044
-0.0395015
-0.0365372
-0.0337092
-0.031015
-0.0284515
-0.0260157
-0.023704
-0.0215129
-0.0194388
-0.017478
-0.0156267
-0.0138815
-0.0122387
-0.0106955
-0.00924748
-0.00789428
-0.00662835
-0.00545717
-0.00435906
-0.00337296
-0.00241443
-0.0016568
-0.000737679
-0.000421724
0.000855241
-0.255505
-0.253541
-0.252405
-0.250833
-0.249122
-0.247224
-0.245155
-0.242916
-0.240507
-0.237925
-0.235168
-0.232288
-0.229245
-0.226049
-0.222705
-0.219214
-0.21558
-0.211801
-0.207887
-0.203838
-0.199658
-0.195352
-0.190925
-0.186382
-0.181731
-0.176978
-0.172131
-0.167201
-0.162195
-0.157125
-0.152002
-0.146837
-0.141643
-0.136433
-0.13122
-0.126008
-0.120824
-0.115674
-0.11057
-0.105525
-0.10055
-0.0956569
-0.0908546
-0.0861529
-0.0815601
-0.077084
-0.0727308
-0.0685061
-0.0644145
-0.0604595
-0.0566438
-0.0529691
-0.0494364
-0.0460459
-0.042797
-0.0396885
-0.0367187
-0.0338854
-0.0311859
-0.0286173
-0.0261764
-0.0238596
-0.0216635
-0.0195842
-0.0176182
-0.0157617
-0.0140113
-0.0123631
-0.0108145
-0.00936087
-0.00800222
-0.00673024
-0.00555372
-0.00444873
-0.00345754
-0.00249087
-0.00172691
-0.000802194
-0.000461487
0.000768319
-0.256269
-0.253811
-0.252751
-0.251174
-0.249461
-0.247566
-0.245502
-0.24327
-0.240869
-0.238298
-0.235579
-0.232683
-0.229642
-0.226454
-0.223117
-0.219634
-0.216009
-0.21224
-0.208334
-0.204291
-0.200117
-0.195816
-0.191393
-0.186854
-0.182205
-0.177454
-0.172608
-0.167679
-0.162662
-0.15759
-0.152463
-0.147293
-0.142092
-0.136874
-0.13165
-0.126433
-0.121239
-0.116078
-0.110963
-0.105907
-0.100921
-0.0960168
-0.0912037
-0.0864913
-0.0818881
-0.0774018
-0.0730387
-0.0688046
-0.0647038
-0.06074
-0.0569158
-0.053233
-0.0496924
-0.0462943
-0.043038
-0.0399224
-0.0369456
-0.0341055
-0.0313993
-0.028824
-0.0263764
-0.0240531
-0.0218503
-0.0197645
-0.0177918
-0.0159286
-0.0141715
-0.0125164
-0.0109611
-0.00950034
-0.00813487
-0.00685534
-0.00567206
-0.00455861
-0.00356078
-0.00258435
-0.00181178
-0.000880914
-0.000509892
0.000668458
-0.257173
-0.25396
-0.253081
-0.251497
-0.249788
-0.247903
-0.24585
-0.243629
-0.241239
-0.238667
-0.235964
-0.233087
-0.230061
-0.226885
-0.223561
-0.22009
-0.216483
-0.212703
-0.208813
-0.204779
-0.200614
-0.19632
-0.191903
-0.187369
-0.182723
-0.177974
-0.173128
-0.168196
-0.163186
-0.15811
-0.152978
-0.147802
-0.142595
-0.137369
-0.132137
-0.126912
-0.121708
-0.116537
-0.111412
-0.106345
-0.101348
-0.0964331
-0.0916091
-0.0868859
-0.0822721
-0.0777753
-0.073402
-0.0691577
-0.0650472
-0.0610738
-0.0572403
-0.0535484
-0.049999
-0.0465922
-0.0433274
-0.0402034
-0.0372184
-0.03437
-0.0316557
-0.0290724
-0.0266168
-0.0242853
-0.0220745
-0.0199805
-0.0179998
-0.0161284
-0.0143631
-0.0126996
-0.0111359
-0.00966659
-0.00829273
-0.00700405
-0.00581238
-0.00468876
-0.0036824
-0.0026946
-0.00191056
-0.000973136
-0.000566165
0.000560048
-0.257648
-0.254346
-0.253275
-0.251772
-0.250073
-0.248203
-0.246167
-0.243964
-0.241591
-0.239049
-0.236351
-0.23349
-0.230478
-0.227316
-0.224006