/*--------------------------------*- C++ -*----------------------------------*\
  =========                 |
  \\      /  F ield         | OpenFOAM: The Open Source CFD Toolbox
   \\    /   O peration     | Website:  https://openfoam.org
    \\  /    A nd           | Version:  7
     \\/     M anipulation  |
\*---------------------------------------------------------------------------*/
FoamFile
{
    version     2.0;
    format      ascii;
    class       volVectorField;
    location    "45";
    object      U;
}
// * * * * * * * * * * * * * * * * * * * * * * * * * * * * * * * * * * * * * //

dimensions      [0 1 -1 0 0 0 0];

internalField   nonuniform List<vector> 
14800
(
(-0.00271355 0.00171767 -1.55483e-20)
(-0.013788 0.00352182 2.04404e-21)
(-0.0319061 0.00437453 8.83325e-21)
(-0.0508695 0.00468185 -4.68083e-21)
(-0.0697511 0.00467059 -1.52665e-20)
(-0.0876177 0.00449201 1.4405e-20)
(-0.104126 0.00423116 5.97151e-22)
(-0.119171 0.00392987 1.69154e-21)
(-0.132736 0.00360377 -7.98348e-21)
(-0.144817 0.00325578 -1.03882e-21)
(-0.155406 0.00288859 5.97503e-21)
(-0.164502 0.00251399 5.09672e-21)
(-0.172165 0.00216543 1.90725e-20)
(-0.178573 0.00191895 -2.11959e-20)
(-0.184037 0.0017912 8.64645e-21)
(-0.00293119 0.00511965 3.2644e-20)
(-0.0141128 0.0105095 -2.02151e-20)
(-0.0320943 0.0130645 -7.1902e-21)
(-0.0508106 0.0139897 1.54417e-21)
(-0.0693652 0.0139613 1.42676e-20)
(-0.0868461 0.0134314 2.82992e-20)
(-0.102917 0.012655 -2.42827e-20)
(-0.117476 0.0117578 4.33615e-21)
(-0.130501 0.0107869 2.10976e-20)
(-0.141988 0.00975021 2.24996e-20)
(-0.151919 0.00865384 -2.81197e-20)
(-0.160279 0.00752918 3.0507e-20)
(-0.167085 0.00646799 -4.42354e-20)
(-0.172522 0.00572303 4.2122e-20)
(-0.176594 0.00526958 8.52463e-21)
(-0.00335893 0.00840985 5.23023e-20)
(-0.0147537 0.0172991 9.35928e-20)
(-0.0324671 0.0215323 5.07801e-21)
(-0.0506938 0.0230744 -2.57145e-20)
(-0.068598 0.0230371 -1.26576e-20)
(-0.0853092 0.0221665 -4.49517e-20)
(-0.100506 0.0208855 3.16853e-20)
(-0.114087 0.0194045 3.95168e-20)
(-0.12603 0.0178024 -4.47527e-20)
(-0.13632 0.0160908 -1.77398e-20)
(-0.144928 0.0142741 5.89371e-20)
(-0.151811 0.0123934 -2.04714e-20)
(-0.156891 0.0105674 1.915e-20)
(-0.160445 0.00931372 2.20802e-20)
(-0.161677 0.00831376 3.47288e-20)
(-0.00398208 0.0115194 -4.44055e-20)
(-0.0156937 0.0237657 -1.54827e-19)
(-0.0330173 0.0296351 7.55556e-20)
(-0.0505213 0.0317902 -7.25569e-21)
(-0.0674584 0.0317553 2.83524e-20)
(-0.0830195 0.0305596 -8.38291e-20)
(-0.0969038 0.0287911 2.88925e-21)
(-0.109013 0.0267451 1.1109e-21)
(-0.119319 0.024534 3.10744e-20)
(-0.127794 0.0221715 -3.61371e-20)
(-0.13439 0.0196536 -9.91017e-20)
(-0.139049 0.0170198 -3.52298e-20)
(-0.141489 0.014342 -4.78558e-21)
(-0.142365 0.0125922 9.62241e-21)
(-0.139192 0.0106457 -3.9233e-20)
(-0.00478001 0.0143876 -9.84907e-20)
(-0.0169086 0.0297951 7.29851e-20)
(-0.0337341 0.0372378 4.42677e-21)
(-0.0502953 0.0399953 7.91226e-21)
(-0.0659583 0.0399745 -6.1685e-20)
(-0.0799931 0.0384723 4.63286e-20)
(-0.092126 0.0362369 -1.68919e-20)
(-0.10226 0.0336494 2.65791e-20)
(-0.110357 0.0308584 -1.52365e-20)
(-0.116371 0.0278798 9.23225e-20)
(-0.120225 0.0246943 7.1436e-20)
(-0.121896 0.0213387 4.74019e-20)
(-0.120662 0.0176883 -7.39046e-20)
(-0.118235 0.0155198 1.99527e-20)
(-0.108908 0.0120425 -2.02366e-20)
(-0.00572766 0.0169644 1.69839e-22)
(-0.0183681 0.035287 1.26857e-19)
(-0.0346033 0.044216 -9.46869e-20)
(-0.0500166 0.0475545 7.87449e-20)
(-0.0641093 0.0475556 6.86127e-20)
(-0.0762462 0.0457648 -3.89129e-20)
(-0.0861854 0.043084 2.69356e-20)
(-0.0938281 0.0399805 -1.08292e-19)
(-0.099119 0.0366427 3.14254e-20)
(-0.101985 0.0330919 -7.04907e-20)
(-0.102291 0.0292878 3.6563e-20)
(-0.100186 0.0252953 -8.49503e-20)
(-0.0940106 0.0205377 -2.00894e-20)
(-0.0878177 0.0181042 -4.09441e-20)
(-0.0703845 0.0125167 4.8652e-20)
(-0.00679737 0.0192127 -1.11712e-20)
(-0.0200373 0.0401586 -1.30275e-19)
(-0.0356062 0.050459 1.19826e-20)
(-0.0496823 0.0543409 1.65587e-21)
(-0.0619191 0.0543635 1.94713e-20)
(-0.0717891 0.0522979 1.72007e-19)
(-0.079085 0.0491911 -1.35919e-20)
(-0.0837 0.0455957 8.85787e-20)
(-0.0855512 0.0417444 1.10017e-20)
(-0.0845275 0.0376702 6.17131e-21)
(-0.0803584 0.0333065 -2.72074e-20)
(-0.0736576 0.0288269 6.45161e-20)
(-0.060945 0.0229472 1.57472e-19)
(-0.050453 0.0202611 -1.7569e-19)
(-0.0229493 0.0126662 -6.20177e-20)
(-0.00796091 0.0211092 7.38463e-20)
(-0.0218785 0.0443461 1.28628e-19)
(-0.0367194 0.0558718 -3.46818e-20)
(-0.0492823 0.0602388 -5.99738e-20)
(-0.0593851 0.0602695 -5.95925e-20)
(-0.0666171 0.0579352 7.88681e-21)
(-0.0708054 0.0544167 5.48123e-20)
(-0.0718256 0.0503496 -1.72161e-19)
(-0.0695499 0.0460147 -2.79849e-21)
(-0.063827 0.041469 -5.13134e-20)
(-0.0540854 0.0366265 -1.2441e-19)
(-0.0418433 0.0317787 1.26305e-19)
(-0.0208153 0.0252141 -1.71897e-19)
(-0.004846 0.0216828 9.04387e-20)
(0.0348484 0.0129364 6.41288e-20)
(-0.00919147 0.0226451 -4.03263e-20)
(-0.023852 0.0478067 4.787e-20)
(-0.0379128 0.0603779 -8.60567e-20)
(-0.0487943 0.0651462 7.32087e-20)
(-0.0564858 0.0651545 9.92609e-20)
(-0.0606972 0.062547 1.17951e-19)
(-0.0612856 0.0586244 -4.75769e-20)
(-0.0580949 0.0541015 -3.69107e-20)
(-0.0509237 0.0493103 1.69705e-19)
(-0.0395907 0.0443474 1.21816e-19)
(-0.0230427 0.0392027 1.13638e-19)
(-0.00390964 0.0338617 -1.66985e-19)
(0.0273148 0.027196 4.79014e-20)
(0.0497912 0.0228958 4.69329e-20)
(0.106205 0.0134157 -1.28434e-21)
(-0.0104654 0.0238253 -1.76962e-19)
(-0.0259172 0.050518 -2.30735e-19)
(-0.0391471 0.0639203 8.63936e-20)
(-0.0481775 0.0689777 1.1689e-19)
(-0.0531693 0.0689133 -2.41178e-19)
(-0.0539503 0.0660161 -1.06796e-20)
(-0.0503964 0.0616912 -9.4734e-20)
(-0.0422993 0.0567273 2.25213e-19)
(-0.029343 0.051513 -9.9725e-20)
(-0.0112868 0.0461736 -1.207e-20)
(0.0134166 0.0408581 7.67088e-20)
(0.0408554 0.0350326 1.90848e-19)
(0.0854245 0.0286715 8.3562e-20)
(0.114164 0.0242868 -6.71371e-20)
(0.193805 0.0147956 -1.30345e-20)
(-0.0117637 0.0246672 1.2289e-19)
(-0.0280325 0.0524776 1.65285e-19)
(-0.0403703 0.0664631 -1.13517e-19)
(-0.0473636 0.0716682 -3.86957e-19)
(-0.0493382 0.0714601 -4.25603e-20)
(-0.0462273 0.0682456 1.73322e-21)
(-0.0379051 0.0635182 1.27695e-19)
(-0.0240805 0.0581341 -2.83597e-19)
(-0.0042846 0.0525388 -1.27765e-20)
(0.0218036 0.0468751 -1.48605e-19)
(0.0564669 0.0415288 -1.95565e-19)
(0.0935705 0.0353507 -1.25903e-19)
(0.155274 0.0300437 1.18079e-20)
(0.189743 0.0251601 -4.16495e-20)
(0.299563 0.0181012 -1.27173e-19)
(-0.0130725 0.025198 6.79478e-20)
(-0.0301545 0.0537012 1.19495e-19)
(-0.0415122 0.0679918 -5.50199e-20)
(-0.0462462 0.0731755 -4.99268e-20)
(-0.0448309 0.0727344 3.15457e-19)
(-0.0372806 0.0691686 -3.25396e-19)
(-0.0234341 0.0640449 1.68734e-20)
(-0.00287722 0.0582825 7.45445e-20)
(0.0250687 0.0523882 5.50485e-20)
(0.0607739 0.0465182 3.80178e-20)
(0.107523 0.0414935 6.61962e-20)
(0.156055 0.0347637 -4.96405e-20)
(0.2384 0.0320707 1.50821e-19)
(0.278473 0.0254033 1.21497e-19)
(0.423678 0.0236969 7.96908e-20)
(-0.0143827 0.0254525 2.92915e-20)
(-0.0322352 0.0542192 -2.42202e-19)
(-0.0424786 0.068513 3.53022e-19)
(-0.0446682 0.0734842 4.37386e-19)
(-0.0394007 0.0727089 -1.47013e-19)
(-0.0267315 0.06876 5.21804e-20)
(-0.00641471 0.0632682 -1.3615e-19)
(0.0221376 0.0572155 -2.32044e-20)
(0.0598671 0.0511877 -2.56531e-19)
(0.107158 0.0453058 5.49264e-20)
(0.168287 0.0411896 2.13738e-19)
(0.230662 0.0337457 -2.83151e-20)
(0.335504 0.0353676 7.02925e-20)
(0.382641 0.0260937 -2.9076e-20)
(0.563145 0.0315813 7.96809e-21)
(-0.0156896 0.0254686 -1.43977e-19)
(-0.0342188 0.0540728 -1.62559e-19)
(-0.0431429 0.0680538 -3.87297e-19)
(-0.0424081 0.072609 -2.77105e-19)
(-0.0326931 0.0713967 -2.1856e-19)
(-0.0140368 0.0670505 2.47548e-19)
(0.0139558 0.0612626 4.89473e-20)
(0.0520994 0.0550856 1.06928e-19)
(0.101614 0.0492135 5.68468e-20)
(0.162857 0.0436699 -1.60019e-19)
(0.24053 0.041152 -8.31797e-20)
(0.319808 0.033526 2.32655e-20)
(0.445711 0.0401379 -2.97914e-19)
(0.503588 0.0292382 6.75195e-20)
(0.710779 0.0418811 -1.72026e-19)
(-0.0169901 0.0252838 7.38712e-20)
(-0.0360355 0.0533086 5.66872e-19)
(-0.043339 0.0666622 2.87065e-19)
(-0.0391657 0.0705972 1.3393e-19)
(-0.0242242 0.0688598 3.40519e-19)
(0.00153852 0.0641415 -2.97275e-19)
(0.0387395 0.058203 -1.23332e-19)
(0.0884531 0.0521851 -1.18865e-19)
(0.152094 0.0469229 5.68975e-19)
(0.229892 0.0423325 1.83912e-19)
(0.325701 0.041964 -1.42209e-19)
(0.424728 0.0358414 7.67292e-20)
(0.566343 0.046415 -1.01676e-19)
(0.639282 0.0365963 1.06948e-19)
(0.855911 0.0546598 4.97209e-20)
(-0.0182808 0.0249318 -7.02827e-21)
(-0.0375949 0.0519743 -3.02819e-19)
(-0.0428517 0.0644056 -2.75601e-19)
(-0.0345501 0.0675303 -9.56657e-20)
(-0.0133649 0.0652168 -1.67884e-19)
(0.020936 0.0602198 1.7293e-19)
(0.0692513 0.054387 8.39351e-20)
(0.132882 0.0489732 -1.26688e-19)
(0.213169 0.0449635 2.17915e-21)
(0.309892 0.042273 -9.68608e-20)
(0.424377 0.0443508 2.19438e-20)
(0.54383 0.0420888 2.99479e-20)
(0.693068 0.0545291 2.5841e-20)
(0.782336 0.0486051 6.6262e-20)
(0.987 0.0691732 -1.7951e-19)
(-0.0195556 0.0244397 -1.48552e-19)
(-0.0387874 0.0501254 1.2212e-19)
(-0.041402 0.0613587 1.15104e-19)
(-0.0280707 0.063524 1.43983e-20)
(0.000665905 0.06065 1.16471e-19)
(0.0452939 0.0555705 -1.56513e-19)
(0.106999 0.050252 1.62328e-19)
(0.187128 0.0460886 2.57701e-20)
(0.286407 0.0441597 -1.83313e-19)
(0.403388 0.044534 5.24169e-21)
(0.535477 0.0492889 -1.82811e-19)
(0.671839 0.0525668 1.65898e-19)
(0.819934 0.064923 2.24133e-20)
(0.92076 0.0642257 3.80122e-20)
(1.09487 0.0837015 1.80628e-19)
(-0.020798 0.0238267 4.17067e-19)
(-0.039476 0.0478077 -1.64696e-19)
(-0.0386522 0.0576056 -8.73222e-20)
(-0.0191304 0.0587342 -1.0767e-19)
(0.018792 0.0554104 -2.91282e-19)
(0.0759016 0.0505855 -9.60882e-20)
(0.153554 0.0463804 1.89549e-19)
(0.252692 0.0443304 -1.26698e-19)
(0.372531 0.0454546 -4.88557e-19)
(0.509114 0.0499427 1.78814e-19)
(0.655376 0.0577071 4.05471e-20)
(0.800625 0.0664991 -1.09941e-19)
(0.939577 0.0774603 6.35759e-20)
(1.04197 0.081537 -6.08115e-20)
(1.17503 0.096343 7.46012e-20)
(-0.0219756 0.0230945 -6.69183e-20)
(-0.039483 0.0450537 2.15944e-19)
(-0.0342054 0.0532527 2.42138e-19)
(-0.0070388 0.0533542 1.86381e-19)
(0.0420489 0.0498194 2.87257e-19)
(0.11411 0.0457651 2.54294e-19)
(0.210329 0.0434858 -2.87337e-19)
(0.330409 0.0445891 3.98439e-19)
(0.470779 0.0497587 3.12695e-19)
(0.623594 0.0589085 -2.90151e-19)
(0.777711 0.0698417 2.21098e-19)
(0.921285 0.0824858 -5.81989e-20)
(1.04456 0.0912407 -1.06575e-19)
(1.13743 0.0985956 -1.47102e-19)
(1.22796 0.105687 -7.57536e-20)
(-0.0230322 0.02223 -1.86856e-19)
(-0.0385954 0.0418981 3.72392e-19)
(-0.0276022 0.0484148 -2.00427e-20)
(0.00897236 0.0476139 3.8715e-20)
(0.0715291 0.0442691 -5.22528e-20)
(0.161189 0.0417093 -3.92286e-21)
(0.278278 0.0423709 2.44935e-19)
(0.419958 0.0477163 -1.86247e-19)
(0.578432 0.0576859 1.88299e-19)
(0.741256 0.0713102 2.3415e-19)
(0.894576 0.0849079 -1.50772e-19)
(1.02644 0.0989126 1.19497e-19)
(1.12967 0.105163 -4.57406e-20)
(1.20479 0.113808 1.11247e-19)
(1.25791 0.110873 5.2437e-20)
(-0.0238973 0.0212248 -2.63503e-19)
(-0.0365509 0.038367 2.92035e-20)
(-0.018329 0.0432142 9.96323e-20)
(0.0297214 0.0417802 -1.60384e-19)
(0.108301 0.0392194 -1.83432e-19)
(0.218134 0.0390976 1.12541e-19)
(0.357529 0.0438444 -2.09152e-19)
(0.51945 0.0543423 1.6482e-19)
(0.690809 0.0692938 -6.75555e-20)
(0.855293 0.0864355 -2.56718e-19)
(0.998719 0.101397 -1.47306e-19)
(1.11183 0.114416 2.15883e-19)
(1.19327 0.118401 -9.12316e-20)
(1.24701 0.125545 -5.6801e-20)
(1.27157 0.11187 -9.75178e-20)
(-0.0244921 0.020064 5.18848e-19)
(-0.0330475 0.0344762 -6.37919e-19)
(-0.00582661 0.0377907 -1.45773e-19)
(0.0560366 0.0361607 -8.58183e-20)
(0.153303 0.0351938 5.334e-20)
(0.285427 0.038647 -2.12073e-19)
(0.447034 0.0485871 1.23135e-19)
(0.625302 0.0646754 6.10648e-20)
(0.801967 0.0839931 -4.05872e-19)
(0.959202 0.103093 3.31478e-19)
(1.08547 0.117717 8.65856e-20)
(1.17665 0.128267 -2.32733e-19)
(1.23679 0.130115 1.35826e-19)
(1.26995 0.132639 8.75113e-20)
(1.28777 0.121216 1.89781e-20)
(-0.0247119 0.0187209 -3.49856e-19)
(-0.0277558 0.0302525 5.81083e-19)
(0.0104885 0.0323078 5.65331e-20)
(0.0887052 0.0311086 -2.08252e-19)
(0.207205 0.0327693 2.56839e-19)
(0.36277 0.0410375 -1.55323e-19)
(0.54437 0.0569839 1.65966e-20)
(0.732623 0.0783784 -1.98637e-19)
(0.905949 0.100702 3.5678e-19)
(1.04833 0.119955 -1.58976e-19)
(1.15337 0.132756 4.335e-20)
(1.22273 0.140254 -6.7632e-20)
(1.26366 0.13935 -6.5996e-21)
(1.2837 0.139519 9.8542e-21)
(1.2925 0.12719 2.13569e-20)
(-0.0244298 0.0171703 7.52734e-20)
(-0.0203196 0.0257393 -3.44461e-19)
(0.0312024 0.0269602 -3.01365e-19)
(0.128409 0.0270284 7.98876e-20)
(0.270248 0.0325521 -2.08432e-19)
(0.44887 0.0467983 -1.92147e-19)
(0.645848 0.0689806 6.07526e-20)
(0.836107 0.0946212 2.83869e-19)
(0.99808 0.118174 9.39504e-20)
(1.12064 0.135958 -1.83491e-19)
(1.20356 0.146024 -5.01152e-20)
(1.25322 0.150223 2.62821e-20)
(1.27928 0.147116 1.45431e-19)
(1.28925 0.144957 -3.21851e-20)
(1.29202 0.132396 -3.89517e-20)
(-0.0235029 0.0153962 -4.13124e-20)
(-0.0103615 0.0210044 4.52911e-19)
(0.056879 0.0219848 2.12297e-19)
(0.175644 0.024381 7.50807e-20)
(0.342068 0.0351249 1.47766e-19)
(0.541357 0.0561718 2.85489e-19)
(0.747044 0.0840574 1.33355e-19)
(0.93112 0.112317 -2.94343e-19)
(1.07573 0.135333 -1.85158e-19)
(1.17641 0.150498 3.16965e-19)
(1.23862 0.157419 -3.12339e-20)
(1.27201 0.158576 -2.10687e-20)
(1.2868 0.153585 -1.85344e-19)
(1.2901 0.149746 -2.37541e-20)
(1.28975 0.137086 1.72023e-19)
(-0.0217751 0.0133967 -7.14729e-20)
(0.00250497 0.0161495 -5.72692e-19)
(0.0880273 0.017672 -4.30565e-20)
(0.230624 0.0236772 -1.20948e-19)
(0.42155 0.0409568 -3.27071e-19)
(0.636969 0.0690193 1.09163e-19)
(0.843603 0.101361 -2.66985e-19)
(1.01449 0.130417 1.2085e-19)
(1.13829 0.151463 -1.04642e-20)
(1.21742 0.16337 -1.80362e-19)
(1.26169 0.167159 1.16832e-19)
(1.28232 0.165654 -6.00545e-20)
(1.28913 0.159243 7.60716e-20)
(1.2882 0.15407 1.28177e-19)
(1.28537 0.141325 -2.48541e-20)
(-0.0190802 0.011188 -4.84182e-22)
(0.0186617 0.0113207 9.46888e-20)
(0.125059 0.0143764 9.13157e-20)
(0.293163 0.0254486 -8.66329e-21)
(0.506788 0.0502916 4.59882e-20)
(0.732025 0.0848358 -3.45445e-19)
(0.931998 0.119936 8.16209e-20)
(1.08473 0.148116 -5.24688e-20)
(1.18668 0.166217 4.10159e-20)
(1.24616 0.174658 1.02275e-19)
(1.27571 0.175556 -1.23881e-19)
(1.28681 0.171846 3.12224e-20)
(1.28817 0.164379 2.74254e-20)
(1.28451 0.158112 -3.46181e-20)
(1.28053 0.145459 2.33588e-20)
(-0.0152467 0.00880712 1.66e-19)
(0.0384696 0.00671568 2.92965e-19)
(0.168234 0.0125191 4.49016e-20)
(0.362575 0.030183 -1.08175e-19)
(0.595212 0.0630696 3.14023e-19)
(0.823024 0.102884 2.09707e-19)
(1.00995 0.138935 -7.58199e-20)
(1.14178 0.164914 2.85747e-21)
(1.22263 0.179531 -7.17007e-20)
(1.26519 0.18459 2.02676e-20)
(1.28319 0.182955 1.6482e-20)
(1.28742 0.177464 -7.11535e-20)
(1.28515 0.169215 -1.47193e-19)
(1.27989 0.162034 9.2323e-20)
(1.27504 0.149511 -1.39205e-19)
(-0.0101025 0.00631483 -1.81528e-19)
(0.0622479 0.00258832 -9.51252e-20)
(0.217595 0.0125777 -2.54874e-19)
(0.437612 0.038234 4.02253e-19)
(0.683924 0.0789356 -3.50572e-19)
(0.907157 0.122377 1.43222e-19)
(1.07644 0.15773 8.89252e-20)
(1.1866 0.18058 9.84092e-20)
(1.24823 0.191514 6.13836e-20)
(1.27682 0.193452 -1.21464e-20)
(1.28606 0.189662 -6.00832e-20)
(1.28549 0.182748 -1.41716e-19)
(1.28088 0.173903 7.42054e-20)
(1.27463 0.165908 6.99596e-20)
(1.26933 0.153563 1.49286e-19)
(-0.00348079 0.0037959 -1.62656e-19)
(0.0902497 -0.000749419 7.91533e-20)
(0.2729 0.0150532 8.11386e-20)
(0.516516 0.0497394 -1.7655e-19)
(0.770104 0.097337 6.82277e-20)
(0.982553 0.142621 -6.03781e-20)
(1.13149 0.175921 -9.2937e-20)
(1.22062 0.195076 -1.05374e-19)
(1.26553 0.202371 3.92953e-20)
(1.28297 0.201525 1.19839e-19)
(1.28576 0.195929 1.72841e-19)
(1.28192 0.18787 6.64484e-20)
(1.27581 0.178534 -4.41392e-20)
(1.269 0.169792 -4.72886e-20)
(1.26336 0.157637 -3.97441e-20)
(0.00477534 0.00135834 1.5701e-19)
(0.122632 -0.00293027 -7.83209e-20)
(0.33356 0.0204133 4.50193e-20)
(0.597185 0.0645935 2.55648e-19)
(0.85137 0.117656 2.44767e-19)
(1.04826 0.163082 -2.27409e-19)
(1.17579 0.193306 1.1126e-19)
(1.24551 0.208489 1.29031e-19)
(1.27635 0.212337 -2.1969e-19)
(1.28514 0.209058 4.52484e-20)
(1.2833 0.201947 -9.97661e-20)
(1.27726 0.192944 1.59525e-20)
(1.2702 0.183163 -4.99922e-20)
(1.26305 0.17371 9.00046e-20)
(1.2572 0.161736 -9.74589e-20)
(0.0148039 -0.000865213 -1.42579e-19)
(0.159423 -0.00353967 9.65987e-20)
(0.398626 0.0290211 1.30566e-19)
(0.677416 0.0824896 -3.38043e-20)
(0.925971 0.139315 -3.08939e-19)
(1.10409 0.183392 -1.10014e-19)
(1.21041 0.209822 -1.71946e-19)
(1.26287 0.22097 7.3453e-20)
(1.28222 0.221643 -1.02865e-20)
(1.28445 0.216255 -1.16467e-19)
(1.27934 0.207854 -1.07194e-19)
(1.27186 0.198039 2.00267e-20)
(1.26418 0.187813 4.059e-20)
(1.25685 0.177677 -8.27445e-20)
(1.25082 0.165864 4.19335e-20)
(0.0267157 -0.00271931 6.08952e-20)
(0.200487 -0.00213622 1.45385e-21)
(0.466831 0.0410778 -3.9275e-19)
(0.755163 0.103004 -2.82715e-20)
(0.992816 0.161832 2.21505e-19)
(1.15039 0.203323 2.24202e-19)
(1.23662 0.225499 1.53477e-19)
(1.27416 0.232696 -2.82583e-20)
(1.28433 0.230491 4.69968e-20)
(1.28171 0.22327 -1.52283e-21)
(1.27432 0.213738 8.50853e-20)
(1.26589 0.203189 3.33332e-20)
(1.25783 0.192494 7.21848e-20)
(1.2504 0.181695 -5.3994e-20)
(1.24423 0.170005 -4.046e-20)
(0.0405895 -0.00402692 -1.08275e-20)
(0.245496 0.00171861 1.11596e-19)
(0.536687 0.0566002 2.06433e-19)
(0.828712 0.125678 6.94585e-20)
(1.05139 0.184832 -1.99131e-19)
(1.18784 0.222753 -2.49227e-19)
(1.25565 0.240422 1.02129e-19)
(1.28062 0.243845 -6.18081e-20)
(1.28362 0.239048 1.74877e-19)
(1.27745 0.230211 4.80794e-21)
(1.26852 0.219654 -4.42235e-20)
(1.25947 0.208409 -1.67489e-20)
(1.25116 0.197203 8.14145e-20)
(1.24369 0.185758 7.18123e-20)
(1.2374 0.174146 7.69995e-20)
(0.0564611 -0.00459058 1.6083e-19)
(0.293922 0.00842054 -1.72489e-19)
(0.606625 0.0754413 1.08706e-19)
(0.896764 0.150074 1.52901e-19)
(1.10161 0.208034 1.32208e-19)
(1.21728 0.241636 5.32561e-20)
(1.26866 0.254704 2.84287e-20)
(1.28327 0.254574 -1.10541e-20)
(1.28077 0.247442 -8.02428e-20)
(1.27206 0.237149 3.01722e-20)
(1.26208 0.225628 7.21743e-20)
(1.25263 0.213693 2.94385e-20)
(1.24418 0.20193 -2.81057e-20)
(1.23671 0.189859 -2.98094e-20)
(1.23032 0.178267 -3.62265e-20)
(0.0743129 -0.00419704 -8.64048e-20)
(0.345044 0.0182813 6.25655e-20)
(0.675121 0.097335 -6.67585e-21)
(0.958444 0.175804 -1.60937e-19)
(1.14374 0.231237 -4.20876e-20)
(1.23962 0.259973 9.43453e-20)
(1.27667 0.268462 -8.39832e-20)
(1.2829 0.265017 5.66373e-21)
(1.27625 0.255762 -5.18181e-21)
(1.26576 0.24412 -2.77158e-20)
(1.25508 0.231662 -4.58309e-20)
(1.2454 0.219026 -6.48602e-20)
(1.23688 0.206659 -2.47578e-20)
(1.22945 0.193982 4.30968e-20)
(1.22296 0.182346 1.03313e-20)
(0.0940654 -0.00262535 -1.11539e-19)
(0.397983 0.0314972 -1.42029e-20)
(0.740808 0.121944 -7.1047e-20)
(1.01324 0.202527 6.66641e-20)
(1.1782 0.254295 -7.82677e-20)
(1.25575 0.277793 -3.40809e-20)
(1.28054 0.281801 8.80344e-21)
(1.28011 0.275272 -1.33562e-20)
(1.2704 0.264062 2.66095e-20)
(1.25868 0.251138 2.54468e-22)
(1.24757 0.237748 1.82877e-20)
(1.23776 0.224387 3.22011e-20)
(1.22924 0.211372 3.75854e-20)
(1.22189 0.198109 -1.68747e-20)
(1.21533 0.186359 -1.24482e-20)
(0.115569 0.000341035 6.72894e-20)
(0.451758 0.0481343 7.10107e-20)
(0.802543 0.148899 2.48549e-20)
(1.06092 0.229952 -3.91601e-20)
(1.20555 0.277105 8.64805e-21)
(1.26648 0.295135 5.94729e-20)
(1.28098 0.294813 -4.07467e-20)
(1.27536 0.285408 -3.54907e-20)
(1.26344 0.272366 -1.15017e-20)
(1.25091 0.258196 7.09861e-21)
(1.23956 0.243861 -3.96898e-20)
(1.22971 0.229745 8.45488e-21)
(1.22125 0.21605 2.2269e-20)
(1.214 0.202219 -8.95535e-21)
(1.2074 0.190277 -7.00895e-21)
(0.1386 0.00489966 -4.41993e-20)
(0.50534 0.0681318 -3.0208e-20)
(0.859426 0.17782 -5.88525e-20)
(1.1015 0.257819 -9.50802e-21)
(1.22638 0.29959 -6.17303e-21)
(1.27252 0.312039 -6.47347e-20)
(1.27855 0.307563 2.04419e-20)
(1.26897 0.295463 1.23944e-20)
(1.25551 0.280676 -2.04367e-20)
(1.24248 0.26527 -1.23329e-20)
(1.23103 0.249971 -4.65736e-22)
(1.22124 0.235069 -1.17493e-20)
(1.2129 0.220666 -1.79337e-20)
(1.20579 0.206283 -1.58018e-20)
(1.19921 0.194073 1.1192e-20)
(0.162868 0.011214 -2.03832e-20)
(0.557711 0.0913167 7.43445e-21)
(0.910801 0.208333 1.00121e-20)
(1.13513 0.285898 1.03157e-20)
(1.24129 0.321685 1.74998e-20)
(1.27452 0.328534 1.22627e-20)
(1.27368 0.320091 -3.42219e-21)
(1.26116 0.305447 1.18226e-20)
(1.24669 0.288973 -6.14593e-22)
(1.23341 0.272327 -7.15778e-23)
(1.22199 0.256038 4.68833e-21)
(1.21233 0.240321 -2.17872e-21)
(1.20417 0.225193 1.48601e-21)
(1.19726 0.21026 6.09477e-21)
(1.19077 0.197713 -4.89253e-21)
(0.188016 0.0194006 -1.30276e-20)
(0.607912 0.117424 -3.34611e-21)
(0.956229 0.240073 1.48576e-20)
(1.16207 0.313977 6.46894e-21)
(1.25085 0.343332 1.77991e-20)
(1.27298 0.344636 1.18567e-20)
(1.26671 0.332413 -3.83837e-22)
(1.2521 0.315347 1.35854e-20)
(1.23702 0.29722 -6.66914e-21)
(1.2237 0.279324 7.31757e-22)
(1.21241 0.262021 4.19597e-21)
(1.20296 0.245464 -1.87111e-21)
(1.19505 0.229591 1.77815e-21)
(1.18841 0.2141 6.25615e-21)
(1.1821 0.201161 -2.23275e-21)
(0.213643 0.0295209 -1.88602e-20)
(0.655084 0.146118 -5.30487e-20)
(0.995453 0.272687 -5.92227e-20)
(1.18264 0.341859 -2.17253e-21)
(1.25556 0.364474 -8.61947e-21)
(1.26835 0.360343 -5.82422e-20)
(1.2579 0.344519 2.81195e-20)
(1.24187 0.325129 2.72248e-21)
(1.22653 0.305371 -1.70914e-20)
(1.21334 0.28621 -1.47589e-20)
(1.20229 0.267874 2.03419e-21)
(1.19312 0.250456 -7.94579e-21)
(1.18553 0.233819 -8.42747e-21)
(1.17921 0.217749 -1.1603e-20)
(1.17319 0.204392 6.79127e-21)
(0.239311 0.0415777 7.07127e-20)
(0.698482 0.177008 5.137e-20)
(1.02837 0.305833 2.15342e-20)
(1.19721 0.369358 -2.99706e-20)
(1.25592 0.385045 1.37089e-20)
(1.26098 0.375633 3.09399e-20)
(1.24742 0.356379 -2.33795e-20)
(1.23056 0.334746 -4.4159e-20)
(1.21524 0.313369 -2.85208e-21)
(1.20232 0.292931 2.42379e-20)
(1.19162 0.27355 -2.72179e-20)
(1.1828 0.255257 1.14069e-20)
(1.17559 0.23784 5.18532e-21)
(1.16966 0.221166 1.15507e-21)
(1.16392 0.207387 -7.76986e-23)
(0.264565 0.0555166 -8.59772e-20)
(0.737497 0.209666 -5.38177e-20)
(1.05499 0.339176 -8.36097e-20)
(1.20616 0.396297 7.26325e-20)
(1.25233 0.404975 -7.46875e-20)
(1.25116 0.390466 -1.71598e-20)
(1.23542 0.367941 -1.28286e-21)
(1.21821 0.344132 1.30611e-21)
(1.20315 0.321148 3.14581e-20)
(1.19064 0.299429 -3.23453e-20)
(1.18038 0.278997 2.57186e-20)
(1.172 0.259824 9.39963e-21)
(1.16525 0.241623 2.15962e-20)
(1.15974 0.22435 -5.94837e-23)
(1.15417 0.210126 -5.71061e-21)
(0.288946 0.0712303 1.21563e-20)
(0.771658 0.243638 1.55818e-20)
(1.0754 0.372389 -2.83676e-20)
(1.20986 0.422505 -1.09547e-19)
(1.24517 0.424181 -2.65467e-20)
(1.23912 0.404785 6.75709e-20)
(1.222 0.37914 -5.07923e-20)
(1.20484 0.353217 -2.34089e-20)
(1.19025 0.32864 7.10656e-21)
(1.17829 0.305642 -6.28609e-21)
(1.16857 0.284163 -3.42953e-20)
(1.16072 0.26411 -1.61375e-20)
(1.15451 0.245139 -3.00174e-21)
(1.14947 0.227352 4.44015e-21)
(1.14389 0.212594 3.12501e-21)
(0.312014 0.0885627 1.65034e-19)
(0.800638 0.278464 -2.0498e-19)
(1.08979 0.405151 1.37203e-19)
(1.20868 0.447815 6.90665e-20)
(1.23476 0.442576 1.89883e-19)
(1.22505 0.418517 4.09562e-21)
(1.20725 0.389897 4.42538e-20)
(1.19048 0.361918 1.17996e-20)
(1.17656 0.335769 -6.76016e-20)
(1.16528 0.311507 2.36105e-20)
(1.15621 0.288994 1.77681e-20)
(1.14897 0.268063 2.04261e-20)
(1.14339 0.24834 -1.71809e-20)
(1.13882 0.230198 -2.55495e-21)
(1.13344 0.214808 5.95659e-22)
(0.333352 0.107312 -2.19984e-20)
(0.82423 0.313688 2.38789e-19)
(1.09834 0.437153 1.77248e-19)
(1.20298 0.472058 2.86296e-20)
(1.2214 0.460058 -1.76382e-19)
(1.20911 0.431575 -1.01928e-19)
(1.19121 0.400124 2.99701e-20)
(1.17515 0.370149 -1.61608e-20)
(1.16208 0.342457 3.69774e-20)
(1.15163 0.316954 7.75597e-21)
(1.14332 0.293436 7.61331e-21)
(1.13679 0.271641 -1.02369e-20)
(1.13189 0.251203 3.49034e-21)
(1.12777 0.232729 8.88637e-21)
(1.12292 0.216747 2.23047e-21)
(0.35259 0.12724 1.84822e-19)
(0.842331 0.348862 -1.96934e-19)
(1.10132 0.468094 -2.95845e-19)
(1.19311 0.495066 2.07534e-20)
(1.20533 0.47652 1.39455e-19)
(1.19143 0.443865 1.25936e-19)
(1.17394 0.409722 5.74347e-20)
(1.15888 0.377817 5.8383e-21)
(1.14685 0.348626 5.8938e-21)
(1.13736 0.321919 -1.12031e-22)
(1.12991 0.297421 1.41807e-20)
(1.12417 0.274801 7.43057e-22)
(1.12001 0.25371 -3.42077e-21)
(1.1164 0.234913 -3.28006e-21)
(1.11221 0.218332 -3.09192e-21)
(0.369402 0.148072 -2.38593e-19)
(0.85493 0.383549 1.81263e-19)
(1.099 0.497684 1.54393e-19)
(1.17938 0.516671 -1.00056e-19)
(1.18678 0.491848 -1.94631e-19)
(1.1721 0.455278 -3.77315e-20)
(1.15552 0.418584 -8.06126e-20)
(1.14175 0.384832 3.09035e-20)
(1.13091 0.354195 -5.77429e-21)
(1.12249 0.326337 -1.27493e-20)
(1.11598 0.300905 -5.0917e-21)
(1.11114 0.277497 -3.84128e-21)
(1.10775 0.255808 -5.80013e-21)
(1.10474 0.236698 2.85345e-21)
(1.10132 0.21954 -4.24286e-21)
(0.383522 0.169514 3.38804e-19)
(0.862094 0.417334 -2.15039e-19)
(1.09169 0.525647 1.10621e-19)
(1.16211 0.536709 9.92976e-20)
(1.16592 0.505919 1.6452e-19)
(1.15126 0.465694 -9.05714e-20)
(1.13607 0.426608 2.95461e-20)
(1.12376 0.391095 2.58126e-20)
(1.11425 0.359098 -1.57634e-20)
(1.10703 0.330142 1.44778e-21)
(1.10159 0.303825 3.69408e-21)
(1.09771 0.279687 -3.2748e-21)
(1.09516 0.257459 4.54798e-21)
(1.09282 0.238051 -1.00621e-20)
(1.09024 0.220342 2.62044e-20)
(0.394744 0.19125 -1.87817e-19)
(0.863957 0.449816 1.20932e-20)
(1.07971 0.551724 7.19531e-20)
(1.14157 0.555025 -1.47088e-19)
(1.14294 0.5186 5.33695e-20)
(1.12912 0.474999 1.42205e-20)
(1.1156 0.433675 -3.55689e-20)
(1.10492 0.396535 -1.29384e-20)
(1.09693 0.363246 7.94204e-21)
(1.09103 0.333267 1.78738e-21)
(1.08676 0.306131 -8.98019e-21)
(1.08392 0.281325 -2.27887e-20)
(1.08225 0.258619 -6.94399e-21)
(1.08066 0.238936 3.0794e-20)
(1.079 0.220731 9.25564e-21)
(0.402923 0.212957 3.51016e-20)
(0.86071 0.480617 -1.89026e-19)
(1.0634 0.575673 -2.35793e-19)
(1.11808 0.571474 1.68818e-19)
(1.11814 0.529763 -8.35387e-20)
(1.10573 0.483063 4.46423e-20)
(1.09411 0.439701 1.73703e-20)
(1.08532 0.40104 2.71006e-21)
(1.07898 0.366565 3.37404e-21)
(1.07453 0.33565 -6.74996e-21)
(1.07153 0.307769 9.73807e-21)
(1.0698 0.282371 1.82917e-20)
(1.06908 0.259251 -9.78107e-21)
(1.06828 0.239322 -8.08884e-21)
(1.06762 0.220692 -4.78577e-20)
(0.407976 0.234307 1.39882e-19)
(0.852605 0.509383 3.51242e-19)
(1.04312 0.597262 -5.68121e-20)
(1.09192 0.585875 -1.05184e-19)
(1.09168 0.539313 1.43389e-19)
(1.08111 0.489766 3.62846e-20)
(1.07175 0.44457 -5.13473e-21)
(1.06502 0.404531 -7.82997e-21)
(1.06048 0.368981 -8.1295e-22)
(1.05758 0.337228 2.40047e-20)
(1.05595 0.308689 -1.5763e-20)
(1.05541 0.282783 -5.40124e-21)
(1.05567 0.259319 3.78354e-20)
(1.05572 0.239176 1.34085e-20)
(1.05614 0.22021 4.30434e-20)
(0.409889 0.254977 -6.24389e-20)
(0.839975 0.535808 1.28816e-19)
(1.01915 0.61625 1.07608e-19)
(1.06335 0.598076 -5.06091e-20)
(1.0637 0.547099 -2.97565e-20)
(1.05544 0.49502 -1.72917e-20)
(1.04857 0.448186 -1.63652e-20)
(1.04408 0.406921 4.54279e-21)
(1.04147 0.370426 1.2584e-20)
(1.04025 0.337945 -3.36397e-20)
(1.04006 0.308844 3.98208e-20)
(1.04078 0.282522 -2.2418e-20)
(1.04207 0.258787 -5.59617e-20)
(1.04303 0.238459 7.39141e-20)
(1.0446 0.219262 -5.33052e-20)
(0.408733 0.274642 -1.2051e-19)
(0.823224 0.559684 -4.30385e-19)
(0.991665 0.632362 1.3496e-20)
(1.03266 0.607919 -5.21121e-20)
(1.03438 0.553004 -6.29342e-20)
(1.02884 0.498715 1.7281e-20)
(1.0247 0.450458 2.25711e-20)
(1.02259 0.408137 -2.29244e-20)
(1.02204 0.370836 -2.58476e-20)
(1.02258 0.337746 4.73531e-20)
(1.02394 0.308189 -2.24436e-20)
(1.02597 0.281552 -1.2502e-20)
(1.02832 0.25762 -5.00441e-21)
(1.03022 0.237131 -2.07656e-20)
(1.033 0.217828 1.85133e-20)
(0.404649 0.292951 1.12137e-20)
(0.802657 0.580845 2.22489e-19)
(0.960997 0.64546 8.32552e-20)
(1.00017 0.615186 3.45705e-20)
(1.00392 0.556926 1.06274e-20)
(1.00145 0.50076 -2.56729e-20)
(1.00023 0.451303 -2.67485e-20)
(1.00064 0.408106 5.68593e-20)
(1.00225 0.370153 1.04121e-19)
(1.00466 0.336583 -1.0776e-19)
(1.00764 0.306685 -1.43202e-20)
(1.01104 0.279843 1.15969e-20)
(1.01447 0.255793 9.00592e-20)
(1.01734 0.235155 2.84025e-20)
(1.02139 0.215899 -8.18852e-20)
(0.397783 0.309548 6.64241e-20)
(0.778278 0.598826 -2.10558e-19)
(0.92789 0.655688 -2.36721e-20)
(0.966206 0.619755 -2.34094e-20)
(0.972515 0.558745 2.08728e-20)
(0.973408 0.501065 -1.54428e-20)
(0.975268 0.450647 1.00465e-20)
(0.978321 0.406768 -7.76176e-20)
(0.982189 0.368323 -5.64125e-20)
(0.986555 0.33441 7.69991e-20)
(0.991229 0.304294 -5.62956e-20)
(0.996027 0.277367 7.75218e-20)
(1.00057 0.253287 -7.33628e-20)
(1.00451 0.232513 2.15193e-20)
(1.01001 0.213457 7.96779e-20)
(0.388198 0.324255 -1.58893e-19)
(0.750314 0.613146 2.25827e-19)
(0.892766 0.66281 -4.74202e-21)
(0.931003 0.62168 1.5084e-20)
(0.940362 0.558386 -4.34087e-20)
(0.944852 0.499552 1.67009e-20)
(0.949935 0.448425 7.1846e-20)
(0.955731 0.404068 9.62827e-20)
(0.961942 0.365301 -1.98849e-19)
(0.968334 0.331186 5.81855e-20)
(0.974757 0.300979 1.60564e-20)
(0.980989 0.274084 -1.06768e-19)
(0.986706 0.250069 8.50061e-20)
(0.991991 0.229199 -2.9126e-20)
(0.999231 0.210519 3.71567e-20)
(0.376042 0.336873 1.82509e-19)
(0.719515 0.623818 -1.2721e-19)
(0.855867 0.666582 9.84131e-21)
(0.89482 0.62089 1.48381e-22)
(0.907651 0.555783 -4.08976e-21)
(0.915933 0.496154 7.15288e-20)
(0.924353 0.444583 -9.75123e-20)
(0.932975 0.399959 8.37605e-20)
(0.9416 0.361048 1.20906e-19)
(0.950074 0.32688 -1.70003e-19)
(0.958276 0.296706 5.26447e-20)
(0.965963 0.269941 -2.73048e-20)
(0.973005 0.246043 -6.6196e-21)
(0.98005 0.225121 -8.96449e-20)
(0.989132 0.207288 -4.71953e-20)
(0.361514 0.347125 -4.84473e-20)
(0.686349 0.630689 4.50027e-20)
(0.817522 0.666889 3.09726e-20)
(0.857917 0.617317 1.36683e-20)
(0.874578 0.550883 1.10657e-19)
(0.886806 0.490817 -1.04518e-19)
(0.898649 0.439075 1.38595e-19)
(0.910164 0.394407 -1.10426e-19)
(0.921254 0.355536 1.28541e-19)
(0.931846 0.32147 1.45496e-19)
(0.941838 0.291458 -2.55432e-20)