/*--------------------------------*- C++ -*----------------------------------*\
  =========                 |
  \\      /  F ield         | OpenFOAM: The Open Source CFD Toolbox
   \\    /   O peration     | Website:  https://openfoam.org
    \\  /    A nd           | Version:  7
     \\/     M anipulation  |
\*---------------------------------------------------------------------------*/
FoamFile
{
    version     2.0;
    format      ascii;
    class       volScalarField;
    location    "60";
    object      p;
}
// * * * * * * * * * * * * * * * * * * * * * * * * * * * * * * * * * * * * * //

dimensions      [0 2 -2 0 0 0 0];

internalField   nonuniform List<scalar> 
6000
(
-0.241663
-0.243739
-0.2446
-0.245398
-0.246061
-0.246647
-0.2472
-0.247733
-0.248252
-0.248755
-0.249234
-0.249679
-0.250082
-0.250431
-0.250716
-0.250926
-0.251054
-0.251091
-0.251034
-0.250882
-0.241767
-0.243827
-0.244682
-0.245474
-0.246131
-0.246714
-0.247263
-0.247793
-0.248309
-0.248808
-0.249284
-0.249728
-0.250128
-0.250475
-0.250758
-0.250967
-0.251093
-0.251128
-0.251068
-0.250911
-0.241987
-0.244015
-0.244857
-0.245638
-0.246285
-0.24686
-0.247402
-0.247926
-0.248437
-0.248932
-0.249404
-0.249844
-0.250241
-0.250586
-0.250866
-0.251072
-0.251195
-0.251226
-0.25116
-0.250996
-0.242318
-0.244299
-0.245123
-0.245886
-0.24652
-0.247084
-0.247615
-0.24813
-0.248634
-0.249122
-0.249588
-0.250023
-0.250417
-0.250758
-0.251035
-0.251239
-0.251358
-0.251384
-0.251309
-0.251132
-0.250853
-0.242757
-0.244677
-0.245476
-0.246218
-0.246833
-0.247381
-0.247899
-0.248402
-0.248895
-0.249375
-0.249834
-0.250262
-0.250651
-0.250987
-0.251261
-0.251461
-0.251575
-0.251595
-0.25151
-0.251316
-0.251012
-0.243298
-0.245144
-0.245914
-0.246627
-0.24722
-0.247748
-0.248249
-0.248737
-0.249217
-0.249685
-0.250134
-0.250555
-0.250936
-0.251267
-0.251537
-0.251732
-0.251841
-0.251852
-0.251755
-0.251542
-0.251208
-0.243936
-0.245696
-0.24643
-0.247111
-0.247675
-0.248179
-0.248659
-0.249128
-0.249592
-0.250045
-0.250482
-0.250893
-0.251266
-0.25159
-0.251853
-0.252043
-0.252146
-0.252148
-0.252038
-0.251803
-0.251435
-0.244662
-0.246326
-0.24702
-0.247662
-0.248194
-0.248669
-0.249123
-0.24957
-0.250013
-0.250449
-0.250871
-0.251268
-0.25163
-0.251945
-0.252201
-0.252384
-0.25248
-0.252473
-0.252348
-0.25209
-0.251686
-0.245469
-0.247029
-0.247678
-0.248276
-0.24877
-0.249211
-0.249635
-0.250054
-0.250473
-0.250887
-0.25129
-0.251671
-0.25202
-0.252323
-0.252569
-0.252744
-0.252831
-0.252815
-0.252675
-0.252394
-0.251952
-0.24635
-0.247797
-0.248397
-0.248946
-0.249397
-0.249799
-0.250187
-0.250573
-0.250963
-0.251351
-0.251731
-0.252092
-0.252423
-0.252713
-0.252946
-0.25311
-0.253188
-0.25316
-0.253005
-0.252701
-0.252224
-0.247295
-0.248626
-0.249171
-0.249666
-0.250068
-0.250425
-0.250771
-0.25112
-0.251474
-0.251831
-0.252183
-0.25252
-0.25283
-0.253101
-0.253319
-0.25347
-0.253535
-0.253495
-0.253325
-0.252998
-0.252487
-0.248296
-0.249507
-0.249995
-0.250431
-0.250778
-0.251083
-0.251381
-0.251685
-0.251998
-0.252318
-0.252636
-0.252943
-0.253228
-0.253476
-0.253675
-0.253809
-0.253859
-0.253804
-0.253617
-0.253268
-0.252723
-0.251931
-0.249346
-0.250436
-0.250862
-0.251233
-0.251519
-0.251767
-0.252009
-0.252261
-0.252526
-0.252802
-0.253081
-0.253353
-0.253606
-0.253827
-0.254002
-0.254115
-0.254146
-0.254072
-0.253866
-0.253494
-0.252915
-0.252075
-0.250437
-0.251406
-0.251767
-0.252069
-0.252287
-0.252469
-0.252649
-0.252841
-0.253051
-0.253276
-0.253509
-0.253739
-0.253955
-0.254142
-0.254288
-0.254374
-0.254381
-0.254285
-0.254056
-0.253657
-0.253043
-0.252167
-0.251564
-0.252414
-0.252706
-0.252933
-0.253077
-0.253186
-0.253294
-0.253419
-0.253565
-0.253731
-0.25391
-0.254092
-0.254263
-0.254412
-0.254521
-0.254575
-0.254552
-0.254428
-0.25417
-0.253742
-0.253086
-0.252186
-0.252721
-0.253455
-0.253676
-0.253822
-0.253884
-0.253912
-0.25394
-0.253988
-0.254062
-0.254162
-0.254279
-0.254404
-0.254525
-0.254627
-0.254695
-0.25471
-0.254651
-0.254491
-0.254198
-0.253733
-0.253023
-0.252113
-0.250373
-0.253906
-0.254527
-0.254673
-0.254733
-0.254706
-0.254643
-0.254583
-0.254545
-0.254538
-0.254561
-0.254609
-0.254671
-0.254734
-0.254783
-0.254801
-0.254771
-0.254668
-0.254466
-0.254128
-0.253619
-0.252837
-0.251933
-0.249907
-0.255116
-0.25563
-0.255697
-0.255665
-0.25554
-0.255378
-0.255219
-0.255086
-0.254988
-0.254928
-0.254898
-0.254888
-0.254885
-0.254874
-0.254837
-0.254754
-0.254601
-0.254348
-0.253955
-0.253396
-0.252519
-0.251633
-0.249259
-0.256351
-0.256762
-0.256747
-0.256617
-0.256386
-0.256115
-0.255848
-0.255609
-0.255412
-0.255258
-0.255142
-0.255054
-0.254978
-0.254901
-0.254801
-0.254659
-0.254447
-0.254134
-0.253676
-0.253058
-0.252062
-0.251199
-0.248433
-0.249293
-0.257613
-0.257927
-0.257825
-0.257589
-0.257245
-0.256856
-0.25647
-0.256116
-0.25581
-0.255555
-0.255344
-0.255169
-0.255015
-0.254863
-0.254695
-0.254486
-0.254207
-0.253826
-0.25329
-0.252601
-0.251464
-0.250616
-0.24745
-0.248658
-0.258906
-0.259127
-0.258934
-0.258586
-0.258118
-0.2576
-0.257087
-0.256609
-0.256185
-0.255819
-0.255507
-0.255238
-0.254998
-0.254767
-0.254522
-0.254239
-0.253885
-0.253424
-0.252796
-0.252022
-0.250727
-0.24986
-0.246336
-0.247716
-0.260237
-0.260367
-0.260077
-0.259609
-0.259009
-0.258354
-0.257702
-0.257091
-0.25654
-0.256056
-0.255635
-0.255267
-0.254934
-0.254616
-0.254289
-0.253923
-0.253483
-0.25293
-0.252192
-0.251312
-0.249847
-0.248902
-0.245112
-0.24642
-0.235099
-0.261613
-0.261653
-0.261262
-0.260665
-0.259923
-0.259121
-0.258322
-0.257568
-0.256883
-0.256273
-0.255737
-0.255263
-0.254831
-0.254421
-0.254003
-0.253544
-0.253004
-0.252341
-0.251475
-0.250458
-0.248818
-0.247715
-0.243776
-0.244753
-0.233978
-0.263044
-0.262995
-0.262493
-0.26176
-0.260867
-0.259908
-0.258953
-0.258048
-0.257221
-0.25648
-0.255822
-0.255236
-0.2547
-0.254189
-0.25367
-0.253105
-0.252449
-0.251654
-0.250636
-0.249444
-0.247624
-0.246275
-0.2423
-0.242734
-0.232823
-0.264544
-0.264401
-0.26378
-0.262902
-0.261849
-0.260724
-0.259604
-0.258541
-0.257565
-0.256687
-0.255902
-0.255198
-0.25455
-0.253929
-0.253297
-0.25261
-0.251815
-0.25086
-0.249659
-0.24825
-0.246239
-0.244569
-0.240639
-0.2404
-0.231524
-0.266125
-0.265879
-0.265136
-0.264101
-0.262877
-0.261577
-0.260285
-0.259058
-0.257927
-0.256905
-0.255988
-0.25516
-0.254392
-0.25365
-0.252889
-0.252056
-0.251095
-0.249945
-0.248527
-0.246855
-0.244635
-0.242587
-0.23874
-0.237794
-0.229985
-0.267802
-0.267444
-0.266569
-0.265367
-0.263963
-0.26248
-0.261009
-0.25961
-0.25832
-0.25715
-0.256095
-0.255134
-0.254236
-0.253357
-0.252445
-0.25144
-0.250277
-0.248892
-0.247216
-0.245238
-0.24278
-0.24032
-0.236558
-0.234934
-0.228122
-0.269593
-0.26911
-0.268091
-0.26671
-0.265117
-0.263443
-0.261786
-0.260212
-0.258757
-0.257433
-0.256233
-0.255131
-0.254088
-0.253052
-0.251962
-0.25075
-0.249346
-0.247683
-0.245704
-0.243384
-0.240651
-0.237762
-0.234053
-0.231772
-0.22585
-0.271516
-0.27089
-0.269714
-0.268144
-0.266353
-0.26448
-0.262631
-0.260875
-0.259251
-0.257769
-0.256415
-0.255159
-0.253953
-0.252734
-0.251433
-0.249973
-0.248284
-0.246298
-0.243974
-0.241284
-0.238239
-0.234922
-0.231202
-0.228194
-0.223111
-0.273591
-0.272795
-0.271453
-0.269682
-0.267682
-0.265603
-0.263557
-0.261616
-0.259818
-0.258169
-0.256652
-0.255225
-0.253831
-0.252398
-0.250845
-0.249094
-0.247072
-0.244721
-0.242017
-0.238938
-0.235554
-0.231841
-0.228014
-0.224165
-0.219971
-0.275832
-0.274847
-0.273322
-0.271336
-0.269118
-0.266827
-0.264578
-0.262447
-0.260468
-0.258645
-0.256949
-0.25533
-0.253719
-0.252032
-0.250184
-0.248093
-0.245694
-0.242941
-0.239831
-0.236359
-0.23262
-0.228566
-0.22454
-0.220058
-0.216453
-0.278257
-0.277057
-0.275333
-0.273121
-0.270676
-0.268165
-0.265708
-0.263381
-0.261215
-0.259204
-0.257312
-0.255474
-0.253609
-0.251625
-0.249432
-0.246954
-0.244137
-0.240956
-0.237426
-0.233563
-0.229476
-0.225125
-0.22082
-0.216123
-0.212162
-0.280888
-0.279441
-0.277503
-0.275051
-0.272368
-0.269631
-0.266961
-0.264432
-0.262068
-0.259855
-0.257741
-0.255649
-0.253488
-0.251158
-0.248571
-0.245662
-0.242396
-0.238768
-0.234817
-0.230576
-0.226162
-0.221539
-0.216996
-0.212113
-0.207847
-0.283741
-0.282012
-0.279844
-0.277138
-0.274209
-0.271238
-0.268349
-0.26561
-0.263036
-0.260598
-0.258232
-0.255847
-0.25334
-0.250613
-0.247585
-0.244207
-0.240468
-0.236388
-0.232025
-0.227427
-0.22271
-0.217848
-0.213097
-0.208076
-0.203645
-0.286833
-0.284787
-0.282371
-0.279398
-0.276212
-0.273001
-0.269885
-0.266925
-0.264123
-0.261434
-0.258779
-0.256053
-0.253149
-0.249972
-0.246459
-0.242583
-0.23836
-0.233831
-0.229072
-0.224141
-0.21915
-0.214077
-0.209151
-0.204022
-0.199473
-0.290179
-0.287777
-0.285097
-0.281843
-0.278391
-0.274932
-0.27158
-0.268384
-0.265332
-0.262359
-0.25937
-0.25625
-0.252893
-0.249218
-0.245183
-0.240789
-0.236078
-0.231114
-0.22598
-0.220743
-0.215505
-0.210244
-0.205169
-0.199947
-0.195326
-0.293794
-0.290997
-0.288037
-0.284487
-0.280759
-0.277044
-0.273444
-0.269994
-0.266661
-0.263363
-0.259988
-0.256417
-0.252553
-0.248335
-0.243749
-0.238828
-0.233636
-0.228253
-0.222769
-0.21725
-0.211788
-0.20636
-0.201153
-0.195849
-0.191168
-0.297691
-0.294459
-0.291202
-0.287343
-0.283329
-0.279347
-0.275484
-0.271756
-0.268107
-0.264434
-0.260614
-0.256533
-0.252109
-0.24731
-0.242155
-0.236705
-0.231045
-0.225266
-0.219456
-0.213678
-0.208011
-0.202429
-0.197101
-0.191722
-0.186985
-0.301882
-0.298174
-0.294604
-0.290424
-0.286114
-0.281852
-0.277707
-0.273669
-0.269658
-0.265553
-0.261227
-0.256575
-0.251543
-0.246134
-0.240401
-0.234429
-0.228318
-0.222164
-0.216051
-0.210034
-0.204176
-0.198453
-0.193011
-0.187559
-0.182763
-0.306377
-0.302153
-0.298256
-0.293742
-0.289124
-0.284568
-0.280115
-0.275727
-0.2713
-0.266699
-0.2618
-0.25652
-0.25084
-0.2448
-0.238487
-0.232006
-0.225465
-0.218959
-0.212562
-0.206321
-0.200286
-0.194429
-0.188876
-0.183352
-0.178496
-0.311182
-0.306404
-0.302167
-0.297307
-0.292369
-0.287498
-0.282705
-0.27792
-0.273014
-0.267847
-0.262307
-0.256345
-0.249985
-0.243304
-0.236416
-0.229443
-0.222494
-0.215656
-0.208993
-0.202541
-0.196337
-0.190352
-0.184691
-0.179095
-0.174174
-0.316303
-0.310934
-0.306346
-0.301129
-0.295856
-0.290646
-0.285471
-0.28023
-0.274775
-0.268967
-0.262721
-0.256032
-0.248967
-0.241642
-0.234193
-0.226746
-0.219409
-0.212258
-0.205343
-0.198692
-0.192325
-0.186216
-0.180448
-0.174782
-0.169793
-0.321742
-0.315749
-0.310799
-0.305213
-0.299588
-0.294007
-0.288401
-0.282636
-0.276553
-0.270028
-0.263016
-0.255561
-0.247778
-0.239813
-0.231818
-0.223919
-0.216213
-0.208764
-0.201611
-0.194767
-0.188244
-0.182014
-0.176141
-0.170407
-0.165347
-0.3275
-0.32085
-0.315531
-0.309565
-0.303566
-0.297575
-0.291477
-0.28511
-0.278315
-0.270997
-0.263165
-0.254916
-0.246409
-0.237816
-0.229292
-0.22096
-0.212904
-0.205172
-0.19779
-0.190762
-0.184088
-0.177739
-0.171763
-0.165962
-0.16083
-0.33357
-0.326237
-0.320543
-0.314183
-0.307783
-0.301333
-0.294672
-0.287618
-0.280024
-0.271843
-0.263144
-0.254082
-0.244854
-0.235646
-0.226615
-0.217869
-0.209478
-0.201476
-0.193875
-0.186668
-0.179848
-0.173384
-0.167307
-0.161442
-0.156237
-0.339944
-0.331904
-0.32583
-0.319063
-0.312227
-0.30526
-0.297954
-0.290119
-0.28164
-0.272531
-0.26293
-0.253046
-0.243105
-0.233302
-0.223782
-0.214642
-0.205931
-0.19767
-0.189857
-0.182478
-0.175516
-0.168941
-0.162766
-0.15684
-0.151562
-0.346608
-0.337844
-0.331386
-0.324192
-0.31688
-0.309327
-0.301285
-0.292571
-0.283123
-0.27303
-0.262502
-0.251796
-0.241156
-0.230776
-0.220789
-0.211271
-0.202255
-0.193745
-0.185728
-0.178184
-0.171086
-0.164403
-0.158135
-0.152152
-0.146802
-0.353541
-0.344041
-0.337196
-0.329555
-0.321716
-0.313495
-0.304617
-0.294926
-0.284432
-0.27331
-0.26184
-0.250318
-0.238998
-0.228063
-0.217629
-0.207749
-0.19844
-0.189691
-0.18148
-0.173776
-0.166547
-0.159762
-0.153406
-0.14737
-0.14195
-0.360719
-0.350476
-0.343241
-0.335124
-0.326698
-0.317719
-0.307899
-0.297134
-0.285526
-0.273342
-0.260925
-0.2486
-0.236621
-0.225155
-0.214292
-0.204067
-0.194477
-0.1855
-0.177102
-0.169246
-0.161894
-0.155012
-0.148573
-0.14249
-0.137003
-0.368109
-0.357123
-0.349493
-0.340867
-0.331783
-0.321946
-0.311075
-0.299145
-0.286366
-0.273098
-0.259739
-0.246631
-0.234016
-0.22204
-0.210768
-0.200213
-0.190356
-0.18116
-0.172585
-0.164584
-0.157117
-0.150144
-0.14363
-0.137506
-0.131956
-0.375671
-0.363947
-0.355917
-0.346742
-0.33692
-0.326116
-0.314086
-0.300908
-0.286913
-0.272551
-0.258263
-0.244395
-0.231171
-0.218708
-0.207046
-0.196177
-0.186065
-0.176663
-0.167919
-0.159784
-0.152209
-0.145153
-0.138572
-0.132414
-0.126805
-0.383358
-0.37091
-0.36247
-0.352697
-0.342047
-0.330164
-0.316869
-0.302373
-0.287131
-0.271676
-0.25648
-0.241879
-0.228072
-0.215146
-0.203113
-0.191946
-0.181593
-0.171996
-0.163096
-0.154836
-0.147163
-0.140033
-0.133393
-0.127207
-0.121545
-0.391115
-0.377963
-0.369101
-0.358674
-0.347097
-0.334019
-0.319362
-0.303489
-0.286984
-0.270449
-0.254371
-0.239068
-0.224706
-0.21134
-0.198957
-0.187509
-0.176929
-0.16715
-0.158105
-0.149731
-0.141972
-0.134776
-0.128088
-0.121882
-0.116174
-0.398882
-0.38505
-0.375749
-0.364604
-0.351994
-0.337608
-0.321503
-0.304211
-0.286439
-0.268846
-0.251918
-0.235946
-0.221058
-0.207277
-0.194564
-0.182852
-0.172062
-0.162115
-0.152938
-0.144463
-0.136628
-0.129377
-0.122652
-0.116433
-0.110687
-0.406587
-0.392108
-0.382347
-0.370411
-0.356659
-0.340855
-0.323229
-0.304491
-0.285463
-0.266843
-0.249102
-0.232495
-0.217112
-0.202942
-0.189921
-0.177964
-0.16698
-0.156881
-0.147587
-0.139024
-0.131126
-0.123832
-0.117081
-0.110858
-0.105083
-0.414155
-0.399065
-0.388818
-0.376012
-0.361007
-0.343686
-0.324482
-0.304288
-0.284027
-0.264417
-0.245904
-0.2287
-0.212853
-0.19832
-0.185014
-0.172833
-0.161673
-0.151439
-0.142044
-0.133407
-0.125459
-0.118134
-0.111371
-0.105152
-0.0993579
-0.421503
-0.405843
-0.395078
-0.381318
-0.36495
-0.346025
-0.325204
-0.30356
-0.2821
-0.261545
-0.242305
-0.224542
-0.208265
-0.193398
-0.179831
-0.167447
-0.156131
-0.14578
-0.1363
-0.127606
-0.119622
-0.11228
-0.105517
-0.0993131
-0.093511
-0.428541
-0.412358
-0.401036
-0.386235
-0.368402
-0.3478
-0.32534
-0.302268
-0.279654
-0.258206
-0.238285
-0.220006
-0.203333
-0.188161
-0.174359
-0.161795
-0.150345
-0.139896
-0.130349
-0.121614
-0.113611
-0.106266
-0.099518
-0.0933382
-0.0875429
-0.435176
-0.418519
-0.406599
-0.390667
-0.371273
-0.34894
-0.32484
-0.300377
-0.276663
-0.254377
-0.233827
-0.215073
-0.19804
-0.182595
-0.168585
-0.155867
-0.144305
-0.133779
-0.124185
-0.115426
-0.10742
-0.100089
-0.0933699
-0.0872272
-0.0814571
-0.44131
-0.42423
-0.411665
-0.394516
-0.373479
-0.349379
-0.323656
-0.297852
-0.273101
-0.250037
-0.228911
-0.209728
-0.192374
-0.176687
-0.1625
-0.149653
-0.138003
-0.127423
-0.117801
-0.109037
-0.101045
-0.0937443
-0.0870706
-0.0809794
-0.0752569
-0.44684
-0.429391
-0.416133
-0.397683
-0.374937
-0.349056
-0.321744
-0.294663
-0.268943
-0.245167
-0.22352
-0.203954
-0.186319
-0.170427
-0.156092
-0.143144
-0.131432
-0.12082
-0.111192
-0.102443
-0.0944839
-0.0872298
-0.0806174
-0.0745938
-0.0689412
-0.451666
-0.433902
-0.419898
-0.400072
-0.375567
-0.347911
-0.319064
-0.290779
-0.264168
-0.239748
-0.217637
-0.197738
-0.179863
-0.163802
-0.149353
-0.136334
-0.124585
-0.113966
-0.104354
-0.0956403
-0.0877319
-0.0805423
-0.0740077
-0.0680693
-0.0625078
-0.455682
-0.43766
-0.422859
-0.401591
-0.375297
-0.345893
-0.315579
-0.286175
-0.258754
-0.233761
-0.211247
-0.191066
-0.172995
-0.156803
-0.142273
-0.129214
-0.117457
-0.106856
-0.0972824
-0.0886251
-0.0807865
-0.0736782
-0.0672377
-0.0614046
-0.0559557
-0.458786
-0.440561
-0.424913
-0.402149
-0.374059
-0.342955
-0.311257
-0.280827
-0.252682
-0.227191
-0.204337
-0.183925
-0.165704
-0.149421
-0.134847
-0.12178
-0.110044
-0.0994872
-0.0899759
-0.0813956
-0.0736455
-0.066634
-0.0603023
-0.0545932
-0.0492744
-0.460879
-0.442505
-0.425964
-0.401666
-0.371791
-0.339055
-0.30607
-0.274714
-0.245937
-0.220024
-0.196893
-0.176306
-0.157982
-0.14165
-0.127069
-0.114028
-0.102343
-0.0918568
-0.0824323
-0.0739509
-0.0663079
-0.0594083
-0.0531983
-0.0476224
-0.0424208
-0.461863
-0.443393
-0.425919
-0.400065
-0.36844
-0.334157
-0.299994
-0.267819
-0.238502
-0.212247
-0.188906
-0.1682
-0.149822
-0.133485
-0.118935
-0.105954
-0.0943511
-0.083964
-0.0746514
-0.0662911
-0.0587741
-0.0520034
-0.0459308
-0.0404864
-0.0353183
-0.461647
-0.443134
-0.424691
-0.397277
-0.363959
-0.328231
-0.293008
-0.260126
-0.230368
-0.20385
-0.180367
-0.1596
-0.141218
-0.12492
-0.110442
-0.0975564
-0.086068
-0.0758086
-0.0666336
-0.0584174
-0.0510462
-0.044423
-0.0385092
-0.0332042
-0.0279569
-0.460143
-0.441638
-0.422202
-0.393243
-0.358308
-0.321252
-0.285097
-0.251625
-0.221523
-0.194825
-0.171269
-0.150501
-0.132168
-0.115955
-0.101589
-0.0888357
-0.077494
-0.0673916
-0.0583803
-0.0503315
-0.0431281
-0.0366722
-0.0309356
-0.0257721
-0.0205776
-0.457274
-0.438825
-0.418383
-0.387912
-0.351456
-0.313203
-0.276249
-0.242306
-0.211962
-0.185168
-0.16161
-0.140901
-0.122669
-0.106588
-0.0923766
-0.0797923
-0.0686307
-0.0587155
-0.0498949
-0.0420369
-0.0350258
-0.0287617
-0.0232199
-0.0181646
-0.0131856
-0.452968
-0.434623
-0.413172
-0.381243
-0.343379
-0.304071
-0.266457
-0.232166
-0.201681
-0.174877
-0.151388
-0.130799
-0.112722
-0.0968212
-0.0828059
-0.0704295
-0.0594817
-0.0497851
-0.0411834
-0.0335413
-0.0267403
-0.0206916
-0.0153533
-0.0104364
-0.00571396
-0.447163
-0.428969
-0.406518
-0.373203
-0.33406
-0.293848
-0.255719
-0.221204
-0.190681
-0.16395
-0.140604
-0.120198
-0.10233
-0.0866566
-0.0728817
-0.0607532
-0.0500547
-0.0406048
-0.0322478
-0.0248465
-0.0182792
-0.0124646
-0.00734443
-0.00259844
0.00186231
-0.439807
-0.421809
-0.398383
-0.36377
-0.323492
-0.282534
-0.244037
-0.209421
-0.178963
-0.152392
-0.129259
-0.109097
-0.0914992
-0.0761026
-0.0626138
-0.0507678
-0.0403514
-0.0311798
-0.0230953
-0.0159589
-0.00964834
-0.00408666
0.000797589
0.00534882
0.00954488
-0.430859
-0.413099
-0.388736
-0.35293
-0.311673
-0.270135
-0.231417
-0.196826
-0.166534
-0.140207
-0.117359
-0.0975026
-0.0802444
-0.0651686
-0.052003
-0.0404799
-0.0303802
-0.0215176
-0.0137329
-0.00688574
-0.000854134
0.00443521
0.00906541
0.0134049
0.0173283
-0.420285
-0.402809
-0.37756
-0.340681
-0.29861
-0.256659
-0.21787
-0.183426
-0.153402
-0.127406
-0.104919
-0.0854458
-0.0685537
-0.0538576
-0.0410604
-0.0298984
-0.0201499
-0.0116268
-0.00416902
0.00236475
0.0080957
0.0130932
0.0174523
0.0215661
0.0252052
-0.408068
-0.390916
-0.364846
-0.327028
-0.284316
-0.242124
-0.203412
-0.169236
-0.139581
-0.114004
-0.0919536
-0.0729157
-0.0564515
-0.0421814
-0.0297966
-0.019034
-0.0096704
-0.00151705
0.00558691
0.0117835
0.0171924
0.0218789
0.0259509
0.0298263
0.0331683
-0.394197
-0.377412
-0.350601
-0.311987
-0.268813
-0.226551
-0.188061
-0.154273
-0.125093
-0.100017
-0.0784697
-0.0599302
-0.0439508
-0.0301533
-0.0182239
-0.00789836
0.00104682
0.00880071
0.0155244
0.0213604
0.0264262
0.030783
0.034553
0.0381776
0.0412098
-0.378675
-0.362299
-0.334837
-0.295581
-0.252126
-0.209966
-0.171841
-0.138564
-0.109955
-0.0854585
-0.0644861
-0.0465062
-0.0310667
-0.0177885
-0.00635615
0.00349523
0.0119891
0.0193144
0.0256319
0.0310843
0.0357864
0.0397954
0.0432491
0.0466108
0.0493207
-0.361516
-0.345592
-0.317578
-0.277841
-0.234292
-0.192401
-0.154783
-0.122134
-0.0941862
-0.0703513
-0.0500231
-0.032663
-0.0178162
-0.00510358
0.00579098
0.0151321
0.0231427
0.0300108
0.0358968
0.040943
0.0452612
0.0489049
0.0520285
0.0551153
0.057491
-0.342744
-0.327316
-0.298854
-0.258807
-0.215357
-0.17389
-0.136918
-0.105008
-0.0778149
-0.0547201
-0.0351033
-0.0184215
-0.00421894
0.00788331
0.0182005
0.0269962
0.0344923
0.0408755
0.0463055
0.0509235
0.054838
0.0580995
0.0608795
0.0636793
0.0657092
-0.322395
-0.307508
-0.278709
-0.238538
-0.195358
-0.154468
-0.118282
-0.0872186
-0.060871
-0.0385921
-0.019752
-0.00380511
0.00970382
0.0211522
0.0308537
0.0390703
0.0460218
0.0518933
0.0568433
0.0610118
0.0645032
0.0673659
0.0697895
0.0722895
0.0739627
-0.300514
-0.286211
-0.257203
-0.217113
-0.174289
-0.134194
-0.0989157
-0.0688034
-0.0433875
-0.0219974
-0.00399652
0.011161
0.0239287
0.0346816
0.0437307
0.0513357
0.0577138
0.063048
0.067495
0.071193
0.0742423
0.0766901
0.0787442
0.0809307
0.0822364
-0.277152
-0.263485
-0.234412
-0.194576
-0.152213
-0.113102
-0.0788653
-0.0498029
-0.0254005
-0.00496868
0.0121333
0.0264496
0.0384307
0.0484484
0.0568102
0.0637726
0.06955
0.0743223
0.0782443
0.0814517
0.0840403
0.0860573
0.0877284
0.0895847
0.0905086
-0.252363
-0.239409
-0.210406
-0.170791
-0.129358
-0.0912626
-0.0581783
-0.0302603
-0.00694876
0.0124591
0.0286053
0.0420313
0.053183
0.0624279
0.0700695
0.0763603
0.081511
0.0856984
0.0890746
0.091772
0.0938817
0.095452
0.0967254
0.0982296
0.0987524
-0.226216
-0.214077
-0.185187
-0.14602
-0.105659
-0.0687338
-0.0369075
-0.0102215
0.0119263
0.0302483
0.0453857
0.057875
0.0681571
0.0765941
0.0834848
0.0890769
0.0935769
0.0971579
0.0999688
0.102138
0.103751
0.104859
0.105718
0.106844
0.106945
-0.198793
-0.187585
-0.158702
-0.120448
-0.0811942
-0.0455756
-0.0151082
0.0102648
0.031181
0.0483595
0.0624383
0.0739481
0.0833233
0.0909198
0.097031
0.101899
0.105727
0.108682
0.110909
0.112533
0.113632
0.114263
0.114694
0.115412
0.115073
-0.170175
-0.159976
-0.131216
-0.0940489
-0.0560432
-0.0218524
0.00716249
0.0311473
0.0507692
0.0667509
0.0797255
0.0902162
0.0986501
0.105376
0.110682
0.114804
0.117939
0.12025
0.121879
0.12294
0.123508
0.12365
0.123645
0.123923
0.123086
-0.140452
-0.131272
-0.102955
-0.0668971
-0.0302845
0.00236791
0.0298448
0.0523725
0.0706428
0.0853791
0.0972078
0.106643
0.114105
0.119934
0.124412
0.127767
0.130191
0.131843
0.132858
0.133342
0.133364
0.133012
0.132563
0.13233
0.130835
-0.109769
-0.101647
-0.0739386
-0.0390854
-0.00399703
0.0270154
0.0528765
0.0738848
0.0907517
0.104199
0.114844
0.123193
0.129654
0.134563
0.138191
0.140762
0.14246
0.143441
0.14383
0.143724
0.143193
0.142349
0.141431
0.140517
0.138134
-0.0783258
-0.0711208
-0.0442386
-0.0107095
0.0227374
0.052018
0.0761935
0.0956269
0.111044
0.123164
0.132593
0.139826
0.145263
0.14923
0.151991
0.153763
0.154724
0.155022
0.154777
0.154074
0.152992
0.151672
0.150241
0.148412
0.145023
-0.046137
-0.0398672
-0.0139486
0.0181347
0.0498344
0.0773014
0.0997298
0.117539
0.131468
0.142226
0.15041
0.156503
0.160896
0.163904
0.165784
0.166744
0.166956
0.166564
0.165677
0.164377
0.16276
0.160983
0.159
0.156188
0.152059
-0.0133091
-0.00802208
0.016828
0.0473494
0.0772074
0.10279
0.123418
0.139562
0.151967
0.161336
0.168251
0.173185
0.176516
0.178551
0.179537
0.179676
0.179133
0.178043
0.17651
0.174614
0.172473
0.170233
0.167653
0.163946
0.160893
0.0200316
0.0242929
0.0479814
0.0768351
0.104768
0.128405
0.147188
0.161633
0.172488
0.180444
0.186071
0.18983
0.192087
0.193138
0.193222
0.192532
0.191228
0.189436
0.187255
0.184766
0.182094
0.179345
0.176167
0.172045
0.169632
0.0537585
0.0569566
0.0793984
0.106491
0.132429
0.154069
0.170972
0.183691
0.192973
0.199499
0.203825
0.206397
0.20757
0.20763
0.206806
0.205284
0.203214
0.200719
0.19789
0.194811
0.191603
0.188325
0.184612
0.180207
0.177837
0.0877442
0.0898466
0.110965
0.136215
0.160098
0.179703
0.194698
0.205671
0.213366
0.21845
0.221465
0.222843
0.222927
0.221992
0.220258
0.217901
0.215067
0.211868
0.208393
0.204724
0.200974
0.197171
0.192978
0.188312
0.185731
0.12186
0.12284
0.142565
0.165905
0.187686
0.205226
0.218296
0.22751
0.233609
0.237246
0.238946
0.239127
0.238121
0.23619
0.233546
0.230356
0.226758
0.222859
0.21874
0.214483
0.210189
0.205869
0.201221
0.196258
0.193357
0.155975
0.155812
0.174084
0.195459
0.215103
0.230559
0.241693
0.249144
0.253646
0.255834
0.25622
0.255207
0.253112
0.250189
0.246639
0.24262
0.238262
0.233666
0.228909
0.224068
0.219233
0.214405
0.209311
0.204025
0.200756
0.18996
0.188639
0.205408
0.224775
0.242259
0.255622
0.26482
0.270511
0.273419
0.274164
0.273242
0.271039
0.267864
0.263955
0.259504
0.254663
0.249552
0.244266
0.238877
0.233456
0.228086
0.222758
0.217224
0.211597
0.207939
0.223686
0.221196
0.236421
0.253752
0.269064
0.280337
0.287606
0.291546
0.292871
0.292184
0.289964
0.286584
0.282336
0.277452
0.272111
0.266457
0.260602
0.254635
0.248621
0.242628
0.236729
0.23091
0.224941
0.218967
0.214906
0.257023
0.253362
0.267012
0.28229
0.295432
0.304624
0.309981
0.312188
0.311947
0.309844
0.306341
0.301798
0.296493
0.290646
0.284428
0.277973
0.271386
0.264748
0.25812
0.251564
0.245146
0.238844
0.232447
0.226124
0.221655
0.289845
0.285015
0.297071
0.31029
0.321274
0.328407
0.331876
0.332374
0.33059
0.327093
0.322328
0.31664
0.310297
0.303505
0.296425
0.289184
0.281878
0.274583
0.267353
0.260245
0.253317
0.246542
0.239726
0.233057
0.228175
0.322025
0.316034
0.326488
0.337657
0.346505
0.351611
0.353224
0.352043
0.348745
0.343881
0.33788
0.331072
0.323711
0.315994
0.308072
0.300062
0.292054
0.284116
0.276298
0.268651
0.261226
0.253989
0.246765
0.239754
0.23446
0.353443
0.346305
0.355157
0.364296
0.371043
0.374161
0.373958
0.371137
0.366361
0.360162
0.352954
0.345053
0.3367
0.328081
0.319338
0.31058
0.301888
0.293325
0.284936
0.276764
0.268854
0.26117
0.25355
0.246204
0.240499
0.383978
0.375712
0.382975
0.390116
0.394807
0.395986
0.394014
0.389598
0.383384
0.375888
0.367507
0.358545
0.349229
0.339735
0.330196
0.320712
0.311358
0.302189
0.293246
0.284566
0.276187
0.268069
0.260068
0.252395
0.246283
0.413514
0.404146
0.409843
0.415029
0.417718
0.417015
0.41333
0.407369
0.399764
0.391013
0.381499
0.37151
0.361264
0.350925
0.340618
0.330433
0.32044
0.310687
0.301209
0.292039
0.283207
0.274673
0.266306
0.258315
0.251801
0.441939
0.4315
0.435664
0.438949
0.439701
0.437182
0.431846
0.424397
0.415452
0.405494
0.39489
0.383914
0.372773
0.361622
0.350576
0.339718
0.329111
0.318797
0.308806
0.299166
0.289901
0.280967
0.27225
0.263952
0.257045
0.469145
0.457672
0.460346
0.461795
0.460684
0.456422
0.449503
0.440629
0.430402
0.419288
0.40764
0.395721
0.383725
0.371798
0.360045
0.348545
0.337351
0.326502
0.316021
0.305932
0.296252
0.286937
0.277888
0.269295
0.262004
0.49503
0.482564
0.483801
0.483489
0.480597
0.474673
0.466247
0.456017
0.444569
0.432356
0.419715
0.406898
0.394089
0.381424
0.369001
0.35689
0.345139
0.333781
0.322836
0.31232
0.302247
0.292572
0.283209
0.274334
0.266672
0.519496
0.506084
0.505946
0.503956
0.499374
0.491877
0.482025
0.470512
0.457911
0.444658
0.43108
0.417415
0.403838
0.390476
0.37742
0.364732
0.352456
0.340618
0.329234
0.318317
0.307872
0.297858
0.2882
0.279057
0.271039
0.542451
0.528144
0.526701
0.523128
0.516955
0.507979
0.496788
0.484071
0.470387
0.456159
0.441701
0.427241
0.412944
0.398929
0.385279
0.372052
0.359283
0.346996
0.335201
0.323908
0.313115
0.302785
0.292852
0.283456
0.275098
0.563807
0.548663
0.545994
0.540938
0.533281
0.522927
0.510489
0.496651
0.48196
0.466825
0.451549
0.436349
0.421383
0.406761
0.392559
0.37883
0.365604
0.352899
0.340723
0.32908
0.317965
0.307341
0.297153
0.287522
0.278842
0.583486
0.567566
0.563757
0.557327
0.548299
0.536673
0.523085
0.508215
0.492595
0.476625
0.460595
0.444714
0.429131
0.41395
0.39924
0.385049
0.371402
0.358313
0.345787
0.333821
0.322409
0.311516
0.301095
0.291245
0.282265
0.601412
0.584781
0.579925
0.572239
0.561958
0.549173
0.534537
0.518726
0.50226
0.485529
0.468812
0.452311
0.436167
0.420477
0.405305
0.390693
0.376663
0.363225
0.350379
0.338121
0.326439
0.3153
0.304669
0.294619
0.285361
0.617519
0.600246
0.594444
0.585624
0.574215
0.560387
0.54481
0.528152
0.510926
0.493511
0.476178
0.459119
0.442471
0.426323
0.410737
0.395747
0.381374
0.367622
0.354489
0.341968
0.330044
0.318686
0.307866
0.297635
0.288126
0.631747
0.613905
0.607261
0.597436
0.585029
0.570279
0.553869
0.536464
0.518567
0.500548
0.48267
0.465119
0.448026
0.431475
0.415522
0.400199
0.385522
0.371493
0.358108
0.345355
0.333217
0.321666
0.310679
0.300289
0.290554
0.644042
0.625706
0.618331
0.607635
0.594365
0.578817
0.561688
0.543637
0.52516
0.506618
0.488269
0.470294
0.452816
0.435916
0.419647
0.404036
0.389097
0.374829
0.361226
0.348273
0.33595
0.324233
0.313102
0.302573
0.292641
0.654358
0.635606
0.627616
0.616187
0.602191
0.585974
0.568241
0.549648
0.530684
0.511704
0.492961
0.474629
0.456828
0.439636
0.423101
0.407249
0.39209
0.377622
0.363835
0.350714
0.338238
0.32638
0.31513
0.304484
0.294386
0.662657
0.64357
0.635083
0.623063
0.608483
0.591727
0.573508
0.554479
0.535123
0.515791
0.49673
0.478111
0.460051
0.442623
0.425875
0.409829
0.394493
0.379864
0.36593
0.352674
0.340073
0.328104
0.316758
0.306018
0.295785
0.668908
0.649568
0.640705
0.628239
0.613219
0.596057
0.577472
0.558114
0.538464
0.518866
0.499566
0.480731
0.462475
0.444871
0.427962
0.41177
0.396301
0.38155
0.367506
0.354148
0.341454
0.3294
0.317981
0.30717
0.296835
0.673087
0.653577
0.644464
0.6317
0.616385
0.598951
0.580121
0.560544
0.540696
0.520921
0.50146
0.482481
0.464095
0.446372
0.429356
0.413066
0.397508
0.382676
0.368558
0.355132
0.342375
0.330265
0.318798
0.307939
0.297537
0.67518
0.655585
0.646345
0.633431
0.617969
0.600399
0.581447
0.561759
0.541812
0.521949
0.502408
0.483357
0.464904
0.447123
0.430052
0.413714
0.398111
0.383239
0.369083
0.355624
0.342836
0.330698
0.319206
0.308324
0.297887
-0.241087
-0.237506
-0.233753
-0.22994
-0.226167
-0.228153
-0.222585
-0.22451
-0.216444
-0.219212
-0.20388
-0.208143
-0.19224
-0.197218
-0.181324
-0.186642
-0.171015
-0.176566
-0.16142
-0.167095
-0.152544
-0.158262
-0.144363
-0.150068
-0.136847
-0.142501
-0.129959
-0.135533
-0.123656
-0.129131
-0.117898
-0.123262
-0.112646
-0.117892
-0.107862
-0.112988
-0.103514
-0.10852
-0.09957
-0.104458
-0.0960023
-0.100776
-0.0927849
-0.0974506
-0.0898947
-0.0944585
-0.0873112
-0.0917802
-0.0850159
-0.0893979
-0.0829926
-0.0872959
-0.0812272
-0.0854601
-0.0797075
-0.0838786
-0.0784228
-0.082541
-0.0773643
-0.0814384
-0.0765252
-0.080564
-0.075898
-0.0799114
-0.0754837
-0.079479
-0.0752653
-0.079258
-0.210719
-0.197258
-0.185258
-0.174587
-0.164462
-0.155123
-0.146541
-0.138653
-0.131424
-0.124808
-0.118758
-0.113235
-0.1082
-0.103618
-0.0994544
-0.0956799
-0.0922664
-0.089189