/*--------------------------------*- C++ -*----------------------------------*\
  =========                 |
  \\      /  F ield         | OpenFOAM: The Open Source CFD Toolbox
   \\    /   O peration     | Website:  https://openfoam.org
    \\  /    A nd           | Version:  7
     \\/     M anipulation  |
\*---------------------------------------------------------------------------*/
FoamFile
{
    version     2.0;
    format      ascii;
    class       surfaceScalarField;
    location    "60";
    object      phi;
}
// * * * * * * * * * * * * * * * * * * * * * * * * * * * * * * * * * * * * * //

dimensions      [0 3 -1 0 0 0 0];

internalField   nonuniform List<scalar> 
11803
(
-3.85581e-06
3.695e-06
-1.35008e-05
9.34056e-06
-2.7733e-05
1.39075e-05
-4.55912e-05
1.75983e-05
-6.63242e-05
2.05944e-05
-8.93519e-05
2.3046e-05
-0.000114232
2.50788e-05
-0.000140632
2.67983e-05
-0.000168306
2.82901e-05
-0.000197068
2.96211e-05
-0.000226776
3.08404e-05
-0.000257314
3.19809e-05
-0.000288576
3.30619e-05
-0.000320459
3.40923e-05
-0.000352855
3.50744e-05
-0.000385653
3.60094e-05
-0.000418743
3.69032e-05
-0.000452027
3.77746e-05
-0.000485452
3.86645e-05
3.9645e-05
-3.82255e-06
7.51755e-06
-1.33901e-05
1.89081e-05
-2.75114e-05
2.80288e-05
-4.52313e-05
3.53182e-05
-6.58015e-05
4.11646e-05
-8.86425e-05
4.5887e-05
-0.000113311
4.97473e-05
-0.000139473
5.29602e-05
-0.000166878
5.56955e-05
-0.000195339
5.80822e-05
-0.00022471
6.02115e-05
-0.000254871
6.21416e-05
-0.000285713
6.39034e-05
-0.000317127
6.55069e-05
-0.000349003
6.69498e-05
-0.00038122
6.82267e-05
-0.000413659
6.93425e-05
-0.000446212
7.03269e-05
-0.000478801
7.12539e-05
7.22609e-05
-3.75721e-06
1.12748e-05
-1.31727e-05
2.83236e-05
-2.70763e-05
4.19323e-05
-4.45246e-05
5.27665e-05
-6.47753e-05
6.14153e-05
-8.72497e-05
6.83614e-05
-0.000111503
7.40004e-05
-0.000137196
7.86538e-05
-0.000164076
8.25747e-05
-0.000191947
8.5953e-05
-0.000220657
8.89217e-05
-0.000250079
9.15639e-05
-0.000280097
9.39215e-05
-0.000310595
9.60054e-05
-0.000341452
9.78065e-05
-0.000372536
9.93105e-05
-0.000403709
0.000100515
-0.000434836
0.000101454
-0.000465803
0.000102221
0.000103008
-3.66118e-06
1.49359e-05
-1.28529e-05
3.75154e-05
-2.64353e-05
5.55147e-05
-4.34828e-05
6.9814e-05
-6.32607e-05
8.11933e-05
-8.51923e-05
9.02929e-05
-0.00010883
9.76376e-05
-0.000133829
0.000103653
-0.000159926
0.000108673
-0.00018692
0.000112947
-0.000214647
0.000116649
-0.00024297
0.000119887
-0.000271763
0.000122714
-0.000300896
0.000125139
-0.000330236
0.000127146
-0.000359632
0.000128707
-0.000388922
0.000129805
-0.000417934
0.000130465
-0.000446502
0.000130789
-0.000474492
0.000130999
0.000131483
-3.53648e-06
1.84724e-05
-1.24368e-05
4.64157e-05
-2.55998e-05
6.86778e-05
-4.21224e-05
8.63365e-05
-6.12801e-05
0.000100351
-8.24979e-05
0.000111511
-0.000105324
0.000120464
-0.000129406
0.000127735
-0.000154472
0.000133738
-0.000180304
0.00013878
-0.000206729
0.000143074
-0.000233595
0.000146752
-0.000260759
0.000149878
-0.000288078
0.000152459
-0.000315399
0.000154467
-0.000342551
0.000155858
-0.000369338
0.000156593
-0.000395546
0.000156674
-0.000420945
0.000156188
-0.000445311
0.000155364
0.000154638
-3.38575e-06
2.18582e-05
-1.19323e-05
5.49622e-05
-2.45844e-05
8.13299e-05
-4.04653e-05
0.000102217
-5.88624e-05
0.000118748
-7.92023e-05
0.000131851
-0.000101028
0.000142289
-0.000123978
0.000150685
-0.000147765
0.000157525
-0.000172158
0.000163173
-0.000196965
0.000167881
-0.000222015
0.000171803
-0.000247149
0.000175011
-0.000272202
0.000177512
-0.000296999
0.000179265
-0.000321342
0.000180201
-0.000345001
0.000180252
-0.000367713
0.000179385
-0.000389176
0.000177651
-0.000409063
0.000175252
0.000172631
-3.21214e-06
2.50703e-05
-1.1349e-05
6.30991e-05
-2.34068e-05
9.33877e-05
-3.85379e-05
0.000117349
-5.60426e-05
0.000136253
-7.5349e-05
0.000151157
-9.59934e-05
0.000162934
-0.000117602
0.000172294
-0.000139872
0.000179795
-0.000162552
0.000185853
-0.000185429
0.000190758
-0.00020831
0.000194684
-0.000231011
0.000197712
-0.000253343
0.000199844
-0.000275103
0.000201025
-0.000296063
0.00020116
-0.000315954
0.000200144
-0.000334462
0.000197893
-0.000351213
0.000194401
-0.000365771
0.00018981
0.000184521
-3.01928e-06
2.80896e-05
-1.0698e-05
7.07779e-05
-2.20873e-05
0.000104777
-3.63707e-05
0.000131632
-5.28614e-05
0.000152743
-7.09882e-05
0.000169284
-9.02797e-05
0.000182225
-0.000110347
0.000192361
-0.000130868
0.000200315
-0.000151569
0.000206554
-0.000172209
0.000211398
-0.000192569
0.000215044
-0.000212434
0.000217577
-0.000231586
0.000218996
-0.000249787
0.000219226
-0.000266773
0.000218146
-0.000282235
0.000215606
-0.000295805
0.000211464
-0.000307039
0.000205635
-0.000315396
0.000198168
0.00018937
-2.81116e-06
3.09008e-05
-9.99157e-06
7.79583e-05
-2.06486e-05
0.000115434
-3.39973e-05
0.000144981
-4.93637e-05
0.00016811
-6.61762e-05
0.000186096
-8.39534e-05
0.000200002
-0.000102289
0.000210697
-0.000120838
0.000218864
-0.0001393
0.000225015
-0.000157402
0.000229501
-0.000174892
0.000232533
-0.000191518
0.000234203
-0.000207023
0.000234501
-0.000221131
0.000233334
-0.000233532
0.000230547
-0.000243871
0.000225945
-0.000251727
0.00021932
-0.000256587
0.000210494
-0.000257815
0.000199396
0.00018619
-2.59209e-06
3.34928e-05
-9.24271e-06
8.46089e-05
-1.91149e-05
0.000125306
-3.14542e-05
0.00015732
-4.55983e-05
0.000182254
-6.09735e-05
0.000201472
-7.70861e-05
0.000216115
-9.35103e-05
0.000227121
-0.000109874
0.000235228
-0.000125844
0.000240985
-0.000141113
0.00024477
-0.000155385
0.000246806
-0.000168367
0.000247185
-0.000179754
0.000245887
-0.000189217
0.000242797
-0.000196396
0.000237726
-0.00020088
0.000230429
-0.000202187
0.000220628
-0.000199739
0.000208046
-0.000192815
0.000192472
0.00017389
-2.36652e-06
3.58594e-05
-8.46513e-06
9.07075e-05
-1.75115e-05
0.000134353
-2.87795e-05
0.000168588
-4.1616e-05
0.00019509
-5.54433e-05
0.000215299
-6.9753e-05
0.000230425
-8.4096e-05
0.000241464
-9.80695e-05
0.000249202
-0.000111303
0.000254219
-0.000123447
0.000256914
-0.000134158
0.000257516
-0.000143087
0.000256115
-0.000149871
0.000252671
-0.000154122
0.000247047
-0.00015541
0.000239014
-0.000153257
0.000228276
-0.000147112
0.000214482
-0.000136321
0.000197255
-0.000120087
0.000176238
0.000151203
-2.13899e-06
3.79984e-05
-7.6727e-06
9.62413e-05
-1.58643e-05
0.000142544
-2.60119e-05
0.000178735
-3.74687e-05
0.000206547
-4.96501e-05
0.00022748
-6.20301e-05
0.000242805
-7.41327e-05
0.000253567
-8.55201e-05
0.000260589
-9.57794e-05
0.000264478
-0.00010451
0.000265644
-0.000111312
0.000264319
-0.000115774
0.000260576
-0.00011746
0.000254358
-0.000115905
0.000245492
-0.000110599
0.000233708
-0.000100974
0.000218651
-8.639e-05
0.000199898
-6.61079e-05
0.000176973
-3.92495e-05
0.00014938
-4.72144e-06
0.000116675
7.86845e-05
-1.91397e-06
3.99123e-05
-6.87908e-06
0.000101206
-1.41986e-05
0.000149864
-2.31894e-05
0.000187726
-3.32073e-05
0.000216565
-4.3657e-05
0.00023793
-5.39914e-05
0.000253139
-6.37037e-05
0.000263279
-7.23158e-05
0.000269201
-7.93661e-05
0.000271529
-8.43963e-05
0.000270675
-8.6939e-05
0.000266861
-8.65064e-05
0.000260143
-8.25796e-05
0.000250431
-7.45977e-05
0.00023751
-6.19477e-05
0.000221058
-4.39532e-05
0.000200657
-1.98603e-05
0.000175805
1.11819e-05
0.000145931
5.01528e-05
0.000110409
9.82313e-05
6.85968e-05
2.01184e-05
-1.69573e-06
4.16081e-05
-6.09733e-06
0.000105608
-1.25385e-05
0.000156305
-2.03484e-05
0.000195536
-2.88799e-05
0.000225097
-3.75232e-05
0.000246573
-4.57057e-05
0.000261322
-5.2885e-05
0.000270458
-5.85371e-05
0.000274853
-6.21442e-05
0.000275136
-6.3181e-05
0.000271711
-6.11024e-05
0.000264783
-5.53313e-05
0.000254372
-4.52473e-05
0.000240347
-3.01765e-05
0.000222439
-9.38091e-06
0.000200262
1.79514e-05
0.000173324
5.27166e-05
0.00014104
9.59084e-05
0.000102739
0.000148633
5.76845e-05
0.000212186
5.04397e-06
-5.56095e-05
-1.48824e-06
4.30963e-05
-5.33944e-06
0.000109459
-1.09063e-05
0.000161872
-1.75218e-05
0.000202152
-2.453e-05
0.000232105
-3.13014e-05
0.000253345
-3.72328e-05
0.000267253
-4.17406e-05
0.000274966
-4.42482e-05
0.000277361
-4.41728e-05
0.00027506
-4.09122e-05
0.000268451
-3.38306e-05
0.000257701
-2.22464e-05
0.000242788
-5.42041e-06
0.000223521
1.74556e-05
0.000199563
4.72683e-05
0.00017045
8.4991e-05
0.000135601
0.000131692
9.43391e-05
0.000188539
4.5892e-05
0.000256797
-1.05734e-05
0.000337916
-7.6075e-05
-0.000150869
-1.29498e-06
4.43913e-05
-4.61588e-06
0.00011278
-9.32102e-06
0.000166577
-1.47377e-05
0.000207568
-2.01941e-05
0.000237561
-2.50346e-05
0.000258185
-2.86196e-05
0.000270838
-3.03172e-05
0.000276664
-2.94899e-05
0.000276533
-2.54804e-05
0.000271051
-1.7597e-05
0.000260567
-5.09912e-06
0.000245203
1.28164e-05
0.000224872
3.70276e-05
0.00019931
6.84982e-05
0.000168093
0.000108287
0.000130661
0.000157555
8.63335e-05
0.000217566
3.43281e-05
0.000289689
-2.6231e-05
0.000375363
-9.62467e-05
0.000476231
-0.000176944
0.000593495
-0.000268132
-0.000375353
-1.11885e-06
4.55101e-05
-3.93519e-06
0.000115596
-7.79801e-06
0.00017044
-1.20181e-05
0.000211789
-1.58994e-05
0.000241443
-1.8753e-05
0.000261039
-1.98953e-05
0.000271981
-1.86379e-05
0.000275406
-1.42724e-05
0.000272168
-6.05514e-06
0.000262834
6.80931e-06
0.000247703
2.51832e-05
0.000226829
5.001e-05
0.000200046
8.23272e-05
0.000166993
0.000123277
0.000127143
0.000174112
7.98251e-05
0.000236201
2.42451e-05
0.000311018
-4.04891e-05
0.000400143
-0.000115356
0.000505184
-0.000201288
0.000627965
-0.000299725
0.000769632
-0.000409799
-0.000538944
-9.62029e-07
4.64721e-05
-3.30347e-06
0.000117938
-6.34769e-06
0.000173484
-9.37707e-06
0.000214818
-1.16616e-05
0.000243727
-1.24705e-05
0.000261848
-1.10673e-05
0.000270577
-6.69667e-06
0.000271036
1.43255e-06
0.000264039
1.4165e-05
0.000250101
3.2416e-05
0.000229452
5.71886e-05
0.000202057
8.95875e-05
0.000167647
0.000130831
0.000125749
0.000182261
7.57136e-05
0.000245341
1.67448e-05
0.000321657
-5.20704e-05
0.000412893
-0.000131726
0.000520823
-0.000223285
0.000647188
-0.000327653
0.000793896
-0.000446433
0.000962062
-0.000577965
-0.000731376
-8.25819e-07
4.7298e-05
-2.72399e-06
0.000119836
-4.97488e-06
0.000175735
-6.81924e-06
0.000216662
-7.4824e-06
0.00024439
-6.18175e-06
0.000260547
-2.11639e-06
0.000266512
5.54777e-06
0.000263372
1.76995e-05
0.000251887
3.5301e-05
0.0002325
5.94072e-05
0.000205346
9.11826e-05
0.000170281
0.000131915
0.000126914
0.000183024
7.46395e-05
0.000246066
1.26715e-05
0.000322726
-5.99145e-05
0.000414798
-0.000144142
0.000524152
-0.00024108
0.000652694
-0.000351827
0.000802228
-0.000477188
0.000974542
-0.000618746
0.00117072
-0.00077414
0.0013929
-0.000953562
-0.00112484
-7.10569e-07
4.80085e-05
-2.19684e-06
0.000121322
-3.67791e-06
0.000177216
-4.33875e-06
0.000217323
-3.34782e-06
0.000243399
1.42414e-07
0.000257057
7.00691e-06
0.000259647
1.81769e-05
0.000252202
3.4655e-05
0.000235409
5.75407e-05
0.000209614
8.80497e-05
0.000174837
0.00012753
0.000130801
0.000177474
7.69711e-05
0.000239518
1.25955e-05
0.000315439
-6.32498e-05
0.000407132
-0.000151608
0.000516571
-0.000253581
0.000645745
-0.000370253
0.000796579
-0.000502661
0.000970814
-0.000651423
0.00116983
-0.00081776
0.00139457
-0.000998884
0.001646
-0.00120499
-0.00139813
-6.15564e-07
4.86241e-05
-1.71858e-06
0.000122425
-2.44802e-06
0.000177945
-1.91782e-06
0.000216793
7.7411e-07
0.000240707
6.55125e-06
0.00025128
1.63856e-05
0.000249813
3.13168e-05
0.00023727
5.24829e-05
0.000214243
8.11429e-05
0.000180954
0.000118696
0.000137283
0.000166696
8.28012e-05
0.000226852
1.68142e-05
0.000301028
-6.15799e-05
0.000391209
-0.000153431
0.000499464
-0.000259863
0.000627872
-0.00038199
0.000778426
-0.000520808
0.000952896
-0.00067713
0.00115276
-0.000851287
0.00137865
-0.00104365
0.00163116
-0.00125139
0.00190954
-0.00148338
-0.00169772
-5.3897e-07
4.91631e-05
-1.28198e-06
0.000123168
-1.26895e-06
0.000177932
4.74709e-07
0.000215049
4.93232e-06
0.00023625
1.31272e-05
0.000243085
2.61389e-05
0.000236801
4.51401e-05
0.000218269
7.14258e-05
0.000187957
0.000106438
0.000145942
0.00015178
9.19406e-05
0.000209229
2.53522e-05
0.000280722
-5.46781e-05
0.00036833
-0.000149189
0.000474214
-0.000259315
0.000600539
-0.000386187
0.000749365
-0.000530816
0.000922513
-0.000693956
0.00112135
-0.000875964
0.0013468
-0.00107674
0.00159848
-0.00129532
0.00187619
-0.00152911
0.00217719
-0.00178438
0.00249742
-0.00201795
-0.00236185
-4.77815e-07
4.96409e-05
-8.75972e-07
0.000123566
-1.14666e-07
0.000177171
2.87808e-06
0.000212057
9.19802e-06
0.00022993
1.99757e-05
0.000232307
3.64225e-05
0.000220355
5.98663e-05
0.000194825
9.17832e-05
0.00015604
0.00013382
0.000103905
0.000187806
3.79547e-05
0.000255746
-4.25871e-05
0.000339791
-0.000138724
0.000442189
-0.000251587
0.000565192
-0.000382318
0.000710935
-0.00053193
0.000881274
-0.000701155
0.00107761
-0.000890291
0.00130061
-0.00109897
0.00155031
-0.00132644
0.00182505
-0.00157006
0.00212347
-0.00182752
0.00244071
-0.00210162
0.00277375
-0.00235099
-0.0027042
-4.27968e-07
5.00689e-05
-4.85625e-07
0.000123624
1.04041e-06
0.000175645
5.35176e-06
0.000207745
1.36598e-05
0.000221622
2.72296e-05
0.000218737
4.74266e-05
0.000200158
7.5758e-05
0.000166494
0.000113905
0.000117893
0.000163739
5.40713e-05
0.000227322
-2.56287e-05
0.00030688
-0.000122145
0.000404745
-0.000236589
0.000523259
-0.000370101
0.00066464
-0.000523698
0.000830802
-0.000698092
0.00102315
-0.0008935
0.00124235
-0.0011095
0.00148809
-0.0013447
0.00175911
-0.00159746
0.00205241
-0.00186336
0.00236512
-0.00214024
0.00269057
-0.00242707
0.00302707
-0.0026875
-0.00303832
-3.84234e-07
5.04531e-05
-8.7452e-08
0.000123327
2.24118e-06
0.000173316
7.96253e-06
0.000202024
1.84243e-05
0.00021116
3.50465e-05
0.000202115
5.93728e-05
0.000175831
9.31142e-05
0.000132753
0.000138177
7.28303e-05
0.000196672
-4.42291e-06
0.000270887
-9.98441e-05
0.000363237
-0.000214496
0.00047616
-0.000349511
0.000611967
-0.000505909
0.000772656
-0.000684387
0.000959671
-0.000885107
0.00117366
-0.00110749
0.00141425
-0.00135009
0.00167983
-0.00161028
0.00196758
-0.00188522
0.00227326
-0.00216904
0.00259237
-0.00245935
0.0029171
-0.0027518
0.00324723
-0.00301763
-0.00335514
0.00356405
-3.41181e-07
5.07943e-05
3.21815e-07
0.000122664
3.52971e-06
0.000170108
1.07888e-05
0.000194765
2.36137e-05
0.000198335
4.36043e-05
0.000182124
7.25072e-05
0.000146928
0.000112259
9.30003e-05
0.000165009
2.00812e-05
0.0002331
-7.25144e-05
0.000319025
-0.000185769
0.000425318
-0.000320789
0.000554404
-0.000478597
0.000708386
-0.00065989
0.00088879
-0.000864791
0.0010963
-0.00109261
0.00133048
-0.00134167
0.00158962
-0.00160922
0.00187063
-0.0018913
0.00216907
-0.00218366
0.00247967
-0.00247963
0.00279654
-0.00277623
0.00311181
-0.00306706
0.00342654
-0.00333236
-0.00364795
0.00371935
-2.91499e-07
5.10858e-05
7.81751e-07
0.000121591
4.95767e-06
0.000165932
1.39174e-05
0.000185805
2.93623e-05
0.00018289
5.30959e-05
0.000158391
8.70911e-05
0.000112933
0.000133529
4.65628e-05
0.000194801
-4.11908e-05
0.000273469
-0.000151183
0.000372167
-0.000284467
0.000493444
-0.000442066
0.000639539
-0.000624691
0.000812106
-0.000832457
0.00101191
-0.0010646
0.00123856
-0.00131926
0.00149026
-0.00159337
0.00176375
-0.00188271
0.00205445
-0.002182
0.00235652
-0.00248572
0.00266402
-0.00278713
0.00297027
-0.00308248
0.00326859
-0.00336538
0.00356078
-0.00362455
-0.0039129
0.00382572
-2.28257e-07
5.1314e-05
1.31682e-06
0.000120046
6.57974e-06
0.00016067
1.74417e-05
0.000174943
3.58122e-05
0.00016452
6.37219e-05
0.000130481
0.000103389
7.32658e-05
0.000157248
-7.29583e-06
0.000227922
-0.000111865
0.000318143
-0.000241404
0.000430593
-0.000396917
0.000567674
-0.000579147
0.000731216
-0.000788233
0.000922143
-0.00102338
0.00114015
-0.00128261
0.00138348
-0.00156258
0.00164878
-0.00185867
0.00193125
-0.00216518
0.002225
-0.00247575
0.00252328
-0.002784
0.00282001
-0.00308386
0.00310852
-0.00337098
0.00338444
-0.00364131
0.00364942
-0.00388952
-0.00414871
0.00388523
-1.43987e-07
5.1458e-05
1.95292e-06
0.000117949
8.45235e-06
0.00015417
2.14574e-05
0.000161938
4.3108e-05
0.000142869
7.5682e-05
9.7907e-05
0.000121657
2.72908e-05
0.000183715
-6.93534e-05
0.000264677
-0.000192827
0.000367364
-0.000344091
0.000494365
-0.000523918
0.000647728
-0.00073251
0.000828603
-0.000969108
0.00103688
-0.00123166
0.0012709
-0.00151663
0.00152733
-0.00181902
0.00180127
-0.00213262
0.00208657
-0.00245048
0.00237646
-0.00276564
0.00266398
-0.00307152
0.00294348
-0.00336336
0.00320921
-0.00363672
0.00345957
-0.00389166
0.00369503
-0.00412499
-0.00435613
0.00390245
-1.77293e-08
5.14757e-05
2.7179e-06
0.000115213
1.06321e-05
0.000146256
2.60599e-05
0.00014651
5.13904e-05
0.000117539
8.9165e-05
6.01324e-05
0.000142123
-2.56672e-05
0.000213171
-0.000140402
0.000305267
-0.000284923
0.000421198
-0.000460022
0.000563273
-0.000665993
0.000732933
-0.00090217
0.000930348
-0.00116652
0.00115408
-0.0014554
0.00140092
-0.00176347
0.00166594
-0.00208403
0.00194285
-0.00240953
0.0022246
-0.00273223
0.00250415
-0.00304519
0.00277512
-0.00334248
0.00303278
-0.00362103
0.00327325
-0.00387719
0.0034969
-0.00411531
0.00370191
-0.00433
-0.00453861
0.00388439
1.35247e-07
5.13405e-05
3.63671e-06
0.000111712
1.3174e-05
0.000136719
3.13401e-05
0.000128344
6.0791e-05
8.80878e-05
0.00010434
1.65838e-05
0.000164976
-8.63033e-05
0.000245786
-0.000221212
0.000349763
-0.0003889
0.000479501
-0.00058976
0.000636793
-0.000823285
0.000822186
-0.00108756
0.00103458
-0.00137892
0.001271
-0.00169182
0.00152661
-0.00201907
0.00179503
-0.00235246
0.00206902
-0.00268351
0.00234122
-0.00300444
0.00260505
-0.00330902
0.00285533
-0.00359275
0.00308873
-0.00385443
0.0033037
-0.00409217
0.00350167
-0.00431328
0.00368051
-0.00450883
-0.00470767
0.00384958
3.35013e-07
5.10055e-05
4.73515e-06
0.000107312
1.61292e-05
0.000125324
3.73813e-05
0.000107092
7.14251e-05
5.4044e-05
0.000121343
-3.33344e-05
0.000190346
-0.000155306
0.000281626
-0.000312491
0.000398074
-0.000505348
0.000541882
-0.000733568
0.00071406
-0.000995462
0.00091397
-0.00128747
0.00113901
-0.00160396
0.00138454
-0.00193735
0.00164423
-0.00227876
0.00191064
-0.00261887
0.00217613
-0.00294901
0.00243375
-0.00326206
0.002678
-0.00355326
0.00290531
-0.00382006
0.00311407
-0.00406319
0.00330485
-0.00428294
0.00347893
-0.00448737
0.00363935
-0.00466925
-0.00485866
0.00379033
5.87919e-07
5.04176e-05
6.03632e-06
0.000101863
1.95437e-05
0.000111817
4.42554e-05
8.23804e-05
8.33867e-05
1.49127e-05
0.000140274
-9.02218e-05
0.000218296
-0.000233328
0.00032064
-0.000414836
0.000449923
-0.000634631
0.000607686
-0.000891331
0.00079387
-0.00118165
0.0010064
-0.0015
0.001241
-0.00183856
0.00149149
-0.00218783
0.00175031
-0.00253758
0.00200952
-0.00287808
0.00226176
-0.00320125
0.00250109
-0.00350139
0.00272356
-0.00377574
0.00292742
-0.00402392
0.00311277
-0.00424854
0.00328155
-0.00445172
0.00343599
-0.0046418
0.00357996
-0.00481322
-0.00499422
0.00371551
8.99192e-07
4.95184e-05
7.55992e-06
9.52028e-05
2.34565e-05
9.59206e-05
5.20206e-05
5.38163e-05
9.67434e-05
-2.98101e-05
0.000161182
-0.00015466
0.000248802
-0.000320949
0.000362646
-0.00052868
0.000504836
-0.00077682
0.000675994
-0.00106249
0.00087472
-0.00138037
0.00109731
-0.00172258
0.00133784
-0.0020791
0.00158879
-0.00243878
0.00184193
-0.00279072
0.00208942
-0.00312557
0.0023248
-0.00343662
0.00254363
-0.00372023
0.00274374
-0.00397585
0.0029251
-0.00420528
0.00308924
-0.00441268
0.00323905
-0.00460153
0.00337729
-0.00478004
0.00350787
-0.0049438
-0.00511914
0.00363279
1.27365e-06
4.82447e-05
9.32232e-06
8.71541e-05
2.78984e-05
7.73445e-05
6.07186e-05
2.0996e-05
0.000111531
-8.06229e-05
0.00018406
-0.000227189
0.000281751
-0.000418639
0.000407316
-0.000654246
0.000562137
-0.000931641
0.000745643
-0.00124599
0.000954868
-0.0015896
0.00118441
-0.00195213
0.00142688
-0.00232157
0.00167385
-0.00268575
0.00191699
-0.00303385
0.00214921
-0.00335779
0.00236544
-0.00365286
0.002563
-0.00391779
0.00274146
-0.0041543
0.00290224
-0.00436606
0.0030479
-0.00455835
0.00318184
-0.00473547
0.00330695
-0.00490515
0.00342698
-0.00506382
-0.00523541
0.00354325
1.71528e-06
4.65294e-05
1.13364e-05
7.7533e-05
3.28916e-05
5.57893e-05
7.03729e-05
-1.64852e-05
0.000127753
-0.000138003
0.000208844
-0.00030828
0.000316929
-0.000526724
0.000454177
-0.000791494
0.000620962
-0.00109843
0.000815268
-0.0014403
0.00103243
-0.00180676
0.00126544
-0.00218513
0.00150578
-0.00256191
0.00174466
-0.00292463
0.00197429
-0.00326349
0.00218885
-0.00357234
0.00238495
-0.00384896
0.00256167
-0.00409451
0.00272009
-0.00431272
0.00286272
-0.0045087
0.00299275
-0.00468837
0.00311365
-0.00485637
0.0032282
-0.0050197
0.00333971
-0.00517534
-0.00534475
0.00344905
2.22717e-06
4.43023e-05
1.36114e-05
6.61487e-05
3.84489e-05
3.09518e-05
8.09874e-05
-5.90237e-05
0.000145373
-0.000202389
0.000235403
-0.00039831
0.00035402
-0.000645341
0.00050261
-0.000940084
0.000680278
-0.00127609
0.000883367
-0.00164339
0.00110551
-0.00202891
0.00133833
-0.00241795
0.00157267
-0.00279625
0.0018
-0.00315196
0.0020136
-0.00347709
0.00220925
-0.00376799
0.00238534
-0.00402505
0.00254252
-0.00425168
0.00268305
-0.00445326
0.00281013
-0.00463577
0.00292714
-0.00480538
0.00303741
-0.00496664
0.00314341
-0.0051257
0.00324794
-0.00527987
-0.00544822
0.0033514
2.8116e-06
4.14907e-05
1.61527e-05
5.28077e-05
4.45734e-05
2.53103e-06
9.25454e-05
-0.000106996
0.000164318
-0.000274161
0.000263539
-0.000497531
0.000392609
-0.00077441
0.000551872
-0.00109935
0.000738929
-0.00146315
0.000948384
-0.00185284
0.0011723
-0.00225282
0.00140134
-0.00264699
0.00162628
-0.00302119
0.00183941
-0.00336509
0.00203547
-0.00367316
0.00221201
-0.00394453
0.00236905
-0.00418209
0.00250854
-0.00439117
0.00263352
-0.00457824
0.0027475
-0.00474975
0.00285378
-0.00491166
0.00295535
-0.00506822
0.00305428
-0.00522462
0.00315287
-0.00537847
-0.00554649
0.00325115
3.47004e-06
3.80206e-05
1.8962e-05
3.73157e-05
5.12582e-05
-2.97652e-05
0.000105009
-0.000160746
0.000184473
-0.000353625
0.000292989
-0.000606048
0.000432183
-0.000913604
0.000601108
-0.00126827
0.000795683
-0.00165773
0.0010088
-0.00206596
0.00123124
-0.00247526
0.00145321
-0.00286897
0.00166599
-0.00323396
0.00186314
-0.00356224
0.00204111
-0.00385113
0.00219915
-0.00410256
0.00233868
-0.00432162
0.00246256
-0.00451505
0.00257428
-0.00468996
0.00267732
-0.00485279
0.00277474
-0.00500908
0.00286908
-0.00516257
0.00296199
-0.00531753
0.00305534
-0.00547182
-0.00563999
0.00314884
4.20329e-06
3.38173e-05
2.20374e-05
1.94816e-05
5.84865e-05
-6.62143e-05
0.000118318
-0.000220578
0.000205683
-0.00044099
0.000323423
-0.000723788
0.000472146
-0.00106233
0.000649388
-0.00144551
0.000849302
-0.00185764
0.00106322
-0.00227988
0.00128107
-0.00269311
0.00149316
-0.00308106
0.00169176
-0.00343257
0.00187203
-0.00374251
0.00203215
-0.00401125
0.00217287
-0.00424329
0.00229672
-0.00444546
0.0024071
-0.00462544
0.00250761
-0.00479047
0.00260154
-0.00494672
0.00269155
-0.00509908
0.00277972
-0.00525074
0.00286734
-0.00540515
0.00295589
-0.00556036
-0.00572896
0.00304485
5.01147e-06
2.88059e-05
2.53734e-05
-8.80363e-07
6.62307e-05
-0.000107072
0.000132389
-0.000286736
0.000227752
-0.000536353
0.00035445
-0.000850486
0.000511834
-0.00121971
0.000695748
-0.00162943
0.000898607
-0.0020605
0.00111048
-0.00249176
0.00132094
-0.00290357
0.00152093
-0.00328104
0.0017041
-0.00361574
0.00186733
-0.00390574
0.00201043
-0.00415435
0.00213539
-0.00436824
0.00224545
-0.00455553
0.00234429
-0.00472428
0.00243538
-0.00488156
0.00252164
-0.00503298
0.00260531
-0.00518276
0.00268808
-0.00533351
0.00277088
-0.00548795
0.00285487
-0.00564436
-0.0058135
0.00293941
5.89402e-06
2.29118e-05
2.89606e-05
-2.3947e-05
7.44528e-05
-0.000152564
0.000147117
-0.000359401
0.000250443
-0.000639679
0.000385626
-0.000985669
0.000550535
-0.00138462
0.000739232
-0.00181813
0.000942542
-0.00226381
0.00114969
-0.0026989
0.0013504
-0.00310428
0.00153671
-0.00346735
0.0017039
-0.00378293
0.00185054
-0.00405238
0.00197785
-0.00428166
0.00208873
-0.00447913
0.00218686
-0.00465365
0.00227588
-0.0048133
0.00235898
-0.00496466
0.00243869
-0.00511269
0.00251682
-0.00526089
0.00259468
-0.00541136
0.00267295
-0.00556621
0.00275253
-0.00572394
-0.00589366
0.00283269
6.84968e-06
1.60622e-05
3.27856e-05
-4.98828e-05
8.31032e-05
-0.000202881
0.000162372
-0.00043867
0.000273482
-0.000750789
0.000416464
-0.00112865
0.000587523
-0.00155568
0.000778942
-0.00200954
0.000980233
-0.0024651
0.00118024
-0.00289892
0.00136937
-0.00329341
0.00154107
-0.00363904
0.00169232
-0.00393418
0.00182326
-0.00418332
0.00193623
-0.00439463
0.00203474
-0.00457764
0.00212259
-0.00474151
0.00220325
-0.00489395
0.00227951
-0.00504093
0.00235349
-0.00518667
0.00242662
-0.00533402
0.0024999
-0.00548464
0.0025738
-0.00564012
0.00264904
-0.00579917
-0.00596946
0.00272484
7.87633e-06
8.18584e-06
3.68304e-05
-7.88369e-05
9.21207e-05
-0.000258172
0.000178002
-0.000524552
0.000296562
-0.000869349
0.000446446
-0.00127853
0.000622081
-0.00173131
0.000814084
-0.00220155
0.00101103
-0.00266205
0.00120188
-0.00308977
0.00137813
-0.00346966
0.00153485
-0.00379576
0.00167068
-0.00407001
0.00178709
-0.00429973
0.00188724
-0.00449478
0.00197497
-0.00466537
0.00205399
-0.00482053
0.00212745
-0.00496741
0.00219775
-0.00511123
0.00226659
-0.00525551
0.00233509
-0.00540252
0.00240399
-0.00555353
0.00247362
-0.00570975
0.00254453
-0.00587008
-0.00604088
0.00261594
8.97088e-06
-7.85042e-07
4.10727e-05
-0.000110939
0.000101432
-0.000318531
0.000193833
-0.000616953
0.000319349
-0.000994865
0.000475048
-0.00143423
0.00065354
-0.0019098
0.000844004
-0.00239201
0.00103451
-0.00285255
0.00121463
-0.00326989
0.00137723
-0.00363226
0.00151907
-0.0039376
0.00164033
-0.00419127
0.00174352
-0.00440292
0.00183234
-0.00458361
0.00191071
-0.00474374
0.00198211
-0.00489193
0.0020493
-0.0050346
0.00211428
-0.00517621
0.0021784
-0.00531962
0.0022425
-0.00546662
0.00230713
-0.00561816
0.00237253
-0.00577515
0.0024391
-0.00593665
-0.00610788
0.0025061
1.01291e-05
-1.09141e-05
4.54849e-05
-0.000146295
0.000110952
-0.000383997
0.000209671
-0.000715673
0.000341491
-0.00112669
0.000501753
-0.00159449
0.000681307
-0.00208936
0.000868213
-0.00257892
0.00105051
-0.00303485
0.00121875
-0.00343813
0.0013674
-0.00378091
0.00149486
-0.00406506
0.00160259
-0.004299
0.00169391
-0.00449423
0.00177279
-0.00466248
0.00184302
-0.00481398
0.00190777
-0.00495668
0.0019694
-0.00509623
0.00202952
-0.00523633
0.00208919
-0.00537929
0.00214904
-0.00552647
0.00220947
-0.00567859
0.00227064
-0.00583632
0.00233285
-0.00599887
-0.00617044
0.00239542
1.13456e-05
-2.22597e-05
5.00343e-05
-0.000184983
0.000120583
-0.000454546
0.000225306
-0.000820396
0.000362628
-0.00126401
0.000526075
-0.00175794
0.000704891
-0.00226817
0.000886402
-0.00276043
0.00105906
-0.0032075
0.00121472
-0.0035938
0.00134951
-0.0039157
0.00146333
-0.00417888
0.0015587
-0.00439438
0.00163945
-0.00457498
0.00170961
-0.00473264
0.00177273
-0.00487711
0.0018316
-0.00501555
0.00188819
-0.00515281
0.00194378
-0.00529192
0.00199917
-0.00543469
0.00205485
-0.00558214
0.00211111
-0.00573485
0.00216804
-0.00589325
0.00222587
-0.00605671
-0.00622853
0.00228396
1.26134e-05
-3.48731e-05
5.46828e-05
-0.000227053
0.000130218
-0.000530081
0.000240516
-0.000930694
0.000382405
-0.0014059
0.00054758
-0.00192312
0.000723918
-0.00244451
0.000898436
-0.00293495
0.0010604
-0.00336946
0.00120317
-0.00373657
0.00132449
-0.00403702
0.00142559
-0.00427997
0.00150978
-0.00447856
0.00158115
-0.00464636
0.00164364
-0.00479513
0.00170049
-0.00493395
0.00175407
-0.00506913
0.00180599
-0.00520473
0.00185727
-0.0053432
0.0019085
-0.00548592
0.00196006
-0.0056337
0.00201214
-0.00578693
0.00206481
-0.00594593
0.00211824
-0.00611013
-0.00628211
0.00217182
1.39243e-05
-4.87975e-05
5.93874e-05
-0.000272516
0.000139741
-0.000610435
0.000255076
-0.00104603
0.000400486
-0.00155131
0.000565899
-0.00208853
0.000738142
-0.00261675
0.000904346
-0.00310115
0.0010549
-0.00352002
0.00118479
-0.00386645
0.00129326
-0.0041455
0.00138264
-0.00436935
0.00145678
-0.0045527
0.00151986
-0.00470943
0.00157557
-0.00485085
0.00162679
-0.00498517
0.00167552
-0.00511786
0.00172305
-0.00525226
0.00177016
-0.00539031
0.0018173
-0.00553307
0.00186475
-0.00568114
0.00191265
-0.00583483
0.00196104
-0.00599432
0.00201003
-0.00615912
-0.00633115
0.00205908
1.52685e-05
-6.40659e-05
6.41001e-05
-0.000321348
0.00014903
-0.000695365
0.000268758
-0.00116576
0.000416562
-0.00169911
0.000580746
-0.00225271
0.000747446
-0.00278345
0.000904301
-0.00325801
0.00104307
-0.00365879
0.00116034
-0.00398372
0.00125673
-0.00424189
0.00133541
-0.00444803
0.00140055
-0.00461785
0.00145626
-0.00476515
0.00150593
-0.00490051
0.00155204
-0.00503128
0.00159624
-0.00516206
0.00163955
-0.00529558
0.00168258
-0.00543333
0.00172567
-0.00557615
0.00176901
-0.00572448
0.00181271
-0.00587854
0.0018568
-0.0060384
0.00190133
-0.00620366
-0.00637564
0.00194582
1.66347e-05
-8.07006e-05
6.87694e-05
-0.000373482
0.000157956
-0.000784552
0.000281346
-0.00128915
0.000430367
-0.00184813
0.000591919
-0.00241427
0.00075183
-0.00294337
0.000898589
-0.00340477
0.00102546
-0.00378566
0.00113058
-0.00408884
0.00121573
-0.00432705
0.0012847
-0.004517
0.0013418
-0.00467495
0.00139093
-0.00481428
0.00143513
-0.00494471
0.00147651
-0.00507265
0.00151641
-0.00520196
0.00155564
-0.0053348
0.00159464
-0.00547234
0.00163369
-0.0056152
0.00167291
-0.00576371
0.00171241
-0.00591804
0.00175217
-0.00607816
0.00179222
-0.00624371
-0.00641555
0.00183213
1.80103e-05
-9.87109e-05
7.33402e-05
-0.000428812
0.000166394
-0.000877606
0.000292636
-0.00141539
0.000441686
-0.00199718
0.000599307
-0.00257189
0.000751403
-0.00309546
0.000887584
-0.00354095
0.00100268
-0.00390075
0.00109625
-0.00418241
0.00117104
-0.00440183
0.00123123
-0.00457719
0.00128111
-0.00472483
0.00132431
-0.00485748
0.0013635
-0.0049839
0.00140043
-0.00510959
0.0014362
-0.00523773
0.00147142
-0.00537002
0.00150643
-0.00550735
0.00154143
-0.0056502
0.00157654
-0.00579881
0.0016118
-0.0059533
0.00164721
-0.00611357
0.00168278
-0.00627927
-0.00645087
0.0017181
1.93816e-05
-0.000118092
7.77557e-05
-0.000487186
0.000174219
-0.00097407
0.000302449
-0.00154362
0.000450355
-0.00214509
0.000602882
-0.00272441
0.00074636
-0.00323894
0.000871716