/*--------------------------------*- C++ -*----------------------------------*\
  =========                 |
  \\      /  F ield         | OpenFOAM: The Open Source CFD Toolbox
   \\    /   O peration     | Website:  https://openfoam.org
    \\  /    A nd           | Version:  7
     \\/     M anipulation  |
\*---------------------------------------------------------------------------*/
FoamFile
{
    version     2.0;
    format      ascii;
    class       volScalarField;
    location    "10";
    object      p;
}
// * * * * * * * * * * * * * * * * * * * * * * * * * * * * * * * * * * * * * //

dimensions      [0 2 -2 0 0 0 0];

internalField   nonuniform List<scalar> 
3500
(
-0.307529
-0.312509
-0.319014
-0.326933
-0.336015
-0.345957
-0.35692
-0.366299
-0.300542
-0.305581
-0.308865
-0.313785
-0.32025
-0.328182
-0.337384
-0.347018
-0.358973
-0.367266
-0.303944
-0.30816
-0.311165
-0.315872
-0.32213
-0.329866
-0.339441
-0.34749
-0.362157
-0.367517
-0.308282
-0.311376
-0.313844
-0.318053
-0.323832
-0.330745
-0.341265
-0.345746
-0.364957
-0.365135
-0.312942
-0.314741
-0.316339
-0.319657
-0.32469
-0.330024
-0.341442
-0.342303
-0.363951
-0.360753
-0.317466
-0.317925
-0.318302
-0.320332
-0.324125
-0.328093
-0.339188
-0.337037
-0.360296
-0.355707
-0.321666
-0.320722
-0.31977
-0.320152
-0.322408
-0.325035
-0.334991
-0.332203
-0.35227
-0.351101
-0.325657
-0.323375
-0.3209
-0.319516
-0.320146
-0.321799
-0.329024
-0.328853
-0.340724
-0.342598
-0.329832
-0.326203
-0.322173
-0.319089
-0.318119
-0.31892
-0.322415
-0.324112
-0.327497
-0.327889
-0.334766
-0.329662
-0.324148
-0.319458
-0.316894
-0.316136
-0.315901
-0.315649
-0.311631
-0.308033
-0.341057
-0.334272
-0.327281
-0.320913
-0.316419
-0.313054
-0.308918
-0.304221
-0.294276
-0.284457
-0.349272
-0.340451
-0.331748
-0.323415
-0.316303
-0.309249
-0.300785
-0.290987
-0.277897
-0.264702
-0.359874
-0.348455
-0.337512
-0.326795
-0.316061
-0.304401
-0.291422
-0.277556
-0.26187
-0.246856
-0.373192
-0.358234
-0.344676
-0.33076
-0.31514
-0.298331
-0.281135
-0.263853
-0.24645
-0.230827
-0.389399
-0.369374
-0.3534
-0.334682
-0.312973
-0.290937
-0.269895
-0.250045
-0.231518
-0.215023
-0.408428
-0.381602
-0.36289
-0.337498
-0.309058
-0.282051
-0.25775
-0.235896
-0.216467
-0.199369
-0.428585
-0.395106
-0.371169
-0.337918
-0.302923
-0.271519
-0.244486
-0.221119
-0.201081
-0.183327
-0.447773
-0.409528
-0.376466
-0.334912
-0.294131
-0.259058
-0.229868
-0.205417
-0.184937
-0.16686
-0.463811
-0.422756
-0.37785
-0.327921
-0.282268
-0.244357
-0.213582
-0.188454
-0.167859
-0.149868
-0.475151
-0.431736
-0.374354
-0.316599
-0.26699
-0.227073
-0.195323
-0.169961
-0.149589
-0.132229
-0.480761
-0.433834
-0.364824
-0.30056
-0.247999
-0.20691
-0.17483
-0.149735
-0.129961
-0.113451
-0.479661
-0.427306
-0.348465
-0.279386
-0.225028
-0.183633
-0.151949
-0.127721
-0.108902
-0.0929767
-0.47061
-0.411231
-0.324817
-0.252727
-0.197876
-0.157143
-0.126677
-0.103928
-0.0863781
-0.0709012
-0.45214
-0.385169
-0.293563
-0.220406
-0.166572
-0.127567
-0.0991546
-0.0783466
-0.0619327
-0.0482252
-0.422875
-0.349033
-0.254438
-0.182622
-0.131446
-0.09526
-0.0694355
-0.0508199
-0.0360065
-0.0248233
-0.38193
-0.302979
-0.207568
-0.14
-0.0927135
-0.0602113
-0.037684
-0.0216568
-0.00911294
-0.000892538
-0.329144
-0.247048
-0.15428
-0.0925543
-0.0506438
-0.0227936
-0.00422885
0.00859985
0.0180922
0.0228041
-0.264939
-0.181138
-0.0959779
-0.0411689
-0.00579627
0.0165395
0.0305205
0.0393567
0.0447439
0.0452347
-0.189827
-0.107914
-0.0332119
0.0131346
0.0411028
0.057261
0.0661112
0.0701516
0.0703524
0.0661529
-0.104766
-0.0306793
0.0328481
0.069346
0.0892028
0.0986991
0.10197
0.100708
0.0955197
0.0873994
-0.013161
0.0491875
0.100587
0.126349
0.137567
0.140034
0.137349
0.13062
0.120792
0.113736
0.0817589
0.129994
0.168295
0.182882
0.185187
0.18041
0.171554
0.159534
0.146272
0.138772
0.176576
0.209606
0.234244
0.237609
0.231002
0.219012
0.204168
0.187409
0.171152
0.161118
0.26789
0.285764
0.296726
0.28918
0.273928
0.254962
0.234479
0.213489
0.194371
0.181166
0.352429
0.356241
0.35409
0.336292
0.312966
0.287541
0.261937
0.237121
0.215102
0.198596
0.427333
0.418877
0.404743
0.377691
0.347131
0.315975
0.285916
0.257771
0.233019
0.213348
0.490457
0.471482
0.447191
0.412268
0.375578
0.339597
0.30582
0.274881
0.247729
0.225245
0.539781
0.512369
0.480161
0.43907
0.397585
0.35785
0.321201
0.288083
0.258989
0.234187
0.573637
0.540314
0.502684
0.457357
0.412579
0.370275
0.331668
0.29706
0.266603
0.240136
0.466629
0.420175
0.376565
0.336966
0.301601
0.270441
0.243099
-0.373718
-0.377968
-0.381459
-0.383932
-0.385236
-0.38519
-0.383625
-0.380408
-0.375487
-0.368875
-0.360521
-0.350413
-0.338578
-0.325078
-0.31001
-0.293504
-0.27572
-0.256843
-0.237081
-0.216654
-0.195856
-0.174915
-0.15407
-0.133553
-0.113587
-0.0943666
-0.0760445
-0.0587882
-0.0427086
-0.376121
-0.380676
-0.384475
-0.387278
-0.388926
-0.38924
-0.388046
-0.385204
-0.380656
-0.374385
-0.366348
-0.356529
-0.344951
-0.331672
-0.316783
-0.300411
-0.282715
-0.263886
-0.244146
-0.223638
-0.202755
-0.181677
-0.160653
-0.13993
-0.119749
-0.100259
-0.0815595
-0.0640312
-0.0476749
-0.378989
-0.383817
-0.387959
-0.391238
-0.393425
-0.394356
-0.393794
-0.391564
-0.387739
-0.382138
-0.374723
-0.365485
-0.354448
-0.341664
-0.32722
-0.311234
-0.29386
-0.275325
-0.256037
-0.234592
-0.21395
-0.192839
-0.171688
-0.150758
-0.130283
-0.11048
-0.0915304
-0.0736143
-0.0568534
-0.379503
-0.384736
-0.389046
-0.392792
-0.395589
-0.397167
-0.397408
-0.396093
-0.393025
-0.388238
-0.381661
-0.373254
-0.36302
-0.350999
-0.337262
-0.321919
-0.305106
-0.286997
-0.267793
-0.247639
-0.226982
-0.205983
-0.184886
-0.163936
-0.143366
-0.123397
-0.104235
-0.0860512
-0.06898
-0.0531224
-0.374152
-0.38088
-0.386035
-0.390298
-0.393614
-0.395811
-0.396718
-0.396197
-0.394038
-0.390185
-0.384578
-0.377174
-0.367964
-0.356976
-0.344258
-0.329901
-0.314033
-0.296807
-0.278406
-0.259038
-0.238997
-0.218526
-0.197865
-0.177258
-0.156944
-0.137144
-0.118062
-0.0998717
-0.0827154
-0.0667014
-0.364013
-0.371563
-0.378391
-0.383473
-0.387158
-0.389802
-0.391348
-0.391534
-0.39017
-0.387181
-0.382518
-0.376131
-0.367992
-0.358109
-0.346528
-0.33333
-0.318631
-0.302583
-0.285366
-0.267181
-0.248236
-0.228766
-0.209006
-0.189185
-0.169534
-0.150275
-0.131615
-0.113732
-0.0967755
-0.0808561
-0.353285
-0.358814
-0.366511
-0.372282
-0.37608
-0.378948
-0.381048
-0.381922
-0.381289
-0.379113
-0.375377
-0.370027
-0.363021
-0.354353
-0.344055
-0.332191
-0.318859
-0.304187
-0.288334
-0.271492
-0.253881
-0.235733
-0.217276
-0.198689
-0.180149
-0.161849
-0.143978
-0.126726
-0.110253
-0.0946777
-0.0800812
-0.341266
-0.345024
-0.352537
-0.357787
-0.360862
-0.363517
-0.365811
-0.367072
-0.366933
-0.365405
-0.362469
-0.358076
-0.352183
-0.344766
-0.335843
-0.325466
-0.313713
-0.30069
-0.28653
-0.271392
-0.255457
-0.238922
-0.221998
-0.204902
-0.187829
-0.170897
-0.154213
-0.137945
-0.122264
-0.107297
-0.0931304
-0.0798305
-0.325739
-0.329401
-0.33639
-0.340108
-0.342323
-0.345199
-0.347931
-0.349505
-0.349973
-0.349247
-0.347205
-0.343837
-0.339105
-0.332959
-0.325407
-0.316497
-0.306294
-0.294884
-0.282377
-0.268911
-0.254642
-0.239745
-0.224402
-0.208803
-0.193134
-0.177561
-0.162164
-0.14705
-0.132358
-0.1182
-0.104652
-0.0917821
-0.309293
-0.314426
-0.319404
-0.320376
-0.321355
-0.323404
-0.325213
-0.326416
-0.327157
-0.326967
-0.325736
-0.323518
-0.320194
-0.315662
-0.30991
-0.302965
-0.294862
-0.285652
-0.275411
-0.264234
-0.252237
-0.239548
-0.226306
-0.212656
-0.198742
-0.184706
-0.170689
-0.156821
-0.143224
-0.130004
-0.117229
-0.10493
-0.0931768
-0.289104
-0.300583
-0.303828
-0.303791
-0.304087
-0.305424
-0.307164
-0.308393
-0.308549
-0.30765
-0.306132
-0.303948
-0.300866
-0.296738
-0.29153
-0.285258
-0.277957
-0.269673
-0.260468
-0.250426
-0.239644
-0.228236
-0.216323
-0.204032
-0.191491
-0.178825
-0.166152
-0.153576
-0.141191
-0.129085
-0.117337
-0.106015
-0.0951774
-0.259852
-0.2738
-0.279175
-0.279337
-0.278492
-0.278369
-0.278899
-0.279464
-0.279639
-0.27921
-0.277853
-0.275537
-0.272353
-0.268339
-0.263481
-0.257772
-0.251231
-0.243904
-0.235849
-0.227135
-0.217844
-0.208063
-0.197885
-0.187406
-0.176721
-0.165925
-0.155105
-0.144346
-0.133726
-0.123316
-0.113182
-0.103378
-0.0939465
-0.235259
-0.249295
-0.255327
-0.255997
-0.255256
-0.255094
-0.255652
-0.256291
-0.256372
-0.255582
-0.254002
-0.251721
-0.248777
-0.245168
-0.240879
-0.235904
-0.230254
-0.223963
-0.217075
-0.209644
-0.201729
-0.193395
-0.184712
-0.175752
-0.166589
-0.157296
-0.147947
-0.13861
-0.129349
-0.120225
-0.111292
-0.102597
-0.0941801
-0.214719
-0.227256
-0.233179
-0.23435
-0.234014
-0.233944
-0.234351
-0.234739
-0.234634
-0.23386
-0.232414
-0.230357
-0.227725
-0.224527
-0.220754
-0.216402
-0.211482
-0.206019
-0.20005
-0.193618
-0.186771
-0.179561
-0.172045
-0.164282
-0.156332
-0.148258
-0.140117
-0.131967
-0.123862
-0.115851
-0.10798
-0.10029
-0.0928164
-0.195973
-0.207292
-0.212998
-0.214506
-0.21452
-0.214585
-0.214954
-0.215287
-0.215221
-0.214584
-0.213344
-0.211546
-0.209233
-0.206424
-0.20312
-0.199321
-0.195039
-0.190297
-0.185124
-0.179558
-0.173637
-0.167404
-0.160906
-0.154189
-0.147303
-0.140295
-0.133214
-0.126105
-0.119013
-0.111978
-0.105039
-0.0982311
-0.0915848
-0.179269
-0.189563
-0.194964
-0.196645
-0.196927
-0.197164
-0.197612
-0.198001
-0.198017
-0.197503
-0.196447
-0.194894
-0.192885
-0.19044
-0.187563
-0.184261
-0.180543
-0.17643
-0.171947
-0.167123
-0.161992
-0.156588
-0.150949
-0.145111
-0.139115
-0.133
-0.126806
-0.12057
-0.114329
-0.108118
-0.10197
-0.0959153
-0.0899804
-0.164713
-0.173927
-0.178944
-0.180706
-0.181197
-0.181593
-0.182126
-0.18257
-0.18266
-0.182272
-0.181399
-0.180085
-0.178366
-0.17626
-0.173776
-0.170918
-0.167699
-0.164133
-0.160245
-0.156059
-0.151601
-0.146901
-0.141989
-0.136898
-0.131658
-0.126304
-0.120867
-0.115381
-0.109875
-0.104379
-0.0989217
-0.0935285
-0.0882229
-0.15187
-0.160074
-0.164706
-0.166501
-0.167147
-0.167667
-0.16827
-0.168765
-0.168932
-0.168679
-0.167987
-0.166898
-0.165447
-0.163651
-0.161518
-0.159054
-0.15627
-0.153182
-0.149807
-0.146169
-0.142289
-0.138192
-0.133903
-0.12945
-0.124859
-0.120158
-0.115374
-0.110533
-0.105663
-0.100788
-0.0959324
-0.0911176
-0.0863648
-0.140471
-0.147804
-0.152071
-0.153859
-0.154616
-0.155231
-0.155894
-0.156447
-0.156705
-0.156559
-0.156027
-0.155141
-0.153929
-0.152409
-0.150586
-0.148469
-0.146066
-0.143392
-0.140463
-0.137298
-0.133916
-0.130338
-0.126586
-0.122683
-0.11865
-0.114511
-0.11029
-0.106008
-0.101689
-0.0973535
-0.0930219
-0.0887138
-0.0844471
-0.130401
-0.136951
-0.140866
-0.142619
-0.143452
-0.144138
-0.144846
-0.145441
-0.145759
-0.145725
-0.145341
-0.144637
-0.14364
-0.142363
-0.140814
-0.139
-0.136931
-0.134617
-0.132075
-0.129321
-0.12637
-0.123241
-0.119952
-0.116523
-0.112972
-0.10932
-0.105585
-0.101789
-0.0979485
-0.0940832
-0.0902106
-0.0863476
-0.0825098
-0.121502
-0.127339
-0.13092
-0.132623
-0.133508
-0.134247
-0.134987
-0.135615
-0.13599
-0.136048
-0.135792
-0.135248
-0.134437
-0.133374
-0.132066
-0.130518
-0.128739
-0.12674
-0.124534
-0.122135
-0.119557
-0.116817
-0.113929
-0.11091
-0.107777
-0.104546
-0.101235
-0.0978603
-0.0944379
-0.090984
-0.087514
-0.0840426
-0.0805837
-0.113609
-0.118811
-0.122085
-0.123731
-0.124652
-0.125428
-0.12619
-0.126843
-0.127266
-0.127403
-0.127257
-0.12685
-0.126203
-0.125326
-0.124226
-0.12291
-0.121384
-0.119658
-0.117744
-0.115653
-0.1134
-0.110996
-0.108456
-0.105794
-0.103023
-0.10016
-0.097217
-0.0942099
-0.0911527
-0.0880592
-0.0849428
-0.0818165
-0.0786924
-0.106602
-0.111242
-0.114236
-0.115821
-0.116765
-0.117567
-0.118344
-0.119014
-0.119475
-0.119678
-0.119626
-0.119338
-0.118831
-0.118116
-0.117198
-0.116082
-0.114775
-0.113287
-0.111626
-0.109804
-0.107832
-0.105721
-0.103483
-0.101131
-0.0986758
-0.0961315
-0.0935103
-0.0908247
-0.0880872
-0.0853099
-0.0825046
-0.0796827
-0.0768549
-0.100383
-0.104524
-0.107264
-0.108785
-0.109741
-0.110561
-0.111346
-0.112028
-0.112518
-0.112777
-0.112804
-0.112617
-0.112232
-0.111656
-0.110895
-0.109953
-0.108837
-0.107555
-0.106114
-0.104525
-0.102797
-0.100941
-0.0989656
-0.0968828
-0.0947031
-0.0924375
-0.090097
-0.0876928
-0.0852356
-0.082736
-0.0802046
-0.0776513
-0.0750857
-0.0948614
-0.0985595
-0.101067
-0.102527
-0.103489
-0.10432
-0.105109
-0.105796
-0.10631
-0.106613
-0.106708
-0.106608
-0.106326
-0.10587
-0.105245
-0.104454
-0.103503
-0.102399
-0.10115
-0.0997629
-0.0982474
-0.096612
-0.0948657
-0.0930178
-0.091078
-0.0890557
-0.0869608
-0.0848029
-0.0825915
-0.0803361
-0.0780458
-0.0757297
-0.0733962
-0.0899585
-0.093264
-0.0955629
-0.0969628
-0.0979262
-0.0987638
-0.099552
-0.100242
-0.100773
-0.101113
-0.101265
-0.101238
-0.101045
-0.100692
-0.100184
-0.0995233
-0.0987153
-0.0977661
-0.0966823
-0.0954713
-0.0941404
-0.0926973
-0.0911502
-0.0895071
-0.0877764
-0.0859668
-0.0840866
-0.0821444
-0.0801487
-0.0781078
-0.07603
-0.0739232
-0.0717951
-0.0856077
-0.0885665
-0.0906777
-0.0920214
-0.0929826
-0.0938231
-0.0946085
-0.095299
-0.0958421
-0.0962126
-0.0964112
-0.0964468
-0.0963296
-0.0960653
-0.0956573
-0.0951089
-0.0944245
-0.0936092
-0.092669
-0.0916104
-0.0904397
-0.089164
-0.0877901
-0.0863254
-0.0847772
-0.0831531
-0.0814607
-0.0797074
-0.0779009
-0.0760486
-0.0741577
-0.0722355
-0.0702888
-0.0817527
-0.0844056
-0.0863489
-0.08764
-0.0885968
-0.0894377
-0.0902187
-0.0909071
-0.0914596
-0.0918559
-0.0920924
-0.0921802
-0.0921272
-0.0919385
-0.0916169
-0.0911652
-0.0905873
-0.0898878
-0.0890719
-0.0881453
-0.0871137
-0.0859832
-0.08476
-0.0834506
-0.0820614
-0.0805992
-0.0790708
-0.0774828
-0.075842
-0.0741551
-0.0724285
-0.0706689
-0.0688823
-0.0783447
-0.0807285
-0.0825219
-0.0837645
-0.0847154
-0.0855549
-0.0863301
-0.0870149
-0.0875733
-0.0879873
-0.0882569
-0.0883898
-0.0883924
-0.0882685
-0.088021
-0.0876525
-0.0871663
-0.0865667
-0.0858582
-0.0850458
-0.0841346
-0.0831301
-0.0820376
-0.0808631
-0.0796122
-0.0782911
-0.0769056
-0.0754619
-0.073966
-0.0724239
-0.0708416
-0.0692247
-0.0675791
-0.0753418
-0.0774895
-0.07915
-0.0803483
-0.0812924
-0.0821294
-0.0828983
-0.0835784
-0.0841404
-0.0845697
-0.0848665
-0.085037
-0.0850863
-0.0850176
-0.0848335
-0.0845362
-0.0841289
-0.0836152
-0.0829992
-0.0822854
-0.0814782
-0.0805825
-0.0796033
-0.0785456
-0.0774148
-0.0762161
-0.074955
-0.073637
-0.0722674
-0.0708518
-0.0693954
-0.0679037
-0.0663817
-0.0727082
-0.0746499
-0.0761931
-0.0773514
-0.0782885
-0.0791221
-0.0798845
-0.0805595
-0.0811238
-0.0815657
-0.081885
-0.0820867
-0.0821753
-0.0821534
-0.0820231
-0.0817867
-0.0814468
-0.0810067
-0.0804701
-0.0798409
-0.0791232
-0.0783214
-0.0774397
-0.076483
-0.0754558
-0.0743631
-0.0732098
-0.0720007
-0.0707408
-0.0694351
-0.0680885
-0.0667058
-0.0652917
-0.063851
-0.0704133
-0.0721764
-0.073617
-0.0747395
-0.0756696
-0.0764997
-0.0772556
-0.0779254
-0.0784909
-0.0789427
-0.0792806
-0.0795085
-0.07963
-0.0796475
-0.0795629
-0.079378
-0.0790955
-0.0787182
-0.0782493
-0.0776925
-0.0770514
-0.0763299
-0.075532
-0.0746619
-0.0737238
-0.0727223
-0.0716617
-0.0705465
-0.0693813
-0.0681706
-0.0669189
-0.0656307
-0.0643103
-0.062962
-0.0684312
-0.0700408
-0.0713924
-0.0724833
-0.0734069
-0.0742333
-0.0749832
-0.0756479
-0.0762137
-0.0766734
-0.0770265
-0.0772761
-0.0774251
-0.0774757
-0.0774294
-0.0772881
-0.077054
-0.0767297
-0.0763183
-0.0758229
-0.0752469
-0.0745936
-0.073867
-0.0730706
-0.0722086
-0.0712848
-0.0703035
-0.0692686
-0.0681845
-0.0670552
-0.065885
-0.0646778
-0.063438
-0.0621693
-0.06674
-0.0682192
-0.0694947
-0.0705582
-0.0714757
-0.0722987
-0.0730431
-0.0737031
-0.0742687
-0.0747344
-0.0750999
-0.0753673
-0.0755392
-0.0756171
-0.0756028
-0.0754978
-0.0753042
-0.0750245
-0.0746612
-0.0742173
-0.0736959
-0.0731001
-0.0724334
-0.0716993
-0.0709013
-0.0700432
-0.0691287
-0.0681618
-0.0671463
-0.0660859
-0.0649847
-0.0638465
-0.062675
-0.0614741
-0.0653213
-0.0666916
-0.0679031
-0.0689435
-0.0698556
-0.0706754
-0.071415
-0.0720708
-0.0726358
-0.0731063
-0.0734817
-0.0737636
-0.073954
-0.0740545
-0.0740664
-0.0739913
-0.073831
-0.0735879
-0.0732644
-0.0728631
-0.0723869
-0.0718387
-0.0712217
-0.0705391
-0.0697943
-0.0689907
-0.0681319
-0.0672215
-0.066263
-0.0652602
-0.0642166
-0.0631358
-0.0620216
-0.0608773
-0.0641599
-0.0654413
-0.0666004
-0.0676217
-0.0685295
-0.0693467
-0.0700822
-0.0707344
-0.0712988
-0.0717729
-0.0721561
-0.0724496
-0.0726549
-0.0727733
-0.0728063
-0.0727552
-0.0726218
-0.0724083
-0.0721169
-0.07175
-0.0713103
-0.0708006
-0.0702238
-0.069583
-0.0688813
-0.068122
-0.0673084
-0.0664438
-0.0655318
-0.0645757
-0.063579
-0.0625451
-0.0614774
-0.0603794
-0.0632437
-0.0644552
-0.065573
-0.0665792
-0.0674834
-0.0682986
-0.0690309
-0.0696802
-0.0702441
-0.0707209
-0.0711102
-0.0714126
-0.0716294
-0.0717619
-0.0718112
-0.0717788
-0.0716664
-0.0714759
-0.0712094
-0.0708694
-0.0704583
-0.0699786
-0.0694332
-0.0688251
-0.0681571
-0.0674324
-0.0666542
-0.0658256
-0.0649499
-0.0640305
-0.0630706
-0.0620735
-0.0610424
-0.0599807
-0.0625639
-0.0637242
-0.0648115
-0.0658065
-0.066708
-0.0675216
-0.0682514
-0.0688984
-0.0694617
-0.0699404
-0.070334
-0.070643
-0.0708683
-0.0710109
-0.0710722
-0.0710536
-0.0709565
-0.070783
-0.0705349
-0.0702146
-0.0698244
-0.0693669
-0.0688447
-0.0682606
-0.0676175
-0.0669183
-0.0661661
-0.0653641
-0.0645153
-0.063623
-0.0626903
-0.0617203
-0.0607164
-0.0596816
-0.06211
-0.063238
-0.0643067
-0.0652953
-0.0661956
-0.0670083
-0.0677365
-0.0683821
-0.0689451
-0.069425
-0.0698214
-0.0701344
-0.070365
-0.0705143
-0.0705834
-0.0705737
-0.0704867
-0.0703242
-0.0700883
-0.0697809
-0.0694045
-0.0689615
-0.0684545
-0.0678862
-0.0672595
-0.0665771
-0.0658421
-0.0650576
-0.0642265
-0.063352
-0.0624372
-0.0614852
-0.0604992
-0.0594822
-0.0618728
-0.0629853
-0.0640467
-0.0650344
-0.0659359
-0.0667494
-0.0674775
-0.0681228
-0.0686859
-0.0691667
-0.0695648
-0.0698802
-0.0701138
-0.0702666
-0.0703397
-0.0703345
-0.0702525
-0.0700956
-0.0698656
-0.0695647
-0.0691952
-0.0687594
-0.06826
-0.0676996
-0.0670809
-0.0664069
-0.0656805
-0.0649046
-0.0640823
-0.0632167
-0.0623108
-0.0613678
-0.0603906
-0.0593824
-0.269605
-0.241187
-0.216509
-0.198543
-0.1819
-0.166586
-0.153475
-0.142015
-0.131761
-0.122672
-0.114657
-0.107546
-0.101215
-0.0955873
-0.0905855
-0.0861381
-0.0821853
-0.0786778
-0.075573
-0.0728338
-0.0704284
-0.06833
-0.0665156
-0.0649658
-0.0636642
-0.0625975
-0.0617547
-0.0611276
-0.0607056
-0.0604828
-0.250542
-0.225777
-0.201844
-0.185265
-0.170752
-0.156692
-0.144481
-0.13404
-0.124717
-0.116369
-0.108995
-0.102464
-0.0966414
-0.0914487
-0.0868251
-0.0827082
-0.0790428
-0.0757843
-0.0728948
-0.0703413
-0.0680954
-0.066133
-0.0644333
-0.0629791
-0.0617556
-0.0607506
-0.0599544
-0.059359
-0.0589544
-0.0587378
-0.234012
-0.212683
-0.189919
-0.173497
-0.160321
-0.147668
-0.136298
-0.12663
-0.118126
-0.110471
-0.103659
-0.0976278
-0.0922526
-0.0874476
-0.083158
-0.0793324
-0.0759213
-0.0728834
-0.0701849
-0.0677964
-0.0656924
-0.063851
-0.0622539
-0.0608852
-0.0597319
-0.0587827
-0.058029
-0.0574632
-0.0570761
-0.0568683
-0.217509
-0.198214
-0.177768
-0.162284
-0.150158
-0.138915
-0.128538
-0.119558
-0.111742
-0.104738
-0.0984615
-0.0928823
-0.0879117
-0.0834638
-0.0794831
-0.0759256
-0.0727488
-0.0699153
-0.0673942
-0.0651593
-0.0631877
-0.0614599
-0.0599593
-0.0586717
-0.0575851
-0.0566896
-0.0559773
-0.0554412
-0.0550731
-0.0548765
-0.201344
-0.184285
-0.166287
-0.151794
-0.140282
-0.130088
-0.120723
-0.112467
-0.105281
-0.0988901
-0.0931511
-0.0880224
-0.0834451
-0.0793467
-0.0756718
-0.0723801
-0.0694354
-0.0668048
-0.0644606
-0.0623793
-0.0605406
-0.0589273
-0.0575243
-0.056319
-0.0553009
-0.0544609
-0.053792
-0.053288
-0.0529416
-0.0527589
-0.185411
-0.169901
-0.154039
-0.14097
-0.130378
-0.121199
-0.112859
-0.105394
-0.0988292
-0.0930059
-0.0877816
-0.0830943
-0.0788972
-0.0751341
-0.0717551
-0.068722
-0.0660035
-0.0635711
-0.0614004
-0.0594703
-0.0577631
-0.0562633
-0.0549578
-0.0538353
-0.0528863
-0.0521029
-0.051479
-0.0510089
-0.0506864
-0.0505197
-0.169308
-0.15566
-0.141976
-0.130378
-0.120685
-0.112343
-0.104877
-0.0981856
-0.0922522
-0.0869816
-0.0822582
-0.0780117
-0.0741961
-0.0707672
-0.0676832
-0.0649098
-0.062419
-0.0601866
-0.0581914
-0.056415
-0.0548417
-0.0534581
-0.0522526
-0.0512154
-0.0503382
-0.0496141
-0.0490376
-0.0486038
-0.0483079
-0.0481594
-0.153275
-0.14138
-0.129575
-0.119447
-0.110826
-0.103407
-0.0968087
-0.0908889
-0.0856003
-0.0808777
-0.0766382
-0.0728203
-0.0693797
-0.0662793
-0.0634853
-0.0609682
-0.0587034
-0.0566702
-0.0548503
-0.0532279
-0.0517894
-0.0505231
-0.0494191
-0.0484688
-0.047665
-0.0470019
-0.0464747
-0.0460791
-0.0458117
-0.0456825
-0.137077
-0.126978
-0.1171
-0.108498
-0.100981
-0.0944554
-0.088646
-0.0834376
-0.0787769
-0.074603
-0.0708464
-0.0674564
-0.0643937
-0.0616264
-0.0591266
-0.05687
-0.0548358
-0.0530062
-0.0513659
-0.0499016
-0.0486016
-0.0474562
-0.0464569
-0.0455965
-0.044869
-0.0442693
-0.0437937
-0.0434387
-0.0432016
-0.0430918
-0.120681
-0.112254
-0.104166
-0.0970895
-0.0907652
-0.0852228
-0.0802536
-0.0757754
-0.0717561
-0.068144
-0.0648796
-0.0619237
-0.0592451
-0.0568176
-0.0546185
-0.0526282
-0.0508298
-0.0492086
-0.0477521
-0.0464495
-0.0452914
-0.0442698
-0.0433779
-0.0426097
-0.0419605
-0.0414263
-0.0410041
-0.040691
-0.0404855
-0.0403952
-0.103522
-0.0970866
-0.0906427
-0.0852109
-0.0801136
-0.0756087
-0.0715096
-0.0678141
-0.0644578
-0.0614307
-0.0586813
-0.0561808
-0.0539052
-0.0518341
-0.0499498
-0.0482376
-0.0466845
-0.0452795
-0.0440134
-0.042878
-0.0418663
-0.0409724
-0.0401911
-0.039518
-0.0389496
-0.0384827
-0.0381155
-0.0378454
-0.0376708
-0.0376039
-0.0851915
-0.0814948
-0.0764524
-0.072767
-0.0688652
-0.0654825
-0.0623235
-0.0595545
-0.0569038
-0.0545002
-0.0522966
-0.0502759
-0.0484219
-0.0467209
-0.0451617
-0.043735
-0.0424329
-0.0412486
-0.0401763
-0.0392109
-0.0383481
-0.0375839
-0.036915
-0.0363385
-0.0358519
-0.0354535
-0.0351419
-0.0349148
-0.0347718
-0.0347285
-0.0658715
-0.0652436
-0.0617604
-0.0597409
-0.0571702
-0.0549538
-0.0528423
-0.0509354
-0.0490917
-0.0473654
-0.0457488
-0.0442349
-0.0428196
-0.0414998
-0.0402728
-0.0391365
-0.0380889
-0.0371281
-0.0362523
-0.0354594
-0.0347477
-0.0341153
-0.0335606
-0.0330822
-0.0326786
-0.0323493
-0.0320934
-0.0319093
-0.031799
-0.0317754
-0.0456969
-0.0477807
-0.0462897
-0.0459817
-0.0450126
-0.0441455
-0.043206
-0.0422471
-0.0412378
-0.0402084
-0.0391795
-0.0381663
-0.0371811
-0.0362338
-0.0353319
-0.0344809
-0.0336847
-0.0329459
-0.032266
-0.0316459
-0.0310859
-0.030586
-0.0301462
-0.0297662
-0.0294459
-0.0291854
-0.0289846
-0.0288427
-0.028764
-0.0287562
-0.0246788
-0.0293334
-0.0303074
-0.0320168
-0.0328677
-0.0334427
-0.033678
-0.0336563
-0.0334304
-0.0330563
-0.0325832
-0.0320478
-0.0314785
-0.0308964
-0.0303172
-0.0297526
-0.0292109
-0.028698
-0.0282183
-0.0277748
-0.0273699
-0.0270052
-0.0266821
-0.0264018
-0.0261653
-0.0259736
-0.0258272
-0.0257264
-0.0256771
-0.0256809
-0.0032914
-0.0107472
-0.0144666
-0.0182142
-0.0207735
-0.0226506
-0.0239374
-0.0247826
-0.0252988
-0.025572
-0.0256687
-0.0256389
-0.0255196
-0.0253386
-0.0251166
-0.0248694
-0.0246088
-0.024344
-0.0240823
-0.0238296
-0.0235905
-0.0233691
-0.0231687
-0.0229923
-0.0228423
-0.0227208
-0.0226291
-0.0225691
-0.0225464
-0.0225573
0.0175563
0.00754817
0.00154172
-0.00368653
-0.00755298
-0.0105471
-0.0128617
-0.0146574
-0.0160501
-0.0171244
-0.0179456
-0.0185645
-0.0190216
-0.0193491
-0.0195734
-0.0197156
-0.0197936
-0.019822
-0.0198135
-0.0197785
-0.019726
-0.0196637
-0.019598
-0.0195343
-0.0194771
-0.0194301
-0.0193959
-0.0193776
-0.0193796
-0.019394
0.0379037
0.0270289
0.0197644
0.0134747
0.00829374
0.00392538
0.000243454
-0.00284716
-0.00542864
-0.0075725
-0.00934218
-0.0107934
-0.0119748
-0.0129286
-0.0136918
-0.0142961
-0.0147695
-0.0151357
-0.0154152
-0.0156255
-0.0157815
-0.0158956
-0.0159782
-0.0160378
-0.0160815
-0.0161147
-0.0161419
-0.0161671
-0.016193
-0.01621
0.0590485
0.0491655
0.0405289
0.0325347
0.0254106
0.0191751
0.0137889
0.00918669
0.00528543
0.00199925
-0.000753985
-0.00304941
-0.0049542
-0.00652767
-0.0078217
-0.00888131
-0.00974532
-0.010447
-0.0110145
-0.0114719
-0.0118391
-0.0121329
-0.0123671
-0.0125531
-0.0127
-0.0128151
-0.0129045
-0.0129728
-0.0130216
-0.0130432
0.0786535
0.0679635
0.0568804
0.0467465
0.0378864
0.0302658
0.0237548
0.0182163
0.0135217
0.00955415
0.00620958
0.00339654
0.00103545
-0.000942411
-0.00259618
-0.00397645
-0.00512637
-0.00608257
-0.00687606
-0.00753297
-0.00807523
-0.00852112
-0.00888582
-0.0091818
-0.00941921
-0.00960619
-0.0097493
-0.00985343
-0.00992037
-0.00994774
0.0940543
0.0785464
0.0658059
0.0548092
0.0454287
0.0374634
0.0306872
0.0249119
0.0199873
0.0157891
0.012212
0.0091654
0.00657187
0.00436512
0.00248849
0.000893739
-0.000460249
-0.00160841
-0.00258042
-0.00340138
-0.00409251
-0.00467165
-0.00515374
-0.00555116
-0.0058741
-0.00613085
-0.00632794
-0.00646998
-0.00655976
-0.00660055
0.106248
0.088359
0.0748795
0.0635846
0.0539089
0.0456203
0.0385221
0.0324325
0.0271983
0.0226944
0.0188169
0.0154775
0.0126011
0.0101233
0.00798944
0.00615238
0.00457207
0.00321419
0.00204947
0.00105295
0.000203412
-0.000517135
-0.00112386
-0.00162946
-0.00204447
-0.00237747
-0.00263523
-0.00282276
-0.00294405
-0.00300303
0.112158
0.0958523
0.0823794
0.071025
0.0612785
0.0528611
0.0455826
0.0392808
0.0338158
0.0290702
0.0249463
0.0213612
0.0182437
0.0155328
0.0131759
0.0111279
0.00934975
0.00780797
0.00647377
0.00532245
0.00433288
0.00348701
0.00276956
0.00216763
0.00167048
0.00126933
0.000957177
0.000728527
0.00057897
0.000505023
0.115068
0.10037
0.0876238
0.076675
0.067171
0.0588582
0.0515778
0.0452034
0.039621
0.0347298
0.0304424
0.0266836
0.0233883
0.0204999
0.0179693
0.0157538
0.0138162
0.0121243
0.0106504
0.00937037
0.00826346
0.0073119
0.00650053
0.00581651
0.0052491
0.00478943
0.00443037
0.00416626
0.00399272
0.00390674
0.115504
0.102843
0.0912646
0.080952
0.0718374
0.063771
0.0566265
0.0503023
0.0447077
0.0397604
0.0353864
0.0315204
0.0281048
0.0250888
0.0224277
0.0200821
0.0180176
0.0162039
0.0146146
0.0132268
0.0120206
0.0109787
0.0100864
0.00933125
0.00870255
0.00819161
0.00779131
0.00749602
0.0073015
0.00720489
0.11496
0.103795
0.09337
0.0838715
0.0753134
0.0676276
0.0607351
0.0545646
0.0490498
0.0441279
0.0397397
0.0358307
0.0323517
0.0292584
0.0265114
0.0240751
0.0219182
0.020013
0.018335
0.0168627
0.0155772
0.0144624
0.0135041
0.0126902
0.0120107
0.0114569
0.0110221
0.0107006
0.0104886
0.0103833
0.113423
0.103736
0.0944659
0.0858243
0.0778833
0.0706437
0.0640735
0.0581289
0.0527635
0.0479312
0.0435867
0.0396867
0.0361908
0.0330618
0.0302654
0.0277708
0.0255501
0.0235785
0.0218336
0.0202958
0.0189477
0.0177742
0.016762
0.0158997
0.0151778
0.0145882
0.0141242
0.0137807
0.0135538
0.013441
0.111539
0.103023
0.0947542
0.0869367
0.0796446
0.0729017
0.0667063
0.0610401
0.0558764
0.0511845
0.0469319
0.0430859
0.0396146
0.0364875
0.0336762
0.0311542
0.0288976
0.0268843
0.0250946
0.0235107
0.022117
0.0208996
0.0198462
0.0189464
0.0181913
0.0175732
0.0170859
0.0167247
0.0164859
0.0163671
0.109277
0.101843
0.0945116
0.0874746
0.0808145
0.0745749
0.0687758
0.0634179
0.0584899
0.053974
0.0498487
0.0460907
0.0426759
0.0395805
0.0367814
0.034257
0.0319868
0.029952
0.0281354
0.0265215
0.0250962
0.0238471
0.0227632
0.0218349
0.0210541
0.0204137
0.0199081
0.0195328
0.0192844
0.0191608
0.106954
0.100412
0.0938824
0.087549
0.081488
0.0757456
0.0703512
0.0653181
0.0606473
0.056332
0.0523603
0.0487169
0.0453848
0.0423462
0.0395833
0.0370786
0.0348153
0.0327778
0.0309513
0.0293225
0.0278792
0.0266104
0.0255064
0.0245586
0.0237596
0.0231031
0.0225841
0.0221984
0.0219429
0.0218157
0.10455
0.0988023
0.0930022
0.0873131
0.0818085
0.0765386
0.0715398
0.0668334
0.0624293
0.0583287
0.0545273
0.0510167
0.0477861
0.044823
0.0421142
0.0396463
0.0374059
0.0353804
0.0335577
0.0319263
0.030476
0.0291973
0.0280817
0.0271218
0.0263109
0.0256436
0.0251152
0.0247221
0.0244615
0.0243316
0.102219
0.0971385
0.0919632
0.0868434
0.0818462
0.0770194
0.0724004
0.0680151
0.063879
0.0599996
0.0563786
0.0530132
0.0498978
0.0470246
0.0443845
0.0419676
0.039764
0.0377635
0.0359565
0.0343336
0.0328864
0.0316068
0.0304877
0.0295225
0.0287057
0.0280323
0.0274985
0.0271009
0.0268372
0.0267057
0.0999453
0.0954498
0.0908326
0.0862252
0.0816891
0.0772709
0.0730089
0.0689315
0.0650576
0.0613993
0.0579624
0.0547488
0.0517571
0.0489832
0.0464218
0.0440663
0.0419094
0.0399437
0.0381616
0.036556
0.0351198
0.0338466
0.0327302
0.0317655
0.0309475
0.0302721
0.029736
0.0293364
0.0290711
0.0289388
0.0978031
0.0938037
0.089666
0.0855076
0.0813846
0.0773399
0.07341
0.0696237
0.0660022
0.0625601
0.0593067
0.0562473
0.0533838
0.0507155
0.04824
0.0459535
0.0438513
0.0419283
0.040179
0.0385978
0.0371795
0.0359188
0.034811
0.0338516
0.0330367
0.032363
0.0318275
0.031428
0.0311626
0.0310302
0.0957781
0.0922104
0.0884962
0.0847377
0.0809855
0.0772795
0.0736548
0.0701401
0.0667574
0.0635231
0.0604488
0.0575423
0.0548079
0.0522479
0.0498621
0.0476494
0.0456071
0.0437322
0.0420211
0.0404698
0.0390744
0.037831
0.036736
0.0357859
0.0349775
0.0343083
0.0337757
0.033378
0.0331136
0.0329816
0.0939044
0.0907045
0.0873549
0.0839456
0.0805223
0.0771212
0.0737751
0.0705114
0.0673523
0.064315
0.0614128
0.058655
0.0560483
0.0535968
0.0513025
0.0491662
0.0471873
0.0453644
0.0436954
0.042178
0.0408095
0.0395873
0.0385086
0.037571
0.036772
0.0361096
0.0355819
0.0351874
0.0349251
0.0347941
0.0921688
0.0892873
0.0862575
0.0831567
0.080026
0.0768985
0.0738047
0.0707708
0.0678187
0.064966
0.0622267
0.0596115
0.0571285
0.0547834
0.0525801
0.0505208
0.0486066
0.0468375
0.0452131
0.0437321
0.0423932
0.0411948
0.0401349
0.039212
0.0384244
0.0377706
0.0372492
0.0368592
0.0365996
0.03647
0.0905841
0.0879752
0.0852209
0.0823886
0.0795156
0.0766319
0.0737651
0.0709402
0.0681782
0.0654965
0.0629098
0.0604295
0.0580648
0.0558226
0.053708
0.0517248
0.0498752
0.0481607
0.046582
0.0451389
0.0438313
0.0426583
0.0416191
0.0407126
0.0399379
0.039294
0.0387801
0.0383953
0.0381391
0.0380111
0.0891386
0.0867656
0.0842515
0.0816548
0.0790092
0.0763419
0.0736785
0.0710421