/*--------------------------------*- C++ -*----------------------------------*\
  =========                 |
  \\      /  F ield         | OpenFOAM: The Open Source CFD Toolbox
   \\    /   O peration     | Website:  https://openfoam.org
    \\  /    A nd           | Version:  7
     \\/     M anipulation  |
\*---------------------------------------------------------------------------*/
FoamFile
{
    version     2.0;
    format      ascii;
    class       volVectorField;
    location    "10";
    object      U;
}
// * * * * * * * * * * * * * * * * * * * * * * * * * * * * * * * * * * * * * //

dimensions      [0 1 -1 0 0 0 0];

internalField   nonuniform List<vector> 
3500
(
(-0.0949591 0.0159199 8.19257e-20)
(-0.141881 0.0163087 1.43189e-20)
(-0.186815 0.0162909 2.84523e-20)
(-0.229816 0.016209 -1.66768e-20)
(-0.270636 0.0160044 -3.19203e-20)
(-0.30854 0.0152841 3.14441e-20)
(-0.345245 0.0155547 3.18745e-20)
(-0.374019 0.0130379 2.62336e-20)
(-0.0129796 0.0237669 -1.03296e-19)
(-0.0453966 0.041029 6.84945e-20)
(-0.089806 0.0463733 -9.34451e-20)
(-0.131172 0.0474987 5.35171e-21)
(-0.169022 0.0472991 -6.8033e-20)
(-0.203085 0.0468365 8.90497e-21)
(-0.23318 0.0462369 4.58898e-20)
(-0.256156 0.0432428 -2.0675e-19)
(-0.279293 0.0451379 5.15863e-20)
(-0.285099 0.0359863 -4.57612e-22)
(-0.0148142 0.0363748 1.92753e-19)
(-0.044191 0.0639173 -1.71499e-20)
(-0.0807038 0.0728096 1.29933e-19)
(-0.111997 0.0745638 -1.1938e-20)
(-0.137197 0.073837 -1.45562e-19)
(-0.155306 0.0723556 1.09212e-19)
(-0.168136 0.0715148 -4.77972e-20)
(-0.163855 0.0644771 5.02613e-20)
(-0.16808 0.070121 -1.56208e-19)
(-0.134045 0.0510302 2.28167e-19)
(-0.0171962 0.0448984 2.30605e-20)
(-0.0431198 0.080811 -3.07023e-19)
(-0.0696302 0.0929994 -1.83229e-19)
(-0.0879455 0.0951943 9.72391e-20)
(-0.0972891 0.0935483 1.18166e-19)
(-0.0948114 0.0903145 -1.97686e-19)
(-0.0889454 0.0885232 8.60264e-20)
(-0.0491357 0.0777535 5.91466e-20)
(-0.0362411 0.0847083 2.4344e-19)
(0.0480492 0.0609379 -3.27134e-19)
(-0.019851 0.0490183 -9.71975e-20)
(-0.0427533 0.0905855 1.51173e-19)
(-0.0587005 0.105342 4.43929e-19)
(-0.0627368 0.107604 -2.23414e-19)
(-0.0550695 0.104437 2.08969e-19)
(-0.0300956 0.0997866 3.58838e-19)
(-0.00539604 0.0939666 -1.05467e-20)
(0.0744107 0.0823967 1.08417e-20)
(0.0961359 0.0836873 -3.50872e-19)
(0.250117 0.0665615 1.80046e-19)
(-0.0226397 0.0492681 -2.30237e-19)
(-0.0434453 0.0931019 1.36059e-19)
(-0.0494654 0.10912 -6.18326e-19)
(-0.0391069 0.110721 3.02688e-19)
(-0.0136019 0.105472 4.37952e-20)
(0.0346199 0.100117 -3.99288e-19)
(0.0792765 0.0869056 -1.21806e-19)
(0.208694 0.0812848 1.23696e-19)
(0.228864 0.0698942 2.41138e-19)
(0.479081 0.0606194 -1.35804e-19)
(-0.0256363 0.0467746 -2.48771e-20)
(-0.0451876 0.0893263 -4.26353e-19)
(-0.0420287 0.1046 4.22042e-19)
(-0.0170331 0.104537 -3.04599e-19)
(0.0284096 0.0969416 7.56463e-20)
(0.103668 0.0914797 2.60067e-19)
(0.179332 0.0716183 -4.75185e-19)
(0.36001 0.0754051 -2.05343e-19)
(0.398479 0.0543534 1.8031e-19)
(0.736085 0.0545706 1.1139e-19)
(-0.0289731 0.0428785 2.50691e-19)
(-0.0473789 0.080878 7.34964e-19)
(-0.0344342 0.093107 -7.08703e-19)
(0.00800451 0.0905419 1.74078e-19)
(0.080365 0.0812128 4.37165e-19)
(0.191778 0.0760845 -2.22544e-19)
(0.322033 0.0600421 -7.18648e-20)
(0.537541 0.0659139 -2.80076e-19)
(0.642956 0.0517214 3.30804e-19)
(0.984883 0.0618538 -2.46302e-19)
(-0.0327004 0.0386542 -4.58811e-19)
(-0.0483752 0.0694833 1.26277e-19)
(-0.021938 0.0769539 2.6475e-19)
(0.0459947 0.0719082 -1.31155e-19)
(0.159372 0.0636931 -4.47099e-19)
(0.322133 0.0607124 5.33504e-19)
(0.519066 0.0617089 3.45229e-19)
(0.746624 0.064676 3.20179e-19)
(0.923462 0.0708115 -2.6342e-19)
(1.173 0.0775804 2.05438e-19)
(-0.0364962 0.0346311 -1.12e-19)
(-0.0453764 0.0566315 -3.67973e-19)
(0.00297532 0.0588146 -2.17915e-19)
(0.111158 0.0533242 2.57445e-19)
(0.283234 0.051935 4.9356e-20)
(0.506996 0.0585029 -3.15194e-19)
(0.747048 0.076599 3.71852e-19)
(0.966746 0.082041 -5.30596e-19)
(1.14002 0.102391 -3.01922e-19)
(1.2669 0.0876331 1.08682e-19)
(-0.0395381 0.0307881 2.75888e-19)
(-0.0345026 0.0431961 3.8645e-19)
(0.0495017 0.0414489 1.61407e-19)
(0.217133 0.0409637 2.24795e-19)
(0.457459 0.0535966 -1.30241e-19)
(0.7248 0.0762809 -3.38339e-19)
(0.961773 0.101883 1.37609e-19)
(1.14021 0.111663 1.71945e-19)
(1.24644 0.125868 5.80159e-19)
(1.28583 0.0840108 -3.44823e-19)
(-0.0405798 0.026687 4.06359e-19)
(-0.0111238 0.0294547 -5.03117e-20)
(0.126789 0.0282045 3.70002e-19)
(0.369052 0.0417042 -1.64789e-19)
(0.663041 0.0728252 5.08882e-19)
(0.929659 0.107049 2.04915e-19)
(1.12137 0.131008 2.56285e-19)
(1.23379 0.137737 -4.21994e-19)
(1.27849 0.132559 -1.75529e-19)
(1.29691 0.110957 1.69972e-19)
(-0.0380257 0.0217353 2.59099e-20)
(0.029966 0.0157838 -3.5818e-19)
(0.24141 0.0240241 -3.42717e-19)
(0.554845 0.0595962 -8.71268e-20)
(0.861447 0.105265 -1.37542e-19)
(1.08489 0.14007 1.53621e-19)
(1.21349 0.156101 -6.38621e-19)
(1.27052 0.152967 4.33366e-19)
(1.28814 0.146639 -2.76282e-21)
(1.28838 0.120417 -5.24224e-19)
(-0.0299982 0.0155276 -5.75074e-19)
(0.094316 0.00411927 -1.16005e-19)
(0.392024 0.0344769 -1.24043e-20)
(0.745523 0.0919602 3.65245e-20)
(1.02077 0.141597 1.94678e-19)
(1.1833 0.169002 -6.1622e-19)
(1.25789 0.174592 6.1187e-19)
(1.28255 0.168095 -1.35174e-19)
(1.2819 0.154045 8.22585e-20)
(1.27382 0.132744 1.35277e-19)
(-0.014293 0.00817162 1.57358e-20)
(0.186279 -0.000499926 4.71452e-19)
(0.563374 0.0613656 1.21328e-19)
(0.912426 0.131469 -6.52589e-20)
(1.13262 0.175909 -5.55543e-20)
(1.23865 0.192922 3.59571e-19)
(1.27559 0.191175 -5.00367e-22)
(1.27925 0.179423 2.72434e-19)
(1.27083 0.163926 -8.63646e-20)
(1.2618 0.144608 -3.70795e-21)
(0.0121848 0.000539189 9.3528e-20)
(0.305429 0.00887413 -1.69048e-19)
(0.73133 0.100711 1.35899e-19)
(1.04265 0.17246 1.80436e-19)
(1.20425 0.206944 -1.18501e-19)
(1.26554 0.214032 -1.73931e-20)
(1.27704 0.205495 -3.57157e-19)
(1.27007 0.191371 -2.40638e-19)
(1.25836 0.173114 2.98459e-19)
(1.24616 0.155319 -1.93456e-19)
(0.0523449 -0.00472113 1.20161e-19)
(0.443139 0.0363695 2.13726e-19)
(0.877663 0.14698 1.51347e-19)
(1.1363 0.212659 -2.31914e-19)
(1.24556 0.235358 2.78703e-19)
(1.27397 0.233088 -1.51982e-19)
(1.27027 0.219753 -3.92441e-20)
(1.25749 0.202599 -1.49494e-20)
(1.24386 0.18306 -8.51404e-20)
(1.23199 0.166769 2.62174e-20)
(0.107083 -0.00372802 2.98579e-19)
(0.584564 0.0799632 -1.68612e-19)
(0.995462 0.1965 1.0572e-19)
(1.19846 0.251274 1.25974e-19)
(1.26502 0.261684 -9.22278e-20)
(1.27104 0.251396 1.42878e-19)
(1.25836 0.233655 5.39592e-20)
(1.2429 0.214261 7.39549e-20)
(1.22914 0.193366 4.923e-20)
(1.21616 0.177048 7.92519e-20)
(0.174698 0.00705268 -1.0908e-19)
(0.715408 0.13471 -1.62695e-19)
(1.08442 0.247264 -1.29551e-19)
(1.23517 0.288011 -1.25292e-19)
(1.26904 0.286581 -5.71435e-20)
(1.2606 0.269215 6.4223e-20)
(1.24327 0.247779 -3.25549e-20)
(1.22682 0.225834 7.88861e-22)
(1.21284 0.203665 -3.15643e-20)
(1.20031 0.187061 6.78146e-21)
(0.250796 0.0293764 2.90998e-20)
(0.826498 0.196025 -6.32736e-21)
(1.14659 0.297963 2.9326e-20)
(1.25186 0.322963 2.33127e-20)
(1.26198 0.310381 1.80926e-20)
(1.24498 0.286846 -5.00764e-20)
(1.22555 0.261746 2.43772e-20)
(1.20902 0.237319 -2.464e-20)
(1.19573 0.21373 -8.16253e-21)
(1.18356 0.195858 -1.34098e-20)
(0.329442 0.0628686 1.42735e-21)
(0.914255 0.260542 -9.95308e-22)
(1.18487 0.347605 -6.62884e-21)
(1.2528 0.356179 7.86705e-20)
(1.2467 0.333255 -2.21964e-20)
(1.22523 0.304059 -2.28323e-20)
(1.20543 0.275422 3.26264e-21)
(1.18961 0.248302 -3.31611e-21)
(1.17708 0.222996 -1.09994e-20)
(1.16593 0.203719 -2.54816e-20)
(0.4044 0.105751 -1.2437e-19)
(0.978156 0.32583 2.43892e-20)
(1.20232 0.395256 -2.09458e-19)
(1.24115 0.387498 -7.62842e-20)
(1.2249 0.355047 -2.4265e-20)
(1.2019 0.320573 -3.76406e-21)
(1.18292 0.288329 -1.95617e-20)
(1.16841 0.258481 -1.3956e-20)
(1.15723 0.231391 9.35385e-21)
(1.14677 0.210308 1.7732e-20)
(0.470139 0.155677 2.14202e-19)
(1.01889 0.38988 -1.12852e-19)
(1.20179 0.439974 1.60477e-19)
(1.21913 0.416579 6.90252e-20)
(1.19762 0.375402 -2.80448e-20)
(1.17522 0.33586 1.00044e-19)
(1.1581 0.300031 -2.36493e-20)
(1.14555 0.26747 3.60088e-20)
(1.13586 0.238837 4.65197e-21)
(1.12613 0.215757 2.73667e-20)
(0.522541 0.210051 -1.31499e-19)
(1.03788 0.450922 5.12095e-19)
(1.18574 0.480859 -9.79183e-20)
(1.18839 0.4429 -6.15308e-20)
(1.16557 0.393733 1.42412e-19)
(1.14548 0.349347 -6.31261e-20)
(1.13112 0.310019 -2.72835e-20)
(1.12098 0.274944 -1.76243e-20)
(1.11279 0.245161 -3.41105e-20)
(1.10466 0.219858 9.78701e-23)
(0.559133 0.266087 -2.40341e-19)
(1.03688 0.507295 -2.79925e-19)
(1.15612 0.516918 1.80873e-19)
(1.15028 0.465731 5.02251e-20)
(1.12947 0.40935 -8.17772e-20)
(1.11308 0.360469 -4.60724e-20)
(1.10209 0.317898 2.19896e-20)
(1.09459 0.280753 -2.12403e-20)
(1.08814 0.249747 2.95626e-20)
(1.08263 0.222467 -1.04262e-20)
(0.579003 0.320889 8.81505e-20)
(1.01784 0.557426 3.76253e-19)
(1.1147 0.547031 -6.88434e-20)
(1.10625 0.48417 7.71243e-21)
(1.08985 0.421473 -1.09116e-20)
(1.07814 0.368681 5.02532e-20)
(1.07107 0.323353 3.51732e-20)
(1.06654 0.284435 2.1293e-20)
(1.0625 0.252357 -1.43917e-20)
(1.05998 0.223486 -1.45718e-22)
(0.582521 0.371694 -6.51001e-19)
(0.982493 0.599657 6.06148e-20)
(1.06366 0.570194 -1.5085e-19)
(1.05725 0.497122 6.75118e-20)
(1.04703 0.429473 -1.54256e-20)
(1.04093 0.373394 -2.22202e-20)
(1.03843 0.325932 -2.78555e-21)
(1.03735 0.285716 8.62908e-21)
(1.0364 0.252706 -1.11023e-20)
(1.0375 0.222929 -3.62451e-20)
(0.5708 0.416214 3.24688e-19)
(0.932426 0.631768 -3.39488e-19)
(1.00535 0.585566 -2.87985e-20)
(1.00423 0.503802 -6.32567e-20)
(1.0017 0.432517 1.72013e-20)
(1.00199 0.374082 3.03761e-20)
(1.00455 0.325185 2.28236e-20)
(1.0076 0.284161 1.64734e-21)
(1.01073 0.250613 -2.16885e-21)
(1.01603 0.220862 5.81008e-20)
(0.544914 0.452668 2.04283e-19)
(0.870365 0.65228 -4.29669e-20)
(0.941673 0.591792 1.35152e-20)
(0.94833 0.503851 4.06266e-20)
(0.954573 0.430095 9.71876e-22)
(0.961813 0.370236 -5.09946e-20)
(0.969945 0.320596 -3.49156e-20)
(0.977868 0.279202 6.13921e-21)
(0.98615 0.245542 5.4664e-20)
(0.995953 0.21765 -4.13257e-20)
(0.506228 0.478291 5.77831e-20)
(0.800216 0.660649 -4.45229e-21)
(0.874404 0.588 -6.48181e-20)
(0.89068 0.496624 1.57622e-20)
(0.906459 0.421768 9.90875e-20)
(0.921057 0.361517 -3.26779e-20)
(0.935159 0.311818 1.20045e-19)
(0.94858 0.270261 -1.63879e-19)
(0.96257 0.236209 -1.17609e-19)
(0.976073 0.212054 -2.02796e-20)
(0.457389 0.490237 -6.19133e-20)
(0.724577 0.655488 3.06577e-20)
(0.805162 0.574032 6.78629e-21)
(0.832495 0.481695 -3.78581e-20)
(0.858243 0.407265 -1.63435e-19)
(0.880468 0.347746 1.6401e-19)
(0.900855 0.29889 6.07343e-20)
(0.919957 0.257786 7.93294e-20)
(0.939295 0.222198 2.13498e-19)
(0.953637 0.1954 -5.02902e-20)
(0.402401 0.488005 9.29978e-20)
(0.646417 0.636299 -1.50256e-20)
(0.735826 0.549709 -5.45612e-20)
(0.775045 0.458791 8.75741e-20)
(0.810909 0.386394 1.61864e-19)
(0.840894 0.328777 -3.72391e-19)
(0.867754 0.281788 -6.02402e-20)
(0.892232 0.242779 -1.47361e-19)
(0.914734 0.209873 3.0785e-20)
(0.928675 0.18455 -1.06363e-19)
(0.344479 0.471272 -1.98905e-19)
(0.568439 0.602795 -1.06555e-19)
(0.668215 0.515109 3.32455e-19)
(0.719633 0.427928 -1.9204e-19)
(0.765466 0.35917 -2.69502e-19)
(0.803141 0.304569 2.50694e-19)
(0.83642 0.260007 -2.35423e-19)
(0.866112 0.222755 1.13334e-19)
(0.892005 0.191217 -1.36846e-19)
(0.908133 0.167186 2.15317e-19)
(0.286766 0.440483 -9.63698e-20)
(0.493441 0.555351 5.0244e-19)
(0.604141 0.470509 -5.30833e-19)
(0.667562 0.389332 2.0608e-20)
(0.722934 0.325851 1.73009e-19)
(0.767911 0.27565 -1.36389e-20)
(0.807009 0.234941 3.59654e-19)
(0.840944 0.201145 -3.1062e-19)
(0.869665 0.172519 2.22154e-19)
(0.889002 0.150056 -1.48538e-19)
(0.232094 0.396685 -1.59575e-19)
(0.423947 0.49472 8.81876e-20)
(0.545337 0.416438 2.36188e-19)
(0.620108 0.343416 2.69207e-19)
(0.684364 0.286654 -6.19114e-20)
(0.736176 0.241812 2.4891e-19)
(0.780679 0.205455 2.34423e-20)
(0.8185 0.175321 2.50775e-20)
(0.849975 0.149997 -9.37586e-20)
(0.872455 0.130248 -5.57969e-21)
(0.182874 0.34148 4.84291e-19)
(0.362214 0.422111 -3.35338e-19)
(0.49347 0.353694 -4.45346e-19)
(0.578439 0.290904 2.5717e-20)
(0.650564 0.242349 -1.29088e-19)
(0.708344 0.204106 1.06262e-19)
(0.757459 0.173186 -3.82485e-19)
(0.798602 0.147558 1.10684e-19)
(0.832733 0.125919 3.10529e-19)
(0.858385 0.108863 -1.497e-19)
(0.14098 0.276572 6.95168e-20)
(0.310268 0.3393 4.21796e-19)
(0.450133 0.283359 3.01593e-19)
(0.543709 0.232594 -2.80766e-19)
(0.622494 0.193425 1.7143e-19)
(0.685297 0.162614 -7.76387e-20)
(0.73823 0.137752 -4.9543e-20)
(0.782097 0.117201 -2.3608e-20)
(0.818518 0.0998507 -9.70142e-20)
(0.84701 0.0860469 1.76388e-19)
(0.107957 0.203611 -3.30971e-19)
(0.269769 0.248347 -3.83229e-19)
(0.416539 0.206908 -5.59355e-21)
(0.516805 0.169624 2.69406e-19)
(0.60077 0.140896 -5.00111e-20)
(0.667465 0.118324 -5.16999e-20)
(0.723327 0.100125 7.4676e-20)
(0.769294 0.0850814 -4.05493e-20)
(0.807564 0.0723504 -3.09577e-20)
(0.838412 0.0621391 3.24344e-20)
(0.0851446 0.124638 4.82025e-20)
(0.242025 0.151437 -6.31903e-20)
(0.393624 0.125967 2.71623e-19)
(0.498464 0.103184 -6.62432e-20)
(0.585975 0.0856382 1.22771e-19)
(0.655326 0.0718624 -3.29492e-20)
(0.713172 0.0607668 -5.04405e-20)
(0.760561 0.0515997 7.9418e-20)
(0.80012 0.0438223 1.13246e-20)
(0.832665 0.0375376 -2.74668e-20)
(0.48917 0.0346319 -6.25948e-20)
(0.57848 0.0287317 2.84631e-20)
(0.649177 0.0241003 -1.49564e-20)
(0.708024 0.0203714 1.75672e-20)
(0.75613 0.0172912 -2.2519e-20)
(0.796349 0.0146738 -1.35345e-20)
(0.829787 0.0125499 6.42896e-24)
(-0.394708 0.0138917 -7.69766e-20)
(-0.410149 0.0120922 5.62766e-20)
(-0.423027 0.0105755 1.18279e-21)
(-0.43434 0.00889121 -9.67826e-21)
(-0.443596 0.00712195 -1.99321e-20)
(-0.450764 0.00525795 -2.31444e-20)
(-0.455651 0.00330879 -3.95528e-20)
(-0.45815 0.00128742 7.0292e-20)
(-0.458263 -0.000779163 -3.94271e-20)
(-0.455971 -0.00291137 7.98124e-20)
(-0.451253 -0.00508426 -5.00893e-20)
(-0.444058 -0.00727558 -6.98636e-21)
(-0.434364 -0.00946533 -1.62685e-20)
(-0.422173 -0.0116339 4.16638e-20)
(-0.407507 -0.0137613 -2.67367e-20)
(-0.390413 -0.0158269 2.52503e-20)
(-0.37096 -0.0178088 -1.75617e-20)
(-0.349237 -0.019687 -1.30919e-20)
(-0.325354 -0.0214484 8.47059e-21)
(-0.299443 -0.0230893 -4.53007e-21)
(-0.271669 -0.0245732 1.64762e-20)
(-0.242221 -0.0259047 -7.52668e-21)
(-0.211274 -0.0270682 -8.76274e-21)
(-0.179029 -0.0280545 5.38974e-21)
(-0.145699 -0.028872 -5.11106e-21)
(-0.111454 -0.0295557 6.17708e-21)
(-0.0765422 -0.0299747 1.11967e-21)
(-0.0412217 -0.0301854 -2.78821e-21)
(-0.00564917 -0.0302176 3.61184e-21)
(-0.293795 0.0388528 7.08614e-21)
(-0.306571 0.0339907 6.70315e-20)
(-0.316092 0.0293101 -1.07488e-19)
(-0.324244 0.0244229 1.65721e-19)
(-0.330639 0.0193089 -1.37607e-19)
(-0.335188 0.0139615 -4.76291e-21)
(-0.337715 0.00837651 1.81042e-19)
(-0.338067 0.00256894 -5.92455e-20)
(-0.336366 -0.00344941 2.11282e-20)
(-0.332504 -0.00962987 -7.04266e-20)
(-0.326433 -0.0159155 -7.97525e-20)
(-0.31812 -0.0222501 4.39044e-20)
(-0.307551 -0.0285809 -5.16711e-20)
(-0.29473 -0.0348558 1.0497e-19)
(-0.279679 -0.0410215 -3.14909e-20)
(-0.262439 -0.0470223 3.1091e-20)
(-0.243076 -0.0527996 -1.58175e-20)
(-0.221692 -0.0582924 -3.18244e-20)
(-0.198399 -0.06346 3.52483e-20)
(-0.173248 -0.0684247 -1.0409e-20)
(-0.146446 -0.072662 -3.96421e-20)
(-0.118223 -0.0764758 3.82023e-20)
(-0.0887118 -0.0798002 -1.85343e-20)
(-0.0581317 -0.082604 -5.90947e-22)
(-0.026779 -0.0848676 9.3398e-21)
(0.00543001 -0.0865393 1.62084e-20)
(0.0383759 -0.0876434 -2.83586e-21)
(0.0715117 -0.0882292 1.63269e-20)
(0.10466 -0.0883023 -3.57627e-21)
(-0.127107 0.055053 -2.07512e-19)
(-0.133886 0.0494281 8.41878e-20)
(-0.137949 0.0421973 -2.2894e-19)
(-0.140685 0.0345872 4.19513e-19)
(-0.142294 0.0266246 -2.85225e-19)
(-0.142632 0.0182764 3.4954e-19)
(-0.141495 0.0095924 -3.49221e-19)
(-0.13876 0.000583634 1.57403e-19)
(-0.134427 -0.00877903 -3.56121e-20)
(-0.128262 -0.0183755 1.86619e-19)
(-0.120286 -0.0281381 -8.97854e-20)
(-0.110482 -0.0379934 -1.0928e-19)
(-0.0988416 -0.0478632 -1.99222e-19)
(-0.0853706 -0.0576681 2.04645e-19)
(-0.0700921 -0.0673235 -3.40606e-21)
(-0.0530418 -0.0767375 -1.63981e-19)
(-0.0342726 -0.0858127 4.37843e-20)
(-0.0139453 -0.0944572 1.33335e-19)
(0.0075372 -0.102582 -3.58213e-20)
(0.0311021 -0.10994 6.24167e-21)
(0.056421 -0.116556 5.90722e-20)
(0.0823665 -0.122529 -5.73999e-20)
(0.109258 -0.127721 7.40084e-20)
(0.136928 -0.132088 -1.91806e-20)
(0.165181 -0.135575 -8.13029e-20)
(0.193842 -0.138032 6.69857e-20)
(0.222792 -0.139627 -2.6005e-20)
(0.251823 -0.140418 1.17828e-20)
(0.280747 -0.140391 -3.90204e-20)
(0.0660267 0.05796 1.12384e-20)
(0.0666721 0.0523994 -2.53145e-19)
(0.0683851 0.0453521 2.26978e-19)
(0.071462 0.0371479 1.67482e-19)
(0.0751997 0.0278511 -1.12213e-19)
(0.079649 0.0176674 -2.25696e-19)
(0.0850163 0.00683752 9.06335e-21)
(0.0912085 -0.00452608 1.64754e-19)
(0.0984058 -0.0163329 -1.34502e-19)
(0.106892 -0.0284727 2.24554e-19)
(0.116673 -0.0408706 -2.83111e-19)
(0.127779 -0.0534248 2.66014e-19)
(0.140233 -0.0660259 -6.1068e-20)
(0.15404 -0.0785689 3.65794e-20)
(0.169188 -0.0909504 6.28496e-20)
(0.185646 -0.103054 -6.12448e-20)
(0.203367 -0.114759 -2.1822e-19)
(0.222268 -0.125961 9.06572e-20)
(0.242185 -0.136401 1.50079e-19)
(0.263128 -0.145647 -5.05243e-20)
(0.285051 -0.154259 -6.12693e-20)
(0.307709 -0.161933 -1.82587e-20)
(0.330949 -0.168567 -4.26232e-21)
(0.354605 -0.17409 -3.6943e-20)
(0.37851 -0.178454 9.97323e-20)
(0.402514 -0.181618 -7.05222e-21)
(0.426489 -0.18359 -2.74015e-20)
(0.450283 -0.184406 7.59441e-21)
(0.473745 -0.184115 -1.64056e-20)
(0.496749 -0.182782 -1.7938e-20)
(0.267643 0.0550749 9.65559e-20)
(0.275267 0.04704 1.69805e-20)
(0.281657 0.0394809 -4.92816e-19)
(0.288388 0.0313308 2.13962e-19)
(0.295676 0.0219474 -1.86144e-19)
(0.303595 0.0113975 4.36633e-20)
(0.312223 -0.000101828 -8.02589e-20)
(0.321386 -0.0124231 1.84511e-19)
(0.331123 -0.0254262 -4.8407e-21)
(0.341616 -0.0389989 5.73542e-19)
(0.352923 -0.0530083 -1.00451e-19)
(0.365079 -0.0673081 -2.45474e-19)
(0.378104 -0.0817564 -4.00053e-20)
(0.391984 -0.0962184 -1.32654e-20)
(0.40669 -0.110551 -8.80764e-20)
(0.422194 -0.124596 -7.47707e-20)
(0.438449 -0.138187 8.6929e-21)
(0.455381 -0.151158 9.05854e-20)
(0.472882 -0.163321 1.08694e-19)
(0.490896 -0.174482 -1.24873e-19)
(0.50935 -0.184567 1.13086e-19)
(0.528091 -0.193469 -1.47464e-19)
(0.546965 -0.201086 4.50803e-20)
(0.565826 -0.207347 -1.4778e-20)
(0.584539 -0.212206 -8.60567e-20)
(0.602978 -0.215638 7.75746e-20)
(0.621036 -0.217657 1.72116e-20)
(0.63862 -0.218304 -3.27886e-20)
(0.655645 -0.217638 4.14084e-20)
(0.672042 -0.215739 1.19376e-20)
(0.485134 0.0490351 -2.01448e-20)
(0.493848 0.0404299 -1.18842e-19)
(0.502372 0.0323449 1.14535e-19)
(0.509915 0.0236172 2.83321e-19)
(0.517635 0.013611 7.45706e-20)
(0.526287 0.00254789 -2.83008e-19)
(0.535831 -0.00929211 4.98817e-20)
(0.545951 -0.02192 3.70438e-19)
(0.556542 -0.0353357 -1.00821e-18)
(0.567648 -0.0494556 3.5775e-19)
(0.579296 -0.064137 -2.96817e-19)
(0.59146 -0.0792295 5.42699e-19)
(0.604103 -0.0945833 1.52987e-19)
(0.617187 -0.110042 -4.3544e-19)
(0.630669 -0.125429 5.97175e-19)
(0.644498 -0.140558 -1.37125e-19)
(0.658608 -0.155237 -3.69537e-19)
(0.672932 -0.169271 -3.08499e-19)
(0.687375 -0.182462 4.07028e-19)
(0.701809 -0.194632 2.02459e-19)
(0.716113 -0.205629 -2.70198e-19)
(0.730186 -0.215296 2.43455e-19)
(0.743909 -0.223489 -3.4838e-19)
(0.757161 -0.230128 8.91898e-20)
(0.769843 -0.235173 -1.94065e-20)
(0.781881 -0.238615 1.10257e-19)
(0.793223 -0.240488 2.79235e-20)
(0.803843 -0.240847 -1.34445e-19)
(0.81373 -0.239764 -3.30861e-21)
(0.822882 -0.237339 7.20584e-20)
(0.727411 0.0426676 -1.74648e-19)
(0.730109 0.0347663 1.86271e-20)
(0.736058 0.0276555 3.15279e-19)
(0.74109 0.0189785 -3.5793e-19)
(0.746038 0.0083473 1.8498e-19)
(0.75231 -0.00335235 1.74141e-19)
(0.759883 -0.0156696 1.5369e-19)
(0.768172 -0.0287204 -4.61943e-19)
(0.77695 -0.0425758 -2.72232e-19)
(0.786226 -0.0571151 -5.01463e-20)
(0.795973 -0.0721963 8.16779e-19)
(0.806096 -0.0876813 8.70638e-21)
(0.816484 -0.103419 -7.46519e-19)
(0.827035 -0.119246 2.6224e-19)
(0.837653 -0.134984 -1.66422e-20)
(0.848237 -0.150446 1.50736e-19)
(0.858686 -0.165434 7.82309e-20)
(0.868893 -0.179755 -1.30825e-19)
(0.878758 -0.193222 2.93815e-19)
(0.888193 -0.205647 -2.65145e-21)
(0.897118 -0.216848 -5.19703e-19)
(0.905464 -0.226657 2.457e-19)
(0.913126 -0.234955 1.05689e-19)
(0.919978 -0.241657 -2.17681e-20)
(0.925947 -0.246674 -4.72186e-20)
(0.930998 -0.249986 4.38277e-20)
(0.935142 -0.251649 6.84095e-20)
(0.938441 -0.251741 -2.68578e-19)
(0.940974 -0.25035 2.01914e-19)
(0.942816 -0.247591 -1.11149e-19)
(0.944047 -0.243604 -1.9749e-20)
(0.968559 0.0456801 1.74333e-19)
(0.965762 0.0375268 -4.33535e-19)
(0.966927 0.0307712 -2.62943e-21)
(0.967126 0.0214235 4.21626e-19)
(0.967368 0.00980819 -1.19107e-19)
(0.969377 -0.0023407 -2.9535e-19)
(0.972944 -0.0147837 5.12966e-20)
(0.977313 -0.0280335 1.10856e-19)
(0.982209 -0.0420546 -1.35687e-19)
(0.9876 -0.0566706 2.15346e-19)
(0.993406 -0.071791 1.16107e-19)
(0.999502 -0.0872873 9.68087e-20)
(1.00573 -0.103011 -2.61478e-19)
(1.01195 -0.118812 9.04504e-20)
(1.01802 -0.134519 6.13588e-21)
(1.0238 -0.149941 -3.08417e-19)
(1.02918 -0.164881 4.04904e-19)
(1.03402 -0.179141 -3.06448e-19)
(1.03822 -0.192527 1.74896e-19)
(1.04169 -0.204855 -1.82811e-19)
(1.04434 -0.215961 1.18675e-19)
(1.04613 -0.225702 -8.15048e-20)
(1.04704 -0.233969 -7.84799e-21)
(1.04707 -0.240651 -1.36192e-19)
(1.04623 -0.245683 4.71623e-20)
(1.04447 -0.249058 1.85508e-19)
(1.04179 -0.250824 6.33299e-20)
(1.03834 -0.251042 -1.39766e-19)
(1.03426 -0.249796 8.62492e-20)
(1.02971 -0.247205 -5.12517e-20)
(1.02482 -0.243417 6.31381e-20)
(1.0197 -0.238595 -4.5693e-20)
(1.15702 0.057726 6.68986e-21)
(1.15305 0.0497958 2.38354e-19)
(1.15156 0.0426095 2.13281e-19)
(1.14839 0.0316004 -6.05477e-19)
(1.14571 0.0189346 2.10456e-19)
(1.14502 0.00635576 2.4191e-19)
(1.14536 -0.00676708 5.52221e-20)
(1.14613 -0.0208998 1.66717e-19)
(1.14735 -0.0354967 -3.85674e-19)
(1.14886 -0.0505116 -2.16268e-19)
(1.15053 -0.0659082 4.36352e-19)
(1.15229 -0.0814918 -1.68753e-19)
(1.15399 -0.0971241 -4.04639e-19)
(1.15547 -0.112692 5.29687e-19)
(1.1566 -0.128045 -2.97357e-19)
(1.15725 -0.143011 1.2646e-19)
(1.1573 -0.157422 2.86119e-19)
(1.15665 -0.171107 -3.15131e-19)
(1.1552 -0.183903 -3.57871e-19)
(1.15288 -0.195652 3.50185e-20)
(1.14967 -0.206212 3.77782e-19)
(1.14554 -0.215459 2.62895e-19)
(1.14052 -0.223303 -2.63559e-19)
(1.13466 -0.229686 -2.3453e-19)
(1.12806 -0.234595 1.40228e-19)
(1.12078 -0.238058 1.37331e-19)
(1.11285 -0.240118 5.27067e-20)
(1.10441 -0.240798 -1.10303e-19)
(1.09564 -0.240145 1.04482e-19)
(1.08669 -0.238244 -1.94981e-19)
(1.0777 -0.235214 5.11278e-20)
(1.06879 -0.231208 -4.47061e-20)
(1.26019 0.0690262 -3.92414e-19)
(1.25973 0.0638693 5.73539e-19)
(1.25861 0.056675 -7.04592e-20)
(1.25536 0.0456779 -3.09959e-19)
(1.25295 0.0341312 4.65652e-19)
(1.25189 0.0225349 -6.05057e-19)
(1.25118 0.0100764 -1.93501e-19)
(1.25085 -0.00294885 -1.69268e-19)
(1.25082 -0.016486 4.86239e-19)
(1.2506 -0.0309136 -3.01463e-19)
(1.25016 -0.0459573 4.07136e-19)
(1.24951 -0.061302 1.8079e-19)
(1.24848 -0.0768272 -2.50268e-19)
(1.2469 -0.0924104 -4.4838e-19)
(1.2447 -0.10788 5.24445e-19)
(1.24178 -0.123056 1.07125e-19)
(1.23807 -0.137765 -1.11871e-19)
(1.2335 -0.151835 -2.05936e-19)
(1.22803 -0.165101 3.8818e-19)
(1.22164 -0.177408 -4.50224e-19)
(1.21435 -0.188617 4.53572e-19)
(1.20619 -0.198613 -1.20048e-19)
(1.19722 -0.20731 -2.95805e-19)
(1.18756 -0.214655 -6.48783e-20)
(1.1773 -0.220626 3.88497e-19)
(1.16658 -0.225245 1.21831e-20)
(1.15555 -0.228514 -1.70988e-19)
(1.14436 -0.230445 2.04909e-20)
(1.13316 -0.231083 -1.6762e-19)
(1.12207 -0.23051 7.55052e-21)
(1.11118 -0.228849 1.31362e-19)
(1.10056 -0.226222 1.72481e-20)
(1.09032 -0.22272 -8.1015e-20)
(1.30902 0.086138 0)
(1.31456 0.0753399 0)
(1.31434 0.0648622 0)
(1.31211 0.0541784 0)
(1.31042 0.0430811 0)
(1.30969 0.0313811 0)
(1.30938 0.0192068 0)
(1.30884 0.00689608 0)
(1.3075 -0.00571974 0)
(1.30566 -0.0185522 0)
(1.30363 -0.0315051 0)
(1.30126 -0.0445636 0)
(1.29834 -0.0576641 0)
(1.2947 -0.0706884 0)
(1.29029 -0.0835143 0)
(1.2851 -0.0960297 0)
(1.27909 -0.108126 0)
(1.27227 -0.119697 0)
(1.26464 -0.130639 0)
(1.25626 -0.140858 0)
(1.24716 -0.150269 0)
(1.23742 -0.158802 0)
(1.22713 -0.166403 0)
(1.21638 -0.173031 0)
(1.20529 -0.178664 0)
(1.19396 -0.183296 0)
(1.1825 -0.186932 0)
(1.17101 -0.189601 0)
(1.15958 -0.19134 0)
(1.14829 -0.192203 1.21395e-27)
(1.13724 -0.192249 -1.21394e-27)
(1.12649 -0.191515 0)
(1.1161 -0.190048 0)
(1.29787 0.0848056 0)
(1.30833 0.0727634 0)
(1.31212 0.0614791 0)
(1.31215 0.0504931 0)
(1.31149 0.0393001 0)
(1.31131 0.0276871 0)
(1.31151 0.0157129 0)
(1.3116 0.00347048 0)
(1.31133 -0.00883471 0)
(1.31049 -0.0211069 0)
(1.30882 -0.0334117 0)
(1.30629 -0.0457859 0)
(1.30299 -0.0581825 0)
(1.29894 -0.0705045 0)
(1.29411 -0.0826418 0)
(1.28848 -0.0944881 0)
(1.28208 -0.105942 0)
(1.27492 -0.116906 0)
(1.26704 -0.127285 0)
(1.25851 -0.136987 0)
(1.24938 -0.145932 0)
(1.23972 -0.154052 0)
(1.22963 -0.16129 0)
(1.21918 -0.167608 0)
(1.20847 -0.172979 0)
(1.19758 -0.177396 0)
(1.18661 -0.180864 0)
(1.17563 -0.1834 0)
(1.16472 -0.185032 0)
(1.15397 -0.185795 3.64795e-27)
(1.14344 -0.185734 -3.64795e-27)
(1.1332 -0.184903 0)
(1.12328 -0.183361 0)
(1.2814 0.0793681 0)
(1.29233 0.0686414 0)
(1.29703 0.057862 0)
(1.29778 0.0472854 0)
(1.29754 0.0367999 0)
(1.29768 0.0262851 0)
(1.29822 0.0156705 0)
(1.29864 0.004957 0)
(1.29845 -0.00586567 0)
(1.29743 -0.0168492 0)
(1.29567 -0.0279344 0)
(1.29323 -0.0390154 0)
(1.29013 -0.0500059 0)
(1.28634 -0.0608343 0)
(1.28186 -0.0714252 0)
(1.27668 -0.0816997 0)
(1.2708 -0.0915807 0)
(1.26426 -0.100995 0)
(1.25709 -0.109875 0)
(1.24935 -0.118158 0)
(1.24109 -0.125791 0)
(1.23237 -0.132732 0)
(1.22326 -0.138947 0)
(1.21383 -0.144413 0)
(1.20415 -0.149121 0)
(1.1943 -0.153067 0)
(1.18436 -0.156259 0)
(1.1744 -0.158712 0)
(1.16448 -0.160449 0)
(1.15467 -0.161499 1.14012e-27)
(1.14503 -0.161899 -1.14012e-27)
(1.13561 -0.161689 0)
(1.12645 -0.160913 0)
(1.2643 0.0743714 0)
(1.27428 0.0646167 0)
(1.27902 0.0545619 0)
(1.28019 0.0446139 0)
(1.28026 0.0348275 0)
(1.28046 0.0250796 0)
(1.28089 0.0152586 0)
(1.28113 0.00531209 0)
(1.28084 -0.00474173 0)
(1.27988 -0.0148123 0)
(1.27827 -0.0248415 0)
(1.27604 -0.0347907 0)
(1.2732 -0.0446195 0)
(1.26977 -0.05428 0)
(1.26572 -0.0637191 0)
(1.26106 -0.0728801 0)
(1.2558 -0.0817059 0)
(1.24996 -0.0901409 0)
(1.24357 -0.0981331 0)
(1.23669 -0.105635 0)
(1.22935 -0.112605 0)
(1.22161 -0.119005 0)
(1.21353 -0.124806 0)
(1.20516 -0.129986 0)
(1.19658 -0.134528 0)
(1.18783 -0.138425 0)
(1.17899 -0.141674 0)
(1.17012 -0.144281 0)
(1.16127 -0.14626 0)
(1.1525 -0.147627 0)
(1.14386 -0.148407 0)
(1.13538 -0.148628 0)
(1.12712 -0.148323 0)
(1.24725 0.0688079 0)
(1.25639 0.0599467 0)
(1.26099 0.0507693 0)
(1.26239 0.0416159 0)
(1.26266 0.0325738 0)
(1.2629 0.0235846 0)
(1.26326 0.0145705 0)
(1.26344 0.00550616 0)
(1.26318 -0.00357635 0)
(1.26233 -0.0126393 0)
(1.26088 -0.021647 0)
(1.25885 -0.0305657 0)
(1.25629 -0.0393589 0)
(1.2532 -0.0479875 0)
(1.24958 -0.0564097 0)
(1.24542 -0.0645802 0)
(1.24075 -0.0724524 0)
(1.23558 -0.0799813 0)
(1.22995 -0.0871242 0)
(1.22388 -0.0938419 0)
(1.21743 -0.100099 0)
(1.21062 -0.105865 0)
(1.20352 -0.111116 0)
(1.19617 -0.115831 0)
(1.18861 -0.119997 0)
(1.18091 -0.123609 0)
(1.1731 -0.126664 0)
(1.16525 -0.129168 0)
(1.15739 -0.13113 0)
(1.14958 -0.132566 0)
(1.14185 -0.133494 0)
(1.13424 -0.133939 0)
(1.12679 -0.133927 0)
(1.23155 0.0631432 0)
(1.2399 0.0551965 0)
(1.24425 0.0469165 0)
(1.24572 0.0386022 0)
(1.24612 0.0303581 0)
(1.24642 0.0221669 0)
(1.24679 0.0139841 0)
(1.24697 0.0057907 0)
(1.24674 -0.00240324 0)
(1.24597 -0.0105747 0)
(1.24466 -0.0186902 0)
(1.24284 -0.026714 0)
(1.24054 -0.0346124 0)
(1.23778 -0.0423526 0)
(1.23455 -0.0499 0)
(1.23086 -0.057218 0)
(1.22673 -0.0642695 0)
(1.22217 -0.0710186 0)
(1.2172 -0.0774316 0)
(1.21186 -0.0834772 0)
(1.20618 -0.0891281 0)
(1.2002 -0.0943601 0)
(1.19395 -0.0991538 0)
(1.18747 -0.103494 0)
(1.1808 -0.107369 0)
(1.174 -0.110773 0)
(1.16709 -0.113705 0)
(1.16012 -0.116165 0)
(1.15312 -0.118162 0)
(1.14615 -0.119704 0)
(1.13922 -0.120806 0)
(1.13238 -0.121484 0)
(1.12565 -0.12176 0)
(1.21753 0.0579091 0)
(1.22504 0.0507826 0)
(1.22906 0.0433206 0)
(1.23053 0.0358001 0)
(1.23101 0.0283267 0)
(1.23137 0.0208971 6.62601e-28)
(1.23175 0.0134796 -6.62601e-28)
(1.23194 0.00605806 0)
(1.23174 -0.00135976 0)
(1.23105 -0.00874558 0)
(1.22988 -0.0160688 0)
(1.22826 -0.0232992 0)
(1.22621 -0.0304081 0)
(1.22375 -0.037367 0)
(1.22089 -0.0441473 0)
(1.21762 -0.0507199 0)
(1.21396 -0.0570553 0)
(1.20993 -0.0631251 0)
(1.20555 -0.0689023 0)
(1.20083 -0.0743622 0)
(1.19582 -0.0794827 0)
(1.19054 -0.0842443 0)
(1.18502 -0.0886309 0)
(1.1793 -0.0926293 0)
(1.1734 -0.0962298 0)
(1.16736 -0.0994259 0)
(1.16123 -0.102214 0)
(1.15502 -0.104596 0)
(1.14878 -0.106573 0)
(1.14254 -0.108154 0)
(1.13633 -0.109347 0)
(1.13017 -0.110168 0)
(1.12409 -0.110631 0)
(1.20489 0.0530445 0)
(1.21159 0.0466399 0)
(1.21529 0.0399236 0)
(1.21673 0.0331384 0)
(1.21727 0.0263821 0)
(1.21767 0.019657 -1.04057e-27)
(1.21805 0.0129408 1.04057e-27)
(1.21825 0.00622427 0)
(1.2181 -0.000481606 0)
(1.2175 -0.00715212 0)
(1.21647 -0.0137583 0)
(1.21504 -0.0202747 0)
(1.21323 -0.0266771 0)
(1.21105 -0.0329416 0)
(1.20851 -0.0390443 0)
(1.20561 -0.0449612 0)
(1.20237 -0.0506682 0)
(1.1988 -0.0561422 0)
(1.19492 -0.0613612 0)
(1.19075 -0.0663051 0)
(1.18631 -0.0709555 0)
(1.18164 -0.0752966 0)
(1.17674 -0.0793145 0)
(1.17167 -0.0829981 0)
(1.16643 -0.0863384 0)
(1.16106 -0.0893294 0)
(1.15559 -0.0919675 0)
(1.15005 -0.0942518 0)
(1.14447 -0.0961845 0)
(1.13887 -0.0977703 3.0344e-27)
(1.13327 -0.0990167 -3.0344e-27)
(1.12772 -0.0999343 0)
(1.12221 -0.100536 0)
(1.19339 0.0484909 0)
(1.19939 0.0427452 0)
(1.20277 0.0367133 0)
(1.20417 0.0306054 0)
(1.20474 0.0245112 0)
(1.20517 0.0184384 0)
(1.20557 0.0123717 0)
(1.20578 0.00630622 0)