/*--------------------------------*- C++ -*----------------------------------*\
  =========                 |
  \\      /  F ield         | OpenFOAM: The Open Source CFD Toolbox
   \\    /   O peration     | Website:  https://openfoam.org
    \\  /    A nd           | Version:  7
     \\/     M anipulation  |
\*---------------------------------------------------------------------------*/
FoamFile
{
    version     2.0;
    format      ascii;
    class       volScalarField;
    location    "75";
    object      p;
}
// * * * * * * * * * * * * * * * * * * * * * * * * * * * * * * * * * * * * * //

dimensions      [0 2 -2 0 0 0 0];

internalField   nonuniform List<scalar> 
6000
(
0.678354
0.658739
0.64949
0.63656
0.621078
0.603487
0.584512
0.564803
0.544836
0.524954
0.505397
0.486332
0.467869
0.450079
0.433003
0.41666
0.401057
0.386185
0.372032
0.358578
0.345795
0.333665
0.322183
0.311311
0.300886
0.676188
0.656659
0.64754
0.634765
0.619434
0.601983
0.583134
0.563537
0.543671
0.52388
0.504406
0.485415
0.467019
0.44929
0.432269
0.415977
0.400418
0.385589
0.371474
0.358054
0.345305
0.333204
0.321746
0.310899
0.30051
0.671932
0.652574
0.643711
0.631238
0.616207
0.59903
0.58043
0.561056
0.54139
0.521779
0.502467
0.483622
0.465359
0.447749
0.430837
0.414644
0.399176
0.384429
0.370389
0.357039
0.344352
0.332309
0.320901
0.310102
0.299782
0.6656
0.646498
0.638014
0.625992
0.611406
0.59464
0.576409
0.557367
0.537999
0.518655
0.499585
0.480958
0.462892
0.445461
0.428711
0.412666
0.397332
0.382708
0.36878
0.355532
0.342941
0.330983
0.319648
0.308921
0.298704
0.657217
0.638452
0.63047
0.619044
0.605047
0.588824
0.571083
0.55248
0.533507
0.514518
0.495768
0.47743
0.459625
0.442432
0.425897
0.410047
0.394892
0.38043
0.366651
0.353539
0.341073
0.329228
0.317991
0.307359
0.297279
0.646814
0.628466
0.621104
0.610417
0.59715
0.581601
0.564468
0.546411
0.527928
0.509381
0.491027
0.473049
0.455569
0.438669
0.422402
0.406795
0.391861
0.377601
0.364006
0.351064
0.338754
0.32705
0.315933
0.30542
0.295507
0.634427
0.616575
0.60995
0.600139
0.587742
0.572995
0.556586
0.539179
0.521279
0.503257
0.485377
0.467826
0.450733
0.434184
0.418235
0.402918
0.388248
0.374228
0.360853
0.348112
0.335988
0.324452
0.31348
0.303106
0.293391
0.620105
0.602824
0.597045
0.588246
0.576852
0.563033
0.547461
0.530805
0.51358
0.496165
0.478833
0.461776
0.445131
0.428988
0.413407
0.398425
0.38406
0.370319
0.357198
0.344691
0.332782
0.32144
0.310636
0.300423
0.290935
0.603899
0.587262
0.582436
0.574777
0.564517
0.551746
0.53712
0.521315
0.504854
0.488126
0.471414
0.454917
0.438778
0.423094
0.407931
0.393328
0.379309
0.365884
0.353051
0.340808
0.329143
0.318022
0.307408
0.297377
0.288143
0.58587
0.569946
0.566173
0.559778
0.550777
0.539171
0.525598
0.510738
0.495127
0.479164
0.463141
0.447267
0.431693
0.41652
0.401821
0.387641
0.374007
0.360933
0.348421
0.336473
0.325079
0.314204
0.303803
0.293973
0.285018
0.566085
0.55094
0.548313
0.543298
0.535675
0.525347
0.512929
0.499106
0.484428
0.469304
0.454039
0.438849
0.423894
0.409283
0.395094
0.381378
0.368168
0.355479
0.34332
0.331695
0.3206
0.309996
0.29983
0.29022
0.281567
0.544618
0.530313
0.528918
0.525393
0.519263
0.510319
0.499153
0.486456
0.472789
0.458576
0.444132
0.429686
0.415403
0.401402
0.387767
0.374555
0.361804
0.349535
0.33776
0.326486
0.315715
0.305407
0.295496
0.286124
0.277794
0.52155
0.508141
0.508058
0.506125
0.501592
0.494134
0.484313
0.472825
0.460245
0.447012
0.433451
0.419803
0.406243
0.392898
0.379859
0.36719
0.354934
0.343116
0.331753
0.320858
0.310436
0.300447
0.290813
0.281694
0.273706
0.496965
0.484505
0.485805
0.485557
0.482722
0.476844
0.468455
0.458255
0.446834
0.434644
0.422025
0.409228
0.396439
0.383794
0.371391
0.359301
0.347572
0.336237
0.325315
0.314824
0.304775
0.295126
0.285789
0.276939
0.269309
0.470958
0.459493
0.462237
0.46376
0.462713
0.458504
0.451629
0.442791
0.432595
0.421509
0.409887
0.397991
0.386019
0.374115
0.362385
0.350909
0.339739
0.328915
0.318459
0.308397
0.298744
0.289457
0.280435
0.271869
0.264612
0.443625
0.433198
0.437439
0.440807
0.441632
0.439173
0.433887
0.42648
0.417572
0.407646
0.397071
0.386123
0.37501
0.363885
0.352865
0.342034
0.331453
0.321167
0.311204
0.301592
0.292356
0.283452
0.274764
0.266495
0.259623
0.41507
0.405717
0.411499
0.416776
0.419547
0.418912
0.415284
0.409371
0.401807
0.393094
0.383615
0.373657
0.363442
0.353133
0.342854
0.332699
0.322735
0.313012
0.303564
0.294425
0.285625
0.277123
0.268786
0.260826
0.254349
0.3854
0.377151
0.384508
0.391749
0.396531
0.397786
0.395878
0.391517
0.38535
0.377897
0.369555
0.360628
0.351347
0.341886
0.33238
0.322928
0.313606
0.30447
0.295559
0.286912
0.278567
0.270483
0.262515
0.254874
0.248801
0.354727
0.347609
0.356562
0.365811
0.372659
0.375862
0.37573
0.372971
0.368247
0.362097
0.354932
0.347071
0.338756
0.330174
0.321467
0.312744
0.304088
0.29556
0.287206
0.27907
0.271196
0.263548
0.255963
0.248651
0.242987
0.323167
0.317199
0.327762
0.339051
0.34801
0.35321
0.354901
0.353789
0.35055
0.34574
0.339787
0.333023
0.325705
0.318028
0.310146
0.302174
0.294205
0.286305
0.278525
0.270916
0.263529
0.256331
0.249144
0.242168
0.236917
0.29084
0.286036
0.298211
0.31156
0.322664
0.329901
0.333457
0.334029
0.332311
0.328873
0.324162
0.318524
0.312227
0.305479
0.298443
0.291244
0.283979
0.276725
0.269536
0.262468
0.255581
0.248847
0.24207
0.235438
0.230601
0.257868
0.254236
0.268014
0.283433
0.296705
0.30601
0.311462
0.313751
0.313583
0.311545
0.308101
0.303612
0.298358
0.29256
0.286389
0.279979
0.273437
0.266842
0.260259
0.253746
0.247371
0.241112
0.234756
0.228472
0.224049
0.224377
0.221919
0.237281
0.254764
0.270218
0.281612
0.288985
0.293016
0.29442
0.293804
0.291648
0.288327
0.284135
0.279303
0.274013
0.268408
0.262601
0.256681
0.250714
0.244767
0.238914
0.233141
0.227216
0.221283
0.21727
0.190494
0.189207
0.206122
0.225653
0.243289
0.256784
0.266095
0.271884
0.274878
0.2757
0.274848
0.27271
0.269595
0.265743
0.261347
0.256559
0.2515
0.246264
0.240924
0.235552
0.23023
0.224951
0.219464
0.21388
0.210271
0.156348
0.156222
0.17465
0.1962
0.216007
0.231605
0.242862
0.250419
0.255014
0.257286
0.257747
0.256804
0.254775
0.251913
0.248421
0.24446
0.240157
0.235614
0.23091
0.22612
0.221337
0.21656
0.211516
0.206274
0.203057
0.122068
0.123088
0.142978
0.166505
0.188461
0.206154
0.219355
0.228683
0.234884
0.23861
0.240392
0.240649
0.239713
0.237849
0.235268
0.232139
0.228599
0.224757
0.220694
0.216492
0.212253
0.207987
0.20339
0.198475
0.195627
0.0877841
0.0899292
0.111222
0.136671
0.160741
0.180509
0.195646
0.206741
0.214545
0.219726
0.22283
0.224289
0.224448
0.223584
0.221917
0.219626
0.216854
0.213716
0.2103
0.206689
0.202996
0.199251
0.195113
0.190496
0.187969
0.0536273
0.0568708
0.0794965
0.106799
0.132937
0.154752
0.171806
0.184657
0.194055
0.200685
0.205106
0.207765
0.209019
0.209154
0.208402
0.206949
0.204946
0.202516
0.199749
0.196731
0.193584
0.190367
0.186712
0.182359
0.180044
0.0197265
0.0240358
0.0479174
0.0769936
0.105139
0.128962
0.147907
0.162493
0.173472
0.181539
0.187267
0.191119
0.193462
0.194594
0.194755
0.194138
0.192904
0.191181
0.189066
0.186642
0.184034
0.181348
0.178232
0.174165
0.17181
-0.0137907
-0.00845322
0.0165991
0.0473552
0.0774382
0.103219
0.124018
0.140313
0.152851
0.162338
0.169361
0.174394
0.177817
0.179938
0.181005
0.181222
0.180753
0.179735
0.178272
0.176444
0.17437
0.172198
0.169683
0.166037
0.16304
-0.0467977
-0.0404748
-0.0143452
0.0179851
0.0499227
0.0775999
0.100211
0.11818
0.132249
0.143133
0.151432
0.157631
0.162121
0.16522
0.167186
0.168228
0.168519
0.168203
0.16739
0.166161
0.164615
0.162908
0.160995
0.15825
0.154175
-0.079168
-0.0719069
-0.0448053
-0.0110169
0.0226809
0.0521839
0.0765526
0.0961549
0.111722
0.123976
0.133526
0.140871
0.146411
0.150475
0.153327
0.155185
0.156229
0.156607
0.15644
0.155812
0.154805
0.153557
0.152199
0.150443
0.147114
-0.110795
-0.102614
-0.0746774
-0.0395529
-0.00420058
0.0270467
0.0531121
0.0742991
0.0913243
0.104913
0.115687
0.124154
0.130725
0.135735
0.139459
0.142122
0.143908
0.144972
0.145443
0.145416
0.144962
0.144193
0.143352
0.142515
0.140198
-0.141657
-0.132425
-0.103868
-0.0675266
-0.0306372
0.00226261
0.0299551
0.0526715
0.0711088
0.085995
0.0979595
0.10752
0.115096
0.121033
0.125612
0.129063
0.131579
0.13332
0.13442
0.134987
0.13509
0.134817
0.134447
0.134295
0.132868
-0.171565
-0.16131
-0.132303
-0.0948424
-0.0565472
-0.0220959
0.00714606
0.0313296
0.0511274
0.067267
0.0803848
0.0910066
0.0995618
0.106401
0.111814
0.116037
0.119268
0.121671
0.123389
0.124538
0.12519
0.125415
0.125492
0.125854
0.12509
-0.20037
-0.189107
-0.159958
-0.121407
-0.0818514
-0.0459589
-0.0152527
0.010329
0.0314302
0.0487747
0.0630041
0.0746517
0.0841543
0.0918697
0.0980927
0.103067
0.106995
0.110047
0.112369
0.114083
0.11527
0.115987
0.116504
0.11731
0.117047
-0.227979
-0.215781
-0.186623
-0.147144
-0.106472
-0.0692581
-0.0371813
-0.0102764
0.0120655
0.0305616
0.0458569
0.0584909
0.0689066
0.0774682
0.084476
0.090179
0.0947848
0.0984673
0.101376
0.10364
0.105345
0.106543
0.107492
0.108708
0.10889
-0.254312
-0.241294
-0.212034
-0.172069
-0.13033
-0.0919286
-0.0585823
-0.0304355
-0.00692064
0.0126695
0.0289812
0.0425585
0.0538501
0.0632254
0.0709896
0.0773964
0.0826576
0.086951
0.0904294
0.0932258
0.0954316
0.0970954
0.0984616
0.10006
0.100667
-0.279286
-0.26555
-0.23622
-0.196016
-0.153349
-0.113909
-0.0794004
-0.0500992
-0.0254843
-0.00486191
0.0124128
0.0268874
0.0390148
0.0491686
0.0576584
0.0647419
0.0706346
0.0755175
0.079546
0.0828567
0.0855455
0.0876598
0.0894274
0.0913819
0.0923934
-0.302831
-0.288456
-0.259187
-0.218742
-0.175565
-0.135141
-0.0995829
-0.0692214
-0.0435839
-0.0219951
-0.00381392
0.0115087
0.0244289
0.0353239
0.0445064
0.0522376
0.0587359
0.0641853
0.0687433
0.0725488
0.0757025
0.0782515
0.080406
0.0826943
0.0840915
-0.324891
-0.309932
-0.280869
-0.24034
-0.196789
-0.155558
-0.119082
-0.0877589
-0.0611806
-0.0386949
-0.019667
-0.00354827
0.0101195
0.0217158
0.0315562
0.0399042
0.0469808
0.0529722
0.0580377
0.062318
0.0659179
0.068886
0.0714138
0.0740195
0.0757882
-0.345417
-0.329917
-0.301187
-0.260774
-0.216944
-0.175128
-0.137852
-0.105671
-0.0782382
-0.0549285
-0.0351166
-0.0182561
-0.00388846
0.00836758
0.0188291
0.0277615
0.0353876
0.0418954
0.0474454
0.0521796
0.0562069
0.059578
0.0624663
0.0653755
0.0675051
-0.364362
-0.348366
-0.320082
-0.279972
-0.236036
-0.193785
-0.155849
-0.12292
-0.0947237
-0.0706658
-0.0501351
-0.0325896
-0.0175715
-0.00469926
0.00634519
0.0158281
0.0239736
0.030971
0.0369817
0.0421486
0.0465839
0.0503415
0.0535774
0.0567776
0.0592574
-0.38169
-0.365242
-0.33751
-0.297876
-0.254024
-0.211494
-0.17304
-0.139473
-0.110607
-0.0858794
-0.0646972
-0.0465252
-0.0309082
-0.0174648
-0.00587704
0.0041213
0.0127552
0.0202145
0.0266613
0.0322388
0.0370625
0.0411898
0.04476
0.0482392
0.0510577
-0.397376
-0.380519
-0.353439
-0.314444
-0.270865
-0.228222
-0.189392
-0.155305
-0.12586
-0.100545
-0.0787803
-0.060042
-0.0438792
-0.0299107
-0.0178204
-0.00734284
0.00174722
0.00964
0.0164976
0.0224633
0.0276553
0.0321348
0.0360256
0.0397719
0.0429174
-0.411405
-0.394182
-0.367846
-0.329645
-0.28652
-0.243937
-0.204875
-0.17039
-0.140461
-0.114639
-0.0923639
-0.0731205
-0.0564673
-0.0420204
-0.0294695
-0.0185497
-0.0090363
-0.000739266
0.00650326
0.0128342
0.0183738
0.0231876
0.0273849
0.0313863
0.0348465
-0.423774
-0.406227
-0.380715
-0.343453
-0.300963
-0.258613
-0.219465
-0.184703
-0.154396
-0.128146
-0.10543
-0.0857437
-0.0686574
-0.053779
-0.0408101
-0.029486
-0.0195828
-0.0109113
-0.00331022
0.00336258
0.00922892
0.0143584
0.0188473
0.0230916
0.0268535
-0.434492
-0.416662
-0.392042
-0.355853
-0.314173
-0.272227
-0.233142
-0.198224
-0.167641
-0.141054
-0.117969
-0.0978943
-0.0804366
-0.0651729
-0.05183
-0.0401401
-0.0298809
-0.0208651
-0.0129324
-0.00594154
0.000230156
0.00565622
0.010421
0.0148956
0.0189464
-0.443578
-0.425509
-0.401832
-0.36684
-0.326135
-0.284763
-0.24589
-0.210939
-0.180183
-0.153344
-0.129968
-0.109583
-0.0917789
-0.0761903
-0.0625186
-0.0505016
-0.0399206
-0.0305912
-0.022354
-0.0150692
-0.00861375
-0.00291059
0.00211318
0.00680446
0.0111326
-0.451063
-0.432798
-0.410104
-0.376414
-0.336843
-0.296211
-0.257699
-0.222841
-0.192013
-0.165008
-0.141413
-0.120778
-0.102698
-0.0868272
-0.0728653
-0.0605617
-0.0496929
-0.0400811
-0.0315666
-0.0240123
-0.0172952
-0.0113344
-0.00606973
-0.00117788
0.00341969
-0.456987
-0.438572
-0.416886
-0.384589
-0.346298
-0.306565
-0.268561
-0.233921
-0.203124
-0.176039
-0.152296
-0.131474
-0.11318
-0.0970761
-0.0828697
-0.0703121
-0.05919
-0.0493277
-0.0405631
-0.0327639
-0.0258075
-0.0196081
-0.014121
-0.00905092
-0.00418607
-0.461404
-0.442883
-0.422217
-0.391387
-0.354505
-0.315825
-0.278475
-0.244177
-0.213515
-0.186435
-0.162617
-0.141669
-0.123216
-0.106928
-0.092521
-0.0797506
-0.0684107
-0.0583242
-0.0493368
-0.0413179
-0.0341453
-0.0277259
-0.0220321
-0.0168148
-0.011684
-0.464374
-0.445796
-0.426147
-0.396838
-0.361483
-0.323999
-0.287443
-0.253609
-0.223184
-0.196196
-0.172375
-0.151363
-0.132804
-0.11638
-0.101815
-0.0888708
-0.0773467
-0.0670681
-0.0578858
-0.0496704
-0.0423025
-0.0356848
-0.0297945
-0.0244612
-0.0190965
-0.465968
-0.447381
-0.428736
-0.400985
-0.367253
-0.331097
-0.295471
-0.262223
-0.232136
-0.205323
-0.181571
-0.160556
-0.141944
-0.125431
-0.110749
-0.0976694
-0.0859944
-0.0755547
-0.0662042
-0.0578165
-0.0502769
-0.0434866
-0.0374105
-0.0319434
-0.0264905
-0.466264
-0.447719
-0.430054
-0.403876
-0.371847
-0.337139
-0.302571
-0.270026
-0.240377
-0.213821
-0.190207
-0.16925
-0.150638
-0.134082
-0.119325
-0.106146
-0.0943525
-0.0837811
-0.0742888
-0.0657526
-0.0580625
-0.0511196
-0.0448777
-0.0392689
-0.0339116
-0.465349
-0.446898
-0.430179
-0.405572
-0.375304
-0.342147
-0.308757
-0.277028
-0.247915
-0.221699
-0.198292
-0.17745
-0.158889
-0.142335
-0.127543
-0.1143
-0.102421
-0.0917465
-0.0821382
-0.0734766
-0.0656557
-0.0585793
-0.0521943
-0.0464488
-0.0410682
-0.463314
-0.44501
-0.429196
-0.40614
-0.377669
-0.346152
-0.314051
-0.283246
-0.254763
-0.228965
-0.205832
-0.185162
-0.166702
-0.150193
-0.135406
-0.122134
-0.1102
-0.0994512
-0.0897522
-0.0809874
-0.073055
-0.0658621
-0.0593501
-0.0534649
-0.047966
-0.460256
-0.442153
-0.427199
-0.405656
-0.378997
-0.349189
-0.318474
-0.288696
-0.260935
-0.235633
-0.212838
-0.192396
-0.174083
-0.157663
-0.142917
-0.129651
-0.117693
-0.106896
-0.0971313
-0.0882853
-0.08026
-0.0729656
-0.0663397
-0.0603233
-0.0546893
-0.456276
-0.43843
-0.424284
-0.404201
-0.379348
-0.351299
-0.322057
-0.293399
-0.266447
-0.241716
-0.219322
-0.199162
-0.181043
-0.164752
-0.150084
-0.136855
-0.124902
-0.114085
-0.104277
-0.0953713
-0.0872718
-0.0798915
-0.0731662
-0.0670379
-0.0612848
-0.451476
-0.433941
-0.420552
-0.401864
-0.378789
-0.352529
-0.32483
-0.297378
-0.271318
-0.247231
-0.225299
-0.205471
-0.18759
-0.171467
-0.156912
-0.143752
-0.131833
-0.12102
-0.111193
-0.102248
-0.094093
-0.0866435
-0.079835
-0.0736152
-0.0677644
-0.44596
-0.428792
-0.416107
-0.398739
-0.377393
-0.352931
-0.326829
-0.30066
-0.275569
-0.252195
-0.230783
-0.211337
-0.193737
-0.177819
-0.163409
-0.150348
-0.13849
-0.127706
-0.117882
-0.108919
-0.100727
-0.0932256
-0.0863505
-0.080057
-0.0741294
-0.439831
-0.423084
-0.411053
-0.394921
-0.37524
-0.352561
-0.328095
-0.303273
-0.279222
-0.256626
-0.235792
-0.216775
-0.199497
-0.183818
-0.169586
-0.156652
-0.14488
-0.134149
-0.12435
-0.115387
-0.107177
-0.0996413
-0.0927157
-0.0863645
-0.0803824
-0.433191
-0.416916
-0.405493
-0.390509
-0.37241
-0.351483
-0.32867
-0.305248
-0.282302
-0.260546
-0.240342
-0.221801
-0.204882
-0.189478
-0.175453
-0.162673
-0.151012
-0.140355
-0.130601
-0.121659
-0.113448
-0.105894
-0.0989335
-0.0925393
-0.0865252
-0.426139
-0.410385
-0.399526
-0.385601
-0.36899
-0.349761
-0.328603
-0.306618
-0.284832
-0.263974
-0.244453
-0.22643
-0.209909
-0.19481
-0.18102
-0.16842
-0.156892
-0.146332
-0.136643
-0.127739
-0.119544
-0.111988
-0.105007
-0.0985822
-0.0925546
-0.418769
-0.403583
-0.39325
-0.380295
-0.365069
-0.347466
-0.327943
-0.307421
-0.286841
-0.266932
-0.248142
-0.23068
-0.214591
-0.199828
-0.186301
-0.173904
-0.162532
-0.152088
-0.142481
-0.133633
-0.125469
-0.117926
-0.11094
-0.104495
-0.0984677
-0.411171
-0.396594
-0.386754
-0.374684
-0.360733
-0.34467
-0.326745
-0.307693
-0.288356
-0.269443
-0.251429
-0.234568
-0.218945
-0.204547
-0.191307
-0.179136
-0.16794
-0.15763
-0.148124
-0.139347
-0.13123
-0.123713
-0.116735
-0.110279
-0.104264
-0.403429
-0.389499
-0.380124
-0.368858
-0.35607
-0.341448
-0.325065
-0.307475
-0.289406
-0.271528
-0.254333
-0.238111
-0.222987
-0.208982
-0.196052
-0.184128
-0.173127
-0.162969
-0.15358
-0.144888
-0.136832
-0.129354
-0.122397
-0.115938
-0.109946
-0.39562
-0.382369
-0.373437
-0.362901
-0.351165
-0.337876
-0.322963
-0.306811
-0.290021
-0.273211
-0.256873
-0.241326
-0.226733
-0.213147
-0.20055
-0.188892
-0.178104
-0.168115
-0.158857
-0.150265
-0.142282
-0.134855
-0.12793
-0.121478
-0.115517
-0.387815
-0.375268
-0.366761
-0.356891
-0.3461
-0.334028
-0.3205
-0.305744
-0.290233
-0.274515
-0.259068
-0.244229
-0.230197
-0.217056
-0.204814
-0.193441
-0.182882
-0.173076
-0.163963
-0.155485
-0.147586
-0.140222
-0.13334
-0.126901
-0.12098
-0.380075
-0.368253
-0.360159
-0.350895
-0.340949
-0.329979
-0.317739
-0.304323
-0.290076
-0.275463
-0.260935
-0.246838
-0.233396
-0.220724
-0.208858
-0.197787
-0.187473
-0.177865
-0.168909
-0.160555
-0.152753
-0.14546
-0.138631
-0.132215
-0.126339
-0.372458
-0.361374
-0.353683
-0.344976
-0.335783
-0.325799
-0.314741
-0.302595
-0.289583
-0.27608
-0.262492
-0.249165
-0.236342
-0.224164
-0.212695
-0.201944
-0.191889
-0.18249
-0.173705
-0.165486
-0.15779
-0.150577
-0.143811
-0.137423
-0.1316
-0.365009
-0.35467
-0.347376
-0.339184
-0.330661
-0.321554
-0.31157
-0.300612
-0.288792
-0.27639
-0.263759
-0.251227
-0.239048
-0.227389
-0.216337
-0.205923
-0.196141
-0.186965
-0.17836
-0.170286
-0.162705
-0.155581
-0.148886
-0.142532
-0.136765
-0.35777
-0.348177
-0.341275
-0.333563
-0.325637
-0.317305
-0.308284
-0.298423
-0.287739
-0.276419
-0.264751
-0.253035
-0.241528
-0.230411
-0.219797
-0.209736
-0.200241
-0.191299
-0.182884
-0.174965
-0.167507
-0.160478
-0.153861
-0.147548
-0.141842
-0.350774
-0.341921
-0.335406
-0.328147
-0.320757
-0.313105
-0.30494
-0.296079
-0.286464
-0.276195
-0.265486
-0.254603
-0.24379
-0.23324
-0.223084
-0.213394
-0.204201
-0.195504
-0.187289
-0.179532
-0.172205
-0.165276
-0.158745
-0.152478
-0.146834
-0.344048
-0.335922
-0.329792
-0.322962
-0.316055
-0.309002
-0.301591
-0.293631
-0.285008
-0.275745
-0.265984
-0.255942
-0.245844
-0.235885
-0.226209
-0.216908
-0.208029
-0.199589
-0.191584
-0.183996
-0.176807
-0.169985
-0.163544
-0.157327
-0.15175
-0.337611
-0.330195
-0.324447
-0.318026
-0.311559
-0.305034
-0.298284
-0.291124
-0.283411
-0.275099
-0.266264
-0.257064
-0.247697
-0.238351
-0.229178
-0.220285
-0.211737
-0.203566
-0.195779
-0.188368
-0.181323
-0.174613
-0.168266
-0.162105
-0.156593
-0.331478
-0.324751
-0.319378
-0.313352
-0.30729
-0.301232
-0.295058
-0.288605
-0.281713
-0.27429
-0.266345
-0.257982
-0.249357
-0.240644
-0.231997
-0.223533
-0.215332
-0.207443
-0.199884
-0.192658
-0.185763
-0.179168
-0.17292
-0.166816
-0.161372
-0.32566
-0.319593
-0.31459
-0.308945
-0.30326
-0.297618
-0.291947
-0.286113
-0.279955
-0.273349
-0.266251
-0.258707
-0.250831
-0.242769
-0.234668
-0.226655
-0.218821
-0.211227
-0.203907
-0.196874
-0.190135
-0.18366
-0.177514
-0.171471
-0.166092
-0.320161
-0.314724
-0.310083
-0.304807
-0.299475
-0.294208
-0.288977
-0.283682
-0.278173
-0.272309
-0.266005
-0.259254
-0.252123
-0.244725
-0.237194
-0.229654
-0.222207
-0.214925
-0.207858
-0.201026
-0.194449
-0.188097
-0.182056
-0.176075
-0.170761
-0.314984
-0.310142
-0.305853
-0.300933
-0.295937
-0.291011
-0.286169
-0.281343
-0.276402
-0.271203
-0.265633
-0.259639
-0.253241
-0.246516
-0.239573
-0.23253
-0.225492
-0.218542
-0.21174
-0.20512
-0.198713
-0.192489
-0.186555
-0.180638
-0.175385
-0.310126
-0.305843
-0.301893
-0.297319
-0.292641
-0.288032
-0.283536
-0.279118
-0.274673
-0.270063
-0.265161
-0.25988
-0.254195
-0.248142
-0.241803
-0.235279
-0.228674
-0.222077
-0.215559
-0.209163
-0.202936
-0.196845
-0.19102
-0.185169
-0.179974
-0.305584
-0.30182
-0.298196
-0.293954
-0.289584
-0.285269
-0.281085
-0.277025
-0.273011
-0.268919
-0.264617
-0.259995
-0.254993
-0.249605
-0.243879
-0.237896
-0.231749
-0.225529
-0.219315
-0.21316
-0.207122
-0.201173
-0.195461
-0.189676
-0.184536
-0.301349
-0.298064
-0.294753
-0.29083
-0.286754
-0.282719
-0.27882
-0.275077
-0.271437
-0.267797
-0.264028
-0.260009
-0.255649
-0.250908
-0.245798
-0.240372
-0.234708
-0.228891
-0.223006
-0.21711
-0.211278
-0.205479
-0.199886
-0.194169
-0.18908
-0.297414
-0.294566
-0.291551
-0.287935
-0.284143
-0.280374
-0.27674
-0.273281
-0.269969
-0.266721
-0.26342
-0.259942
-0.256178
-0.252058
-0.247557
-0.242699
-0.23754
-0.232154
-0.226625
-0.221012
-0.215405
-0.20977
-0.204304
-0.198659
-0.193617
-0.293767
-0.291315
-0.288579
-0.285257
-0.281739
-0.278225
-0.27484
-0.27164
-0.268617
-0.26571
-0.262817
-0.259819
-0.256598
-0.253061
-0.249155
-0.244868
-0.240233
-0.235304
-0.23016
-0.224858
-0.219499
-0.214048
-0.208724
-0.203156
-0.198167
-0.290396
-0.288299
-0.285826
-0.282783
-0.279529
-0.276262
-0.273113
-0.270152
-0.267388
-0.264779
-0.26224
-0.259663
-0.25693
-0.253932
-0.250592
-0.246871
-0.242771
-0.238323
-0.233594
-0.228635
-0.223552
-0.21831
-0.213149
-0.207672
-0.202743
-0.287286
-0.285505
-0.283278
-0.2805
-0.2775
-0.274473
-0.271552
-0.268815
-0.266285
-0.263938
-0.261707
-0.259496
-0.257193
-0.254684
-0.251876
-0.248703
-0.24514
-0.241191
-0.236907
-0.232322
-0.227551
-0.222549
-0.217582
-0.212215
-0.207391
-0.284422
-0.282919
-0.28092
-0.278395
-0.27564
-0.272846
-0.270145
-0.267621
-0.265308
-0.263195
-0.261232
-0.259337
-0.257408
-0.255336
-0.253015
-0.250363
-0.247327
-0.243888
-0.240071
-0.235895
-0.231472
-0.226747
-0.222017
-0.216799
-0.212125
-0.281787
-0.280526
-0.27874
-0.276453
-0.273935
-0.271367
-0.268881
-0.266562
-0.264453
-0.262551
-0.260823
-0.259201
-0.257596
-0.255905
-0.254023
-0.251853
-0.249326
-0.246395
-0.243061
-0.239323
-0.235283
-0.230878
-0.22643
-0.221422
-0.217049
-0.279363
-0.278311
-0.276723
-0.274661
-0.272371
-0.270023
-0.267747
-0.265628
-0.263711
-0.262005
-0.260486
-0.2591
-0.257773
-0.256412
-0.254916
-0.253184
-0.251134
-0.248696
-0.245851
-0.242571
-0.238946
-0.2349
-0.230793
-0.226059
-0.222047
-0.277131
-0.276259
-0.274853
-0.273005
-0.270933
-0.2688
-0.266729
-0.264805
-0.263075
-0.261551
-0.260221
-0.259042
-0.257954
-0.256874
-0.255712
-0.254369
-0.252753
-0.250784
-0.248417
-0.245607
-0.242412
-0.238783
-0.234954
-0.230957
-0.226586
-0.275069
-0.274355
-0.273116
-0.271469
-0.269607
-0.267683
-0.265814
-0.264081
-0.262531
-0.261182
-0.260025
-0.25903
-0.258147
-0.257307
-0.25643
-0.255423
-0.254195
-0.252657
-0.250745
-0.248403
-0.245634
-0.242487
-0.23886
-0.235813
-0.23067
-0.27316
-0.272582
-0.271496
-0.27004
-0.26838
-0.266659
-0.264987
-0.263441
-0.262067
-0.260884
-0.25989
-0.259061
-0.258357
-0.257721
-0.257085
-0.256365
-0.255474
-0.254322
-0.252829
-0.250941
-0.248573
-0.245945
-0.242432
-0.240183
-0.234296
-0.271385
-0.270923
-0.269981
-0.268703
-0.267236
-0.265711
-0.264231
-0.262868
-0.261667
-0.260646
-0.259806
-0.259129
-0.258583
-0.258123
-0.25769
-0.257212
-0.256608
-0.255792
-0.254672
-0.25321
-0.251209
-0.249103
-0.245639
-0.2441
-0.237457
-0.269725
-0.269363
-0.268554
-0.267445
-0.266162
-0.264826
-0.263533
-0.262349
-0.261316
-0.260452
-0.259759
-0.259224
-0.258822
-0.258515
-0.258253
-0.257977
-0.257614
-0.257086
-0.25629
-0.255212
-0.253539
-0.251938
-0.248497
-0.247693
-0.240203
-0.268159
-0.267889
-0.267204
-0.266254
-0.265145
-0.263991
-0.262878
-0.261868
-0.260998
-0.260286
-0.259735
-0.259335
-0.259063
-0.258891
-0.258778
-0.258671
-0.258508
-0.25822
-0.2577
-0.256958
-0.255578
-0.254449
-0.251031
-0.251007
-0.242598
-0.266672
-0.266488
-0.265916
-0.265116
-0.264174
-0.263193
-0.262253
-0.26141
-0.260698
-0.260134
-0.259719
-0.259445
-0.259296
-0.259246
-0.259261
-0.259298
-0.259301
-0.259213
-0.258925
-0.258467
-0.257353
-0.25664
-0.253272
-0.254017
-0.244704
-0.265247
-0.265147
-0.26468
-0.264022
-0.263236
-0.26242
-0.261645
-0.260962
-0.260402
-0.259979
-0.259694
-0.259542
-0.259507
-0.259568
-0.259696
-0.259856
-0.26
-0.260075
-0.259982
-0.259756
-0.258888
-0.258514
-0.255259
-0.25667
-0.246592
-0.263871
-0.263851
-0.26349
-0.262961
-0.262323
-0.261662
-0.261043
-0.260512
-0.260096
-0.259807
-0.259647
-0.259609
-0.259681
-0.259844
-0.260075
-0.260341
-0.260603
-0.260815
-0.260885
-0.260845
-0.260209
-0.260078
-0.257034
-0.258914
-0.248348
-0.262532
-0.262594
-0.262332
-0.261926
-0.261427
-0.260911
-0.260439
-0.26005
-0.25977
-0.259608
-0.259565
-0.259634
-0.259806
-0.260063
-0.260385
-0.260746
-0.261109
-0.261433
-0.261642
-0.261747
-0.261328
-0.261351
-0.258623
-0.260718
-0.26122
-0.26137
-0.261201
-0.260911
-0.26054
-0.26016
-0.259824
-0.259568
-0.259414
-0.25937
-0.259435
-0.259605
-0.259868
-0.260211
-0.260616
-0.261059
-0.261509
-0.261929
-0.262251
-0.262473
-0.262252
-0.262355
-0.260028
-0.262083
-0.259929
-0.260171
-0.26009
-0.259909
-0.259659
-0.259403
-0.259193
-0.25906
-0.259022
-0.259086
-0.259251
-0.259512
-0.259859
-0.26028
-0.260758
-0.261273
-0.261797
-0.262295
-0.262712
-0.263025
-0.262979
-0.263112
-0.261229
-0.263042
-0.258651
-0.258994
-0.258997
-0.258919
-0.258779
-0.258638
-0.258543
-0.258521
-0.258589
-0.258751
-0.259006
-0.259349
-0.25977
-0.260259
-0.260801
-0.261377
-0.261963
-0.262527
-0.263019
-0.263406
-0.263503
-0.263643
-0.262194
-0.257386
-0.257835
-0.257919
-0.257936
-0.257899
-0.257863
-0.257872
-0.257951
-0.258112
-0.258362
-0.258697
-0.259112
-0.259598
-0.260146
-0.260741
-0.261368
-0.262004
-0.262618
-0.263169
-0.263613
-0.263821
-0.263959
-0.262895
-0.256132
-0.256693
-0.256855
-0.256962
-0.257018
-0.257078
-0.25718
-0.257348
-0.257593
-0.257919
-0.258323
-0.2588
-0.259341
-0.259937
-0.260576
-0.261242
-0.261915
-0.262566
-0.263158
-0.263644
-0.263931
-0.264068
-0.263319
-0.25489
-0.25557
-0.255806
-0.255997
-0.256139
-0.256283
-0.256468
-0.256715
-0.257033
-0.257424
-0.257887
-0.258415
-0.259001
-0.259635
-0.260306
-0.261
-0.261698
-0.262372
-0.262989
-0.263501
-0.263839
-0.263978
-0.253664
-0.254466
-0.254774
-0.255043
-0.255263
-0.255483
-0.255741
-0.256055
-0.256435
-0.256883
-0.257393
-0.257963
-0.258582
-0.259244
-0.259937
-0.260647
-0.261357
-0.262042
-0.262668
-0.263192
-0.263554
-0.263699
-0.252457
-0.253386
-0.253762
-0.254104
-0.254394
-0.254681
-0.255002
-0.255375
-0.255807
-0.256299
-0.256849
-0.257449
-0.258093
-0.258772
-0.259476
-0.260192
-0.260902
-0.261583
-0.262206
-0.262727
-0.263099
-0.263251
-0.251277
-0.252334
-0.252775
-0.253185
-0.253537
-0.253884
-0.254259
-0.25468
-0.255155
-0.255683
-0.256261
-0.256883
-0.257541
-0.258228
-0.258933
-0.259644
-0.260344
-0.261011
-0.261617
-0.262125
-0.262493
-0.262652
-0.250131
-0.251316
-0.251818
-0.25229
-0.252698
-0.253096
-0.253517
-0.253978
-0.254486
-0.255042
-0.25564
-0.256275
-0.256939
-0.257625
-0.258322
-0.259018
-0.259697
-0.260341
-0.260921
-0.261405
-0.26176
-0.249026
-0.250337
-0.250897
-0.251425
-0.251884
-0.252325
-0.252784
-0.253277
-0.253812
-0.254386
-0.254996
-0.255636
-0.256299
-0.256975
-0.257656
-0.258329
-0.258979
-0.25959
-0.260135
-0.260589
-0.26092
-0.247972
-0.249405
-0.250018
-0.250598
-0.2511
-0.251578
-0.252069
-0.252587
-0.25314
-0.253726
-0.254342
-0.25498
-0.255633
-0.256293
-0.25695
-0.257592
-0.258207
-0.258777
-0.259281
-0.259697
-0.259999
-0.246977
-0.248527
-0.249189
-0.249815
-0.250355
-0.250864
-0.251379
-0.251916
-0.252481
-0.253073
-0.253687
-0.254317
-0.254955
-0.255592
-0.25622
-0.256826
-0.257398
-0.257921
-0.258378
-0.258749
-0.259016
-0.246052
-0.247711
-0.248417
-0.249083
-0.249655
-0.250189
-0.250723
-0.251274
-0.251845
-0.252437
-0.253045
-0.253661
-0.254279
-0.254888
-0.25548
-0.256044
-0.256568
-0.25704
-0.257443
-0.257765
-0.257991
-0.245205
-0.246962
-0.247707
-0.248408
-0.249008
-0.249562
-0.25011
-0.250668
-0.251241
-0.251829
-0.252425
-0.253024
-0.253616
-0.254193
-0.254745
-0.255263
-0.255735
-0.25615
-0.256496
-0.256761
-0.256939
-0.244444
-0.24629
-0.247068
-0.247799
-0.24842
-0.248989
-0.249547
-0.250108
-0.250679
-0.251258
-0.251839
-0.252416
-0.252979
-0.25352
-0.254029
-0.254497
-0.254913
-0.255267
-0.25555
-0.255754
-0.255875
-0.243777
-0.245699
-0.246505
-0.24726
-0.247898
-0.248478
-0.249041
-0.249601
-0.250166
-0.250733
-0.251296
-0.251847
-0.252379
-0.252881
-0.253344
-0.253759
-0.254116
-0.254405
-0.25462
-0.254756
-0.254811
-0.243212
-0.245195
-0.246024
-0.246798
-0.247448
-0.248034
-0.248598
-0.249155
-0.24971
-0.250261
-0.250803
-0.251327
-0.251825
-0.252286
-0.252701
-0.25306
-0.253355
-0.253576
-0.25372
-0.253781
-0.242754
-0.244784
-0.245629
-0.246416
-0.247073
-0.247662
-0.248224
-0.248773
-0.249316
-0.24985
-0.250368
-0.250863
-0.251325
-0.251743
-0.252108
-0.25241
-0.252641
-0.252792
-0.252859
-0.25284
-0.242408
-0.244469
-0.245325
-0.246119
-0.246779
-0.247367
-0.247922
-0.248462
-0.24899
-0.249504
-0.249998
-0.250461
-0.250886
-0.25126
-0.251574
-0.251817
-0.251982
-0.25206
-0.252047
-0.251942
0.28031
0.258302
0.238426
0.224282
0.21108
0.201647
0.19264
0.186174
0.179916
0.175401
0.171029
0.167892
0.164874
0.162729
0.160705
0.15932
0.158067
0.157304
0.156683
0.156477
0.280022
0.258108
0.238278
0.224176
0.210995
0.201582
0.192586
0.18613
0.17988
0.175372
0.171003
0.167867
0.164852
0.162709
0.160687
0.159303
0.158051
0.157288
0.156668
0.156463
0.279469
0.257738
0.237997
0.223977
0.210836
0.201463
0.192488
0.186051
0.179814
0.175315
0.170954
0.167824
0.164814
0.162673
0.160655
0.159272
0.158023
0.15726
0.156641
0.156436
0.27865
0.257192
0.237585
0.223686
0.210605
0.201289
0.192345
0.185936
0.179719
0.175234
0.170884
0.167761
0.164758
0.162622
0.160608
0.159228
0.157982
0.15722
0.156603
0.156398
0.277567
0.256472
0.23704
0.223302
0.2103
0.20106
0.192157
0.185786
0.179595
0.175129
0.170792
0.167679
0.164686
0.162555
0.160548
0.15917
0.157928
0.157168
0.156553
0.156349
0.276219
0.255577
0.236364