4 	-4.93434 	-1.42792e-17 	1.16282 	0.00010393 	0
4 	-4.80303 	-1.58405e-17 	1.16309 	0.0003146 	0
4 	-4.67172 	-1.79655e-17 	1.16363 	0.000532394 	0
4 	-4.54041 	-1.93099e-17 	1.16443 	0.000762706 	0
4 	-4.4091 	-1.76186e-17 	1.1655 	0.00101042 	0
4 	-4.27779 	-1.69247e-17 	1.16684 	0.00128081 	0
4 	-4.14648 	-1.77487e-17 	1.16842 	0.00157924 	0
4 	-4.01517 	-1.70548e-17 	1.17026 	0.00191124 	0
4 	-3.88385 	-1.40624e-17 	1.17235 	0.00228265 	0
4 	-3.75254 	-1.107e-17 	1.17467 	0.00269959 	0
4 	-3.62123 	-9.59549e-18 	1.17722 	0.00316852 	0
4 	-3.48992 	-8.64139e-18 	1.17998 	0.00369633 	0
4 	-3.35861 	-8.46792e-18 	1.18295 	0.00429041 	0
4 	-3.2273 	-1.30649e-17 	1.18609 	0.0049587 	0
4 	-3.09599 	-1.7662e-17 	1.1894 	0.00570987 	0
4 	-2.96467 	-1.49731e-17 	1.19285 	0.00655333 	0
4 	-2.83336 	-1.67079e-17 	1.1964 	0.00749955 	0
4 	-2.70205 	-2.20421e-17 	1.20004 	0.00856012 	0
4 	-2.57074 	-2.1435e-17 	1.20372 	0.00974791 	0
4 	-2.43943 	-1.72716e-17 	1.20741 	0.0110775 	0
4 	-2.30812 	-1.66211e-17 	1.21109 	0.0125655 	0
4 	-2.17681 	-1.79222e-17 	1.21472 	0.0142318 	0
4 	-2.0455 	-1.99171e-17 	1.21827 	0.0161017 	0
4 	-1.91418 	-2.17386e-17 	1.22158 	0.018213 	0
4 	-1.78287 	-2.1088e-17 	1.22422 	0.0206202 	0
4 	-1.65156 	-2.67693e-17 	1.22497 	0.0233955 	0
4 	-1.52025 	-3.35347e-17 	1.22086 	0.026811 	0
4 	-1.38894 	-3.11928e-17 	1.20541 	0.0306469 	0
4 	-1.25763 	-2.75499e-17 	1.167 	0.0367175 	0
4 	-1.12632 	-2.65524e-17 	1.08948 	0.0402244 	0
4 	-1.03136 	-2.89104e-17 	0.977247 	0.0505931 	-3.32806e-19
4 	-0.98496 	-3.19189e-17 	0.980504 	0.0511853 	3.10274e-19
4 	-0.919509 	-3.33842e-17 	0.843581 	0.0526637 	-3.13814e-19
4 	-0.866575 	-3.52459e-17 	0.680551 	0.0548499 	-1.38614e-19
4 	-0.816426 	-3.76019e-17 	0.682108 	0.0558401 	7.62058e-20
4 	-0.729158 	-3.92097e-17 	0.505112 	0.0556869 	-1.71878e-19
4 	-0.677364 	-4.05925e-17 	0.505734 	0.0565939 	-7.54773e-20
4 	-0.614021 	-4.21252e-17 	0.329112 	0.0553595 	6.84931e-20
4 	-0.506253 	-4.24991e-17 	0.165759 	0.0528119 	-3.56369e-20
4 	-0.44829 	-4.20936e-17 	0.0244892 	0.0495573 	-2.38091e-20
4 	-0.392747 	-3.85971e-17 	0.0232614 	0.0508035 	-3.78436e-21
4 	-0.284325 	-3.7721e-17 	-0.0894878 	0.0475347 	-4.22042e-20
4 	-0.17113 	-4.13156e-17 	-0.167115 	0.0441116 	-4.98495e-20
4 	-0.0571329 	-4.65545e-17 	-0.204215 	0.0402422 	1.92487e-20
4 	0.0571329 	4.49739e-18 	-0.197788 	0.0356534 	-1.9385e-20
4 	0.17113 	-1.48205e-18 	-0.148771 	0.0300241 	5.35269e-20
4 	0.284325 	-6.73455e-18 	-0.0619645 	0.0228399 	4.88357e-20
4 	0.392747 	-8.93432e-18 	0.0555876 	0.0141815 	4.95257e-21
4 	0.44829 	-9.65523e-18 	0.0619532 	0.0111065 	2.90339e-20
4 	0.506253 	-8.67203e-18 	0.203797 	0.00119298 	4.65337e-20
4 	0.614021 	-9.33891e-18 	0.361963 	-0.00919675 	-8.28162e-20
4 	0.677364 	-9.79111e-18 	0.530428 	-0.0189087 	9.18871e-20
4 	0.729158 	-9.14549e-18 	0.537343 	-0.022951 	2.21268e-19
4 	0.816426 	-6.51326e-18 	0.70705 	-0.0305624 	-9.85284e-20
4 	0.866575 	-5.50168e-18 	0.712857 	-0.0350609 	1.82541e-19
4 	0.919509 	-7.71032e-18 	0.871861 	-0.0399897 	4.04084e-19
4 	0.98496 	-1.05902e-17 	1.00921 	-0.0403409 	-3.87703e-19
4 	1.03136 	-1.0921e-17 	1.01098 	-0.0451557 	4.25891e-19
4 	1.12632 	-5.08521e-18 	1.12411 	-0.0416893 	0
4 	1.25763 	-2.27983e-19 	1.20161 	-0.041437 	0
4 	1.38894 	1.94042e-18 	1.23757 	-0.0379881 	0
4 	1.52025 	4.19556e-18 	1.24894 	-0.0349618 	0
4 	1.65156 	4.36903e-18 	1.24866 	-0.0319163 	0
4 	1.78287 	2.63431e-18 	1.24387 	-0.0290687 	0
4 	1.91418 	1.42e-18 	1.23774 	-0.0263918 	0
4 	2.0455 	2.02716e-18 	1.2315 	-0.0238835 	0
4 	2.17681 	2.63431e-18 	1.22551 	-0.0215431 	0
4 	2.30812 	6.53744e-18 	1.21985 	-0.0193675 	0
4 	2.43943 	1.33896e-17 	1.2145 	-0.0173541 	0
4 	2.57074 	1.70325e-17 	1.20942 	-0.0154997 	0
4 	2.70205 	1.90274e-17 	1.20459 	-0.0137992 	0
4 	2.83336 	2.10224e-17 	1.2 	-0.0122461 	0
4 	2.96467 	2.17163e-17 	1.19566 	-0.0108321 	0
4 	3.09599 	2.3928e-17 	1.19157 	-0.00954871 	0
4 	3.2273 	2.86552e-17 	1.18772 	-0.00838679 	0
4 	3.35861 	3.11271e-17 	1.18414 	-0.00733666 	0
4 	3.48992 	3.10838e-17 	1.18082 	-0.00638907 	0
4 	3.62123 	3.4293e-17 	1.17776 	-0.0055346 	0
4 	3.75254 	3.52471e-17 	1.17498 	-0.00476393 	0
4 	3.88385 	3.36859e-17 	1.17246 	-0.00406813 	0
4 	4.01517 	3.34257e-17 	1.17022 	-0.00343835 	0
4 	4.14648 	3.24282e-17 	1.16826 	-0.0028662 	0
4 	4.27779 	3.23848e-17 	1.16657 	-0.00234339 	0
4 	4.4091 	3.08236e-17 	1.16516 	-0.0018618 	0
4 	4.54041 	2.92623e-17 	1.16403 	-0.00141372 	0
4 	4.67172 	2.99562e-17 	1.16319 	-0.000991441 	0
4 	4.80303 	3.01297e-17 	1.16262 	-0.000587648 	0
4 	4.93434 	3.19189e-17 	1.16234 	-0.00019455 	0
