/*--------------------------------*- C++ -*----------------------------------*\
  =========                 |
  \\      /  F ield         | OpenFOAM: The Open Source CFD Toolbox
   \\    /   O peration     | Website:  https://openfoam.org
    \\  /    A nd           | Version:  7
     \\/     M anipulation  |
\*---------------------------------------------------------------------------*/
FoamFile
{
    version     2.0;
    format      ascii;
    class       volScalarField;
    location    "40";
    object      p;
}
// * * * * * * * * * * * * * * * * * * * * * * * * * * * * * * * * * * * * * //

dimensions      [0 2 -2 0 0 0 0];

internalField   nonuniform List<scalar> 
14000
(
-0.238385
-0.241995
-0.243455
-0.245127
-0.246856
-0.248473
-0.249713
-0.2503
-0.25068
-0.248725
-0.239449
-0.242849
-0.24423
-0.245849
-0.247541
-0.249158
-0.250466
-0.250769
-0.251787
-0.248807
-0.241464
-0.244459
-0.245669
-0.247165
-0.248761
-0.250321
-0.251921
-0.251229
-0.254135
-0.248595
-0.244233
-0.246656
-0.247576
-0.248844
-0.250258
-0.251532
-0.253975
-0.250934
-0.257727
-0.247238
-0.247526
-0.249242
-0.249718
-0.2506
-0.251756
-0.252339
-0.256284
-0.249558
-0.260761
-0.245836
-0.251147
-0.252043
-0.251888
-0.252169
-0.252948
-0.252748
-0.257166
-0.248165
-0.262644
-0.244539
-0.254982
-0.254959
-0.253968
-0.253431
-0.25347
-0.252813
-0.256877
-0.246605
-0.260631
-0.245093
-0.259051
-0.257984
-0.255963
-0.254402
-0.253497
-0.252394
-0.254744
-0.246317
-0.25396
-0.244402
-0.263557
-0.261208
-0.25804
-0.255271
-0.253248
-0.251543
-0.251032
-0.245594
-0.2449
-0.238473
-0.268821
-0.26491
-0.260455
-0.256329
-0.253035
-0.250115
-0.246702
-0.241547
-0.234444
-0.227469
-0.275206
-0.269465
-0.263555
-0.257881
-0.252972
-0.248032
-0.241765
-0.234312
-0.223001
-0.212991
-0.283161
-0.275255
-0.267617
-0.260069
-0.252967
-0.245191
-0.235719
-0.224932
-0.211818
-0.199711
-0.293156
-0.282609
-0.272782
-0.262974
-0.252831
-0.241392
-0.228461
-0.214848
-0.200093
-0.186895
-0.305594
-0.291664
-0.279232
-0.266522
-0.252211
-0.236483
-0.220215
-0.20402
-0.188159
-0.174617
-0.320743
-0.302157
-0.287212
-0.270276
-0.250609
-0.230351
-0.210879
-0.19265
-0.176014
-0.161853
-0.338575
-0.313749
-0.296231
-0.273312
-0.247509
-0.222775
-0.200475
-0.180579
-0.163266
-0.148595
-0.357899
-0.326492
-0.304569
-0.274375
-0.242386
-0.213569
-0.188808
-0.167595
-0.149774
-0.134493
-0.376686
-0.340201
-0.310343
-0.272329
-0.234754
-0.202434
-0.175664
-0.153463
-0.135235
-0.119564
-0.392762
-0.3532
-0.312448
-0.266481
-0.224152
-0.189056
-0.160756
-0.137903
-0.119526
-0.103813
-0.40446
-0.362593
-0.31
-0.256435
-0.210201
-0.173089
-0.143798
-0.120675
-0.10245
-0.0872022
-0.410659
-0.365731
-0.30182
-0.241796
-0.192585
-0.154234
-0.124543
-0.101587
-0.0838468
-0.0693359
-0.41038
-0.360697
-0.287038
-0.222138
-0.171038
-0.132258
-0.102832
-0.0805925
-0.0636223
-0.0496564
-0.402454
-0.346433
-0.265136
-0.197099
-0.145348
-0.107057
-0.0786347
-0.0577382
-0.0418034
-0.0281787
-0.385486
-0.322427
-0.235792
-0.16647
-0.115484
-0.0787521
-0.052088
-0.0330561
-0.018184
-0.00597618
-0.358123
-0.288552
-0.198776
-0.13038
-0.081718
-0.0476555
-0.0234298
-0.00638591
0.00699129
0.0169533
-0.319431
-0.244934
-0.154175
-0.0893703
-0.0444248
-0.0137704
0.00729171
0.0219471
0.0332173
0.0404062
-0.269183
-0.191614
-0.103004
-0.0436871
-0.00376849
0.0225055
0.0397747
0.0514202
0.0598164
0.0636482
-0.207814
-0.128479
-0.0466542
0.00598801
0.0397062
0.0607289
0.0736068
0.0814468
0.0859211
0.085681
-0.135867
-0.0577032
0.0141507
0.0586613
0.0852873
0.100386
0.108333
0.111565
0.111034
0.106248
-0.0538283
0.0170671
0.0782831
0.113325
0.13214
0.140819
0.143387
0.141497
0.135736
0.127113
0.0348097
0.094565
0.144179
0.168872
0.179339
0.181222
0.17803
0.170842
0.160558
0.152925
0.126917
0.173166
0.210171
0.224056
0.225887
0.220748
0.211569
0.19924
0.185615
0.177572
0.219136
0.250762
0.274557
0.277557
0.270733
0.258583
0.243581
0.226636
0.210099
0.19963
0.30812
0.325122
0.335647
0.328037
0.312799
0.293857
0.273358
0.252287
0.232972
0.219433
0.390635
0.394033
0.391801
0.374199
0.351091
0.325849
0.300353
0.275548
0.253414
0.236666
0.46385
0.455342
0.441433
0.414801
0.38463
0.35379
0.323938
0.295882
0.271089
0.251254
0.525622
0.506874
0.483057
0.448734
0.412573
0.377015
0.343527
0.312741
0.285609
0.263024
0.573928
0.546955
0.515405
0.475051
0.4342
0.394968
0.358669
0.325754
0.296725
0.271871
0.607102
0.574363
0.537513
0.493014
0.448939
0.407192
0.368977
0.334605
0.304243
0.277757
0.623985
0.588276
0.54873
0.502122
0.456408
0.413382
0.374195
0.339083
0.308034
0.280688
0.623985
0.588276
0.54873
0.502122
0.456408
0.413382
0.374195
0.339083
0.308034
0.280688
0.607102
0.574363
0.537513
0.493014
0.448939
0.407192
0.368977
0.334605
0.304243
0.277757
0.573928
0.546955
0.515405
0.475051
0.4342
0.394968
0.358669
0.325755
0.296725
0.271871
0.525622
0.506874
0.483057
0.448734
0.412573
0.377015
0.343527
0.312742
0.285609
0.263024
0.46385
0.455342
0.441433
0.414801
0.38463
0.35379
0.323938
0.295883
0.271089
0.251254
0.390635
0.394034
0.391801
0.374199
0.351091
0.325849
0.300353
0.275548
0.253414
0.236666
0.30812
0.325122
0.335647
0.328037
0.3128
0.293857
0.273358
0.252287
0.232972
0.219433
0.219136
0.250763
0.274557
0.277557
0.270733
0.258583
0.243581
0.226636
0.210099
0.199631
0.126918
0.173166
0.210171
0.224056
0.225888
0.220748
0.211569
0.19924
0.185615
0.177572
0.03481
0.0945652
0.14418
0.168872
0.179339
0.181223
0.17803
0.170842
0.160558
0.152925
-0.053828
0.0170674
0.0782833
0.113325
0.13214
0.140819
0.143387
0.141498
0.135736
0.127113
-0.135867
-0.057703
0.0141509
0.0586615
0.0852875
0.100386
0.108334
0.111565
0.111034
0.106248
-0.207813
-0.128479
-0.0466539
0.00598822
0.0397064
0.0607291
0.073607
0.0814469
0.0859212
0.0856811
-0.269182
-0.191614
-0.103004
-0.0436869
-0.00376829
0.0225057
0.0397749
0.0514203
0.0598166
0.0636483
-0.319431
-0.244934
-0.154174
-0.0893701
-0.0444246
-0.0137702
0.00729189
0.0219473
0.0332175
0.0404064
-0.358123
-0.288551
-0.198776
-0.13038
-0.0817178
-0.0476553
-0.0234296
-0.00638573
0.00699146
0.0169535
-0.385486
-0.322427
-0.235792
-0.16647
-0.115484
-0.0787519
-0.0520878
-0.0330559
-0.0181838
-0.00597601
-0.402453
-0.346433
-0.265135
-0.197098
-0.145348
-0.107056
-0.0786345
-0.057738
-0.0418032
-0.0281785
-0.41038
-0.360697
-0.287037
-0.222137
-0.171038
-0.132257
-0.102831
-0.0805923
-0.0636221
-0.0496562
-0.410658
-0.365731
-0.30182
-0.241796
-0.192585
-0.154234
-0.124542
-0.101587
-0.0838465
-0.0693357
-0.40446
-0.362593
-0.31
-0.256435
-0.210201
-0.173089
-0.143798
-0.120675
-0.10245
-0.0872019
-0.392762
-0.3532
-0.312448
-0.266481
-0.224152
-0.189055
-0.160755
-0.137903
-0.119525
-0.103813
-0.376686
-0.340201
-0.310343
-0.272328
-0.234753
-0.202434
-0.175663
-0.153463
-0.135234
-0.119564
-0.357898
-0.326492
-0.304569
-0.274375
-0.242386
-0.213568
-0.188808
-0.167594
-0.149774
-0.134493
-0.338574
-0.313748
-0.296231
-0.273312
-0.247509
-0.222775
-0.200475
-0.180579
-0.163265
-0.148594
-0.320743
-0.302157
-0.287211
-0.270276
-0.250609
-0.230351
-0.210879
-0.192649
-0.176014
-0.161853
-0.305594
-0.291663
-0.279232
-0.266522
-0.252211
-0.236483
-0.220215
-0.20402
-0.188158
-0.174616
-0.293156
-0.282608
-0.272782
-0.262973
-0.252831
-0.241392
-0.22846
-0.214847
-0.200092
-0.186895
-0.283161
-0.275255
-0.267617
-0.260069
-0.252967
-0.24519
-0.235719
-0.224931
-0.211817
-0.199711
-0.275206
-0.269465
-0.263555
-0.257881
-0.252971
-0.248031
-0.241765
-0.234311
-0.223
-0.21299
-0.268821
-0.264909
-0.260455
-0.256329
-0.253034
-0.250114
-0.246702
-0.241546
-0.234443
-0.227468
-0.263556
-0.261208
-0.25804
-0.255271
-0.253248
-0.251543
-0.251031
-0.245593
-0.244899
-0.238471
-0.259051
-0.257984
-0.255963
-0.254402
-0.253497
-0.252394
-0.254743
-0.246316
-0.253958
-0.2444
-0.254981
-0.254959
-0.253968
-0.253431
-0.25347
-0.252812
-0.256876
-0.246604
-0.26063
-0.245091
-0.251146
-0.252043
-0.251888
-0.252168
-0.252948
-0.252747
-0.257166
-0.248164
-0.262642
-0.244537
-0.247526
-0.249241
-0.249717
-0.2506
-0.251756
-0.252338
-0.256283
-0.249557
-0.26076
-0.245834
-0.244232
-0.246655
-0.247575
-0.248843
-0.250257
-0.251531
-0.253975
-0.250933
-0.257726
-0.247237
-0.241464
-0.244459
-0.245669
-0.247165
-0.248761
-0.25032
-0.251921
-0.251228
-0.254134
-0.248594
-0.239449
-0.242848
-0.24423
-0.245849
-0.247541
-0.249158
-0.250466
-0.250768
-0.251787
-0.248807
-0.238385
-0.241995
-0.243455
-0.245127
-0.246856
-0.248473
-0.249713
-0.2503
-0.250679
-0.248724
-0.24791
-0.247129
-0.246246
-0.245273
-0.244217
-0.243085
-0.241884
-0.240618
-0.239291
-0.237906
-0.236465
-0.234969
-0.233419
-0.231814
-0.230154
-0.22844
-0.226671
-0.224851
-0.222982
-0.221063
-0.219092
-0.217068
-0.214992
-0.212863
-0.21068
-0.208443
-0.206151
-0.203804
-0.201402
-0.198944
-0.19643
-0.193861
-0.191237
-0.188557
-0.185822
-0.183033
-0.18019
-0.177295
-0.174349
-0.171352
-0.168307
-0.165216
-0.16208
-0.158901
-0.155682
-0.152426
-0.149136
-0.145814
-0.142464
-0.139089
-0.135692
-0.132278
-0.128849
-0.125411
-0.121968
-0.118523
-0.115081
-0.111645
-0.108221
-0.104811
-0.10142
-0.0980528
-0.0947122
-0.0914025
-0.0881274
-0.0848905
-0.0816951
-0.0785446
-0.0754419
-0.07239
-0.0693917
-0.0664495
-0.0635644
-0.0607407
-0.0579789
-0.0552808
-0.0526479
-0.0500813
-0.047582
-0.0451508
-0.0427884
-0.0404951
-0.0382712
-0.0361167
-0.0340317
-0.0320158
-0.0300687
-0.02819
-0.0263789
-0.0246349
-0.0229572
-0.0213448
-0.019797
-0.0183126
-0.0168907
-0.0155301
-0.01423
-0.012989
-0.0118063
-0.0106807
-0.00961105
-0.0085964
-0.00763575
-0.00672815
-0.00587271
-0.00506863
-0.00431517
-0.00361171
-0.00295774
-0.00235288
-0.00179692
-0.00128984
-0.000831918
-0.000423497
-6.61257e-05
0.000241041
0.000487418
0.000700514
0.000749976
0.00102328
-0.24839
-0.247578
-0.246657
-0.245661
-0.244584
-0.243436
-0.242222
-0.240947
-0.239615
-0.238227
-0.236785
-0.235289
-0.233739
-0.232135
-0.230475
-0.228759
-0.226993
-0.225181
-0.223318
-0.221404
-0.219437
-0.217418
-0.215347
-0.213223
-0.211046
-0.208814
-0.206528
-0.204187
-0.20179
-0.199338
-0.196829
-0.194265
-0.191645
-0.18897
-0.18624
-0.183455
-0.180616
-0.177724
-0.174781
-0.171787
-0.168744
-0.165654
-0.16252
-0.159342
-0.156124
-0.152868
-0.149577
-0.146254
-0.142902
-0.139525
-0.136126
-0.13271
-0.129278
-0.125838
-0.12239
-0.11894
-0.115493
-0.112052
-0.108622
-0.105207
-0.10181
-0.0984363
-0.0950893
-0.0917731
-0.0884916
-0.0852471
-0.0820434
-0.0788863
-0.0757769
-0.072718
-0.0697125
-0.0667631
-0.0638718
-0.061041
-0.0582724
-0.0555676
-0.0529281
-0.050355
-0.0478494
-0.0454121
-0.0430437
-0.0407446
-0.038515
-0.0363551
-0.0342648
-0.0322437
-0.0302916
-0.0284081
-0.0265923
-0.0248438
-0.0231617
-0.0215451
-0.0199932
-0.0185048
-0.0170791
-0.0157149
-0.0144111
-0.0131667
-0.0119806
-0.0108516
-0.00977871
-0.00876088
-0.0077971
-0.00688641
-0.0060279
-0.00522075
-0.00446421
-0.00375763
-0.00310046
-0.00249227
-0.00193283
-0.00142197
-0.000959966
-0.000546756
-0.000184222
0.000130401
0.000383147
0.000611217
0.00066589
0.000934577
-0.249263
-0.248299
-0.247305
-0.246282
-0.245186
-0.244023
-0.242797
-0.241514
-0.240178
-0.23879
-0.237351
-0.235861
-0.234318
-0.232721
-0.231066
-0.229362
-0.227613
-0.225808
-0.223951
-0.222044
-0.220086
-0.218076
-0.216013
-0.213897
-0.211727
-0.209504
-0.207226
-0.204893
-0.202504
-0.20006
-0.19756
-0.195004
-0.192392
-0.189725
-0.187001
-0.184223
-0.181391
-0.178505
-0.175567
-0.172578
-0.16954
-0.166453
-0.163321
-0.160146
-0.156929
-0.153674
-0.150383
-0.147059
-0.143706
-0.140326
-0.136927
-0.133517
-0.130044
-0.126609
-0.123159
-0.119703
-0.116248
-0.1128
-0.109361
-0.105936
-0.10253
-0.0991461
-0.0957885
-0.0924613
-0.0891683
-0.0859132
-0.0826993
-0.0795302
-0.0764089
-0.0733382
-0.0703211
-0.0673599
-0.0644571
-0.0616148
-0.0588348
-0.0561188
-0.0534682
-0.0508843
-0.048368
-0.0459202
-0.0435415
-0.0412324
-0.038993
-0.0368234
-0.0347237
-0.0326935
-0.0307325
-0.0288402
-0.027016
-0.0252592
-0.023569
-0.0219445
-0.0203848
-0.0188889
-0.0174558
-0.0160843
-0.0147735
-0.0135221
-0.0123291
-0.0111933
-0.0101137
-0.00908923
-0.00811883
-0.00720151
-0.00633636
-0.0055225
-0.00475915
-0.00404559
-0.00338121
-0.0027655
-0.00219811
-0.00167865
-0.00120738
-0.000783351
-0.000409418
-7.88294e-05
0.000187728
0.000443198
0.000515321
0.000783181
-0.251343
-0.249009
-0.248049
-0.246958
-0.245808
-0.244643
-0.243418
-0.242143
-0.240817
-0.239438
-0.238009
-0.236528
-0.234995
-0.233404
-0.231755
-0.230074
-0.228328
-0.226536
-0.224695
-0.222813
-0.220845
-0.218857
-0.216809
-0.214709
-0.212556
-0.210349
-0.208087
-0.205769
-0.203395
-0.200965
-0.198479
-0.195936
-0.193336
-0.19068
-0.187968
-0.185201
-0.182378
-0.179501
-0.176571
-0.173589
-0.170557
-0.167476
-0.164349
-0.161177
-0.157963
-0.154709
-0.151419
-0.148095
-0.14474
-0.141358
-0.137953
-0.134528
-0.131086
-0.127635
-0.124175
-0.120711
-0.117249
-0.113792
-0.110344
-0.106909
-0.103493
-0.100099
-0.0967304
-0.093392
-0.0900875
-0.0868205
-0.0835945
-0.0804131
-0.0772794
-0.0741962
-0.0711665
-0.0681927
-0.0652773
-0.0624223
-0.0596296
-0.056901
-0.0542378
-0.0516414
-0.0491127
-0.0466526
-0.0442618
-0.0419405
-0.0396892
-0.0375079
-0.0353964
-0.0333547
-0.0313822
-0.0294786
-0.0276432
-0.0258754
-0.0241742
-0.0225388
-0.0209684
-0.0194618
-0.018018
-0.016636
-0.0153146
-0.0140528
-0.0128493
-0.011703
-0.0106129
-0.0095778
-0.0085967
-0.00766857
-0.00679243
-0.00596734
-0.00519247
-0.004467
-0.00379024
-0.00316147
-0.00258031
-0.00204586
-0.00155862
-0.0011161
-0.000722975
-0.000366975
-7.70304e-05
0.000214906
0.000324241
0.000603324
-0.250145
-0.249843
-0.248598
-0.2474
-0.24627
-0.245108
-0.243897
-0.242641
-0.24134
-0.23999
-0.238593
-0.237146
-0.235647
-0.234093
-0.232479
-0.230809
-0.229088
-0.227317
-0.225493
-0.223618
-0.221691
-0.219712
-0.217678
-0.215592
-0.213452
-0.211257
-0.209007
-0.206703
-0.204342
-0.201926
-0.199452
-0.196923
-0.194336
-0.191692
-0.188993
-0.186237
-0.183425
-0.180559
-0.177639
-0.174667
-0.171644
-0.168572
-0.165452
-0.162287
-0.159079
-0.15583
-0.152545
-0.149225
-0.145873
-0.142494
-0.13909
-0.135665
-0.132223
-0.128769
-0.125308
-0.121842
-0.118377
-0.114916
-0.111464
-0.108025
-0.104603
-0.101203
-0.0978282
-0.0944829
-0.0911709
-0.0878961
-0.084662
-0.081472
-0.0783292
-0.0752368
-0.0721975
-0.0692138
-0.0662882
-0.0634228
-0.0606196
-0.0578801
-0.0552059
-0.0525982
-0.0500581
-0.0475864
-0.0451838
-0.0428507
-0.0405873
-0.0383937
-0.03627
-0.0342157
-0.0322307
-0.0303143
-0.0284661
-0.0266852
-0.0249709
-0.0233223
-0.0217384
-0.0202183
-0.0187608
-0.017365
-0.0160296
-0.0147535
-0.0135357
-0.0123748
-0.0112698
-0.0102196
-0.00922311
-0.00827918
-0.00738682
-0.00654502
-0.00575286
-0.00500938
-0.00431382
-0.00366518
-0.00306306
-0.00250587
-0.00199457
-0.0015247
-0.00110315
-0.00071231
-0.00038729
-5.22058e-05
0.000115691
0.000421181
-0.247258
-0.248178
-0.247894
-0.247121
-0.246145
-0.245073
-0.24395
-0.242768
-0.241515
-0.240196
-0.238825
-0.237402
-0.235924
-0.234383
-0.232772
-0.231106
-0.229428
-0.227707
-0.225926
-0.224088
-0.222194
-0.220248
-0.21825
-0.216198
-0.21409
-0.211926
-0.209706
-0.207429
-0.205095
-0.202704
-0.200254
-0.197747
-0.195182
-0.192559
-0.18988
-0.187143
-0.18435
-0.181502
-0.178599
-0.175643
-0.172635
-0.169578
-0.166473
-0.163321
-0.160126
-0.15689
-0.153616
-0.150307
-0.146966
-0.143597
-0.140203
-0.136787
-0.133354
-0.129908
-0.126453
-0.122994
-0.119534
-0.116079
-0.112631
-0.109196
-0.105777
-0.102379
-0.0990062
-0.0956621
-0.0923508
-0.089076
-0.0858412
-0.0826499
-0.0795052
-0.0764101
-0.0733676
-0.07038
-0.0674498
-0.0645792
-0.0617701
-0.0590242
-0.0563429
-0.0537275
-0.0511791
-0.0486985
-0.0462863
-0.0439431
-0.041669
-0.0394642
-0.0373286
-0.0352621
-0.0332642
-0.0313344
-0.0294723
-0.0276771
-0.0259479
-0.024284
-0.0226844
-0.021148
-0.0196739
-0.0182609
-0.0169079
-0.0156137
-0.0143773
-0.0131974
-0.0120728
-0.0110025
-0.00998521
-0.00901988
-0.00810541
-0.00724069
-0.00642471
-0.00565636
-0.00493478
-0.00425864
-0.00362758
-0.00303924
-0.00249505
-0.00198882
-0.00152891
-0.00109471
-0.000722457
-0.000338651
-9.54735e-05
0.000250573
-0.243748
-0.244522
-0.245289
-0.245272
-0.244615
-0.243774
-0.242925
-0.24199
-0.240908
-0.239715
-0.238456
-0.237143
-0.235767
-0.234321
-0.232793
-0.231167
-0.229459
-0.227753
-0.226038
-0.224268
-0.222427
-0.220518
-0.218548
-0.21652
-0.214435
-0.212293
-0.210095
-0.207843
-0.205536
-0.20317
-0.200746
-0.198264
-0.195724
-0.193126
-0.190471
-0.187759
-0.184991
-0.182167
-0.179289
-0.176357
-0.173374
-0.170341
-0.167259
-0.164132
-0.160961
-0.157748
-0.154498
-0.151212
-0.147894
-0.144547
-0.141175
-0.137781
-0.13437
-0.130945
-0.12751
-0.124071
-0.12063
-0.117193
-0.113763
-0.110344
-0.106941
-0.103559
-0.1002
-0.096869
-0.0935699
-0.0903062
-0.0870815
-0.0838992
-0.0807623
-0.077674
-0.0746369
-0.0716537
-0.0687267
-0.065858
-0.0630496
-0.0603032
-0.0576202
-0.055002
-0.0524495
-0.0499637
-0.0475452
-0.0451945
-0.0429119
-0.0406975
-0.0385512
-0.036473
-0.0344624
-0.032519
-0.0306423
-0.0288315
-0.027086
-0.0254049
-0.0237871
-0.0222319
-0.020738
-0.0193045
-0.0179302
-0.016614
-0.0153547
-0.0141511
-0.0130021
-0.0119064
-0.0108629
-0.00987041
-0.00892776
-0.00803375
-0.0071873
-0.0063871
-0.00563223
-0.00492103
-0.00425311
-0.00362556
-0.0030399
-0.00248913
-0.0019815
-0.00149671
-0.00106666
-0.00062901
-0.000300806
9.68683e-05
-0.240585
-0.24029
-0.241614
-0.241928
-0.241288
-0.240649
-0.240189
-0.239594
-0.238738
-0.237716
-0.23661
-0.235428
-0.234163
-0.232818
-0.2314
-0.229904
-0.228317
-0.226615
-0.224859
-0.223145
-0.221448
-0.219691
-0.217851
-0.215932
-0.213934
-0.211864
-0.20973
-0.207542
-0.205297
-0.202991
-0.200624
-0.198196
-0.195709
-0.193163
-0.190559
-0.187896
-0.185175
-0.182397
-0.179565
-0.176678
-0.173738
-0.170748
-0.167709
-0.164623
-0.161493
-0.158321
-0.155111
-0.151864
-0.148586
-0.145277
-0.141943
-0.138587
-0.135213
-0.131824
-0.128426
-0.125021
-0.121614
-0.118209
-0.114811
-0.111423
-0.10805
-0.104696
-0.101364
-0.0980585
-0.0947835
-0.0915424
-0.0883388
-0.0851758
-0.0820568
-0.0789845
-0.0759618
-0.0729913
-0.0700752
-0.0672157
-0.0644147
-0.0616739
-0.0589949
-0.0563788
-0.0538268
-0.0513398
-0.0489185
-0.0465633
-0.0442746
-0.0420525
-0.0398971
-0.0378082
-0.0357856
-0.0338288
-0.0319372
-0.0301104
-0.0283475
-0.0266477
-0.0250102
-0.0234339
-0.021918
-0.0204613
-0.0190626
-0.017721
-0.0164352
-0.015204
-0.0140263
-0.0129008
-0.0118263
-0.0108016
-0.00982545
-0.00889658
-0.00801382
-0.00717571
-0.00638121
-0.00562847
-0.00491691
-0.00424344
-0.00360913
-0.00300732
-0.00244443
-0.00190343
-0.00140794
-0.000911589
-0.000494165
-3.68659e-05
-0.234937
-0.235015
-0.236893
-0.236889
-0.236011
-0.235683
-0.23572
-0.235546
-0.235061
-0.234406
-0.233645
-0.232764
-0.231761
-0.230647
-0.229433
-0.228123
-0.226718
-0.225214
-0.223581
-0.221783
-0.219912
-0.218129
-0.2164
-0.214614
-0.21273
-0.210746
-0.208689
-0.206574
-0.204401
-0.202161
-0.199853
-0.197483
-0.195053
-0.192564
-0.190017
-0.187411
-0.184748
-0.182028
-0.179254
-0.176425
-0.173545
-0.170614
-0.167634
-0.164608
-0.161538
-0.158426
-0.155275
-0.152089
-0.14887
-0.145621
-0.142346
-0.139049
-0.135732
-0.132401
-0.129059
-0.12571
-0.122357
-0.119006
-0.115659
-0.112322
-0.108997
-0.10569
-0.102403
-0.0991408
-0.0959068
-0.0927046
-0.0895375
-0.0864089
-0.0833218
-0.080279
-0.0772833
-0.0743371
-0.071443
-0.0686029
-0.0658188
-0.0630925
-0.0604254
-0.0578188
-0.0552739
-0.0527916
-0.0503726
-0.0480174
-0.0457265
-0.0435001
-0.0413383
-0.0392409
-0.0372078
-0.0352385
-0.0333327
-0.0314899
-0.0297092
-0.02799
-0.0263314
-0.0247326
-0.0231925
-0.0217102
-0.0202846
-0.0189145
-0.0175989
-0.0163366
-0.0151263
-0.0139668
-0.012857
-0.0117955
-0.0107811
-0.00981236
-0.00888808
-0.00800674
-0.00716712
-0.00636732
-0.00560641
-0.00488154
-0.00419282
-0.00353489
-0.00291119
-0.00230968
-0.00174399
-0.00118463
-0.000676559
-0.000151373
-0.226962
-0.229062
-0.230625
-0.229629
-0.22854
-0.228422
-0.228625
-0.228626
-0.228419
-0.228099
-0.22767
-0.227116
-0.226441
-0.225654
-0.224757
-0.223751
-0.22264
-0.221427
-0.22012
-0.218713
-0.217159
-0.215403
-0.21358
-0.211893
-0.210177
-0.208357
-0.206468
-0.204533
-0.202536
-0.200461
-0.198307
-0.196082
-0.19379
-0.191432
-0.18901
-0.186524
-0.183976
-0.181368
-0.178701
-0.175978
-0.173199
-0.170367
-0.167484
-0.164553
-0.161575
-0.158553
-0.155491
-0.15239
-0.149255
-0.146088
-0.142893
-0.139673
-0.136432
-0.133173
-0.129901
-0.12662
-0.123332
-0.120043
-0.116756
-0.113475
-0.110205
-0.106948
-0.103709
-0.100492
-0.0972999
-0.0941365
-0.0910052
-0.0879093
-0.0848516
-0.0818352
-0.0788627
-0.0759367
-0.0730596
-0.0702336
-0.0674607
-0.0647426
-0.0620809
-0.0594771
-0.0569323
-0.0544476
-0.0520237
-0.0496613
-0.0473609
-0.0451228
-0.0429471
-0.0408339
-0.038783
-0.0367942
-0.0348671
-0.0330012
-0.0311959
-0.0294506
-0.0277644
-0.0261365
-0.024566
-0.023052
-0.0215933
-0.0201889
-0.0188377
-0.0175385
-0.0162902
-0.0150913
-0.0139408
-0.0128373
-0.0117795
-0.0107659
-0.00979522
-0.00886588
-0.00797644
-0.00712512
-0.00631047
-0.00553019
-0.0047831
-0.00406569
-0.00337793
-0.00271336
-0.00207575
-0.00145148
-0.000855751
-0.000258532
-0.214393
-0.221398
-0.222394
-0.220995
-0.21991
-0.219703
-0.219951
-0.220231
-0.220374
-0.220358
-0.220202
-0.219926
-0.219538
-0.219037
-0.218422
-0.217692
-0.216849
-0.215899
-0.214846
-0.213694
-0.212447
-0.211103
-0.209628
-0.207961
-0.206187
-0.204342
-0.202497
-0.200643
-0.198742
-0.196769
-0.194721
-0.192602
-0.190416
-0.188164
-0.185847
-0.183466
-0.181021
-0.178516
-0.175952
-0.17333
-0.170653
-0.167923
-0.165142
-0.162312
-0.159436
-0.156516
-0.153556
-0.150559
-0.147526
-0.144463
-0.141371
-0.138254
-0.135117
-0.131962
-0.128794
-0.125615
-0.12243
-0.119243
-0.116057
-0.112877
-0.109705
-0.106546
-0.103403
-0.10028
-0.0971795
-0.0941059
-0.0910621
-0.088051
-0.0850755
-0.0821384
-0.0792423
-0.0763897
-0.0735827
-0.0708234
-0.0681138
-0.0654556
-0.0628502
-0.060299
-0.0578032
-0.0553637
-0.0529814
-0.0506569
-0.0483907
-0.0461831
-0.0440344
-0.0419445
-0.0399134
-0.0379408
-0.0360266
-0.0341701
-0.032371
-0.0306286
-0.0289421
-0.0273109
-0.025734
-0.0242105
-0.0227395
-0.0213199
-0.0199507
-0.0186307
-0.0173587
-0.0161336
-0.0149541
-0.013819
-0.0127267
-0.0116761
-0.0106655
-0.0096936
-0.00875867
-0.0078592
-0.00699319
-0.0061591
-0.00535443
-0.00457772
-0.00382556
-0.00309697
-0.0023867
-0.00169514
-0.00101295
-0.000343814
-0.195665
-0.204942
-0.207971
-0.207416
-0.206418
-0.206216
-0.206708
-0.207404
-0.207964
-0.208288
-0.20841
-0.208387
-0.208246
-0.207991
-0.207616
-0.207116
-0.206489
-0.205737
-0.204862
-0.203863
-0.202739
-0.201493
-0.200142
-0.198732
-0.197325
-0.195964
-0.194553
-0.193014
-0.191339
-0.189562
-0.187707
-0.185781
-0.183784
-0.181715
-0.179578
-0.177373
-0.175103
-0.172771
-0.170378
-0.167928
-0.165421
-0.162861
-0.16025
-0.15759
-0.154884
-0.152135
-0.149345
-0.146518
-0.143657
-0.140764
-0.137843
-0.134898
-0.131932
-0.128947
-0.125949
-0.122939
-0.119922
-0.116902
-0.113881
-0.110864
-0.107853
-0.104853
-0.101866
-0.0988954
-0.0959452
-0.093018
-0.0901167
-0.0872443
-0.0844034
-0.0815965
-0.078826
-0.0760943
-0.0734034
-0.0707553
-0.0681517
-0.0655942
-0.0630843
-0.0606233
-0.0582124
-0.0558524
-0.0535443
-0.0512886
-0.0490859
-0.0469366
-0.0448409
-0.0427989
-0.0408107
-0.0388761
-0.036995
-0.0351669
-0.0333914
-0.0316681
-0.0299963
-0.0283755
-0.0268047
-0.0252832
-0.0238102
-0.0223847
-0.0210058
-0.0196723
-0.0183832
-0.0171373
-0.0159336
-0.0147706
-0.0136472
-0.012562
-0.0115134
-0.0105003
-0.00952075
-0.00857353
-0.00765627
-0.00676814
-0.00590561
-0.00506903
-0.00425235
-0.00345902
-0.00267716
-0.00191782
-0.0011546
-0.000415148
-0.178847
-0.188819
-0.192968
-0.193379
-0.192959
-0.19312
-0.193943
-0.194994
-0.195909
-0.196561
-0.196979
-0.19723
-0.197357
-0.197369
-0.19726
-0.197025
-0.196664
-0.19618
-0.19558
-0.194871
-0.194065
-0.193173
-0.192208
-0.191172
-0.190051
-0.188814
-0.187431
-0.185927
-0.184356
-0.182731
-0.181046
-0.179291
-0.177464
-0.175565
-0.173597
-0.171562
-0.169463
-0.167301
-0.165078
-0.162798
-0.160461
-0.158071
-0.15563
-0.15314
-0.150604
-0.148025
-0.145406
-0.142749
-0.140057
-0.137334
-0.134583
-0.131806
-0.129008
-0.12619
-0.123357
-0.120512
-0.117657
-0.114798
-0.111935
-0.109074
-0.106217
-0.103367
-0.100528
-0.0977025
-0.0948933
-0.0921033
-0.0893355
-0.0865923
-0.0838764
-0.0811902
-0.0785359
-0.0759156
-0.0733314
-0.070785
-0.0682783
-0.0658127
-0.0633896
-0.0610104
-0.0586761
-0.0563878
-0.0541462
-0.0519521
-0.049806
-0.0477083
-0.0456594
-0.0436595
-0.0417086
-0.0398067
-0.0379537
-0.0361493
-0.0343932
-0.0326851
-0.0310243
-0.0294104
-0.0278426
-0.0263203
-0.0248427
-0.023409
-0.0220182
-0.0206694
-0.0193615
-0.0180936
-0.0168645
-0.0156729
-0.0145177
-0.0133977
-0.0123112
-0.0112572
-0.0102337
-0.00923983
-0.00827285
-0.00733256
-0.00641473
-0.00552105
-0.00464375
-0.00378934
-0.00294173
-0.00211892
-0.00128334
-0.000476149
-0.16453
-0.173998
-0.178631
-0.179888
-0.180175
-0.180801
-0.181938
-0.18326
-0.184448
-0.185375
-0.186061
-0.186566
-0.186937
-0.187186
-0.187311
-0.187309
-0.187178
-0.186923
-0.186551
-0.186068
-0.185478
-0.184783
-0.18398
-0.183067
-0.182045
-0.180926
-0.179729
-0.178479
-0.177163
-0.175759
-0.174266
-0.172692
-0.171042
-0.16932
-0.167528
-0.165668
-0.163742
-0.161752
-0.159701
-0.157592
-0.155426
-0.153206
-0.150935
-0.148615
-0.146248
-0.143838
-0.141388
-0.138899
-0.136376
-0.13382
-0.131235
-0.128624
-0.12599
-0.123336
-0.120665
-0.117981
-0.115285
-0.112583
-0.109876
-0.107167
-0.10446
-0.101758
-0.0990631
-0.0963786
-0.0937073
-0.0910517
-0.0884145
-0.0857981
-0.0832049
-0.0806372
-0.0780971
-0.0755866
-0.0731076
-0.0706619
-0.0682511
-0.0658768
-0.0635402
-0.0612426
-0.0589851
-0.0567687
-0.0545942
-0.0524624
-0.0503739
-0.048329
-0.0463283
-0.0443719
-0.04246
-0.0405926
-0.0387698
-0.0369912
-0.0352567
-0.033566
-0.0319187
-0.0303142
-0.0287521
-0.0272317
-0.0257523
-0.0243131
-0.0229134
-0.0215523
-0.0202288
-0.0189419
-0.0176907
-0.016474
-0.0152905
-0.0141392
-0.0130187
-0.0119277
-0.0108645
-0.00982832
-0.00881635
-0.00782878
-0.00686103
-0.00591567
-0.00498396
-0.00407431
-0.00316806
-0.00228727
-0.00138779
-0.000519498
-0.15152
-0.160441
-0.165317
-0.167215
-0.168122
-0.169188
-0.170616
-0.172167
-0.173582
-0.174749
-0.175676
-0.176417
-0.177011
-0.177476
-0.177812
-0.178017
-0.17809
-0.178037
-0.177862
-0.17757
-0.177164
-0.176646
-0.17602
-0.175291
-0.174468
-0.173563
-0.172582
-0.171519
-0.17036
-0.169113
-0.167782
-0.166372
-0.164887
-0.163328
-0.161699
-0.160002
-0.158239
-0.156411
-0.154522
-0.152575
-0.15057
-0.148512
-0.146402
-0.144243
-0.142038
-0.139789
-0.137499
-0.135171
-0.132807
-0.130411
-0.127984
-0.125531
-0.123054
-0.120555
-0.118039
-0.115507
-0.112963
-0.110409
-0.107849
-0.105286
-0.102721
-0.100159
-0.0976008
-0.0950503
-0.0925096
-0.0899814
-0.0874681
-0.0849719
-0.0824951
-0.0800398
-0.0776081
-0.0752019
-0.0728229
-0.0704729
-0.0681535
-0.065866
-0.0636118
-0.0613921
-0.059208
-0.0570604
-0.0549503
-0.0528784
-0.0508452
-0.0488514
-0.0468972
-0.0449831
-0.0431092
-0.0412756
-0.0394823
-0.0377294
-0.0360165
-0.0343435
-0.03271
-0.0311157
-0.0295601
-0.0280426
-0.0265626
-0.0251195
-0.0237126
-0.022341
-0.0210038
-0.0197003
-0.0184294
-0.0171901
-0.0159812
-0.0148017
-0.0136503
-0.012526
-0.0114268
-0.0103523
-0.00929969
-0.0082694
-0.00725671
-0.00626477
-0.00528429
-0.0043249
-0.00336644
-0.00243363
-0.00147842
-0.000556003
-0.139866
-0.148279
-0.153225
-0.155552
-0.156935
-0.158369
-0.160051
-0.161802
-0.163411
-0.164783
-0.165921
-0.166871
-0.167666
-0.168325
-0.168849
-0.16924
-0.169497
-0.169625
-0.169629
-0.169513
-0.169282
-0.168941
-0.168494
-0.167948
-0.167307
-0.166576
-0.165753
-0.164837
-0.163831
-0.162739
-0.161565
-0.160313
-0.158985
-0.157583
-0.15611
-0.154569
-0.15296
-0.151288
-0.149554
-0.14776
-0.14591
-0.144005
-0.142049
-0.140043
-0.137991
-0.135895
-0.133757
-0.13158
-0.129368
-0.127122
-0.124845
-0.122541
-0.120211
-0.117859
-0.115488
-0.1131
-0.110698
-0.108284
-0.105862
-0.103435
-0.101004
-0.0985727
-0.0961434
-0.0937186
-0.0913007
-0.0888922
-0.0864952
-0.084112
-0.0817447
-0.0793953
-0.0770658
-0.0747579
-0.0724733
-0.0702138
-0.0679807
-0.0657756
-0.0635996
-0.061454
-0.0593398
-0.057258
-0.0552095
-0.053195
-0.0512151
-0.0492704
-0.0473614
-0.0454883
-0.0436515
-0.0418511
-0.0400872
-0.0383598
-0.0366688
-0.0350139
-0.033395
-0.0318118
-0.0302638
-0.0287506
-0.0272717
-0.0258264
-0.0244142
-0.0230343
-0.0216859
-0.0203682
-0.0190803
-0.0178213
-0.0165902
-0.0153859
-0.0142072
-0.0130532
-0.0119221
-0.0108136
-0.00972478
-0.00865648
-0.00760385
-0.00657048
-0.00554677
-0.00454322
-0.00353873
-0.00255983
-0.00155589
-0.000585666
-0.129663
-0.137466
-0.142341
-0.144945
-0.146681
-0.148401
-0.15029
-0.152205
-0.153972
-0.155511
-0.156826
-0.157952
-0.158921
-0.159748
-0.160439
-0.160993
-0.161414
-0.161704
-0.16187
-0.161916
-0.161847
-0.161668
-0.161383
-0.160996
-0.160509
-0.159926
-0.159247
-0.158478
-0.15762
-0.156679
-0.155656
-0.154553
-0.153374
-0.15212
-0.150794
-0.149399
-0.147937
-0.14641
-0.144821
-0.143173
-0.141468
-0.139708
-0.137896
-0.136035
-0.134126
-0.132173
-0.130178
-0.128144
-0.126073
-0.123969
-0.121832
-0.119667
-0.117476
-0.115261
-0.113026
-0.110772
-0.108503
-0.10622
-0.103928
-0.101627
-0.0993216
-0.097013
-0.094704
-0.0923968
-0.0900938
-0.0877973
-0.0855093
-0.0832321
-0.0809675
-0.0787174
-0.0764838
-0.0742684
-0.0720727
-0.0698984
-0.0677468
-0.0656194
-0.0635174
-0.061442
-0.0593941
-0.0573748
-0.055385
-0.0534252
-0.0514964
-0.0495989
-0.0477333
-0.0459
-0.0440992
-0.0423312
-0.0405961
-0.0388939
-0.0372246
-0.0355882
-0.0339843
-0.0324128
-0.0308734
-0.0293656
-0.027889
-0.0264431
-0.0250274
-0.0236411
-0.0222835
-0.0209541
-0.0196518
-0.0183759
-0.0171254
-0.0158994
-0.0146968
-0.0135167
-0.0123575
-0.0112188
-0.0100981
-0.00899617
-0.00790826
-0.00683826
-0.00577644
-0.00473391
-0.00368899
-0.00266951
-0.00162304
-0.000611015
-0.12064
-0.127832
-0.132569
-0.135346
-0.137336
-0.13927
-0.141315
-0.143355
-0.145245
-0.146917
-0.148374
-0.149647