/*--------------------------------*- C++ -*----------------------------------*\
  =========                 |
  \\      /  F ield         | OpenFOAM: The Open Source CFD Toolbox
   \\    /   O peration     | Website:  https://openfoam.org
    \\  /    A nd           | Version:  7
     \\/     M anipulation  |
\*---------------------------------------------------------------------------*/
FoamFile
{
    version     2.0;
    format      ascii;
    class       surfaceScalarField;
    location    "40";
    object      phi;
}
// * * * * * * * * * * * * * * * * * * * * * * * * * * * * * * * * * * * * * //

dimensions      [0 3 -1 0 0 0 0];

internalField   nonuniform List<scalar> 
27710
(
-7.50415e-05
7.50442e-05
-2.76335e-09
-0.000226489
0.000151453
-5.25656e-09
-0.000424628
0.000198145
-6.43907e-09
-0.000653657
0.000229036
-7.08035e-09
-0.000906113
0.000252464
-7.54746e-09
-0.00117868
0.000272572
-7.79568e-09
-0.00146634
0.000287669
-7.50575e-09
-0.0017532
0.000286866
-6.1935e-09
-0.00206647
0.000313278
-3.11851e-09
0.000250257
2.336e-09
-0.00231673
-6.96845e-05
0.000144729
-0.000210983
0.000292751
-0.00039471
0.000381872
-0.000604217
0.000438543
-0.000830261
0.000478509
-0.00106741
0.000509718
-0.00131294
0.000533199
-0.0015314
0.000505332
-0.00178504
0.000566918
0.000381808
-0.0019166
-5.99125e-05
0.000204641
-0.000182202
0.000415041
-0.000338432
0.000538102
-0.000510199
0.00061031
-0.000684859
0.000653168
-0.000850283
0.000675142
-0.00101036
0.000693274
-0.00109251
0.00058748
-0.00121519
0.0006896
0.000292019
-0.0011254
-4.74412e-05
0.000252082
-0.00014425
0.000511851
-0.000262418
0.000656269
-0.000380616
0.000728508
-0.000481967
0.00075452
-0.000541644
0.000734819
-0.000563025
0.000714655
-0.000452143
0.000476599
-0.000316134
0.00055359
-7.69319e-05
5.28168e-05
-3.44217e-05
0.000286504
-0.000102315
0.000579744
-0.000175086
0.00072904
-0.000226666
0.000780088
-0.000233374
0.000761228
-0.000164751
0.000666196
3.48506e-05
0.000515053
0.000382779
0.00012867
0.000881291
5.50787e-05
-0.000953764
0.00175812
-2.29492e-05
0.000309453
-6.14018e-05
0.000618196
-8.42976e-05
0.000751936
-5.88784e-05
0.000754669
5.4695e-05
0.000647654
0.000288225
0.000432666
0.00073623
6.70483e-05
0.00144337
-0.00057847
0.00240869
-0.000910245
-0.0024898
0.00394473
-1.44895e-05
0.000323943
-2.45939e-05
0.000628301
6.39982e-06
0.000720942
0.000122967
0.000638102
0.000381188
0.000389432
0.000843594
-2.97398e-05
0.00162843
-0.000717786
0.0027451
-0.00169514
0.0042813
-0.00244645
-0.00463473
0.00642623
-9.57488e-06
0.000333518
8.43556e-06
0.00061029
0.000100946
0.000628432
0.00033258
0.000406467
0.000787616
-6.56031e-05
0.00156064
-0.000802767
0.00274338
-0.00190053
0.00433097
-0.00328273
0.00641187
-0.00452735
-0.00700834
0.00878549
-6.46177e-06
0.000339979
4.2019e-05
0.000561809
0.000214056
0.000456395
0.00060318
1.7343e-05
0.00132456
-0.000786985
0.00248697
-0.00196517
0.00407044
-0.003484
0.00603717
-0.00524947
0.00839791
-0.00688809
-0.00912702
0.0105166
-2.05589e-06
0.000342035
8.71176e-05
0.000472636
0.000370187
0.000173326
0.000979446
-0.000591915
0.00203421
-0.00184175
0.00357043
-0.00350139
0.0054437
-0.00535727
0.00749124
-0.007297
0.00959859
-0.00899545
-0.0107683
0.0112399
6.1275e-06
0.000335908
0.000155988
0.000322775
0.000597272
-0.000267958
0.00148817
-0.00148281
0.00288064
-0.00323423
0.0046411
-0.00526185
0.00653464
-0.0072508
0.00832546
-0.00908783
0.00985739
-0.0105274
-0.0119057
0.0109948
2.16724e-05
0.000314235
0.000261137
8.33108e-05
0.000914229
-0.00092105
0.00210368
-0.00267226
0.00371288
-0.00484343
0.00545324
-0.0070022
0.00708058
-0.00887815
0.00841651
-0.0104238
0.00953902
-0.0116499
-0.0128743
0.0105076
4.78135e-05
0.000266422
0.000412266
-0.000281142
0.00131269
-0.00182148
0.00272509
-0.00408466
0.00433849
-0.00645683
0.00583983
-0.00850353
0.00708151
-0.0101198
0.00806718
-0.0114094
0.00892029
-0.012503
-0.0136083
0.00965428
8.68312e-05
0.000179591
0.00061216
-0.000806471
0.00174031
-0.00294962
0.00321535
-0.00555971
0.00464458
-0.00788605
0.00582174
-0.00968069
0.00674173
-0.0110398
0.00748302
-0.0121507
0.0081486
-0.0131686
-0.0142532
0.00879353
0.000141493
3.80981e-05
0.000847346
-0.00151232
0.00211234
-0.00421462
0.00348555
-0.00693292
0.00464598
-0.00904648
0.00553038
-0.0105651
0.00620975
-0.0117192
0.00677957
-0.0127205
0.00732876
-0.0137178
-0.0147877
0.0078633
0.000214167
-0.000176069
0.00108416
-0.00238231
0.00235659
-0.00548706
0.00353069
-0.00810702
0.00442415
-0.00993995
0.00507234
-0.0112133
0.00557609
-0.0122229
0.0060229
-0.0131673
0.00646265
-0.0141575
-0.0152271
0.00690201
0.000302184
-0.000478254
0.0012817
-0.00336183
0.00245014
-0.00665549
0.00339472
-0.0090516
0.00405506
-0.0106003
0.00452031
-0.0116785
0.00489163
-0.0125943
0.00523376
-0.0135095
0.00557789
-0.0145016
-0.0155733
0.00592412
0.000393673
-0.000871926
0.00140683
-0.00437499
0.00240798
-0.00765664
0.00312903
-0.00977265
0.00359615
-0.0110674
0.0039182
-0.0120006
0.00418125
-0.0128573
0.00443004
-0.0137583
0.00467826
-0.0147499
-0.0158199
0.00492482
0.000473317
-0.00134524
0.00144261
-0.00534428
0.0022572
-0.00847123
0.00277755
-0.010293
0.0030863
-0.0113761
0.00329177
-0.0122061
0.00345989
-0.0130255
0.00361781
-0.0139162
0.00377137
-0.0149034
-0.0159693
0.0039208
0.000528848
-0.00187409
0.00139396
-0.00620939
0.00202593
-0.00910321
0.00237359
-0.0106407
0.0025513
-0.0115539
0.00265646
-0.0123112
0.00273533
-0.0131043
0.00280353
-0.0139844
0.00286346
-0.0149633
-0.016022
0.00291613
0.000552861
-0.00242695
0.00128376
-0.00694029
0.00174065
-0.00956009
0.00194064
-0.0108406
0.00200719
-0.0116204
0.00202162
-0.0123257
0.00201394
-0.0130966
0.00199178
-0.0139622
0.00195579
-0.0149274
-0.0159799
0.0019137
0.000542778
-0.00296973
0.0011269
-0.00752441
0.00142232
-0.00985551
0.00149461
-0.0109129
0.00146409
-0.0115899
0.00139344
-0.012255
0.0013007
-0.0130039
0.00118835
-0.0138499
0.00105342
-0.0147924
-0.0158348
0.000908349
0.0005014
-0.00347113
0.000937312
-0.00796032
0.00108673
-0.0100049
0.00104744
-0.0108737
0.000928832
-0.0114713
0.000775981
-0.0121022
0.000599042
-0.012827
0.000397307
-0.0136481
0.000174581
-0.0145697
-0.0155627
-9.75376e-05
0.000435604
-0.00390674
0.000727387
-0.0082521
0.000746093
-0.0100236
0.000607094
-0.0107347
0.000405388
-0.0112696
0.000170891
-0.0118677
-8.97869e-05
-0.0125663
-0.000372754
-0.0133652
-0.000691512
-0.0142509
-0.0152111
-0.00104307
0.000353425
-0.00426016
0.000507373
-0.00840605
0.000408598
-0.00992486
0.000176818
-0.0105029
-0.000103248
-0.0109895
-0.000409266
-0.0115616
-0.000746019
-0.0122295
-0.00111774
-0.0129934
-0.00152745
-0.0138412
-0.0147725
-0.00196613
0.000261935
-0.0045221
0.000286405
-0.00843052
7.69953e-05
-0.00971545
-0.000232761
-0.0101931
-0.000582821
-0.0106394
-0.000966141
-0.0111783
-0.00138184
-0.0118138
-0.00183655
-0.0125387
-0.00232884
-0.0133489
-0.0142467
-0.00285462
0.000166652
-0.00468875
7.49956e-05
-0.00833886
-0.000234039
-0.00940642
-0.000620864
-0.00980629
-0.00104368
-0.0102166
-0.0014995
-0.0107225
-0.00199076
-0.0113226
-0.0025231
-0.0120064
-0.00309538
-0.0127767
-0.0136378
-0.0037043
7.30812e-05
-0.00476183
-0.000139955
-0.00812583
-0.000529834
-0.00901654
-0.000989607
-0.00934652
-0.00148157
-0.00972466
-0.002007
-0.0101971
-0.00256991
-0.0107597
-0.00317465
-0.0114016
-0.00382283
-0.0121285
-0.0129529
-0.00450765
-1.316e-05
-0.00474867
-0.000341974
-0.00779701
-0.000810358
-0.00854816
-0.00133622
-0.00882066
-0.00189399
-0.00916689
-0.00248674
-0.00960433
-0.00311879
-0.0101276
-0.00379163
-0.0107288
-0.00450047
-0.0114196
-0.0122
-0.00525345
-0.000119203
-0.00462947
-0.00052898
-0.00738723
-0.00107116
-0.00800597
-0.00165908
-0.00823274
-0.00227895
-0.00854701
-0.00293591
-0.00894737
-0.00363473
-0.0094288
-0.00437821
-0.00998532
-0.00517024
-0.0106276
-0.0114267
-0.00594355
-0.000209394
-0.00442007
-0.000701799
-0.00689483
-0.00131012
-0.00739765
-0.00195643
-0.00758643
-0.00263444
-0.007869
-0.00335091
-0.0082309
-0.00411105
-0.00866867
-0.00491762
-0.00917875
-0.0057716
-0.00977362
-0.0104272
-0.00677104
-0.000290253
-0.00412982
-0.000859161
-0.00632592
-0.00152696
-0.00672985
-0.00222713
-0.00688626
-0.00295903
-0.0071371
-0.00372964
-0.00746029
-0.00454261
-0.0078557
-0.00540186
-0.00831949
-0.00632703
-0.00884845
-0.00939952
-0.00735472
-0.000362268
-0.00376755
-0.000999887
-0.0056883
-0.00172087
-0.00600887
-0.00246997
-0.00613717
-0.00325103
-0.00635604
-0.00407198
-0.00663934
-0.00493932
-0.00698836
-0.00586207
-0.00739674
-0.00685496
-0.00785556
-0.00834292
-0.00791156
-0.000425133
-0.00334242
-0.00112327
-0.00499017
-0.00189127
-0.00524087
-0.00268393
-0.00534451
-0.0035082
-0.00553177
-0.00437195
-0.00577559
-0.0052831
-0.0060772
-0.00625266
-0.00642718
-0.00729228
-0.00681594
-0.0072382
-0.008397
-0.000477867
-0.00286455
-0.0012286
-0.00423943
-0.00203772
-0.00443176
-0.00286874
-0.00451348
-0.00373152
-0.004669
-0.00463462
-0.00487249
-0.00558695
-0.00512488
-0.00659807
-0.00541605
-0.00767528
-0.00573873
-0.00609456
-0.00881893
-0.000518957
-0.00234559
-0.00131555
-0.00344284
-0.00215986
-0.00358745
-0.00302311
-0.00365023
-0.00391771
-0.00377441
-0.00485283
-0.00393736
-0.00583811
-0.0041396
-0.00688252
-0.00437165
-0.00799254
-0.0046287
-0.0049156
-0.0091715
-0.000554266
-0.00179133
-0.00138542
-0.00261168
-0.00225795
-0.00271492
-0.00314746
-0.00276072
-0.00406816
-0.00285371
-0.00502955
-0.00297597
-0.00604141
-0.00312773
-0.00711187
-0.0033012
-0.00824733
-0.00349324
-0.00370927
-0.00945366
-0.00058168
-0.00120965
-0.00143817
-0.00175519
-0.00233161
-0.00182148
-0.00324084
-0.00185148
-0.00418113
-0.00191342
-0.00516218
-0.00199492
-0.00619385
-0.00209606
-0.00728373
-0.00221132
-0.00843807
-0.00233891
-0.00248305
-0.00966429
-0.000600177
-0.000609471
-0.00147355
-0.000881821
-0.00238083
-0.000914193
-0.00330327
-0.000929044
-0.0042567
-0.000959998
-0.00525088
-0.00100074
-0.00629567
-0.00105128
-0.00739819
-0.00110879
-0.0085647
-0.0011724
-0.00124437
-0.00980338
-0.00060947
-5.04432e-10
-0.00149129
-7.00497e-10
-0.00240548
-6.81462e-10
-0.00333453
-6.40385e-10
-0.00429452
-6.03784e-10
-0.00529526
-5.68553e-10
-0.00634654
-5.34983e-10
-0.00745533
-5.01748e-10
-0.00862773
-4.68318e-10
-4.36766e-10
-0.0098721
-0.00060947
0.00060947
-0.00149129
0.00088182
-0.00240548
0.000914191
-0.00333453
0.000929043
-0.00429452
0.000959997
-0.00529526
0.00100074
-0.00634654
0.00105128
-0.00745533
0.00110879
-0.00862773
0.0011724
0.00124437
-0.0098721
-0.000600177
0.00120965
-0.00147355
0.00175519
-0.00238083
0.00182148
-0.00330327
0.00185148
-0.0042567
0.00191342
-0.00525088
0.00199492
-0.00629567
0.00209606
-0.00739819
0.00221132
-0.0085647
0.0023389
0.00248304
-0.00980338
-0.00058168
0.00179133
-0.00143817
0.00261168
-0.00233161
0.00271492
-0.00324084
0.00276072
-0.00418113
0.00285371
-0.00516218
0.00297597
-0.00619385
0.00312773
-0.00728373
0.0033012
-0.00843807
0.00349324
0.00370926
-0.00966429
-0.000554266
0.00234559
-0.00138542
0.00344283
-0.00225795
0.00358745
-0.00314746
0.00365023
-0.00406816
0.00377441
-0.00502955
0.00393736
-0.00604141
0.00413959
-0.00711187
0.00437165
-0.00824733
0.0046287
0.0049156
-0.00945366
-0.000518957
0.00286455
-0.00131555
0.00423943
-0.00215986
0.00443175
-0.00302311
0.00451348
-0.00391771
0.004669
-0.00485283
0.00487248
-0.00583811
0.00512488
-0.00688252
0.00541605
-0.00799254
0.00573873
0.00609456
-0.0091715
-0.000477867
0.00334242
-0.0012286
0.00499017
-0.00203772
0.00524087
-0.00286874
0.0053445
-0.00373152
0.00553177
-0.00463462
0.00577559
-0.00558695
0.0060772
-0.00659807
0.00642718
-0.00767528
0.00681594
0.0072382
-0.00881893
-0.000425133
0.00376755
-0.00112327
0.0056883
-0.00189127
0.00600887
-0.00268393
0.00613717
-0.0035082
0.00635604
-0.00437195
0.00663934
-0.0052831
0.00698835
-0.00625266
0.00739674
-0.00729228
0.00785556
0.00834292
-0.008397
-0.000362268
0.00412982
-0.000999887
0.00632592
-0.00172087
0.00672985
-0.00246997
0.00688626
-0.00325103
0.0071371
-0.00407198
0.00746029
-0.00493932
0.0078557
-0.00586207
0.00831949
-0.00685496
0.00884845
0.00939952
-0.00791156
-0.000290253
0.00442007
-0.000859161
0.00689483
-0.00152696
0.00739765
-0.00222713
0.00758643
-0.00295903
0.007869
-0.00372964
0.0082309
-0.00454261
0.00866867
-0.00540186
0.00917874
-0.00632703
0.00977362
0.0104272
-0.00735472
-0.000209394
0.00462946
-0.000701799
0.00738723
-0.00131012
0.00800597
-0.00195643
0.00823274
-0.00263444
0.00854701
-0.00335091
0.00894737
-0.00411104
0.0094288
-0.00491762
0.00998532
-0.0057716
0.0106276
0.0114266
-0.00677104
-0.000119203
0.00474867
-0.00052898
0.00779701
-0.00107116
0.00854815
-0.00165908
0.00882066
-0.00227895
0.00916689
-0.00293591
0.00960432
-0.00363473
0.0101276
-0.00437821
0.0107288
-0.00517024
0.0114196
0.0122
-0.00594355
-1.316e-05
0.00476183
-0.000341974
0.00812582
-0.000810358
0.00901654
-0.00133622
0.00934652
-0.00189399
0.00972465
-0.00248674
0.0101971
-0.00311878
0.0107597
-0.00379163
0.0114016
-0.00450047
0.0121285
0.0129529
-0.00525345
7.30812e-05
0.00468875
-0.000139955
0.00833886
-0.000529834
0.00940642
-0.000989606
0.00980629
-0.00148157
0.0102166
-0.002007
0.0107225
-0.00256991
0.0113226
-0.00317465
0.0120064
-0.00382283
0.0127767
0.0136378
-0.00450765
0.000166652
0.00452209
7.49956e-05
0.00843052
-0.000234039
0.00971545
-0.000620864
0.0101931
-0.00104368
0.0106394
-0.0014995
0.0111783
-0.00199075
0.0118138
-0.0025231
0.0125387
-0.00309538
0.0133489
0.0142467
-0.0037043
0.000261935
0.00426016
0.000286405
0.00840605
7.69954e-05
0.00992486
-0.000232761
0.0105029
-0.000582821
0.0109895
-0.000966141
0.0115616
-0.00138183
0.0122295
-0.00183655
0.0129934
-0.00232884
0.0138412
0.0147725
-0.00285462
0.000353425
0.00390673
0.000507373
0.0082521
0.000408598
0.0100236
0.000176818
0.0107347
-0.000103248
0.0112696
-0.000409266
0.0118677
-0.000746019
0.0125663
-0.00111774
0.0133652
-0.00152745
0.0142509
0.0152111
-0.00196613
0.000435604
0.00347113
0.000727387
0.00796032
0.000746093
0.0100049
0.000607094
0.0108737
0.000405389
0.0114713
0.000170891
0.0121021
-8.97865e-05
0.012827
-0.000372753
0.0136481
-0.000691511
0.0145697
0.0155627
-0.00104307
0.0005014
0.00296973
0.000937312
0.00752441
0.00108673
0.00985551
0.00104744
0.0109129
0.000928832
0.0115899
0.000775981
0.012255
0.000599043
0.0130039
0.000397307
0.0138499
0.000174582
0.0147924
0.0158348
-9.75367e-05
0.000542778
0.00242695
0.0011269
0.00694029
0.00142232
0.00956009
0.00149461
0.0108406
0.00146409
0.0116204
0.00139344
0.0123256
0.0013007
0.0130966
0.00118835
0.0139622
0.00105342
0.0149274
0.0159799
0.00090835
0.000552861
0.00187409
0.00128376
0.00620939
0.00174065
0.00910321
0.00194064
0.0106407
0.00200719
0.0115538
0.00202162
0.0123112
0.00201394
0.0131043
0.00199178
0.0139844
0.00195579
0.0149633
0.016022
0.0019137
0.000528847
0.00134524
0.00139396
0.00534428
0.00202593
0.00847123
0.00237359
0.010293
0.0025513
0.0113761
0.00265646
0.0122061
0.00273533
0.0130254
0.00280353
0.0139162
0.00286346
0.0149034
0.0159693
0.00291613
0.000473317
0.000871926
0.00144261
0.00437499
0.0022572
0.00765664
0.00277754
0.00977265
0.0030863
0.0110674
0.00329177
0.0120006
0.00345989
0.0128573
0.00361781
0.0137583
0.00377137
0.0147499
0.0158199
0.0039208
0.000393673
0.000478253
0.00140683
0.00336183
0.00240798
0.00665549
0.00312903
0.0090516
0.00359615
0.0106003
0.0039182
0.0116785
0.00418125
0.0125943
0.00443004
0.0135095
0.00467826
0.0145016
0.0155733
0.00492482
0.000302184
0.000176069
0.0012817
0.00238231
0.00245014
0.00548705
0.00339472
0.00810701
0.00405505
0.00993994
0.00452031
0.0112133
0.00489163
0.0122229
0.00523376
0.0131673
0.00557789
0.0141575
0.0152271
0.00592412
0.000214167
-3.8098e-05
0.00108415
0.00151232
0.00235659
0.00421462
0.00353068
0.00693292
0.00442415
0.00904648
0.00507234
0.0105651
0.00557609
0.0117192
0.0060229
0.0127205
0.00646265
0.0137178
0.0147877
0.00690201
0.000141493
-0.000179591
0.000847345
0.00080647
0.00211234
0.00294962
0.00348555
0.00555971
0.00464598
0.00788605
0.00553038
0.00968069
0.00620975
0.0110398
0.00677957
0.0121507
0.00732876
0.0131686
0.0142532
0.0078633
8.68312e-05
-0.000266422
0.00061216
0.000281142
0.0017403
0.00182148
0.00321535
0.00408466
0.00464458
0.00645683
0.00582173
0.00850353
0.00674173
0.0101198
0.00748302
0.0114094
0.0081486
0.012503
0.0136082
0.00879353
4.78135e-05
-0.000314235
0.000412266
-8.33105e-05
0.00131269
0.00092105
0.00272509
0.00267226
0.00433849
0.00484343
0.00583982
0.0070022
0.00708151
0.00887814
0.00806718
0.0104238
0.00892029
0.0116499
0.0128743
0.00965429
2.16724e-05
-0.000335908
0.000261136
-0.000322774
0.000914228
0.000267958
0.00210368
0.00148281
0.00371288
0.00323422
0.00545323
0.00526185
0.00708058
0.0072508
0.00841651
0.00908782
0.00953902
0.0105274
0.0119057
0.0105076
6.12745e-06
-0.000342035
0.000155988
-0.000472635
0.000597271
-0.000173324
0.00148817
0.000591916
0.00288064
0.00184175
0.0046411
0.00350139
0.00653463
0.00535727
0.00832546
0.007297
0.00985739
0.00899544
0.0107683
0.0109948
-2.05615e-06
-0.000339979
8.71168e-05
-0.000561808
0.000370186
-0.000456393
0.000979443
-1.73409e-05
0.00203421
0.000786987
0.00357042
0.00196517
0.0054437
0.00348399
0.00749123
0.00524946
0.00959858
0.00688808
0.009127
0.0112398
-6.4622e-06
-0.000333517
4.20176e-05
-0.000610288
0.000214053
-0.000628429
0.000603176
-0.000406464
0.00132456
6.56064e-05
0.00248696
0.000802769
0.00407043
0.00190053
0.00603716
0.00328273
0.0083979
0.00452734
0.00700833
0.0105166
-9.57547e-06
-0.000323941
8.43378e-06
-0.000628297
0.000100942
-0.000720938
0.000332575
-0.000638097
0.000787609
-0.000389427
0.00156063
2.97443e-05
0.00274337
0.00071779
0.00433096
0.00169515
0.00641186
0.00244644
0.00463471
0.00878547
-1.44903e-05
-0.000309451
-2.45961e-05
-0.000618191
6.39592e-06
-0.00075193
0.000122961
-0.000754662
0.00038118
-0.000647647
0.000843584
-0.000432659
0.00162842
-6.70415e-05
0.00274509
0.000578474
0.00428128
0.000910245
0.00248979
0.00642621
-2.295e-05
-0.000286501
-6.14041e-05
-0.000579737
-8.43016e-05
-0.000729032
-5.88844e-05
-0.000780079
5.46868e-05
-0.000761218
0.000288214
-0.000666186
0.000736216
-0.000515043
0.00144335
-0.000128663
0.00240867
-5.50753e-05
0.00095376
0.0039447
-3.44226e-05
-0.000252079
-0.000102317
-0.000511843
-0.000175089
-0.00065626
-0.000226671
-0.000728497
-0.000233381
-0.000754508
-0.000164761
-0.000734807
3.48389e-05
-0.000714643
0.000382763
-0.000476588
0.000881272
-0.000553584
7.69308e-05
0.0017581
-4.74419e-05
-0.000204637
-0.000144252
-0.000415032
-0.000262421
-0.000538091
-0.00038062
-0.000610297
-0.000481974
-0.000653155
-0.000541652
-0.000675128
-0.000563035
-0.00069326
-0.000452155
-0.000587468
-0.000316147
-0.000689592
-0.000292018
5.28026e-05
-5.9913e-05
-0.000144724
-0.000182204
-0.000292742
-0.000338435
-0.00038186
-0.000510203
-0.000438529
-0.000684863
-0.000478494
-0.000850289
-0.000509703
-0.00101036
-0.000533185
-0.00109251
-0.000505319
-0.00121519
-0.000566911
-0.00038181
-0.0011254
-6.96848e-05
-7.50388e-05
-0.000210984
-0.000151442
-0.000394712
-0.000198133
-0.000604219
-0.000229022
-0.000830264
-0.000252449
-0.00106741
-0.000272557
-0.00131294
-0.000287654
-0.00153141
-0.000286853
-0.00178505
-0.000313271
-0.00025026
-0.0019166
-7.50416e-05
-0.000226489
-0.000424628
-0.000653657
-0.000906114
-0.00117868
-0.00146634
-0.0017532
-0.00206647
-0.00231673
-0.00235911
4.2369e-05
3.92315e-09
-0.00239822
3.91083e-05
5.98632e-09
-0.00243281
3.45843e-05
8.22308e-09
-0.00246332
3.04957e-05
1.05981e-08
-0.00249021
2.68773e-05
1.30766e-08
-0.00251393
2.37e-05
1.56221e-08
-0.00253483
2.08846e-05
1.8204e-08
-0.00255321
1.83595e-05
2.07841e-08
-0.00256929
1.6057e-05
2.33247e-08
-0.00258323
1.39192e-05
2.57849e-08
-0.00259516
1.18994e-05
2.81164e-08
-0.00260515
9.96066e-06
3.02602e-08
-0.00261326
8.07495e-06
3.21426e-08
-0.00261952
6.22573e-06
3.36711e-08
-0.00262397
4.41443e-06
3.47339e-08
-0.00262666
2.65399e-06
3.51979e-08
-0.00262759
8.95602e-07
3.48906e-08
-0.00262688
-7.38057e-07
3.3339e-08
-0.00262468
-2.23078e-06
3.18269e-08
-0.00262094
-3.77699e-06
3.03553e-08
-0.00261562
-5.34823e-06
2.84377e-08
-0.00260872
-6.922e-06
2.60493e-08
-0.00260023
-8.51682e-06
2.30821e-08
-0.00259012
-1.01304e-05
1.95504e-08
-0.00257837
-1.17646e-05
1.54722e-08
-0.00256496
-1.34217e-05
1.08724e-08
-0.00254986
-1.51035e-05
5.7737e-09
-0.00253305
-1.68113e-05
1.92338e-10
-0.0025145
-1.85461e-05
-5.68134e-09
-0.00249418
-2.03086e-05
-1.19457e-08
-0.00247206
-2.2099e-05
-1.84782e-08
-0.00244812
-2.39173e-05
-2.52082e-08
-0.00242232
-2.57628e-05
-3.20595e-08
-0.00239465
-2.76348e-05
-3.89511e-08
-0.00236507
-2.95318e-05
-4.57981e-08
-0.00233356
-3.14523e-05
-5.2513e-08
-0.00230011
-3.33943e-05
-5.90066e-08
-0.00226469
-3.53555e-05
-6.51895e-08
-0.00222729
-3.73332e-05
-7.09732e-08
-0.00218789
-3.93245e-05
-7.62715e-08
-0.00214648
-4.13263e-05
-8.10014e-08
-0.00210306
-4.33349e-05
-8.50843e-08
-0.00205762
-4.53469e-05
-8.84477e-08
-0.00201017
-4.73582e-05
-9.10253e-08
-0.00196072
-4.9365e-05
-9.2759e-08
-0.00190926
-5.13632e-05
-9.35994e-08
-0.00185582
-5.33487e-05
-9.35072e-08
-0.00180041
-5.53173e-05
-9.2455e-08
-0.00174305
-5.72652e-05
-9.04287e-08
-0.00168378
-5.91879e-05
-8.74238e-08
-0.00162261
-6.108e-05
-8.34545e-08
-0.00155958
-6.29513e-05
-7.86087e-08
-0.00149469
-6.48191e-05
-7.29658e-08
-0.00142806
-6.65631e-05
-6.6268e-08
-0.00135974
-6.82643e-05
-5.87496e-08
-0.00128976
-6.99237e-05
-5.04956e-08
-0.00121819
-7.15306e-05
-4.15652e-08
-0.00114508
-7.30803e-05
-3.20372e-08
-0.00107049
-7.4569e-05
-2.19918e-08
-0.000994484
-7.59937e-05
-1.15109e-08
-0.000917132
-7.73513e-05
-6.25881e-10
-0.000838502
-7.86394e-05
1.01033e-08
-0.000758668
-7.9856e-05
2.11349e-08
-0.000677701
-8.09991e-05
3.21589e-08
-0.000595676
-8.2068e-05
4.30745e-08
-0.000512662
-8.30678e-05
5.37725e-08
-0.000428734
-8.39918e-05
6.41103e-08
-0.000343981
-8.48268e-05
7.40029e-08
-0.000258478
-8.55861e-05
8.33686e-08
-0.0001723
-8.62705e-05
9.21192e-08
-8.55201e-05
-8.688e-05
1.00175e-07
1.78722e-06
-8.74148e-05
1.07466e-07
8.9543e-05
-8.78697e-05
1.13871e-07
0.000177681
-8.82575e-05
1.1943e-07
0.000266131
-8.8574e-05
1.24045e-07
0.000354824
-8.88207e-05
1.27681e-07
0.000443694
-8.89998e-05
1.30315e-07
0.000532675
-8.91136e-05
1.31933e-07
0.000621707
-8.91644e-05
1.32528e-07
0.00071073
-8.91549e-05
1.32104e-07
0.000799687
-8.90875e-05
1.30676e-07
0.000888523
-8.8965e-05
1.28267e-07
0.000977189
-8.87903e-05
1.24907e-07
0.00106563
-8.85661e-05
1.20636e-07
0.00115381
-8.82955e-05
1.15501e-07
0.00124169
-8.79814e-05
1.09557e-07
0.00132921
-8.76267e-05
1.02863e-07
0.00141635
-8.72346e-05
9.54843e-08
0.00150307
-8.6808e-05
8.74915e-08
0.00158934
-8.63499e-05
7.8958e-08
0.00167513
-8.58633e-05
6.99603e-08
0.00176042
-8.53512e-05
6.05769e-08
0.00184519
-8.48164e-05
5.08874e-08
0.00192941
-8.42618e-05
4.09716e-08
0.00201307
-8.36903e-05
3.0908e-08
0.00209615
-8.31048e-05
2.07728e-08
0.00217865
-8.25078e-05
1.06257e-08
0.00226055
-8.19023e-05
4.76259e-10
0.00234185
-8.12908e-05
-9.12451e-09
0.00242255
-8.0676e-05
-1.87236e-08
0.00250264
-8.00606e-05
-2.80185e-08
0.00258212
-7.94472e-05
-3.69394e-08
0.002661
-7.88385e-05
-4.54243e-08
0.00273929
-7.8237e-05
-5.34161e-08
0.002817
-7.76457e-05
-6.08615e-08
0.00289414
-7.70674e-05
-6.77109e-08
0.00297072
-7.6505e-05
-7.39184e-08
0.00304676
-7.59618e-05
-7.94413e-08
0.00312228
-7.54414e-05
-8.424e-08
0.00319732
-7.49479e-05
-8.82764e-08
0.0032719
-7.44854e-05
-9.1514e-08
0.00334605
-7.40604e-05
-9.39156e-08
0.00341982
-7.36774e-05
-9.54419e-08
0.00349327
-7.33499e-05
-9.60479e-08
0.00356644
-7.30769e-05
-9.56846e-08
0.00363944
-7.29006e-05
-9.42779e-08
0.00371231
-7.27824e-05
-9.176e-08
0.00378525
-7.28562e-05
-8.7883e-08
0.00385833
-7.29967e-05
-8.31587e-08
-7.3166e-05
-7.42595e-08
-0.00195151
7.72799e-05
-0.00198466
7.22599e-05
-0.00201427
6.41947e-05
-0.0020404
5.66278e-05
-0.0020633
4.9781e-05
-0.00208337
4.37625e-05
-0.00210088
3.83937e-05
-0.00211607
3.35491e-05
-0.00212911
2.91015e-05
-0.00214013
2.49414e-05
-0.00214922
2.09829e-05
-0.00215641
1.7156e-05
-0.00216174
1.34044e-05
-0.00216521
9.69488e-06
-0.00216683
6.0386e-06
-0.00216661
2.43263e-06
-0.00216466
-1.05774e-06
-0.00216134
-4.05762e-06
-0.0021564
-7.17339e-06
-0.00214984
-1.03324e-05
-0.00214163
-1.35623e-05
-0.00213183
-1.67199e-05
-0.00212042
-1.99238e-05
-0.00210739
-2.31628e-05
-0.00209271
-2.644e-05
-0.00207638
-2.97606e-05
-0.00205835
-3.31274e-05
-0.00203862
-3.65422e-05
-0.00201716
-4.00065e-05
-0.00199395
-4.3521e-05
-0.00196896
-4.70861e-05
-0.00194218
-5.07013e-05
-0.00191357
-5.43653e-05
-0.00188313
-5.8076e-05
-0.00185083
-6.18308e-05
-0.00181666
-6.56262e-05
-0.0017806
-6.94583e-05
-0.00174263
-7.33222e-05
-0.00170275
-7.72128e-05
-0.00166095
-8.11241e-05
-0.00161723
-8.50497e-05
-0.00157158
-8.89826e-05
-0.00152401
-9.29157e-05
-0.00147453
-9.68412e-05
-0.00142314
-0.000100751
-0.00136987
-0.000104638
-0.00131472
-0.000108492
-0.00125773
-0.000112307
-0.00119892
-0.000116074
-0.00113833
-0.000119785
-0.00107598
-0.000123428
-0.00101193
-0.000126999
-0.000946083
-0.000130668
-0.000878668
-0.000133977
-0.000809705
-0.000137228
-0.000739234
-0.000140395
-0.00066731
-0.000143454
-0.000593993
-0.000146397
-0.000519345
-0.000149217
-0.000443431
-0.000151908
-0.000366317
-0.000154465
-0.000288074
-0.000156883
-0.000208771
-0.000159159
-0.000128479
-0.000161291
-4.72703e-05
-0.000163277
3.47653e-05
-0.000165104
0.000117546
-0.000166773
0.000201022
-0.000168302
0.000285117
-0.000169681
0.000369757
-0.00017091
0.000454868
-0.000171991
0.000540377
-0.000172924
0.00062622
-0.000173713
0.000712323
-0.000174361
0.000798621
-0.000174871
0.000885048
-0.000175248
0.000971543
-0.000175495
0.00105805
-0.000175617
0.0011445
-0.000175618
0.00123085
-0.000175504
0.00131704
-0.000175279
0.00140303
-0.000174951
0.00148876
-0.000174523
0.00157419
-0.000174002
0.00165929
-0.000173393
0.00174401
-0.000172703
0.00182832
-0.000171937
0.00191219
-0.000171101
0.00199558
-0.000170201
0.00207848
-0.000169244
0.00216085
-0.000168234
0.00224267
-0.000167177
0.00232394
-0.00016608
0.00240462
-0.000164947
0.00248472
-0.000163785
0.00256421
-0.000162598
0.00264309
-0.000161392
0.00272137
-0.000160173
0.00279902
-0.000158945
0.00287606
-0.000157713
0.00295248
-0.000156483
0.00302829
-0.00015526
0.0031035
-0.000154048
0.00317812
-0.000152853
0.00325215
-0.000151681
0.00332562
-0.000150537
0.00339854
-0.000149426
0.00347093
-0.000148355
0.00354282
-0.00014733
0.00361424
-0.00014636
0.0036852
-0.000145451
0.00375576
-0.000144618
0.00382595
-0.000143866
0.00389582
-0.000143223
0.00396542
-0.000142681
0.00403484
-0.00014232
0.00410413
-0.00014207
0.0041734
-0.00014213
0.00424278
-0.000142372
-0.000142774
-0.00115136
0.000103245
-0.00117237
9.32683e-05
-0.00119352
8.5343e-05
-0.00121273
7.58375e-05
-0.00122967
6.67183e-05
-0.00124447
5.85663e-05
-0.00125717
5.10964e-05
-0.00126787
4.42504e-05
-0.00127665
3.78805e-05
-0.00128356
3.18484e-05
-0.00128863
2.60511e-05
-0.00129187
2.03984e-05
-0.00129327
1.48034e-05
-0.00129278
9.20019e-06
-0.00129027
3.53768e-06
-0.00128601
-1.82861e-06
-0.00128051
-6.55662e-06
-0.00127319
-1.13837e-05
-0.00126413
-1.6229e-05
-0.00125336
-2.11063e-05
-0.00124086
-2.60586e-05
-0.00122673
-3.08533e-05
-0.00121093
-3.57231e-05
-0.00119346
-4.06298e-05
-0.00117432
-4.55824e-05
-0.00115349
-5.05892e-05
-0.00113097
-5.5654e-05
-0.00110673
-6.07785e-05
-0.00108077
-6.59639e-05
-0.00105308
-7.12114e-05
-0.00102365
-7.65214e-05
-0.000992454
-8.1893e-05
-0.000959495
-8.73239e-05
-0.000924761
-9.28107e-05
-0.000888242
-9.83493e-05
-0.000849934
-0.000103935
-0.000809832
-0.00010956
-0.000767935
-0.00011522
-0.000724243
-0.000120905
-0.00067876
-0.000126607
-0.000631493
-0.000132317
-0.000582452
-0.000138024
-0.000531648
-0.000143719
-0.0004791
-0.00014939
-0.000424825
-0.000155026
-0.000368848
-0.000160615
-0.000311193
-0.000166147
-0.000251891
-0.000171609
-0.000190974
-0.000176991
-0.000128476
-0.000182283
-6.4414e-05
-0.00018749
1.21135e-06
-0.000192624
6.78948e-05
-0.000197352
0.000136041
-0.000202124
0.000205554
-0.00020674
0.000276347
-0.000211189
0.000348357
-0.000215464
0.000421518
-0.000219558
0.000495762
-0.000223461
0.000571021
-0.000227167
0.000647226
-0.00023067
0.000724307
-0.000233964
0.000802193
-0.000237045
0.000880813
-0.00023991
0.000960093
-0.000242557
0.00103997
-0.00024498
0.00112038
-0.000247179
0.00120123
-0.000249159
0.00128247
-0.00025092
0.00136402
-0.000252463
0.00144582
-0.000253791
0.00152781
-0.000254908
0.00160991
-0.000255816
0.00169207
-0.000256522
0.00177423
-0.000257031
0.00185633
-0.000257349
0.00193832
-0.000257482
0.00202014
-0.000257438
0.00210175
-0.000257223
0.00218309
-0.000256846
0.00226412
-0.000256315
0.00234481
-0.000255638
0.00242511
-0.000254822
0.00250499
-0.000253878
0.00258441
-0.000252813
0.00266334
-0.000251636
0.00274176
-0.000250356
0.00281964
-0.000248982
0.00289696
-0.000247522
0.0029737
-0.000245984
0.00304985
-0.000244378
0.00312538
-0.000242712
0.00320029
-0.000240993
0.00327458
-0.00023923
0.00334822
-0.000237431
0.00342123
-0.000235604
0.00349359
-0.000233756
0.00356532
-0.000231896
0.0036364
-0.000230029
0.00370685
-0.000228165
0.00377668
-0.000226309
0.00384589
-0.00022447
0.00391449
-0.000222654
0.00398251
-0.00022087
0.00404995
-0.000219124
0.00411684
-0.000217424
0.00418319
-0.000215779
0.00424904
-0.000214198
0.0043144
-0.000212689
0.0043793
-0.000211265
0.00444379
-0.000209934
0.00450788
-0.000208716
0.00457163
-0.000207616
0.00463508
-0.000206674
0.00469828
-0.000205875
0.00476127
-0.000205316
0.00482413
-0.000204929
0.00488688
-0.000204879
0.00494965
-0.000205145
-0.000205788
4.57774e-05
0.000110284
2.89559e-05
0.00011009
1.46529e-05
9.96461e-05
1.06093e-06
8.94295e-05
-1.21662e-05
7.99454e-05
-2.41956e-05
7.05957e-05
-3.47184e-05
6.16193e-05
-4.35911e-05
5.3123e-05
-5.06984e-05
4.49878e-05
-5.59413e-05
3.70914e-05
-5.92685e-05
2.93783e-05
-6.06531e-05
2.17829e-05
-6.00357e-05
1.41859e-05
-5.72513e-05
6.41582e-06
-5.22303e-05
-1.48333e-06
-4.59705e-05
-8.08836e-06
-3.7669e-05
-1.48582e-05
-2.74714e-05
-2.15813e-05
-1.54211e-05
-2.82792e-05
-1.49532e-06
-3.50321e-05
1.4041e-05
-4.15949e-05
3.13992e-05
-4.82115e-05
5.05351e-05
-5.4859e-05
7.14447e-05