/*--------------------------------*- C++ -*----------------------------------*\
  =========                 |
  \\      /  F ield         | OpenFOAM: The Open Source CFD Toolbox
   \\    /   O peration     | Website:  https://openfoam.org
    \\  /    A nd           | Version:  7
     \\/     M anipulation  |
\*---------------------------------------------------------------------------*/
FoamFile
{
    version     2.0;
    format      ascii;
    class       volVectorField;
    location    "40";
    object      U;
}
// * * * * * * * * * * * * * * * * * * * * * * * * * * * * * * * * * * * * * //

dimensions      [0 1 -1 0 0 0 0];

internalField   nonuniform List<vector> 
14000
(
(-0.00752796 0.00522315 -5.0576e-22)
(-0.0297054 0.00913872 1.00817e-21)
(-0.061397 0.0100712 6.48301e-20)
(-0.0907567 0.00980957 1.13028e-20)
(-0.117137 0.00907904 2.19898e-20)
(-0.140363 0.008196 -1.27209e-20)
(-0.160167 0.00716199 -2.35807e-20)
(-0.175657 0.00563102 2.28883e-20)
(-0.189563 0.00523183 2.24173e-20)
(-0.19493 0.0021521 1.75102e-20)
(-0.0086121 0.0152371 -8.22177e-20)
(-0.0306426 0.0267821 5.43992e-20)
(-0.0606916 0.0295866 -7.40342e-20)
(-0.0878018 0.028845 3.95983e-21)
(-0.111392 0.0266983 -5.27936e-20)
(-0.131318 0.0240988 6.48368e-21)
(-0.147638 0.0212134 3.38774e-20)
(-0.157589 0.0163059 -1.48982e-19)
(-0.16855 0.015932 3.67529e-20)
(-0.16554 0.00548791 1.53216e-22)
(-0.0106586 0.0240263 1.5301e-19)
(-0.0324659 0.0425873 -1.35655e-20)
(-0.0593793 0.0472473 1.02858e-19)
(-0.0820949 0.0461237 -9.63195e-21)
(-0.100158 0.0426755 -1.12537e-19)
(-0.113254 0.0384411 8.30878e-20)
(-0.122942 0.0343164 -3.57229e-20)
(-0.120303 0.0253983 3.58393e-20)
(-0.126203 0.0271784 -1.08788e-19)
(-0.104597 0.00700237 1.54477e-19)
(-0.0134599 0.0309942 1.7991e-20)
(-0.0350785 0.0555245 -2.4333e-19)
(-0.0576173 0.061898 -1.44767e-19)
(-0.0739628 0.0604601 7.61553e-20)
(-0.0839182 0.0558508 9.04741e-20)
(-0.0861724 0.0500685 -1.50556e-19)
(-0.0865263 0.0450628 6.44789e-20)
(-0.0621371 0.0325557 4.28905e-20)
(-0.0609868 0.0372591 1.72149e-19)
(-0.00543625 0.0108946 -2.22716e-19)
(-0.016783 0.0358279 -7.6971e-20)
(-0.0383332 0.0648403 1.19802e-19)
(-0.0555187 0.0725349 3.5056e-19)
(-0.0636206 0.0707134 -1.7484e-19)
(-0.0629677 0.0649813 1.62263e-19)
(-0.0499959 0.0580796 2.73549e-19)
(-0.0372401 0.050234 -7.67605e-21)
(0.0179602 0.0388473 7.73687e-21)
(0.0286173 0.0426222 -2.5387e-19)
(0.140981 0.0214618 1.2009e-19)
(-0.0204319 0.038524 -1.82292e-19)
(-0.0419974 0.0701265 1.07941e-19)
(-0.0529538 0.0784122 -4.89113e-19)
(-0.0507993 0.0759423 2.38143e-19)
(-0.0363323 0.0688835 3.34118e-20)
(-0.00395341 0.0618248 -3.08595e-19)
(0.0297356 0.0487125 -9.05702e-20)
(0.128444 0.0451943 9.05305e-20)
(0.144457 0.03764 1.71793e-19)
(0.350568 0.0342221 -9.56448e-20)
(-0.0242837 0.0393431 -1.99204e-20)
(-0.0456548 0.0713306 -3.39419e-19)
(-0.0491898 0.0791615 3.35422e-19)
(-0.0341081 0.0755846 -2.41161e-19)
(-0.000725282 0.0672265 5.98406e-20)
(0.0578179 0.0611512 2.00492e-19)
(0.123419 0.0426123 -3.67373e-19)
(0.274748 0.0518893 -1.53845e-19)
(0.305732 0.0309379 1.30843e-19)
(0.610384 0.0465108 7.64669e-20)
(-0.028283 0.0387032 1.99723e-19)
(-0.0485454 0.068711 5.85659e-19)
(-0.0424147 0.074899 -5.65285e-19)
(-0.00981455 0.0698173 1.38307e-19)
(0.0505277 0.0608019 3.46243e-19)
(0.145581 0.056601 -1.76324e-19)
(0.261734 0.0401197 -5.61859e-20)
(0.454687 0.0566938 -2.08539e-19)
(0.537916 0.0399731 2.48153e-19)
(0.871488 0.0677769 -1.74545e-19)
(-0.0323371 0.0369922 -3.66194e-19)
(-0.0493952 0.0627891 1.012e-19)
(-0.02922 0.0662758 2.11417e-19)
(0.0288795 0.0598955 -1.05147e-19)
(0.128662 0.0523805 -3.55497e-19)
(0.273092 0.0515523 4.21202e-19)
(0.452004 0.0509969 2.6737e-19)
(0.661996 0.0645402 2.41329e-19)
(0.816534 0.0697433 -1.9647e-19)
(1.07946 0.0953248 1.48807e-19)
(-0.0360993 0.0344423 -9.06855e-20)
(-0.0461774 0.0541912 -2.9572e-19)
(-0.00434554 0.0545175 -1.75539e-19)
(0.0918571 0.0486462 2.06376e-19)
(0.246277 0.047498 3.96398e-20)
(0.44921 0.055429 -2.48203e-19)
(0.673998 0.0741029 2.89455e-19)
(0.881863 0.0870135 -4.06624e-19)
(1.05464 0.111114 -2.29112e-19)
(1.19782 0.115695 7.99681e-20)
(-0.0389061 0.0311503 2.21884e-19)
(-0.0358579 0.0434986 3.11483e-19)
(0.0392774 0.0415688 1.29608e-19)
(0.190098 0.0408382 1.80616e-19)
(0.409206 0.0529453 -1.04737e-19)
(0.659482 0.0764223 -2.68215e-19)
(0.889779 0.105278 1.07065e-19)
(1.06982 0.121939 1.31571e-19)
(1.18943 0.144063 4.3797e-19)
(1.23362 0.119307 -2.57806e-19)
(-0.0397925 0.0270639 3.30151e-19)
(-0.0144456 0.0312709 -4.04175e-20)
(0.109811 0.0305455 2.9842e-19)
(0.330154 0.0430504 -1.32723e-19)
(0.605363 0.0737701 4.06119e-19)
(0.865247 0.110487 1.61213e-19)
(1.06091 0.139792 1.99694e-19)
(1.18381 0.154036 -3.26801e-19)
(1.23617 0.157019 -1.3393e-19)
(1.26072 0.142473 1.28773e-19)
(-0.0374233 0.0220093 2.3152e-20)
(0.0229008 0.0184131 -2.90938e-19)
(0.214428 0.0265273 -2.76708e-19)
(0.505338 0.0607288 -6.99476e-20)
(0.802491 0.107983 -1.10473e-19)
(1.02947 0.147564 1.20952e-19)
(1.16746 0.169809 -5.00438e-19)
(1.23214 0.173162 3.35192e-19)
(1.25545 0.171127 -3.24405e-21)
(1.25928 0.152533 -3.97008e-19)
(-0.0300763 0.0158681 -4.70181e-19)
(0.081613 0.00706635 -9.56999e-20)
(0.354352 0.0357229 -1.016e-20)
(0.691807 0.0933028 2.96817e-20)
(0.967598 0.147093 1.56071e-19)
(1.13845 0.180219 -4.88266e-19)
(1.22108 0.191222 4.78912e-19)
(1.2515 0.188926 -1.05478e-19)
(1.25439 0.179401 6.22564e-20)
(1.24835 0.161986 1.02236e-19)
(-0.0156401 0.00881322 1.26161e-20)
(0.166345 0.00187274 3.85489e-19)
(0.518293 0.0613272 9.81288e-20)
(0.860811 0.134172 -5.27075e-20)
(1.08714 0.184096 -4.43105e-20)
(1.20155 0.206386 2.84592e-19)
(1.24496 0.208705 -9.54596e-22)
(1.2525 0.200609 2.09439e-19)
(1.24647 0.187764 -6.56221e-20)
(1.23987 0.172031 -2.99905e-21)
(0.00866791 0.00163561 7.67356e-20)
(0.277792 0.00952535 -1.39573e-19)
(0.684084 0.100398 1.10248e-19)
(0.995949 0.176834 1.45807e-19)
(1.16537 0.216878 -9.56921e-20)
(1.234 0.228391 -1.53925e-20)
(1.25023 0.223164 -2.78983e-19)
(1.24602 0.211525 -1.83913e-19)
(1.23651 0.195899 2.25625e-19)
(1.2263 0.180703 -1.4323e-19)
(0.0457125 -0.00347582 9.91617e-20)
(0.409199 0.034768 1.7678e-19)
(0.831929 0.147125 1.24347e-19)
(1.09488 0.218289 -1.88285e-19)
(1.21188 0.24611 2.23158e-19)
(1.24614 0.247505 -1.19057e-19)
(1.24599 0.23666 -3.00068e-20)
(1.23547 0.221777 -1.09516e-20)
(1.22376 0.204155 -6.40425e-20)
(1.21412 0.189957 2.02539e-20)
(0.0968447 -0.00298627 2.50804e-19)
(0.5471 0.0766315 -1.3967e-19)
(0.95275 0.197223 8.75312e-20)
(1.16179 0.257635 1.02594e-19)
(1.2352 0.272551 -7.35841e-20)
(1.24582 0.265205 1.12058e-19)
(1.23591 0.249594 4.11491e-20)
(1.2224 0.231994 5.51167e-20)
(1.21064 0.212864 3.55373e-20)
(1.19981 0.19838 5.69428e-20)
(0.160837 0.00666496 -9.22881e-20)
(0.677165 0.130391 -1.35651e-19)
(1.04513 0.24837 -1.06601e-19)
(1.20245 0.294589 -1.01508e-19)
(1.24213 0.297025 -4.49774e-20)
(1.23728 0.282091 4.96507e-20)
(1.22226 0.262435 -2.4623e-20)
(1.20769 0.242177 -2.08875e-23)
(1.19565 0.221495 -2.29732e-20)
(1.18521 0.206369 4.35891e-21)
(0.233795 0.0275077 2.4696e-20)
(0.789297 0.191213 -5.37067e-21)
(1.11073 0.299184 2.4087e-20)
(1.22236 0.329292 1.88994e-20)
(1.23729 0.320044 1.4267e-20)
(1.22319 0.298551 -3.84975e-20)
(1.2058 0.275093 1.8013e-20)
(1.19108 0.252155 -1.77286e-20)
(1.17974 0.229934 -5.71913e-21)
(1.16957 0.213445 -9.3521e-21)
(0.31012 0.059491 1.27101e-21)
(0.878918 0.255414 -7.70301e-22)
(1.15219 0.348643 -5.27104e-21)
(1.22596 0.361924 6.31467e-20)
(1.2238 0.341907 -1.72593e-20)
(1.20474 0.314514 -1.65233e-20)
(1.18683 0.287387 2.19666e-21)
(1.17277 0.26169 -1.92241e-21)
(1.16214 0.23764 -6.89963e-21)
(1.15288 0.219555 -1.48755e-20)
(0.383739 0.10099 -1.06218e-19)
(0.945102 0.320422 2.02363e-20)
(1.17255 0.395912 -1.72751e-19)
(1.21656 0.392434 -6.09806e-20)
(1.20354 0.362574 -1.87764e-20)
(1.18261 0.32974 -2.49129e-21)
(1.16541 0.298961 -1.29948e-20)
(1.15256 0.270439 -7.60901e-21)
(1.14318 0.244495 6.50272e-21)
(1.13462 0.224582 1.02679e-20)
(0.449105 0.149687 1.83241e-19)
(0.988283 0.384165 -9.41001e-20)
(1.17465 0.440084 1.31458e-19)
(1.19651 0.420561 5.31653e-20)
(1.17766 0.381765 -1.92097e-20)
(1.15708 0.343782 6.50392e-20)
(1.14159 0.30937 -1.6181e-20)
(1.13063 0.278106 1.99642e-20)
(1.12259 0.250448 3.5094e-21)
(1.11469 0.228449 9.40119e-21)
(0.501941 0.202993 -1.12303e-19)
(1.00977 0.44486 4.2774e-19)
(1.16102 0.480317 -7.93249e-20)
(1.16757 0.445862 -4.53208e-20)
(1.14692 0.398957 9.73957e-20)
(1.12846 0.356107 -4.1143e-20)
(1.11553 0.318135 -1.51918e-20)
(1.10695 0.284343 -9.74901e-21)
(1.10036 0.255419 -5.17988e-21)
(1.09384 0.231123 -8.6346e-21)
(0.53956 0.258138 -2.04061e-19)
(1.01127 0.50086 -2.29623e-19)
(1.13371 0.515691 1.41849e-19)
(1.13111 0.467682 3.91654e-20)
(1.11201 0.413472 -4.99283e-20)
(1.09713 0.366162 -1.2431e-20)
(1.08746 0.324883 1.94607e-20)
(1.08144 0.288918 1.73704e-21)
(1.07651 0.258783 -1.17601e-20)
(1.07238 0.23244 -3.87398e-21)
(0.560824 0.312232 7.13312e-20)
(0.994706 0.550602 2.98009e-19)
(1.09452 0.545174 -5.87372e-20)
(1.08854 0.485201 4.9697e-21)
(1.07359 0.424594 -4.55791e-21)
(1.06325 0.373338 9.66925e-21)
(1.05743 0.329314 1.85057e-20)
(1.05424 0.291501 -6.03695e-21)
(1.0516 0.260265 1.36189e-20)
(1.05033 0.232308 -1.60012e-20)
(0.565938 0.362493 -5.26981e-19)
(0.961847 0.592457 3.11399e-20)
(1.04551 0.567768 -1.12315e-19)
(1.04098 0.497384 2.18394e-20)
(1.03201 0.431676 -4.15698e-21)
(1.02708 0.377126 4.48392e-20)
(1.02573 0.330933 -4.0009e-20)
(1.02587 0.291765 2.43875e-20)
(1.02618 0.259577 -2.38198e-20)
(1.02842 0.230657 -7.94845e-20)
(0.555976 0.406636 2.66406e-19)
(0.914252 0.624343 -2.54978e-19)
(0.988986 0.582607 -1.87398e-20)
(0.989388 0.503437 -1.32465e-20)
(0.987862 0.433945 7.86073e-20)
(0.989174 0.376985 -2.01993e-21)
(0.992761 0.32933 6.30734e-20)
(0.996888 0.28931 7.13271e-21)
(1.00113 0.25654 4.23495e-21)
(1.00748 0.227581 1.12574e-19)
(0.53206 0.442967 1.51387e-19)
(0.854413 0.644683 -2.35004e-20)
(0.92697 0.588441 -4.34477e-21)
(0.934842 0.502906 6.64025e-20)
(0.941887 0.430865 -2.52535e-20)
(0.95 0.372423 -9.93667e-20)
(0.959027 0.323973 -6.42747e-20)
(0.967899 0.283548 6.884e-21)
(0.977148 0.250631 8.94759e-20)
(0.987882 0.223433 -7.23322e-20)
(0.495377 0.468924 -4.27613e-22)
(0.786368 0.653138 -2.23239e-20)
(0.86133 0.584359 -9.3919e-20)
(0.878493 0.495231 6.48412e-21)
(0.894874 0.422002 1.41121e-19)
(0.910208 0.363094 -4.52058e-20)
(0.925073 0.314529 1.68848e-19)
(0.93931 0.273908 -2.32779e-19)
(0.954133 0.240585 -1.58063e-19)
(0.968477 0.217031 -3.30805e-20)
(0.44827 0.481259 2.00592e-20)
(0.712657 0.648169 4.97774e-20)
(0.793603 0.570255 2.98014e-20)
(0.821537 0.47997 -5.06577e-20)
(0.847706 0.407075 -2.15434e-19)
(0.870525 0.348813 2.05029e-19)
(0.891548 0.301014 7.89299e-20)
(0.91135 0.260796 1.0243e-19)
(0.931416 0.225947 2.90795e-19)
(0.946619 0.199742 -7.03256e-20)
(0.394902 0.479614 1.2433e-19)
(0.63628 0.629349 -2.17826e-20)
(0.725673 0.545933 -5.71022e-20)
(0.765233 0.456868 1.07764e-19)
(0.801349 0.385893 1.93678e-19)
(0.831793 0.329437 -4.57393e-19)
(0.859164 0.283415 -7.16498e-20)
(0.884242 0.245195 -1.85153e-19)
(0.90741 0.212914 3.76519e-20)
(0.92214 0.188048 -1.34236e-19)
(0.33843 0.463608 -2.53933e-19)
(0.559895 0.596335 -1.17569e-19)
(0.659334 0.511458 3.87706e-19)
(0.71087 0.425928 -2.22692e-19)
(0.756803 0.358462 -3.20004e-19)
(0.794806 0.304918 2.99875e-19)
(0.828482 0.261244 -2.76052e-19)
(0.858681 0.224735 1.36567e-19)
(0.88519 0.193805 -1.69038e-19)
(0.902063 0.170219 2.67214e-19)
(0.281989 0.433667 -1.05993e-19)
(0.486301 0.549506 5.77056e-19)
(0.596394 0.467099 -6.02595e-19)
(0.65974 0.387365 2.49326e-20)
(0.715076 0.325029 1.96779e-19)
(0.760268 0.27576 -1.2717e-20)
(0.799664 0.235822 4.22029e-19)
(0.834023 0.202658 -3.67475e-19)
(0.863271 0.174547 2.67003e-19)
(0.883255 0.152473 -1.80205e-19)
(0.228398 0.390813 -1.73743e-19)
(0.418009 0.489593 9.51663e-20)
(0.538578 0.413369 2.60914e-19)
(0.613109 0.341581 2.99687e-19)
(0.677209 0.285811 -6.88484e-20)
(0.729133 0.24178 2.83201e-19)
(0.773853 0.206101 2.42551e-20)
(0.812038 0.176524 3.02532e-20)
(0.843978 0.151646 -1.08371e-19)
(0.86702 0.132217 -5.97928e-21)
(0.180063 0.336615 5.24789e-19)
(0.357277 0.417798 -3.6416e-19)
(0.487548 0.351054 -4.86193e-19)
(0.57214 0.289283 2.74283e-20)
(0.644009 0.24155 -1.42706e-19)
(0.701812 0.203976 1.18927e-19)
(0.751069 0.173612 -4.33872e-19)
(0.792513 0.148442 1.27575e-19)
(0.827045 0.127175 3.62243e-19)
(0.853194 0.110393 -1.75116e-19)
(0.138862 0.27275 7.19259e-20)
(0.30613 0.335877 4.53659e-19)
(0.444886 0.281227 3.27202e-19)
(0.537978 0.231262 -3.05868e-19)
(0.616424 0.192743 1.90213e-19)
(0.679183 0.162461 -8.6179e-20)
(0.732201 0.138038 -5.59495e-20)
(0.77632 0.117847 -2.66159e-20)
(0.813088 0.100786 -1.12217e-19)
(0.84202 0.0871968 2.06642e-19)
(0.106354 0.200859 -3.52581e-19)
(0.266228 0.245867 -4.10606e-19)
(0.411802 0.205343 -6.53902e-21)
(0.511503 0.168631 2.91841e-19)
(0.595068 0.140371 -5.36419e-20)
(0.661667 0.11818 -5.75815e-20)
(0.71757 0.100297 8.35933e-20)
(0.763749 0.0855133 -4.52035e-20)
(0.802325 0.072991 -3.58045e-20)
(0.833571 0.062935 3.72741e-20)
(0.0838834 0.122978 5.12757e-20)
(0.238883 0.149936 -6.74096e-20)
(0.389228 0.125012 2.9071e-19)
(0.493451 0.102573 -7.12472e-20)
(0.58052 0.0853099 1.34041e-19)
(0.64974 0.0717641 -3.60059e-20)
(0.707598 0.0608594 -5.59953e-20)
(0.755173 0.0518486 8.94397e-20)
(0.79501 0.0441969 1.25017e-20)
(0.827924 0.0380064 -3.19893e-20)
(0.0724042 0.0414076 -1.38995e-21)
(0.224985 0.0503849 1.81729e-21)
(0.377784 0.0419743 1.35185e-19)
(0.484302 0.0344258 -6.74554e-20)
(0.57315 0.0286199 3.09019e-20)
(0.643698 0.0240654 -1.63507e-20)
(0.702542 0.0204003 1.94486e-20)
(0.75082 0.0173722 -2.54432e-20)
(0.791304 0.0147968 -1.54683e-20)
(0.825095 0.0127043 5.85424e-24)
(0.0724041 -0.0414075 1.38995e-21)
(0.224985 -0.0503848 -1.81729e-21)
(0.377784 -0.0419742 -1.35185e-19)
(0.484302 -0.0344257 -2.40865e-20)
(0.57315 -0.0286198 -4.0752e-20)
(0.643698 -0.0240653 2.17803e-20)
(0.702542 -0.0204002 3.44339e-20)
(0.75082 -0.0173721 -3.16062e-20)
(0.791304 -0.0147967 -2.76308e-20)
(0.825095 -0.0127042 -1.88889e-20)
(0.0838834 -0.122977 1.64139e-19)
(0.238883 -0.149935 -1.166e-19)
(0.389228 -0.125012 1.6597e-19)
(0.493451 -0.102573 -2.20315e-21)
(0.58052 -0.0853098 9.64892e-20)
(0.64974 -0.071764 -7.86167e-21)
(0.707598 -0.0608593 -4.85823e-20)
(0.755173 -0.0518485 1.95955e-19)
(0.79501 -0.0441969 -4.59207e-20)
(0.827924 -0.0380063 -1.24419e-21)
(0.106354 -0.200859 -3.51968e-19)
(0.266228 -0.245866 4.11133e-20)
(0.411802 -0.205343 -2.23469e-19)
(0.511503 -0.168631 2.0692e-20)
(0.595068 -0.140371 1.91938e-19)
(0.661666 -0.11818 -1.29516e-19)
(0.71757 -0.100297 5.13402e-20)
(0.763749 -0.0855132 -4.78074e-20)
(0.802325 -0.0729909 1.2647e-19)
(0.833571 -0.0629349 -1.67807e-19)
(0.138862 -0.27275 -5.10685e-21)
(0.30613 -0.335877 5.03453e-19)
(0.444886 -0.281227 2.74101e-19)
(0.537978 -0.231262 -1.33235e-19)
(0.616424 -0.192743 -1.56741e-19)
(0.679183 -0.162461 2.34375e-19)
(0.732201 -0.138038 -8.97104e-20)
(0.77632 -0.117847 -5.60013e-20)
(0.813088 -0.100786 -1.85879e-19)
(0.84202 -0.0871967 2.36696e-19)
(0.180063 -0.336615 1.54205e-19)
(0.357277 -0.417798 -2.22904e-19)
(0.487548 -0.351054 -6.14534e-19)
(0.57214 -0.289283 2.91984e-19)
(0.644009 -0.24155 -2.59989e-19)
(0.701812 -0.203976 -3.66066e-19)
(0.751069 -0.173611 2.86688e-20)
(0.792513 -0.148442 -1.19239e-20)
(0.827045 -0.127175 2.64822e-19)
(0.853194 -0.110393 -1.2311e-19)
(0.228398 -0.390812 2.5955e-19)
(0.418009 -0.489593 -1.48457e-19)
(0.538578 -0.413368 7.56784e-19)
(0.613109 -0.341581 -3.53616e-19)
(0.677209 -0.285811 -3.42643e-20)
(0.729133 -0.24178 4.01373e-19)
(0.773853 -0.206101 1.23684e-19)
(0.812038 -0.176524 -1.02444e-19)
(0.843977 -0.151646 -1.7073e-19)
(0.86702 -0.132217 9.14861e-20)
(0.281989 -0.433667 -5.44633e-21)
(0.486301 -0.549505 3.94163e-19)
(0.596394 -0.467098 -4.33099e-19)
(0.65974 -0.387365 2.96952e-19)
(0.715076 -0.325029 -7.31395e-20)
(0.760268 -0.27576 -2.39916e-19)
(0.799664 -0.235822 3.93288e-19)
(0.834023 -0.202658 1.51103e-19)
(0.86327 -0.174547 -1.31217e-19)
(0.883255 -0.152473 -6.5627e-20)
(0.33843 -0.463608 -1.29559e-19)
(0.559895 -0.596335 -6.1923e-19)
(0.659334 -0.511458 6.01563e-19)
(0.71087 -0.425927 -1.6031e-19)
(0.756803 -0.358461 -3.48652e-19)
(0.794806 -0.304918 1.67344e-19)
(0.828482 -0.261244 3.33233e-20)
(0.858681 -0.224734 1.82692e-19)
(0.88519 -0.193805 -2.10762e-19)
(0.902063 -0.170219 1.40121e-19)
(0.394902 -0.479614 2.23399e-19)
(0.63628 -0.629349 -4.58031e-20)
(0.725673 -0.545933 -2.12877e-19)
(0.765233 -0.456868 8.56934e-20)
(0.801349 -0.385893 3.31643e-19)
(0.831793 -0.329437 -3.66096e-19)
(0.859164 -0.283415 -2.35917e-19)
(0.884242 -0.245195 -1.90656e-19)
(0.90741 -0.212914 1.53625e-19)
(0.92214 -0.188048 -1.14745e-19)
(0.44827 -0.481259 -5.62813e-20)
(0.712657 -0.648169 8.29093e-20)
(0.793603 -0.570254 4.9978e-20)
(0.821537 -0.47997 -1.38642e-19)
(0.847706 -0.407075 -2.25558e-20)
(0.870525 -0.348813 2.02991e-19)
(0.891548 -0.301014 -2.08079e-19)
(0.91135 -0.260795 2.94095e-19)
(0.931416 -0.225947 1.44666e-19)
(0.946619 -0.199742 -4.954e-20)
(0.495377 -0.468924 3.29336e-21)
(0.786367 -0.653138 -1.82218e-20)
(0.86133 -0.584358 -8.54046e-20)
(0.878493 -0.495231 -5.51263e-20)
(0.894874 -0.422002 5.61552e-20)
(0.910208 -0.363094 1.46356e-19)
(0.925073 -0.314529 -6.3169e-20)
(0.939309 -0.273908 -7.59899e-20)
(0.954133 -0.240585 -2.80582e-19)
(0.968476 -0.217031 1.57754e-19)
(0.53206 -0.442967 1.96671e-19)
(0.854413 -0.644683 1.68131e-20)
(0.92697 -0.588441 -1.88771e-20)
(0.934841 -0.502906 4.41872e-20)
(0.941887 -0.430865 -1.31909e-19)
(0.95 -0.372423 -6.96667e-20)
(0.959027 -0.323973 -8.91784e-20)
(0.967899 -0.283548 1.64054e-19)
(0.977148 -0.250631 6.63278e-20)
(0.987882 -0.223433 -6.27806e-20)
(0.555976 -0.406636 9.93975e-20)
(0.914252 -0.624343 -1.529e-19)
(0.988986 -0.582606 -2.96008e-20)
(0.989387 -0.503437 3.91883e-21)
(0.987862 -0.433945 3.20764e-20)
(0.989174 -0.376985 -4.44613e-21)
(0.992761 -0.32933 1.56409e-19)
(0.996888 -0.28931 -1.30615e-19)
(1.00113 -0.25654 -1.08886e-20)
(1.00748 -0.227581 1.78115e-19)
(0.565938 -0.362493 -3.85832e-19)
(0.961847 -0.592457 -1.10802e-19)
(1.04551 -0.567768 -1.0595e-20)
(1.04098 -0.497384 5.4354e-23)
(1.03201 -0.431676 1.17498e-20)
(1.02708 -0.377126 5.98849e-20)
(1.02573 -0.330933 -9.4947e-20)
(1.02587 -0.291765 2.22902e-20)
(1.02618 -0.259577 -2.96099e-20)
(1.02842 -0.230657 -4.83272e-20)
(0.560824 -0.312232 9.41917e-21)
(0.994706 -0.550602 3.05407e-19)
(1.09452 -0.545174 3.40933e-20)
(1.08854 -0.485201 -1.86586e-20)
(1.07359 -0.424594 -1.90171e-21)
(1.06325 -0.373337 1.45474e-20)
(1.05743 -0.329314 1.96526e-20)
(1.05424 -0.291501 -1.79461e-20)
(1.0516 -0.260265 4.2589e-22)
(1.05033 -0.232308 -1.93546e-21)
(0.53956 -0.258138 7.58408e-20)
(1.01127 -0.50086 -1.41421e-19)
(1.1337 -0.515691 5.21154e-20)
(1.13111 -0.467682 6.79171e-20)
(1.11201 -0.413472 -4.87531e-20)
(1.09713 -0.366162 -3.49563e-21)
(1.08746 -0.324883 -2.45663e-20)
(1.08144 -0.288918 5.48352e-21)
(1.07651 -0.258783 -8.81004e-21)
(1.07238 -0.23244 1.16193e-20)
(0.501941 -0.202993 1.03989e-19)
(1.00977 -0.44486 1.79102e-19)
(1.16102 -0.480317 1.02909e-19)
(1.16757 -0.445862 -1.13254e-19)
(1.14692 -0.398957 1.06182e-19)
(1.12846 -0.356107 -4.72354e-20)
(1.11553 -0.318135 -7.40157e-21)
(1.10695 -0.284343 -6.05335e-21)
(1.10036 -0.255419 -1.97583e-21)
(1.09384 -0.231123 -1.08518e-20)
(0.449105 -0.149687 2.66685e-19)
(0.988283 -0.384165 -1.40886e-19)
(1.17465 -0.440084 8.08878e-20)
(1.19651 -0.420561 7.56447e-20)
(1.17766 -0.381765 -3.47297e-20)
(1.15708 -0.343782 5.39686e-20)
(1.14159 -0.30937 1.7191e-20)
(1.13063 -0.278106 1.90776e-20)
(1.12259 -0.250448 1.13458e-20)
(1.11469 -0.228449 8.11038e-21)
(0.383739 -0.10099 -9.74681e-20)
(0.945102 -0.320422 -1.36165e-19)
(1.17255 -0.395912 -9.08116e-20)
(1.21656 -0.392434 -8.38085e-20)
(1.20354 -0.362574 -2.99811e-20)
(1.18261 -0.32974 3.89447e-20)
(1.16541 -0.298961 -1.60713e-20)
(1.15256 -0.270439 3.17598e-21)
(1.14318 -0.244495 -9.5397e-21)
(1.13462 -0.224582 5.2717e-21)
(0.31012 -0.059491 2.52409e-20)
(0.878918 -0.255414 -5.51115e-21)
(1.15219 -0.348643 2.29091e-20)
(1.22596 -0.361924 1.52227e-20)
(1.2238 -0.341907 1.3313e-20)
(1.20474 -0.314514 -3.1362e-20)
(1.18683 -0.287387 1.42501e-20)
(1.17277 -0.26169 -1.34707e-20)
(1.16214 -0.23764 -3.45935e-21)
(1.15288 -0.219555 -4.75383e-21)
(0.233794 -0.0275077 1.04717e-21)
(0.789296 -0.191213 -8.18615e-22)
(1.11073 -0.299184 -5.44517e-21)
(1.22236 -0.329292 6.94169e-20)
(1.23729 -0.320044 -1.89798e-20)
(1.22318 -0.298551 -2.20199e-20)
(1.2058 -0.275093 4.01198e-21)
(1.19108 -0.252155 -4.11573e-21)
(1.17974 -0.229934 -9.87082e-21)
(1.16957 -0.213445 -2.21596e-20)
(0.160837 -0.00666495 -1.01179e-19)
(0.677165 -0.130391 2.20136e-20)
(1.04513 -0.24837 -1.89311e-19)
(1.20245 -0.294589 -7.20894e-20)
(1.24213 -0.297025 -2.67085e-20)
(1.23728 -0.282091 -7.85189e-21)
(1.22226 -0.262435 -2.07721e-20)
(1.20769 -0.242177 -1.98811e-20)
(1.19565 -0.221495 6.20184e-21)
(1.18521 -0.20637 1.54183e-20)
(0.0968447 0.00298627 1.71218e-19)
(0.5471 -0.0766314 -9.64987e-20)
(0.95275 -0.197223 1.48487e-19)
(1.16179 -0.257635 7.64273e-20)
(1.2352 -0.272551 -4.49355e-20)
(1.24582 -0.265205 1.40319e-19)
(1.23591 -0.249594 -2.93809e-20)
(1.2224 -0.231994 5.44784e-20)
(1.21064 -0.212865 3.72269e-21)
(1.19981 -0.19838 5.46659e-20)
(0.0457124 0.00347582 -1.05769e-19)
(0.409199 -0.034768 4.40758e-19)
(0.831928 -0.147125 -9.69714e-20)
(1.09488 -0.218289 -8.26662e-20)
(1.21188 -0.24611 2.12099e-19)
(1.24614 -0.247506 -9.47001e-20)
(1.24599 -0.23666 -4.92962e-20)
(1.23547 -0.221777 -2.68324e-20)
(1.22376 -0.204155 -1.02097e-19)
(1.21412 -0.189957 3.63202e-20)
(0.00866793 -0.0016356 -1.91867e-19)
(0.277792 -0.00952534 -2.62117e-19)
(0.684084 -0.100398 2.07411e-19)
(0.995948 -0.176834 5.83234e-20)
(1.16537 -0.216878 -1.51611e-19)
(1.234 -0.228391 -1.54206e-19)
(1.25023 -0.223164 8.20516e-21)
(1.24602 -0.211525 -1.00704e-19)
(1.23651 -0.1959 1.54909e-19)
(1.2263 -0.180704 -2.23564e-20)
(-0.0156401 -0.00881321 8.57133e-20)
(0.166345 -0.00187274 4.10194e-19)
(0.518293 -0.0613271 -5.13654e-20)
(0.860811 -0.134172 1.45447e-20)
(1.08714 -0.184096 -3.43597e-20)
(1.20155 -0.206386 2.01386e-19)
(1.24496 -0.208705 6.87354e-20)
(1.2525 -0.200609 1.17109e-19)
(1.24647 -0.187764 -1.07883e-19)
(1.23987 -0.172031 6.47225e-20)
(-0.0300763 -0.0158681 -6.34189e-19)
(0.081613 -0.00706635 1.61883e-19)
(0.354352 -0.0357228 -2.06246e-19)
(0.691807 -0.0933028 2.49431e-19)
(0.967598 -0.147092 -6.16092e-20)
(1.13845 -0.180219 -3.52911e-19)
(1.22108 -0.191222 1.89387e-19)
(1.2515 -0.188926 -7.13593e-20)
(1.25439 -0.179401 6.45074e-20)
(1.24835 -0.161986 1.94391e-19)
(-0.0374232 -0.0220093 2.96867e-19)
(0.0229008 -0.0184131 -4.47229e-19)
(0.214428 -0.0265273 -5.53706e-20)
(0.505338 -0.0607288 -2.76954e-19)
(0.80249 -0.107983 -3.42787e-19)
(1.02947 -0.147564 1.69085e-19)
(1.16746 -0.169809 -2.10709e-19)
(1.23214 -0.173162 -2.5511e-20)
(1.25545 -0.171127 -2.03885e-20)
(1.25928 -0.152533 -2.48343e-19)
(-0.0397925 -0.0270639 2.763e-19)
(-0.0144455 -0.0312709 -1.05932e-19)
(0.109811 -0.0305454 1.01126e-19)
(0.330154 -0.0430503 -1.50283e-19)
(0.605363 -0.0737699 1.47782e-19)
(0.865246 -0.110487 2.74283e-19)
(1.06091 -0.139792 1.62808e-19)
(1.18381 -0.154036 -7.92787e-21)
(1.23617 -0.157019 -1.82137e-19)
(1.26072 -0.142473 1.46938e-19)
(-0.0389061 -0.0311503 3.22091e-19)
(-0.0358578 -0.0434985 1.03328e-19)
(0.0392774 -0.0415686 1.73419e-19)
(0.190098 -0.040838 5.09124e-20)
(0.409205 -0.052945 -2.48188e-19)
(0.659481 -0.076422 7.44356e-20)
(0.889779 -0.105278 -2.83349e-19)
(1.06982 -0.121939 3.92588e-19)
(1.18943 -0.144063 2.35554e-19)
(1.23362 -0.119308 6.33007e-20)
(-0.0360993 -0.0344423 -4.55758e-19)
(-0.0461774 -0.054191 -1.13548e-19)
(-0.00434559 -0.0545172 -1.32332e-19)
(0.091857 -0.0486458 7.70738e-20)
(0.246277 -0.0474976 3.13463e-19)
(0.44921 -0.0554286 -2.5239e-19)
(0.673997 -0.0741025 -1.09677e-19)
(0.881862 -0.0870133 -1.38514e-19)
(1.05464 -0.111114 -4.43042e-19)
(1.19782 -0.115696 1.12659e-19)
(-0.032337 -0.0369921 -1.86219e-19)
(-0.0493952 -0.0627888 4.07401e-20)
(-0.0292201 -0.0662753 2.04005e-20)
(0.0288793 -0.0598949 -1.24758e-19)
(0.128662 -0.0523799 -1.9978e-19)
(0.273092 -0.0515516 5.27997e-19)
(0.452003 -0.0509963 7.4188e-20)
(0.661995 -0.0645398 2.31017e-19)
(0.816532 -0.069743 -4.54036e-20)
(1.07946 -0.095325 1.74163e-19)
(-0.028283 -0.038703 3.32266e-19)
(-0.0485454 -0.0687105 7.4408e-20)
(-0.0424148 -0.0748983 -3.51541e-19)
(-0.00981486 -0.0698165 1.95931e-19)
(0.0505272 -0.0608011 3.18977e-19)
(0.145581 -0.0566001 -3.10887e-19)
(0.261733 -0.0401189 2.65146e-19)
(0.454686 -0.0566931 -1.4431e-19)
(0.537914 -0.0399726 2.09699e-19)
(0.871486 -0.0677768 -3.29975e-19)
(-0.0242836 -0.0393428 6.39842e-20)
(-0.0456547 -0.07133 -4.79336e-19)
(-0.0491899 -0.0791606 4.6602e-19)
(-0.0341084 -0.0755836 -2.6679e-20)
(-0.00072587 -0.0672254 -1.551e-19)
(0.0578171 -0.0611501 -5.31829e-21)
(0.123418 -0.0426111 -4.08287e-19)
(0.274747 -0.0518883 3.67284e-19)
(0.30573 -0.0309372 -2.93674e-19)
(0.610381 -0.0465105 2.04985e-19)
(-0.0204318 -0.0385236 9.59693e-20)
(-0.0419974 -0.0701256 -4.81914e-20)
(-0.0529539 -0.0784111 -1.65015e-19)
(-0.0507997 -0.0759411 -2.02601e-19)
(-0.0363329 -0.0688823 4.59194e-20)
(-0.00395423 -0.0618235 -2.25479e-19)
(0.0297346 -0.0487111 -7.50214e-21)
(0.128442 -0.0451931 -3.41315e-20)
(0.144456 -0.0376391 1.01219e-19)
(0.350565 -0.0342216 4.63147e-21)
(-0.0167829 -0.0358274 -2.75287e-19)
(-0.0383331 -0.0648393 1.97019e-19)
(-0.0555188 -0.0725336 2.77199e-19)
(-0.0636209 -0.0707121 -1.19681e-20)
(-0.0629682 -0.0649799 9.15421e-20)
(-0.0499966 -0.0580781 -8.60136e-20)
(-0.037241 -0.0502326 3.43965e-19)
(0.017959 -0.0388459 -1.10866e-19)
(0.028616 -0.0426212 -3.51969e-19)
(0.140979 -0.0214612 1.66774e-19)
(-0.0134598 -0.0309936 -1.94783e-20)
(-0.0350784 -0.0555234 -2.21811e-19)
(-0.0576174 -0.0618966 -1.75399e-19)
(-0.0739631 -0.0604586 1.70916e-19)
(-0.0839187 -0.0558493 -1.26005e-19)
(-0.0861729 -0.050067 5.73979e-20)
(-0.086527 -0.0450614 4.30053e-20)
(-0.062138 -0.0325544 2.01008e-20)
(-0.0609878 -0.0372583 1.04325e-19)
(-0.00543733 -0.0108943 -1.97293e-19)
(-0.0106585 -0.0240256 1.51936e-19)
(-0.0324659 -0.042586 1.91738e-19)
(-0.0593794 -0.0472458 5.97449e-21)
(-0.0820951 -0.0461222 -1.53723e-19)
(-0.100158 -0.0426739 2.51207e-20)
(-0.113255 -0.0384396 3.94221e-20)
(-0.122942 -0.034315 -5.9832e-20)
(-0.120304 -0.0253971 3.12139e-20)
(-0.126203 -0.0271777 3.20437e-20)
(-0.104598 -0.00700233 -3.29089e-20)
(-0.00861205 -0.0152363 -2.16687e-20)
(-0.0306425 -0.0267807 2.9885e-20)
(-0.0606917 -0.029585 -1.33439e-19)
(-0.0878019 -0.0288434 3.46749e-20)
(-0.111392 -0.0266967 -7.64298e-20)
(-0.131318 -0.0240973 2.07058e-20)
(-0.147638 -0.021212 3.72909e-20)
(-0.157589 -0.0163048 -6.67432e-20)
(-0.16855 -0.0159314 -7.74412e-21)
(-0.16554 -0.00548812 2.98324e-20)
(-0.00752794 -0.00522235 -1.49285e-20)
(-0.0297054 -0.00913732 3.1878e-21)
(-0.061397 -0.0100696 7.11264e-20)
(-0.0907568 -0.00980795 2.82338e-20)
(-0.117137 -0.00907744 -1.66179e-20)
(-0.140363 -0.00819447 9.43264e-21)
(-0.160167 -0.00716063 -1.26352e-20)
(-0.175657 -0.00562998 1.94874e-20)
(-0.189563 -0.00523135 1.29071e-20)
(-0.19493 -0.00215245 5.5333e-24)
(-0.19873 0.00320959 -5.13563e-20)
(-0.202547 0.00295129 3.67566e-20)
(-0.205849 0.00261769 5.03569e-22)
(-0.208766 0.00232159 -6.36382e-21)
(-0.211367 0.00206156 -1.27077e-20)
(-0.213686 0.00183408 -1.46102e-20)
(-0.215755 0.00163363 -2.49913e-20)
(-0.217602 0.00145471 4.44351e-20)
(-0.219247 0.00129226 -2.51942e-20)
(-0.220707 0.00114199 5.16628e-20)
(-0.221992 0.0010005 -3.25333e-20)
(-0.22311 0.000865205 -4.69436e-21)
(-0.224067 0.000734317 -1.14841e-20)
(-0.224866 0.000606838 2.97742e-20)
(-0.225508 0.000482869 -1.96104e-20)
(-0.225998 0.000363894 1.99961e-20)
(-0.226335 0.000251226 -1.39046e-20)
(-0.226529 0.000141315 -1.17069e-20)
(-0.22659 2.79006e-05 7.5397e-21)
(-0.226519 -8.72082e-05 -5.00833e-21)
(-0.226313 -0.000203046 1.86739e-20)
(-0.225971 -0.000318603 -8.50676e-21)
(-0.225491 -0.000434898 -1.25935e-20)
(-0.224871 -0.000552176 7.8083e-21)
(-0.224109 -0.000670768 -1.05954e-20)
(-0.223203 -0.000790963 1.24686e-20)
(-0.222149 -0.000912964 3.4581e-21)
(-0.220946 -0.00103692 -9.96455e-21)
(-0.219591 -0.00116292 1.78714e-20)
(-0.218081 -0.00129105 1.8238e-20)
(-0.216412 -0.00142132 -1.89705e-20)
(-0.214583 -0.00155373 7.98689e-21)
(-0.212591 -0.00168824 9.80251e-21)
(-0.210432 -0.00182481 -1.75991e-20)
(-0.208104 -0.00196332 2.0557e-20)
(-0.205604 -0.00210368 -2.01048e-20)
(-0.20293 -0.00224574 2.39398e-20)
(-0.20008 -0.00238933 -1.09107e-20)
(-0.197052 -0.00253427 -4.2231e-21)
(-0.193844 -0.00268036 7.60265e-22)
(-0.190455 -0.00282735 6.38902e-21)
(-0.186883 -0.00297501 3.7158e-21)
(-0.183127 -0.00312309 8.56218e-23)
(-0.179188 -0.0032713 -9.83349e-21)
(-0.175065 -0.00341937 -1.11409e-21)
(-0.170757 -0.00356701 -3.14857e-21)
(-0.166267 -0.00371392 6.64045e-21)
(-0.161594 -0.00385982 -5.6656e-22)
(-0.15674 -0.00400442 7.12216e-21)
(-0.151706 -0.00414734 -1.36256e-20)
(-0.146495 -0.00428798 6.88816e-21)
(-0.141109 -0.00442612 5.31003e-22)
(-0.135547 -0.0045629 -1.16675e-20)
(-0.129816 -0.00469332 5.61027e-21)
(-0.123923 -0.00482116 2.54657e-21)
(-0.117871 -0.00494591 1.46025e-21)
(-0.111664 -0.00506683 -3.42964e-21)
(-0.105306 -0.00518363 2.02325e-22)
(-0.0988029 -0.00529605 1.0705e-20)
(-0.0921592 -0.00540387 -1.56156e-20)
(-0.0853808 -0.00550688 1.07553e-20)
(-0.0784732 -0.00560489 1.46575e-21)
(-0.0714426 -0.00569774 -1.4789e-21)
(-0.0642951 -0.00578533 -1.12201e-21)
(-0.0570373 -0.00586777 1.21868e-21)
(-0.049675 -0.00594564 -2.3151e-21)
(-0.0422142 -0.00601796 -2.1771e-22)
(-0.0346625 -0.00608335 -5.74659e-22)
(-0.0270269 -0.00614312 2.95938e-22)
(-0.019314 -0.00619753 1.56271e-21)
(-0.0115302 -0.00624657 -2.93303e-21)
(-0.00368292 -0.00629018 -7.76619e-22)
(0.00422313 -0.00632794 2.41015e-21)
(0.0121816 -0.00636088 1.67858e-21)
(0.0201842 -0.00638869 -2.00404e-21)
(0.0282258 -0.00641139 8.22294e-22)