/*--------------------------------*- C++ -*----------------------------------*\
  =========                 |
  \\      /  F ield         | OpenFOAM: The Open Source CFD Toolbox
   \\    /   O peration     | Website:  https://openfoam.org
    \\  /    A nd           | Version:  7
     \\/     M anipulation  |
\*---------------------------------------------------------------------------*/
FoamFile
{
    version     2.0;
    format      ascii;
    class       surfaceScalarField;
    location    "54.999";
    object      phi;
}
// * * * * * * * * * * * * * * * * * * * * * * * * * * * * * * * * * * * * * //

dimensions      [0 3 -1 0 0 0 0];

internalField   nonuniform List<scalar> 
22551
(
-8.73399e-06
-5.26564e-08
-2.97723e-05
-1.39666e-07
-6.00819e-05
-2.14569e-07
-9.73799e-05
-2.78075e-07
-0.000139981
-3.32504e-07
-0.000186677
-3.81223e-07
-4.27855e-07
-9.18879e-05
-9.07642e-09
-0.000273661
-1.89238e-08
-0.000492639
-2.32263e-08
-0.000723204
-2.44315e-08
-0.000956413
-2.43747e-08
-0.00119066
-2.39841e-08
-0.00142644
-2.35631e-08
-2.31666e-08
-9.18879e-05
9.18789e-05
-0.000273661
0.000181754
-0.000492639
0.000218955
-0.000723204
0.00023054
-0.000956413
0.000233185
-0.00119066
0.000234219
-0.00142644
0.000235763
-0.00166459
0.000238127
-0.00190588
0.000241262
-0.002151
0.000245098
-0.0024006
0.00024958
-0.00265528
0.000254663
-0.00291562
0.00026031
-0.00318213
0.00026649
-0.00345533
0.000273183
-0.00373573
0.000280376
-0.0040238
0.000288056
-0.00431999
0.000296166
-0.00462464
0.000304634
0.000313601
-0.00493826
-9.14471e-05
0.000183326
-0.000272594
0.000362901
-0.000490998
0.000437359
-0.00072107
0.000460612
-0.000953832
0.000465947
-0.00118765
0.000468032
-0.00142301
0.000471128
-0.00166074
0.00047586
-0.00190161
0.000482131
-0.00214632
0.000489803
-0.0023955
0.000498766
-0.00264977
0.000508929
-0.00290968
0.000520219
-0.00317576
0.000532575
-0.00344854
0.000545954
-0.00372849
0.000560335
-0.00401612
0.000575686
-0.00431186
0.000591898
-0.00461605
0.000608828
0.000626749
-0.0049292
-9.05664e-05
0.000273892
-0.000270461
0.000542795
-0.000487717
0.000654615
-0.000716803
0.000689698
-0.000948672
0.000697816
-0.00118163
0.00070099
-0.00141615
0.00070565
-0.00165305
0.000712757
-0.00189309
0.000722168
-0.00213696
0.000733678
-0.00238532
0.00074712
-0.00263875
0.000762359
-0.00289781
0.000779285
-0.00316305
0.000797808
-0.00343495
0.000817863
-0.00371403
0.000839416
-0.00400077
0.000862424
-0.0042956
0.000886724
-0.00459887
0.000912103
0.000938951
-0.00491108
-8.92482e-05
0.000363141
-0.000267265
0.000720813
-0.000482798
0.000870147
-0.000710404
0.000917304
-0.000940934
0.000928346
-0.00117261
0.000932664
-0.00140587
0.000938911
-0.00164152
0.000948404
-0.00188031
0.000960961
-0.00212294
0.000976309
-0.00237005
0.000994227
-0.00262222
0.00101454
-0.00288003
0.00103709
-0.00314398
0.00106176
-0.0034146
0.00108848
-0.00369237
0.00111718
-0.00397777
0.00114782
-0.00427123
0.00118019
-0.00457313
0.001214
0.00124974
-0.00488392
-8.74958e-05
0.000450636
-0.000263011
0.000896327
-0.000476244
0.00108338
-0.000701877
0.00114294
-0.000930623
0.00115709
-0.00116059
0.00116263
-0.00139217
0.00117049
-0.00162615
0.00118239
-0.00186329
0.0011981
-0.00210427
0.00121729
-0.00234971
0.00123968
-0.00260022
0.00126504
-0.00285634
0.00129321
-0.0031186
0.00132402
-0.0033875
0.00135737
-0.00366351
0.0013932
-0.00394713
0.00143144
-0.00423879
0.00147185
-0.00453885
0.00151406
0.00155863
-0.00484775
-8.53139e-05
0.00053595
-0.000257702
0.00106872
-0.00046806
0.00129374
-0.000691225
0.0013661
-0.000917742
0.00138361
-0.00114558
0.00139046
-0.00137506
0.00139998
-0.00160697
0.00141429
-0.00184204
0.00143317
-0.00208095
0.0014562
-0.00232433
0.00148305
-0.00257276
0.00151347
-0.00282679
0.00154723
-0.00308692
0.00158416
-0.00335367
0.00162412
-0.00362751
0.00166704
-0.00390891
0.00171284
-0.00419831
0.00176125
-0.00449608
0.00181183
0.00186517
-0.00480261
-8.27082e-05
0.000618658
-0.000251347
0.00123735
-0.00045825
0.00150064
-0.000678451
0.0015863
-0.000902298
0.00160746
-0.00112758
0.00161575
-0.00135456
0.00162696
-0.00158399
0.00164372
-0.00181659
0.00166577
-0.00205303
0.00169264
-0.00229393
0.00172396
-0.00253987
0.00175941
-0.00279138
0.00179875
-0.00304899
0.00184176
-0.00331317
0.0018883
-0.00358439
0.00193826
-0.00386314
0.00199159
-0.00414983
0.00204795
-0.00444486
0.00210685
0.00216887
-0.00474856
-7.96859e-05
0.000698344
-0.000243954
0.00140162
-0.000446821
0.00170351
-0.000663562
0.00180305
-0.000884297
0.00182819
-0.00110661
0.00183806
-0.00133068
0.00185103
-0.00155722
0.00187026
-0.00178694
0.00189549
-0.00202051
0.00192621
-0.00225854
0.00196198
-0.00250158
0.00200246
-0.00275018
0.00204735
-0.00300483
0.00209642
-0.00326602
0.00214949
-0.00353421
0.00220646
-0.00380987
0.00226724
-0.00409343
0.00233151
-0.00438525
0.00239867
0.00246929
-0.00468567
-7.62554e-05
0.0007746
-0.000235533
0.0015609
-0.000433781
0.00190176
-0.000646564
0.00201583
-0.000863747
0.00204537
-0.00108268
0.002057
-0.00130344
0.00207179
-0.00152669
0.00209351
-0.00175314
0.00212194
-0.00198344
0.00215651
-0.00221819
0.00219673
-0.00245793
0.0022422
-0.00270321
0.00229262
-0.0029545
0.00234771
-0.00321229
0.00240728
-0.00347703
0.0024712
-0.00374917
0.00253938
-0.00402916
0.00261149
-0.00431734
0.00268686
0.00276597
-0.00461401
-7.2427e-05
0.000847027
-0.000226097
0.00171457
-0.000419139
0.0020948
-0.000627464
0.00222415
-0.000840659
0.00225857
-0.0010558
0.00227214
-0.00127284
0.00228883
-0.00149242
0.00231308
-0.0017152
0.00234473
-0.00194184
0.00238315
-0.00217292
0.0024278
-0.00240897
0.00247826
-0.00265052
0.00253417
-0.00289806
0.00259525
-0.00315204
0.00266126
-0.00341291
0.00273207
-0.00368112
0.00280759
-0.0039571
0.00288747
-0.00424121
0.00297097
0.00305844
-0.00453369
-6.82121e-05
0.000915239
-0.000215661
0.00186202
-0.000402907
0.00228204
-0.000606271
0.00242752
-0.000815041
0.00246734
-0.00102599
0.00248309
-0.00123893
0.00250176
-0.00145443
0.00252858
-0.00167317
0.00256347
-0.00189576
0.00260574
-0.00212278
0.00265482
-0.00235475
0.00271023
-0.00259218
0.0027716
-0.00283555
0.00283862
-0.00308532
0.00291102
-0.00334192
0.00298867
-0.00360579
0.00307146
-0.00387735
0.00315904
-0.00415697
0.00325059
0.0033463
-0.00444482
-6.36245e-05
0.000978863
-0.000204242
0.00200264
-0.000385098
0.0024629
-0.000582995
0.00262542
-0.000786906
0.00267125
-0.000993266
0.00268945
-0.00120171
0.00271021
-0.00141277
0.00273964
-0.00162707
0.00277778
-0.00184524
0.0028239
-0.00206781
0.00287739
-0.00229532
0.00293774
-0.00252824
0.00300453
-0.00276706
0.00307744
-0.00301222
0.00315618
-0.00326414
0.00324059
-0.00352326
0.00333058
-0.00379001
0.00342579
-0.00406472
0.0035253
0.00362911
-0.00434753
-5.86795e-05
0.00103754
-0.000191859
0.00213582
-0.000365727
0.00263677
-0.000557649
0.00281734
-0.000756267
0.00286986
-0.000957642
0.00289083
-0.00116122
0.00291378
-0.00136745
0.00294587
-0.00157696
0.00298728
-0.00179032
0.00303727
-0.00200808
0.00309515
-0.00223074
0.0031604
-0.00245878
0.00323257
-0.00269265
0.00331131
-0.0029328
0.00339633
-0.00317965
0.00348744
-0.00343363
0.00358455
-0.00369517
0.00368733
-0.0039646
0.00379474
0.00390649
-0.00424198
-5.33948e-05
0.00109094
-0.000178537
0.00226096
-0.000344813
0.00280304
-0.000530244
0.00300277
-0.000723137
0.00306276
-0.000919141
0.00308683
-0.00111748
0.00311212
-0.00131853
0.00314692
-0.00152287
0.00319163
-0.00173107
0.00324546
-0.00194364
0.00330772
-0.00216108
0.00337784
-0.00238385
0.00345534
-0.00261241
0.00353987
-0.00284716
0.00363108
-0.00308854
0.00372881
-0.00333698
0.00383299
-0.00359294
0.00394329
-0.00385674
0.00405853
0.00417809
-0.00412834
-4.77903e-05
0.00113873
-0.000164304
0.00237747
-0.000322379
0.00296112
-0.000500798
0.00318119
-0.000687534
0.00324949
-0.000877784
0.00327708
-0.00107052
0.00330486
-0.00126603
0.00334243
-0.00146485
0.00339045
-0.00166753
0.00344814
-0.00187456
0.00351475
-0.00208641
0.0035897
-0.00230355
0.00367248
-0.00252641
0.00376272
-0.00275539
0.00386006
-0.00299089
0.00396432
-0.00323338
0.00407548
-0.0034834
0.00419331
-0.00374128
0.00431641
0.00444362
-0.00400681
-4.18886e-05
0.00118062
-0.000149192
0.00248478
-0.00029845
0.00311038
-0.00046933
0.00335207
-0.000649476
0.00342964
-0.000833596
0.0034612
-0.00102038
0.00349164
-0.00121
0.00353205
-0.00140296
0.00358341
-0.00159976
0.00364495
-0.0018009
0.00371589
-0.00200683
0.00379562
-0.00221797
0.00388363
-0.00243476
0.00397951
-0.0026576
0.0040829
-0.00288686
0.00419357
-0.00312298
0.00431161
-0.00336667
0.004437
-0.00361839
0.00456812
0.0047029
-0.00387767
-3.57147e-05
0.00121633
-0.000133238
0.0025823
-0.000273056
0.00325019
-0.00043586
0.00351487
-0.000608981
0.00360276
-0.000786601
0.00363882
-0.000967091
0.00367213
-0.00115049
0.00371545
-0.00133725
0.00377016
-0.00152785
0.00383555
-0.00172276
0.0039108
-0.00192239
0.00399526
-0.00212718
0.00408841
-0.00233753
0.00418986
-0.00255384
0.00429921
-0.00277642
0.00441616
-0.00300568
0.00454086
-0.00324249
0.00467381
-0.00348794
0.00481357
0.00495614
-0.00374118
-2.92971e-05
0.00124563
-0.000116486
0.00266949
-0.000246234
0.00337994
-0.000400414
0.00366905
-0.000566072
0.00376842
-0.000736829
0.00380958
-0.000910691
0.00384599
-0.00108754
0.0038923
-0.00126778
0.0039504
-0.00145186
0.00401962
-0.0016402
0.00409914
-0.00183322
0.00418828
-0.00203132
0.00428651
-0.00223489
0.00439343
-0.00244436
0.00450867
-0.00266004
0.00463184
-0.00288215
0.00476298
-0.00311153
0.00490319
-0.00335042
0.00505246
0.00520387
-0.00359815
-2.26686e-05
0.0012683
-9.89861e-05
0.00274581
-0.000218022
0.00349898
-0.000363022
0.00381405
-0.000520776
0.00392617
-0.000684308
0.00397311
-0.000851219
0.0040129
-0.00102122
0.0040623
-0.00119462
0.00412381
-0.00137186
0.00419686
-0.00155333
0.00428061
-0.00173941
0.00437437
-0.00193048
0.00447758
-0.00212689
0.00458984
-0.00232904
0.00471082
-0.00253726
0.00484006
-0.00275152
0.00497723
-0.00297189
0.00512357
-0.00320228
0.00528285
0.00545001
-0.00344843
-1.58712e-05
0.00128417
-8.07935e-05
0.00281073
-0.000188465
0.00360665
-0.000323718
0.00394931
-0.000473123
0.00407558
-0.000629072
0.00412906
-0.00078872
0.00417255
-0.000951562
0.00422514
-0.00111784
0.00429009
-0.00128794
0.00436695
-0.00146223
0.0044549
-0.00164107
0.00455321
-0.0018248
0.00466131
-0.00201374
0.00477879
-0.0022083
0.00490537
-0.00240896
0.00504073
-0.00261612
0.00518439
-0.00282921
0.00533665
-0.00304846
0.0055021
0.00569906
-0.0032975
-8.97455e-06
0.00129314
-6.1958e-05
0.00286371
-0.000157612
0.0037023
-0.000282549
0.00407424
-0.000423146
0.00421618
-0.000571156
0.00427707
-0.000723238
0.00432463
-0.000878642
0.00438054
-0.00103751
0.00444896
-0.00120019
0.00452963
-0.00136701
0.00462173
-0.00153832
0.00472451
-0.00171441
0.0048374
-0.0018956
0.00495998
-0.0020822
0.00509197
-0.00227461
0.00523315
-0.00247324
0.00538302
-0.00267835
0.00554176
-0.00288997
0.00571373
0.00590349
-0.00309441
-2.20289e-06
0.00129535
-4.24914e-05
0.002904
-0.00012552
0.00378533
-0.000239571
0.00418829
-0.000370888
0.00434749
-0.000510601
0.00441678
-0.000654824
0.00446886
-0.000802517
0.00452824
-0.000953711
0.00460015
-0.0011087
0.00468461
-0.00126778
0.00478082
-0.00143128
0.00488801
-0.00159946
0.00500559
-0.0017726
0.00513311
-0.00195093
0.0052703
-0.00213476
0.00541697
-0.00232448
0.00557274
-0.00252043
0.00573771
-0.0027217
0.005915
0.00610834
-0.00292655
5.20391e-06
0.00129014
-2.22752e-05
0.00293148
-9.22635e-05
0.00385532
-0.000194857
0.00429089
-0.000316396
0.00446903
-0.000447452
0.00454784
-0.000583529
0.00460493
-0.000723252
0.00466796
-0.000866519
0.00474342
-0.00101356
0.00483166
-0.00116466
0.00493191
-0.00132009
0.00504343
-0.0014801
0.0051656
-0.00164494
0.00529795
-0.00181484
0.0054402
-0.00199009
0.00559222
-0.00217117
0.00575382
-0.00235868
0.00592522
-0.0025524
0.00610872
0.00630527
-0.00274934
1.24748e-05
0.00127767
-4.88734e-09
0.00294396
-5.79877e-05
0.0039133
-0.000148469
0.00438137
-0.000259724
0.00458029
-0.000381762
0.00466988
-0.000509412
0.00473258
-0.000640918
0.00479947
-0.000776019
0.00487852
-0.000914884
0.00497052
-0.00105776
0.00507478
-0.00120488
0.00519056
-0.0013565
0.00531722
-0.00151285
0.0054543
-0.00167417
0.00560153
-0.00184078
0.00575883
-0.00201321
0.00592625
-0.00219197
0.00610398
-0.00237633
0.00629308
0.00649281
-0.00256386
1.91782e-05
0.00125849
1.841e-05
0.00294473
-2.28732e-05
0.00395459
-0.000100547
0.00445904
-0.000200965
0.0046807
-0.000313593
0.0047825
-0.000432534
0.00485153
-0.000555587
0.00492252
-0.0006823
0.00500523
-0.000812765
0.00510098
-0.000947188
0.00520921
-0.00108579
0.00532916
-0.0012288
0.00546023
-0.00137644
0.00560195
-0.00152898
0.00575406
-0.00168674
0.00591659
-0.00185019
0.0060897
-0.00201968
0.00627347
-0.0021944
0.0064678
0.00667089
-0.00237248
2.57049e-05
0.00123278
3.86229e-05
0.00293181
1.31597e-05
0.00398005
-5.13457e-05
0.00452355
-0.000140195
0.00476955
-0.000243027
0.00488534
-0.000352966
0.00496146
-0.000467334
0.00503689
-0.00058545
0.00512335
-0.00070731
0.00522284
-0.000833078
0.00533498
-0.000962951
0.00545904
-0.00109714
0.00559441
-0.00123586
0.00574067
-0.00137938
0.00589759
-0.00152801
0.00606522
-0.00168212
0.00624381
-0.00184193
0.00643328
-0.00200679
0.00663265
0.00683958
-0.00217548
3.21435e-05
0.00120064
5.89337e-05
0.00290502
4.87944e-05
0.00399019
2.06463e-07
0.00457214
-7.74749e-05
0.00484724
-0.000170139
0.004978
-0.000270773
0.0050621
-0.00037624
0.00514235
-0.000485564
0.00523267
-0.000598626
0.00533591
-0.000715544
0.00545189
-0.000836488
0.00557998
-0.000961646
0.00571957
-0.00109123
0.00587026
-0.0012255
0.00603185
-0.00136472
0.00620444
-0.00150919
0.00638828
-0.00165901
0.0065831
-0.00181366
0.0067873
0.00699841
-0.00197249
3.83205e-05
0.00116232
7.90867e-05
0.00286425
8.51985e-05
0.00398408
5.07662e-05
0.00460657
-1.33125e-05
0.00491131
-9.5042e-05
0.00505973
-0.000186043
0.0051531
-0.000282394
0.00523871
-0.000382741
0.00533302
-0.000486824
0.00543999
-0.000594711
0.00555978
-0.00070654
0.00569181
-0.000822477
0.00583551
-0.00094272
0.0059905
-0.0010675
0.00615663
-0.00119706
0.00633401
-0.00133161
0.00652283
-0.00147117
0.00672266
-0.00161536
0.00693149
0.00714689
-0.00176384
4.41315e-05
0.00111819
9.88995e-05
0.00280948
0.000121846
0.00396113
0.000103387
0.00462503
5.26115e-05
0.00496209
-1.79168e-05
0.00513026
-9.88859e-05
0.00523407
-0.000185895
0.00532571
-0.000277081
0.0054242
-0.000372022
0.00553493
-0.00047071
0.00565847
-0.00057325
0.00579435
-0.000679782
0.00594204
-0.000790485
0.00610121
-0.000905563
0.00627171
-0.00102522
0.00645366
-0.00114959
0.0066472
-0.00127866
0.00685173
-0.00141217
0.00706499
0.00728472
-0.00155
4.94996e-05
0.00106869
0.000118146
0.00274084
0.000158415
0.00392086
0.000156636
0.00462681
0.000120049
0.00499868
6.13513e-05
0.00518896
-9.59126e-06
0.00530501
-8.68539e-05
0.00540298
-0.000168704
0.00550605
-0.000254336
0.00562056
-0.00034368
0.00574781
-0.00043677
0.00588744
-0.000533725
0.006039
-0.000634701
0.00620218
-0.00073987
0.00637688
-0.000849394
0.00656319
-0.000963359
0.00676116
-0.00108174
0.00697011
-0.00120438
0.00718763
0.00741165
-0.00133131
5.43388e-05
0.00101435
0.000136567
0.00265861
0.00019455
0.00386288
0.000210223
0.00461113
0.00018867
0.00502023
0.000142442
0.00523518
8.23467e-05
0.00536511
1.45554e-05
0.00547077
-5.77581e-05
0.00557837
-0.0001339
0.0056967
-0.000213773
0.00582769
-0.000297248
0.00597091
-0.000384476
0.00612622
-0.000475554
0.00629326
-0.000570623
0.00647195
-0.000669808
0.00666237
-0.000773161
0.00686452
-0.000880665
0.00707761
-0.000992263
0.00729923
0.00752743
-0.00110804
5.85649e-05
0.000955785
0.000153899
0.00256328
0.000229868
0.00378691
0.000263796
0.0045772
0.000258171
0.00502585
0.000225119
0.00526824
0.000176176
0.00541405
0.000118611
0.00552833
5.57665e-05
0.00564121
-1.10281e-05
0.0057635
-8.11615e-05
0.00589782
-0.000154856
0.00604461
-0.000232226
0.00620359
-0.000313234
0.00637427
-0.000398035
0.00655675
-0.000486702
0.00675104
-0.000579262
0.00695708
-0.000675741
0.00717409
-0.000776153
0.00739964
0.00763181
-0.000880532
6.21029e-05
0.000893682
0.000169873
0.00245551
0.00026395
0.00369283
0.000316916
0.00452424
0.000328188
0.00501458
0.000309125
0.0052873
0.000271874
0.0054513
0.00022467
0.00557554
0.000171714
0.00569417
0.000114706
0.00582051
5.4093e-05
0.00595843
-9.93849e-06
0.00610864
-7.71879e-05
0.00627084
-0.000147955
0.00644503
-0.00022234
0.00663114
-0.000300326
0.00682902
-0.000381912
0.00703866
-0.000467213
0.00725939
-0.000556325
0.00748876
0.00772459
-0.000649104
6.48893e-05
0.000828793
0.000184208
0.00233619
0.000296334
0.00358071
0.000369068
0.0044515
0.000398276
0.00498537
0.00039413
0.00529145
0.00036921
0.00547622
0.000332744
0.005612
0.0002898
0.00573711
0.000242574
0.00586773
0.000191849
0.00600916
0.000137859
0.00616263
8.05622e-05
0.00632814
1.99937e-05
0.0065056
-4.37997e-05
0.00669493
-0.000110956
0.00689618
-0.000181423
0.00710913
-0.000255358
0.00733333
-0.000333079
0.00756648
0.00780574
-0.000414232
6.68746e-05
0.000761918
0.000196611
0.00220645
0.000326516
0.0034508
0.000419662
0.00435836
0.000467898
0.00493714
0.000479721
0.00527962
0.000467893
0.00548805
0.000442617
0.00563728
0.000409911
0.00576982
0.000372604
0.00590504
0.000331784
0.00604998
0.000287805
0.00620661
0.000240762
0.00637518
0.000190675
0.00655569
0.000137488
0.00674812
8.11974e-05
0.00695247
2.17735e-05
0.00716855
-4.04878e-05
0.00739559
-0.000106181
0.00763217
0.00787607
-0.000176506
6.80278e-05
0.000693891
0.000206829
0.00206765
0.000353964
0.00330367
0.000468025
0.0042443
0.000536409
0.00486875
0.000565385
0.00525065
0.000567557
0.00548588
0.000554027
0.00565081
0.000531856
0.00579199
0.00050461
0.00593228
0.000473776
0.00608081
0.000439893
0.00624049
0.000403133
0.00641194
0.000363544
0.00659528
0.000321141
0.00679052
0.00027593
0.00699768
0.000227949
0.00721653
0.000177071
0.00744647
0.000122966
0.00768628
0.00793487
6.41623e-05
6.83366e-05
0.000625554
0.000214631
0.00192135
0.000378117
0.00314018
0.000513402
0.00410901
0.000603046
0.00477911
0.000650487
0.00520321
0.000667739
0.00546862
0.000666656
0.00565189
0.000655396
0.00580325
0.000638393
0.00594929
0.000617638
0.00610157
0.000593913
0.00626422
0.00056749
0.00643837
0.000538476
0.00662429
0.000506918
0.00682208
0.000472838
0.00703176
0.000436234
0.00725314
0.000397066
0.00748563
0.000355174
0.00772817
0.00797916
0.000310883
6.78083e-05
0.000557746
0.000219823
0.00176934
0.000398411
0.00296159
0.000554955
0.00395247
0.000666917
0.00466715
0.000734252
0.00513587
0.000767856
0.00543502
0.000780099
0.00563965
0.000780247
0.0058031
0.000773724
0.00595581
0.000763158
0.00611213
0.000749648
0.00627773
0.000733613
0.0064544
0.000715222
0.00664268
0.000694561
0.00684274
0.000671679
0.00705465
0.000646598
0.00727822
0.000619325
0.00751291
0.000589798
0.0077577
0.00801103
0.000557934
6.64718e-05
0.000491274
0.000222262
0.00161355
0.000414296
0.00276956
0.000591781
0.00377498
0.000726988
0.00453194
0.000815738
0.00504712
0.000867175
0.00538358
0.000893839
0.00561298
0.000906052
0.00579089
0.00091034
0.00595152
0.000910105
0.00611237
0.000906874
0.00628096
0.000901262
0.00646001
0.000893528
0.00665042
0.000883802
0.00685246
0.000872164
0.00706628
0.000858658
0.00729173
0.000843278
0.00752829
0.000825892
0.00777508
0.00803059
0.00080633
6.43775e-05
0.000426896
0.00022188
0.00145605
0.000425272
0.00256617
0.000622931
0.00357732
0.00078209
0.00437278
0.000893816
0.00493539
0.000964777
0.00531262
0.00100721
0.00557055
0.00103236
0.00576574
0.00104792
0.00593596
0.00105822
0.00610207
0.00106535
0.00627383
0.00107019
0.00645517
0.00107313
0.00664747
0.00107436
0.00685124
0.00107398
0.00706666
0.00107205
0.00729366
0.00106854
0.0075318
0.00106328
0.00778034
0.00803775
0.00105612
6.15966e-05
0.0003653
0.000218688
0.00129896
0.000430929
0.00235393
0.00064745
0.0033608
0.000830927
0.0041893
0.000967152
0.00479917
0.00105952
0.00522025
0.00111937
0.0055107
0.00115858
0.00572653
0.00118606
0.00590848
0.00120721
0.00608092
0.00122481
0.00625623
0.00124015
0.00643983
0.00125377
0.00663385
0.00126595
0.00683906
0.00127683
0.00705579
0.00128646
0.00728403
0.00129483
0.00752343
0.00130177
0.0077734
0.00803248
0.00130704
5.8219e-05
0.000307081
0.000212792
0.00114438
0.000430986
0.00213573
0.000664428
0.00312736
0.000872103
0.00398163
0.0010342
0.00463707
0.00115001
0.00510444
0.00122922
0.00543149
0.00128395
0.0056718
0.00132424
0.0058682
0.00135669
0.00604847
0.00138497
0.00622795
0.00141086
0.00641394
0.00143518
0.00660953
0.0014583
0.00681594
0.00148041
0.00703368
0.00150161
0.00726283
0.00152189
0.00750315
0.0015411
0.00775419
0.00801468
0.0015589
5.43495e-05
0.000252731
0.000204391
0.000994342
0.000425339
0.00191478
0.00067307
0.00287963
0.000904175
0.00375053
0.00109321
0.00444804
0.00123456
0.00496309
0.00133539
0.00533067
0.00140747
0.00559972
0.00146179
0.00581388
0.00150622
0.00600404
0.00154548
0.00618869
0.00158203
0.00637738
0.00161706
0.0065745
0.00165111
0.0067819
0.00168445
0.00700034
0.00171719
0.00723009
0.00174938
0.00747096
0.0017809
0.00772267
0.0079843
0.00181128
5.01031e-05
0.000202628
0.000193773
0.000850672
0.000414093
0.00169446
0.000672776
0.00262095
0.00092573
0.00349757
0.00114226
0.00423151
0.00131117
0.00479417
0.00143612
0.00520571
0.00152782
0.00550803
0.00159779
0.0057439
0.00165518
0.00594666
0.00170591
0.00613795
0.00175334
0.00632996
0.00179913
0.00652871
0.0018441
0.00673693
0.00188862
0.00695581
0.00193289
0.00718582
0.00197696
0.00742689
0.00202079
0.00767884
0.00794134
0.00206375
4.55999e-05
0.000157028
0.0001813
0.000714972
0.000397581
0.00147818
0.00066323
0.0023553
0.000935491
0.00322531
0.00117931
0.00398769
0.00137753
0.00459595
0.0015293
0.00505395
0.00164328
0.00539405
0.00173102
0.00565615
0.00180275
0.00587492
0.00186574
0.00607497
0.00192438
0.00627131
0.00198106
0.00647203
0.00203695
0.00668104
0.00209264
0.00690013
0.00214838
0.00713007
0.00220429
0.00737099
0.00226039
0.00762273
0.00788582
0.00231592
4.09592e-05
0.000116069
0.000167386
0.000588545
0.000376368
0.0012692
0.000644487
0.00208718
0.000932456
0.00293734
0.00120237
0.00371778
0.00143108
0.00436724
0.00161232
0.0048727
0.00175166
0.00525472
0.00185983
0.00554798
0.00194781
0.00578694
0.0020242
0.00599859
0.00209465
0.00620086
0.00216246
0.00640422
0.00222934
0.00661416
0.00229616
0.00683331
0.00236333
0.0070629
0.002431
0.00730332
0.00249935
0.00755439
0.00781778
0.00256738
3.62942e-05
7.97748e-05
0.000152477
0.000472363
0.000351217
0.00107046
0.000617028
0.00182137
0.000916058
0.00263831
0.00120958
0.00342426
0.00146907
0.00410774
0.00168219
0.00465959
0.00185019
0.00508671
0.00198203
0.00541614
0.0020888
0.00568017
0.00218026
0.00590712
0.00226348
0.00611764
0.00234286
0.00632484
0.00242089
0.00653613
0.00249885
0.00675535
0.00257739
0.00698435
0.00265676
0.00722395
0.00273728
0.00747387
0.00773731
0.00281775
3.17076e-05
4.80673e-05
0.000137017
0.000367053
0.000323039
0.000884438
0.000581776
0.00156263
0.000886317
0.00233377
0.00119951
0.00311107
0.00148878
0.00381847
0.00173549
0.00441288
0.00193551
0.00488669
0.00209475
0.00525691
0.00222355
0.00555137
0.00233246
0.00579822
0.0024299
0.0060202
0.00252163
0.00623311
0.00261114
0.00644663
0.00270033
0.00666615
0.00279022
0.00689446
0.0028812
0.00713297
0.00297381
0.00738126
0.00764448
0.00306664
2.72876e-05
2.07797e-05
0.00012143
0.000272911
0.00029283
0.000713038
0.000540058
0.0013154
0.000843957
0.00202987
0.00117138
0.00278365
0.00148776
0.00350208
0.00176863
0.00413202
0.00200363
0.00465168
0.00219433
0.00506621
0.00234914
0.00539656
0.00247867
0.00566869
0.00259251
0.00590636
0.00269787
0.00612774
0.0027995
0.006345
0.00290017
0.00656548
0.00300144
0.00679318
0.00310396
0.00703045
0.00320857
0.00727665
0.0075394
0.00331365
2.31067e-05
-2.32701e-06
0.000106097
0.00018992
0.000261592
0.000557543
0.000493504
0.00108349
0.000790448
0.00173293
0.00112533
0.00244876
0.00146419
0.00316322
0.00177805
0.00381816
0.00205009
0.00437964
0.00227626
0.00484005
0.00246167
0.00521115
0.00261591
0.00551444
0.00274924
0.00577303
0.00287024
0.00600673
0.00298511
0.00623014
0.00309778
0.00645281
0.00321061
0.00668035
0.00332465
0.00691641
0.00344117
0.00716014
0.00742218
0.00355839
1.9221e-05
-2.1548e-05
9.13451e-05
0.000117796
0.000230273
0.000418615
0.000443904
0.00086986
0.000727931
0.0014489
0.00106261
0.00211408
0.0014173
0.00280854
0.00176074
0.00347471
0.00207023
0.00407015
0.00233526
0.00457502
0.00255614
0.00499027
0.00274009
0.00533049
0.00289707
0.00561606
0.0030367
0.00586711
0.00316667
0.00610016
0.00329234
0.00632714
0.00341717
0.00655553
0.00354282
0.00679076
0.00367119
0.00703177
0.0072929
0.00380046
1.56696e-05
-3.72176e-05
7.74388e-05
5.6027e-05
0.000199711
0.000296343
0.000393059
0.000676512
0.000659037
0.00118292
0.000985584
0.00178754
0.00134772
0.0024464
0.00171476
0.00310767
0.0020597
0.0037252
0.00236552
0.00426921
0.00262645
0.00472934
0.00284572
0.00511122
0.00303165
0.00543012
0.00319413
0.00570463
0.00334213
0.00595216
0.00348256
0.00618672
0.00362029
0.0064178
0.0037579
0.00665314
0.00389817
0.00689151
0.00715164
0.00403943
1.24793e-05
-4.96969e-05
6.45819e-05
3.92442e-06
0.000170609
0.000190316
0.000342642
0.000504478
0.00058663
0.000938936
0.000897619
0.00147655
0.00125775
0.00208627
0.00163984
0.00272559
0.0020152
0.00334984
0.00236125
0.00392315
0.00266558
0.00442501
0.00292581
0.00485099
0.00314698
0.00520895
0.00333792
0.00551369
0.00350827
0.00578181
0.00366634
0.00602864
0.00381867
0.00626547
0.00396908
0.00650274
0.00412152
0.00673906
0.00699835
0.00427481
9.66524e-06
-5.93621e-05
5.29202e-05
-3.93305e-05
0.000143517
9.97186e-05
0.000294099
0.000353897
0.000513525
0.00071951
0.00080272
0.00118735
0.00115129
0.0017377
0.00153791
0.00233897
0.00193532
0.00295243
0.00231764
0.00354083
0.00266621
0.00407644
0.00297206
0.00454515
0.00323511
0.0049459
0.00346144
0.00528735
0.0036601
0.00558316
0.00384028
0.00584846
0.00401015
0.0060956
0.00417502
0.00633787
0.00434038
0.0065737
0.00683273
0.004506
7.23306e-06
-6.65952e-05
4.25469e-05
-7.46443e-05
0.000118838
2.34273e-05
0.000248587
0.000224148
0.000442255
0.000525842
0.000705085
0.000924522
0.00103348
0.0014093
0.00141321
0.00195924
0.00182141
0.00254423
0.00223198
0.00313026
0.00262185
0.00368657
0.00297545
0.00419154
0.00328626
0.00463509
0.00355562
0.00501799
0.00379021
0.00534856
0.00399891
0.00563976
0.00419102
0.00590349
0.00437338
0.00615551
0.00455336
0.00639372
0.00665406
0.00473202
5.18012e-06
-7.17753e-05
3.3507e-05
-0.000102971
9.68291e-05
-3.98948e-05
0.00020696
0.000114018
0.000374904
0.000357898
0.000608656
0.00069077
0.000910043
0.00110792
0.00127196
0.00159733
0.00167792
0.00213827
0.00210487
0.0027033
0.00252833
0.00326311
0.00292766
0.00379222
0.00328954
0.00427321
0.00360899
0.00469855
0.00388819
0.00506936
0.00413382
0.00539413
0.00435518
0.00568214
0.00456008
0.00595061
0.00475777
0.00619603
0.00646028
0.00495156
3.49554e-06
-7.52709e-05
2.58001e-05
-0.000125276
7.76134e-05
-9.17081e-05
0.000169763
2.18678e-05
0.000313021
0.00021464
0.00051677
0.000487021
0.000786616
0.000838072
0.00112157
0.00126237
0.00151219
0.00174765
0.00194101
0.00227449
0.00238556
0.00281856
0.00282301
0.00335477
0.0032346
0.00386162
0.00360845
0.0043247
0.00394049
0.00473732
0.00423288
0.00510174
0.00449289
0.00542212
0.0047282
0.0057153
0.00494903
0.00597519
0.00624819
0.00516113
2.15963e-06
-7.74305e-05
1.9382e-05
-0.000142498
6.11877e-05
-0.000133514
0.000137251
-5.41957e-05
0.0002576
9.42917e-05
0.000431944
0.000312676
0.000668087
0.00060193
0.000969587
0.00096087
0.00133345
0.00138379
0.00174895
0.00185899
0.00219854
0.00236897
0.00266075
0.00289256
0.00311422
0.00340814
0.00354146
0.00389746
0.00393146
0.00434732
0.00427999
0.00475321
0.0045898
0.00511231
0.00486601
0.00543909
0.00511945
0.00572175
0.0060121
0.00535554
1.14329e-06
-7.85738e-05
1.41662e-05
-0.000155521
4.74309e-05
-0.000166778
0.000109409
-0.000116174
0.000209095
-5.3937e-06
0.00035579
0.000165981
0.000558188
0.000399531
0.000822703
0.000696355
0.00115136
0.00105514
0.00153996
0.00147039
0.00197738
0.00193155
0.00244661
0.00242333
0.00292734
0.00292741
0.00339938
0.00342543
0.0038462
0.0039005
0.0042564
0.00434302
0.00462679
0.00474192
0.00495656
0.00510932
0.00525363
0.00542468
0.00573673
0.005529
4.10047e-07
-7.89838e-05
1.00243e-05
-0.000165135
3.61164e-05
-0.000192871
8.59859e-05
-0.000166044
0.000167473
-8.68812e-05
0.000289034
4.44209e-05
0.000459305
0.000229259
0.000686067
0.000469593
0.000974641
0.00076656
0.00132608
0.00111895
0.00173571
0.00152192
0.00219269
0.00196635
0.00268094
0.00243916
0.00318136
0.00292501
0.00367491
0.00340695
0.00414511
0.00387281
0.0045806
0.00430644
0.00497846
0.00471145
0.00533039
0.00507276
0.00542063
0.00564649
-1.00257e-07
-7.88836e-05
6.79192e-06
-0.000172027
2.69299e-05
-0.000213009
6.65312e-05
-0.000205645
0.000132295
-0.000152645
0.000231619
-5.49026e-05
0.00037249
8.83883e-05
0.000562934
0.000279149
0.000809972
0.000519522
0.00111819
0.000810737
0.00148818
0.00115192
0.00191541
0.00153912
0.00238979
0.00196477
0.00289655
0.00241825
0.00341776
0.00288574
0.00393581
0.00335477
0.00443275
0.00380949
0.00489955
0.00424465
0.00533267
0.00463964
0.00505292
0.00570038
-4.65117e-07
-7.84185e-05
4.2809e-06
-0.000176774
1.94947e-05
-0.000228222
5.04529e-05
-0.000236603
0.000102805
-0.000204997
0.000182852
-0.00013495
0.00029763
-2.63895e-05
0.000454685
0.000122094
0.000661495
0.000312712
0.000924511
0.000547722
0.00124791
0.000828526
0.00163229
0.00115474
0.00207367
0.0015234
0.00256326
0.00192866
0.00308734
0.00236165
0.00363078
0.00281132
0.00417455
0.00326572
0.0047023
0.00371691
0.00521835
0.00412359
0.00461176
0.0056595
-6.77565e-07
-7.77409e-05
2.29986e-06
-0.000179751
1.34024e-05
-0.000239325
3.70749e-05
-0.000260276
7.80459e-05
-0.000245968
0.000141596
-0.0001985
0.000233717
-0.000118511
0.000361097
-5.28589e-06
0.000530851
0.000142957
0.000749987
0.000328586
0.00102456
0.000553954
0.00135862
0.000820683
0.00175309
0.00112893
0.00220502
0.00147672
0.00270664
0.00186003
0.00324726
0.0022707
0.00381208
0.00270091
0.00437986
0.00314913
0.00495831
0.00354514
0.00409108
0.005479
-8.43082e-07
-7.68978e-05
6.59196e-07
-0.000181253
8.24473e-06