/*--------------------------------*- C++ -*----------------------------------*\
  =========                 |
  \\      /  F ield         | OpenFOAM: The Open Source CFD Toolbox
   \\    /   O peration     | Website:  https://openfoam.org
    \\  /    A nd           | Version:  7
     \\/     M anipulation  |
\*---------------------------------------------------------------------------*/
FoamFile
{
    version     2.0;
    format      ascii;
    class       volVectorField;
    location    "120";
    object      U;
}
// * * * * * * * * * * * * * * * * * * * * * * * * * * * * * * * * * * * * * //

dimensions      [0 1 -1 0 0 0 0];

internalField   nonuniform List<vector> 
14800
(
(-0.00392517 -0.0286417 -2.3286e-20)
(-0.0201938 -0.0902543 3.03814e-21)
(-0.0483091 -0.14412 1.32448e-20)
(-0.0790073 -0.186202 -7.03175e-21)
(-0.11005 -0.221573 -2.29574e-20)
(-0.13889 -0.256032 2.17921e-20)
(-0.164062 -0.292404 9.31565e-22)
(-0.184541 -0.330291 2.59372e-21)
(-0.199328 -0.367128 -1.24209e-20)
(-0.207231 -0.398935 -1.56265e-21)
(-0.206851 -0.420601 9.66172e-21)
(-0.196714 -0.426149 8.45704e-21)
(-0.175633 -0.409483 3.21397e-20)
(-0.143131 -0.366416 -3.67389e-20)
(-0.0975849 -0.293444 1.49259e-20)
(-0.00400957 -0.0225704 4.92006e-20)
(-0.0211171 -0.078127 -3.06043e-20)
(-0.0513887 -0.128909 -1.07998e-20)
(-0.084322 -0.169763 2.24908e-21)
(-0.117693 -0.205255 2.14042e-20)
(-0.149018 -0.240773 4.38241e-20)
(-0.177032 -0.278909 -3.75141e-20)
(-0.200925 -0.319228 6.90338e-21)
(-0.219894 -0.359296 3.2851e-20)
(-0.232939 -0.395332 3.564e-20)
(-0.238823 -0.422387 -4.49296e-20)
(-0.236156 -0.434533 4.8792e-20)
(-0.223717 -0.42554 -7.30752e-20)
(-0.200216 -0.390268 7.0347e-20)
(-0.163584 -0.325212 1.22775e-20)
(-0.00447878 -0.015653 8.00728e-20)
(-0.022374 -0.0645413 1.4292e-19)
(-0.0541572 -0.112145 7.81368e-21)
(-0.0884606 -0.151812 -3.98273e-20)
(-0.123131 -0.187391 -1.96967e-20)
(-0.155762 -0.223786 -6.89796e-20)
(-0.18526 -0.263371 4.91372e-20)
(-0.210994 -0.305723 6.2507e-20)
(-0.232349 -0.348567 -7.07298e-20)
(-0.248546 -0.388347 -2.80161e-20)
(-0.258616 -0.420336 9.3175e-20)
(-0.261435 -0.438782 -3.30161e-20)
(-0.255941 -0.437401 3.09884e-20)
(-0.240652 -0.410375 3.17525e-20)
(-0.212124 -0.354186 4.78538e-20)
(-0.00535723 -0.00813986 -6.7117e-20)
(-0.0239379 -0.0499014 -2.38495e-19)
(-0.0564934 -0.0942464 1.17468e-19)
(-0.091219 -0.132743 -1.20959e-20)
(-0.126075 -0.168343 4.39186e-20)
(-0.158733 -0.205412 -1.32743e-19)
(-0.188226 -0.246122 4.83566e-21)
(-0.214054 -0.290089 2.63015e-21)
(-0.235763 -0.335206 4.92517e-20)
(-0.252811 -0.378132 -5.76043e-20)
(-0.264569 -0.41438 -1.56208e-19)
(-0.270318 -0.438442 -5.43222e-20)
(-0.269335 -0.444123 -7.71156e-21)
(-0.260714 -0.425116 9.84008e-21)
(-0.238156 -0.378481 -6.18012e-20)
(-0.00664039 -0.000314158 -1.52268e-19)
(-0.025761 -0.0346472 1.1262e-19)
(-0.0582859 -0.0756549 8.52593e-21)
(-0.0924296 -0.112962 1.16814e-20)
(-0.126297 -0.148492 -9.8567e-20)
(-0.157621 -0.186021 7.24238e-20)
(-0.185509 -0.227535 -2.71118e-20)
(-0.209537 -0.2727 4.43371e-20)
(-0.229376 -0.31956 -2.47415e-20)
(-0.244709 -0.364959 1.4804e-19)
(-0.255295 -0.404624 1.11601e-19)
(-0.260911 -0.433307 7.17747e-20)
(-0.261194 -0.445073 -1.04823e-19)
(-0.256973 -0.433213 2.2603e-20)
(-0.236532 -0.396149 -2.53199e-20)
(-0.0082937 0.00752394 -1.33788e-22)
(-0.0277755 -0.0192364 2.00688e-19)
(-0.0594353 -0.0568237 -1.49206e-19)
(-0.0919628 -0.0928911 1.25521e-19)
(-0.123625 -0.128237 1.11085e-19)
(-0.152197 -0.166016 -6.52554e-20)
(-0.176795 -0.208028 4.47793e-20)
(-0.197014 -0.253986 -1.77987e-19)
(-0.212605 -0.302058 5.11784e-20)
(-0.223459 -0.349219 -1.13871e-19)
(-0.229742 -0.391352 5.71408e-20)
(-0.231835 -0.423443 -1.26074e-19)
(-0.229451 -0.43999 -2.34335e-20)
(-0.227055 -0.433919 -5.56922e-20)
(-0.203338 -0.405533 5.4235e-20)
(-0.0102541 0.0150752 -1.8242e-20)
(-0.0298957 -0.00412747 -2.0755e-19)
(-0.0598573 -0.0382084 1.8899e-20)
(-0.0897295 -0.0729585 2.2415e-21)
(-0.117953 -0.107995 3.36779e-20)
(-0.142318 -0.145828 2.85452e-19)
(-0.161885 -0.18806 -2.28989e-20)
(-0.176208 -0.234437 1.50059e-19)
(-0.185075 -0.283207 1.79566e-20)
(-0.188565 -0.331408 9.13073e-21)
(-0.187258 -0.375006 -4.18773e-20)
(-0.182363 -0.409159 9.67586e-20)
(-0.172891 -0.428884 2.08894e-19)
(-0.170004 -0.427017 -2.11742e-19)
(-0.136832 -0.405522 -6.63784e-20)
(-0.0124346 0.0220583 1.18805e-19)
(-0.032022 0.0102367 2.08117e-19)
(-0.0594844 -0.0202567 -5.64675e-20)
(-0.0856841 -0.0535939 -9.96362e-20)
(-0.109241 -0.0881968 -9.84121e-20)
(-0.127937 -0.125911 1.60823e-20)
(-0.140715 -0.168125 9.33619e-20)
(-0.147029 -0.214591 -2.93117e-19)
(-0.146674 -0.263589 -6.18069e-21)
(-0.139908 -0.312132 -8.45079e-20)
(-0.127725 -0.356184 -1.92876e-19)
(-0.112591 -0.391027 1.82527e-19)
(-0.0913686 -0.41195 -2.26923e-19)
(-0.0861418 -0.41279 9.9413e-20)
(-0.03795 -0.394966 4.61074e-20)
(-0.0147306 0.0282261 -6.40193e-20)
(-0.0340456 0.023447 8.02024e-20)
(-0.0582649 -0.00340245 -1.43915e-19)
(-0.079829 -0.0352089 1.23251e-19)
(-0.0975207 -0.0692764 1.71314e-19)
(-0.109111 -0.106734 2.06572e-19)
(-0.113368 -0.148745 -8.17596e-20)
(-0.109609 -0.195032 -6.70726e-20)
(-0.0976165 -0.243851 2.91669e-19)
(-0.0778737 -0.292103 2.03108e-19)
(-0.0517581 -0.335664 1.77609e-19)
(-0.0237006 -0.370022 -2.40219e-19)
(0.0134298 -0.389512 6.35587e-20)
(0.0233041 -0.392574 4.84656e-20)
(0.0893222 -0.372322 -6.34941e-21)
(-0.0170281 0.0333793 -2.91957e-19)
(-0.0358563 0.0351437 -3.82389e-19)
(-0.056159 0.011951 1.42448e-19)
(-0.0721893 -0.0182433 2.00854e-19)
(-0.0828916 -0.0516713 -4.13666e-19)
(-0.0859909 -0.0887711 -1.39583e-20)
(-0.0800746 -0.130448 -1.68186e-19)
(-0.0643018 -0.176352 3.9769e-19)
(-0.0384729 -0.224661 -1.74264e-19)
(-0.00342584 -0.272096 -2.04246e-20)
(0.0391031 -0.314325 1.19729e-19)
(0.0820865 -0.347517 2.72822e-19)
(0.136775 -0.362014 1.10582e-19)
(0.155461 -0.36861 -6.84447e-20)
(0.239129 -0.339699 -1.51518e-20)
(-0.0192126 0.0373773 2.0272e-19)
(-0.0373464 0.0450292 2.76292e-19)
(-0.0531655 0.0254389 -1.94536e-19)
(-0.0628334 -0.00308911 -6.67173e-19)
(-0.065486 -0.0357919 -7.68105e-20)
(-0.0588047 -0.0724752 7.48663e-21)
(-0.0411771 -0.113736 2.2823e-19)
(-0.0116361 -0.159107 -5.09698e-19)
(0.0299048 -0.206638 -2.27166e-20)
(0.0820134 -0.252846 -2.5176e-19)
(0.142358 -0.29292 -3.10481e-19)
(0.201823 -0.324381 -1.81446e-19)
(0.272701 -0.332585 1.29752e-20)
(0.301631 -0.341164 -3.74637e-20)
(0.403632 -0.303082 -8.54542e-20)
(-0.0211786 0.0401442 1.14515e-19)
(-0.038413 0.0528802 2.03859e-19)
(-0.0492743 0.0367543 -9.71896e-20)
(-0.0518572 0.00992826 -9.14484e-20)
(-0.0454814 -0.0220155 5.59183e-19)
(-0.0278115 -0.058256 -5.83223e-19)
(0.00293935 -0.0990471 3.2238e-20)
(0.0477928 -0.143757 1.32917e-19)
(0.106536 -0.190266 9.89353e-20)
(0.176828 -0.234814 6.39785e-20)
(0.255187 -0.27201 1.04921e-19)
(0.330629 -0.300978 -6.68748e-20)
(0.415581 -0.303891 1.81142e-19)
(0.452513 -0.310799 1.11153e-19)
(0.567539 -0.267488 4.59957e-20)
(-0.0228379 0.0416711 5.08196e-20)
(-0.0389633 0.0585554 -4.1446e-19)
(-0.0444808 0.0456507 6.10528e-19)
(-0.0393335 0.020496 7.69192e-19)
(-0.0230264 -0.0106794 -2.60768e-19)
(0.00676266 -0.0464538 9.33882e-20)
(0.0519568 -0.0867371 -2.49809e-19)
(0.113473 -0.130648 -4.3837e-20)
(0.1905 -0.175764 -4.63044e-19)
(0.279338 -0.218111 9.38514e-20)
(0.374728 -0.251876 3.37534e-19)
(0.464109 -0.277251 -3.69724e-20)
(0.558085 -0.276022 8.10319e-20)
(0.601523 -0.27945 -3.74564e-20)
(0.718261 -0.234481 -2.02848e-21)
(-0.0241265 0.042012 -2.46707e-19)
(-0.0389141 0.0620005 -2.83114e-19)
(-0.0387699 0.0519605 -6.76506e-19)
(-0.0253098 0.028379 -4.90812e-19)
(0.00179647 -0.00204065 -3.95567e-19)
(0.0448192 -0.0373487 4.54837e-19)
(0.105706 -0.0770355 9.03142e-20)
(0.18509 -0.119878 1.97588e-19)
(0.281051 -0.163065 1.00764e-19)
(0.387931 -0.202505 -2.76129e-19)
(0.49796 -0.232316 -1.34536e-19)
(0.59792 -0.253021 2.12541e-20)
(0.694268 -0.248893 -3.48931e-19)
(0.741697 -0.247871 7.18053e-20)
(0.848549 -0.203963 -1.12188e-19)
(-0.0250053 0.041273 1.2745e-19)
(-0.0381897 0.0632513 9.84202e-19)
(-0.0320923 0.0556021 5.02361e-19)
(-0.0097489 0.0334189 2.38215e-19)
(0.0290209 0.00372518 6.17536e-19)
(0.0864371 -0.031075 -5.48206e-19)
(0.164308 -0.0699573 -2.29546e-19)
(0.262582 -0.111272 -2.20555e-19)
(0.377551 -0.151833 1.02433e-18)
(0.50087 -0.187453 3.11899e-19)
(0.621761 -0.212829 -2.22894e-19)
(0.727304 -0.228144 1.03717e-19)
(0.819451 -0.222052 -1.19617e-19)
(0.866821 -0.216854 9.72249e-20)
(0.955228 -0.175528 2.74215e-20)
(-0.0254615 0.0396078 -1.19046e-20)
(-0.0367127 0.0624229 -5.27546e-19)
(-0.0243462 0.0565769 -4.86925e-19)
(0.00749435 0.0355583 -1.72115e-19)
(0.058899 0.0065622 -3.06145e-19)
(0.131971 -0.027573 3.19338e-19)
(0.22816 -0.0652869 1.56105e-19)
(0.346073 -0.104394 -2.33058e-19)
(0.479247 -0.141424 1.17101e-21)
(0.615958 -0.172252 -1.6478e-19)
(0.742634 -0.192785 3.56902e-20)
(0.847538 -0.202662 4.00924e-20)
(0.929879 -0.195289 2.9607e-20)
(0.972554 -0.187019 5.93424e-20)
(1.0382 -0.14929 -1.36012e-19)
(-0.02551 0.0371982 -2.60016e-19)
(-0.0343988 0.0596986 2.1406e-19)
(-0.0153499 0.0549923 2.04089e-19)
(0.026723 0.0348754 2.57072e-20)
(0.091909 0.00659102 2.12223e-19)
(0.182092 -0.0265994 -2.90987e-19)
(0.297903 -0.0625421 3.01553e-19)
(0.435621 -0.0985036 4.73895e-20)
(0.584889 -0.130966 -3.29265e-19)
(0.730309 -0.156222 6.33273e-21)
(0.856686 -0.171749 -2.74433e-19)
(0.954545 -0.176769 2.31637e-19)
(1.02295 -0.168871 2.48772e-20)
(1.05716 -0.158797 3.52723e-20)
(1.09962 -0.125446 1.24566e-19)
(-0.0251777 0.0342338 7.32741e-19)
(-0.0311431 0.0553245 -2.89155e-19)
(-0.00482887 0.0510669 -1.54131e-19)
(0.0484313 0.031587 -1.93599e-19)
(0.128804 0.0041116 -5.33084e-19)
(0.237733 -0.0276624 -1.77962e-19)
(0.374217 -0.0609496 3.51208e-19)
(0.530826 -0.0926316 -2.3303e-19)
(0.692374 -0.119561 -8.63601e-19)
(0.840391 -0.138892 2.9734e-19)
(0.960083 -0.149675 5.25401e-20)
(1.04549 -0.15086 -1.57793e-19)
(1.09774 -0.143331 7.35542e-20)
(1.12146 -0.13235 -5.31934e-20)
(1.14286 -0.104003 5.76424e-20)
(-0.0244946 0.0308986 -1.17278e-19)
(-0.0268024 0.0495869 3.79472e-19)
(0.00761109 0.0451149 4.30083e-19)
(0.0733199 0.0260553 3.35034e-19)
(0.170589 -0.000371862 5.23703e-19)
(0.299945 -0.0299985 4.70168e-19)
(0.45745 -0.0594901 -5.29429e-19)
(0.630406 -0.0857521 7.27468e-19)
(0.798651 -0.106527 5.53454e-19)
(0.942438 -0.120147 -4.71175e-19)
(1.04978 -0.12689 3.34986e-19)
(1.11921 -0.125509 -7.64397e-20)
(1.1551 -0.11914 -1.24286e-19)
(1.16802 -0.107521 -1.40234e-19)
(1.17159 -0.0850809 -5.48431e-20)
(-0.0234812 0.0273557 -3.28701e-19)
(-0.0211833 0.0427923 6.55043e-19)
(0.022488 0.0375319 -3.46264e-20)
(0.102277 0.0187915 6.99008e-20)
(0.218415 -0.00613471 -9.55219e-20)
(0.369608 -0.0326044 -7.25038e-21)
(0.547179 -0.0570406 4.49874e-19)
(0.731968 -0.0770162 -3.34441e-19)
(0.90006 -0.0915793 3.22521e-19)
(1.03315 -0.100249 3.7857e-19)
(1.12411 -0.103946 -2.27413e-19)
(1.17625 -0.10131 1.51624e-19)
(1.19729 -0.0964519 -5.44045e-20)
(1.2002 -0.0841527 1.07982e-19)
(1.18998 -0.06911 3.82456e-20)
(-0.0221341 0.0237359 -4.62403e-19)
(-0.0140335 0.0352489 5.02894e-20)
(0.0404249 0.0287883 1.76357e-19)
(0.136312 0.0104519 -2.87939e-19)
(0.273392 -0.0122559 -3.32868e-19)
(0.447052 -0.0343386 2.04174e-19)
(0.641862 -0.0525956 -3.79255e-19)
(0.832187 -0.0659563 2.93842e-19)
(0.99303 -0.0748709 -1.17821e-19)
(1.11037 -0.0797132 -4.09937e-19)
(1.18298 -0.0814538 -2.09828e-19)
(1.21848 -0.0786779 2.86179e-19)
(1.22718 -0.0751279 -1.07682e-19)
(1.2215 -0.0628662 -5.41923e-20)
(1.2011 -0.0592452 -7.87145e-20)
(-0.0204154 0.0201315 9.08371e-19)
(-0.00503623 0.027252 -1.11721e-18)
(0.0621294 0.0193962 -2.57057e-19)
(0.176443 0.00180058 -1.54148e-19)
(0.336314 -0.0176847 9.68747e-20)
(0.531674 -0.0341 -3.85816e-19)
(0.738823 -0.0454874 2.2389e-19)
(0.9274 -0.0525615 1.04002e-19)
(1.07481 -0.0568695 -6.77874e-19)
(1.17333 -0.0591215 5.26299e-19)
(1.22758 -0.0599159 1.22835e-19)
(1.24843 -0.0577302 -3.06103e-19)
(1.24745 -0.0551671 1.65319e-19)
(1.2349 -0.0455028 9.23593e-20)
(1.21558 -0.0428442 2.04159e-20)
(-0.0182461 0.0165959 -6.11482e-19)
(0.00617875 0.0190673 1.01462e-18)
(0.0883414 0.00988485 9.98335e-20)
(0.22356 -0.00632402 -3.70162e-19)
(0.407356 -0.0213529 4.60367e-19)
(0.621747 -0.0310373 -2.78372e-19)
(0.834644 -0.0355054 2.83398e-20)
(1.01436 -0.0371931 -3.48167e-19)
(1.1439 -0.0381673 5.8791e-19)
(1.2226 -0.0389788 -2.50452e-19)
(1.25991 -0.0396273 6.28995e-20)
(1.26871 -0.038372 -8.31566e-20)
(1.2604 -0.0371126 -1.5838e-21)
(1.24448 -0.029429 1.40068e-20)
(1.22432 -0.0287173 1.9267e-20)
(-0.0155052 0.0131496 1.30723e-19)
(0.0200169 0.0109331 -5.99183e-19)
(0.119755 0.00079193 -5.27137e-19)
(0.278233 -0.0130611 1.41922e-19)
(0.485834 -0.0223251 -3.71539e-19)
(0.71456 -0.0247042 -3.38938e-19)
(0.925848 -0.0228585 1.0904e-19)
(1.09082 -0.0204068 4.83692e-19)
(1.20009 -0.0193168 1.50029e-19)
(1.2596 -0.0196322 -2.78794e-19)
(1.2823 -0.0206739 -6.58903e-20)
(1.28167 -0.0205773 3.95411e-20)
(1.26846 -0.0205062 1.75158e-19)
(1.25029 -0.0148617 -3.43735e-20)
(1.23012 -0.0162161 -4.47292e-20)
(-0.0120346 0.0097912 -7.1768e-20)
(0.0369004 0.00305993 7.83914e-19)
(0.156953 -0.0073556 3.71707e-19)
(0.340553 -0.0175901 1.32741e-19)
(0.570128 -0.0199468 2.60527e-19)
(0.806878 -0.0150879 5.0424e-19)
(1.00955 -0.00802263 2.30657e-19)
(1.1557 -0.00278026 -4.95158e-19)
(1.24415 -0.000740319 -3.00703e-19)
(1.28626 -0.00125749 4.81564e-19)
(1.29694 -0.00303094 -4.64584e-20)
(1.28937 -0.00413171 -2.81993e-20)
(1.27295 -0.00518489 -2.25212e-19)
(1.25375 -0.001476 -2.69991e-20)
(1.2343 -0.00393395 1.67648e-19)
(-0.00764898 0.00650896 -1.22378e-19)
(0.0572406 -0.00435765 -9.86225e-19)
(0.20033 -0.0140401 -7.48248e-20)
(0.41 -0.0192054 -2.11063e-19)
(0.657852 -0.0139304 -5.73052e-19)
(0.895548 -0.0025104 1.87462e-19)
(1.08382 0.00843179 -4.57359e-19)
(1.20897 0.0151956 2.00756e-19)
(1.27748 0.0172938 -1.59786e-20)
(1.30455 0.016103 -2.69431e-19)
(1.3058 0.0134261 1.69098e-19)
(1.29332 0.0111585 -7.65731e-20)
(1.27504 0.00908317 9.66532e-20)
(1.25554 0.0111222 1.45304e-19)
(1.23662 0.00744297 -2.83529e-20)
(-0.00214904 0.00329598 4.52644e-22)
(0.0814057 -0.0111185 1.64685e-19)
(0.250025 -0.0187517 1.56415e-19)
(0.48541 -0.0173935 -1.37396e-20)
(0.746221 -0.00433973 8.35469e-20)
(0.977986 0.012529 -5.96188e-19)
(1.14775 0.0259657 1.42868e-19)
(1.25138 0.0331586 -8.39174e-20)
(1.30172 0.0346529 6.35674e-20)
(1.31632 0.0325026 1.52984e-19)
(1.31044 0.0288558 -1.77188e-19)
(1.29468 0.0254965 4.15797e-20)
(1.27545 0.0225177 3.81249e-20)
(1.25603 0.0229675 -3.65664e-20)
(1.23791 0.0185164 2.70061e-20)
(0.00466637 0.000162359 2.81162e-19)
(0.109696 -0.0169961 4.98476e-19)
(0.305855 -0.0209949 7.54885e-20)
(0.565056 -0.0118865 -1.83282e-19)
(0.8325 0.00850873 5.41501e-19)
(1.05242 0.0294897 3.56859e-19)
(1.20127 0.0441335 -1.24261e-19)
(1.2841 0.0508744 6.85632e-21)
(1.31855 0.0513079 -1.11095e-19)
(1.32314 0.0480484 3.01422e-20)
(1.31206 0.0434279 2.11328e-20)
(1.29424 0.0390653 -9.49086e-20)
(1.27464 0.035252 -1.82479e-19)
(1.25557 0.0342783 1.08353e-19)
(1.23811 0.0291401 -1.52882e-19)
(0.0129878 -0.00285527 -3.04985e-19)
(0.142319 -0.0217189 -1.62333e-19)
(0.367283 -0.0203159 -4.33328e-19)
(0.646856 -0.00266413 6.89314e-19)
(0.914357 0.0241696 -5.97647e-19)
(1.11789 0.0478741 2.3749e-19)
(1.24492 0.0625989 1.47142e-19)
(1.3085 0.0682159 1.59263e-19)
(1.32948 0.0672988 9.56436e-20)
(1.32629 0.062871 -1.6354e-20)
(1.31155 0.0573016 -8.44518e-20)
(1.29252 0.0520114 -1.91756e-19)
(1.27294 0.0474221 9.45619e-20)
(1.25429 0.0451087 8.29015e-20)
(1.23748 0.0394544 1.63776e-19)
(0.0229855 -0.00568793 -2.68792e-19)
(0.179358 -0.0249599 1.32201e-19)
(0.433407 -0.0163448 1.38881e-19)
(0.728623 0.0100947 -2.98319e-19)
(0.990054 0.0421673 1.16665e-19)
(1.17413 0.0672626 -1.04069e-19)
(1.27957 0.0811282 -1.51036e-19)
(1.32593 0.0851364 -1.66929e-19)
(1.33583 0.0827048 6.07e-20)
(1.32674 0.0771019 1.79293e-19)
(1.30951 0.0706139 2.47722e-19)
(1.28987 0.0644556 9.07681e-20)
(1.2705 0.0591109 -5.38569e-20)
(1.25233 0.0555557 -5.48719e-20)
(1.23607 0.0494642 -4.24048e-20)
(0.0348017 -0.00823167 2.5918e-19)
(0.220742 -0.0263399 -1.30742e-19)
(0.503013 -0.00883841 7.58816e-20)
(0.808322 0.0260866 4.29529e-19)
(1.05847 0.0620531 4.06278e-19)
(1.22136 0.0873211 -3.7547e-19)
(1.30627 0.0995728 1.80219e-19)
(1.33766 0.101644 2.0392e-19)
(1.33864 0.0976217 -3.38164e-19)
(1.3252 0.0908607 6.81292e-20)
(1.30636 0.083477 -1.42559e-19)
(1.28648 0.0764868 2.27431e-20)
(1.26744 0.0703912 -6.62465e-20)
(1.24975 0.0656646 1.10181e-19)
(1.23398 0.0591954 -1.14994e-19)
(0.0485439 -0.0103475 -2.31183e-19)
(0.266222 -0.025448 1.59675e-19)
(0.574664 0.00229849 2.15254e-19)
(0.884232 0.0449497 -5.64058e-20)
(1.11901 0.0834293 -5.10429e-19)
(1.26012 0.107794 -1.7793e-19)
(1.32613 0.11785 -2.75039e-19)
(1.34479 0.117779 1.14219e-19)
(1.33876 0.112145 -1.62968e-20)
(1.32219 0.104247 -1.74495e-19)
(1.30236 0.095977 -1.54381e-19)
(1.28248 0.0881713 2.86181e-20)
(1.26381 0.0813102 5.2244e-20)
(1.2466 0.0754779 -1.04221e-19)
(1.23126 0.0686599 4.83458e-20)
(0.0642786 -0.0118637 9.90664e-20)
(0.315354 -0.0218778 1.77511e-21)
(0.646829 0.0170208 -6.44113e-19)
(0.95503 0.0663099 -4.54725e-20)
(1.17153 0.105955 3.61067e-19)
(1.29113 0.128494 3.61991e-19)
(1.34016 0.135922 2.45848e-19)
(1.34823 0.133599 -4.43914e-20)
(1.3368 0.126359 7.28388e-20)
(1.31804 0.11734 -1.63451e-21)
(1.29765 0.108177 1.24661e-19)
(1.27793 0.0995544 4.74588e-20)
(1.25966 0.091904 9.59986e-20)
(1.24291 0.0850215 -7.04722e-20)
(1.22794 0.077861 -5.02011e-20)
(0.0820231 -0.0125811 -1.66415e-20)
(0.367503 -0.0152705 1.79221e-19)
(0.718001 0.0351701 3.36859e-19)
(1.01979 0.0898048 1.12894e-19)
(1.21618 0.129343 -3.20672e-19)
(1.31519 0.149285 -3.97463e-19)
(1.34929 0.153785 1.61637e-19)
(1.34872 0.149159 -9.63765e-20)
(1.33322 0.140333 2.68192e-19)
(1.31297 0.130194 6.45675e-21)
(1.29233 0.120119 -6.42833e-20)
(1.27286 0.110665 -2.35396e-20)
(1.25499 0.102196 1.10374e-19)
(1.23869 0.0943135 9.22408e-20)
(1.22405 0.0868008 9.45681e-20)
(0.101737 -0.0122813 2.52904e-19)
(0.421866 -0.0053534 -2.76389e-19)
(0.786806 0.0565074 1.73369e-19)
(1.07794 0.115093 2.43462e-19)
(1.2533 0.153353 2.10296e-19)
(1.33311 0.170073 8.52111e-20)
(1.35432 0.171447 4.42073e-20)
(1.34683 0.164512 -1.69594e-20)
(1.32832 0.154117 -1.22991e-19)
(1.30712 0.142845 4.58316e-20)
(1.28643 0.131829 1.07181e-19)
(1.26727 0.12152 4.20052e-20)
(1.2498 0.1122 -3.94211e-20)
(1.23395 0.103364 -4.01434e-20)
(1.21962 0.0954741 -4.57988e-20)
(0.123316 -0.0107386 -1.36654e-19)
(0.47752 0.00803562 9.87886e-20)
(0.852067 0.0807414 -1.27598e-20)
(1.12918 0.141855 -2.55133e-19)
(1.28337 0.177785 -6.73786e-20)
(1.34562 0.190792 1.482e-19)
(1.35591 0.188923 -1.31436e-19)
(1.34298 0.179694 8.75451e-21)
(1.32232 0.167738 -8.07445e-21)
(1.30056 0.15531 -4.17139e-20)
(1.27998 0.143319 -6.79926e-20)
(1.26116 0.132124 -9.4705e-20)
(1.24411 0.121924 -3.56598e-20)
(1.2287 0.112176 5.91619e-20)
(1.21466 0.103874 1.32566e-20)
(0.146583 -0.00773437 -1.72334e-19)
(0.53347 0.0249399 -2.22764e-20)
(0.912835 0.107549 -1.12446e-19)
(1.17345 0.169793 1.04197e-19)
(1.30692 0.202468 -1.22325e-19)
(1.35342 0.21139 -5.33036e-20)
(1.35461 0.206224 1.36671e-20)
(1.33748 0.194727 -2.07184e-20)
(1.31534 0.18121 4.13469e-20)
(1.29332 0.167593 3.89844e-22)
(1.27295 0.154585 2.77532e-20)
(1.25452 0.142474 4.7121e-20)
(1.23791 0.131369 5.32688e-20)
(1.22294 0.120748 -2.27446e-20)
(1.20919 0.111988 -1.63923e-20)
(0.171292 -0.00307268 1.01987e-19)
(0.588707 0.0452897 1.09447e-19)
(0.968391 0.13659 3.77469e-20)
(1.21083 0.198626 -6.07504e-20)
(1.32449 0.227256 1.35312e-20)
(1.3571 0.231827 9.20133e-20)
(1.35083 0.223354 -6.32976e-20)
(1.33056 0.209615 -5.52726e-20)
(1.30747 0.194526 -1.76384e-20)
(1.28541 0.179682 1.10409e-20)
(1.26535 0.165619 -6.04061e-20)
(1.24735 0.152558 1.30432e-20)
(1.23119 0.140531 3.30729e-20)
(1.21668 0.12907 -1.2405e-20)
(1.20323 0.119801 -9.81334e-21)
(0.197131 0.00340568 -6.7054e-20)
(0.642258 0.0689149 -4.65237e-20)
(1.01822 0.167515 -9.01726e-20)
(1.24152 0.228089 -1.44465e-20)
(1.33661 0.252016 -9.33056e-21)
(1.35716 0.252062 -1.00004e-19)
(1.34491 0.240301 3.17359e-20)
(1.32237 0.224345 1.92102e-20)
(1.29874 0.207667 -3.18233e-20)
(1.27683 0.191555 -1.9157e-20)
(1.25715 0.176399 -8.91122e-22)
(1.23962 0.162361 -1.78088e-20)
(1.22396 0.149399 -2.6886e-20)
(1.20992 0.137123 -2.32629e-20)
(1.19683 0.127293 1.60707e-20)
(0.223731 0.0118126 -3.04261e-20)
(0.693223 0.0955612 1.12054e-20)
(1.06201 0.199972 1.52164e-20)
(1.26579 0.25793 1.56826e-20)
(1.34378 0.276625 2.67772e-20)
(1.35403 0.272049 1.89182e-20)
(1.33709 0.257042 -5.31054e-21)
(1.313 0.238889 1.84943e-20)
(1.28918 0.220601 -9.45489e-22)
(1.26756 0.203182 -1.12931e-22)
(1.24835 0.186899 7.35826e-21)
(1.23133 0.171859 -3.40392e-21)
(1.21621 0.157953 2.26331e-21)
(1.20269 0.144876 9.15274e-21)
(1.19002 0.134443 -7.16732e-21)
(0.250681 0.0222066 -1.89597e-20)
(0.740804 0.124905 -4.98146e-21)
(1.09957 0.233608 2.20656e-20)
(1.28395 0.287911 9.63674e-21)
(1.34644 0.300968 2.68987e-20)
(1.34805 0.291738 1.81964e-20)
(1.32756 0.273538 -6.18904e-22)
(1.30252 0.253206 2.16058e-20)
(1.27878 0.233283 -1.07187e-20)
(1.2576 0.214524 1.17166e-21)
(1.23892 0.197088 6.91016e-21)
(1.22247 0.181027 -3.09819e-21)
(1.20793 0.166168 2.94079e-21)
(1.19498 0.152286 1.0264e-20)
(1.1828 0.141226 -3.70092e-21)
(0.277539 0.0345919 -2.6788e-20)
(0.784325 0.15657 -7.78285e-20)
(1.13086 0.268071 -8.72414e-20)
(1.29636 0.317805 -3.28347e-21)
(1.34501 0.324928 -1.29991e-20)
(1.33952 0.311065 -8.95785e-20)
(1.31645 0.289736 4.42986e-20)
(1.29096 0.267241 4.76269e-21)
(1.26754 0.245664 -2.8142e-20)
(1.24692 0.225537 -2.46611e-20)
(1.22886 0.20693 3.62563e-21)
(1.21304 0.189838 -1.38611e-20)
(1.19912 0.17402 -1.46694e-20)
(1.18677 0.159324 -1.97284e-20)
(1.1751 0.147625 1.15108e-20)
(0.303848 0.0489198 1.01907e-19)
(0.823242 0.190136 7.51411e-20)
(1.15591 0.303007 3.18853e-20)
(1.30334 0.347397 -4.43755e-20)
(1.33984 0.348389 2.06163e-20)
(1.32866 0.329958 4.74377e-20)
(1.30386 0.30557 -3.71552e-20)
(1.27835 0.280929 -7.18999e-20)
(1.25546 0.257684 -5.98936e-21)
(1.23551 0.236173 4.08755e-20)
(1.21816 0.216386 -4.79681e-20)
(1.20302 0.19826 1.97787e-20)
(1.1898 0.181485 8.91394e-21)
(1.17809 0.165992 1.1266e-21)
(1.16682 0.153632 3.5481e-22)
(0.329158 0.0650898 -1.21895e-19)
(0.857151 0.225167 -7.7673e-20)
(1.17482 0.338069 -1.20862e-19)
(1.30526 0.376478 1.06968e-19)
(1.33125 0.371232 -1.12935e-19)
(1.31567 0.348332 -2.70414e-20)
(1.28988 0.320963 -2.26344e-21)
(1.26471 0.294198 1.39863e-21)
(1.24253 0.26928 5.33023e-20)
(1.22338 0.246377 -5.74976e-20)
(1.20681 0.225411 4.5397e-20)
(1.19243 0.20625 1.82962e-20)
(1.17998 0.188528 4.37619e-20)
(1.16899 0.172338 -1.96054e-21)
(1.15796 0.159253 -1.2081e-20)
(0.353031 0.0829523 1.86405e-20)
(0.885769 0.261214 2.24261e-20)
(1.18775 0.372917 -4.03406e-20)
(1.30243 0.404842 -1.61137e-19)
(1.31952 0.393334 -3.99626e-20)
(1.30069 0.366093 1.06359e-19)
(1.27455 0.335827 -8.28319e-20)
(1.25003 0.306972 -4.06147e-20)
(1.22874 0.280386 1.24066e-20)
(1.21051 0.256093 -1.33168e-20)
(1.19482 0.23396 -6.92851e-20)
(1.18128 0.213763 -3.34718e-20)
(1.16969 0.195106 -2.88961e-21)
(1.15936 0.17836 8.8285e-21)
(1.14878 0.164497 6.78143e-21)
(0.375062 0.102313 2.31751e-19)
(0.908918 0.29783 -2.91203e-19)
(1.1949 0.407221 1.97358e-19)
(1.29519 0.432287 1.00855e-19)
(1.30491 0.414567 2.88172e-19)
(1.28386 0.383139 8.01759e-21)
(1.25791 0.350068 7.20405e-20)
(1.23433 0.319162 1.99606e-20)
(1.21412 0.290929 -1.26814e-19)
(1.19693 0.265258 4.48226e-20)
(1.18223 0.241983 3.31115e-20)
(1.16961 0.220765 4.713e-20)
(1.15891 0.201226 -4.35295e-20)
(1.14923 0.183946 -1.04881e-20)
(1.13937 0.169315 -1.04299e-21)
(0.394888 0.122939 -3.0972e-20)
(0.926513 0.334571 3.3843e-19)
(1.19652 0.440656 2.54675e-19)
(1.28384 0.458614 4.35609e-20)
(1.28763 0.434801 -2.69894e-19)
(1.26528 0.399364 -1.63735e-19)
(1.24001 0.363589 5.24982e-20)
(1.21762 0.330671 -3.16282e-20)
(1.19871 0.300834 7.00714e-20)
(1.18267 0.273816 1.62879e-20)
(1.16903 0.249423 1.48747e-20)
(1.15742 0.227226 -2.56532e-20)
(1.14763 0.206861 1.16028e-20)
(1.13868 0.189066 4.21613e-20)
(1.12963 0.173666 3.8592e-20)
(0.412192 0.144564 2.56513e-19)
(0.938554 0.371001 -2.76886e-19)
(1.19288 0.472912 -4.23829e-19)
(1.26867 0.48363 3.22165e-20)
(1.26787 0.453903 2.18548e-19)
(1.24505 0.414652 2.08767e-19)
(1.22091 0.376288 1.05859e-19)
(1.20001 0.341404 6.99172e-21)
(1.18251 0.310006 1.71842e-20)
(1.16773 0.281722 3.76015e-21)
(1.15524 0.256238 4.46781e-20)
(1.14472 0.2331 8.62972e-21)
(1.1359 0.21197 1.76877e-21)
(1.12775 0.193681 -1.19097e-20)
(1.11958 0.177529 -1.41996e-20)
(0.426715 0.166896 -3.30654e-19)
(0.945109 0.406701 2.54056e-19)
(1.18425 0.503692 2.2136e-19)
(1.24997 0.507148 -1.50201e-19)
(1.24582 0.471733 -3.11546e-19)
(1.22329 0.42888 -6.30268e-20)
(1.20071 0.388043 -1.48622e-19)
(1.18149 0.35129 5.80053e-20)
(1.1655 0.318396 -1.07228e-20)
(1.15213 0.288888 -4.47745e-20)
(1.1409 0.262375 -1.8334e-20)
(1.13154 0.23835 -4.06764e-21)
(1.12375 0.216517 -1.58084e-20)
(1.11645 0.197759 -5.45525e-21)
(1.10925 0.180883 -4.02296e-21)
(0.438255 0.189626 4.68842e-19)
(0.94631 0.441264 -3.01211e-19)
(1.17094 0.532716 1.60711e-19)
(1.22802 0.528987 1.52035e-19)
(1.22165 0.488145 2.64254e-19)
(1.20015 0.441919 -1.64873e-19)
(1.17942 0.398758 6.12018e-20)
(1.16205 0.360236 6.23443e-20)
(1.14776 0.325922 -5.25976e-20)
(1.1359 0.295263 -1.27377e-20)
(1.12604 0.267783 2.08857e-22)
(1.1179 0.242937 -9.73803e-21)
(1.1112 0.220463 -2.22171e-20)
(1.10481 0.201271 1.01255e-20)
(1.09864 0.183715 -9.78812e-21)
(0.446669 0.212431 -2.59289e-19)
(0.942343 0.474303 1.65155e-20)
(1.15328 0.559719 1.0553e-19)
(1.20308 0.548974 -2.28137e-19)
(1.19559 0.503004 9.20838e-20)
(1.17567 0.453639 1.65449e-20)
(1.15709 0.408331 -7.74535e-20)
(1.14179 0.368152 -3.15721e-20)
(1.12933 0.332514 1.2203e-20)
(1.11911 0.300783 3.92884e-20)
(1.11069 0.272415 3.64477e-20)
(1.10386 0.246822 1.47982e-20)
(1.09829 0.223776 -8.77731e-22)
(1.09286 0.204186 -9.49523e-21)
(1.0878 0.186011 5.14929e-21)
(0.451876 0.234983 4.92874e-20)
(0.933453 0.505454 -2.6805e-19)
(1.13157 0.584445 -3.48329e-19)
(1.17543 0.566926 2.69735e-19)
(1.1678 0.516186 -1.53516e-19)
(1.14994 0.463922 8.33702e-20)
(1.1338 0.416652 5.60989e-20)
(1.12074 0.374951 2.98199e-20)
(1.11026 0.3381 2.97221e-20)
(1.10179 0.305392 -2.37745e-22)
(1.09492 0.276222 -1.98647e-20)
(1.08946 0.249967 -1.77776e-20)
(1.08506 0.226424 -1.84213e-21)
(1.08064 0.206479 1.76292e-21)
(1.07676 0.187766 -1.02046e-20)
(0.453867 0.256956 1.9605e-19)
(0.919969 0.534409 5.04028e-19)
(1.10607 0.60662 -8.91081e-20)
(1.14532 0.582671 -1.69941e-19)
(1.13842 0.527551 2.78939e-19)
(1.12309 0.472666 8.92146e-20)
(1.10964 0.423622 5.21261e-21)
(1.099 0.380551 -2.63705e-20)
(1.09063 0.342613 5.72265e-21)
(1.08401 0.309037 -2.15365e-20)
(1.07876 0.279162 4.85296e-21)
(1.07473 0.252339 3.26862e-22)
(1.07155 0.228377 5.27789e-21)
(1.06818 0.20812 2.96241e-21)
(1.06556 0.188969 1.66817e-20)
(0.452712 0.278016 -8.71314e-20)
(0.902271 0.560957 1.93609e-19)
(1.07696 0.625981 1.68062e-19)
(1.11303 0.59601 -7.77216e-20)
(1.10765 0.536974 -4.20298e-20)
(1.09523 0.479762 -7.54635e-20)
(1.0847 0.429148 8.17264e-21)
(1.07663 0.384875 -2.45359e-20)
(1.0705 0.34599 -7.8008e-22)
(1.06582 0.311664 3.16325e-21)
(1.06228 0.281191 5.53844e-21)
(1.05975 0.253902 -5.45946e-21)
(1.05781 0.229603 -1.85384e-20)
(1.05554 0.209079 3.17548e-20)
(1.05424 0.189605 -2.47273e-20)
(0.448542 0.297793 -1.73509e-19)
(0.880607 0.584869 -6.43215e-19)
(1.04463 0.642419 2.21667e-20)
(1.07884 0.606717 -9.80235e-20)
(1.07565 0.544331 -1.87798e-19)
(1.0665 0.485113 5.83599e-20)
(1.05909 0.433149 -4.8692e-20)
(1.05372 0.387853 6.98629e-21)
(1.04993 0.348173 2.81658e-21)
(1.04729 0.313228 5.6038e-21)
(1.04555 0.282271 -5.58035e-21)
(1.04455 0.254626 -6.9841e-21)
(1.0439 0.230075 -4.55903e-21)
(1.04276 0.209319 -9.35542e-21)
(1.04279 0.189665 1.05077e-20)
(0.441482 0.315947 1.50854e-20)
(0.854964 0.605656 3.39365e-19)
(1.00977 0.655993 1.49837e-19)
(1.04308 0.614689 8.61297e-20)
(1.04264 0.5495 6.03691e-20)
(1.03705 0.488628 3.05243e-20)
(1.03291 0.435547 1.4344e-20)
(1.03037 0.389423 4.15128e-21)
(1.02903 0.34911 3.44129e-20)
(1.02851 0.313685 -4.2824e-20)
(1.02862 0.28237 -6.20294e-21)
(1.02921 0.254488 5.88131e-21)
(1.02985 0.22977 5.08687e-20)
(1.02988 0.208808 1.72205e-20)
(1.0313 0.189145 -5.19955e-20)
(0.4316 0.332304 1.02919e-19)
(0.825591 0.62286 -3.58345e-19)
(0.972767 0.66644 -3.74714e-20)
(1.006 0.619957 -7.00809e-20)
(1.00878 0.552399 -9.57878e-21)
(1.00699 0.490224 -1.95186e-20)
(1.00628 0.436278 -7.3122e-21)
(1.00668 0.389527 -2.33056e-20)
(1.00786 0.348755 -1.44812e-20)
(1.00954 0.312995 3.20157e-20)
(1.01157 0.281454 -3.26571e-20)
(1.01378 0.253465 4.59132e-20)
(1.01574 0.228677 -4.30893e-20)
(1.01703 0.207533 1.51443e-20)
(1.01999 0.188035 5.01798e-20)
(0.419019 0.346659 -2.78773e-19)
(0.793224 0.636456 4.21114e-19)
(0.933872 0.673503 -3.39008e-21)
(0.967837 0.622439 -3.14696e-20)
(0.974279 0.552957 1.63615e-20)
(0.976497 0.48983 -4.9609e-22)
(0.979324 0.435282 2.75524e-20)
(0.982751 0.38812 4.86699e-20)
(0.98653 0.347068 -1.11024e-19)
(0.990468 0.311126 3.60732e-20)
(0.994457 0.279493 8.36412e-21)
(0.998303 0.251522 -6.65647e-20)
(1.00165 0.226766 5.66082e-20)
(1.00448 0.205493 -1.89524e-20)
(1.00931 0.186378 2.48863e-20)
(0.403911 0.358704 3.46442e-19)
(0.758332 0.646268 -2.98424e-19)
(0.893405 0.677054 -5.50356e-20)
(0.928853 0.622057 2.65455e-20)
(0.939324 0.551115 -1.55361e-20)
(0.94571 0.487388 3.895e-20)
(0.952172 0.432513 -5.59739e-20)
(0.958694 0.385162 5.46302e-20)
(0.965128 0.344018 7.14102e-20)
(0.971369 0.308051 -1.13283e-19)
(0.977338 0.276459 3.29292e-20)
(0.982823 0.248608 -1.61351e-20)
(0.98768 0.223938 -4.37738e-21)
(0.992507 0.20258 -6.47477e-20)
(0.999437 0.184368 -3.47738e-20)
(0.386587 0.368248 -1.12797e-19)
(0.72134 0.652155 7.31511e-20)
(0.851713 0.677004 1.8461e-20)
(0.889305 0.618742 2.4109e-20)
(0.904113 0.546824 5.13688e-20)
(0.91479 0.482854 -5.41522e-20)
(0.924958 0.427933 8.62166e-20)