/*--------------------------------*- C++ -*----------------------------------*\
  =========                 |
  \\      /  F ield         | OpenFOAM: The Open Source CFD Toolbox
   \\    /   O peration     | Website:  https://openfoam.org
    \\  /    A nd           | Version:  7
     \\/     M anipulation  |
\*---------------------------------------------------------------------------*/
FoamFile
{
    version     2.0;
    format      ascii;
    class       volScalarField;
    location    "65.001";
    object      p;
}
// * * * * * * * * * * * * * * * * * * * * * * * * * * * * * * * * * * * * * //

dimensions      [0 2 -2 0 0 0 0];

internalField   nonuniform List<scalar> 
3700
(
-0.224654
-0.215939
-0.207463
-0.199322
-0.191508
-0.184055
-0.17699
-0.170318
-0.164034
-0.15813
-0.152597
-0.147424
-0.142602
-0.138121
-0.133969
-0.130137
-0.126615
-0.123391
-0.120456
-0.1178
-0.115416
-0.113293
-0.111426
-0.109807
-0.10843
-0.107291
-0.106384
-0.105708
-0.105258
-0.105033
-0.224022
-0.21567
-0.207584
-0.199802
-0.192313
-0.185156
-0.178357
-0.171922
-0.165848
-0.160131
-0.154763
-0.149735
-0.14504
-0.140669
-0.136614
-0.132864
-0.129411
-0.126247
-0.123362
-0.120748
-0.118399
-0.116305
-0.114462
-0.112862
-0.1115
-0.110373
-0.109475
-0.108805
-0.10836
-0.108137
-0.223017
-0.214985
-0.207262
-0.199823
-0.192652
-0.185789
-0.17926
-0.173071
-0.167218
-0.161699
-0.156507
-0.151636
-0.14708
-0.142831
-0.138882
-0.135225
-0.131853
-0.128758
-0.125934
-0.123371
-0.121065
-0.119008
-0.117195
-0.115621
-0.11428
-0.113169
-0.112284
-0.111623
-0.111183
-0.110964
-0.221682
-0.213946
-0.206585
-0.199483
-0.192619
-0.186041
-0.179776
-0.17383
-0.1682
-0.162882
-0.157872
-0.153164
-0.148753
-0.144633
-0.140798
-0.137242
-0.133959
-0.130941
-0.128184
-0.125679
-0.123423
-0.121409
-0.119632
-0.118088
-0.116772
-0.115681
-0.114812
-0.114162
-0.11373
-0.113514
-0.220035
-0.212575
-0.205599
-0.198835
-0.192268
-0.185964
-0.179957
-0.17425
-0.16884
-0.163722
-0.158894
-0.154351
-0.150088
-0.146101
-0.142386
-0.138935
-0.135745
-0.132811
-0.130125
-0.127684
-0.125483
-0.123516
-0.12178
-0.120269
-0.118982
-0.117914
-0.117062
-0.116426
-0.116002
-0.115791
-0.21809
-0.210874
-0.204325
-0.197898
-0.191617
-0.185583
-0.17983
-0.174358
-0.169164
-0.164245
-0.159598
-0.15522
-0.151107
-0.147255
-0.143661
-0.14032
-0.137227
-0.134379
-0.13177
-0.129396
-0.127254
-0.125338
-0.123645
-0.122172
-0.120915
-0.119872
-0.119041
-0.118419
-0.118005
-0.117798
-0.21583
-0.208865
-0.202793
-0.196676
-0.19067
-0.184907
-0.179408
-0.174169
-0.169189
-0.164466
-0.159999
-0.155786
-0.151823
-0.148108
-0.144638
-0.141408
-0.138415
-0.135656
-0.133127
-0.130824
-0.128743
-0.126881
-0.125235
-0.123801
-0.122578
-0.121562
-0.120752
-0.120146
-0.119742
-0.119541
-0.21327
-0.206624
-0.201034
-0.195167
-0.18944
-0.183951
-0.178704
-0.173695
-0.168926
-0.164398
-0.16011
-0.156062
-0.15225
-0.148673
-0.145327
-0.142211
-0.139321
-0.136653
-0.134206
-0.131976
-0.12996
-0.128154
-0.126557
-0.125165
-0.123977
-0.12299
-0.122202
-0.121613
-0.121221
-0.121025
-0.210448
-0.204288
-0.199039
-0.193392
-0.187956
-0.18274
-0.177737
-0.172952
-0.16839
-0.164055
-0.159946
-0.156062
-0.152401
-0.148962
-0.145743
-0.142741
-0.139954
-0.137381
-0.135018
-0.132862
-0.130912
-0.129165
-0.127619
-0.126271
-0.125119
-0.124162
-0.123399
-0.122827
-0.122446
-0.122256
-0.207478
-0.201856
-0.196761
-0.1914
-0.186254
-0.181294
-0.176524
-0.171957
-0.167601
-0.163456
-0.159523
-0.155802
-0.152291
-0.148989
-0.145896
-0.14301
-0.140328
-0.137849
-0.135571
-0.133492
-0.13161
-0.129923
-0.128429
-0.127126
-0.126012
-0.125087
-0.124347
-0.123794
-0.123426
-0.123242
-0.204393
-0.199199
-0.194268
-0.189229
-0.184349
-0.179629
-0.175084
-0.17073
-0.166574
-0.162616
-0.158856
-0.155296
-0.151933
-0.148769
-0.145801
-0.14303
-0.140453
-0.13807
-0.135878
-0.133877
-0.132063
-0.130437
-0.128996
-0.127739
-0.126664
-0.12577
-0.125057
-0.124522
-0.124166
-0.123988
-0.201173
-0.196317
-0.191617
-0.186873
-0.182245
-0.177757
-0.173433
-0.169287
-0.165326
-0.16155
-0.157961
-0.154558
-0.151342
-0.148313
-0.14547
-0.142814
-0.140342
-0.138054
-0.135948
-0.134025
-0.132281
-0.130716
-0.129329
-0.128119
-0.127083
-0.126222
-0.125534
-0.125019
-0.124676
-0.124504
-0.197818
-0.193261
-0.188817
-0.18434
-0.179954
-0.175693
-0.171585
-0.167643
-0.163872
-0.160274
-0.15685
-0.153603
-0.150531
-0.147635
-0.144916
-0.142373
-0.140005
-0.137812
-0.135793
-0.133947
-0.132273
-0.13077
-0.129438
-0.128274
-0.127278
-0.12645
-0.125788
-0.125293
-0.124962
-0.124797
-0.194343
-0.190068
-0.185874
-0.181647
-0.177493
-0.173453
-0.169555
-0.16581
-0.162224
-0.1588
-0.155539
-0.152442
-0.149512
-0.146748
-0.14415
-0.141719
-0.139454
-0.137355
-0.135422
-0.133654
-0.13205
-0.130609
-0.12933
-0.128214
-0.127258
-0.126463
-0.125827
-0.125351
-0.125034
-0.124875
-0.190769
-0.186759
-0.182802
-0.178811
-0.17488
-0.171054
-0.167357
-0.163803
-0.160396
-0.15714
-0.154038
-0.151089
-0.148297
-0.145662
-0.143183
-0.140863
-0.1387
-0.136694
-0.134846
-0.133155
-0.13162
-0.13024
-0.129016
-0.127947
-0.127031
-0.126269
-0.12566
-0.125203
-0.124899
-0.124747
-0.187112
-0.183349
-0.179616
-0.175849
-0.17213
-0.168508
-0.165006
-0.161635
-0.158401
-0.155309
-0.152359
-0.149555
-0.146898
-0.144389
-0.142028
-0.139816
-0.137753
-0.135839
-0.134075
-0.13246
-0.130993
-0.129675
-0.128505
-0.127482
-0.126607
-0.125878
-0.125295
-0.124858
-0.124567
-0.124421
-0.183385
-0.17985
-0.176328
-0.172772
-0.169257
-0.165829
-0.162512
-0.159317
-0.15625
-0.153316
-0.150515
-0.147852
-0.145326
-0.142939
-0.140693
-0.138588
-0.136623
-0.1348
-0.133119
-0.131579
-0.13018
-0.128923
-0.127806
-0.12683
-0.125994
-0.125298
-0.124741
-0.124324
-0.124046
-0.123907
-0.179598
-0.176273
-0.17295
-0.169593
-0.16627
-0.163027
-0.159887
-0.156861
-0.153955
-0.151172
-0.148516
-0.145989
-0.143591
-0.141325
-0.13919
-0.137189
-0.135321
-0.133587
-0.131987
-0.130522
-0.12919
-0.127992
-0.126928
-0.125998
-0.125201
-0.124538
-0.124007
-0.123609
-0.123344
-0.123211
-0.175757
-0.172627
-0.169489
-0.166319
-0.163178
-0.160111
-0.15714
-0.154276
-0.151524
-0.148889
-0.146372
-0.143977
-0.141704
-0.139554
-0.137529
-0.13563
-0.133856
-0.13221
-0.13069
-0.129297
-0.128031
-0.126893
-0.125881
-0.124996
-0.124238
-0.123607
-0.123102
-0.122723
-0.122471
-0.122345
-0.171869
-0.168918
-0.165952
-0.162957
-0.159988
-0.157089
-0.15428
-0.151571
-0.148968
-0.146474
-0.144093
-0.141825
-0.139673
-0.137637
-0.135719
-0.133919
-0.132238
-0.130677
-0.129236
-0.127915
-0.126714
-0.125633
-0.124673
-0.123833
-0.123113
-0.122514
-0.122034
-0.121674
-0.121435
-0.121315
-0.167934
-0.165149
-0.162344
-0.159514
-0.156708
-0.153968
-0.151313
-0.148753
-0.146293
-0.143937
-0.141686
-0.139543
-0.137508
-0.135583
-0.133769
-0.132066
-0.130476
-0.128999
-0.127634
-0.126384
-0.125246
-0.124223
-0.123313
-0.122517
-0.121835
-0.121267
-0.120812
-0.120472
-0.120244
-0.120131
-0.163954
-0.161321
-0.158668
-0.155993
-0.153342
-0.150754
-0.148247
-0.145831
-0.143509
-0.141285
-0.139161
-0.137138
-0.135217
-0.1334
-0.131688
-0.13008
-0.128579
-0.127183
-0.125895
-0.124713
-0.123638
-0.122671
-0.121811
-0.121058
-0.120413
-0.119876
-0.119446
-0.119123
-0.118908
-0.118801
-0.159926
-0.157435
-0.154925
-0.152397
-0.149894
-0.147452
-0.145087
-0.142809
-0.140621
-0.138525
-0.136524
-0.134618
-0.132809
-0.131098
-0.129484
-0.12797
-0.126555
-0.12524
-0.124025
-0.122911
-0.121897
-0.120985
-0.120174
-0.119464
-0.118856
-0.118348
-0.117943
-0.117638
-0.117436
-0.117334
-0.155847
-0.15349
-0.151115
-0.148729
-0.146367
-0.144065
-0.141839
-0.139694
-0.137635
-0.135665
-0.133783
-0.131992
-0.130291
-0.128683
-0.127166
-0.125743
-0.124412
-0.123176
-0.122034
-0.120986
-0.120033
-0.119174
-0.118411
-0.117743
-0.117171
-0.116693
-0.116311
-0.116025
-0.115834
-0.115739
-0.151713
-0.149483
-0.147239
-0.144988
-0.142764
-0.140599
-0.138505
-0.136491
-0.134559
-0.13271
-0.130946
-0.129266
-0.127672
-0.126163
-0.124742
-0.123407
-0.12216
-0.121
-0.119929
-0.118946
-0.118052
-0.117247
-0.116531
-0.115904
-0.115367
-0.114919
-0.11456
-0.114291
-0.114112
-0.114023
-0.147519
-0.145412
-0.143295
-0.141177
-0.139087
-0.137055
-0.135093
-0.133206
-0.131397
-0.129668
-0.128018
-0.126447
-0.124957
-0.123547
-0.122219
-0.120971
-0.119805
-0.118721
-0.11772
-0.116801
-0.115965
-0.115212
-0.114542
-0.113955
-0.113452
-0.113033
-0.112698
-0.112446
-0.112278
-0.112194
-0.143261
-0.141275
-0.139283
-0.137296
-0.135338
-0.133437
-0.131604
-0.129843
-0.128156
-0.126544
-0.125006
-0.123543
-0.122155
-0.120842
-0.119604
-0.118442
-0.117356
-0.116347
-0.115413
-0.114557
-0.113778
-0.113076
-0.112451
-0.111904
-0.111435
-0.111044
-0.110731
-0.110496
-0.11034
-0.110262
-0.138935
-0.137069
-0.135202
-0.133346
-0.13152
-0.12975
-0.128044
-0.126408
-0.124841
-0.123344
-0.121917
-0.12056
-0.119273
-0.118055
-0.116907
-0.115829
-0.114821
-0.113884
-0.113018
-0.112223
-0.111499
-0.110847
-0.110267
-0.109759
-0.109323
-0.10896
-0.108669
-0.108451
-0.108305
-0.108233
-0.134538
-0.132794
-0.131055
-0.12933
-0.127636
-0.125996
-0.124418
-0.122905
-0.121458
-0.120076
-0.118758
-0.117505
-0.116317
-0.115193
-0.114133
-0.113137
-0.112207
-0.111341
-0.110541
-0.109806
-0.109137
-0.108534
-0.107998
-0.107528
-0.107124
-0.106788
-0.106519
-0.106317
-0.106182
-0.106115
-0.130071
-0.128451
-0.126841
-0.12525
-0.12369
-0.122182
-0.120731
-0.119342
-0.118013
-0.116744
-0.115535
-0.114386
-0.113295
-0.112263
-0.11129
-0.110376
-0.109521
-0.108725
-0.10799
-0.107314
-0.106699
-0.106144
-0.10565
-0.105217
-0.104846
-0.104536
-0.104288
-0.104102
-0.103978
-0.103916
-0.125533
-0.124042
-0.122566
-0.121111
-0.119687
-0.118311
-0.116989
-0.115723
-0.114513
-0.113357
-0.112256
-0.111208
-0.110214
-0.109273
-0.108385
-0.107551
-0.106771
-0.106044
-0.105372
-0.104754
-0.104191
-0.103684
-0.103232
-0.102836
-0.102496
-0.102212
-0.101985
-0.101814
-0.1017
-0.101644
-0.120929
-0.119572
-0.118234
-0.116919
-0.115632
-0.114391
-0.113198
-0.112056
-0.110964
-0.109921
-0.108927
-0.10798
-0.107082
-0.10623
-0.105427
-0.104672
-0.103964
-0.103305
-0.102695
-0.102134
-0.101623
-0.101162
-0.100751
-0.10039
-0.100081
-0.0998223
-0.0996154
-0.09946
-0.0993564
-0.0993046
-0.116265
-0.115048
-0.113852
-0.112679
-0.111534
-0.110428
-0.109366
-0.108348
-0.107374
-0.106443
-0.105555
-0.104709
-0.103905
-0.103142
-0.102422
-0.101744
-0.101108
-0.100516
-0.0999665
-0.0994613
-0.0990004
-0.0985842
-0.0982131
-0.0978876
-0.0976079
-0.0973744
-0.0971873
-0.0970467
-0.096953
-0.0969061
-0.111549
-0.110477
-0.109428
-0.108402
-0.1074
-0.106431
-0.1055
-0.104607
-0.103751
-0.102932
-0.102149
-0.101403
-0.100691
-0.100016
-0.0993776
-0.0987753
-0.0982102
-0.0976826
-0.0971932
-0.0967423
-0.0963306
-0.0959585
-0.0956265
-0.095335
-0.0950844
-0.0948751
-0.0947073
-0.0945812
-0.094497
-0.0944549
-0.106793
-0.105871
-0.104973
-0.104097
-0.103239
-0.102409
-0.10161
-0.100842
-0.100104
-0.0993956
-0.0987171
-0.0980682
-0.097449
-0.0968599
-0.0963012
-0.0957734
-0.0952773
-0.0948133
-0.0943821
-0.0939844
-0.0936206
-0.0932915
-0.0929976
-0.0927392
-0.0925169
-0.0923311
-0.092182
-0.09207
-0.0919952
-0.0919578
-0.10201
-0.101243
-0.100499
-0.0997741
-0.0990628
-0.0983724
-0.0977051
-0.097061
-0.0964399
-0.0958417
-0.0952663
-0.094714
-0.0941852
-0.0936803
-0.0932002
-0.0927453
-0.0923165
-0.0919146
-0.0915402
-0.0911942
-0.0908772
-0.0905899
-0.0903328
-0.0901067
-0.0899119
-0.0897489
-0.089618
-0.0895196
-0.0894539
-0.089421
-0.0972154
-0.0966055
-0.0960185
-0.0954463
-0.094882
-0.094331
-0.0937951
-0.0932744
-0.092769
-0.0922792
-0.0918054
-0.091348
-0.0909077
-0.0904854
-0.0900819
-0.0896981
-0.089335
-0.0889934
-0.0886743
-0.0883785
-0.0881068
-0.08786
-0.0876388
-0.0874438
-0.0872757
-0.0871348
-0.0870215
-0.0869363
-0.0868794
-0.0868509
-0.0924254
-0.0919753
-0.0915457
-0.0911266
-0.0907088
-0.0902964
-0.0898905
-0.0894917
-0.0891004
-0.0887171
-0.0883427
-0.0879781
-0.0876243
-0.0872824
-0.0869536
-0.0866389
-0.0863395
-0.0860564
-0.0857908
-0.0855436
-0.0853158
-0.0851082
-0.0849216
-0.0847568
-0.0846143
-0.0844947
-0.0843985
-0.084326
-0.0842776
-0.0842533
-0.0876582
-0.0873683
-0.0870957
-0.0868287
-0.0865558
-0.08628
-0.0860022
-0.085723
-0.0854432
-0.0851641
-0.0848867
-0.0846124
-0.0843427
-0.0840789
-0.0838223
-0.0835745
-0.0833367
-0.0831102
-0.0828962
-0.0826959
-0.0825104
-0.0823405
-0.0821873
-0.0820514
-0.0819337
-0.0818346
-0.0817548
-0.0816945
-0.0816542
-0.081634
-0.0829324
-0.0828015
-0.082684
-0.0825665
-0.0824359
-0.0822937
-0.0821409
-0.0819783
-0.0818071
-0.081629
-0.0814457
-0.0812589
-0.0810704
-0.0808819
-0.0806951
-0.0805117
-0.0803331
-0.080161
-0.0799967
-0.0798414
-0.0796964
-0.0795628
-0.0794415
-0.0793334
-0.0792393
-0.0791599
-0.0790958
-0.0790472
-0.0790147
-0.0789984
-0.0782668
-0.0782919
-0.0783259
-0.0783541
-0.0783617
-0.0783493
-0.0783175
-0.0782676
-0.0782013
-0.0781206
-0.0780278
-0.0779251
-0.0778147
-0.0776985
-0.0775786
-0.0774568
-0.0773351
-0.077215
-0.0770981
-0.0769858
-0.0768796
-0.0767805
-0.0766897
-0.0766081
-0.0765367
-0.076476
-0.0764268
-0.0763894
-0.0763643
-0.0763517
-0.0736798
-0.0738563
-0.0740368
-0.0742053
-0.0743459
-0.0744581
-0.0745426
-0.0746007
-0.0746347
-0.0746473
-0.0746411
-0.0746187
-0.0745827
-0.0745354
-0.0744792
-0.0744162
-0.0743485
-0.0742778
-0.074206
-0.0741347
-0.0740652
-0.0739989
-0.0739371
-0.0738807
-0.0738307
-0.0737878
-0.0737527
-0.073726
-0.0737079
-0.0736988
-0.0691896
-0.069511
-0.0698313
-0.0701336
-0.0704007
-0.0706314
-0.0708262
-0.0709869
-0.0711162
-0.0712172
-0.071293
-0.0713467
-0.0713811
-0.0713991
-0.0714031
-0.0713957
-0.071379
-0.0713551
-0.0713259
-0.0712931
-0.0712584
-0.0712231
-0.0711886
-0.0711559
-0.0711262
-0.0711
-0.0710783
-0.0710616
-0.0710502
-0.0710444
-0.0648128
-0.0652712
-0.0657233
-0.0661514
-0.0665375
-0.0668796
-0.0671781
-0.0674351
-0.0676539
-0.0678379
-0.0679907
-0.0681158
-0.0682164
-0.0682955
-0.0683561
-0.0684008
-0.0684319
-0.0684519
-0.0684626
-0.068466
-0.0684639
-0.0684576
-0.0684487
-0.0684383
-0.0684275
-0.0684171
-0.0684079
-0.0684005
-0.0683954
-0.0683927
-0.0605652
-0.0611511
-0.0617257
-0.0622706
-0.062767
-0.0632124
-0.0636071
-0.0639536
-0.0642554
-0.0645166
-0.0647409
-0.0649323
-0.0650944
-0.0652304
-0.0653436
-0.0654366
-0.0655123
-0.065573
-0.0656208
-0.0656579
-0.0656861
-0.0657069
-0.0657218
-0.0657321
-0.0657389
-0.0657432
-0.0657456
-0.0657469
-0.0657476
-0.0657478
-0.0564605
-0.0571633
-0.0578498
-0.0585014
-0.0590987
-0.0596385
-0.0601213
-0.0605497
-0.0609277
-0.0612596
-0.0615496
-0.0618019
-0.0620205
-0.0622088
-0.0623702
-0.0625079
-0.0626245
-0.0627227
-0.0628048
-0.0628729
-0.062929
-0.0629747
-0.0630116
-0.063041
-0.0630641
-0.0630819
-0.0630951
-0.0631045
-0.0631104
-0.0631133
-0.0525108
-0.0533188
-0.0541059
-0.0548533
-0.0555412
-0.0561659
-0.0567279
-0.0572302
-0.057677
-0.0580728
-0.0584222
-0.0587297
-0.0589995
-0.0592353
-0.0594407
-0.0596189
-0.0597728
-0.0599052
-0.0600185
-0.0601149
-0.0601964
-0.0602649
-0.0603218
-0.0603687
-0.0604067
-0.0604368
-0.0604598
-0.0604766
-0.0604874
-0.0604928
-0.0487262
-0.0496269
-0.0505024
-0.0513338
-0.0521014
-0.0528009
-0.053433
-0.0540007
-0.0545084
-0.054961
-0.0553634
-0.0557202
-0.0560357
-0.056314
-0.0565587
-0.0567732
-0.0569606
-0.0571237
-0.0572651
-0.057387
-0.0574915
-0.0575804
-0.0576555
-0.0577182
-0.0577696
-0.0578108
-0.0578428
-0.0578662
-0.0578815
-0.0578891
-0.0451148
-0.0460948
-0.0470461
-0.0479495
-0.0487854
-0.0495493
-0.0502418
-0.050866
-0.0514266
-0.0519287
-0.0523772
-0.0527771
-0.0531327
-0.0534483
-0.0537277
-0.0539743
-0.0541913
-0.0543816
-0.0545478
-0.0546923
-0.0548172
-0.0549245
-0.0550157
-0.0550924
-0.0551558
-0.055207
-0.0552469
-0.0552762
-0.0552955
-0.055305
-0.0416822
-0.0427281
-0.0437419
-0.0447049
-0.0455974
-0.0464149
-0.0471579
-0.0478297
-0.048435
-0.0489789
-0.0494668
-0.0499034
-0.0502934
-0.0506411
-0.0509503
-0.0512246
-0.0514673
-0.0516812
-0.0518691
-0.0520333
-0.052176
-0.0522992
-0.0524046
-0.0524936
-0.0525675
-0.0526275
-0.0526744
-0.0527089
-0.0527317
-0.052743
-0.0384324
-0.0395304
-0.0405935
-0.0416033
-0.0425408
-0.043401
-0.0441845
-0.0448947
-0.0455363
-0.0461145
-0.0466347
-0.0471017
-0.0475203
-0.0478948
-0.048229
-0.0485267
-0.048791
-0.0490249
-0.0492312
-0.0494122
-0.0495702
-0.0497071
-0.0498245
-0.0499241
-0.0500071
-0.0500746
-0.0501275
-0.0501666
-0.0501924
-0.0502051
-0.0353669
-0.0365031
-0.0376022
-0.0386463
-0.0396168
-0.0405088
-0.0413229
-0.0420623
-0.0427318
-0.0433367
-0.0438822
-0.0443733
-0.0448147
-0.0452107
-0.0455652
-0.0458818
-0.0461638
-0.0464142
-0.0466356
-0.0468305
-0.0470011
-0.0471494
-0.047277
-0.0473854
-0.047476
-0.0475498
-0.0476078
-0.0476507
-0.047679
-0.047693
-0.0324855
-0.0336463
-0.0347683
-0.0358342
-0.0368261
-0.0377392
-0.038574
-0.0393336
-0.0400228
-0.0406468
-0.0412108
-0.0417196
-0.0421781
-0.0425903
-0.0429603
-0.0432915
-0.0435873
-0.0438505
-0.0440839
-0.0442899
-0.0444706
-0.0446279
-0.0447637
-0.0448792
-0.044976
-0.0450549
-0.045117
-0.045163
-0.0451933
-0.0452084
-0.0297855
-0.0309577
-0.0320898
-0.0331653
-0.0341673
-0.0350909
-0.0359366
-0.0367076
-0.0374084
-0.0380441
-0.0386198
-0.0391403
-0.0396101
-0.0400335
-0.0404143
-0.0407559
-0.0410615
-0.0413342
-0.0415764
-0.0417906
-0.0419789
-0.0421431
-0.042285
-0.0424061
-0.0425075
-0.0425905
-0.0426557
-0.0427041
-0.0427361
-0.0427519
-0.0272633
-0.028434
-0.0295639
-0.0306375
-0.0316386
-0.0325626
-0.03341
-0.0341838
-0.0348884
-0.0355286
-0.0361095
-0.0366356
-0.0371114
-0.0375409
-0.0379279
-0.0382758
-0.0385876
-0.0388663
-0.0391142
-0.0393339
-0.0395273
-0.0396963
-0.0398425
-0.0399674
-0.0400722
-0.0401579
-0.0402255
-0.0402756
-0.0403087
-0.0403251
-0.0249126
-0.0260696
-0.0271855
-0.0282458
-0.0292356
-0.0301504
-0.0309905
-0.0317589
-0.0324598
-0.0330978
-0.0336775
-0.0342035
-0.03468
-0.0351109
-0.0354998
-0.0358499
-0.0361643
-0.0364457
-0.0366965
-0.0369189
-0.0371151
-0.0372867
-0.0374354
-0.0375626
-0.0376693
-0.0377568
-0.0378258
-0.0378769
-0.0379108
-0.0379276
-0.0227267
-0.0238587
-0.0249496
-0.0259863
-0.026955
-0.0278514
-0.0286759
-0.0294313
-0.0301213
-0.0307505
-0.0313231
-0.0318436
-0.0323158
-0.0327435
-0.0331301
-0.0334788
-0.0337922
-0.0340732
-0.034324
-0.0345467
-0.0347434
-0.0349157
-0.0350651
-0.035193
-0.0353005
-0.0353886
-0.0354581
-0.0355097
-0.0355439
-0.0355608
-0.0206961
-0.0217923
-0.0228479
-0.0238512
-0.0247895
-0.0256591
-0.0264602
-0.0271952
-0.0278679
-0.0284821
-0.0290422
-0.029552
-0.0300152
-0.0304355
-0.0308159
-0.0311594
-0.0314687
-0.0317463
-0.0319944
-0.032215
-0.03241
-0.032581
-0.0327295
-0.0328567
-0.0329637
-0.0330514
-0.0331207
-0.0331722
-0.0332062
-0.0332232
-0.0188119
-0.0198627
-0.0208738
-0.0218349
-0.0227348
-0.0235699
-0.0243404
-0.0250485
-0.0256977
-0.0262915
-0.0268337
-0.0273281
-0.0277781
-0.0281868
-0.0285574
-0.0288924
-0.0291945
-0.029466
-0.0297089
-0.0299251
-0.0301165
-0.0302844
-0.0304304
-0.0305555
-0.0306608
-0.0307473
-0.0308155
-0.0308663
-0.0308998
-0.0309165
-0.0170621
-0.0180584
-0.0190163
-0.0199272
-0.020781
-0.0215744
-0.0223079
-0.0229832
-0.0236033
-0.0241715
-0.0246913
-0.0251659
-0.0255986
-0.0259922
-0.0263495
-0.026673
-0.026965
-0.0272278
-0.0274631
-0.0276729
-0.0278587
-0.0280219
-0.0281638
-0.0282856
-0.0283882
-0.0284724
-0.028539
-0.0285885
-0.0286212
-0.0286376
-0.015436
-0.0163705
-0.0172682
-0.0181221
-0.0189234
-0.0196693
-0.0203601
-0.0209972
-0.0215834
-0.0221216
-0.0226147
-0.0230657
-0.0234774
-0.0238526
-0.0241936
-0.0245027
-0.0247822
-0.0250338
-0.0252595
-0.0254609
-0.0256393
-0.0257962
-0.0259328
-0.0260501
-0.0261489
-0.0262301
-0.0262943
-0.026342
-0.0263736
-0.0263893
-0.0139197
-0.0147851
-0.0156156
-0.0164062
-0.0171493
-0.0178423
-0.0184853
-0.0190798
-0.0196278
-0.0201318
-0.0205945
-0.0210185
-0.0214061
-0.0217598
-0.0220817
-0.022374
-0.0226384
-0.0228769
-0.0230909
-0.023282
-0.0234516
-0.0236008
-0.0237308
-0.0238424
-0.0239366
-0.024014
-0.0240752
-0.0241207
-0.0241508
-0.0241659
-0.0125014
-0.013293
-0.0140521
-0.014775
-0.0154555
-0.0160915
-0.0166829
-0.0172309
-0.0177371
-0.0182037
-0.0186329
-0.0190268
-0.0193875
-0.0197172
-0.0200176
-0.0202907
-0.0205382
-0.0207615
-0.0209621
-0.0211415
-0.0213007
-0.021441
-0.0215632
-0.0216682
-0.0217569
-0.0218298
-0.0218874
-0.0219303
-0.0219587
-0.0219728
-0.011166
-0.0118781
-0.0125605
-0.0132113
-0.0138253
-0.0144006
-0.0149371
-0.0154354
-0.015897
-0.0163233
-0.0167162
-0.0170775
-0.017409
-0.0177123
-0.0179892
-0.0182412
-0.0184697
-0.0186762
-0.0188619
-0.019028
-0.0191756
-0.0193057
-0.0194192
-0.0195167
-0.0195991
-0.0196668
-0.0197205
-0.0197604
-0.0197868
-0.0198001
-0.0099014
-0.0105326
-0.0111369
-0.0117139
-0.0122595
-0.012772
-0.0132513
-0.0136979
-0.0141125
-0.0144965
-0.0148511
-0.0151778
-0.0154781
-0.0157533
-0.0160048
-0.016234
-0.0164421
-0.0166303
-0.0167998
-0.0169515
-0.0170864
-0.0172053
-0.0173091
-0.0173984
-0.0174738
-0.0175359
-0.017585
-0.0176216
-0.0176458
-0.0176577
-0.00869116
-0.00923697
-0.00975988
-0.0102605
-0.0107356
-0.0111835
-0.011604
-0.011997
-0.0123631
-0.0127029
-0.0130175
-0.013308
-0.0135754
-0.0138208
-0.0140455
-0.0142505
-0.0144368
-0.0146055
-0.0147574
-0.0148936
-0.0150147
-0.0151216
-0.015215
-0.0152953
-0.0153632
-0.0154191
-0.0154633
-0.0154963
-0.0155181
-0.0155292
-0.00752399
-0.00798746
-0.00843106
-0.00885663
-0.00926168
-0.00964507
-0.0100063
-0.0103452
-0.0106618
-0.0109566
-0.0112302
-0.0114834
-0.0117168
-0.0119315
-0.0121282
-0.0123079
-0.0124714
-0.0126196
-0.0127532
-0.012873
-0.0129796
-0.0130738
-0.013156
-0.0132268
-0.0132867
-0.013336
-0.013375
-0.0134041
-0.0134233
-0.0134327
-0.00638209
-0.00675958
-0.00712208
-0.00747184
-0.00780667
-0.00812533
-0.0084271
-0.00871142
-0.00897806
-0.00922709
-0.00945878
-0.00967359
-0.00987206
-0.0100548
-0.0102226
-0.0103759
-0.0105156
-0.0106423
-0.0107567
-0.0108592
-0.0109506
-0.0110313
-0.0111019
-0.0111626
-0.011214
-0.0112563
-0.0112899
-0.0113148
-0.0113315
-0.01134
-0.00525738
-0.00555763
-0.00584543
-0.00612391
-0.00639161
-0.00664762
-0.00689121
-0.00712174
-0.00733877
-0.00754213
-0.00773186
-0.00790815
-0.00807135
-0.00822187
-0.00836018
-0.0084868
-0.00860224
-0.00870701
-0.00880162
-0.00888655
-0.00896226
-0.00902915
-0.00908762
-0.00913801
-0.00918063
-0.00921573
-0.00924354
-0.00926424
-0.00927792
-0.00928436
-0.00412863
-0.00434839
-0.00456104
-0.00476905
-0.00497082
-0.00516527
-0.0053515
-0.00552869
-0.00569621
-0.00585371
-0.00600104
-0.00613823
-0.00626545
-0.00638294
-0.00649104
-0.00659008
-0.00668046
-0.00676254
-0.0068367
-0.00690331
-0.00696271
-0.00701521
-0.00706111
-0.00710068
-0.00713416
-0.00716174
-0.0071836
-0.00719989
-0.00721081
-0.00721681
-0.00299681
-0.00315174
-0.00330034
-0.00344565
-0.00358683
-0.0037234
-0.00385485
-0.00398055
-0.00409994
-0.0042126
-0.00431832
-0.00441701
-0.0045087
-0.00459351
-0.00467163
-0.00474328
-0.0048087
-0.00486815
-0.0049219
-0.00497018
-0.00501325
-0.00505134
-0.00508464
-0.00511336
-0.00513765
-0.00515766
-0.0051735
-0.00518527
-0.00519294
-0.00519607
-0.00183085
-0.00191715
-0.00200172
-0.00208565
-0.00216777
-0.00224782
-0.00232546
-0.00240014
-0.0024714
-0.00253888
-0.00260237
-0.00266176
-0.00271702
-0.00276821
-0.00281539
-0.0028587
-0.00289826
-0.00293424
-0.00296676
-0.002996
-0.00302208
-0.00304515
-0.00306532
-0.00308272
-0.00309744
-0.00310956
-0.00311915
-0.00312627
-0.00313116
-0.0031345
-0.000650286
-0.000689622
-0.000724683
-0.000756581
-0.000785859
-0.000813716
-0.000840629
-0.000866632
-0.000891644
-0.000915543
-0.000938205
-0.00095953
-0.00097946
-0.00099797
-0.00101507
-0.00103078
-0.00104514
-0.00105819
-0.00107
-0.00108062
-0.00109009
-0.00109846
-0.00110578
-0.00111209
-0.00111743
-0.00112183
-0.00112531
-0.00112781
-0.00112903
-0.00112828
-0.229397
-0.228448
-0.227146
-0.225518
-0.223567
-0.221314
-0.218759
-0.215847
-0.212989
-0.209975
-0.206777
-0.20342
-0.199924
-0.196313
-0.192607
-0.188826
-0.184983
-0.181087
-0.177146
-0.173165
-0.169145
-0.165086
-0.160986
-0.156839
-0.152641
-0.148385
-0.144067
-0.13968
-0.135222
-0.130691
-0.126087
-0.121413
-0.116675
-0.111883
-0.107046
-0.102178
-0.0972957
-0.0924164
-0.0875587
-0.0827423
-0.077987
-0.0733125
-0.0687379
-0.064281
-0.0599585
-0.0557851
-0.0517736
-0.0479349
-0.0442774
-0.0408073
-0.0375287
-0.0344432
-0.0315507
-0.0288483
-0.0263322
-0.0239957
-0.0218317
-0.0198305
-0.0179822
-0.0162748
-0.0146963
-0.0132331
-0.0118713
-0.0105973
-0.00939462
-0.00825135
-0.00714751
-0.00607493
-0.00500941
-0.00394786
-0.00286446
-0.00175799
-0.000611361
-0.233774
-0.232866
-0.231597
-0.229994
-0.228074
-0.225845
-0.223294
-0.220321
-0.217505
-0.214498
-0.211278
-0.20789
-0.204365
-0.200723
-0.196983
-0.193165
-0.189285
-0.185354
-0.181381
-0.177372
-0.173331
-0.169258
-0.165152
-0.161008
-0.156821
-0.152585
-0.148292
-0.143937
-0.139513
-0.135016
-0.130445
-0.1258
-0.121083
-0.116302
-0.111463
-0.10658
-0.101666
-0.0967377
-0.0918132
-0.086912
-0.0820543
-0.0772605
-0.0725509
-0.0679451
-0.0634614
-0.0591167
-0.0549259
-0.0509021
-0.0470561
-0.0433964
-0.0399292
-0.0366583
-0.0335853
-0.0307097
-0.0280286
-0.0255377
-0.0232302
-0.0210987
-0.019133
-0.017323
-0.0156566
-0.014121
-0.0127032
-0.0113876
-0.0101624
-0.00900747
-0.00791546
-0.00685859
-0.00583865
-0.00481562
-0.00380629
-0.00275569
-0.00169823
-0.000572296
-0.236579
-0.235366
-0.233825
-0.23197
-0.229806
-0.227307
-0.224479
-0.221686
-0.218736
-0.215559
-0.212189
-0.208667
-0.205022
-0.201271
-0.197433
-0.193526
-0.189565
-0.185562
-0.181525
-0.177459
-0.173367
-0.169248
-0.1651
-0.160917
-0.156694
-0.152422
-0.148095
-0.143705
-0.139246
-0.134713
-0.130105
-0.12542
-0.120663
-0.115839
-0.110958
-0.106032
-0.101075
-0.096104
-0.0911382
-0.0861976
-0.0813029
-0.0764752
-0.0717353
-0.067103
-0.0625973
-0.058235
-0.0540315
-0.0499999
-0.0461509
-0.0424932
-0.0390325
-0.0357729
-0.0327154
-0.0298594
-0.0272018
-0.024738
-0.022461
-0.0203628
-0.0184334
-0.0166621
-0.0150366
-0.0135437
-0.0121708
-0.0109008
-0.00972367
-0.00861588
-0.00757454
-0.00656406
-0.00559684
-0.00461567
-0.00366015
-0.00264068
-0.00163687
-0.000527205
-0.239076
-0.237616
-0.235855
-0.23379
-0.231403
-0.228739
-0.225848
-0.222926
-0.219803
-0.216467
-0.21296
-0.209318
-0.205564
-0.201717
-0.197791
-0.193807
-0.189777
-0.185712
-0.181619
-0.177504
-0.173368
-0.16921
-0.165026
-0.16081
-0.156556
-0.152255
-0.147899
-0.14348
-0.138991
-0.134427
-0.129787
-0.125069
-0.120277
-0.115418
-0.1105
-0.105536
-0.100541
-0.0955326
-0.0905301
-0.0855541
-0.0806259
-0.0757672
-0.0709991
-0.066342
-0.0618149
-0.0574354
-0.0532187
-0.0491782
-0.0453247
-0.0416666
-0.0382099
-0.0349584
-0.031913
-0.0290729
-0.0264348
-0.0239938
-0.0217427
-0.0196734
-0.0177756
-0.0160382
-0.0144491
-0.0129944
-0.0116619
-0.0104334
-0.0093003
-0.00823613
-0.00724214
-0.00627534
-0.00535866
-0.00441721
-0.00351516
-0.00252417
-0.00157657
-0.000476988
-0.241117
-0.239436
-0.23747
-0.235217
-0.232688
-0.229737
-0.226886
-0.223846
-0.220578
-0.217117
-0.213504
-0.209765
-0.205923
-0.201994
-0.197997
-0.193947
-0.189858
-0.185741
-0.181601
-0.177444
-0.173271
-0.169079
-0.164865
-0.160621
-0.15634
-0.152013
-0.147632
-0.143188
-0.138674
-0.134085
-0.129418
-0.124673
-0.119853
-0.114965
-0.110017
-0.105023
-0.0999975
-0.094959
-0.0899271
-0.0849228
-0.079968
-0.0750845
-0.0702942
-0.0656175
-0.061074
-0.0566813
-0.0524548
-0.0484081
-0.0445519
-0.0408949
-0.0374428
-0.0341993
-0.0311652
-0.0283397
-0.0257192
-0.0232987
-0.0210707
-0.019027
-0.0171572
-0.0154499
-0.0138931
-0.0124724
-0.0111761
-0.00998504
-0.00889179
-0.0078676
-0.00691731
-0.0059913
-0.00512256
-0.00421864
-0.0033694
-0.00240428
-0.00151537
-0.000419831
-0.244262
-0.242683
-0.240827
-0.238701
-0.23626
-0.233422
-0.230682
-0.227705
-0.224505
-0.221113
-0.217551
-0.213849
-0.21003
-0.206115
-0.202119
-0.198062
-0.193958
-0.18982
-0.185658
-0.181479
-0.177286
-0.17308
-0.168858
-0.164616
-0.160347
-0.156042
-0.151693
-0.14729
-0.142824
-0.138289
-0.133679
-0.12899
-0.124223
-0.119381
-0.11447
-0.1095
-0.104483
-0.0994353
-0.0943749
-0.0893217
-0.0842972
-0.0793235
-0.0744228
-0.0696172
-0.0649275
-0.0603733
-0.0559725
-0.0517407
-0.0476914
-0.0438355
-0.0401815
-0.0367353
-0.0335002
-0.0304773
-0.0276653
-0.0250606
-0.0226582
-0.0204505
-0.0184289
-0.0165832
-0.0149019
-0.0133729
-0.0119816
-0.0107167
-0.0095584
-0.00850025
-0.00751179
-0.00660085
-0.00571224
-0.00488808
-0.0040193
-0.00322158
-0.0022798
-0.00145215
-0.000354791
-0.245555
-0.243814
-0.241809
-0.239513
-0.23691
-0.234216
-0.231314
-0.228201
-0.224897
-0.221418
-0.217781
-0.214011
-0.21013
-0.206156
-0.202108
-0.198002
-0.193854
-0.189675
-0.185476
-0.181263
-0.177038
-0.172803
-0.168555
-0.164287
-0.159994
-0.155667
-0.151297
-0.146874
-0.14239
-0.137836
-0.133208
-0.128503
-0.123719
-0.118861
-0.113935
-0.108949
-0.103918
-0.0988565
-0.093783
-0.0887176
-0.0836819
-0.0786981
-0.0737888
-0.0689758
-0.0642805
-0.0597224
-0.0553195
-0.0510874
-0.0470397
-0.0431873
-0.0395387
-0.0360996
-0.0328736
-0.0298613
-0.0270616
-0.0244709
-0.0220838
-0.0198929
-0.0178896
-0.0160636
-0.0144033
-0.0128968
-0.0115296
-0.0102903
-0.00915927
-0.0081305
-0.00717268
-0.00629574
-0.00544043
-0.00465648
-0.00382007
-0.0030716
-0.00215078
-0.00138663
-0.000281488
-0.246423
-0.244563
-0.242473
-0.240132
-0.23742
-0.234624
-0.231642
-0.228452
-0.225076
-0.221532
-0.217838
-0.214016
-0.210087
-0.206069
-0.20198
-0.197836
-0.193652
-0.18944
-0.18521
-0.180967
-0.176714
-0.172452
-0.168177
-0.163885
-0.159569
-0.15522
-0.150829
-0.146387
-0.141885
-0.137315
-0.132672
-0.127953
-0.123158
-0.118289
-0.113354
-0.108361
-0.103324
-0.0982577
-0.0931806
-0.0881128
-0.0830758
-0.0780917
-0.0731831
-0.068372
-0.0636795
-0.0591252
-0.0547271
-0.0505007
-0.0464597
-0.0426149
-0.0389746
-0.0355448
-0.0323286
-0.029327
-0.0265386
-0.0239599
-0.0215854
-0.0194078
-0.0174185
-0.0156073
-0.0139627
-0.0124731
-0.0111238
-0.0099039
-0.00879383
-0.00778795
-0.00685487
-0.00600569
-0.00517884
-0.00442968
-0.00362245
-0.00291983
-0.00201778
-0.00131875
-0.000199736
-0.246936