/*--------------------------------*- C++ -*----------------------------------*\
  =========                 |
  \\      /  F ield         | OpenFOAM: The Open Source CFD Toolbox
   \\    /   O peration     | Website:  https://openfoam.org
    \\  /    A nd           | Version:  7
     \\/     M anipulation  |
\*---------------------------------------------------------------------------*/
FoamFile
{
    version     2.0;
    format      ascii;
    class       surfaceScalarField;
    location    "65.001";
    object      phi;
}
// * * * * * * * * * * * * * * * * * * * * * * * * * * * * * * * * * * * * * //

dimensions      [0 3 -1 0 0 0 0];

internalField   nonuniform List<scalar> 
7273
(
0.000537231
0.012201
-0.000471277
0.000570331
0.0125897
0.000581011
0.0127185
0.000579745
0.0127284
0.000572328
0.0126917
0.000561231
0.012638
0.000547493
0.0125788
0.000531687
0.0125192
0.000514205
0.0124618
0.000495333
0.0124075
0.00047527
0.0123565
0.00045417
0.0123084
0.00043216
0.012263
0.000409361
0.0122201
0.000385885
0.0121796
0.000361836
0.0121416
0.000337309
0.0121061
0.000312385
0.012073
0.000287136
0.0120424
0.000261623
0.0120143
0.000235899
0.0119888
0.000210006
0.0119658
0.00018398
0.0119453
0.000157852
0.0119274
0.000131645
0.0119121
0.000105379
0.0118993
7.90697e-05
0.011889
5.27271e-05
0.0118813
2.63639e-05
0.0118762
0.0118737
0.000451696
0.0121351
-0.000385784
0.000487727
0.0125536
0.000502235
0.012704
0.000504689
0.012726
0.000500823
0.0126956
0.000493227
0.0126456
0.000482992
0.012589
0.000470676
0.0125316
0.000456647
0.0124759
0.000441172
0.012423
0.000424444
0.0123732
0.000406612
0.0123262
0.000387799
0.0122818
0.000368124
0.0122398
0.000347695
0.0122001
0.000326615
0.0121627
0.000304978
0.0121277
0.000282869
0.0120951
0.000260361
0.0120649
0.00023752
0.0120372
0.000214401
0.0120119
0.000191053
0.0119891
0.000167519
0.0119689
0.000143833
0.0119511
0.000120027
0.0119359
9.61266e-05
0.0119232
7.21542e-05
0.011913
4.81281e-05
0.0119054
2.40678e-05
0.0119003
0.0118978
0.000370214
0.0120699
-0.000304996
0.000408751
0.0125151
0.000426787
0.0126859
0.000432743
0.01272
0.000432204
0.0126961
0.000427862
0.0126499
0.000420868
0.012596
0.000411786
0.0125406
0.00040097
0.0124867
0.000388674
0.0124353
0.000375083
0.0123868
0.000360338
0.0123409
0.000344559
0.0122976
0.000327859
0.0122565
0.000310344
0.0122176
0.000292114
0.012181
0.000273262
0.0121466
0.000253874
0.0121145
0.000234025
0.0120848
0.000213783
0.0120574
0.000193208
0.0120325
0.000172352
0.01201
0.000151261
0.0119899
0.000129978
0.0119724
0.000108537
0.0119573
8.6972e-05
0.0119447
6.53097e-05
0.0119347
4.35754e-05
0.0119271
2.1795e-05
0.0119221
0.0119196
0.000292915
0.0120058
-0.000228787
0.000333443
0.0124746
0.000354608
0.0126648
0.000363796
0.0127108
0.000366388
0.0126935
0.00036511
0.0126512
0.000361148
0.0126
0.000355079
0.0125467
0.000347258
0.0124945
0.000337935
0.0124446
0.000327288
0.0123974
0.000315453
0.0123528
0.000302546
0.0123105
0.000288673
0.0122703
0.000273936
0.0122323
0.000258434
0.0121965
0.000242258
0.0121627
0.000225493
0.0121313
0.000208216
0.012102
0.000190495
0.0120751
0.000172394
0.0120506
0.000153968
0.0120284
0.000135268
0.0120086
0.000116339
0.0119913
9.72205e-05
0.0119764
7.79507e-05
0.011964
5.85626e-05
0.011954
3.90866e-05
0.0119466
1.95539e-05
0.0119416
0.0119391
0.000219523
0.0119434
-0.000157096
0.000261763
0.0124323
0.000285654
0.0126409
0.000297758
0.0126987
0.000303294
0.012688
0.000304906
0.0126496
0.000303789
0.0126011
0.000300539
0.01255
0.000295522
0.0124995
0.000288985
0.0124512
0.000281105
0.0124053
0.000272013
0.0123619
0.00026182
0.0123207
0.00025063
0.0122815
0.000238539
0.0122444
0.000225644
0.0122093
0.000212034
0.0121764
0.000197793
0.0121455
0.000182997
0.0121168
0.000167717
0.0120904
0.000152017
0.0120663
0.000135956
0.0120445
0.000119586
0.012025
0.000102956
0.0120079
8.61102e-05
0.0119933
6.90904e-05
0.011981
5.19337e-05
0.0119712
3.46753e-05
0.0119638
1.73512e-05
0.0119589
0.0119565
0.000150578
0.0118821
-8.93409e-05
0.000193912
0.012389
0.000219877
0.0126149
0.000234633
0.012684
0.000242932
0.0126797
0.00024723
0.0126453
0.000248755
0.0125996
0.000248136
0.0125506
0.000245744
0.0125019
0.000241823
0.0124551
0.000236546
0.0124106
0.000230041
0.0123684
0.000222416
0.0123283
0.00021377
0.0122902
0.000204199
0.012254
0.000193793
0.0122198
0.00018264
0.0121875
0.000170823
0.0121573
0.000158418
0.0121292
0.000145495
0.0121033
0.000132121
0.0120797
0.000118354
0.0120582
0.00010425
0.0120391
8.98613e-05
0.0120223
7.52341e-05
0.0120079
6.04132e-05
0.0119958
4.54397e-05
0.0119862
3.03529e-05
0.0119789
1.51925e-05
0.0119741
0.0119717
8.57264e-05
0.011823
-2.66478e-05
0.000129725
0.012345
0.00015719
0.0125874
0.000174489
0.0126667
0.000185317
0.0126688
0.000192064
0.0126385
0.000196022
0.0125956
0.00019785
0.0125488
0.000197913
0.0125018
0.000196446
0.0124566
0.000193616
0.0124134
0.00018955
0.0123724
0.000184353
0.0123335
0.000178121
0.0122964
0.000170946
0.0122612
0.000162915
0.0122278
0.000154113
0.0121963
0.000144622
0.0121668
0.000134517
0.0121393
0.000123868
0.012114
0.000112741
0.0120908
0.000101197
0.0120698
8.9293e-05
0.012051
7.70824e-05
0.0120345
6.4615e-05
0.0120204
5.19378e-05
0.0120085
3.90949e-05
0.011999
2.61288e-05
0.0119919
1.30824e-05
0.0119871
0.0119848
2.6812e-05
0.0117654
3.08783e-05
6.90503e-05
0.0123028
9.79084e-05
0.0125586
0.00011746
0.0126471
0.000130457
0.0126558
0.000139384
0.0126296
0.000145573
0.0125894
0.000149672
0.0125447
0.000152022
0.0124995
0.00015285
0.0124557
0.000152317
0.0124139
0.000150549
0.0123742
0.000147647
0.0123364
0.000143703
0.0123003
0.000138805
0.0122661
0.000133037
0.0122336
0.000126483
0.0122029
0.000119221
0.0121741
0.000111325
0.0121472
0.000102865
0.0121224
9.39068e-05
0.0120997
8.45121e-05
0.0120792
7.47388e-05
0.0120608
6.46417e-05
0.0120446
5.42725e-05
0.0120307
4.36802e-05
0.0120191
3.29114e-05
0.0120098
2.20112e-05
0.0120028
1.10253e-05
0.0119981
0.0119958
-2.99735e-05
0.0117114
8.39081e-05
1.11032e-05
0.0122617
4.22762e-05
0.0125274
6.34216e-05
0.012626
7.82158e-05
0.0126411
8.91208e-05
0.0126187
9.73819e-05
0.0125812
0.000103586
0.0125385
0.00010806
0.012495
0.000111027
0.0124528
0.000112647
0.0124123
0.000113041
0.0123738
0.000112306
0.0123371
0.000110529
0.0123021
0.000107794
0.0122688
0.000104182
0.0122372
9.97734e-05
0.0122073
9.46444e-05
0.0121792
8.88677e-05
0.012153
8.25122e-05
0.0121288
7.56433e-05
0.0121066
6.83227e-05
0.0120865
6.06091e-05
0.0120685
5.25581e-05
0.0120527
4.42227e-05
0.0120391
3.56536e-05
0.0120277
2.68994e-05
0.0120185
1.80071e-05
0.0120117
9.02463e-06
0.0120071
0.0120048
-8.42841e-05
0.0116609
0.000134831
-4.19554e-05
0.0122194
-1.02177e-05
0.0124957
1.20022e-05
0.0126037
2.84809e-05
0.0126246
4.124e-05
0.0126059
5.14116e-05
0.012571
5.95508e-05
0.0125303
6.59932e-05
0.0124886
7.09571e-05
0.0124478
7.45955e-05
0.0124087
7.70226e-05
0.0123714
7.83311e-05
0.0123358
7.86041e-05
0.0123019
7.79212e-05
0.0122695
7.63607e-05
0.0122387
7.39987e-05
0.0122096
7.09091e-05
0.0121823
6.7163e-05
0.0121568
6.28279e-05
0.0121331
5.79686e-05
0.0121115
5.26465e-05
0.0120918
4.69204e-05
0.0120742
4.08465e-05
0.0120588
3.44788e-05
0.0120454
2.7869e-05
0.0120343
2.10671e-05
0.0120253
1.41221e-05
0.0120186
7.08325e-06
0.0120141
0.0120119
-0.000134493
0.0116128
0.000182521
-9.27739e-05
0.0121776
-6.09396e-05
0.0124638
-3.70044e-05
0.0125798
-1.88002e-05
0.0126064
-4.29894e-06
0.0125914
7.59251e-06
0.0125591
1.75109e-05
0.0125204
2.57824e-05
0.0124803
3.26105e-05
0.012441
3.81397e-05
0.0124032
4.24782e-05
0.012367
4.5714e-05
0.0123326
4.7926e-05
0.0122996
4.91896e-05
0.0122682
4.95792e-05
0.0122383
4.91675e-05
0.01221
4.80257e-05
0.0121834
4.62228e-05
0.0121586
4.38251e-05
0.0121355
4.08959e-05
0.0121144
3.74963e-05
0.0120952
3.36849e-05
0.012078
2.95182e-05
0.0120629
2.50505e-05
0.0120499
2.03345e-05
0.012039
1.54211e-05
0.0120303
1.03605e-05
0.0120237
5.20337e-06
0.0120193
0.0120171
-0.000181565
0.0115674
0.000226958
-0.000140872
0.0121369
-0.000108423
0.0124314
-8.3432e-05
0.0125548
-6.37881e-05
0.0125867
-4.77445e-05
0.0125754
-3.42037e-05
0.0125456
-2.26061e-05
0.0125088
-1.26243e-05
0.0124703
-4.05268e-06
0.0124324
3.24922e-06
0.0123959
9.3852e-06
0.0123609
1.44388e-05
0.0123275
1.84845e-05
0.0122956
2.15934e-05
0.0122651
2.38362e-05
0.0122361
2.52818e-05
0.0122086
2.59987e-05
0.0121827
2.60538e-05
0.0121585
2.55114e-05
0.0121361
2.44338e-05
0.0121155
2.2881e-05
0.0120968
2.09114e-05
0.01208
1.85812e-05
0.0120653
1.59451e-05
0.0120525
1.30562e-05
0.0120419
9.96599e-06
0.0120333
6.72566e-06
0.0120269
3.3866e-06
0.0120226
0.0120205
-0.000225728
0.0115247
0.000268427
-0.000186001
0.0120972
-0.000153274
0.0123987
-0.000127362
0.0125289
-0.000106477
0.0125658
-8.90228e-05
0.0125579
-7.4002e-05
0.0125305
-6.08594e-05
0.0124957
-4.92838e-05
0.0124588
-3.90799e-05
0.0124222
-3.01135e-05
0.0123869
-2.22855e-05
0.0123531
-1.55165e-05
0.0123207
-9.73646e-06
0.0122898
-4.87849e-06
0.0122603
-8.76314e-07
0.0122321
2.33734e-06
0.0122054
4.82735e-06
0.0121802
6.65746e-06
0.0121567
7.89026e-06
0.0121348
8.58667e-06
0.0121148
8.80583e-06
0.0120965
8.60527e-06
0.0120802
8.041e-06
0.0120658
7.16759e-06
0.0120534
6.03825e-06
0.012043
4.70511e-06
0.0120347
3.21976e-06
0.0120284
1.63413e-06
0.0120242
0.0120221
-0.000267126
0.0114847
0.000307192
-0.00022844
0.0120585
-0.000195663
0.0123659
-0.000168976
0.0125022
-0.000146981
0.0125438
-0.00012826
0.0125392
-0.000111879
0.0125142
-9.73081e-05
0.0124811
-8.42495e-05
0.0124457
-7.25185e-05
0.0124105
-6.19888e-05
0.0123764
-5.2567e-05
0.0123437
-4.41784e-05
0.0123124
-3.6757e-05
0.0122824
-3.024e-05
0.0122537
-2.45647e-05
0.0122264
-1.96689e-05
0.0122005
-1.54901e-05
0.012176
-1.19663e-05
0.0121532
-9.03707e-06
0.0121319
-6.64311e-06
0.0121124
-4.72646e-06
0.0120946
-3.23045e-06
0.0120787
-2.09957e-06
0.0120647
-1.27953e-06
0.0120526
-7.17122e-07
0.0120425
-3.60007e-07
0.0120343
-1.56138e-07
0.0120282
-5.32982e-08
0.0120241
0.0120221
-0.000305979
0.0114472
0.0003435
-0.00026845
0.012021
-0.000235737
0.0123332
-0.000208415
0.0124749
-0.000185432
0.0125209
-0.000165555
0.0125193
-0.000147919
0.0124965
-0.000132022
0.0124652
-0.00011758
0.0124313
-0.000104419
0.0123973
-9.24193e-05
0.0123644
-8.14951e-05
0.0123327
-7.15761e-05
0.0123024
-6.26011e-05
0.0122734
-5.45112e-05
0.0122456
-4.72479e-05
0.0122192
-4.07517e-05
0.012194
-3.49634e-05
0.0121703
-2.98237e-05
0.012148
-2.52741e-05
0.0121274
-2.12568e-05
0.0121084
-1.77153e-05
0.0120911
-1.45938e-05
0.0120756
-1.18375e-05
0.0120619
-9.39252e-06
0.0120502
-7.20597e-06
0.0120403
-5.22557e-06
0.0120323
-3.39929e-06
0.0120264
-1.6748e-06
0.0120224
0.0120204
-0.000342541
0.0114121
0.000377604
-0.000306229
0.0119847
-0.000273664
0.0123006
-0.000245819
0.0124471
-0.000221956
0.012497
-0.000201017
0.0124984
-0.000182215
0.0124777
-0.000165079
0.0124481
-0.00014934
0.0124155
-0.000134834
0.0123828
-0.00012145
0.012351
-0.000109107
0.0123204
-9.77411e-05
0.0122911
-8.72943e-05
0.012263
-7.77124e-05
0.0122361
-6.89404e-05
0.0122104
-6.09223e-05
0.012186
-5.36017e-05
0.0121629
-4.69217e-05
0.0121413
-4.0826e-05
0.0121213
-3.52585e-05
0.0121028
-3.01639e-05
0.012086
-2.54875e-05
0.0120709
-2.11753e-05
0.0120576
-1.71739e-05
0.0120461
-1.34309e-05
0.0120365
-9.89401e-06
0.0120288
-6.51137e-06
0.012023
-3.23065e-06
0.0120191
0.0120172
-0.000377061
0.0113794
0.000409768
-0.000341969
0.0119496
-0.000309616
0.0122683
-0.000281334
0.0124188
-0.000256675
0.0124723
-0.000234752
0.0124765
-0.000214858
0.0124578
-0.000196556
0.0124298
-0.000179595
0.0123986
-0.00016382
0.012367
-0.000149128
0.0123363
-0.000135443
0.0123067
-0.000122706
0.0122783
-0.000110864
0.0122511
-9.98656e-05
0.0122251
-8.96602e-05
0.0122002
-8.01949e-05
0.0121765
-7.14159e-05
0.0121542
-6.32688e-05
0.0121332
-5.56992e-05
0.0121137
-4.86527e-05
0.0120958
-4.20753e-05
0.0120794
-3.59133e-05
0.0120648
-3.01137e-05
0.0120518
-2.46237e-05
0.0120407
-1.93913e-05
0.0120313
-1.43646e-05
0.0120238
-9.49178e-06
0.0120181
-4.72081e-06
0.0120143
0.0120125
-0.000409774
0.0113489
0.00044025
-0.00037587
0.0119157
-0.000343763
0.0122362
-0.000315101
0.0123901
-0.000289708
0.0124469
-0.000266862
0.0124536
-0.000245936
0.0124369
-0.000226531
0.0124103
-0.000208411
0.0123804
-0.000191433
0.01235
-0.0001755
0.0123204
-0.000160542
0.0122918
-0.000146504
0.0122643
-0.000133337
0.012238
-0.000120994
0.0122127
-0.000109426
0.0121886
-9.8585e-05
0.0121657
-8.84185e-05
0.012144
-7.88748e-05
0.0121236
-6.99013e-05
0.0121047
-6.14452e-05
0.0120873
-5.34538e-05
0.0120714
-4.58745e-05
0.0120572
-3.86551e-05
0.0120446
-3.17437e-05
0.0120337
-2.50884e-05
0.0120246
-1.8638e-05
0.0120173
-1.2341e-05
0.0120118
-6.14542e-06
0.0120081
0.0120063
-0.000440899
0.0113205
0.000469299
-0.000408123
0.0118829
-0.000376265
0.0122043
-0.000347256
0.0123611
-0.000321169
0.0124209
-0.000297443
0.0124299
-0.000275533
0.012415
-0.000255074
0.0123899
-0.00023585
0.0123612
-0.000217726
0.0123319
-0.000200611
0.0123032
-0.000184442
0.0122756
-0.000169167
0.012249
-0.000154741
0.0122235
-0.00014112
0.0121991
-0.000128258
0.0121757
-0.000116108
0.0121535
-0.000104622
0.0121325
-9.37501e-05
0.0121128
-8.34406e-05
0.0120944
-7.36427e-05
0.0120775
-6.43047e-05
0.0120621
-5.53752e-05
0.0120483
-4.68027e-05
0.012036
-3.8536e-05
0.0120255
-3.05239e-05
0.0120166
-2.27155e-05
0.0120095
-1.50596e-05
0.0120042
-7.50482e-06
0.0120006
0.0119988
-0.000470639
0.011294
0.00049714
-0.000438902
0.0118512
-0.00040727
0.0121727
-0.000377922
0.0123318
-0.000351163
0.0123941
-0.000326586
0.0124053
-0.000303725
0.0123921
-0.000282252
0.0123684
-0.000261968
0.0123409
-0.000242746
0.0123127
-0.000224503
0.012285
-0.00020718
0.0122583
-0.000190727
0.0122326
-0.000175102
0.0122079
-0.000160265
0.0121843
-0.000146173
0.0121617
-0.00013278
0.0121401
-0.00012004
0.0121198
-0.000107905
0.0121006
-9.6326e-05
0.0120828
-8.52522e-05
0.0120664
-7.46337e-05
0.0120515
-6.44198e-05
0.012038
-5.45599e-05
0.0120262
-4.50034e-05
0.0120159
-3.56998e-05
0.0120073
-2.65985e-05
0.0120004
-1.76487e-05
0.0119952
-8.79945e-06
0.0119917
0.01199
-0.000499175
0.0112692
0.000523975
-0.000468361
0.0118204
-0.000436907
0.0121412
-0.000407208
0.0123021
-0.000379782
0.0123667
-0.000354367
0.0123799
-0.000330578
0.0123683
-0.000308122
0.012346
-0.000286814
0.0123196
-0.000266537
0.0122924
-0.000247213
0.0122657
-0.000228786
0.0122398
-0.000211209
0.012215
-0.000194444
0.0121911
-0.00017845
0.0121683
-0.000163188
0.0121464
-0.000148615
0.0121256
-0.000134684
0.0121058
-0.000121351
0.0120873
-0.000108566
0.01207
-9.62809e-05
0.0120541
-8.44466e-05
0.0120396
-7.30131e-05
0.0120266
-6.19305e-05
0.0120151
-5.11489e-05
0.0120051
-4.06183e-05
0.0119968
-3.02885e-05
0.0119901
-2.01092e-05
0.011985
-1.00298e-05
0.0119817
0.01198
-0.000526652
0.0112459
0.000549969
-0.000496627
0.0117903
-0.000465282
0.0121099
-0.000435201
0.012272
-0.000407099
0.0123386
-0.000380853
0.0123537
-0.000356149
0.0123436
-0.000332731
0.0123225
-0.00031043
0.0122973
-0.000289135
0.0122711
-0.000268772
0.0122453
-0.000249288
0.0122203
-0.000230639
0.0121963
-0.000212786
0.0121733
-0.000195693
0.0121512
-0.00017932
0.01213
-0.000163626
0.0121099
-0.000148566
0.0120908
-0.000134096
0.0120728
-0.000120169
0.0120561
-0.000106736
0.0120407
-9.37491e-05
0.0120266
-8.11597e-05
0.012014
-6.89183e-05
0.0120029
-5.69755e-05
0.0119932
-4.52817e-05
0.0119851
-3.37873e-05
0.0119786
-2.24423e-05
0.0119737
-1.11965e-05
0.0119704
0.0119688
-0.000553185
0.0112238
0.000575253
-0.000523796
0.011761
-0.000492474
0.0120785
-0.000461969
0.0122415
-0.000433173
0.0123098
-0.00040609
0.0123266
-0.00038048
0.012318
-0.000356118
0.0122982
-0.000332849
0.012274
-0.000310568
0.0122488
-0.000289206
0.0122239
-0.000268709
0.0121998
-0.000249035
0.0121767
-0.000230147
0.0121544
-0.000212009
0.012133
-0.000194581
0.0121126
-0.000177825
0.0120931
-0.000161696
0.0120746
-0.00014615
0.0120573
-0.000131141
0.0120411
-0.000116623
0.0120262
-0.000102547
0.0120126
-8.88643e-05
0.0120003
-7.55271e-05
0.0119895
-6.24862e-05
0.0119802
-4.96924e-05
0.0119723
-3.70965e-05
0.011966
-2.4649e-05
0.0119612
-1.23e-05
0.0119581
0.0119565
-0.000578847
0.0112028
0.000599909
-0.000549929
0.011732
-0.000518534
0.0120471
-0.000487554
0.0122105
-0.000458038
0.0122803
-0.000430111
0.0122987
-0.000403599
0.0122915
-0.000378307
0.0122729
-0.000354093
0.0122498
-0.000330858
0.0122256
-0.000308532
0.0122016
-0.000287065
0.0121784
-0.000266413
0.012156
-0.00024654
0.0121345
-0.000227409
0.0121139
-0.000208983
0.0120942
-0.000191221
0.0120753
-0.000174082
0.0120575
-0.00015752
0.0120407
-0.000141491
0.0120251
-0.000125948
0.0120106
-0.000110844
0.0119975
-9.61312e-05
0.0119856
-8.17605e-05
0.0119751
-6.76839e-05
0.0119661
-5.38527e-05
0.0119585
-4.02179e-05
0.0119524
-2.67305e-05
0.0119478
-1.33409e-05
0.0119447
0.0119431
-0.000603668
0.0111825
0.000623974
-0.000575052
0.0117034
-0.000543485
0.0120156
-0.000511973
0.012179
-0.000481711
0.01225
-0.00045293
0.0122699
-0.000425519
0.0122641
-0.000399311
0.0122467
-0.000374175
0.0122247
-0.000350015
0.0122014
-0.000326763
0.0121784
-0.000304367
0.012156
-0.000282783
0.0121344
-0.000261975
0.0121137
-0.000241904
0.0120938
-0.000222534
0.0120748
-0.000203823
0.0120566
-0.000185731
0.0120394
-0.000168213
0.0120232
-0.000151224
0.0120081
-0.000134717
0.0119941
-0.000118647
0.0119814
-0.000102964
0.0119699
-8.76218e-05
0.0119598
-7.25714e-05
0.011951
-5.77647e-05
0.0119437
-4.31531e-05
0.0119377
-2.86878e-05
0.0119333
-1.43197e-05
0.0119303
0.0119288
-0.00062764
0.0111627
0.00064744
-0.000599157
0.0116749
-0.000567315
0.0119837
-0.000535217
0.0121469
-0.000504184
0.012219
-0.000474542
0.0122402
-0.000446238
0.0122358
-0.00041913
0.0122196
-0.000393097
0.0121987
-0.000368044
0.0121764
-0.000343903
0.0121542
-0.00032062
0.0121327
-0.000298151
0.012112
-0.000276457
0.012092
-0.000255499
0.0120729
-0.000235239
0.0120545
-0.000215637
0.012037
-0.00019665
0.0120204
-0.000178234
0.0120048
-0.000160344
0.0119902
-0.000142934
0.0119767
-0.000125958
0.0119644
-0.000109367
0.0119533
-9.3114e-05
0.0119435
-7.71513e-05
0.0119351
-6.14306e-05
0.011928
-4.59036e-05
0.0119222
-3.0522e-05
0.0119179
-1.52369e-05
0.011915
0.0119136
-0.00065071
0.0111431
0.000670246
-0.000622197
0.0116464
-0.000589986
0.0119515
-0.000557255
0.0121141
-0.00052543
0.0121871
-0.000494927
0.0122097
-0.00046574
0.0122066
-0.000437753
0.0121916
-0.00041085
0.0121718
-0.000384939
0.0121505
-0.000359949
0.0121292
-0.000335824
0.0121086
-0.000312518
0.0120887
-0.000289988
0.0120695
-0.000268197
0.0120511
-0.000247103
0.0120334
-0.000226665
0.0120166
-0.000206841
0.0120006
-0.000187587
0.0119855
-0.000168856
0.0119715
-0.000150603
0.0119585
-0.000132781
0.0119466
-0.000115343
0.0119359
-9.82402e-05
0.0119264
-8.1426e-05
0.0119183
-6.48523e-05
0.0119114
-4.84711e-05
0.0119058
-3.22341e-05
0.0119017
-1.60931e-05
0.0118989
0.0118975
-0.00067279
0.0111236
0.000692292
-0.000644097
0.0116177
-0.000611433
0.0119189
-0.00057803
0.0120807
-0.000545405
0.0121545
-0.000514047
0.0121784
-0.000483997
0.0121766
-0.000455157
0.0121627
-0.000427419
0.012144
-0.000400689
0.0121238
-0.000374894
0.0121034
-0.000349974
0.0120837
-0.00032588
0.0120646
-0.000302569
0.0120462
-0.000279998
0.0120285
-0.000258126
0.0120116
-0.000236911
0.0119954
-0.000216309
0.01198
-0.000196275
0.0119655
-0.000176764
0.011952
-0.000157728
0.0119394
-0.00013912
0.011928
-0.000120895
0.0119177
-0.000103003
0.0119086
-8.53979e-05
0.0119007
-6.80318e-05
0.011894
-5.08568e-05
0.0118887
-3.38252e-05
0.0118846
-1.68888e-05
0.0118819
0.0118806
-0.000693756
0.0111039
0.000713433
-0.000664751
0.0115887
-0.000631566
0.0118857
-0.000597468
0.0120466
-0.000564045
0.0121211
-0.000531852
0.0121462
-0.000500967
0.0121457
-0.000471311
0.0121331
-0.000442778
0.0121155
-0.000415274
0.0120963
-0.000388722
0.0120769
-0.000363059
0.012058
-0.000338232
0.0120397
-0.000314194
0.0120221
-0.000290902
0.0120052
-0.00026831
0.011989
-0.000246376
0.0119734
-0.000225056
0.0119587
-0.000204302
0.0119448
-0.000184069
0.0119317
-0.00016431
0.0119197
-0.000144978
0.0119087
-0.000126025
0.0118987
-0.000107405
0.0118899
-8.90693e-05
0.0118823
-7.09709e-05
0.0118759
-5.30624e-05
0.0118708
-3.52961e-05
0.0118669
-1.76244e-05
0.0118643
0.011863
-0.000713456
0.0110839
0.000733492
-0.000684031
0.0115593
-0.000650278
0.0118519
-0.000615479
0.0120118
-0.000581278
0.0120869
-0.000548282
0.0121132
-0.000516603
0.012114
-0.000486176
0.0121027
-0.000456898
0.0120862
-0.000428672
0.012068
-0.000401418
0.0120496
-0.000375068
0.0120316
-0.000349565
0.0120142
-0.000324859
0.0119974
-0.000300904
0.0119813
-0.000277653
0.0119657
-0.00025506
0.0119509
-0.000233081
0.0119367
-0.000211668
0.0119233
-0.000190775
0.0119108
-0.000170354
0.0118993
-0.000150357
0.0118887
-0.000130738
0.0118791
-0.000111449
0.0118706
-9.24425e-05
0.0118633
-7.36717e-05
0.0118571
-5.50893e-05
0.0118522
-3.6648e-05
0.0118484
-1.83006e-05
0.0118459
0.0118447
-0.000731719
0.0110634
0.000752266
-0.00070179
0.0115294
-0.000667446
0.0118176
-0.000631961
0.0119764
-0.000597018
0.012052
-0.000563268
0.0120794
-0.00053085
0.0120816
-0.000499709
0.0120715
-0.000469745
0.0120562
-0.000440857
0.0120391
-0.000412962
0.0120217
-0.000385986
0.0120047
-0.000359869
0.0119881
-0.000334557
0.0119721
-0.000310001
0.0119567
-0.000286152
0.0119419
-0.000262963
0.0119277
-0.000240387
0.0119141
-0.000218377
0.0119013
-0.000196884
0.0118893
-0.000175861
0.0118782
-0.000155261
0.0118681
-0.000135035
0.0118589
-0.000115137
0.0118507
-9.55199e-05
0.0118437
-7.61362e-05
0.0118378
-5.69392e-05
0.011833
-3.7882e-05
0.0118294
-1.89178e-05
0.011827
0.0118258
-0.000748357
0.0110422
0.000769535
-0.000717875
0.0114989
-0.000682941
0.0117826
-0.000646807
0.0119402
-0.000611179
0.0120163
-0.00057674
0.012045
-0.000543649
0.0120485
-0.000511864
0.0120397
-0.000481282
0.0120257
-0.000451801
0.0120097
-0.000423332
0.0119933
-0.000395798
0.0119771
-0.000369133
0.0119615
-0.000343281
0.0119463
-0.000318189
0.0119316
-0.000293807
0.0119175
-0.000270085
0.0119039
-0.000246976
0.011891
-0.00022443
0.0118788
-0.000202399
0.0118673
-0.000180836
0.0118567
-0.000159692
0.0118469
-0.00013892
0.0118381
-0.000118473
0.0118303
-9.83044e-05
0.0118235
-7.83668e-05
0.0118178
-5.86139e-05
0.0118132
-3.89993e-05
0.0118098
-1.94766e-05
0.0118074
0.0118063
-0.000763183
0.0110203
0.000785072
-0.000732127
0.0114678
-0.000696632
0.0117472
-0.000659908
0.0119035
-0.000623671
0.0119801
-0.000588624
0.0120099
-0.000554944
0.0120148
-0.000522595
0.0120074
-0.000491474
0.0119945
-0.000461477
0.0119797
-0.000432509
0.0119643
-0.000404489
0.0119491
-0.000377348
0.0119343
-0.000351025
0.01192
-0.000325465
0.0119061
-0.000300616
0.0118926
-0.000276427
0.0118798
-0.000252848
0.0118674
-0.00022983
0.0118558
-0.000207324
0.0118448
-0.000185282
0.0118346
-0.000163655
0.0118253
-0.000142397
0.0118169
-0.000121461
0.0118094
-0.000100799
0.0118029
-8.03659e-05
0.0117974
-6.01152e-05
0.011793
-4.00012e-05
0.0117896
-1.99779e-05
0.0117874
0.0117863
-0.000776008
0.0109977
0.000798652
-0.000744393
0.0114362
-0.000708393
0.0117112
-0.000671163
0.0118663
-0.000634411
0.0119433
-0.000598854
0.0119744
-0.000564681
0.0119806
-0.000531861
0.0119746
-0.00050029
0.011963
-0.000469862
0.0119492
-0.000440476
0.0119349
-0.000412048
0.0119207
-0.000384506
0.0119068
-0.000357785
0.0118932
-0.000331828
0.0118801
-0.000306581
0.0118674
-0.000281991
0.0118552
-0.000258008
0.0118435
-0.000234582
0.0118323
-0.000211664
0.0118219
-0.000189204
0.0118122
-0.000167155
0.0118032
-0.000145471
0.0117952
-0.000124104
0.011788
-0.000103008
0.0117818
-8.21367e-05
0.0117765
-6.14457e-05
0.0117723
-4.08893e-05
0.0117691
-2.04223e-05
0.011767
0.0117659
-0.000786662
0.0109743
0.000810063
-0.000754532
0.0114041
-0.00071811
0.0116747
-0.000680477
0.0118286
-0.000643323
0.0119062
-0.00060737
0.0119384
-0.000572813
0.0119461
-0.000539625
0.0119414
-0.000507702
0.011931
-0.000476934
0.0119185
-0.000447218
0.0119052
-0.000418466
0.0118919
-0.000390602
0.0118789
-0.000363559
0.0118662
-0.000337279
0.0118538
-0.000311704
0.0118418
-0.000286782
0.0118302
-0.000262462
0.0118191
-0.000238692
0.0118086
-0.000215423
0.0117986
-0.000192608
0.0117894
-0.000170198
0.0117808
-0.000148146
0.0117731
-0.000126407
0.0117663
-0.000104934
0.0117603
-8.36827e-05
0.0117553
-6.2608e-05
0.0117512
-4.16655e-05
0.0117481
-2.08108e-05
0.0117461
0.0117451
-0.000794989
0.0109501
0.000819114
-0.000762421
0.0113715
-0.000725684
0.011638
-0.000687772
0.0117907
-0.000650346
0.0118688
-0.000614123
0.0119022
-0.000579303
0.0119113
-0.000545859
0.0119079
-0.000513691
0.0118989
-0.000482682
0.0118875
-0.000452729
0.0118752
-0.00042374
0.0118629
-0.000395636
0.0118508
-0.000368351
0.0118389
-0.000341822
0.0118273
-0.000315992
0.011816
-0.000290807
0.0118051
-0.000266216
0.0117945
-0.000242167
0.0117845
-0.000218612
0.0117751
-0.000195502
0.0117662
-0.00017279
0.0117581
-0.00015043
0.0117508
-0.000128376
0.0117442
-0.000106584
0.0117385
-8.50081e-05
0.0117337
-6.36053e-05
0.0117298
-4.23319e-05
0.0117269
-2.11444e-05
0.0117249
0.0117239
-0.000800866
0.0109253
0.000825645
-0.000767963
0.0113386
-0.000731038
0.0116011
-0.000692989
0.0117527
-0.000655433
0.0118312
-0.000619078
0.0118659
-0.000584124
0.0118763
-0.000550548
0.0118744
-0.000518245
0.0118666
-0.0004871
0.0118563
-0.000457006
0.0118452
-0.000427871
0.0118338
-0.000399614
0.0118225
-0.000372167
0.0118115
-0.000345465
0.0118006
-0.000319453
0.01179
-0.000294075
0.0117797
-0.00026928
0.0117697
-0.000245018
0.0117603
-0.000221239
0.0117513
-0.000197895
0.0117429
-0.000174941
0.0117352
-0.000152331
0.0117281
-0.000130019
0.0117219
-0.000107963
0.0117164
-8.61176e-05
0.0117118
-6.44413e-05
0.0117081
-4.2891e-05
0.0117053
-2.14245e-05
0.0117034
0.0117025
-0.000804199
0.0109
0.000829533
-0.000771088
0.0113055
-0.000734122
0.0115641
-0.000696089
0.0117146
-0.000658557
0.0117937
-0.000622217
0.0118295
-0.000587268
0.0118413
-0.000553685
0.0118408
-0.000521365
0.0118343
-0.000490192
0.0118251
-0.000460058
0.011815
-0.00043087
0.0118046
-0.000402547
0.0117942
-0.000375019
0.0117839
-0.000348223
0.0117738
-0.000322102
0.0117639
-0.000296601
0.0117542
-0.00027167
0.0117448
-0.000247258
0.0117358
-0.000223316
0.0117273
-0.000199799
0.0117194
-0.000176661
0.011712
-0.000153857
0.0117053
-0.000131343
0.0116994
-0.000109078
0.0116942
-8.7017e-05
0.0116898
-6.51202e-05
0.0116862
-4.33457e-05
0.0116835
-2.16525e-05
0.0116817
0.0116808
-0.000804933
0.0108743
0.000830695
-0.00077176
0.0112723
-0.000734914
0.0115273
-0.000697062
0.0116768
-0.000659715
0.0117563
-0.000623543
0.0117933
-0.000588739
0.0118065
-0.00055528
0.0118073
-0.000523063
0.011802
-0.000491972
0.011794
-0.000461901
0.0117849
-0.000432754
0.0117755
-0.000404453
0.0117659
-0.000376927
0.0117564
-0.000350114
0.011747
-0.000323957
0.0117377
-0.000298403
0.0117286
-0.000273401
0.0117198
-0.000248902
0.0117113
-0.000224859
0.0117033
-0.000201228
0.0116958
-0.000177962
0.0116888
-0.00015502
0.0116824
-0.000132359
0.0116767
-0.000109936
0.0116718
-8.77126e-05
0.0116676
-6.56468e-05
0.0116642
-4.36992e-05
0.0116616
-2.18299e-05
0.0116599
0.011659
-0.000803054
0.0108482
0.000829097
-0.000769981
0.0112393
-0.000733422
0.0114907
-0.000695921
0.0116393
-0.000658924
0.0117193
-0.000623075
0.0117575
-0.000588562
0.011772
-0.000555358
0.0117741
-0.000523365
0.01177
-0.000492468
0.0117631
-0.00046256
0.011755
-0.00043355
0.0117465
-0.000405358
0.0117377
-0.000377915
0.011729
-0.000351162
0.0117202
-0.000325041
0.0117116
-0.000299501
0.0117031
-0.000274493
0.0116948
-0.00024997
0.0116868
-0.000225886
0.0116792
-0.000202197
0.0116721
-0.000178859
0.0116654
-0.000155833
0.0116594
-0.000133076
0.011654
-0.000110549
0.0116492
-8.82118e-05
0.0116452
-6.60268e-05
0.011642
-4.39551e-05
0.0116395
-2.19587e-05
0.0116379
0.0116371
-0.000798587
0.010822
0.000824749
-0.000765784
0.0112065
-0.000729688
0.0114546
-0.00069271
0.0116023
-0.000656227
0.0116828
-0.000620857
0.0117221
-0.000586776
0.011738
-0.00055396
0.0117413
-0.00052231
0.0117384
-0.000491716
0.0117326
-0.000462073
0.0117254
-0.000433291
0.0117177
-0.000405294
0.0117097
-0.000378016
0.0117017
-0.000351396
0.0116936
-0.000325381
0.0116856
-0.000299923
0.0116776
-0.000274972
0.0116699
-0.000250484
0.0116623
-0.000226416
0.0116552
-0.000202724
0.0116484
-0.000179369
0.0116421
-0.000156309
0.0116363
-0.000133507
0.0116312
-0.000110924
0.0116266
-8.85229e-05
0.0116228
-6.62662e-05
0.0116197
-4.41176e-05
0.0116174
-2.20408e-05
0.0116158
0.011615
-0.000791603
0.0107959
0.000817709
-0.000759244
0.0111741
-0.000723784
0.0114191
-0.000687499
0.011566
-0.000651693
0.011647
-0.000616951
0.0116874
-0.000583442
0.0117044
-0.000551141
0.011709
-0.000519952
0.0117072
-0.000489767
0.0117024
-0.000460486
0.0116961
-0.000432023
0.0116892
-0.000404305
0.011682
-0.000377266
0.0116746
-0.000350853
0.0116672
-0.000325013
0.0116597
-0.000299698
0.0116523
-0.000274865
0.011645
-0.00025047
0.0116379
-0.000226473
0.0116312
-0.000202831
0.0116247
-0.000179508
0.0116188
-0.000156466
0.0116133
-0.000133667
0.0116084
-0.000111075
0.0116041
-8.86549e-05
0.0116004
-6.6372e-05
0.0115974
-4.41913e-05
0.0115952
-2.20786e-05
0.0115937
0.0115929
-0.000782209
0.0107701
0.000808082
-0.000750467
0.0111424
-0.000715813
0.0113845
-0.000680384
0.0115306
-0.00064541
0.0116121
-0.000611442
0.0116534
-0.000578638
0.0116716
-0.000546973
0.0116773
-0.000516355
0.0116766
-0.000486681
0.0116727
-0.000457856
0.0116673
-0.000429798
0.0116612
-0.000402436
0.0116547
-0.000375713
0.0116479
-0.000349574
0.0116411
-0.000323972
0.0116341
-0.000298863
0.0116272
-0.000274205
0.0116204
-0.000249958
0.0116137
-0.000226082
0.0116073
-0.000202542
0.0116012
-0.000179299
0.0115955
-0.00015632
0.0115903
-0.000133569
0.0115856
-0.000111013
0.0115815
-8.86179e-05
0.011578
-6.63515e-05
0.0115752
-4.41812e-05
0.011573
-2.20746e-05
0.0115716
0.0115709
-0.000770553
0.0107446
0.000796017
-0.000739597
0.0111114
-0.000705909
0.0113508
-0.000671491
0.0114962
-0.000637493
0.0115781
-0.000604433
0.0116204
-0.000572459
0.0116397
-0.000541544
0.0116464
-0.000511601
0.0116466
-0.000482534
0.0116436
-0.000454251
0.011639
-0.000426677
0.0116336
-0.000399747