/*--------------------------------*- C++ -*----------------------------------*\
  =========                 |
  \\      /  F ield         | OpenFOAM: The Open Source CFD Toolbox
   \\    /   O peration     | Website:  https://openfoam.org
    \\  /    A nd           | Version:  7
     \\/     M anipulation  |
\*---------------------------------------------------------------------------*/
FoamFile
{
    version     2.0;
    format      ascii;
    class       volVectorField;
    location    "15";
    object      U;
}
// * * * * * * * * * * * * * * * * * * * * * * * * * * * * * * * * * * * * * //

dimensions      [0 1 -1 0 0 0 0];

internalField   nonuniform List<vector> 
3700
(
(1.27942 -0.0334433 0)
(1.31015 -0.0336038 0)
(1.31703 -0.0328899 0)
(1.3137 -0.0316058 0)
(1.30661 -0.0300742 0)
(1.29827 -0.0285274 0)
(1.28966 -0.0270323 0)
(1.2812 -0.0255898 0)
(1.27313 -0.024198 0)
(1.26551 -0.0228551 0)
(1.25835 -0.0215553 0)
(1.2516 -0.0202919 0)
(1.24526 -0.0190589 0)
(1.23929 -0.0178517 0)
(1.23369 -0.0166669 0)
(1.22846 -0.0155018 0)
(1.22358 -0.0143548 0)
(1.21908 -0.0132243 0)
(1.21493 -0.012109 0)
(1.21114 -0.0110077 0)
(1.2077 -0.0099194 0)
(1.20462 -0.00884288 0)
(1.20189 -0.00777703 0)
(1.19951 -0.00672067 0)
(1.19747 -0.00567259 0)
(1.19578 -0.00463155 0)
(1.19443 -0.0035966 0)
(1.19341 -0.00256576 0)
(1.19274 -0.00153678 0)
(1.1924 -0.000514705 0)
(1.27734 -0.0228332 0)
(1.30989 -0.022879 0)
(1.31797 -0.0225185 0)
(1.31514 -0.0215874 0)
(1.30816 -0.0204539 0)
(1.2998 -0.0193317 0)
(1.29113 -0.0182817 0)
(1.28261 -0.0172946 0)
(1.27447 -0.0163612 0)
(1.2668 -0.0154742 0)
(1.25959 -0.0146246 0)
(1.25281 -0.0138039 0)
(1.24643 -0.0130048 0)
(1.24044 -0.0122214 0)
(1.23482 -0.0114494 0)
(1.22957 -0.0106861 0)
(1.22468 -0.00992928 0)
(1.22016 -0.00917767 0)
(1.216 -0.00843032 0)
(1.2122 -0.00768652 0)
(1.20875 -0.00694576 0)
(1.20566 -0.00620767 0)
(1.20292 -0.0054719 0)
(1.20054 -0.00473819 0)
(1.19849 -0.00400624 0)
(1.19679 -0.00327577 0)
(1.19543 -0.00254675 0)
(1.19442 -0.00181838 0)
(1.19374 -0.00108965 0)
(1.19341 -0.000364995 0)
(1.27567 -0.0119179 0)
(1.30934 -0.0117574 0)
(1.31851 -0.0118442 0)
(1.31606 -0.0113687 0)
(1.30915 -0.0106519 0)
(1.30075 -0.00999692 0)
(1.29201 -0.00942347 0)
(1.28344 -0.00891615 0)
(1.27525 -0.0084596 0)
(1.26753 -0.00804285 0)
(1.26029 -0.00765501 0)
(1.25348 -0.00728608 0)
(1.24709 -0.00692768 0)
(1.24109 -0.00657321 0)
(1.23546 -0.00621802 0)
(1.23021 -0.00585912 0)
(1.22532 -0.00549467 0)
(1.2208 -0.00512355 0)
(1.21664 -0.00474528 0)
(1.21285 -0.0043598 0)
(1.2094 -0.00396733 0)
(1.20632 -0.00356825 0)
(1.20358 -0.00316311 0)
(1.20119 -0.00275254 0)
(1.19915 -0.00233721 0)
(1.19745 -0.0019178 0)
(1.19609 -0.00149523 0)
(1.19508 -0.00106981 0)
(1.1944 -0.000641744 0)
(1.19407 -0.000215285 0)
(1.2741 -0.000765941 0)
(1.30865 -0.000149564 0)
(1.31862 -0.00097849 0)
(1.31645 -0.000826609 0)
(1.30958 -0.000652245 0)
(1.30112 -0.000517435 0)
(1.29232 -0.000460039 0)
(1.28369 -0.000461386 0)
(1.27546 -0.000504666 0)
(1.26771 -0.000575701 0)
(1.26045 -0.000663019 0)
(1.25363 -0.000756087 0)
(1.24724 -0.000845739 0)
(1.24125 -0.000925388 0)
(1.23563 -0.000990637 0)
(1.23039 -0.00103863 0)
(1.22552 -0.00106788 0)
(1.22101 -0.00107791 0)
(1.21687 -0.00106893 0)
(1.21309 -0.00104159 0)
(1.20966 -0.000996935 0)
(1.20658 -0.000936238 0)
(1.20386 -0.000860975 0)
(1.20148 -0.000772733 0)
(1.19945 -0.000673153 0)
(1.19776 -0.000563928 0)
(1.19641 -0.000446915 0)
(1.19539 -0.000323563 0)
(1.19472 -0.000195183 0)
(1.19439 -6.61926e-05 0)
(1.27246 0.0109319 0)
(1.30789 0.0116839 0)
(1.31817 0.0103316 0)
(1.31626 0.00995382 0)
(1.30941 0.00955768 0)
(1.3009 0.00911832 0)
(1.29203 0.00861048 0)
(1.28335 0.00806264 0)
(1.27509 0.00749245 0)
(1.26733 0.00691263 0)
(1.26006 0.00633454 0)
(1.25326 0.00576851 0)
(1.24689 0.00522299 0)
(1.24092 0.00470392 0)
(1.23533 0.00421495 0)
(1.23012 0.00375827 0)
(1.22528 0.00333467 0)
(1.2208 0.00294368 0)
(1.21668 0.00258421 0)
(1.21293 0.0022547 0)
(1.20952 0.00195319 0)
(1.20647 0.00167736 0)
(1.20377 0.00142475 0)
(1.20141 0.00119276 0)
(1.19939 0.000978738 0)
(1.19771 0.000779979 0)
(1.19637 0.000593628 0)
(1.19537 0.000417118 0)
(1.1947 0.000248069 0)
(1.19437 8.16785e-05 0)
(1.2711 0.0230892 0)
(1.30665 0.023799 0)
(1.31716 0.0220215 0)
(1.3154 0.0209817 0)
(1.30856 0.0199576 0)
(1.30001 0.0188849 0)
(1.2911 0.0177661 0)
(1.2824 0.0166362 0)
(1.27413 0.0155112 0)
(1.26638 0.0144014 0)
(1.25913 0.0133172 0)
(1.25236 0.0122675 0)
(1.24602 0.0112588 0)
(1.24009 0.0102956 0)
(1.23455 0.00938049 0)
(1.22939 0.00851428 0)
(1.22459 0.00769659 0)
(1.22016 0.00692588 0)
(1.21609 0.00619992 0)
(1.21237 0.00551603 0)
(1.209 0.00487115 0)
(1.20598 0.00426185 0)
(1.20331 0.00368459 0)
(1.20098 0.00313574 0)
(1.19898 0.00261153 0)
(1.19732 0.00210823 0)
(1.196 0.00162198 0)
(1.195 0.0011491 0)
(1.19434 0.000686117 0)
(1.19402 0.00022771 0)
(1.26982 0.0357184 0)
(1.30487 0.0362844 0)
(1.31545 0.0339923 0)
(1.31377 0.0322298 0)
(1.30695 0.0305019 0)
(1.29839 0.0287391 0)
(1.28948 0.026969 0)
(1.28079 0.0252256 0)
(1.27255 0.0235205 0)
(1.26484 0.0218619 0)
(1.25764 0.0202582 0)
(1.25092 0.0187155 0)
(1.24465 0.0172378 0)
(1.23878 0.0158275 0)
(1.2333 0.0144852 0)
(1.2282 0.0132101 0)
(1.22347 0.0120001 0)
(1.2191 0.0108523 0)
(1.21508 0.00976327 0)
(1.21142 0.00872885 0)
(1.2081 0.00774475 0)
(1.20512 0.00680638 0)
(1.20249 0.00590906 0)
(1.20019 0.00504797 0)
(1.19822 0.00421829 0)
(1.19659 0.00341518 0)
(1.19528 0.00263376 0)
(1.19431 0.00186927 0)
(1.19366 0.0011171 0)
(1.19333 0.00037132 0)
(1.26832 0.0487734 0)
(1.30248 0.0491224 0)
(1.31294 0.0461808 0)
(1.31129 0.0436243 0)
(1.30452 0.0411255 0)
(1.29599 0.0386261 0)
(1.28713 0.0361701 0)
(1.27849 0.0337857 0)
(1.27032 0.0314794 0)
(1.26268 0.0292573 0)
(1.25556 0.0271242 0)
(1.24893 0.0250823 0)
(1.24274 0.0231325 0)
(1.23697 0.0212743 0)
(1.23158 0.0195059 0)
(1.22656 0.0178244 0)
(1.22191 0.0162258 0)
(1.21762 0.0147055 0)
(1.21367 0.0132583 0)
(1.21007 0.0118788 0)
(1.20682 0.0105612 0)
(1.2039 0.00929971 0)
(1.20131 0.0080883 0)
(1.19905 0.00692104 0)
(1.19712 0.00579194 0)
(1.19552 0.00469509 0)
(1.19424 0.00362453 0)
(1.19328 0.00257446 0)
(1.19264 0.00153913 0)
(1.19232 0.000511904 0)
(1.2664 0.0621497 0)
(1.29936 0.0622083 0)
(1.30954 0.0584936 0)
(1.3079 0.0550733 0)
(1.3012 0.0517496 0)
(1.29276 0.0484776 0)
(1.28399 0.0453079 0)
(1.27547 0.0422608 0)
(1.26741 0.0393387 0)
(1.25989 0.0365439 0)
(1.2529 0.0338761 0)
(1.24639 0.031333 0)
(1.24032 0.0289115 0)
(1.23466 0.0266078 0)
(1.22938 0.0244173 0)
(1.22447 0.0223345 0)
(1.21992 0.0203532 0)
(1.21572 0.0184669 0)
(1.21187 0.0166686 0)
(1.20835 0.0149512 0)
(1.20516 0.0133075 0)
(1.20231 0.0117303 0)
(1.19978 0.0102123 0)
(1.19758 0.00874639 0)
(1.19569 0.00732534 0)
(1.19412 0.00594215 0)
(1.19287 0.00458982 0)
(1.19193 0.00326147 0)
(1.19131 0.00195028 0)
(1.191 0.000648844 0)
(1.26386 0.0757099 0)
(1.29539 0.0753934 0)
(1.30517 0.0708011 0)
(1.30353 0.0664662 0)
(1.29696 0.0622809 0)
(1.28867 0.0582117 0)
(1.28006 0.0543094 0)
(1.27171 0.050587 0)
(1.26382 0.0470426 0)
(1.25647 0.0436726 0)
(1.24964 0.0404705 0)
(1.24329 0.0374291 0)
(1.23737 0.0345407 0)
(1.23185 0.0317977 0)
(1.22671 0.0291923 0)
(1.22194 0.0267162 0)
(1.21751 0.0243608 0)
(1.21342 0.0221173 0)
(1.20967 0.019977 0)
(1.20625 0.0179309 0)
(1.20315 0.0159703 0)
(1.20037 0.0140866 0)
(1.19791 0.0122711 0)
(1.19577 0.0105155 0)
(1.19393 0.00881136 0)
(1.1924 0.00715061 0)
(1.19119 0.00552519 0)
(1.19027 0.00392717 0)
(1.18967 0.00234869 0)
(1.18936 0.00078152 0)
(1.26054 0.0892866 0)
(1.29046 0.0885066 0)
(1.29978 0.0829517 0)
(1.29816 0.0776743 0)
(1.29176 0.0726109 0)
(1.2837 0.0677341 0)
(1.27533 0.0630927 0)
(1.26721 0.0586939 0)
(1.25955 0.0545298 0)
(1.25242 0.0505898 0)
(1.2458 0.0468607 0)
(1.23964 0.0433295 0)
(1.23391 0.0399839 0)
(1.22857 0.0368122 0)
(1.2236 0.0338028 0)
(1.21897 0.0309447 0)
(1.21468 0.0282265 0)
(1.21073 0.0256373 0)
(1.2071 0.0231663 0)
(1.20378 0.0208027 0)
(1.20079 0.0185364 0)
(1.1981 0.016357 0)
(1.19571 0.0142547 0)
(1.19363 0.0122199 0)
(1.19186 0.010243 0)
(1.19038 0.00831481 0)
(1.1892 0.00642628 0)
(1.18831 0.00456847 0)
(1.18772 0.0027325 0)
(1.18743 0.000909324 0)
(1.25629 0.102683 0)
(1.2845 0.101358 0)
(1.29332 0.0947804 0)
(1.29175 0.0885571 0)
(1.2856 0.0826194 0)
(1.27784 0.0769415 0)
(1.26979 0.0715698 0)
(1.26198 0.066506 0)
(1.25461 0.0617355 0)
(1.24775 0.0572394 0)
(1.24138 0.0529978 0)
(1.23546 0.0489918 0)
(1.22995 0.045204 0)
(1.22482 0.0416185 0)
(1.22003 0.0382202 0)
(1.21559 0.0349947 0)
(1.21146 0.0319282 0)
(1.20766 0.0290073 0)
(1.20416 0.0262193 0)
(1.20097 0.0235517 0)
(1.19808 0.0209925 0)
(1.19549 0.0185301 0)
(1.1932 0.0161533 0)
(1.1912 0.0138512 0)
(1.18948 0.0116133 0)
(1.18806 0.00942921 0)
(1.18692 0.00728885 0)
(1.18606 0.00518236 0)
(1.1855 0.00309992 0)
(1.18521 0.00103167 0)
(1.251 0.11568 -3.59635e-11)
(1.27745 0.113742 -3.42507e-11)
(1.28579 0.106114 0)
(1.28431 0.0989679 -3.13131e-11)
(1.27849 0.0921809 -3.00244e-11)
(1.27112 0.0857265 -8.31559e-28)
(1.26346 0.0796495 2.77781e-11)
(1.25603 0.0739459 2.67995e-11)
(1.24902 0.068593 0)
(1.24248 0.0635641 0)
(1.23641 0.0588323 0)
(1.23077 0.054373 0)
(1.22552 0.0501637 0)
(1.22062 0.0461842 0)
(1.21605 0.0424158 0)
(1.2118 0.0388412 0)
(1.20786 0.0354438 0)
(1.20423 0.0322081 0)
(1.20088 0.0291192 0)
(1.19783 0.026163 0)
(1.19506 0.0233258 1.95801e-11)
(1.19258 0.0205948 3.86386e-11)
(1.19038 0.0179574 1.90903e-11)
(1.18846 0.0154016 0)
(1.18682 0.0129157 -1.87238e-11)
(1.18545 0.0104885 -1.85846e-11)
(1.18436 0.00810881 0)
(1.18354 0.00576597 -1.83915e-11)
(1.18299 0.00344923 -1.83366e-11)
(1.18272 0.00114797 -5.28243e-28)
(1.24459 0.128051 3.59661e-11)
(1.26931 0.125447 3.42507e-11)
(1.27719 0.116778 0)
(1.27588 0.10876 3.13131e-11)
(1.27047 0.10117 3.00244e-11)
(1.26358 0.0939825 8.31559e-28)
(1.25639 0.0872414 -2.77781e-11)
(1.2494 0.0809365 -2.67995e-11)
(1.2428 0.0750367 0)
(1.23665 0.0695075 0)
(1.23092 0.0643158 0)
(1.22559 0.0594311 0)
(1.22063 0.0548264 0)
(1.21599 0.0504775 0)
(1.21167 0.0463622 0)
(1.20764 0.0424601 0)
(1.20391 0.0387524 0)
(1.20045 0.0352212 0)
(1.19727 0.0318499 0)
(1.19437 0.0286226 0)
(1.19174 0.0255243 -1.95801e-11)
(1.18938 0.0225406 -3.86386e-11)
(1.18728 0.0196581 -1.90903e-11)
(1.18545 0.0168634 0)
(1.18388 0.014144 1.87238e-11)
(1.18258 0.0114876 1.85846e-11)
(1.18153 0.00888229 0)
(1.18075 0.00631654 1.83915e-11)
(1.18023 0.0037788 1.83366e-11)
(1.17997 0.00125771 5.28243e-28)
(1.23703 0.139567 0)
(1.26011 0.136266 0)
(1.26759 0.126603 0)
(1.26652 0.117792 0)
(1.2616 0.109468 0)
(1.25526 0.101608 0)
(1.24862 0.09426 0)
(1.24214 0.087405 0)
(1.23601 0.0810042 0)
(1.23028 0.0750162 0)
(1.22494 0.0694021 0)
(1.21997 0.0641265 0)
(1.21532 0.0591579 0)
(1.21098 0.0544686 0)
(1.20692 0.0500332 0)
(1.20313 0.0458288 0)
(1.19962 0.0418341 0)
(1.19636 0.0380294 0)
(1.19336 0.0343963 0)
(1.19062 0.0309174 0)
(1.18813 0.0275764 0)
(1.1859 0.0243578 0)
(1.18391 0.0212469 0)
(1.18218 0.0182295 0)
(1.18069 0.0152922 0)
(1.17945 0.0124218 0)
(1.17846 0.00960571 0)
(1.17772 0.00683156 0)
(1.17723 0.00408712 0)
(1.17698 0.00136037 0)
(1.22837 0.150017 0)
(1.2499 0.146009 0)
(1.25708 0.135441 0)
(1.25632 0.125938 0)
(1.25196 0.116965 0)
(1.24625 0.108513 0)
(1.24022 0.100627 0)
(1.23431 0.0932851 0)
(1.2287 0.0864389 0)
(1.22343 0.0800417 0)
(1.21852 0.0740495 0)
(1.21393 0.068423 0)
(1.20963 0.063127 0)
(1.2056 0.0581304 0)
(1.20183 0.0534054 0)
(1.1983 0.0489267 0)
(1.19502 0.044671 0)
(1.19198 0.040617 0)
(1.18917 0.0367447 0)
(1.1866 0.0330355 0)
(1.18426 0.0294719 0)
(1.18216 0.0260374 0)
(1.18029 0.0227163 0)
(1.17866 0.0194936 0)
(1.17726 0.0163551 0)
(1.17609 0.013287 0)
(1.17516 0.0102759 0)
(1.17446 0.00730876 0)
(1.174 0.00437284 0)
(1.17376 0.00145552 0)
(1.21867 0.159211 0)
(1.23881 0.15451 0)
(1.24576 0.143162 0)
(1.24539 0.133089 0)
(1.24167 0.12357 0)
(1.23665 0.114617 0)
(1.23128 0.106277 0)
(1.22598 0.09852 0)
(1.22092 0.0912921 0)
(1.21617 0.0845419 0)
(1.2117 0.0782221 0)
(1.20752 0.0722896 0)
(1.20359 0.0667066 0)
(1.1999 0.0614396 0)
(1.19643 0.0564585 0)
(1.19318 0.0517362 0)
(1.19014 0.0472478 0)
(1.18732 0.0429707 0)
(1.18472 0.0388836 0)
(1.18233 0.0349669 0)
(1.18015 0.0312021 0)
(1.17819 0.0275719 0)
(1.17645 0.0240599 0)
(1.17492 0.0206503 0)
(1.17361 0.0173283 0)
(1.17252 0.0140795 0)
(1.17165 0.01089 0)
(1.17099 0.0077462 0)
(1.17055 0.00463481 0)
(1.17034 0.00154276 0)
(1.20808 0.167001 0)
(1.22698 0.161644 0)
(1.23379 0.14967 0)
(1.23387 0.139161 0)
(1.23083 0.12921 0)
(1.22655 0.11986 0)
(1.22188 0.111157 0)
(1.21723 0.103065 0)
(1.21277 0.0955248 0)
(1.20854 0.0884835 0)
(1.20455 0.0818906 0)
(1.2008 0.075701 0)
(1.19726 0.069875 0)
(1.19392 0.0643771 0)
(1.19076 0.0591758 0)
(1.1878 0.0542427 0)
(1.18503 0.0495518 0)
(1.18244 0.0450793 0)
(1.18004 0.0408032 0)
(1.17784 0.0367031 0)
(1.17583 0.0327597 0)
(1.17402 0.0289551 0)
(1.1724 0.0252723 0)
(1.17099 0.0216951 0)
(1.16977 0.0182081 0)
(1.16875 0.0147965 0)
(1.16794 0.0114459 0)
(1.16733 0.0081423 0)
(1.16692 0.00487208 0)
(1.16672 0.00162179 0)
(1.19676 0.173279 0)
(1.21456 0.167322 0)
(1.22131 0.154901 0)
(1.2219 0.144097 0)
(1.21959 0.133836 0)
(1.21607 0.124198 0)
(1.21213 0.11523 0)
(1.20816 0.106887 0)
(1.2043 0.0991092 0)
(1.20062 0.0918419 0)
(1.19713 0.0850339 0)
(1.19382 0.0786388 0)
(1.19068 0.0726159 0)
(1.1877 0.0669288 0)
(1.18487 0.061545 0)
(1.18221 0.0564355 0)
(1.1797 0.0515735 0)
(1.17735 0.0469347 0)
(1.17517 0.0424965 0)
(1.17316 0.0382379 0)
(1.17132 0.0341394 0)
(1.16966 0.0301824 0)
(1.16817 0.0263497 0)
(1.16687 0.0226248 0)
(1.16575 0.0189918 0)
(1.16481 0.0154357 0)
(1.16406 0.0119418 0)
(1.16349 0.00849589 0)
(1.16312 0.00508396 0)
(1.16293 0.00169237 0)
(1.1849 0.177986 0)
(1.20175 0.171503 0)
(1.20851 0.158825 0)
(1.20964 0.147869 0)
(1.20808 0.137423 0)
(1.20533 0.127611 0)
(1.20214 0.118476 0)
(1.19885 0.109969 0)
(1.19561 0.102029 0)
(1.19249 0.0946029 0)
(1.1895 0.0876393 0)
(1.18664 0.0810918 0)
(1.18391 0.0749195 0)
(1.18129 0.0690859 0)
(1.1788 0.0635585 0)
(1.17643 0.0583079 0)
(1.17419 0.0533072 0)
(1.17209 0.0485317 0)
(1.17013 0.0439589 0)
(1.16831 0.0395674 0)
(1.16664 0.0353376 0)
(1.16513 0.0312508 0)
(1.16378 0.0272896 0)
(1.16259 0.0234371 0)
(1.16157 0.0196776 0)
(1.16071 0.0159957 0)
(1.16002 0.0123767 0)
(1.15951 0.00880619 0)
(1.15916 0.00527 0)
(1.15899 0.00175436 0)
(1.1727 0.181111 0)
(1.18873 0.174191 0)
(1.19556 0.161447 0)
(1.19725 0.150475 0)
(1.19644 0.139968 0)
(1.19446 0.130096 0)
(1.19201 0.120892 0)
(1.1894 0.112306 0)
(1.18677 0.10428 0)
(1.18421 0.0967624 0)
(1.18172 0.0897027 0)
(1.17931 0.083056 0)
(1.17699 0.0767821 0)
(1.17474 0.0708452 0)
(1.17258 0.0652132 0)
(1.17051 0.059857 0)
(1.16855 0.0547501 0)
(1.16669 0.0498681 0)
(1.16494 0.0451884 0)
(1.16332 0.0406899 0)
(1.16183 0.0363529 0)
(1.16048 0.032159 0)
(1.15926 0.0280907 0)
(1.15819 0.0241312 0)
(1.15726 0.0202647 0)
(1.15648 0.016476 0)
(1.15586 0.0127502 0)
(1.15539 0.00907288 0)
(1.15508 0.00542999 0)
(1.15492 0.00180769 0)
(1.16037 0.182679 0)
(1.17568 0.175427 0)
(1.18263 0.162803 0)
(1.18488 0.151944 0)
(1.18479 0.141495 0)
(1.18358 0.131669 0)
(1.18184 0.122491 0)
(1.17989 0.113909 0)
(1.17788 0.10587 0)
(1.17586 0.0983261 0)
(1.17386 0.0912287 0)
(1.1719 0.084535 0)
(1.16998 0.0782065 0)
(1.16809 0.0722088 0)
(1.16626 0.0665108 0)
(1.16449 0.0610843 0)
(1.1628 0.0559035 0)
(1.16118 0.0509447 0)
(1.15966 0.0461856 0)
(1.15823 0.0416058 0)
(1.15691 0.0371858 0)
(1.15571 0.0329074 0)
(1.15463 0.0287533 0)
(1.15367 0.0247072 0)
(1.15284 0.0207534 0)
(1.15214 0.0168766 0)
(1.15158 0.0130622 0)
(1.15116 0.00929602 0)
(1.15088 0.00556396 0)
(1.15074 0.00185236 0)
(1.14811 0.182764 0)
(1.16279 0.175288 0)
(1.16988 0.162955 0)
(1.17267 0.152323 0)
(1.17328 0.142045 0)
(1.17278 0.132365 0)
(1.17173 0.1233 0)
(1.17042 0.1148 0)
(1.16899 0.106818 0)
(1.1675 0.0993092 0)
(1.16599 0.0922297 0)
(1.16446 0.0855391 0)
(1.16292 0.0792013 0)
(1.1614 0.0731838 0)
(1.15989 0.0674572 0)
(1.15841 0.0619947 0)
(1.15698 0.0567716 0)
(1.1556 0.0517651 0)
(1.15429 0.0469538 0)
(1.15306 0.0423177 0)
(1.15191 0.0378383 0)
(1.15086 0.0334977 0)
(1.14991 0.0292791 0)
(1.14906 0.0251665 0)
(1.14833 0.0211445 0)
(1.14771 0.0171983 0)
(1.14721 0.0133135 0)
(1.14684 0.00947604 0)
(1.14659 0.00567219 0)
(1.14646 0.00188847 0)
(1.1361 0.181485 0)
(1.15023 0.173882 0)
(1.15745 0.161987 0)
(1.16076 0.151686 0)
(1.16201 0.141679 0)
(1.16218 0.132234 0)
(1.16178 0.12336 0)
(1.16108 0.115012 0)
(1.1602 0.107151 0)
(1.15921 0.0997351 0)
(1.15815 0.0927253 0)
(1.15703 0.0860847 0)
(1.15588 0.0797803 0)
(1.15469 0.073782 0)
(1.1535 0.0680625 0)
(1.1523 0.0625968 0)
(1.15113 0.0573617 0)
(1.14998 0.0523355 0)
(1.14888 0.047498 0)
(1.14783 0.0428303 0)
(1.14685 0.0383144 0)
(1.14595 0.0339333 0)
(1.14512 0.0296708 0)
(1.14439 0.0255113 0)
(1.14375 0.0214401 0)
(1.14321 0.0174427 0)
(1.14277 0.0135051 0)
(1.14244 0.00961374 0)
(1.14222 0.00575513 0)
(1.14211 0.00191618 0)
(1.1245 0.178963 0)
(1.13813 0.171337 0)
(1.14546 0.160005 0)
(1.14924 0.15012 0)
(1.15108 0.140469 0)
(1.15187 0.131336 0)
(1.15207 0.122722 0)
(1.15192 0.11459 0)
(1.15155 0.106905 0)
(1.15104 0.0996344 0)
(1.15041 0.0927415 0)
(1.14968 0.086194 0)
(1.14888 0.0799624 0)
(1.14803 0.0740195 0)
(1.14713 0.0683405 0)
(1.1462 0.0629024 0)
(1.14527 0.0576838 0)
(1.14435 0.0526646 0)
(1.14345 0.0478259 0)
(1.14258 0.0431498 0)
(1.14176 0.0386195 0)
(1.141 0.0342187 0)
(1.1403 0.0299321 0)
(1.13967 0.0257448 0)
(1.13912 0.0216427 0)
(1.13866 0.0176117 0)
(1.13828 0.0136386 0)
(1.138 0.00971019 0)
(1.1378 0.00581343 0)
(1.13771 0.00193568 0)
(1.11344 0.175343 0)
(1.1266 0.167798 0)
(1.13403 0.157126 0)
(1.13822 0.147723 0)
(1.14058 0.1385 0)
(1.14192 0.129742 0)
(1.14266 0.121446 0)
(1.14302 0.113582 0)
(1.14312 0.106125 0)
(1.14304 0.0990437 0)
(1.14281 0.0923093 0)
(1.14245 0.0858935 0)
(1.14198 0.0797702 0)
(1.14143 0.0739157 0)
(1.14081 0.0683078 0)
(1.14014 0.0629258 0)
(1.13944 0.0577503 0)
(1.13873 0.0527629 0)
(1.13802 0.0479463 0)
(1.13733 0.043284 0)
(1.13666 0.0387601 0)
(1.13604 0.0343595 0)
(1.13546 0.0300678 0)
(1.13493 0.0258709 0)
(1.13447 0.0217554 0)
(1.13408 0.017708 0)
(1.13376 0.013716 0)
(1.13352 0.00976675 0)
(1.13335 0.00584788 0)
(1.13327 0.00194725 0)
(1.10304 0.170787 0)
(1.11574 0.163418 0)
(1.12324 0.153472 0)
(1.12776 0.144604 0)
(1.13058 0.135862 0)
(1.1324 0.127529 0)
(1.13361 0.119597 0)
(1.13442 0.112046 0)
(1.13495 0.104856 0)
(1.13526 0.0980037 0)
(1.13539 0.0914639 0)
(1.13537 0.0852132 0)
(1.13521 0.0792298 0)
(1.13494 0.073493 0)
(1.13458 0.0679837 0)
(1.13416 0.0626836 0)
(1.13367 0.0575755 0)
(1.13316 0.0526429 0)
(1.13263 0.0478701 0)
(1.1321 0.043242 0)
(1.13158 0.0387441 0)
(1.13108 0.0343624 0)
(1.13061 0.0300835 0)
(1.13019 0.0258943 0)
(1.12981 0.0217821 0)
(1.12949 0.0177345 0)
(1.12922 0.0137395 0)
(1.12902 0.00978502 0)
(1.12888 0.00585945 0)
(1.12882 0.00195121 0)
(1.09335 0.165461 0)
(1.10562 0.158351 0)
(1.11313 0.149169 0)
(1.11792 0.140869 0)
(1.12112 0.132649 0)
(1.12335 0.124777 0)
(1.12497 0.117245 0)
(1.12618 0.110041 0)
(1.12709 0.103151 0)
(1.12775 0.0965586 0)
(1.12821 0.0902432 0)
(1.12848 0.0841862 0)
(1.12861 0.0783695 0)
(1.1286 0.0727761 0)
(1.12848 0.0673895 0)
(1.12827 0.0621943 0)
(1.12799 0.0571754 0)
(1.12766 0.0523184 0)
(1.1273 0.0476091 0)
(1.12692 0.0430342 0)
(1.12653 0.0385804 0)
(1.12615 0.034235 0)
(1.12579 0.0299856 0)
(1.12546 0.0258203 0)
(1.12516 0.0217271 0)
(1.1249 0.0176947 0)
(1.12469 0.0137117 0)
(1.12453 0.00976686 0)
(1.12442 0.00584922 0)
(1.12436 0.00194791 0)
(1.08443 0.159526 0)
(1.09626 0.152746 0)
(1.10374 0.144341 0)
(1.10874 0.136629 0)
(1.11223 0.128955 0)
(1.11481 0.121567 0)
(1.11678 0.114459 0)
(1.11833 0.107627 0)
(1.11956 0.101063 0)
(1.12053 0.0947544 0)
(1.12127 0.0886874 0)
(1.12182 0.0828473 0)
(1.12219 0.0772198 0)
(1.12241 0.0717913 0)
(1.12251 0.0665485 0)
(1.1225 0.0614782 0)
(1.12241 0.0565677 0)
(1.12225 0.0518046 0)
(1.12204 0.0471766 0)
(1.1218 0.0426719 0)
(1.12154 0.0382786 0)
(1.12127 0.0339855 0)
(1.12101 0.0297812 0)
(1.12077 0.0256547 0)
(1.12054 0.0215954 0)
(1.12034 0.0175925 0)
(1.12018 0.0136356 0)
(1.12005 0.00971434 0)
(1.11996 0.00581843 0)
(1.11992 0.00193777 0)
(1.0763 0.153136 0)
(1.08769 0.146742 0)
(1.0951 0.139105 0)
(1.10022 0.131987 0)
(1.10395 0.124871 0)
(1.10679 0.117979 0)
(1.10905 0.11131 0)
(1.11089 0.104865 0)
(1.11239 0.0986439 0)
(1.11362 0.0926378 0)
(1.11461 0.0868374 0)
(1.11539 0.0812324 0)
(1.11599 0.0758123 0)
(1.11642 0.0705665 0)
(1.11671 0.0654847 0)
(1.11688 0.0605563 0)
(1.11695 0.0557708 0)
(1.11694 0.0511178 0)
(1.11688 0.0465868 0)
(1.11676 0.0421675 0)
(1.11662 0.0378496 0)
(1.11646 0.0336231 0)
(1.11629 0.029478 0)
(1.11612 0.0254042 0)
(1.11596 0.0213922 0)
(1.11582 0.0174321 0)
(1.1157 0.0135145 0)
(1.11561 0.00962976 0)
(1.11554 0.00576845 0)
(1.11551 0.00192124 0)
(1.06896 0.146433 0)
(1.0799 0.140463 0)
(1.08718 0.133571 0)
(1.09238 0.127043 0)
(1.09627 0.120483 0)
(1.09932 0.114089 0)
(1.10181 0.107865 0)
(1.10387 0.101816 0)
(1.1056 0.0959479 0)
(1.10705 0.0902558 0)
(1.10825 0.0847347 0)
(1.10923 0.0793781 0)
(1.11002 0.0741791 0)
(1.11063 0.0691301 0)
(1.11108 0.0642234 0)
(1.11141 0.0594509 0)
(1.11163 0.0548043 0)
(1.11177 0.0502751 0)
(1.11183 0.0458546 0)
(1.11183 0.041534 0)
(1.11179 0.0373047 0)
(1.11172 0.0331578 0)
(1.11164 0.0290844 0)
(1.11154 0.0250759 0)
(1.11145 0.0211234 0)
(1.11136 0.0172183 0)
(1.11128 0.013352 0)
(1.11121 0.00951567 0)
(1.11117 0.00570079 0)
(1.11115 0.00189882 0)
(1.06238 0.139544 0)
(1.07286 0.134021 0)
(1.07999 0.127838 0)
(1.0852 0.121886 0)
(1.08919 0.115872 0)
(1.09239 0.10997 0)
(1.09504 0.104188 0)
(1.09729 0.0985375 0)
(1.0992 0.093026 0)
(1.10082 0.087654 0)
(1.1022 0.0824199 0)
(1.10335 0.0773208 0)
(1.10429 0.0723527 0)
(1.10506 0.0675109 0)
(1.10566 0.0627902 0)
(1.10613 0.0581848 0)
(1.10648 0.0536884 0)
(1.10673 0.0492943 0)
(1.1069 0.0449957 0)
(1.10701 0.0407854 0)
(1.10706 0.0366559 0)
(1.10708 0.0325998 0)
(1.10707 0.0286094 0)
(1.10704 0.0246771 0)
(1.107 0.0207953 0)
(1.10696 0.0169561 0)
(1.10691 0.0131519 0)
(1.10688 0.00937477 0)
(1.10685 0.00561707 0)
(1.10684 0.00187105 0)
(1.05653 0.132577 0)
(1.06656 0.127512 0)
(1.07349 0.121995 0)
(1.07865 0.116598 0)
(1.08269 0.111111 0)
(1.08598 0.105688 0)
(1.08876 0.10034 0)
(1.09113 0.0950831 0)
(1.09318 0.0899273 0)
(1.09495 0.0848767 0)
(1.09646 0.0799329 0)
(1.09774 0.075096 0)
(1.09882 0.0703649 0)
(1.09971 0.0657374 0)
(1.10044 0.0612106 0)
(1.10103 0.0567807 0)
(1.10149 0.0524433 0)
(1.10185 0.0481936 0)
(1.10212 0.0440263 0)
(1.10231 0.0399357 0)
(1.10245 0.0359156 0)
(1.10254 0.0319599 0)
(1.1026 0.0280622 0)
(1.10263 0.0242159 0)
(1.10264 0.0204143 0)
(1.10263 0.0166507 0)
(1.10263 0.0129182 0)
(1.10262 0.00920992 0)
(1.10261 0.00551899 0)
(1.1026 0.00183849 0)
(1.05138 0.125626 0)
(1.06094 0.121019 0)
(1.06765 0.116121 0)
(1.07272 0.111251 0)
(1.07675 0.106267 0)
(1.08009 0.101304 0)
(1.08294 0.0963765 0)
(1.0854 0.0915037 0)
(1.08755 0.0866977 0)
(1.08942 0.0819654 0)
(1.09104 0.0773114 0)
(1.09243 0.0727381 0)
(1.09361 0.0682469 0)
(1.09461 0.0638377 0)
(1.09544 0.0595098 0)
(1.09612 0.0552612 0)
(1.09668 0.0510894 0)
(1.09713 0.0469911 0)
(1.09748 0.0429624 0)
(1.09775 0.0389991 0)
(1.09796 0.0350964 0)
(1.09812 0.0312492 0)
(1.09823 0.0274524 0)
(1.09831 0.0237003 0)
(1.09837 0.0199872 0)
(1.0984 0.0163075 0)
(1.09843 0.0126551 0)
(1.09844 0.00902405 0)
(1.09844 0.00540828 0)
(1.09845 0.00180173 0)
(1.04686 0.11877 0)
(1.05595 0.114611 0)
(1.06241 0.110281 0)
(1.06737 0.105906 0)
(1.07135 0.101397 0)
(1.0747 0.0968709 0)
(1.07757 0.092347 0)
(1.08009 0.0878451 0)
(1.0823 0.0833794 0)
(1.08423 0.0789591 0)
(1.08593 0.0745907 0)
(1.0874 0.0702792 0)
(1.08866 0.0660277 0)
(1.08974 0.0618383 0)
(1.09066 0.0577119 0)
(1.09142 0.0536482 0)
(1.09205 0.0496462 0)
(1.09257 0.0457042 0)
(1.093 0.0418197 0)
(1.09334 0.0379896 0)
(1.09361 0.0342105 0)
(1.09382 0.0304784 0)
(1.09398 0.0267891 0)
(1.09411 0.023138 0)
(1.0942 0.0195206 0)
(1.09427 0.0159318 0)
(1.09432 0.0123667 0)
(1.09435 0.00882006 0)
(1.09437 0.0052867 0)
(1.09438 0.00176134 0)
(1.04293 0.112073 0)
(1.05156 0.108344 0)
(1.05775 0.104531 0)
(1.06255 0.100615 0)
(1.06646 0.0965498 0)
(1.06977 0.0924364 0)
(1.07264 0.0882955 0)
(1.07517 0.0841484 0)
(1.07741 0.0800105 0)
(1.07939 0.0758927 0)
(1.08113 0.0718034 0)
(1.08266 0.0677491 0)
(1.08398 0.0637349 0)
(1.08512 0.0597642 0)
(1.08609 0.0558395 0)
(1.08692 0.0519621 0)
(1.08762 0.0481324 0)
(1.0882 0.0443498 0)
(1.08868 0.0406132 0)
(1.08907 0.0369206 0)
(1.08939 0.0332697 0)
(1.08965 0.0296577 0)
(1.08986 0.0260812 0)
(1.09002 0.0225368 0)
(1.09015 0.0190207 0)
(1.09024 0.0155287 0)
(1.09031 0.0120569 0)
(1.09036 0.00860074 0)
(1.09039 0.00515589 0)
(1.09041 0.00171787 0)
(1.03954 0.105583 0)
(1.0477 0.102261 0)
(1.05362 0.0989136 0)
(1.05824 0.095423 0)
(1.06204 0.0917682 0)
(1.06528 0.08804 0)
(1.06812 0.0842598 0)
(1.07064 0.0804492 0)
(1.07288 0.0766244 0)
(1.07487 0.0727975 0)
(1.07664 0.0689783 0)
(1.07819 0.0651746 0)
(1.07955 0.0613928 0)
(1.08074 0.0576378 0)
(1.08175 0.0539133 0)
(1.08263 0.0502218 0)
(1.08337 0.0465649 0)
(1.084 0.0429432 0)
(1.08452 0.0393566 0)
(1.08496 0.0358044 0)
(1.08532 0.032285 0)
(1.08562 0.0287967 0)
(1.08586 0.0253372 0)
(1.08605 0.0219037 0)
(1.08621 0.0184934 0)
(1.08633 0.0151031 0)
(1.08641 0.0117294 0)
(1.08648 0.00836869 0)
(1.08652 0.00501742 0)
(1.08654 0.00167184 0)
(1.03662 0.0993365 0)
(1.04433 0.0963942 0)
(1.04996 0.093465 0)
(1.05438 0.0903626 0)
(1.05805 0.0870859 0)
(1.06121 0.083715 0)
(1.06398 0.0802718 0)
(1.06646 0.0767779 0)
(1.06868 0.0732498 0)
(1.07067 0.0697005 0)
(1.07244 0.0661407 0)
(1.074 0.0625793 0)
(1.07538 0.0590235 0)
(1.07659 0.0554794 0)
(1.07763 0.0519518 0)
(1.07854 0.0484441 0)
(1.07931 0.0449591 0)
(1.07997 0.0414983 0)
(1.08053 0.0380625 0)
(1.081 0.034652 0)
(1.0814 0.0312662 0)
(1.08173 0.0279042 0)
(1.082 0.0245644 0)
(1.08221 0.0212451 0)
(1.08239 0.0179442 0)
(1.08253 0.0146592 0)
(1.08263 0.0113874 0)
(1.0827 0.00812626 0)
(1.08275 0.00487269 0)
(1.08278 0.00162371 0)
(1.03413 0.0933598 0)
(1.04139 0.0907682 0)
(1.04673 0.0882106 0)
(1.05095 0.0854608 0)
(1.05447 0.0825295 0)
(1.05751 0.0794877 0)
(1.06021 0.0763574 0)
(1.06263 0.0731596 0)
(1.0648 0.0699109 0)
(1.06676 0.0666247 0)
(1.06851 0.0633122 0)
(1.07007 0.0599832 0)
(1.07145 0.0566456 0)
(1.07267 0.0533064 0)
(1.07373 0.049971 0)
(1.07465 0.0466439 0)
(1.07544 0.0433285 0)
(1.07613 0.0400272 0)
(1.07671 0.0367419 0)
(1.07721 0.0334734 0)
(1.07762 0.0302221 0)
(1.07797 0.0269877 0)
(1.07826 0.0237696 0)
(1.0785 0.0205667 0)
(1.07869 0.0173777 0)
(1.07885 0.0142008 0)
(1.07896 0.0110341 0)
(1.07904 0.00787558 0)
(1.0791 0.00472296 0)
(1.07913 0.00157392 0)
(1.03201 0.087669 0)
(1.03884 0.0853976 0)
(1.04389 0.0831688 0)
(1.0479 0.080737 0)
(1.05125 0.0781194 0)
(1.05417 0.0753789 0)
(1.05677 0.0725373 0)
(1.05911 0.0696146 0)
(1.06123 0.0666273 0)
(1.06314 0.0635888 0)
(1.06486 0.0605109 0)
(1.0664 0.0574035 0)
(1.06777 0.0542754 0)
(1.06897 0.0511337 0)
(1.07003 0.0479848 0)
(1.07096 0.0448338 0)
(1.07176 0.0416847 0)
(1.07246 0.0385408 0)
(1.07306 0.0354044 0)
(1.07357 0.0322772 0)
(1.074 0.0291603 0)
(1.07437 0.0260541 0)
(1.07467 0.0229587 0)
(1.07492 0.0198736 0)
(1.07513 0.0167982 0)
(1.07529 0.0137314 0)
(1.07541 0.010672 0)
(1.0755 0.00761851 0)
(1.07556 0.00456935 0)
(1.07559 0.00152283 0)
(1.03021 0.0822731 0)
(1.03664 0.080291 0)
(1.0414 0.0783516 0)
(1.04518 0.0762049 0)
(1.04837 0.0738704 0)
(1.05115 0.0714043 0)
(1.05364 0.0688275 0)
(1.05589 0.066159 0)
(1.05793 0.063415 0)
(1.05979 0.0606087 0)
(1.06146 0.0577518 0)
(1.06296 0.0548547 0)
(1.0643 0.0519263 0)
(1.06549 0.0489742 0)
(1.06654 0.0460053 0)
(1.06746 0.0430251 0)
(1.06827 0.0400382 0)
(1.06896 0.0370484 0)
(1.06957 0.0340586 0)
(1.07008 0.0310713 0)
(1.07053 0.0280879 0)
(1.0709 0.0251096 0)
(1.07121 0.022137 0)
(1.07147 0.0191704 0)
(1.07169 0.0162096 0)
(1.07186 0.0132542 0)
(1.07199 0.0103036 0)
(1.07208 0.00735679 0)
(1.07215 0.0044129 0)
(1.07218 0.00147077 0)
(1.02871 0.0771747 0)
(1.03474 0.075452 0)
(1.03921 0.0737658 0)
(1.04278 0.0718731 0)
(1.04579 0.069793 0)
(1.04842 0.0675754 0)
(1.05079 0.0652404 0)
(1.05294 0.0628057 0)
(1.0549 0.0602869 0)
(1.05668 0.057697 0)
(1.0583 0.0550476 0)
(1.05975 0.0523489 0)
(1.06106 0.0496101 0)
(1.06222 0.0468391 0)
(1.06325 0.044043 0)
(1.06415 0.0412276 0)
(1.06495 0.038398 0)
(1.06564 0.0355585 0)
(1.06624 0.0327124 0)
(1.06676 0.0298626 0)
(1.0672 0.0270112 0)
(1.06758 0.0241598 0)
(1.0679 0.0213096 0)
(1.06816 0.0184614 0)
(1.06838 0.0156155 0)
(1.06855 0.0127721 0)
(1.06869 0.00993107 0)
(1.06878 0.00709205 0)
(1.06885 0.00425459 0)
(1.06888 0.00141809 0)
(1.02744 0.0723732 0)
(1.0331 0.07088 0)
(1.0373 0.0694143 0)
(1.04065 0.067747 0)
(1.04348 0.0658943 0)
(1.04596 0.0639008 0)
(1.0482 0.0617854 0)
(1.05024 0.0595648 0)
(1.05211 0.0572536 0)
(1.05381 0.0548646 0)
(1.05536 0.0524089 0)
(1.05676 0.0498968 0)
(1.05802 0.0473373 0)
(1.05914 0.0447385 0)
(1.06014 0.0421075 0)
(1.06102 0.0394505 0)
(1.0618 0.0367729 0)
(1.06248 0.0340791 0)
(1.06307 0.0313731 0)
(1.06358 0.028658 0)
(1.06402 0.0259363 0)
(1.0644 0.0232103 0)
(1.06471 0.0204813 0)
(1.06498 0.0177508 0)
(1.0652 0.0150195 0)
(1.06537 0.0122881 0)
(1.06551 0.00955682 0)
(1.06561 0.00682593 0)
(1.06567 0.0040954 0)
(1.06571 0.00136511 0)
(1.02639 0.0678641 0)
(1.03169 0.0665719 0)
(1.03563 0.0652975 0)
(1.03876 0.0638291 0)
(1.04141 0.0621788 0)
(1.04374 0.0603865 0)
(1.04585 0.0584699 0)
(1.04777 0.0564445 0)
(1.04954 0.0543242 0)
(1.05116 0.0521209 0)
(1.05263 0.0498455 0)
(1.05397 0.0475081 0)
(1.05518 0.0451174 0)
(1.05626 0.0426816 0)
(1.05722 0.0402079 0)
(1.05807 0.0377025 0)
(1.05882 0.035171 0)
(1.05948 0.0326181 0)
(1.06005 0.030048 0)
(1.06055 0.0274642 0)
(1.06099 0.0248696 0)
(1.06135 0.0222665 0)
(1.06167 0.0196571 0)
(1.06193 0.0170429 0)
(1.06215 0.0144252 0)
(1.06232 0.0118051 0)
(1.06246 0.00918316 0)
(1.06255 0.0065601 0)
(1.06262 0.00393633 0)