/*--------------------------------*- C++ -*----------------------------------*\
  =========                 |
  \\      /  F ield         | OpenFOAM: The Open Source CFD Toolbox
   \\    /   O peration     | Website:  https://openfoam.org
    \\  /    A nd           | Version:  7
     \\/     M anipulation  |
\*---------------------------------------------------------------------------*/
FoamFile
{
    version     2.0;
    format      ascii;
    class       volScalarField;
    location    "30";
    object      p;
}
// * * * * * * * * * * * * * * * * * * * * * * * * * * * * * * * * * * * * * //

dimensions      [0 2 -2 0 0 0 0];

internalField   nonuniform List<scalar> 
3313
(
-0.229682
-0.229965
-0.230245
-0.230526
-0.23082
-0.231186
-0.229834
-0.230101
-0.230363
-0.230626
-0.2309
-0.231261
-0.23013
-0.230361
-0.230587
-0.230811
-0.231044
-0.231393
-0.230552
-0.230725
-0.230892
-0.231055
-0.23122
-0.231549
-0.231075
-0.231166
-0.231246
-0.231319
-0.231383
-0.231676
-0.231674
-0.231653
-0.231614
-0.231562
-0.231482
-0.231698
-0.232161
-0.231962
-0.231742
-0.23146
-0.231468
-0.232675
-0.23227
-0.231829
-0.231277
-0.230779
-0.232547
-0.231807
-0.23087
-0.230265
-0.232813
-0.231707
-0.230251
-0.229231
-0.231603
-0.229516
-0.22766
-0.228813
-0.225723
-0.228169
-0.223484
-0.221204
-0.232042
-0.232577
-0.233695
-0.234688
-0.235848
-0.237011
-0.238175
-0.239262
-0.240217
-0.24097
-0.24145
-0.241585
-0.241296
-0.240497
-0.239097
-0.237004
-0.234123
-0.230361
-0.225646
-0.219991
-0.213344
-0.205706
-0.197117
-0.187651
-0.177414
-0.166537
-0.155175
-0.143495
-0.131667
-0.119856
-0.108213
-0.0968768
-0.085962
-0.075564
-0.0657544
-0.0565861
-0.0480906
-0.0402912
-0.0331923
-0.026784
-0.021068
-0.0160014
-0.0116188
-0.00779303
-0.00472313
-0.00196228
-0.000371048
0.00175998
0.00101161
0.00389199
-0.232196
-0.232649
-0.233778
-0.234765
-0.235928
-0.237096
-0.238265
-0.239359
-0.240321
-0.241082
-0.241572
-0.241717
-0.241441
-0.240656
-0.239272
-0.237195
-0.234331
-0.230583
-0.225895
-0.220252
-0.213617
-0.205989
-0.197406
-0.187944
-0.177705
-0.166825
-0.155456
-0.143766
-0.131927
-0.120103
-0.108446
-0.0970972
-0.0861691
-0.0757582
-0.0659364
-0.0567571
-0.0482501
-0.040441
-0.0333333
-0.0269165
-0.0211933
-0.0161192
-0.011731
-0.00789807
-0.00482418
-0.00205561
-0.000459653
0.00167767
0.000954479
0.00380979
-0.232496
-0.23278
-0.233936
-0.234912
-0.236079
-0.237255
-0.238434
-0.239541
-0.240516
-0.241293
-0.241801
-0.241967
-0.241714
-0.240956
-0.239603
-0.237558
-0.234726
-0.231006
-0.226361
-0.220747
-0.214138
-0.20653
-0.19796
-0.188504
-0.178266
-0.16738
-0.155998
-0.144292
-0.132432
-0.120585
-0.108904
-0.0975293
-0.0865763
-0.0761411
-0.0662961
-0.0570962
-0.0485656
-0.0407388
-0.0336137
-0.0271802
-0.0214426
-0.0163537
-0.0119542
-0.00810686
-0.00502459
-0.00224041
-0.000634285
0.00151612
0.000843283
0.0036509
-0.232927
-0.232951
-0.234149
-0.23511
-0.236283
-0.237471
-0.238663
-0.239786
-0.24078
-0.241578
-0.24211
-0.242305
-0.242085
-0.241366
-0.240055
-0.238056
-0.235269
-0.231591
-0.227004
-0.221434
-0.214862
-0.207284
-0.198735
-0.189292
-0.179057
-0.168164
-0.156768
-0.14504
-0.133154
-0.121277
-0.109563
-0.0981556
-0.0871684
-0.0767
-0.0668225
-0.0575904
-0.0490344
-0.0411787
-0.0340284
-0.027571
-0.0218123
-0.0167016
-0.0122851
-0.00841619
-0.00532056
-0.00251278
-0.000889847
0.00128097
0.00068371
0.00342552
-0.233467
-0.233132
-0.234395
-0.235338
-0.236517
-0.237716
-0.238924
-0.240065
-0.241081
-0.241904
-0.242466
-0.242695
-0.242515
-0.241843
-0.240585
-0.238642
-0.23591
-0.23228
-0.227767
-0.222255
-0.215732
-0.208195
-0.199675
-0.190252
-0.180025
-0.169129
-0.157721
-0.145972
-0.134058
-0.122148
-0.110397
-0.0989525
-0.0879243
-0.0774169
-0.067502
-0.0582325
-0.0496425
-0.0417525
-0.0345707
-0.0280828
-0.0222969
-0.0171579
-0.0127187
-0.00882129
-0.0057066
-0.00286718
-0.00121916
0.000979636
0.000483371
0.00314731
-0.234103
-0.23329
-0.234646
-0.235572
-0.236753
-0.237963
-0.239185
-0.240345
-0.241383
-0.242234
-0.242828
-0.243095
-0.24296
-0.24234
-0.241141
-0.239262
-0.236592
-0.233037
-0.228595
-0.22315
-0.216685
-0.209199
-0.200718
-0.191323
-0.181112
-0.170222
-0.158806
-0.14704
-0.135103
-0.123164
-0.11137
-0.0998895
-0.088823
-0.0782744
-0.068318
-0.0590078
-0.0503788
-0.04245
-0.0352318
-0.0287081
-0.0228896
-0.0177163
-0.0132486
-0.00931602
-0.00617575
-0.00329676
-0.0016135
0.000620495
0.000250753
0.0028316
-0.234857
-0.233378
-0.234874
-0.235785
-0.236963
-0.238182
-0.239415
-0.240592
-0.241651
-0.242529
-0.243156
-0.243463
-0.243375
-0.242811
-0.241676
-0.239865
-0.237262
-0.233848
-0.229431
-0.224055
-0.217658
-0.210233
-0.2018
-0.192446
-0.182262
-0.171389
-0.15997
-0.148194
-0.136242
-0.124278
-0.112461
-0.100943
-0.089839
-0.0792504
-0.0692526
-0.0599005
-0.0512304
-0.0432601
-0.0360018
-0.0294379
-0.023582
-0.0183691
-0.0138672
-0.00989297
-0.00671981
-0.00379373
-0.00206318
0.000212309
-5.8538e-06
0.00249366
-0.235745
-0.233376
-0.235056
-0.235957
-0.237123
-0.238344
-0.239583
-0.240773
-0.241851
-0.242754
-0.243413
-0.24376
-0.24372
-0.243213
-0.242143
-0.240398
-0.237811
-0.234514
-0.230208
-0.224916
-0.218596
-0.211248
-0.202853
-0.193559
-0.183416
-0.172568
-0.161171
-0.149403
-0.137445
-0.125467
-0.11363
-0.102085
-0.0909485
-0.0803242
-0.0702879
-0.0608952
-0.0521834
-0.0441703
-0.0368695
-0.0302622
-0.0243649
-0.0191076
-0.0145658
-0.0105438
-0.00732974
-0.00434973
-0.00255825
-0.000236194
-0.000279172
0.00214709
-0.236304
-0.233481
-0.23514
-0.236071
-0.23721
-0.238421
-0.239661
-0.240858
-0.241951
-0.242876
-0.243566
-0.243951
-0.243959
-0.243506
-0.2425
-0.240826
-0.23846
-0.235112
-0.230885
-0.225678
-0.21944
-0.212164
-0.203862
-0.194623
-0.184534
-0.173729
-0.162366
-0.15062
-0.138672
-0.126695
-0.11485
-0.103289
-0.0921297
-0.0814764
-0.0714063
-0.061976
-0.053224
-0.045168
-0.0378233
-0.0311701
-0.0252279
-0.0199219
-0.0153349
-0.0112594
-0.00799593
-0.00495611
-0.00308899
-0.000716578
-0.000563294
0.00180276
-0.236927
-0.23359
-0.235098
-0.236108
-0.237198
-0.238392
-0.239623
-0.24082
-0.241923
-0.242867
-0.243584
-0.244005
-0.244057
-0.24366
-0.242712
-0.24104
-0.23877
-0.235555
-0.231423
-0.226305
-0.220157
-0.212968
-0.204754
-0.195592
-0.185574
-0.174831
-0.163519
-0.151814
-0.139894
-0.127935
-0.116098
-0.104533
-0.0933613
-0.0826874
-0.0725898
-0.0631261
-0.0543364
-0.0462385
-0.0388497
-0.0321489
-0.026159
-0.0208009
-0.0161633
-0.0120297
-0.00870804
-0.00560379
-0.00364605
-0.00122067
-0.00085351
0.00146837
-0.23765
-0.233633
-0.234945
-0.236032
-0.237062
-0.23822
-0.239434
-0.240627
-0.241736
-0.242696
-0.243439
-0.243894
-0.243988
-0.243645
-0.242758
-0.241308
-0.238958
-0.235826
-0.231785
-0.226761
-0.22071
-0.213618
-0.205501
-0.196432
-0.186501
-0.175838
-0.164597
-0.152952
-0.14108
-0.129156
-0.117342
-0.105787
-0.0946157
-0.0839311
-0.0738139
-0.0643227
-0.0554993
-0.0473621
-0.0399302
-0.0331818
-0.0271428
-0.0217302
-0.0170379
-0.0128426
-0.00945458
-0.00628272
-0.00422038
-0.00174028
-0.00114605
0.00114864
-0.238392
-0.233622
-0.234665
-0.235823
-0.236777
-0.237879
-0.239068
-0.240252
-0.241366
-0.24234
-0.243106
-0.243594
-0.243726
-0.243429
-0.242567
-0.24115
-0.23893
-0.235892
-0.231941
-0.227013
-0.221064
-0.214077
-0.206068
-0.197105
-0.187279
-0.176715
-0.165565
-0.154
-0.142196
-0.130327
-0.118554
-0.107026
-0.0958676
-0.0851842
-0.0750572
-0.0655464
-0.0566952
-0.0485228
-0.0410504
-0.0342554
-0.0281669
-0.0226984
-0.0179481
-0.0136881
-0.0102265
-0.00698422
-0.00480551
-0.00226839
-0.00143921
0.000845005
-0.239031
-0.233632
-0.234369
-0.23556
-0.236398
-0.237406
-0.238546
-0.239709
-0.240818
-0.241799
-0.24258
-0.24309
-0.243255
-0.242995
-0.242272
-0.240822
-0.238686
-0.235733
-0.231875
-0.227051
-0.221214
-0.214346
-0.206464
-0.197629
-0.18793
-0.17749
-0.166457
-0.154998
-0.143287
-0.131494
-0.119782
-0.108297
-0.0971654
-0.0864931
-0.0763631
-0.0668367
-0.0579596
-0.0497514
-0.0422366
-0.0353912
-0.0292487
-0.0237186
-0.0189035
-0.0145724
-0.0110279
-0.00770953
-0.00540286
-0.00280418
-0.00173463
0.000552495
-0.239492
-0.233708
-0.234056
-0.235223
-0.235873
-0.236723
-0.237783
-0.238913
-0.240012
-0.240994
-0.241787
-0.242327
-0.242542
-0.242326
-0.241616
-0.24026
-0.238213
-0.235358
-0.231615
-0.226918
-0.221221
-0.214506
-0.206785
-0.198114
-0.18858
-0.178299
-0.167416
-0.156091
-0.144495
-0.132797
-0.121157
-0.109722
-0.0986191
-0.0879558
-0.0778176
-0.0682677
-0.0593549
-0.0511
-0.043531
-0.0366233
-0.030414
-0.0248111
-0.0199175
-0.0155066
-0.0118632
-0.00846465
-0.00601035
-0.00335269
-0.00202569
0.000259586
-0.238017
-0.231659
-0.232268
-0.233665
-0.234278
-0.235056
-0.23612
-0.237322
-0.238515
-0.239587
-0.240461
-0.241079
-0.241396
-0.241329
-0.240617
-0.239343
-0.237386
-0.234632
-0.231001
-0.226427
-0.220864
-0.214292
-0.206722
-0.198207
-0.188829
-0.178703
-0.167966
-0.156777
-0.145302
-0.133708
-0.122154
-0.110787
-0.099735
-0.0891055
-0.0789858
-0.0694408
-0.0605207
-0.0522484
-0.0446517
-0.0377102
-0.0314552
-0.0258064
-0.0208461
-0.0163821
-0.0126371
-0.00918821
-0.00656619
-0.00388507
-0.00227139
-2.49293e-05
-0.206061
-0.206556
-0.213911
-0.219115
-0.221781
-0.223513
-0.225372
-0.227538
-0.229778
-0.231825
-0.233519
-0.234786
-0.235583
-0.235872
-0.235607
-0.234655
-0.232939
-0.23039
-0.226944
-0.222547
-0.217163
-0.210786
-0.203442
-0.195189
-0.186116
-0.176338
-0.165989
-0.155219
-0.144185
-0.133042
-0.121939
-0.111011
-0.100377
-0.0901365
-0.0803711
-0.0711409
-0.06249
-0.0544438
-0.0470182
-0.0402097
-0.0340168
-0.0284103
-0.0233845
-0.0188809
-0.0149044
-0.0113523
-0.00826125
-0.00545799
-0.00304525
-0.00077102
-0.177124
-0.188637
-0.194803
-0.198304
-0.200934
-0.203519
-0.206239
-0.208928
-0.211329
-0.213252
-0.214617
-0.215416
-0.215651
-0.2153
-0.214318
-0.21269
-0.21034
-0.207321
-0.203641
-0.199269
-0.194174
-0.18835
-0.181821
-0.174637
-0.166863
-0.158583
-0.149891
-0.140891
-0.13169
-0.122396
-0.113112
-0.103935
-0.0949506
-0.0862369
-0.0778551
-0.0698558
-0.0622744
-0.0551378
-0.0484585
-0.0422439
-0.0364875
-0.0311815
-0.0263036
-0.0218339
-0.0177349
-0.0139782
-0.0105085
-0.00729494
-0.00426511
-0.00141055
-0.152555
-0.161352
-0.166225
-0.169062
-0.17142
-0.173947
-0.176654
-0.17928
-0.181557
-0.183323
-0.184544
-0.185251
-0.185495
-0.185321
-0.18476
-0.183827
-0.182489
-0.180511
-0.177774
-0.174293
-0.170137
-0.165374
-0.160053
-0.154217
-0.147914
-0.141203
-0.134154
-0.126841
-0.119342
-0.111737
-0.1041
-0.096504
-0.0890104
-0.0816764
-0.0745485
-0.067669
-0.0610668
-0.0547692
-0.0487868
-0.043134
-0.0378034
-0.0327998
-0.0280978
-0.0236977
-0.019554
-0.0156697
-0.0119745
-0.00848365
-0.0050871
-0.00181296
-0.123298
-0.132769
-0.138279
-0.141738
-0.144644
-0.147621
-0.150688
-0.153621
-0.156204
-0.158325
-0.159957
-0.161115
-0.161825
-0.162092
-0.161874
-0.1611
-0.159711
-0.157741
-0.155261
-0.152298
-0.148856
-0.144945
-0.140589
-0.135821
-0.130679
-0.125207
-0.119454
-0.113474
-0.107323
-0.101058
-0.0947331
-0.088401
-0.0821082
-0.0758991
-0.0698098
-0.0638753
-0.0581195
-0.0525669
-0.0472272
-0.0421156
-0.0372268
-0.0325702
-0.0281246
-0.0238977
-0.0198496
-0.0159936
-0.0122642
-0.00869054
-0.00517301
-0.00178424
-0.100695
-0.109401
-0.115176
-0.119216
-0.122598
-0.125846
-0.129032
-0.132015
-0.134631
-0.13678
-0.138431
-0.13959
-0.140265
-0.140458
-0.14018
-0.139462
-0.13835
-0.136868
-0.13497
-0.132639
-0.129883
-0.126729
-0.123205
-0.119339
-0.115163
-0.110712
-0.106022
-0.101133
-0.096084
-0.0909168
-0.0856714
-0.0803873
-0.0750998
-0.0698433
-0.0646459
-0.0595359
-0.054532
-0.0496558
-0.0449152
-0.0403256
-0.035883
-0.0315998
-0.027458
-0.0234713
-0.0196049
-0.0158809
-0.012241
-0.00872799
-0.00524541
-0.00186344
-0.0835245
-0.0911036
-0.0966153
-0.100763
-0.104258
-0.107493
-0.110559
-0.113383
-0.115853
-0.117895
-0.119482
-0.120622
-0.121337
-0.121658
-0.121613
-0.121214
-0.120456
-0.119319
-0.117814
-0.115949
-0.113735
-0.111189
-0.10833
-0.105185
-0.101776
-0.0981313
-0.0942777
-0.090245
-0.0860628
-0.0817625
-0.0773738
-0.072927
-0.0684487
-0.063966
-0.0595004
-0.0550746
-0.0507033
-0.0464052
-0.0421871
-0.0380643
-0.0340339
-0.0301099
-0.0262779
-0.0225548
-0.0189108
-0.0153721
-0.0118865
-0.0084987
-0.00511669
-0.00181294
-0.0698615
-0.0764464
-0.0814348
-0.0853478
-0.0887002
-0.0917797
-0.0946592
-0.0972928
-0.0996053
-0.101544
-0.103093
-0.104261
-0.10507
-0.105538
-0.105675
-0.105482
-0.104956
-0.104102
-0.102931
-0.101454
-0.0996824
-0.0976304
-0.0953133
-0.0927486
-0.0899558
-0.0869559
-0.0837706
-0.0804226
-0.0769347
-0.0733304
-0.0696323
-0.065864
-0.0620463
-0.0582008
-0.0543446
-0.0504965
-0.0466683
-0.0428763
-0.0391262
-0.0354325
-0.0317931
-0.0282224
-0.0247084
-0.0212693
-0.0178792
-0.0145657
-0.0112819
-0.00807402
-0.00485938
-0.00171566
-0.0589835
-0.0646128
-0.0690156
-0.0725742
-0.0756747
-0.0785329
-0.0812012
-0.0836432
-0.0858018
-0.0876379
-0.0891387
-0.0903097
-0.091163
-0.0917097
-0.0919566
-0.0919083
-0.0915696
-0.090947
-0.0900519
-0.0888941
-0.0874836
-0.0858316
-0.08395
-0.0818527
-0.0795552
-0.0770743
-0.074427
-0.0716315
-0.0687053
-0.0656671
-0.0625344
-0.0593256
-0.056057
-0.0527459
-0.0494059
-0.0460527
-0.0426958
-0.0393494
-0.0360183
-0.0327158
-0.0294401
-0.0262057
-0.0230023
-0.0198484
-0.0167215
-0.0136501
-0.0105922
-0.00759498
-0.00458253
-0.00162831
-0.0501299
-0.0549509
-0.0587998
-0.0619783
-0.0647885
-0.0673958
-0.0698358
-0.0720752
-0.0740661
-0.0757765
-0.0771953
-0.0783262
-0.0791783
-0.079761
-0.0800813
-0.0801448
-0.079957
-0.0795246
-0.0788589
-0.0779635
-0.0768464
-0.0755172
-0.0739869
-0.0722675
-0.0703714
-0.0683118
-0.0661023
-0.0637572
-0.0612906
-0.0587173
-0.0560511
-0.0533067
-0.0504968
-0.0476354
-0.0447336
-0.0418045
-0.038856
-0.0359004
-0.0329417
-0.0299921
-0.0270503
-0.02413
-0.0212225
-0.0183464
-0.0154816
-0.0126565
-0.00983354
-0.0070581
-0.00426056
-0.00151176
-0.0428508
-0.0469845
-0.0503357
-0.0531475
-0.0556622
-0.0580094
-0.0602134
-0.062243
-0.0640572
-0.065629
-0.0669493
-0.0680214
-0.0688532
-0.0694525
-0.0698254
-0.0699763
-0.0699092
-0.0696275
-0.0691333
-0.0684411
-0.0675579
-0.0664894
-0.0652437
-0.0638305
-0.0622604
-0.0605441
-0.0586923
-0.0567167
-0.0546284
-0.0524394
-0.0501607
-0.0478042
-0.04538
-0.0428998
-0.0403723
-0.0378089
-0.0352158
-0.032604
-0.0299768
-0.0273453
-0.0247084
-0.0220794
-0.0194505
-0.0168397
-0.0142295
-0.0116471
-0.0090588
-0.00650818
-0.00393199
-0.00139742
-0.0367955
-0.0403493
-0.0432633
-0.0457376
-0.0479703
-0.0500652
-0.0520394
-0.0538644
-0.0555049
-0.0569379
-0.0581557
-0.0591608
-0.0599593
-0.0605572
-0.0609586
-0.0611664
-0.0611831
-0.061012
-0.0606581
-0.0601286
-0.0594306
-0.058571
-0.0575561
-0.0563926
-0.0550886
-0.0536534
-0.0520958
-0.0504253
-0.0486506
-0.0467816
-0.0448271
-0.0427969
-0.0406993
-0.038544
-0.0363381
-0.0340911
-0.0318084
-0.0294995
-0.0271673
-0.0248219
-0.0224623
-0.020101
-0.0177313
-0.0153703
-0.0130024
-0.0106534
-0.00829327
-0.00596297
-0.00360503
-0.0012822
-0.0317066
-0.0347717
-0.0373063
-0.0394784
-0.0414524
-0.0433133
-0.0450732
-0.0467067
-0.0481829
-0.049482
-0.0505972
-0.05153
-0.052285
-0.0528666
-0.0532776
-0.0535201
-0.0535963
-0.053509
-0.0532622
-0.0528618
-0.0523131
-0.0516214
-0.0507921
-0.0498313
-0.0487453
-0.0475413
-0.0462266
-0.044809
-0.0432957
-0.0416947
-0.0400132
-0.0382592
-0.0364397
-0.0345627
-0.0326341
-0.030662
-0.0286509
-0.0266093
-0.0245395
-0.0224509
-0.0203425
-0.0182259
-0.0160952
-0.0139665
-0.011826
-0.00969787
-0.0075551
-0.00543599
-0.0032884
-0.00117056
-0.027393
-0.0300452
-0.0322529
-0.0341589
-0.0359014
-0.0375507
-0.0391156
-0.0405732
-0.041897
-0.0430695
-0.0440845
-0.0449431
-0.0456487
-0.0462043
-0.0466123
-0.046874
-0.0469911
-0.0469657
-0.0468009
-0.0465013
-0.0460709
-0.0455138
-0.0448351
-0.0440395
-0.0431324
-0.0421193
-0.0410062
-0.0397995
-0.0385051
-0.0371297
-0.0356792
-0.0341602
-0.0325785
-0.0309409
-0.0292523
-0.0275197
-0.0257469
-0.0239413
-0.022105
-0.0202464
-0.0183647
-0.0164706
-0.0145589
-0.0126444
-0.0107151
-0.00879327
-0.00685476
-0.00493501
-0.00298686
-0.001064
-0.0237101
-0.0260125
-0.0279395
-0.0296133
-0.0311509
-0.0326115
-0.0340011
-0.0352996
-0.0364838
-0.0375386
-0.0384585
-0.039244
-0.0398977
-0.0404221
-0.0408185
-0.0410879
-0.0412314
-0.0412504
-0.0411474
-0.0409263
-0.0405895
-0.0401408
-0.0395842
-0.0389238
-0.0381639
-0.037309
-0.0363639
-0.0353339
-0.0342238
-0.0330393
-0.0317852
-0.030467
-0.0290895
-0.0276586
-0.0261784
-0.024655
-0.0230915
-0.0214946
-0.0198659
-0.0182131
-0.0165356
-0.0148429
-0.0131307
-0.0114126
-0.00967786
-0.00794709
-0.00619856
-0.00446494
-0.0027036
-0.000963798
-0.0205466
-0.0225516
-0.0242374
-0.0257093
-0.0270671
-0.0283605
-0.0295939
-0.0307498
-0.0318077
-0.0327547
-0.0335859
-0.0343015
-0.0349035
-0.0353937
-0.035773
-0.0360419
-0.0362011
-0.0362517
-0.0361957
-0.0360339
-0.0357711
-0.0354096
-0.0349523
-0.0344028
-0.0337646
-0.0330413
-0.0322368
-0.0313554
-0.0304013
-0.0293789
-0.0282924
-0.0271465
-0.0259451
-0.0246933
-0.0233946
-0.0220541
-0.0206748
-0.0192624
-0.0178183
-0.0163495
-0.0148553
-0.0133446
-0.0118135
-0.0102745
-0.00871787
-0.00716272
-0.00558949
-0.00402811
-0.0024401
-0.000870476
-0.0178152
-0.0195663
-0.0210448
-0.0223415
-0.0235418
-0.0246879
-0.0257831
-0.0268118
-0.0277563
-0.0286055
-0.0293551
-0.0300051
-0.0305569
-0.0310118
-0.0313704
-0.0316329
-0.0317996
-0.0318713
-0.0318483
-0.0317331
-0.0315291
-0.0312386
-0.0308632
-0.0304053
-0.0298681
-0.0292548
-0.0285684
-0.0278126
-0.0269907
-0.0261066
-0.0251638
-0.0241662
-0.0231171
-0.0220209
-0.0208805
-0.0197006
-0.0184835
-0.0172343
-0.0159543
-0.0146497
-0.0133201
-0.0119733
-0.010606
-0.00922947
-0.00783526
-0.00644067
-0.0050282
-0.00362514
-0.00219682
-0.000784224
-0.0154471
-0.0169807
-0.0182804
-0.0194249
-0.0204876
-0.0215043
-0.0224774
-0.0233933
-0.0242366
-0.0249977
-0.0256728
-0.0262618
-0.0267659
-0.0271858
-0.0275218
-0.0277741
-0.0279425
-0.0280276
-0.0280302
-0.0279516
-0.0277941
-0.0275602
-0.0272513
-0.0268691
-0.0264161
-0.0258949
-0.0253081
-0.0246588
-0.0239497
-0.023184
-0.0223646
-0.0214951
-0.0205781
-0.0196174
-0.0186155
-0.0175765
-0.0165024
-0.0153977
-0.0142636
-0.0131056
-0.0119233
-0.0107239
-0.0095043
-0.00827491
-0.00702811
-0.00577966
-0.00451388
-0.00325559
-0.00197355
-0.000705005
-0.0133866
-0.014733
-0.0158783
-0.0168906
-0.0178331
-0.0187361
-0.0196016
-0.0204176
-0.0211709
-0.0218529
-0.0224606
-0.0229936
-0.0234529
-0.023839
-0.0241519
-0.0243917
-0.0245581
-0.0246515
-0.0246725
-0.0246222
-0.024502
-0.0243139
-0.0240593
-0.0237399
-0.0233571
-0.0229134
-0.022411
-0.0218522
-0.0212395
-0.0205755
-0.0198627
-0.019104
-0.0183019
-0.0174594
-0.0165789
-0.0156638
-0.0147159
-0.0137392
-0.0127347
-0.0117074
-0.0106569
-0.0095897
-0.00850312
-0.00740652
-0.00629311
-0.00517722
-0.00404476
-0.00291827
-0.00176964
-0.000632596
-0.0115887
-0.0127735
-0.013785
-0.0146822
-0.0155194
-0.0163226
-0.0170933
-0.017821
-0.0184942
-0.0191056
-0.0196525
-0.0201345
-0.0205523
-0.0209063
-0.0211965
-0.0214226
-0.0215844
-0.0216822
-0.0217163
-0.0216875
-0.0215971
-0.0214464
-0.0212367
-0.0209693
-0.0206456
-0.0202674
-0.0198366
-0.0193551
-0.0188251
-0.0182487
-0.017628
-0.0169656
-0.0162635
-0.0155245
-0.0147504
-0.0139444
-0.013108
-0.0122447
-0.0113554
-0.0104446
-0.00951192
-0.00856324
-0.00759616
-0.00661915
-0.00562615
-0.00463012
-0.00361846
-0.00261155
-0.00158411
-0.000566672
-0.0100171
-0.0110616
-0.0119566
-0.0127533
-0.0134982
-0.0142137
-0.0149009
-0.0155504
-0.0161526
-0.016701
-0.0171932
-0.0176289
-0.0180087
-0.0183326
-0.0186008
-0.0188128
-0.0189684
-0.0190677
-0.0191109
-0.0190987
-0.019032
-0.0189118
-0.0187392
-0.0185154
-0.0182415
-0.0179188
-0.0175491
-0.0171339
-0.0166749
-0.0161742
-0.0156335
-0.0150549
-0.0144401
-0.0137917
-0.0131112
-0.0124013
-0.0116633
-0.0109006
-0.0101137
-0.00930664
-0.00847918
-0.00763659
-0.00677671
-0.0059072
-0.00502265
-0.00413477
-0.00323226
-0.00233353
-0.00141587
-0.000506856
-0.00863959
-0.00956224
-0.0103558
-0.0110645
-0.0117285
-0.0123669
-0.0129803
-0.0135609
-0.0141001
-0.0145923
-0.0150356
-0.0154295
-0.0157745
-0.0160707
-0.0163179
-0.0165159
-0.0166643
-0.0167631
-0.0168125
-0.016813
-0.0167653
-0.0166701
-0.0165284
-0.0163412
-0.0161093
-0.0158339
-0.0155164
-0.0151582
-0.0147606
-0.0143255
-0.0138542
-0.0133486
-0.0128103
-0.0122414
-0.0116431
-0.011018
-0.0103672
-0.00969351
-0.0089976
-0.00828301
-0.00754947
-0.00680175
-0.00603794
-0.00526493
-0.00447789
-0.00368738
-0.00288326
-0.00208218
-0.00126371
-0.000452722
-0.00742999
-0.0082466
-0.00895164
-0.0095833
-0.0101762
-0.0107466
-0.0112951
-0.0118147
-0.012298
-0.0127403
-0.0131397
-0.0134961
-0.0138095
-0.0140802
-0.0143078
-0.0144921
-0.0146328
-0.0147298
-0.0147832
-0.0147933
-0.0147609
-0.0146864
-0.0145705
-0.014414
-0.0142178
-0.0139829
-0.0137102
-0.0134011
-0.0130567
-0.0126785
-0.0122677
-0.011826
-0.0113546
-0.0108555
-0.0103297
-0.00977944
-0.00920572
-0.00861103
-0.00799595
-0.00736366
-0.00671391
-0.00605097
-0.00537315
-0.00468665
-0.00398713
-0.00328414
-0.00256858
-0.00185544
-0.00112639
-0.000403848
-0.00636644
-0.00709045
-0.00771801
-0.00828208
-0.00881241
-0.00932296
-0.00981408
-0.0102798
-0.0107136
-0.0111115
-0.0114718
-0.0117943
-0.0120793
-0.0123266
-0.012536
-0.0127074
-0.0128403
-0.0129346
-0.0129903
-0.0130078
-0.0129877
-0.0129302
-0.0128358
-0.0127054
-0.0125396
-0.0123393
-0.0121052
-0.0118386
-0.0115403
-0.0112116
-0.0108537
-0.0104678
-0.0100552
-0.00961746
-0.00915558
-0.00867146
-0.00816597
-0.00764136
-0.00709811
-0.00653908
-0.00596402
-0.0053768
-0.00477587
-0.00416683
-0.00354579
-0.00292135
-0.00228535
-0.0016513
-0.00100272
-0.000359808
-0.00543
-0.00607309
-0.00663274
-0.0071374
-0.00761263
-0.00807036
-0.00851083
-0.0089288
-0.00931875
-0.00967715
-0.0100026
-0.0102948
-0.010554
-0.01078
-0.0109728
-0.0111319
-0.0112572
-0.0113484
-0.0114057
-0.0114295
-0.0114186
-0.0113748
-0.0112985
-0.0111901
-0.0110503
-0.0108797
-0.010679
-0.0104492
-0.010191
-0.00990557
-0.00959381
-0.00925696
-0.00889598
-0.00851227
-0.00810677
-0.0076811
-0.00723604
-0.00677359
-0.00629417
-0.00580033
-0.00529185
-0.00477219
-0.00423997
-0.00370023
-0.00314948
-0.00259545
-0.00203084
-0.00146778
-0.000891515
-0.000320189
-0.00460491
-0.00517705
-0.00567707
-0.00612943
-0.00655605
-0.00696713
-0.0073628
-0.00773854
-0.00808958
-0.00841287
-0.00870717
-0.00897226
-0.00920822
-0.00941501
-0.0095924
-0.0097401
-0.00985784
-0.00994549
-0.010003
-0.0100302
-0.0100276
-0.00999586
-0.00993513
-0.0098458
-0.00972839
-0.0095835
-0.00941173
-0.00921386
-0.00899064
-0.00874298
-0.0084717
-0.00817786
-0.00786229
-0.00752623
-0.00717049
-0.00679653
-0.00640501
-0.00599771
-0.005575
-0.00513916
-0.00468999
-0.00423059
-0.00375973
-0.00328193
-0.00279406
-0.00230309
-0.00180244
-0.00130306
-0.000791667
-0.000284603
-0.00387739
-0.00438726
-0.00483482
-0.00524106
-0.00562475
-0.00599457
-0.0063506
-0.00668893
-0.00700545
-0.00729751
-0.00756405
-0.00780485
-0.00801995
-0.00820929
-0.00837265
-0.00850976
-0.00862034
-0.00870425
-0.00876143
-0.00879184
-0.00879584
-0.00877388
-0.00872623
-0.00865313
-0.00855499
-0.00843232
-0.00828566
-0.00811565
-0.00792296
-0.00770837
-0.00747259
-0.00721655
-0.00694097
-0.00664695
-0.00633518
-0.00600697
-0.00566289
-0.00530452
-0.0049322
-0.00454796
-0.0041516
-0.00374593
-0.00332982
-0.00290734
-0.00247569
-0.00204111
-0.00159773
-0.00115537
-0.000702129
-0.000252678
-0.00323568
-0.0036908
-0.00409213
-0.00445763
-0.00480334
-0.00513664
-0.00545756
-0.00576273
-0.0060486
-0.0063129
-0.00655468
-0.00677375
-0.00697012
-0.00714372
-0.00729433
-0.00742169
-0.00752557
-0.0076058
-0.00766235
-0.00769521
-0.00770459
-0.00769084
-0.00765424
-0.00759502
-0.00751348
-0.00741006
-0.00728522
-0.00713952
-0.00697352
-0.00678792
-0.00658331
-0.00636053
-0.00612019
-0.00586327
-0.00559038
-0.00530266
-0.00500063
-0.00468569
-0.00435813
-0.00401976
-0.00367043
-0.00331263
-0.00294534
-0.00257224
-0.00219079
-0.00180663
-0.00141446
-0.00102313
-0.000621932
-0.000224073
-0.00266952
-0.00307644
-0.00343697
-0.00376645
-0.00407852
-0.00437946
-0.00466926
-0.00494501
-0.00520367
-0.00544327
-0.00566299
-0.00586264
-0.00604222
-0.00620163
-0.00634068
-0.00645914
-0.00655677
-0.00663344
-0.0066891
-0.00672376
-0.00673753
-0.00673072
-0.00670356
-0.00665626
-0.00658907
-0.00650236
-0.00639652
-0.00627206
-0.00612944
-0.00596926
-0.00579207
-0.00559857
-0.00538932
-0.00516516
-0.00492664
-0.00467477
-0.00441001
-0.00413361
-0.00384581
-0.00354824
-0.00324075
-0.00292557
-0.00260181
-0.00227274
-0.00193611
-0.00159696
-0.00125055
-0.000904822
-0.000550177
-0.00019847
-0.00217001
-0.00253444
-0.00285893
-0.0031565
-0.00343875
-0.00371099
-0.00397318
-0.00422283
-0.00445731
-0.00467494
-0.004875
-0.0050573
-0.00522183
-0.00536849
-0.00549709
-0.00560743
-0.00569929
-0.00577255
-0.00582715
-0.0058631
-0.00588049
-0.00587952
-0.00586043
-0.00582342
-0.00576867
-0.0056965
-0.00560726
-0.00550137
-0.00537924
-0.0052414
-0.00508833
-0.00492063
-0.00473881
-0.0045436
-0.00433549
-0.00411537
-0.00388364
-0.00364142
-0.00338893
-0.00312762
-0.00285735
-0.00258012
-0.00229512
-0.00200531
-0.00170864
-0.00140965
-0.00110409
-0.000799098
-0.00048604
-0.000175577
-0.00172935
-0.00205631
-0.00234891
-0.0026182
-0.00287399
-0.00312076
-0.00335845
-0.00358492
-0.00379792
-0.003996
-0.00417853
-0.00434535
-0.0044964
-0.0046316
-0.00475078
-0.00485374
-0.00494029
-0.00501031
-0.00506375
-0.00510062
-0.00512096
-0.00512497
-0.00511281
-0.00508467
-0.00504072
-0.00498123
-0.00490649
-0.00481687
-0.00471273
-0.00459453
-0.00446269
-0.00431774
-0.00416013
-0.0039905
-0.00380929
-0.00361728
-0.00341483
-0.00320295
-0.0029818
-0.0027527
-0.00251552
-0.00227206
-0.00202157
-0.00176671
-0.00150566
-0.00124249
-0.00097336
-0.000704707
-0.000428769
-0.000155129
-0.00134072
-0.0016346
-0.00189899
-0.00214319
-0.00237548
-0.00259963
-0.00281556
-0.00302144
-0.00321535
-0.00339605
-0.00356296
-0.00371595
-0.00385494
-0.00397986
-0.00409055
-0.00418682
-0.0042685
-0.00433549
-0.00438772
-0.00442521
-0.00444799
-0.00445622
-0.00445002
-0.00442957
-0.00439502
-0.00434659
-0.00428453
-0.00420917
-0.00412083
-0.00401991
-0.00390677
-0.00378189
-0.00364565
-0.00349864
-0.00334122
-0.0031741
-0.0029976
-0.00281261
-0.00261928
-0.0024188
-0.00221102
-0.00199757
-0.00177779
-0.00155405
-0.0013247
-0.00109343
-0.000856775
-0.000620517
-0.00037768
-0.000136882
-0.000998162
-0.00126282
-0.00150221
-0.00172414
-0.00193556
-0.00213962
-0.00233623
-0.00252383
-0.00270077
-0.00286599
-0.00301899
-0.00315963
-0.00328785
-0.00340356
-0.0035066
-0.00359682
-0.00367406
-0.00373821
-0.00378924
-0.00382713
-0.00385191
-0.00386374
-0.00386268
-0.0038489
-0.00382252
-0.00378374
-0.00373279
-0.00366994
-0.00359549
-0.00350977
-0.0034131
-0.00330592
-0.00318856
-0.00306153
-0.00292515
-0.00278008
-0.00262656
-0.00246541
-0.00229677
-0.00212167
-0.00194001
-0.00175323
-0.00156074
-0.00136467
-0.00116354
-0.000960658
-0.000752912
-0.000545503
-0.000332153
-0.000120616
-0.000696354
-0.000935217
-0.00115247
-0.00135463
-0.0015475
-0.00173371
-0.00191316
-0.00208452
-0.00224639
-0.00239784
-0.00253846
-0.0026681
-0.00278669
-0.00289414
-0.00299032
-0.00307508
-0.00314827
-0.00320982
-0.00325965
-0.00329778
-0.00332424
-0.00333914
-0.0033425
-0.00333448
-0.00331522
-0.00328488
-0.00324365
-0.00319179
-0.00312953
-0.0030572
-0.00297505
-0.00288348
-0.00278278
-0.0026734
-0.00255564
-0.00243006
-0.0022969
-0.00215687
-0.0020101
-0.00185753
-0.00169904
-0.00153594
-0.00136769
-0.00119621
-0.00102016
-0.000842518
-0.000660483
-0.000478738
-0.000291627
-0.000106133
-0.000430677
-0.000646761
-0.000844401
-0.00102901
-0.00120541
-0.00137577
-0.00153999
-0.00169693
-0.00184541
-0.00198463
-0.00211423
-0.00223406
-0.00234406
-0.00244413
-0.00253415
-0.00261399
-0.00268353
-0.00274267
-0.00279137
-0.00282963
-0.00285751
-0.00287499
-0.00288213
-0.0028791
-0.00286603
-0.00284307
-0.00281037
-0.00276815
-0.00271662
-0.00265605
-0.0025867
-0.0025089
-0.0024229
-0.00232911
-0.0022278
-0.00211946
-0.00200431
-0.00188298
-0.00175559
-0.00162297
-0.00148503
-0.00134293
-0.00119618
-0.00104653
-0.000892747
-0.000737524
-0.000578331
-0.000419389
-0.000255599
-9.32532e-05
-0.000197023
-0.000393008
-0.000573296
-0.000742345
-0.000904127
-0.00106042
-0.00121113
-0.00135528
-0.00149187
-0.00162023
-0.00174003
-0.00185113
-0.00195346
-0.00204694
-0.00213145
-0.00220687
-0.0022731
-0.00233006
-0.00237772
-0.00241607
-0.00244511
-0.00246462
-0.00247502
-0.00247636
-0.00246871
-0.0024522
-0.00242697
-0.00239321
-0.0023511
-0.0023009
-0.00224281
-0.00217713
-0.0021041
-0.00202408
-0.00193729
-0.00184418
-0.00174495
-0.00164016
-0.00152992
-0.00141496
-0.00129521
-0.00117172
-0.00104403
-0.000913722
-0.000779686
-0.000644346
-0.000505416
-0.000366708
-0.000223615
-8.18161e-05
8.30727e-06
-0.000170005
-0.000334967
-0.000490232
-0.000639056
-0.000782888
-0.000921624
-0.00105445
-0.00118051
-0.00129923
-0.00141032
-0.00151366
-0.00160916
-0.00169676
-0.00177634
-0.00184779
-0.00191102
-0.00196595
-0.00201254
-0.00205076
-0.00208057
-0.00210207
-0.00211538
-0.00212056
-0.00211767
-0.00210683
-0.00208815
-0.00206182
-0.00202799
-0.0019869
-0.00193872
-0.00188372
-0.00182211
-0.00175422
-0.00168024
-0.00160058
-0.0015154
-0.00142523
-0.00133013
-0.00123079
-0.00112713
-0.00102009
-0.000909271
-0.000796081
-0.000679525
-0.000561791
-0.000440809
-0.000320023
-0.000195268
-7.16768e-05
0.000188331
2.55852e-05
-0.000125845
-0.000268916
-0.000406269
-0.000539068
-0.000667212
-0.00079001
-0.000906745
-0.00101693
-0.0011203
-0.00121675
-0.00130619
-0.00138855
-0.00146373
-0.00153162
-0.00159214
-0.00164522
-0.00169082
-0.00172892
-0.0017595
-0.00178263
-0.00179841
-0.00180689
-0.00180813
-0.00180222
-0.00178928
-0.00176945
-0.00174289
-0.00170979
-0.00167032
-0.00162471
-0.00157315
-0.00151593
-0.00145323
-0.00138542
-0.00131263
-0.00123533
-0.0011536
-0.00106804
-0.00097858
-0.000886074
-0.000790147
-0.000692083
-0.000590971
-0.000488796
-0.000383678
-0.000278738
-0.000170198
-6.27071e-05
0.000345781