/*--------------------------------*- C++ -*----------------------------------*\
  =========                 |
  \\      /  F ield         | OpenFOAM: The Open Source CFD Toolbox
   \\    /   O peration     | Website:  https://openfoam.org
    \\  /    A nd           | Version:  7
     \\/     M anipulation  |
\*---------------------------------------------------------------------------*/
FoamFile
{
    version     2.0;
    format      ascii;
    class       volScalarField;
    location    "10";
    object      p;
}
// * * * * * * * * * * * * * * * * * * * * * * * * * * * * * * * * * * * * * //

dimensions      [0 2 -2 0 0 0 0];

internalField   nonuniform List<scalar> 
3313
(
-0.277003
-0.278729
-0.279941
-0.280851
-0.28168
-0.282495
-0.283346
-0.284277
-0.285325
-0.277554
-0.279205
-0.28037
-0.281248
-0.282052
-0.282845
-0.283674
-0.284584
-0.28561
-0.278615
-0.280125
-0.281198
-0.282015
-0.282767
-0.283513
-0.284298
-0.285163
-0.286142
-0.280109
-0.281425
-0.282372
-0.283099
-0.283772
-0.284445
-0.285159
-0.285952
-0.286852
-0.281937
-0.283028
-0.28382
-0.284433
-0.285001
-0.285573
-0.286184
-0.286869
-0.287653
-0.283994
-0.284848
-0.28547
-0.285948
-0.286386
-0.286825
-0.287298
-0.287836
-0.28846
-0.286182
-0.286809
-0.287257
-0.287583
-0.287866
-0.288141
-0.288439
-0.288787
-0.289205
-0.289709
-0.28843
-0.288855
-0.289132
-0.289295
-0.289401
-0.289482
-0.289568
-0.289685
-0.289851
-0.290079
-0.290699
-0.290958
-0.291073
-0.291063
-0.290972
-0.290832
-0.290674
-0.290525
-0.290402
-0.290316
-0.29028
-0.29299
-0.293119
-0.293083
-0.292892
-0.292587
-0.292203
-0.291777
-0.291337
-0.290902
-0.29048
-0.290075
-0.295348
-0.295376
-0.295194
-0.294813
-0.294278
-0.293632
-0.292919
-0.292175
-0.291421
-0.290663
-0.289893
-0.28912
-0.297852
-0.297795
-0.297464
-0.296879
-0.296097
-0.295173
-0.294163
-0.29311
-0.292042
-0.290964
-0.289854
-0.288695
-0.287452
-0.300616
-0.300467
-0.299968
-0.29916
-0.298111
-0.296894
-0.295576
-0.294213
-0.29284
-0.291461
-0.290043
-0.288531
-0.286853
-0.303772
-0.303498
-0.302804
-0.301743
-0.300402
-0.298872
-0.297234
-0.295557
-0.293883
-0.292217
-0.290516
-0.288693
-0.286585
-0.283242
-0.30746
-0.307008
-0.306073
-0.30472
-0.303056
-0.301189
-0.299216
-0.297216
-0.295238
-0.293294
-0.291348
-0.289318
-0.286983
-0.283023
-0.277925
-0.311823
-0.311115
-0.309879
-0.308188
-0.306164
-0.303932
-0.301603
-0.299263
-0.296968
-0.294736
-0.292548
-0.290372
-0.288146
-0.285392
-0.289624
-0.316992
-0.315937
-0.314329
-0.312248
-0.309821
-0.307191
-0.30448
-0.301777
-0.299135
-0.296568
-0.29406
-0.291596
-0.289186
-0.286902
-0.288308
-0.323087
-0.321582
-0.319523
-0.316995
-0.314121
-0.31106
-0.307937
-0.304838
-0.301799
-0.298818
-0.295857
-0.29289
-0.289875
-0.287157
-0.285315
-0.330215
-0.328148
-0.325559
-0.322526
-0.319161
-0.315631
-0.31206
-0.308512
-0.304996
-0.30147
-0.297862
-0.294111
-0.290119
-0.286225
-0.281942
-0.338465
-0.335723
-0.332527
-0.328936
-0.325037
-0.320998
-0.316924
-0.312843
-0.308718
-0.304457
-0.299947
-0.295102
-0.289818
-0.284357
-0.277983
-0.347903
-0.344382
-0.340507
-0.336312
-0.331838
-0.327235
-0.322575
-0.317829
-0.3129
-0.30765
-0.301948
-0.295718
-0.288912
-0.281747
-0.273737
-0.358571
-0.354172
-0.349561
-0.344722
-0.339626
-0.334383
-0.329008
-0.3234
-0.317405
-0.310863
-0.303671
-0.295817
-0.287347
-0.278511
-0.269044
-0.370462
-0.365106
-0.359715
-0.354199
-0.34842
-0.342421
-0.336138
-0.3294
-0.322018
-0.313861
-0.30491
-0.295264
-0.285084
-0.274673
-0.263922
-0.383513
-0.377142
-0.370943
-0.364712
-0.35816
-0.351233
-0.343779
-0.335576
-0.326455
-0.316379
-0.305462
-0.293939
-0.282074
-0.27021
-0.258269
-0.397577
-0.390161
-0.38314
-0.376145
-0.368686
-0.36059
-0.351632
-0.341589
-0.330384
-0.318139
-0.305136
-0.291733
-0.278264
-0.265071
-0.252037
-0.412409
-0.403954
-0.396104
-0.388271
-0.379715
-0.370142
-0.359295
-0.347032
-0.333449
-0.318874
-0.303755
-0.288538
-0.273583
-0.259185
-0.245153
-0.427655
-0.418202
-0.409519
-0.400735
-0.390833
-0.379418
-0.366284
-0.351464
-0.335298
-0.318333
-0.301153
-0.284242
-0.267942
-0.252464
-0.237549
-0.442844
-0.432469
-0.422943
-0.413053
-0.401501
-0.387857
-0.372067
-0.354438
-0.335594
-0.316282
-0.297167
-0.27872
-0.261232
-0.244803
-0.229142
-0.457396
-0.446204
-0.435812
-0.42462
-0.411085
-0.394839
-0.376101
-0.355528
-0.33403
-0.312502
-0.29163
-0.271832
-0.253322
-0.236082
-0.219832
-0.470629
-0.458751
-0.447455
-0.434736
-0.418884
-0.399725
-0.377863
-0.354343
-0.330324
-0.306787
-0.284378
-0.263433
-0.244075
-0.226173
-0.209506
-0.481791
-0.469373
-0.457121
-0.442639
-0.424178
-0.401898
-0.376876
-0.350536
-0.324228
-0.298943
-0.275248
-0.253376
-0.233355
-0.214956
-0.198055
-0.490089
-0.477284
-0.464016
-0.447556
-0.426274
-0.400798
-0.372723
-0.343811
-0.31552
-0.288792
-0.264083
-0.24152
-0.22104
-0.202337
-0.185382
-0.494724
-0.481686
-0.467348
-0.448744
-0.424541
-0.395944
-0.365063
-0.333923
-0.304013
-0.276175
-0.250735
-0.227723
-0.207004
-0.188211
-0.171383
-0.494935
-0.481816
-0.466374
-0.445538
-0.418446
-0.386952
-0.353632
-0.320689
-0.289567
-0.260969
-0.235089
-0.211863
-0.191103
-0.172388
-0.155796
-0.49004
-0.476984
-0.460439
-0.437381
-0.407574
-0.373542
-0.338252
-0.303989
-0.272093
-0.243109
-0.217097
-0.193905
-0.173263
-0.154627
-0.138122
-0.479465
-0.466613
-0.449013
-0.423852
-0.39164
-0.355543
-0.318825
-0.283767
-0.251559
-0.222583
-0.196779
-0.17392
-0.153615
-0.135072
-0.118321
-0.462779
-0.450265
-0.431718
-0.404683
-0.370491
-0.332893
-0.295337
-0.260024
-0.227974
-0.199412
-0.174181
-0.151975
-0.132324
-0.114344
-0.0988391
-0.43971
-0.427668
-0.408339
-0.379756
-0.344109
-0.305633
-0.267851
-0.232825
-0.201396
-0.17365
-0.149368
-0.128145
-0.109415
-0.0924758
-0.0785826
-0.410163
-0.398725
-0.378838
-0.349119
-0.312607
-0.273908
-0.236502
-0.202287
-0.171943
-0.145414
-0.122402
-0.102479
-0.0850181
-0.0694484
-0.0572161
-0.374225
-0.363517
-0.343354
-0.312989
-0.276242
-0.237921
-0.201477
-0.168595
-0.139753
-0.114811
-0.0934039
-0.0750755
-0.0591788
-0.0452341
-0.0347977
-0.332153
-0.322303
-0.302201
-0.271721
-0.235373
-0.197896
-0.163047
-0.131981
-0.105046
-0.0820314
-0.0625376
-0.0460776
-0.0320026
-0.019956
-0.0116248
-0.284344
-0.275519
-0.255822
-0.225641
-0.190153
-0.15449
-0.12162
-0.0927564
-0.0680737
-0.0472934
-0.0299905
-0.015653
-0.00367931
0.0060717
0.0118359
-0.231297
-0.223767
-0.204657
-0.175305
-0.141508
-0.108016
-0.0775896
-0.0512687
-0.0291156
-0.0108061
0.00409933
0.0161021
0.0256269
0.0324782
0.0352449
-0.17362
-0.167762
-0.149491
-0.121616
-0.0899342
-0.0590431
-0.0314268
-0.00792485
0.0115017
0.0272157
0.0396743
0.0493139
0.0561985
0.0596835
0.0592805
-0.112587
-0.108063
-0.0911929
-0.0652222
-0.0361018
-0.00819441
0.0163095
0.0367698
0.0533266
0.0664017
0.0765037
0.0840059
0.0885978
0.0894228
0.0870257
-0.0488602
-0.0457245
-0.0305693
-0.00690899
0.0192569
0.0438571
0.0649994
0.0822277
0.0957756
0.10613
0.113856
0.119285
0.1219
0.121346
0.123798
0.0166456
0.0182569
0.031468
0.0524814
0.0753738
0.0964158
0.114008
0.127857
0.138273
0.14577
0.150881
0.153834
0.154335
0.153301
0.156719
0.0829031
0.0829057
0.0939785
0.112083
0.131467
0.148778
0.162699
0.173084
0.180302
0.184879
0.18731
0.187794
0.186264
0.183978
0.185598
0.148882
0.147233
0.15602
0.171031
0.186759
0.200244
0.210438
0.217321
0.221304
0.222908
0.222598
0.220594
0.216987
0.213021
0.212281
0.213563
0.210256
0.216665
0.228478
0.24049
0.250138
0.256623
0.260035
0.260811
0.259463
0.25643
0.251937
0.246137
0.240193
0.23702
0.275956
0.271014
0.275014
0.283608
0.29193
0.297807
0.300671
0.300701
0.298355
0.294131
0.288448
0.281529
0.273556
0.265594
0.260024
0.335111
0.32859
0.330211
0.335645
0.340387
0.342637
0.342033
0.338833
0.333506
0.326536
0.318319
0.309075
0.299005
0.289071
0.281208
0.390136
0.38212
0.381453
0.383864
0.385213
0.38405
0.380197
0.373976
0.365863
0.356326
0.345741
0.334329
0.322298
0.310495
0.300469
0.440206
0.43081
0.428002
0.427599
0.425814
0.421517
0.414691
0.40571
0.395053
0.383172
0.370427
0.357038
0.34322
0.329694
0.317673
0.484575
0.473942
0.469194
0.466251
0.461656
0.454563
0.445091
0.433656
0.420739
0.406776
0.392114
0.376976
0.361574
0.346501
0.33269
0.522589
0.510884
0.504443
0.499292
0.492268
0.482766
0.47102
0.457479
0.442621
0.426872
0.410566
0.393932
0.377173
0.360761
0.345399
0.553689
0.541099
0.533253
0.526276
0.51725
0.50577
0.492159
0.476891
0.460445
0.443233
0.425583
0.407726
0.389857
0.372339
0.355694
0.577419
0.564149
0.55522
0.546837
0.536277
0.523282
0.508246
0.49166
0.474
0.455671
0.436995
0.418206
0.399492
0.381123
0.36349
0.593434
0.579703
0.570037
0.5607
0.5491
0.535082
0.519082
0.501606
0.483127
0.464044
0.444675
0.425258
0.405973
0.387027
0.368724
0.6015
0.587536
0.577498
0.567678
0.555553
0.541019
0.524534
0.50661
0.487717
0.468255
0.448537
0.428804
0.409231
0.389994
0.371351
-0.283805
-0.214046
-0.183361
-0.14674
-0.119975
-0.099671
-0.0831842
-0.0702217
-0.0597203
-0.0511719
-0.0441392
-0.0382989
-0.0334112
-0.0292902
-0.0257928
-0.0228066
-0.0202435
-0.0180328
-0.0161178
-0.0144529
-0.013
-0.0117276
-0.0106101
-0.00962602
-0.00875741
-0.00798911
-0.00730833
-0.00670416
-0.00616727
-0.00568964
-0.0052644
-0.00488554
-0.00454792
-0.00424703
-0.00397891
-0.00374023
-0.00352807
-0.00333986
-0.00317338
-0.00302667
-0.00289804
-0.00278603
-0.00268936
-0.00260696
-0.00253791
-0.00248148
-0.00243703
-0.0024041
-0.00238234
-0.00237146
-0.28297
-0.203088
-0.175777
-0.140717
-0.114934
-0.095839
-0.0800669
-0.0677296
-0.0577018
-0.0495203
-0.0427786
-0.0371684
-0.0324652
-0.0284933
-0.0251175
-0.0222313
-0.019751
-0.0176094
-0.0157526
-0.014137
-0.0127259
-0.0114892
-0.0104025
-0.00944489
-0.00859919
-0.00785081
-0.00718737
-0.00659835
-0.00607472
-0.00560872
-0.00519369
-0.00482381
-0.00449409
-0.00420015
-0.00393814
-0.00370483
-0.0034974
-0.00331334
-0.0031505
-0.00300697
-0.0028811
-0.00277147
-0.00267684
-0.00259617
-0.00252857
-0.0024733
-0.00242977
-0.00239751
-0.00237618
-0.00236551
-0.281478
-0.196109
-0.168299
-0.135683
-0.110324
-0.0923253
-0.0772075
-0.0654092
-0.0558162
-0.0479672
-0.0414927
-0.0360954
-0.0315638
-0.0277316
-0.0244702
-0.0216784
-0.0192768
-0.017201
-0.0153998
-0.0138314
-0.0124605
-0.0112583
-0.0102012
-0.00926917
-0.00844564
-0.00771651
-0.00706987
-0.00649552
-0.00598473
-0.00553
-0.00512486
-0.00476368
-0.00444161
-0.0041544
-0.0038983
-0.00367019
-0.00346733
-0.00328728
-0.00312795
-0.00298748
-0.00286428
-0.00275694
-0.00266428
-0.00258528
-0.00251906
-0.00246493
-0.00242227
-0.00239066
-0.00236975
-0.00235927
-0.274225
-0.190518
-0.160628
-0.131035
-0.106037
-0.0889857
-0.074527
-0.0632129
-0.0540303
-0.0464934
-0.0402694
-0.0350729
-0.0307031
-0.0270029
-0.0238498
-0.0211476
-0.0188206
-0.0168076
-0.0150593
-0.0135361
-0.0122037
-0.0110345
-0.0100058
-0.00909835
-0.00829615
-0.0075856
-0.00695517
-0.006395
-0.00589665
-0.00545284
-0.0050573
-0.00470457
-0.00438994
-0.00410928
-0.00385894
-0.00363589
-0.00343749
-0.00326135
-0.00310545
-0.00296799
-0.00284739
-0.0027423
-0.00265157
-0.0025742
-0.00250934
-0.0024563
-0.00241451
-0.00238353
-0.00236303
-0.00235275
-0.265053
-0.186304
-0.153296
-0.126458
-0.10199
-0.0857151
-0.0719331
-0.0610753
-0.0522864
-0.0450525
-0.0390702
-0.0340687
-0.0298564
-0.0262848
-0.0232376
-0.0206231
-0.0183695
-0.016418
-0.0147219
-0.0132431
-0.0119487
-0.0108121
-0.00981155
-0.00892841
-0.00814734
-0.00745519
-0.00684083
-0.00629473
-0.00580872
-0.00537576
-0.00498976
-0.00464543
-0.0043382
-0.00406406
-0.00381944
-0.00360143
-0.00340747
-0.00323523
-0.00308274
-0.00294826
-0.00283025
-0.00272741
-0.0026386
-0.00256285
-0.00249934
-0.0024474
-0.00240647
-0.00237612
-0.00235603
-0.00234595
-0.254222
-0.181936
-0.146341
-0.12179
-0.0981408
-0.0825133
-0.0694091
-0.0589961
-0.0505838
-0.0436458
-0.0378974
-0.0330855
-0.0290264
-0.02558
-0.022636
-0.0201071
-0.0179251
-0.0160339
-0.0143889
-0.0129537
-0.0116966
-0.010592
-0.00961908
-0.00875989
-0.00799963
-0.00732564
-0.00672715
-0.00619495
-0.00572115
-0.00529892
-0.00492237
-0.00458636
-0.00428647
-0.00401879
-0.00377986
-0.00356685
-0.00337729
-0.00320892
-0.00305983
-0.00292831
-0.00281289
-0.00271227
-0.00262537
-0.00255124
-0.00248907
-0.00243823
-0.00239815
-0.00236843
-0.00234875
-0.00233887
-0.243432
-0.177418
-0.139929
-0.117041
-0.0944267
-0.0793729
-0.066927
-0.0569585
-0.0489087
-0.0422614
-0.036742
-0.0321155
-0.0282067
-0.0248834
-0.0220407
-0.0195961
-0.0174846
-0.0156528
-0.0140582
-0.0126661
-0.0114459
-0.010373
-0.00942749
-0.00859203
-0.00785242
-0.00719643
-0.00661369
-0.00609531
-0.00563363
-0.00522207
-0.00485492
-0.0045272
-0.00423461
-0.00397336
-0.00374009
-0.00353206
-0.00334689
-0.00318238
-0.00303668
-0.00290812
-0.00279526
-0.00269688
-0.00261188
-0.00253936
-0.00247853
-0.00242878
-0.00238955
-0.00236046
-0.0023412
-0.00233152
-0.232763
-0.172325
-0.1339
-0.112239
-0.0907963
-0.0763016
-0.0644818
-0.0549603
-0.0472615
-0.0408992
-0.0356042
-0.0311594
-0.0273981
-0.0241954
-0.0214525
-0.0190907
-0.0170485
-0.0152752
-0.0137303
-0.0123808
-0.011197
-0.0101554
-0.00923698
-0.008425
-0.00770582
-0.00706767
-0.00650055
-0.00599587
-0.00554623
-0.00514526
-0.00478745
-0.00446796
-0.00418264
-0.0039278
-0.00370015
-0.00349709
-0.00331628
-0.00315563
-0.00301329
-0.00288768
-0.00277739
-0.00268122
-0.00259812
-0.00252721
-0.00246772
-0.00241906
-0.00238068
-0.00235222
-0.00233337
-0.00232389
-0.222532
-0.166819
-0.128191
-0.107446
-0.0872109
-0.0732935
-0.0620658
-0.0529929
-0.0456374
-0.0395547
-0.0344807
-0.0302144
-0.0265983
-0.0235146
-0.0208698
-0.0185897
-0.016616
-0.0149004
-0.0134047
-0.0120972
-0.0109495
-0.0099389
-0.00904729
-0.00825859
-0.00755968
-0.00693924
-0.00638762
-0.00589654
-0.00545887
-0.00506844
-0.00471991
-0.00440862
-0.00413054
-0.00388207
-0.00366004
-0.00346191
-0.00328546
-0.00312864
-0.00298967
-0.002867
-0.00275927
-0.00266531
-0.0025841
-0.0025148
-0.00245665
-0.00240907
-0.00237155
-0.00234371
-0.00232528
-0.00231601
-0.212564
-0.16086
-0.122654
-0.10269
-0.0836473
-0.0703418
-0.0596779
-0.0510522
-0.0440347
-0.0382265
-0.0333706
-0.02928
-0.0258069
-0.0228404
-0.0202925
-0.018093
-0.0161868
-0.0145283
-0.0130812
-0.0118154
-0.0107033
-0.00972347
-0.00885843
-0.0080928
-0.00741399
-0.00681112
-0.0062749
-0.00579734
-0.00537156
-0.00499161
-0.00465232
-0.00434919
-0.00407831
-0.00383619
-0.00361974
-0.00342653
-0.00325443
-0.00310142
-0.00296581
-0.00284607
-0.0027409
-0.00264914
-0.00256983
-0.00250213
-0.00244531
-0.00239883
-0.00236215
-0.00233494
-0.00231692
-0.00230786
-0.202803
-0.15456
-0.117219
-0.09799
-0.0800936
-0.067435
-0.0573148
-0.0491324
-0.0424501
-0.0369122
-0.0322717
-0.0283546
-0.0250228
-0.0221721
-0.0197199
-0.0176
-0.0157607
-0.0141586
-0.0127596
-0.011535
-0.0104584
-0.00950896
-0.00867028
-0.00792754
-0.00726869
-0.00668328
-0.00616235
-0.00569822
-0.00528427
-0.00491473
-0.00458465
-0.00428964
-0.00402593
-0.00379015
-0.00357926
-0.00339095
-0.00322318
-0.00307398
-0.00294171
-0.0028249
-0.00272228
-0.00263273
-0.0025553
-0.0024892
-0.00243372
-0.00238832
-0.00235249
-0.00232592
-0.00230831
-0.00229946
-0.193095
-0.147934
-0.111809
-0.093339
-0.0765432
-0.0645614
-0.0549742
-0.0472296
-0.0408809
-0.03561
-0.0311827
-0.0274372
-0.0242452
-0.0215091
-0.0191515
-0.0171105
-0.0153373
-0.0137911
-0.0124397
-0.0112561
-0.0102146
-0.00929532
-0.0084828
-0.00776279
-0.00712375
-0.00655567
-0.00604994
-0.00559918
-0.00519698
-0.00483782
-0.00451689
-0.00422997
-0.00397342
-0.00374394
-0.0035386
-0.00335517
-0.00319171
-0.00304631
-0.00291738
-0.0028035
-0.00270341
-0.00261606
-0.00254052
-0.00247602
-0.00242187
-0.00237755
-0.00234258
-0.00231663
-0.00229944
-0.0022908
-0.18334
-0.141038
-0.106385
-0.088725
-0.0729912
-0.0617088
-0.0526517
-0.0453396
-0.0393241
-0.0343179
-0.0301022
-0.0265269
-0.0234733
-0.0208507
-0.018587
-0.0166241
-0.0149163
-0.0134256
-0.0121214
-0.0109784
-0.00997174
-0.00908248
-0.00829591
-0.00759848
-0.00697913
-0.00642827
-0.00593766
-0.00550018
-0.00510969
-0.00476085
-0.00444904
-0.00417018
-0.00392075
-0.00369757
-0.00349775
-0.00331918
-0.00316002
-0.00301842
-0.00289283
-0.00278185
-0.00268431
-0.00259915
-0.0025255
-0.00246259
-0.00240978
-0.00236654
-0.00233242
-0.0023071
-0.00229033
-0.0022819
-0.173396
-0.1339
-0.100899
-0.0841319
-0.0694316
-0.0588659
-0.0503433
-0.0434598
-0.0377774
-0.0330345
-0.029029
-0.0256227
-0.0227066
-0.0201967
-0.018026
-0.0161407
-0.0144978
-0.0130619
-0.0118046
-0.0107019
-0.00972991
-0.00887041
-0.00810962
-0.00743461
-0.00683482
-0.00630109
-0.00582551
-0.00540125
-0.0050224
-0.00468383
-0.00438109
-0.00411026
-0.00386795
-0.00365103
-0.00345672
-0.003283
-0.00312813
-0.00299032
-0.00286804
-0.00275998
-0.00266497
-0.00258201
-0.00251024
-0.00244893
-0.00239744
-0.00235529
-0.00232202
-0.00229733
-0.00228097
-0.00227275
-0.163118
-0.126543
-0.0952957
-0.0795541
-0.0658586
-0.0560248
-0.0480448
-0.0415899
-0.0362396
-0.0317588
-0.0279624
-0.0247241
-0.0219446
-0.0195465
-0.0174682
-0.01566
-0.0140818
-0.0127001
-0.0114892
-0.0104266
-0.00948905
-0.0086591
-0.00792392
-0.00727117
-0.00669083
-0.00617412
-0.00571348
-0.00530236
-0.0049351
-0.00460676
-0.00431307
-0.00405024
-0.00381501
-0.00360434
-0.00341551
-0.00324663
-0.00309604
-0.002962
-0.00284304
-0.00273789
-0.00264541
-0.00256464
-0.00249475
-0.00243503
-0.00238487
-0.00234381
-0.00231138
-0.00228733
-0.00227138
-0.00226337
-0.152311
-0.118977
-0.089502
-0.0750018
-0.0622697
-0.0531839
-0.0457539
-0.0397312
-0.0347103
-0.03049
-0.0269016
-0.0238306
-0.0211868
-0.0189
-0.0169134
-0.0151819
-0.0136679
-0.01234
-0.0111752
-0.0101524
-0.00924908
-0.0084485
-0.00773875
-0.00710814
-0.00654712
-0.00604733
-0.00560156
-0.00520352
-0.00484779
-0.00452964
-0.00424495
-0.00399009
-0.00376192
-0.0035575
-0.00337413
-0.00321006
-0.00306374
-0.00293346
-0.00281782
-0.00271557
-0.00262562
-0.00254704
-0.00247903
-0.0024209
-0.00237207
-0.00233209
-0.00230052
-0.00227709
-0.00226157
-0.00225376
-0.140746
-0.111249
-0.0834796
-0.0704925
-0.0586761
-0.0503455
-0.0434693
-0.037881
-0.033187
-0.0292259
-0.0258449
-0.0229405
-0.0204321
-0.018256
-0.0163609
-0.0147056
-0.0132553
-0.011981
-0.0108621
-0.00987895
-0.00900971
-0.00823836
-0.00755392
-0.00694535
-0.00640356
-0.00592063
-0.00548965
-0.00510465
-0.00476041
-0.0044524
-0.00417669
-0.00392978
-0.00370867
-0.00351047
-0.00333256
-0.00317329
-0.00303122
-0.00290471
-0.00279238
-0.00269303
-0.0026056
-0.00252921
-0.00246307
-0.00240654
-0.00235904
-0.00232014
-0.00228942
-0.00226663
-0.00225152
-0.00224392
-0.128198
-0.103429
-0.0772979
-0.0660025
-0.0550972
-0.0475082
-0.0411853
-0.0360231
-0.0316618
-0.0279613
-0.0247882
-0.0220509
-0.0196779
-0.0176126
-0.015809
-0.0142297
-0.012843
-0.0116223
-0.0105491
-0.00960561
-0.00877048
-0.00802833
-0.00736914
-0.00678255
-0.00625995
-0.00579383
-0.00537763
-0.00500563
-0.00467286
-0.00437498
-0.00410823
-0.00386927
-0.0036552
-0.00346323
-0.00329077
-0.00313629
-0.00299846
-0.00287572
-0.00276669
-0.00267024
-0.00258535
-0.00251114
-0.00244688
-0.00239194
-0.00234578
-0.00230796
-0.00227809
-0.00225593
-0.00224124
-0.00223384
-0.1146
-0.0955153
-0.0711574
-0.061406
-0.0515076
-0.0446485
-0.0388897
-0.0341548
-0.03013
-0.0266924
-0.0237286
-0.0211592
-0.0189223
-0.0169683
-0.0152565
-0.0137535
-0.0124305
-0.0112634
-0.0102359
-0.00933211
-0.00853117
-0.00781825
-0.00718429
-0.00661966
-0.00611623
-0.00566691
-0.00526546
-0.00490645
-0.00458513
-0.00429737
-0.00403957
-0.00380854
-0.00360153
-0.00341578
-0.00324876
-0.00309905
-0.00296547
-0.00284649
-0.00274077
-0.00264722
-0.00256485
-0.00249284
-0.00243046
-0.00237711
-0.00233228
-0.00229555
-0.00226653
-0.00224501
-0.00223073
-0.00222352
-0.100267
-0.0872751
-0.0650085
-0.056679
-0.0478789
-0.0417541
-0.0365741
-0.0322745
-0.0285916
-0.0254205
-0.022668
-0.0202678
-0.0181677
-0.0163255
-0.0147057
-0.0132789
-0.0120195
-0.0109058
-0.00992383
-0.0090596
-0.0082928
-0.00760899
-0.00700012
-0.00645732
-0.00597295
-0.00554033
-0.00515354
-0.00480744
-0.00449751
-0.00421981
-0.00397092
-0.00374778
-0.0035478
-0.00336826
-0.00320665
-0.0030617
-0.00293234
-0.00281711
-0.0027147
-0.00262404
-0.00254419
-0.00247436
-0.00241386
-0.0023621
-0.0023186
-0.00228295
-0.00225478
-0.0022339
-0.00222004
-0.00221301
-0.0854926
-0.0783909
-0.0587243
-0.0517826
-0.0441684
-0.038814
-0.0342406
-0.0303921
-0.027059
-0.0241586
-0.021619
-0.0193882
-0.0174244
-0.0156929
-0.014164
-0.0128124
-0.0116156
-0.0105542
-0.0096168
-0.00879139
-0.00805811
-0.00740284
-0.00681854
-0.00629713
-0.00583145
-0.00541521
-0.00504283
-0.00470941
-0.00441069
-0.00414289
-0.00390277
-0.00368743
-0.00349438
-0.00332098
-0.00316472
-0.00302446
-0.00289929
-0.00278777
-0.00268863
-0.00260084
-0.0025235
-0.00245584
-0.0023972
-0.00234702
-0.00230484
-0.00227027
-0.00224295
-0.0022227
-0.00220925
-0.00220241
-0.0699622
-0.0687179
-0.0521203
-0.0466546
-0.0403472
-0.0358362
-0.0319087
-0.0285311
-0.0255553
-0.0229274
-0.0205997
-0.0185358
-0.0167053
-0.0150815
-0.0136406
-0.0123615
-0.0112248
-0.0102137
-0.00931898
-0.00853084
-0.00782978
-0.00720196
-0.00664131
-0.00614053
-0.0056929
-0.00529252
-0.0049341
-0.00461301
-0.00432519
-0.00406705
-0.00383549
-0.00362777
-0.00344152
-0.00327415
-0.00312316
-0.0029875
-0.00286644
-0.00275859
-0.00266268
-0.00257773
-0.00250286
-0.00243735
-0.00238055
-0.00233195
-0.00229107
-0.00225757
-0.00223109
-0.00221147
-0.00219842
-0.00219177
-0.0537048
-0.0581236
-0.045105
-0.0413144
-0.0364521
-0.032856
-0.0296011
-0.0267031
-0.0240847
-0.0217267
-0.0196071
-0.0177063
-0.0160054
-0.0144859
-0.0131301
-0.0119211
-0.0108426
-0.00988001
-0.00902659
-0.00827446
-0.00760468
-0.00700361
-0.00646605
-0.00598543
-0.00555549
-0.00517067
-0.00482599
-0.00451704
-0.00423997
-0.00399138
-0.00376829
-0.00356812
-0.00338863
-0.00322725
-0.0030815
-0.00295043
-0.00283347
-0.00272926
-0.00263658
-0.00255446
-0.00248206
-0.00241869
-0.00236374
-0.0023167
-0.00227713
-0.0022447
-0.00221906
-0.00220006
-0.00218741
-0.00218095
-0.0367374
-0.0468143
-0.0379277
-0.0359834
-0.0325977
-0.0299006
-0.0272906
-0.0248545
-0.0225835
-0.0204915
-0.0185794
-0.0168429
-0.0152739
-0.0138617
-0.0125941
-0.0114581
-0.0104406
-0.00952902
-0.00871898
-0.00800474
-0.00736813
-0.00679549
-0.00628237
-0.00582305
-0.00541178
-0.00504337
-0.00471315
-0.00441697
-0.00415119
-0.00391259
-0.00369837
-0.00350608
-0.00333363
-0.00317851
-0.0030382
-0.00291187
-0.00279913
-0.00269871
-0.00260935
-0.00253015
-0.0024603
-0.00239914
-0.00234608
-0.00230065
-0.00226243
-0.00223109
-0.00220631
-0.00218795
-0.00217571
-0.00216938
-0.0194756
-0.0355926
-0.0311741
-0.0309847
-0.0288634
-0.026912
-0.0248608
-0.0228513
-0.0209191
-0.0190986
-0.0174065
-0.0158496
-0.0144284
-0.0131385
-0.011973
-0.0109226
-0.00997706
-0.0091257
-0.00836668
-0.0076974
-0.00710035
-0.0065613
-0.00607673
-0.00564211
-0.00525236
-0.00490276
-0.00458901
-0.00430729
-0.0040542
-0.00382677
-0.00362239
-0.00343881
-0.00327413
-0.00312588
-0.00299148
-0.00287024
-0.00276203
-0.00266566
-0.00257989
-0.00250381
-0.00243668
-0.00237787
-0.00232682
-0.0022831
-0.00224629
-0.00221611
-0.00219223
-0.00217454
-0.00216274
-0.00215641
-0.00271484
-0.0251335
-0.0250141
-0.0262689
-0.0251006
-0.0237507
-0.022209
-0.0206233
-0.0190453
-0.017519
-0.0160712
-0.0147177
-0.0134659
-0.0123176
-0.0112707
-0.0103201
-0.00945813
-0.00867629
-0.00797582
-0.00735882
-0.00680771
-0.00630704
-0.00585461
-0.00544757
-0.00508172
-0.00475287
-0.00445717
-0.00419118
-0.00395182
-0.0037364
-0.00354254
-0.00336824
-0.00321184
-0.00307092
-0.00294269
-0.00282669
-0.00272318
-0.00263104
-0.002549
-0.00247617
-0.00241186
-0.00235547
-0.00230651
-0.00226454
-0.0022292
-0.00220021
-0.00217727
-0.00216026
-0.0021489
-0.00214249
0.013644
-0.014068
-0.0180729
-0.020961
-0.0209445
-0.0204109
-0.0195256
-0.0184514
-0.0172743
-0.0160641
-0.0148678
-0.0137159
-0.0126268
-0.0116108
-0.0106721
-0.00981062
-0.0090219
-0.00829952
-0.00764837
-0.00707587
-0.00656365
-0.006095
-0.00566911
-0.00528475
-0.00493852
-0.0046267
-0.00434581
-0.00409275
-0.00386473
-0.00365925
-0.00347413
-0.00330759
-0.00315818
-0.00302351
-0.0029005
-0.00278893
-0.00268942
-0.00260093
-0.00252212
-0.00245213
-0.00239029
-0.00233604
-0.00228891
-0.00224851
-0.00221448
-0.00218655
-0.00216445
-0.00214807
-0.00213709
-0.00213076
0.0320719
0.00138041
-0.00788698
-0.0138925
-0.0162317
-0.0172414
-0.0173773
-0.0169744
-0.0162445
-0.0153353
-0.0143435
-0.0133315
-0.0123386
-0.0113891
-0.0104968
-0.00966794
-0.00890257
-0.00819618
-0.00755623
-0.00699255
-0.00648815
-0.00602634
-0.00560613
-0.00522664
-0.00488476
-0.00457697
-0.00429987
-0.00405039
-0.00382578
-0.00362353
-0.00344147
-0.00327782
-0.00313121
-0.00299917
-0.00287865
-0.00276932
-0.00267183
-0.00258523
-0.00250816
-0.00243974
-0.00237932
-0.00232633
-0.00228032
-0.00224088
-0.00220767
-0.00218044
-0.00215888
-0.002143
-0.00213214
-0.0021266
0.0541621
0.0218357
0.00545139
-0.0053714
-0.0113457
-0.0145246
-0.0159534
-0.0163193
-0.0160434
-0.0153942
-0.0145422
-0.0135959
-0.0126239
-0.0116688
-0.0107564
-0.00990032
-0.0091066
-0.00837273
-0.00770585
-0.00711176
-0.00658146
-0.00610072
-0.00566526
-0.00527281
-0.00492006
-0.00460336
-0.0043191
-0.00406397
-0.00383496
-0.00362936
-0.00344479
-0.00327921
-0.00313113
-0.00299802
-0.00287748
-0.00276854
-0.00267124
-0.0025848
-0.002508
-0.00243993
-0.00237989
-0.00232731
-0.00228169
-0.00224263
-0.00220978
-0.00218287
-0.00216156
-0.00214603
-0.00213499
-0.00213123
0.0724298
0.0375805
0.016108
0.00184074
-0.00667532
-0.0114011
-0.0138192
-0.0148354
-0.014995
-0.0146401
-0.0139887
-0.0131802
-0.0123036
-0.0114152
-0.0105498
-0.00972766
-0.00896017
-0.0082485
-0.00759922
-0.00701062
-0.00648485
-0.00601173
-0.00558416
-0.00519879
-0.00485241
-0.00454156
-0.00426278
-0.00401277
-0.00378854
-0.00358742
-0.003407
-0.00324517
-0.0031003
-0.00297
-0.00285296
-0.00274756
-0.00265308
-0.00256897
-0.00249425
-0.00242805
-0.00236968
-0.00231858
-0.00227425
-0.00223631
-0.0022044
-0.00217828
-0.00215757
-0.0021426
-0.00213163
-0.00212938
0.108595
0.0661118
0.038263
0.0197704
0.00820504
0.00103116
-0.0033927
-0.00605672
-0.00757322
-0.00833916
-0.00861769
-0.00858464
-0.00835793
-0.00801676
-0.00761412
-0.007185
-0.00675245
-0.00633272
-0.0059384
-0.00555505
-0.00520285
-0.00488347
-0.00459157
-0.00432502
-0.00408247
-0.00386241
-0.00366309
-0.00348274
-0.00331962
-0.00317216
-0.00303889
-0.00291849
-0.00280948
-0.00271024
-0.0026218
-0.00254247
-0.00247045
-0.00240564
-0.00234769
-0.00229609
-0.00225037
-0.00221016
-0.00217515
-0.00214506
-0.00211968
-0.00209882
-0.00208232
-0.00207017
-0.00206192
-0.00205993
0.143259
0.0931586
0.0634696
0.0429138
0.028605
0.018699
0.0118198
0.00702314
0.00367636
0.00134819
-0.000261111
-0.00136202
-0.00210301
-0.00258934
-0.00289593
-0.00307645
-0.00317031
-0.00320794
-0.0032052
-0.00316155
-0.00309833
-0.00303
-0.00295921
-0.00288691
-0.00281461
-0.00274371
-0.00267521
-0.00260969
-0.00254746
-0.00248867
-0.00243333
-0.00238126
-0.0023321
-0.00228608
-0.00224462
-0.00220694
-0.00217172
-0.00213892
-0.00210877
-0.00208133
-0.00205656
-0.0020344
-0.00201481
-0.00199775
-0.00198318
-0.00197109
-0.00196147
-0.00195426
-0.00195011
-0.00194733
0.143897
0.107306
0.0795402
0.0589722
0.0436058
0.0322476
0.0238654
0.0176436
0.0129958
0.00950486
0.00686985
0.00487099
0.00334699
0.00217906
0.00127937
0.000582329
3.82565e-05
-0.000389477
-0.000724103
-0.000981668
-0.00118149
-0.00134049
-0.00146836
-0.00157081
-0.00165234
-0.00171682
-0.00176749
-0.00180695
-0.00183724
-0.00186002
-0.00187656
-0.00188788
-0.00189489
-0.00189879
-0.00190075
-0.00190107
-0.00189962
-0.00189661
-0.00189251
-0.00188776
-0.00188268
-0.0018775
-0.00187244
-0.00186767
-0.00186332
-0.00185953
-0.00185641
-0.00185408
-0.00185266
-0.00185121
0.139585
0.110432
0.0865926
0.067918
0.0532735
0.0418191
0.0328999
0.0259535
0.0205246
0.0162622
0.0128985
0.0102289
0.00809726
0.00638408
0.00499813
0.00386929
0.0029436
0.00218026
0.00154917
0.00102646
0.000591601
0.000226689
-8.18605e-05
-0.000343677
-0.000566094
-0.000755164
-0.000915994
-0.00105285
-0.00116929
-0.00126824
-0.00135218
-0.00142319
-0.00148319
-0.00153393
-0.00157691
-0.0016132
-0.00164355
-0.00166866
-0.00168926
-0.00170608
-0.00171974
-0.00173075
-0.00173954
-0.0017465
-0.00175191
-0.00175606
-0.00175917
-0.00176138
-0.00176268
-0.001763
0.128891
0.108385
0.0896359
0.0734837
0.0599757
0.0488959
0.0399058
0.0326408
0.0267657
0.0220007
0.0181205
0.0149463
0.0123367
0.0101798
0.00838761
0.00689028
0.00563295
0.00457272
0.00367572
0.0029142
0.00226549
0.00171062
0.00123401
0.000823337
0.000468848
0.000162537
-0.000102335
-0.000331486
-0.000529765
-0.000701288
-0.000849573
-0.000977675
-0.0010883
-0.00118381
-0.0012662
-0.00133713
-0.00139803
-0.0014501
-0.0014944
-0.00153196
-0.00156365
-0.00159025
-0.0016124
-0.00163066
-0.00164549
-0.00165729
-0.00166637
-0.00167295
-0.00167712
-0.00167907
0.119921
0.104346
0.0892132
0.0755715
0.063665
0.0534827
0.0448906
0.0376975
0.0316931
0.0266796
0.0224863
0.01897
0.0160124
0.0135159
0.0114008
0.00960217
0.00806717
0.006753
0.00562464
0.00465328
0.00381504
0.00308989
0.00246098
0.0019144
0.00143868
0.00102427
0.000663068
0.000348153
7.35722e-05
-0.000165798
-0.000374394
-0.000556085
-0.000714252
-0.000851836
-0.000971392
-0.00107513
-0.00116495
-0.00124249
-0.00130921
-0.00136639
-0.00141516
-0.00145653
-0.00149134
-0.00152032
-0.00154409
-0.00156315
-0.0015779
-0.00158865
-0.00159563
-0.00159905
0.110389
0.0991532
0.0874968
0.0762672
0.0659298
0.0567056
0.0486352
0.0416656
0.0356857
0.0305677
0.0261893
0.0224412
0.0192285
0.0164698
0.0140958
0.0120481
0.0102781
0.00874493
0.00741434
0.00625745
0.00524996
0.00437131
0.00360397
0.00293301
0.00234577
0.00183152
0.00138104
0.0009864
0.000640707
0.00033797
7.29588e-05
-0.000158903
-0.000361629
-0.000538722
-0.000693237
-0.000827852
-0.000944911
-0.00104646
-0.00113427
-0.00120992
-0.00127479
-0.00133007
-0.00137681
-0.0014159
-0.00144809
-0.00147399
-0.00149411
-0.00150883
-0.00151845
-0.00152321
0.103161
0.0943674
0.0849252
0.0755642
0.0666885
0.058506