/*--------------------------------*- C++ -*----------------------------------*\
  =========                 |
  \\      /  F ield         | OpenFOAM: The Open Source CFD Toolbox
   \\    /   O peration     | Website:  https://openfoam.org
    \\  /    A nd           | Version:  7
     \\/     M anipulation  |
\*---------------------------------------------------------------------------*/
FoamFile
{
    version     2.0;
    format      ascii;
    class       surfaceScalarField;
    location    "30";
    object      phi;
}
// * * * * * * * * * * * * * * * * * * * * * * * * * * * * * * * * * * * * * //

dimensions      [0 3 -1 0 0 0 0];

internalField   nonuniform List<scalar> 
2641
(
-0.000287423
0.0131438
0.000292871
-0.000274929
0.0140129
-0.000257295
0.0147897
-0.000236434
0.0154567
-0.000214074
0.0160069
-0.000191618
0.0164425
-0.000170068
0.0167729
-0.000150028
0.0170122
-0.000131751
0.0171765
-0.000115236
0.017282
-0.000100312
0.0173438
-8.67281e-05
0.0173746
-7.42123e-05
0.0173845
-6.251e-05
0.0173816
-5.14043e-05
0.0173717
-4.07218e-05
0.0173589
-3.03291e-05
0.0173461
-2.01261e-05
0.0173352
-1.00367e-05
0.0173273
0.0173232
-0.000283249
0.0131385
0.000288462
-0.000271078
0.0140007
-0.000253819
0.0147725
-0.000233347
0.0154362
-0.000211361
0.0159849
-0.000189242
0.0164204
-0.000167986
0.0167516
-0.000148194
0.0169924
-0.000130129
0.0171584
-0.000113795
0.0172657
-9.90341e-05
0.0173291
-8.56016e-05
0.0173611
-7.3231e-05
0.0173722
-6.16709e-05
0.0173701
-5.07063e-05
0.0173608
-4.01642e-05
0.0173484
-2.99116e-05
0.0173359
-1.98481e-05
0.0173251
-9.89754e-06
0.0173174
0.0173133
-0.000279147
0.0131336
0.000284132
-0.000267289
0.0139889
-0.000250393
0.0147556
-0.0002303
0.0154162
-0.000208678
0.0159633
-0.00018689
0.0163986
-0.000165921
0.0167307
-0.000146373
0.0169728
-0.000128514
0.0171405
-0.00011236
0.0172495
-9.77599e-05
0.0173145
-8.44771e-05
0.0173478
-7.22503e-05
0.0173599
-6.08315e-05
0.0173587
-5.00074e-05
0.0173499
-3.96054e-05
0.017338
-2.94927e-05
0.0173258
-1.9569e-05
0.0173152
-9.75834e-06
0.0173076
0.0173036
-0.000275116
0.0131288
0.000279882
-0.000263562
0.0139773
-0.000247019
0.014739
-0.000227294
0.0153964
-0.000206027
0.015942
-0.000184562
0.0163771
-0.000163874
0.01671
-0.000144566
0.0169535
-0.000126911
0.0171229
-0.000110934
0.0172336
-9.64917e-05
0.0173
-8.33569e-05
0.0173347
-7.12724e-05
0.0173478
-5.99937e-05
0.0173474
-4.93088e-05
0.0173393
-3.90466e-05
0.0173277
-2.90735e-05
0.0173158
-1.92897e-05
0.0173054
-9.61847e-06
0.0172979
0.017294
-0.000271157
0.0131242
0.00027571
-0.000259898
0.0139661
-0.000243698
0.0147228
-0.000224331
0.0153771
-0.000203411
0.0159211
-0.000182261
0.0163559
-0.000161848
0.0166896
-0.000142775
0.0169344
-0.000125321
0.0171054
-0.000109517
0.0172178
-9.52319e-05
0.0172857
-8.22428e-05
0.0173217
-7.02989e-05
0.0173359
-5.91589e-05
0.0173362
-4.86126e-05
0.0173287
-3.8489e-05
0.0173176
-2.86553e-05
0.017306
-1.90107e-05
0.0172958
-9.47907e-06
0.0172884
0.0172845
-0.000267269
0.0131199
0.000271616
-0.000256296
0.0139551
-0.000240431
0.014707
-0.000221413
0.015358
-0.00020083
0.0159005
-0.000179989
0.0163351
-0.000159846
0.0166694
-0.000141003
0.0169156
-0.000123746
0.0170882
-0.000108114
0.0172021
-9.39823e-05
0.0172716
-8.11369e-05
0.0173089
-6.93318e-05
0.0173241
-5.83289e-05
0.0173252
-4.79198e-05
0.0173183
-3.79338e-05
0.0173076
-2.82383e-05
0.0172963
-1.87326e-05
0.0172863
-9.34007e-06
0.017279
0.0172752
-0.000263453
0.0131157
0.000267601
-0.000252759
0.0139444
-0.000237218
0.0146914
-0.000218541
0.0153394
-0.000198288
0.0158802
-0.000177747
0.0163146
-0.000157869
0.0166495
-0.000139253
0.016897
-0.000122189
0.0170711
-0.000106725
0.0171867
-9.27446e-05
0.0172576
-8.00408e-05
0.0172962
-6.83727e-05
0.0173124
-5.75051e-05
0.0173144
-4.72313e-05
0.017308
-3.73819e-05
0.0172978
-2.78236e-05
0.0172867
-1.84558e-05
0.0172769
-9.2015e-06
0.0172697
0.017266
-0.000259709
0.0131118
0.000263663
-0.000249285
0.013934
-0.00023406
0.0146762
-0.000215715
0.015321
-0.000195784
0.0158603
-0.000175538
0.0162943
-0.000155918
0.0166299
-0.000137524
0.0168786
-0.000120651
0.0170542
-0.000105352
0.0171714
-9.15208e-05
0.0172438
-7.89563e-05
0.0172836
-6.74228e-05
0.0173009
-5.66887e-05
0.0173036
-4.6549e-05
0.0172979
-3.68343e-05
0.0172881
-2.74122e-05
0.0172773
-1.8181e-05
0.0172677
-9.06399e-06
0.0172606
0.0172569
-0.000256035
0.013108
0.000259802
-0.000245875
0.0139238
-0.000230959
0.0146613
-0.000212937
0.015303
-0.000193321
0.0158407
-0.000173363
0.0162744
-0.000153997
0.0166106
-0.000135821
0.0168604
-0.000119133
0.0170375
-0.000103997
0.0171562
-9.03124e-05
0.0172301
-7.78848e-05
0.0172712
-6.64839e-05
0.0172895
-5.58812e-05
0.017293
-4.58734e-05
0.0172879
-3.6292e-05
0.0172785
-2.70043e-05
0.017268
-1.79086e-05
0.0172586
-8.92752e-06
0.0172516
0.017248
-0.000252433
0.0131044
0.000256017
-0.000242529
0.0139139
-0.000227913
0.0146467
-0.000210208
0.0152853
-0.000190899
0.0158214
-0.000171223
0.0162547
-0.000152105
0.0165914
-0.000134143
0.0168424
-0.000117638
0.017021
-0.000102662
0.0171413
-8.91209e-05
0.0172166
-7.68277e-05
0.0172589
-6.5557e-05
0.0172782
-5.50836e-05
0.0172826
-4.52058e-05
0.017278
-3.57558e-05
0.017269
-2.66007e-05
0.0172589
-1.7639e-05
0.0172496
-8.79279e-06
0.0172428
0.0172392
-0.000248901
0.013101
0.000252307
-0.000239247
0.0139043
-0.000224925
0.0146324
-0.000207528
0.0152679
-0.000188519
0.0158024
-0.000169119
0.0162353
-0.000150245
0.0165726
-0.000132492
0.0168247
-0.000116167
0.0170047
-0.000101348
0.0171264
-8.79476e-05
0.0172032
-7.57864e-05
0.0172467
-6.46436e-05
0.0172671
-5.42971e-05
0.0172722
-4.45472e-05
0.0172683
-3.52264e-05
0.0172597
-2.62024e-05
0.0172498
-1.73727e-05
0.0172408
-8.6592e-06
0.0172341
0.0172305
-0.000245439
0.0130978
0.000248672
-0.000236028
0.0138948
-0.000221992
0.0146183
-0.000204897
0.0152508
-0.000186182
0.0157837
-0.000167053
0.0162162
-0.000148417
0.0165539
-0.000130869
0.0168071
-0.000114721
0.0169886
-0.000100056
0.0171118
-8.67939e-05
0.0171899
-7.47621e-05
0.0172347
-6.37445e-05
0.0172561
-5.35226e-05
0.017262
-4.38981e-05
0.0172586
-3.47047e-05
0.0172505
-2.58095e-05
0.0172409
-1.711e-05
0.0172321
-8.52787e-06
0.0172255
0.017222
-0.000242045
0.0130947
0.000245111
-0.000232873
0.0138857
-0.000219117
0.0146046
-0.000202316
0.015234
-0.000183889
0.0157652
-0.000165024
0.0161973
-0.000146622
0.0165355
-0.000129277
0.0167898
-0.000113302
0.0169726
-9.87869e-05
0.0170973
-8.56608e-05
0.0171768
-7.37558e-05
0.0172228
-6.28611e-05
0.0172452
-5.27613e-05
0.0172519
-4.32599e-05
0.0172491
-3.41913e-05
0.0172415
-2.54226e-05
0.0172322
-1.68514e-05
0.0172235
-8.39817e-06
0.017217
0.0172136
-0.000238721
0.0130918
0.000241622
-0.000229782
0.0138767
-0.000216299
0.0145911
-0.000199786
0.0152175
-0.00018164
0.0157471
-0.000163035
0.0161787
-0.000144862
0.0165174
-0.000127715
0.0167727
-0.00011191
0.0169568
-9.75428e-05
0.0170829
-8.45496e-05
0.0171638
-7.27687e-05
0.017211
-6.19942e-05
0.0172344
-5.20138e-05
0.0172419
-4.2633e-05
0.0172397
-3.36868e-05
0.0172325
-2.50427e-05
0.0172235
-1.65971e-05
0.0172151
-8.27064e-06
0.0172087
0.0172053
-0.000235465
0.0130891
0.000238205
-0.000226752
0.013868
-0.000213537
0.0145779
-0.000197306
0.0152013
-0.000179436
0.0157292
-0.000161085
0.0161603
-0.000143138
0.0164994
-0.000126184
0.0167557
-0.000110546
0.0169411
-9.63242e-05
0.0170687
-8.34612e-05
0.0171509
-7.18017e-05
0.0171993
-6.11447e-05
0.0172237
-5.12812e-05
0.017232
-4.20184e-05
0.0172305
-3.3192e-05
0.0172237
-2.46695e-05
0.017215
-1.63474e-05
0.0172068
-8.14566e-06
0.0172005
0.0171972
-0.000232276
0.0130865
0.000234859
-0.000223786
0.0138595
-0.000210831
0.0145649
-0.000194877
0.0151853
-0.000177277
0.0157116
-0.000159175
0.0161422
-0.000141449
0.0164817
-0.000124686
0.0167389
-0.000109212
0.0169257
-9.51321e-05
0.0170546
-8.23965e-05
0.0171382
-7.08558e-05
0.0171878
-6.03136e-05
0.0172132
-5.05641e-05
0.0172223
-4.14165e-05
0.0172213
-3.27073e-05
0.017215
-2.4304e-05
0.0172066
-1.61028e-05
0.0171986
-8.02305e-06
0.0171924
0.0171891
-0.000229153
0.0130841
0.000231584
-0.000220881
0.0138513
-0.000208183
0.0145522
-0.000192499
0.0151696
-0.000175163
0.0156943
-0.000157307
0.0161244
-0.000139797
0.0164642
-0.000123222
0.0167224
-0.000107908
0.0169104
-9.39674e-05
0.0170406
-8.13567e-05
0.0171256
-6.99319e-05
0.0171764
-5.95016e-05
0.0172028
-4.98634e-05
0.0172127
-4.08282e-05
0.0172123
-3.22334e-05
0.0172064
-2.39465e-05
0.0171983
-1.58635e-05
0.0171905
-7.90319e-06
0.0171845
0.0171812
-0.000226096
0.0130818
0.000228377
-0.000218037
0.0138432
-0.00020559
0.0145398
-0.000190172
0.0151542
-0.000173096
0.0156772
-0.00015548
0.0161068
-0.000138183
0.0164469
-0.000121791
0.016706
-0.000106634
0.0168952
-9.2831e-05
0.0170268
-8.03421e-05
0.0171131
-6.90306e-05
0.0171651
-5.87097e-05
0.0171924
-4.91797e-05
0.0172031
-4.02541e-05
0.0172034
-3.17707e-05
0.0171979
-2.35974e-05
0.0171901
-1.56297e-05
0.0171825
-7.78574e-06
0.0171766
0.0171735
-0.000223105
0.0130797
0.000225238
-0.000215254
0.0138353
-0.000203054
0.0145276
-0.000187896
0.015139
-0.000171075
0.0156604
-0.000153694
0.0160894
-0.000136606
0.0164298
-0.000120395
0.0166898
-0.000105393
0.0168802
-9.17236e-05
0.0170132
-7.9354e-05
0.0171007
-6.8153e-05
0.0171539
-5.79382e-05
0.0171822
-4.85138e-05
0.0171937
-3.96947e-05
0.0171946
-3.13198e-05
0.0171895
-2.32571e-05
0.0171821
-1.54017e-05
0.0171747
-7.67156e-06
0.0171689
0.0171658
-0.000220177
0.0130777
0.000222166
-0.000212532
0.0138277
-0.000200573
0.0145156
-0.00018567
0.0151241
-0.0001691
0.0156438
-0.000151951
0.0160722
-0.000135068
0.0164129
-0.000119035
0.0166737
-0.000104184
0.0168653
-9.0646e-05
0.0169996
-7.8393e-05
0.0170885
-6.72996e-05
0.0171428
-5.71882e-05
0.0171721
-4.78663e-05
0.0171844
-3.91506e-05
0.0171858
-3.08811e-05
0.0171813
-2.29258e-05
0.0171741
-1.51798e-05
0.0171669
-7.56029e-06
0.0171613
0.0171582
-0.000217313
0.0130758
0.00021916
-0.000209869
0.0138203
-0.000198148
0.0145039
-0.000183496
0.0151095
-0.000167171
0.0156275
-0.00015025
0.0160553
-0.00013357
0.0163962
-0.00011771
0.0166579
-0.000103009
0.0168506
-8.9599e-05
0.0169862
-7.74597e-05
0.0170763
-6.64712e-05
0.0171318
-5.64603e-05
0.0171621
-4.72378e-05
0.0171752
-3.86225e-05
0.0171772
-3.04551e-05
0.0171731
-2.26043e-05
0.0171663
-1.49643e-05
0.0171593
-7.4523e-06
0.0171538
0.0171508
-0.000214511
0.0130741
0.000216219
-0.000207265
0.013813
-0.000195777
0.0144924
-0.000181372
0.0150951
-0.00016529
0.0156114
-0.000148592
0.0160386
-0.000132111
0.0163797
-0.000116422
0.0166422
-0.000101867
0.0168361
-8.85831e-05
0.0169729
-7.65549e-05
0.0170643
-6.56685e-05
0.0171209
-5.57551e-05
0.0171522
-4.66289e-05
0.017166
-3.81106e-05
0.0171687
-3.00423e-05
0.017165
-2.22924e-05
0.0171585
-1.47553e-05
0.0171517
-7.34736e-06
0.0171464
0.0171434
-0.00021177
0.0130725
0.000213342
-0.00020472
0.013806
-0.000193461
0.0144811
-0.000179299
0.0150809
-0.000163455
0.0155956
-0.000146978
0.0160221
-0.000130691
0.0163635
-0.000115172
0.0166267
-0.00010076
0.0168217
-8.75992e-05
0.0169598
-7.56795e-05
0.0170524
-6.48921e-05
0.0171101
-5.50733e-05
0.0171424
-4.60402e-05
0.017157
-3.76157e-05
0.0171603
-2.96431e-05
0.017157
-2.19907e-05
0.0171509
-1.45532e-05
0.0171443
-7.24581e-06
0.017139
0.0171362
-0.000209091
0.0130711
0.000210528
-0.000202232
0.0137991
-0.0001912
0.0144701
-0.000177277
0.015067
-0.000161667
0.01558
-0.000145407
0.0160059
-0.000129313
0.0163474
-0.000113959
0.0166113
-9.96883e-05
0.0168074
-8.66477e-05
0.0169467
-7.48338e-05
0.0170406
-6.41428e-05
0.0170994
-5.44153e-05
0.0171326
-4.54722e-05
0.0171481
-3.71384e-05
0.0171519
-2.92579e-05
0.0171492
-2.16997e-05
0.0171433
-1.4358e-05
0.017137
-7.14813e-06
0.0171318
0.017129
-0.000206471
0.0130698
0.000207775
-0.000199801
0.0137924
-0.000188992
0.0144593
-0.000175305
0.0150533
-0.000159926
0.0155646
-0.00014388
0.0159898
-0.000127975
0.0163315
-0.000112784
0.0165961
-9.8652e-05
0.0167933
-8.57296e-05
0.0169338
-7.40187e-05
0.0170288
-6.34211e-05
0.0170888
-5.37822e-05
0.017123
-4.49257e-05
0.0171392
-3.66789e-05
0.0171437
-2.88871e-05
0.0171414
-2.14196e-05
0.0171358
-1.41701e-05
0.0171297
-7.05373e-06
0.0171247
0.017122
-0.00020391
0.0130686
0.000205082
-0.000197427
0.0137859
-0.000186838
0.0144487
-0.000173383
0.0150399
-0.000158232
0.0155494
-0.000142397
0.015974
-0.000126679
0.0163157
-0.000111649
0.0165811
-9.76523e-05
0.0167793
-8.48452e-05
0.016921
-7.32348e-05
0.0170172
-6.27279e-05
0.0170783
-5.31742e-05
0.0171134
-4.4401e-05
0.0171304
-3.6238e-05
0.0171355
-2.85311e-05
0.0171337
-2.11504e-05
0.0171285
-1.39897e-05
0.0171225
-6.96318e-06
0.0171177
0.017115
-0.000201407
0.0130676
0.000202449
-0.000195109
0.0137796
-0.000184737
0.0144383
-0.000171512
0.0150266
-0.000156585
0.0155345
-0.000140958
0.0159584
-0.000125425
0.0163002
-0.000110552
0.0165662
-9.66897e-05
0.0167654
-8.39955e-05
0.0169083
-7.24828e-05
0.0170057
-6.20636e-05
0.0170679
-5.2592e-05
0.017104
-4.38989e-05
0.0171217
-3.58158e-05
0.0171275
-2.81905e-05
0.017126
-2.08929e-05
0.0171212
-1.3817e-05
0.0171155
-6.87637e-06
0.0171108
0.0171081
-0.000198962
0.0130667
0.000199874
-0.000192846
0.0137735
-0.000182689
0.0144282
-0.00016969
0.0150136
-0.000154986
0.0155198
-0.000139564
0.015943
-0.000124213
0.0162849
-0.000109496
0.0165515
-9.57644e-05
0.0167517
-8.31811e-05
0.0168957
-7.17635e-05
0.0169943
-6.1429e-05
0.0170576
-5.20364e-05
0.0170946
-4.34199e-05
0.0171131
-3.54133e-05
0.0171194
-2.78655e-05
0.0171185
-2.06473e-05
0.0171139
-1.36521e-05
0.0171085
-6.79374e-06
0.0171039
0.0171013
-0.000196572
0.0130659
0.000197356
-0.000190638
0.0137676
-0.000180693
0.0144182
-0.000167919
0.0150009
-0.000153434
0.0155053
-0.000138216
0.0159277
-0.000123044
0.0162697
-0.000108481
0.0165369
-9.48781e-05
0.0167381
-8.24026e-05
0.0168833
-7.10774e-05
0.016983
-6.08248e-05
0.0170473
-5.15081e-05
0.0170853
-4.29645e-05
0.0171046
-3.50307e-05
0.0171115
-2.75566e-05
0.017111
-2.04137e-05
0.0171068
-1.34954e-05
0.0171016
-6.71519e-06
0.0170971
0.0170946
-0.000194237
0.0130652
0.000194894
-0.000188483
0.0137618
-0.000178749
0.0144085
-0.000166197
0.0149883
-0.00015193
0.015491
-0.000136913
0.0159127
-0.000121918
0.0162547
-0.000107507
0.0165225
-9.40305e-05
0.0167246
-8.1661e-05
0.0168709
-7.04256e-05
0.0169717
-6.02518e-05
0.0170371
-5.10074e-05
0.017076
-4.25334e-05
0.0170961
-3.46686e-05
0.0171037
-2.72643e-05
0.0171036
-2.01925e-05
0.0170997
-1.33471e-05
0.0170947
-6.64058e-06
0.0170904
0.017088
-0.000191957
0.0130647
0.000192486
-0.000186381
0.0137563
-0.000176857
0.014399
-0.000164525
0.014976
-0.000150474
0.015477
-0.000135656
0.0158979
-0.000120837
0.0162399
-0.000106575
0.0165083
-9.3223e-05
0.0167113
-8.0957e-05
0.0168586
-6.98086e-05
0.0169606
-5.97107e-05
0.017027
-5.05354e-05
0.0170668
-4.21273e-05
0.0170877
-3.43275e-05
0.0170959
-2.6989e-05
0.0170963
-1.99844e-05
0.0170927
-1.32073e-05
0.0170879
-6.57038e-06
0.0170838
0.0170814
-0.00018973
0.0130643
0.000190131
-0.000184332
0.0137509
-0.000175016
0.0143897
-0.000162904
0.0149639
-0.000149067
0.0154632
-0.000134446
0.0158833
-0.0001198
0.0162252
-0.000105686
0.0164941
-9.24566e-05
0.016698
-8.02914e-05
0.0168465
-6.92274e-05
0.0169495
-5.92022e-05
0.017017
-5.00926e-05
0.0170577
-4.17466e-05
0.0170793
-3.40079e-05
0.0170881
-2.6731e-05
0.017089
-1.97892e-05
0.0170858
-1.30763e-05
0.0170812
-6.50448e-06
0.0170772
0.0170749
-0.000187555
0.013064
0.000187828
-0.000182336
0.0137457
-0.000173226
0.0143805
-0.000161332
0.014952
-0.000147708
0.0154495
-0.000133283
0.0158688
-0.000118809
0.0162107
-0.00010484
0.0164802
-9.17318e-05
0.0166849
-7.96653e-05
0.0168344
-6.8683e-05
0.0169385
-5.87273e-05
0.0170071
-4.96798e-05
0.0170487
-4.13922e-05
0.0170711
-3.37105e-05
0.0170804
-2.6491e-05
0.0170818
-1.96075e-05
0.0170789
-1.29543e-05
0.0170746
-6.44344e-06
0.0170707
0.0170685
-0.000185432
0.0130639
0.000185576
-0.00018039
0.0137406
-0.000171488
0.0143716
-0.000159811
0.0149403
-0.000146399
0.0154361
-0.000132168
0.0158546
-0.000117865
0.0161964
-0.00010404
0.0164663
-9.10499e-05
0.0166719
-7.90796e-05
0.0168224
-6.81759e-05
0.0169276
-5.82868e-05
0.0169972
-4.92979e-05
0.0170397
-4.10646e-05
0.0170628
-3.34358e-05
0.0170728
-2.62692e-05
0.0170746
-1.94398e-05
0.0170721
-1.28416e-05
0.017068
-6.38657e-06
0.0170642
0.0170621
-0.000183358
0.0130639
0.000183373
-0.000178495
0.0137357
-0.0001698
0.0143629
-0.00015834
0.0149288
-0.000145139
0.0154229
-0.000131102
0.0158406
-0.000116968
0.0161823
-0.000103286
0.0164527
-9.04121e-05
0.0166591
-7.85354e-05
0.0168105
-6.77079e-05
0.0169168
-5.78817e-05
0.0169873
-4.89475e-05
0.0170308
-4.07647e-05
0.0170546
-3.31845e-05
0.0170652
-2.60663e-05
0.0170675
-1.9286e-05
0.0170653
-1.27383e-05
0.0170614
-6.33491e-06
0.0170578
0.0170557
-0.000181334
0.013064
0.000181217
-0.000176651
0.0137311
-0.000168164
0.0143545
-0.000156921
0.0149176
-0.00014393
0.0154099
-0.000130086
0.0158267
-0.00011612
0.0161683
-0.000102579
0.0164391
-8.98191e-05
0.0166463
-7.8034e-05
0.0167988
-6.72793e-05
0.0169061
-5.75129e-05
0.0169776
-4.86298e-05
0.0170219
-4.04931e-05
0.0170465
-3.29569e-05
0.0170577
-2.58826e-05
0.0170604
-1.9147e-05
0.0170586
-1.26448e-05
0.0170549
-6.28766e-06
0.0170515
0.0170495
-0.000179358
0.0130642
0.000179106
-0.000174856
0.0137266
-0.000166578
0.0143462
-0.000155552
0.0149066
-0.000142772
0.0153972
-0.000129121
0.0158131
-0.000115322
0.0161545
-0.00010192
0.0164257
-8.9273e-05
0.0166336
-7.75766e-05
0.0167871
-6.68918e-05
0.0168954
-5.71815e-05
0.0169679
-4.83455e-05
0.017013
-4.02506e-05
0.0170384
-3.27538e-05
0.0170502
-2.57187e-05
0.0170534
-1.90228e-05
0.0170519
-1.25612e-05
0.0170485
-6.24573e-06
0.0170452
0.0170432
-0.000177428
0.0130646
0.00017704
-0.000173111
0.0137222
-0.000165043
0.0143381
-0.000154236
0.0148958
-0.000141667
0.0153846
-0.000128208
0.0157996
-0.000114576
0.0161409
-0.000101311
0.0164125
-8.87748e-05
0.0166211
-7.71646e-05
0.0167754
-6.65465e-05
0.0168848
-5.68887e-05
0.0169582
-4.80956e-05
0.0170043
-4.0038e-05
0.0170304
-3.25761e-05
0.0170427
-2.55751e-05
0.0170464
-1.89137e-05
0.0170452
-1.24878e-05
0.017042
-6.20878e-06
0.0170389
0.017037
-0.000175546
0.0130652
0.000175016
-0.000171415
0.0137181
-0.00016356
0.0143303
-0.000152973
0.0148852
-0.000140616
0.0153722
-0.000127349
0.0157864
-0.000113882
0.0161274
-0.000100755
0.0163993
-8.83263e-05
0.0166087
-7.67995e-05
0.0167639
-6.62448e-05
0.0168742
-5.66356e-05
0.0169486
-4.78811e-05
0.0169955
-3.98562e-05
0.0170223
-3.24242e-05
0.0170353
-2.54523e-05
0.0170394
-1.88204e-05
0.0170386
-1.24249e-05
0.0170356
-6.17715e-06
0.0170326
0.0170308
-0.000173707
0.0130658
0.000173033
-0.000169767
0.0137142
-0.000162128
0.0143226
-0.000151764
0.0148748
-0.00013962
0.0153601
-0.000126545
0.0157733
-0.000113244
0.0161141
-0.000100251
0.0163863
-8.79294e-05
0.0165964
-7.64831e-05
0.0167525
-6.59883e-05
0.0168637
-5.64235e-05
0.016939
-4.7703e-05
0.0169868
-3.9706e-05
0.0170143
-3.22987e-05
0.0170279
-2.53507e-05
0.0170325
-1.87431e-05
0.017032
-1.23725e-05
0.0170293
-6.1506e-06
0.0170264
0.0170247
-0.000171914
0.0130667
0.000171088
-0.000168169
0.0137104
-0.000160749
0.0143152
-0.00015061
0.0148647
-0.00013868
0.0153482
-0.000125799
0.0157604
-0.000112663
0.016101
-9.9804e-05
0.0163735
-8.75858e-05
0.0165841
-7.62171e-05
0.0167411
-6.57785e-05
0.0168533
-5.62538e-05
0.0169295
-4.75625e-05
0.0169781
-3.95882e-05
0.0170064
-3.22006e-05
0.0170205
-2.52709e-05
0.0170255
-1.86819e-05
0.0170254
-1.2331e-05
0.0170229
-6.12945e-06
0.0170202
0.0170185
-0.000170163
0.0130676
0.00016918
-0.000166619
0.0137069
-0.000159424
0.014308
-0.000149513
0.0148548
-0.0001378
0.0153364
-0.000125113
0.0157477
-0.000112141
0.016088
-9.94148e-05
0.0163608
-8.72979e-05
0.016572
-7.60036e-05
0.0167298
-6.5617e-05
0.0168429
-5.61278e-05
0.01692
-4.74608e-05
0.0169694
-3.95038e-05
0.0169984
-3.21299e-05
0.0170131
-2.52133e-05
0.0170186
-1.86377e-05
0.0170188
-1.23006e-05
0.0170166
-6.11414e-06
0.017014
0.0170124
-0.000168455
0.0130688
0.000167307
-0.000165119
0.0137035
-0.000158153
0.014301
-0.000148474
0.0148451
-0.000136981
0.0153249
-0.000124489
0.0157352
-0.000111682
0.0160752
-9.90863e-05
0.0163482
-8.70684e-05
0.01656
-7.58445e-05
0.0167186
-6.55056e-05
0.0168325
-5.6047e-05
0.0169106
-4.73989e-05
0.0169608
-3.94536e-05
0.0169905
-3.2088e-05
0.0170058
-2.51784e-05
0.0170117
-1.86101e-05
0.0170122
-1.22814e-05
0.0170102
-6.10405e-06
0.0170078
0.0170063
-0.000166789
0.0130701
0.000165467
-0.000163668
0.0137004
-0.000156939
0.0142943
-0.000147497
0.0148356
-0.000136227
0.0153137
-0.000123931
0.0157229
-0.000111288
0.0160626
-9.88215e-05
0.0163357
-8.68995e-05
0.0165481
-7.57423e-05
0.0167074
-6.54464e-05
0.0168222
-5.6013e-05
0.0169011
-4.7378e-05
0.0169521
-3.94386e-05
0.0169825
-3.20752e-05
0.0169984
-2.51667e-05
0.0170048
-1.85997e-05
0.0170057
-1.22736e-05
0.0170039
-6.09967e-06
0.0170017
0.0170002
-0.000165166
0.0130716
0.000163662
-0.000162269
0.0136975
-0.000155783
0.0142878
-0.000146584
0.0148264
-0.00013554
0.0153026
-0.000123442
0.0157108
-0.000110963
0.0160501
-9.86236e-05
0.0163233
-8.67943e-05
0.0165363
-7.56994e-05
0.0166963
-6.54413e-05
0.016812
-5.60274e-05
0.0168917
-4.73994e-05
0.0169435
-3.94596e-05
0.0169746
-3.20921e-05
0.016991
-2.51785e-05
0.0169979
-1.86071e-05
0.0169991
-1.22774e-05
0.0169976
-6.10075e-06
0.0169955
0.0169941
-0.000163585
0.0130733
0.000161889
-0.000160922
0.0136949
-0.000154688
0.0142816
-0.000145739
0.0148175
-0.000134925
0.0152918
-0.000123027
0.0156989
-0.00011071
0.0160378
-9.84965e-05
0.0163111
-8.67562e-05
0.0165245
-7.57186e-05
0.0166853
-6.54926e-05
0.0168018
-5.60918e-05
0.0168823
-4.74642e-05
0.0169349
-3.95174e-05
0.0169666
-3.21393e-05
0.0169837
-2.52141e-05
0.016991
-1.86319e-05
0.0169925
-1.22928e-05
0.0169912
-6.10744e-06
0.0169893
0.016988
-0.000162043
0.0130752
0.000160149
-0.000159627
0.0136925
-0.000153657
0.0142756
-0.000144967
0.0148088
-0.000134389
0.0152812
-0.000122694
0.0156872
-0.000110541
0.0160256
-9.84487e-05
0.016299
-8.67923e-05
0.0165129
-7.58063e-05
0.0166743
-6.56052e-05
0.0167916
-5.62104e-05
0.0168729
-4.75758e-05
0.0169262
-3.96143e-05
0.0169587
-3.22183e-05
0.0169763
-2.52747e-05
0.016984
-1.8675e-05
0.0169859
-1.23203e-05
0.0169849
-6.11928e-06
0.0169831
0.0169819
-0.000160745
0.000158698
-0.000158531
-0.000152788
-0.000144326
-0.000133963
-0.000122454
-0.000110451
-9.84724e-05
-8.68927e-05
-7.5951e-05
-6.57685e-05
-5.63729e-05
-4.77249e-05
-3.97427e-05
-3.2323e-05
-2.53554e-05
-1.87334e-05
-1.23582e-05
-6.14517e-06
0.0101297
0.000273227
0.0101538
0.000268775
0.0101779
0.000264404
0.0102019
0.000260113
0.0102259
0.000255902
0.0102498
0.00025177
0.0102737
0.000247717
0.0102976
0.000243742
0.0103214
0.000239844
0.0103452
0.000236022
0.0103689
0.000232276
0.0103926
0.000228604
0.0104163
0.000225006
0.0104399
0.000221481
0.0104635
0.000218027
0.0104871
0.000214644
0.0105106
0.00021133
0.0105341
0.000208085
0.0105576
0.000204908
0.010581
0.000201796
0.0106044
0.00019875
0.0106278
0.000195768
0.0106512
0.000192849
0.0106745
0.000189992
0.0106979
0.000187195
0.0107212
0.000184458
0.0107445
0.000181779
0.0107678
0.000179156
0.0107911
0.00017659
0.0108143
0.000174078
0.0108376
0.000171619
0.0108609
0.000169212
0.0108842
0.000166854
0.0109074
0.000164546
0.0109307
0.000162284
0.010954
0.000160067
0.0109774
0.000157893
0.0110007
0.000155761
0.0110241
0.000153667
0.0110475
0.00015161
0.0110709
0.000149587
0.0110944
0.000147595
0.011118
0.000145631
0.0111416
0.000143692
0.0111653
0.000141775
0.0111891
0.000139882
0.0112129
0.000138007
0.0112369
0.000136151
0.000134629
0.00970756
0.000248639
0.00973199
0.000244342
0.00975627
0.000240124
0.0097804
0.000235986
0.00980438
0.000231925
0.0098282
0.000227942
0.00985189
0.000224036
0.00987542
0.000220205
0.00989882
0.000216449
0.00992207
0.000212767
0.00994519
0.000209158
0.00996817
0.000205621
0.00999102
0.000202155
0.0100137
0.000198759
0.0100363
0.000195432
0.0100588
0.000192172
0.0100812
0.000188979
0.0101034
0.000185852
0.0101255
0.000182789
0.0101475
0.000179789
0.0101694
0.000176852
0.0101912
0.000173975
0.0102129
0.000171158
0.0102345
0.0001684
0.010256
0.000165699
0.0102774
0.000163054
0.0102987
0.000160464
0.0103199
0.000157928
0.0103411
0.000155444
0.0103622
0.000153011
0.0103831
0.000150628
0.0104041
0.000148292
0.0104249
0.000146003
0.0104457
0.000143758
0.0104664
0.000141557
0.0104871
0.000139396
0.0105077
0.000137273
0.0105283
0.000135187
0.0105488
0.000133135
0.0105693
0.000131112
0.0105898
0.000129118
0.0106102
0.000127146
0.0106307
0.000125194
0.0106511
0.000123257
0.0106716
0.00012133
0.010692
0.000119412
0.0107125
0.000117495
0.0107331
0.000115578
0.000114023
0.00917557
0.000224876
0.0092034
0.000220813
0.00923091
0.000216826
0.00925812
0.000212914
0.00928503
0.000209076
0.00931165
0.000205311
0.00933797
0.000201618
0.00936401
0.000197998
0.00938976
0.000194448
0.00941525
0.000190967
0.00944046
0.000187556
0.0094654
0.000184212
0.00949009
0.000180935
0.00951452
0.000177724
0.0095387
0.000174578
0.00956264
0.000171496
0.00958633
0.000168476
0.0096098
0.000165517
0.00963303
0.000162619
0.00965604
0.00015978
0.00967883
0.000157
0.0097014
0.000154277
0.00972377
0.000151609
0.00974593
0.000148997
0.00976789
0.000146438
0.00978966
0.000143932
0.00981123
0.000141477
0.00983263
0.000139072
0.00985384
0.000136716
0.00987488
0.000134408
0.00989574
0.000132146
0.00991644
0.000129928
0.00993698
0.000127754
0.00995736
0.000125621
0.00997759
0.000123528
0.00999767
0.000121474
0.0100176
0.000119454
0.0100374
0.000117469
0.0100571
0.000115514
0.0100766
0.000113588
0.0100961
0.000111686
0.0101154
0.000109804
0.0101346
0.000107939
0.0101537
0.000106086
0.0101727
0.000104238
0.0101917
0.00010239
0.0102105
0.000100538
0.0102294
9.86708e-05
0.0102481
9.67902e-05
9.52825e-05
0.00862999
0.000191292
0.00866308
0.000187727
0.00869568
0.000184229
0.00872779
0.000180797
0.00875944
0.00017743
0.00879062
0.000174128
0.00882135
0.00017089
0.00885163
0.000167716
0.00888147
0.000164603
0.00891089
0.000161552
0.00893988
0.000158562
0.00896846
0.000155631
0.00899664
0.000152759
0.00902442
0.000149944
0.00905181
0.000147187
0.00907882
0.000144485
0.00910546
0.000141838
0.00913173
0.000139245
0.00915765
0.000136704
0.00918321
0.000134216
0.00920844
0.000131778
0.00923332
0.00012939
0.00925788
0.000127051
0.00928212
0.000124759
0.00930604
0.000122515
0.00932966
0.000120316
0.00935297
0.000118161
0.009376
0.00011605
0.00939873
0.000113982
0.00942118
0.000111954
0.00944336
0.000109967
0.00946527
0.000108018
0.00948692
0.000106106
0.00950831
0.000104229
0.00952945
0.000102387
0.00955035
0.000100576
0.00957101
9.87961e-05
0.00959144
9.70436e-05
0.00961163
9.53164e-05
0.00963161
9.36116e-05
0.00965137
9.19256e-05
0.00967092
9.02546e-05
0.00969026
8.85939e-05
0.00970941
8.6938e-05
0.00972837
8.52807e-05
0.00974714
8.36162e-05
0.00976574
8.19397e-05
0.00978417
8.02377e-05
0.00980245
7.85144e-05
7.71493e-05
0.00810033
0.000151277
0.00813967
0.000148396
0.00817832
0.000145569
0.00821633
0.000142797
0.00825368
0.000140077
0.0082904
0.00013741
0.00832649
0.000134795
0.00836198
0.000132231
0.00839686
0.000129717
0.00843116
0.000127253
0.00846489
0.000124838
0.00849805
0.000122472
0.00853065
0.000120152
0.00856272
0.00011788
0.00859425
0.000115653
0.00862526
0.000113471
0.00865577
0.000111334
0.00868577
0.00010924
0.00871529
0.000107189
0.00874432
0.000105179
0.00877289
0.00010321
0.008801
0.000101282
0.00882866
9.93922e-05
0.00885588
9.75413e-05
0.00888266
9.57279e-05
0.00890903
9.39512e-05
0.00893498
9.22102e-05
0.00896053
9.05041e-05
0.00898568
8.88319e-05
0.00901044
8.71926e-05
0.00903482
8.55851e-05
0.00905883
8.40084e-05
0.00908247
8.24611e-05
0.00910576
8.09422e-05
0.0091287
7.945e-05
0.00915129
7.79831e-05
0.00917355
7.65398e-05
0.00919547
7.51179e-05
0.00921707
7.37154e-05
0.00923836
7.23295e-05
0.00925932
7.09572e-05
0.00927998
6.95949e-05
0.00930034
6.82383e-05
0.00932039
6.68824e-05
0.00934015
6.55213e-05
0.00935962
6.41495e-05
0.0093788
6.27625e-05
0.00939769
6.13475e-05
0.00941629
5.99102e-05
5.8784e-05
0.00764192
0.000105024
0.00768732
0.000102996
0.00773189
0.000101006
0.00777563
9.9054e-05
0.00781857
9.71396e-05
0.00786072
9.52622e-05
0.00790209
9.34213e-05
0.0079427
9.16166e-05
0.00798257
8.98475e-05
0.00802171
8.81134e-05
0.00806014
8.64138e-05
0.00809786
8.47482e-05
0.0081349
8.3116e-05
0.00817126
8.15166e-05
0.00820696
7.99495e-05
0.00824202
7.8414e-05
0.00827645
7.69097e-05
0.00831025
7.5436e-05
0.00834345
7.39922e-05
0.00837605
7.25777e-05
0.00840807
7.1192e-05
0.00843951
6.98345e-05
0.0084704
6.85046e-05
0.00850074
6.72016e-05
0.00853054
6.5925e-05
0.00855982
6.46742e-05
0.00858858
6.34483e-05
0.00861684
6.2247e-05
0.0086446
6.10693e-05
0.00867188
5.99146e-05
0.00869868
5.87822e-05
0.00872502
5.76713e-05
0.0087509
5.65809e-05
0.00877633
5.55102e-05
0.00880132
5.44581e-05
0.00882588
5.34234e-05
0.00885002
5.24049e-05
0.00887373
5.14012e-05
0.00889704
5.04104e-05
0.00891994
4.94307e-05
0.00894244
4.84597e-05
0.00896454
4.74947e-05
0.00898624
4.65324e-05
0.00900755
4.55689e-05
0.00902848
4.45998e-05
0.00904901
4.36206e-05
0.00906914
4.2628e-05
0.00908888
4.1612e-05
0.00910821
4.05781e-05
3.9775e-05
0.00725337
5.49296e-05
0.00730453
5.38612e-05
0.00735471
5.28128e-05
0.00740394
5.17842e-05
0.00745222
5.07753e-05
0.00749957
4.97858e-05
0.00754602
4.88155e-05
0.00759157
4.78641e-05
0.00763626
4.69313e-05
0.00768009
4.6017e-05
0.00772308
4.51208e-05
0.00776525
4.42424e-05
0.00780662
4.33816e-05
0.0078472
4.25381e-05
0.007887
4.17115e-05
0.00792605
4.09016e-05
0.00796436
4.01081e-05
0.00800194
3.93307e-05
0.0080388
3.8569e-05
0.00807497
3.78228e-05
0.00811046
3.70918e-05
0.00814527
3.63756e-05
0.00817943
3.5674e-05
0.00821295
3.49866e-05
0.00824584
3.43132e-05
0.00827811
3.36533e-05
0.00830978
3.30067e-05
0.00834086
3.23731e-05
0.00837135
3.1752e-05
0.00840128
3.11431e-05
0.00843064
3.05461e-05
0.00845947
2.99606e-05
0.00848775
2.93861e-05
0.00851551
2.88222e-05
0.00854275
2.82683e-05
0.00856949
2.7724e-05
0.00859572
2.71887e-05
0.00862146
2.66615e-05
0.00864672
2.61419e-05
0.00867151
2.56288e-05
0.00869581
2.51212e-05
0.00871966
2.46178e-05
0.00874303
2.41172e-05
0.00876595
2.36176e-05
0.0087884
2.31169e-05
0.00881039