/*--------------------------------*- C++ -*----------------------------------*\
  =========                 |
  \\      /  F ield         | OpenFOAM: The Open Source CFD Toolbox
   \\    /   O peration     | Website:  https://openfoam.org
    \\  /    A nd           | Version:  7
     \\/     M anipulation  |
\*---------------------------------------------------------------------------*/
FoamFile
{
    version     2.0;
    format      ascii;
    class       volScalarField;
    location    "24.999";
    object      p;
}
// * * * * * * * * * * * * * * * * * * * * * * * * * * * * * * * * * * * * * //

dimensions      [0 2 -2 0 0 0 0];

internalField   nonuniform List<scalar> 
11400
(
-0.271897
-0.27131
-0.270657
-0.269945
-0.269178
-0.268359
-0.267491
-0.266578
-0.265622
-0.264625
-0.263591
-0.26252
-0.261416
-0.260279
-0.259111
-0.257913
-0.256685
-0.255427
-0.254141
-0.252824
-0.251475
-0.250093
-0.248674
-0.247216
-0.245714
-0.244162
-0.242555
-0.240886
-0.239146
-0.237328
-0.235422
-0.233416
-0.231303
-0.229073
-0.226713
-0.224211
-0.221554
-0.218732
-0.215731
-0.212543
-0.209156
-0.205562
-0.201754
-0.197725
-0.193472
-0.188991
-0.184284
-0.179352
-0.1742
-0.168834
-0.163265
-0.157504
-0.151566
-0.145468
-0.139229
-0.13287
-0.126415
-0.119887
-0.113311
-0.106715
-0.100124
-0.0935663
-0.0870677
-0.0806533
-0.0743477
-0.0681743
-0.0621552
-0.0563109
-0.0506592
-0.0452159
-0.0399946
-0.0350065
-0.0302607
-0.0257637
-0.02152
-0.017532
-0.0138001
-0.0103228
-0.00709709
-0.00411842
-0.00138097
0.00112215
0.00339874
0.00545733
0.00730698
0.00895718
0.0104177
0.0116983
0.0128089
0.0137593
0.0145591
0.0152175
0.0157437
0.0161462
0.0164333
0.0166128
0.0166919
0.0166776
0.0165761
0.0163933
0.0161346
0.0158048
0.0154081
0.0149485
0.0144294
0.0138534
0.0132232
0.0125402
0.0118068
0.0110218
0.0101896
0.00930218
0.00837495
0.00737346
0.00636394
0.00520391
0.00417361
0.00267282
0.00180878
-0.271991
-0.271398
-0.270741
-0.270025
-0.269255
-0.268433
-0.267563
-0.266647
-0.265689
-0.264691
-0.263656
-0.262584
-0.261479
-0.260341
-0.259172
-0.257973
-0.256745
-0.255488
-0.254201
-0.252885
-0.251538
-0.250157
-0.248741
-0.247286
-0.245787
-0.24424
-0.242637
-0.240973
-0.23924
-0.237429
-0.235528
-0.233528
-0.231429
-0.22921
-0.226861
-0.224369
-0.221724
-0.218912
-0.215923
-0.212746
-0.209372
-0.20579
-0.201993
-0.197976
-0.193733
-0.189263
-0.184566
-0.179643
-0.174499
-0.169141
-0.163579
-0.157824
-0.151891
-0.145795
-0.139559
-0.133202
-0.126747
-0.120219
-0.113642
-0.107043
-0.100448
-0.0938866
-0.087384
-0.0809643
-0.0746518
-0.0684712
-0.0624455
-0.0565939
-0.0509346
-0.0454835
-0.0402544
-0.0352584
-0.0305046
-0.0259997
-0.0217483
-0.0177527
-0.0140133
-0.0105286
-0.00729578
-0.00431014
-0.00156591
0.000943798
0.00322678
0.00529156
0.00714723
0.00880326
0.0102694
0.0115555
0.0126714
0.013627
0.0144317
0.015095
0.0156259
0.016033
0.0163245
0.0165083
0.0165916
0.0165814
0.0164839
0.016305
0.01605
0.0157239
0.0153309
0.0148748
0.0143591
0.0137866
0.0131598
0.0124802
0.01175
0.0109684
0.0101396
0.00925551
0.00833182
0.00733378
0.0063279
0.00517201
0.00414415
0.00265201
0.00178045
-0.272169
-0.271563
-0.270901
-0.270178
-0.269402
-0.268575
-0.267701
-0.266781
-0.26582
-0.264819
-0.26378
-0.262706
-0.261599
-0.26046
-0.259289
-0.25809
-0.256861
-0.255604
-0.254319
-0.253004
-0.251659
-0.250282
-0.24887
-0.247421
-0.245929
-0.244389
-0.242795
-0.241141
-0.239421
-0.237619
-0.235724
-0.233758
-0.231675
-0.229473
-0.227142
-0.22467
-0.222045
-0.219255
-0.216288
-0.213134
-0.209782
-0.206222
-0.202448
-0.198452
-0.194231
-0.189781
-0.185102
-0.180198
-0.17507
-0.169728
-0.164178
-0.158435
-0.152512
-0.146424
-0.140193
-0.133839
-0.127386
-0.120858
-0.114279
-0.107676
-0.101076
-0.094509
-0.0879927
-0.0815646
-0.0752419
-0.0690498
-0.0630113
-0.0571463
-0.0514732
-0.0460079
-0.0407642
-0.0357536
-0.0309851
-0.0264656
-0.0221997
-0.0181897
-0.0144361
-0.0109376
-0.00769112
-0.00469215
-0.00193491
0.000587485
0.00288284
0.00495966
0.00682705
0.00849449
0.00997172
0.0112686
0.0123951
0.0133608
0.0141755
0.0148485
0.0153888
0.015805
0.0161054
0.0162979
0.0163897
0.0163877
0.0162982
0.0161271
0.0158798
0.0155611
0.0151755
0.0147266
0.014218
0.0136524
0.0130325
0.0123597
0.0116364
0.0108615
0.0100396
0.00916225
0.00824572
0.00725473
0.00625621
0.00510879
0.00408593
0.00261107
0.00172605
-0.272412
-0.271789
-0.27112
-0.270389
-0.269605
-0.268772
-0.267892
-0.266968
-0.266002
-0.264998
-0.263956
-0.262879
-0.261769
-0.260627
-0.259456
-0.258255
-0.257026
-0.255769
-0.254484
-0.253172
-0.25183
-0.250457
-0.249051
-0.247609
-0.246125
-0.244596
-0.243017
-0.241376
-0.239665
-0.237881
-0.236035
-0.234073
-0.232011
-0.229834
-0.227529
-0.225085
-0.222489
-0.219729
-0.216792
-0.213669
-0.210348
-0.20682
-0.203077
-0.199112
-0.19492
-0.190499
-0.185848
-0.180969
-0.175866
-0.170545
-0.165015
-0.159289
-0.153382
-0.147304
-0.141084
-0.134737
-0.128288
-0.121764
-0.115177
-0.10857
-0.101965
-0.0953883
-0.0888666
-0.0824251
-0.0760884
-0.0698815
-0.0638268
-0.0579447
-0.0522537
-0.0467699
-0.0415072
-0.0364773
-0.0316893
-0.0271502
-0.0228646
-0.0188351
-0.0150622
-0.0115445
-0.00827915
-0.00526157
-0.00248603
5.43326e-05
0.00236731
0.00446141
0.00634572
0.00802971
0.00952314
0.0108359
0.0119778
0.0129587
0.0137881
0.0144755
0.0150299
0.0154599
0.0157738
0.0159793
0.0160839
0.0160944
0.0160171
0.015858
0.0156223
0.0153151
0.0149406
0.0145028
0.014005
0.0134501
0.0128407
0.0121783
0.0114655
0.0107009
0.0098896
0.00902271
0.00811713
0.00713704
0.0061497
0.00501539
0.00400035
0.00255132
0.00164967
-0.272694
-0.272052
-0.271378
-0.270637
-0.269847
-0.269008
-0.268122
-0.267193
-0.266223
-0.265214
-0.264169
-0.263089
-0.261977
-0.260833
-0.259659
-0.258457
-0.257227
-0.255971
-0.254687
-0.253377
-0.252038
-0.25067
-0.24927
-0.247838
-0.246368
-0.244853
-0.243274
-0.24163
-0.239965
-0.238221
-0.236378
-0.234445
-0.23241
-0.230262
-0.227988
-0.225577
-0.223015
-0.22029
-0.217391
-0.214305
-0.211022
-0.207532
-0.203827
-0.1999
-0.195746
-0.19136
-0.186744
-0.181897
-0.176825
-0.171532
-0.166029
-0.160328
-0.154444
-0.148365
-0.142165
-0.135831
-0.129389
-0.122867
-0.116289
-0.109681
-0.103071
-0.0964869
-0.0899551
-0.0835019
-0.0771522
-0.0709304
-0.0648592
-0.0589592
-0.0532491
-0.0477452
-0.0424617
-0.0374103
-0.0326004
-0.028039
-0.0237308
-0.0196787
-0.015883
-0.0123426
-0.0090545
-0.00601436
-0.00321641
-0.000653839
0.00168112
0.00379695
0.00570271
0.00740787
0.00892215
0.0102554
0.0114175
0.0124182
0.0132672
0.0139737
0.0145468
0.0149951
0.015327
0.0155501
0.015672
0.0156993
0.0156386
0.0154957
0.0152759
0.0149842
0.014625
0.0142021
0.0137192
0.0131788
0.0125839
0.0119358
0.0112373
0.0104869
0.00969005
0.00883751
0.00794686
0.00698185
0.0060097
0.00489352
0.00388951
0.00247464
0.00155657
-0.272978
-0.272321
-0.271648
-0.2709
-0.270103
-0.26926
-0.26837
-0.267438
-0.266464
-0.265453
-0.264405
-0.263323
-0.262208
-0.261062
-0.259887
-0.258684
-0.257454
-0.256197
-0.254915
-0.253606
-0.25227
-0.250909
-0.249517
-0.248088
-0.246615
-0.245103
-0.243571
-0.241994
-0.240313
-0.238568
-0.23675
-0.234845
-0.232839
-0.230723
-0.228483
-0.226107
-0.223582
-0.220897
-0.218038
-0.214994
-0.211753
-0.208307
-0.204645
-0.200765
-0.196644
-0.192294
-0.18772
-0.182912
-0.177876
-0.172618
-0.167146
-0.161471
-0.155609
-0.149571
-0.143384
-0.137065
-0.130636
-0.124123
-0.117551
-0.110946
-0.104337
-0.0977501
-0.0912127
-0.0847517
-0.0783921
-0.0721583
-0.066073
-0.0601573
-0.0544299
-0.0489073
-0.0436039
-0.0385316
-0.0336998
-0.0291158
-0.0247844
-0.0207084
-0.0168885
-0.0133235
-0.0100105
-0.00694523
-0.00412201
-0.00153408
0.00082627
0.00296747
0.00489852
0.00662885
0.00816815
0.00952621
0.0107129
0.0117379
0.0126109
0.013341
0.0139375
0.0144088
0.0147632
0.0150086
0.0151522
0.015201
0.0151612
0.0150389
0.0148393
0.0145675
0.0142278
0.0138242
0.0133601
0.0128384
0.0122621
0.0116323
0.0109522
0.0102201
0.00944179
0.00860777
0.00773624
0.00679078
0.00583799
0.0047453
0.00375603
0.00238328
0.00145239
-0.273194
-0.272567
-0.271904
-0.271151
-0.27035
-0.269504
-0.268613
-0.26768
-0.266706
-0.265693
-0.264644
-0.263562
-0.262446
-0.2613
-0.260124
-0.25892
-0.257689
-0.256433
-0.255152
-0.253849
-0.252518
-0.25115
-0.249746
-0.248339
-0.24691
-0.245433
-0.243884
-0.242288
-0.240639
-0.238917
-0.237123
-0.235244
-0.233268
-0.231182
-0.228976
-0.226636
-0.224149
-0.221503
-0.218685
-0.215683
-0.212487
-0.209084
-0.205467
-0.201627
-0.197559
-0.193259
-0.188726
-0.18396
-0.178964
-0.173745
-0.168309
-0.162669
-0.156838
-0.15083
-0.144669
-0.138372
-0.131964
-0.125467
-0.118908
-0.112314
-0.105712
-0.0991296
-0.0925936
-0.0861311
-0.0797676
-0.0735275
-0.0674336
-0.0615071
-0.0557669
-0.0502297
-0.0449099
-0.0398197
-0.0349685
-0.0303638
-0.0260105
-0.0219115
-0.0180675
-0.0144776
-0.0111389
-0.00804725
-0.00519706
-0.00258164
-0.000193401
0.00197601
0.00393553
0.00569447
0.00726246
0.00864923
0.00986454
0.0109181
0.0118194
0.0125776
0.0132019
0.0137007
0.0140822
0.0143544
0.0145243
0.014599
0.0145848
0.0144876
0.0143127
0.0140651
0.0137493
0.0133692
0.0129284
0.0124297
0.0118761
0.011269
0.0106114
0.00990185
0.00914637
0.00833526
0.00748717
0.00656598
0.0056369
0.00457328
0.00360299
0.00227967
0.0013424
-0.272772
-0.272104
-0.271361
-0.27056
-0.269714
-0.268826
-0.267896
-0.266924
-0.265914
-0.264867
-0.263786
-0.262672
-0.261526
-0.260351
-0.259148
-0.257919
-0.256666
-0.255384
-0.254068
-0.25273
-0.251399
-0.250044
-0.248627
-0.247169
-0.245677
-0.244151
-0.242578
-0.240946
-0.239249
-0.237477
-0.235621
-0.23367
-0.231613
-0.229438
-0.227131
-0.224681
-0.222073
-0.219295
-0.216336
-0.213182
-0.209825
-0.206254
-0.20246
-0.198439
-0.194185
-0.189699
-0.184979
-0.180028
-0.174852
-0.169459
-0.163859
-0.158065
-0.152094
-0.145966
-0.139701
-0.13332
-0.126848
-0.120312
-0.113737
-0.107151
-0.100582
-0.0940559
-0.0876007
-0.0812417
-0.0750033
-0.0689086
-0.0629786
-0.0572324
-0.0516869
-0.0463564
-0.0412532
-0.0363871
-0.0317654
-0.0273932
-0.0232735
-0.0194072
-0.0157934
-0.0124295
-0.0093113
-0.00643341
-0.00378929
-0.00137144
0.000828334
0.00281884
0.0046093
0.00620918
0.00762813
0.00887579
0.00996175
0.0108954
0.011686
0.0123423
0.012873
0.0132862
0.0135895
0.0137903
0.0138955
0.0139112
0.0138436
0.0136978
0.013479
0.0131915
0.0128393
0.012426
0.0119546
0.0114281
0.0108478
0.0102172
0.00953448
0.00880617
0.00802244
0.00720219
0.00631013
0.00540922
0.00438025
0.00343366
0.0021663
0.00123102
-0.272923
-0.272219
-0.271497
-0.270703
-0.269862
-0.26898
-0.268057
-0.267093
-0.266089
-0.265048
-0.263972
-0.262862
-0.26172
-0.260548
-0.259347
-0.258119
-0.256858
-0.255576
-0.254303
-0.252996
-0.251631
-0.250243
-0.248831
-0.247393
-0.245919
-0.244402
-0.242838
-0.241219
-0.239536
-0.237782
-0.235946
-0.234019
-0.231987
-0.229839
-0.227563
-0.225145
-0.222572
-0.219832
-0.216912
-0.213801
-0.210487
-0.20696
-0.203213
-0.199239
-0.195034
-0.190595
-0.185924
-0.181021
-0.175893
-0.170547
-0.164993
-0.159245
-0.153317
-0.14723
-0.141004
-0.13466
-0.128223
-0.121718
-0.115173
-0.108614
-0.102068
-0.095563
-0.0891256
-0.0827813
-0.0765547
-0.0704687
-0.0645443
-0.0588007
-0.0532546
-0.0479208
-0.0428113
-0.037936
-0.0333023
-0.0289156
-0.0247788
-0.020893
-0.0172574
-0.0138696
-0.0107256
-0.00782014
-0.0051468
-0.00269832
-0.000466639
0.00155685
0.0033812
0.00501573
0.0064699
0.00775323
0.00887516
0.00984498
0.0106717
0.0113643
0.0119309
0.0123799
0.0127187
0.0129547
0.0130946
0.0131447
0.0131109
0.0129987
0.0128128
0.0125579
0.0122379
0.0118565
0.0114166
0.0109214
0.0103723
0.0097728
0.00912127
0.00842441
0.00767254
0.00688449
0.00602639
0.0051581
0.00416923
0.00325138
0.00204552
0.00112158
-0.272986
-0.272215
-0.271525
-0.270747
-0.269914
-0.269043
-0.268134
-0.267182
-0.26619
-0.265159
-0.264092
-0.26299
-0.261855
-0.260688
-0.25949
-0.258263
-0.257034
-0.255779
-0.254464
-0.253128
-0.251779
-0.250409
-0.249007
-0.247573
-0.246103
-0.244593
-0.243038
-0.241429
-0.239759
-0.238019
-0.236199
-0.23429
-0.232279
-0.230155
-0.227904
-0.225515
-0.222973
-0.220267
-0.217383
-0.21431
-0.211037
-0.207554
-0.203852
-0.199925
-0.195768
-0.191379
-0.186758
-0.181907
-0.17683
-0.171536
-0.166033
-0.160336
-0.15446
-0.148422
-0.142244
-0.135947
-0.129555
-0.123093
-0.116588
-0.110067
-0.103557
-0.0970841
-0.090676
-0.084358
-0.0781542
-0.0720876
-0.0661791
-0.0604477
-0.0549102
-0.0495813
-0.044473
-0.0395953
-0.0349558
-0.0305596
-0.0264101
-0.0225084
-0.0188539
-0.0154443
-0.0122758
-0.00934337
-0.0066409
-0.00416128
-0.00189668
0.000161275
0.00202142
0.00369287
0.00518489
0.00650679
0.00766783
0.00867714
0.00954364
0.010276
0.0108824
0.011371
0.0117493
0.0120244
0.0122031
0.0122917
0.0122959
0.0122212
0.0120724
0.0118542
0.0115704
0.0112249
0.0108206
0.0103608
0.0098469
0.00928265
0.00866644
0.00800515
0.00728947
0.00653782
0.0057183
0.00488699
0.00394327
0.00305929
0.00191949
0.00101631
-0.272941
-0.272055
-0.271402
-0.270652
-0.269831
-0.268976
-0.268086
-0.267154
-0.266179
-0.265165
-0.264112
-0.263023
-0.261899
-0.260742
-0.259555
-0.258353
-0.257114
-0.255833
-0.254537
-0.25322
-0.251877
-0.250506
-0.249106
-0.247676
-0.246211
-0.244706
-0.243156
-0.241555
-0.239893
-0.238163
-0.236356
-0.234461
-0.232466
-0.23036
-0.228131
-0.225765
-0.223251
-0.220574
-0.217722
-0.214684
-0.211449
-0.208006
-0.204348
-0.200467
-0.196358
-0.19202
-0.187451
-0.182653
-0.177632
-0.172394
-0.166949
-0.16131
-0.155492
-0.149513
-0.143392
-0.137151
-0.130815
-0.124408
-0.117955
-0.111484
-0.105021
-0.0985933
-0.0922269
-0.085947
-0.0797779
-0.073742
-0.0678602
-0.0621513
-0.056632
-0.0513169
-0.0462179
-0.0413452
-0.0367061
-0.0323062
-0.0281488
-0.0242351
-0.0205649
-0.017136
-0.0139448
-0.0109866
-0.0082555
-0.00574469
-0.00344662
-0.00135316
0.000544241
0.00225443
0.00378644
0.00514935
0.00635219
0.0074039
0.0083132
0.00908857
0.00973819
0.0102699
0.0106911
0.011009
0.0112301
0.0113607
0.0114066
0.0113732
0.0112652
0.0110874
0.0108436
0.0105377
0.0101728
0.00975212
0.00927722
0.00875199
0.00817497
0.0075531
0.00687763
0.00616631
0.00538969
0.00459948
0.00370541
0.0028603
0.00179008
0.000916511
-0.271701
-0.27108
-0.270366
-0.269564
-0.268733
-0.267869
-0.266964
-0.266014
-0.265023
-0.263992
-0.262922
-0.261815
-0.26067
-0.259488
-0.258293
-0.257057
-0.255798
-0.254514
-0.253202
-0.251863
-0.250497
-0.249101
-0.247675
-0.246213
-0.244712
-0.243166
-0.241569
-0.239913
-0.23819
-0.236391
-0.234506
-0.232523
-0.230432
-0.228219
-0.225873
-0.22338
-0.220729
-0.217906
-0.214899
-0.211699
-0.208295
-0.204678
-0.200842
-0.196782
-0.192494
-0.187979
-0.183238
-0.178276
-0.173099
-0.167718
-0.162143
-0.156391
-0.150479
-0.144425
-0.138252
-0.131982
-0.12564
-0.119252
-0.112843
-0.10644
-0.10007
-0.0937573
-0.0875279
-0.0814053
-0.0754116
-0.0695674
-0.0638913
-0.0583998
-0.0531073
-0.0480259
-0.0431654
-0.0385334
-0.0341355
-0.0299751
-0.0260537
-0.0223711
-0.0189256
-0.0157138
-0.0127312
-0.00997236
-0.00743067
-0.00509894
-0.00296937
-0.00103371
0.000716592
0.00229026
0.00369611
0.00494294
0.00603942
0.00699408
0.00781521
0.0085108
0.00908855
0.00955579
0.00991948
0.0101862
0.010362
0.0104528
0.0104638
0.0104
0.0102658
0.0100653
0.00980246
0.00948017
0.00910201
0.00866953
0.00818673
0.00765239
0.00707341
0.00644179
0.00577436
0.00504445
0.00429912
0.0034586
0.00265699
0.00165892
0.000822782
-0.271093
-0.270497
-0.269823
-0.269052
-0.268254
-0.267426
-0.266556
-0.265642
-0.264684
-0.263683
-0.262641
-0.261559
-0.260436
-0.259271
-0.258068
-0.256851
-0.255611
-0.254341
-0.25304
-0.25171
-0.25035
-0.248959
-0.247537
-0.246079
-0.244581
-0.243038
-0.241443
-0.239791
-0.238073
-0.236279
-0.2344
-0.232426
-0.230345
-0.228146
-0.225815
-0.223341
-0.220711
-0.217913
-0.214936
-0.211768
-0.2084
-0.204824
-0.201032
-0.19702
-0.192785
-0.188326
-0.183645
-0.178746
-0.173635
-0.168323
-0.16282
-0.157142
-0.151305
-0.145328
-0.139232
-0.13304
-0.126775
-0.120463
-0.114129
-0.107798
-0.101497
-0.0952508
-0.0890837
-0.083019
-0.0770786
-0.0712825
-0.0656492
-0.0601948
-0.0549335
-0.0498774
-0.0450362
-0.0404176
-0.0360273
-0.0318687
-0.0279437
-0.0242523
-0.0207929
-0.0175627
-0.0145574
-0.0117719
-0.0091999
-0.0068347
-0.00466879
-0.0026943
-0.000902999
0.000713511
0.00216374
0.00345618
0.00459928
0.0056013
0.00647032
0.00721415
0.00784031
0.00835599
0.00876802
0.00908287
0.00930663
0.00944498
0.00950323
0.00948623
0.00939854
0.00924417
0.0090271
0.00875038
0.00841762
0.00803049
0.00759307
0.00710445
0.0065714
0.0059868
0.00536637
0.00468649
0.00398935
0.00320557
0.00245156
0.00152734
0.000735231
-0.269571
-0.268941
-0.268218
-0.267469
-0.266691
-0.265869
-0.265001
-0.264088
-0.263129
-0.262125
-0.261076
-0.259981
-0.258832
-0.257613
-0.256427
-0.255219
-0.253975
-0.252694
-0.251377
-0.250026
-0.248644
-0.247227
-0.245774
-0.244279
-0.242739
-0.241148
-0.239498
-0.237782
-0.235992
-0.234119
-0.232151
-0.230078
-0.227889
-0.225571
-0.223113
-0.220502
-0.217727
-0.214777
-0.21164
-0.208308
-0.204771
-0.201024
-0.197062
-0.192881
-0.188481
-0.183863
-0.179031
-0.173992
-0.168755
-0.163332
-0.157735
-0.151982
-0.146092
-0.140084
-0.13398
-0.127803
-0.121579
-0.11533
-0.109084
-0.102864
-0.0966949
-0.0906013
-0.0846053
-0.0787284
-0.0729903
-0.0674088
-0.0620001
-0.0567779
-0.0517543
-0.046939
-0.0423397
-0.037962
-0.0338099
-0.0298852
-0.0261882
-0.0227178
-0.0194713
-0.016445
-0.0136341
-0.0110327
-0.00863453
-0.00643244
-0.00441895
-0.00258621
-0.000926181
0.000569325
0.0019085
0.00309948
0.00415029
0.00506876
0.00586251
0.00653886
0.00710485
0.00756718
0.0079322
0.00820593
0.00839397
0.00850161
0.00853368
0.00849473
0.00838879
0.00821987
0.00799109
0.00770612
0.00736681
0.00697726
0.00653691
0.00605233
0.0055174
0.00494662
0.00431947
0.00367336
0.00294882
0.00224587
0.00139646
0.000653676
-0.268189
-0.267624
-0.26698
-0.266304
-0.265591
-0.264834
-0.264029
-0.263174
-0.26227
-0.261317
-0.260316
-0.259265
-0.258161
-0.256987
-0.255763
-0.254577
-0.253372
-0.25212
-0.250824
-0.249489
-0.248118
-0.246711
-0.245265
-0.243777
-0.242241
-0.240653
-0.239007
-0.237295
-0.235508
-0.233638
-0.231676
-0.22961
-0.22743
-0.225124
-0.222681
-0.220088
-0.217336
-0.214411
-0.211306
-0.208009
-0.204514
-0.200813
-0.196902
-0.192778
-0.18844
-0.183889
-0.17913
-0.174169
-0.169014
-0.163677
-0.15817
-0.152511
-0.146715
-0.140805
-0.134799
-0.128721
-0.122595
-0.116443
-0.110291
-0.104163
-0.098082
-0.0920717
-0.0861541
-0.0803499
-0.0746783
-0.0691568
-0.0638012
-0.0586251
-0.0536403
-0.0488566
-0.0442817
-0.0399214
-0.0357797
-0.0318588
-0.0281594
-0.0246805
-0.02142
-0.0183745
-0.0155395
-0.0129099
-0.0104794
-0.00824165
-0.00618939
-0.00431521
-0.00261143
-0.00107024
0.000316231
0.00155583
0.00265629
0.00362521
0.00446997
0.00519771
0.00581529
0.00632929
0.00674593
0.00707113
0.00731044
0.00746908
0.00755189
0.00756341
0.00750768
0.00738873
0.00720975
0.0069745
0.00668496
0.00634526
0.00595523
0.00552118
0.00503805
0.00451906
0.00394678
0.00335398
0.00269052
0.00204143
0.00126714
0.000577771
-0.266223
-0.265777
-0.265258
-0.264685
-0.264062
-0.26339
-0.262667
-0.261889
-0.261056
-0.260169
-0.259229
-0.258234
-0.257178
-0.256047
-0.254821
-0.253653
-0.252489
-0.251279
-0.250015
-0.248703
-0.24735
-0.245959
-0.244526
-0.243047
-0.241519
-0.239938
-0.238297
-0.23659
-0.234808
-0.232944
-0.230988
-0.22893
-0.226759
-0.224465
-0.222037
-0.219464
-0.216734
-0.213837
-0.210763
-0.207504
-0.204051
-0.200399
-0.196542
-0.192479
-0.188207
-0.183729
-0.179049
-0.174171
-0.169105
-0.163861
-0.158453
-0.152894
-0.147203
-0.141399
-0.135501
-0.129531
-0.123512
-0.117467
-0.111418
-0.10539
-0.0994061
-0.0934876
-0.0876563
-0.0819324
-0.0763345
-0.0708798
-0.0655836
-0.0604593
-0.0555188
-0.0507715
-0.0462255
-0.0418865
-0.0377588
-0.033845
-0.0301459
-0.026661
-0.0233887
-0.0203258
-0.0174684
-0.0148118
-0.0123502
-0.0100776
-0.00798726
-0.00607211
-0.0043249
-0.00273817
-0.00130439
-1.60345e-05
0.00113435
0.00215409
0.00305036
0.00383008
0.00449994
0.00506638
0.00553549
0.00591309
0.00620466
0.00641538
0.00655004
0.00661321
0.00660894
0.00654127
0.00641346
0.00622932
0.00599101
0.00570265
0.00536449
0.00498254
0.00455282
0.00408726
0.00357143
0.00303369
0.00243254
0.00183944
0.00114004
0.000507083
-0.263326
-0.262985
-0.26255
-0.262045
-0.261485
-0.260866
-0.260184
-0.259442
-0.258639
-0.257777
-0.256857
-0.255877
-0.254828
-0.253691
-0.252406
-0.251293
-0.250149
-0.248935
-0.247655
-0.246325
-0.244953
-0.243537
-0.242073
-0.240557
-0.238986
-0.237355
-0.235655
-0.233882
-0.232025
-0.230078
-0.22803
-0.225871
-0.223591
-0.221181
-0.218628
-0.215922
-0.213055
-0.210016
-0.206796
-0.20339
-0.199789
-0.195991
-0.191992
-0.187792
-0.183392
-0.178795
-0.174007
-0.169036
-0.163893
-0.158589
-0.153139
-0.14756
-0.141869
-0.136086
-0.130232
-0.124328
-0.118396
-0.11246
-0.10654
-0.100659
-0.0948391
-0.0891008
-0.0834634
-0.0779451
-0.0725626
-0.067331
-0.0622636
-0.0573718
-0.0526653
-0.048152
-0.043838
-0.0397278
-0.0358241
-0.0321282
-0.0286399
-0.025358
-0.0222799
-0.0194021
-0.0167202
-0.014229
-0.0119229
-0.00979562
-0.00784051
-0.00605071
-0.00441913
-0.0029386
-0.00160192
-0.000401907
0.000668489
0.00161619
0.00244794
0.00317023
0.00378933
0.00431124
0.00474166
0.00508598
0.00534934
0.0055365
0.00565201
0.00569997
0.00568441
0.00560869
0.00547659
0.00529051
0.00505452
0.00476931
0.00444055
0.00406537
0.00365438
0.00319607
0.00271463
0.00217647
0.00164085
0.00101568
0.000441153
-0.260289
-0.260171
-0.259909
-0.259553
-0.259126
-0.258628
-0.258057
-0.257418
-0.25671
-0.255936
-0.255096
-0.254189
-0.253213
-0.252167
-0.251038
-0.249722
-0.248616
-0.247492
-0.24628
-0.244999
-0.243667
-0.242283
-0.240844
-0.23935
-0.237798
-0.236182
-0.234497
-0.232737
-0.230894
-0.228959
-0.226926
-0.224783
-0.222521
-0.220131
-0.217603
-0.214926
-0.212092
-0.209091
-0.205916
-0.202559
-0.199016
-0.195281
-0.191352
-0.187228
-0.182911
-0.178404
-0.173712
-0.168842
-0.163806
-0.158613
-0.153279
-0.147818
-0.142247
-0.136586
-0.130854
-0.125072
-0.119261
-0.113441
-0.107635
-0.101863
-0.0961475
-0.0905071
-0.0849608
-0.0795265
-0.0742203
-0.069057
-0.0640497
-0.0592098
-0.0545469
-0.050069
-0.0457824
-0.0416917
-0.0378
-0.0341091
-0.030619
-0.027329
-0.0242369
-0.0213398
-0.0186336
-0.0161137
-0.0137748
-0.0116112
-0.00961665
-0.00778468
-0.0061086
-0.00458156
-0.00319671
-0.00194716
-0.000826126
0.000173075
0.00105696
0.00183187
0.00250389
0.0030789
0.00356249
0.00395998
0.00427644
0.00451661
0.00468501
0.00478578
0.00482297
0.00480001
0.0047207
0.00458761
0.00440475
0.00417328
0.0038985
0.00357861
0.00322301
0.00282285
0.00239853
0.00192361
0.00144644
0.000894497
0.00037961
-0.256846
-0.256811
-0.256653
-0.256397
-0.256049
-0.255617
-0.255104
-0.254514
-0.253851
-0.253117
-0.252311
-0.251435
-0.250482
-0.249439
-0.248301
-0.247057
-0.245913
-0.244733
-0.243492
-0.242195
-0.24084
-0.239426
-0.237955
-0.236423
-0.234827
-0.23316
-0.231417
-0.229591
-0.227675
-0.22566
-0.223538
-0.2213
-0.218937
-0.216438
-0.213796
-0.211002
-0.208046
-0.204922
-0.201623
-0.198143
-0.194479
-0.190628
-0.186589
-0.182363
-0.177953
-0.173365
-0.168606
-0.163684
-0.15861
-0.153398
-0.148062
-0.142619
-0.137086
-0.131481
-0.125825
-0.120138
-0.114439
-0.10875
-0.10309
-0.0974803
-0.0919393
-0.0864854
-0.0811356
-0.075906
-0.0708109
-0.0658634
-0.0610747
-0.0564546
-0.0520112
-0.0477509
-0.0436786
-0.0397979
-0.0361106
-0.0326176
-0.0293183
-0.0262112
-0.0232935
-0.020562
-0.0180124
-0.0156399
-0.0134392
-0.0114044
-0.00952954
-0.00780827
-0.00623411
-0.0048005
-0.00350087
-0.00232867
-0.00127748
-0.000340956
0.000487033
0.00121245
0.00184102
0.00237825
0.00282939
0.00319944
0.00349312
0.00371494
0.00386904
0.0039595
0.00398986
0.00396392
0.00388444
0.00375535
0.00357824
0.00335808
0.00309408
0.00279445
0.00245287
0.00208622
0.00167457
0.00125648
0.000776665
0.000322194
-0.252468
-0.252666
-0.252727
-0.252671
-0.252507
-0.252244
-0.251888
-0.251444
-0.250917
-0.250308
-0.24962
-0.248854
-0.248005
-0.247067
-0.24601
-0.244834
-0.243714
-0.242593
-0.241433
-0.240216
-0.238927
-0.237568
-0.236144
-0.234653
-0.233094
-0.23146
-0.229748
-0.22795
-0.226062
-0.224075
-0.221982
-0.219773
-0.217442
-0.214979
-0.212376
-0.209625
-0.206717
-0.203647
-0.200407
-0.196993
-0.1934
-0.189628
-0.185674
-0.18154
-0.177228
-0.172744
-0.168094
-0.163286
-0.158331
-0.153241
-0.148031
-0.142715
-0.13731
-0.131833
-0.126304
-0.120742
-0.115166
-0.109596
-0.104051
-0.0985509
-0.0931138
-0.0877572
-0.0824978
-0.0773512
-0.0723313
-0.0674511
-0.0627217
-0.0581528
-0.0537525
-0.0495275
-0.0454829
-0.0416224
-0.0379484
-0.0344618
-0.0311627
-0.0280497
-0.0251208
-0.0223728
-0.0198022
-0.0174044
-0.0151745
-0.0131072
-0.0111968
-0.00943724
-0.0078225
-0.00634628
-0.00500232
-0.00378433
-0.0026861
-0.00170155
-0.000824701
-4.97655e-05
0.000628852
0.00121654
0.00171846
0.00213954
0.00248445
0.00275767
0.00296335
0.00310558
0.00318796
0.00321428
0.0031875
0.00311147
0.00298819
0.00282226
0.00261385
0.00237004
0.00208683
0.0017779
0.00142908
0.00107038
0.000661448
0.000268333
-0.249181
-0.249388
-0.249469
-0.249435
-0.249292
-0.249049
-0.248711
-0.248283
-0.24777
-0.247174
-0.246501
-0.245753
-0.244936
-0.244055
-0.243081
-0.2419
-0.240656
-0.239475
-0.238271
-0.237
-0.23566
-0.234253
-0.23278
-0.231235
-0.229615
-0.227914
-0.226127
-0.224248
-0.222269
-0.220184
-0.217985
-0.215664
-0.213213
-0.210623
-0.207888
-0.205001
-0.201954
-0.198742
-0.195362
-0.191808
-0.18808
-0.184178
-0.180101
-0.175854
-0.171442
-0.16687
-0.162147
-0.157284
-0.152291
-0.147184
-0.141976
-0.136683
-0.131323
-0.125913
-0.120471
-0.115017
-0.109569
-0.104145
-0.0987647
-0.0934445
-0.0882015
-0.0830516
-0.0780096
-0.073089
-0.068302
-0.0636594
-0.0591705
-0.0548433
-0.0506841
-0.0466981
-0.0428889
-0.0392589
-0.0358093
-0.0325402
-0.0294506
-0.0265386
-0.0238016
-0.0212361
-0.0188382
-0.0166031
-0.014526
-0.0126014
-0.0108239
-0.00918758
-0.00768658
-0.00631493
-0.00506666
-0.00393585
-0.00291666
-0.00200336
-0.00119038
-0.000472319
0.000156052
0.000699741
0.00116357
0.0015521
0.00186974
0.0021206
0.0023087
0.00243767
0.00251126
0.00253257
0.00250531
0.00243183
0.0023164
0.00216001
0.00196872
0.00174053
0.00148632
0.00119683
0.000894831
0.000552408
0.000218531
-0.244702
-0.245046
-0.245261
-0.245356
-0.245336
-0.245206
-0.244972
-0.24464
-0.244214
-0.243698
-0.243092
-0.242398
-0.24161
-0.240719
-0.239704
-0.238626
-0.237614
-0.236539
-0.23539
-0.234167
-0.232871
-0.231503
-0.230063
-0.228546
-0.226949
-0.225268
-0.223498
-0.221634
-0.219668
-0.217594
-0.215406
-0.213096
-0.210658
-0.208083
-0.205365
-0.202498
-0.199477
-0.196296
-0.192952
-0.189441
-0.185764
-0.181919
-0.177908
-0.173735
-0.169405
-0.164924
-0.1603
-0.155544
-0.150666
-0.14568
-0.1406
-0.13544
-0.130218
-0.124949
-0.119652
-0.114343
-0.109041
-0.103763
-0.0985263
-0.0933472
-0.0882417
-0.0832249
-0.0783106
-0.0735118
-0.0688398
-0.0643051
-0.0599166
-0.0556817
-0.0516069
-0.047697
-0.0439556
-0.0403854
-0.0369875
-0.0337623
-0.030709
-0.0278261
-0.0251113
-0.0225614
-0.0201728
-0.0179414
-0.0158625
-0.0139313
-0.0121425
-0.0104908
-0.00897052
-0.0075762
-0.00630216
-0.0051428
-0.00409257
-0.00314603
-0.00229784
-0.00154282
-0.000875963
-0.000292416
0.000212479
0.000643174
0.00100395
0.00129886
0.00153184
0.00170653
0.00182659
0.00189522
0.00191602
0.00189164
0.00182595
0.00172075
0.00158104
0.00140676
0.001206
0.000974244
0.000727144
0.000448802
0.000171333
-0.239962
-0.240438
-0.240785
-0.241009
-0.241111
-0.241097
-0.240972
-0.240742
-0.240412
-0.239986
-0.239464
-0.238847
-0.238134
-0.237324
-0.236429
-0.23549
-0.234506
-0.233456
-0.232335
-0.231145
-0.229882
-0.228544
-0.227131
-0.225639
-0.224064
-0.222402
-0.220649
-0.2188
-0.216848
-0.214788
-0.212613
-0.210318
-0.207895
-0.205339
-0.202642
-0.199801
-0.19681
-0.193664
-0.190362
-0.1869
-0.183277
-0.179496
-0.175557
-0.171463
-0.16722
-0.162835
-0.158315
-0.15367
-0.148911
-0.14405
-0.139101
-0.134078
-0.128996
-0.123871
-0.11872
-0.113558
-0.108404
-0.103273
-0.0981806
-0.0931438
-0.0881769
-0.0832942
-0.0785087
-0.0738327
-0.0692771
-0.0648516
-0.060565
-0.0564243
-0.0524358
-0.0486042
-0.0449332
-0.0414253
-0.0380819
-0.0349035
-0.0318896
-0.029039
-0.0263496
-0.0238187
-0.0214429
-0.0192185
-0.0171413
-0.0152067
-0.01341
-0.011746
-0.0102097
-0.00879571
-0.00749879
-0.00631364
-0.00523501
-0.0042577
-0.00337663
-0.00258685
-0.00188353
-0.001262
-0.000717772
-0.000246507
0.000155958
0.000493601
0.000770266
0.000989586
0.00115514
0.00127022
0.00133826
0.00136222
0.00134559
0.00129088
0.00120211
0.00108099
0.000932996
0.000758015
0.000565002
0.0003493
0.000127007
-0.235233
-0.235833
-0.236302
-0.236646
-0.236864
-0.236958
-0.236936
-0.236804
-0.236568
-0.236229
-0.235791
-0.235255
-0.234624
-0.233902
-0.233101
-0.232229
-0.231287
-0.230276
-0.229197
-0.228045
-0.226819
-0.225516
-0.224133
-0.222668
-0.221117
-0.219478
-0.217745
-0.215915
-0.213981
-0.211939
-0.209783
-0.207507
-0.205105
-0.202572
-0.199903
-0.197092
-0.194136
-0.191031
-0.187775
-0.184366
-0.180804
-0.17709
-0.173225
-0.169214
-0.165061
-0.160773
-0.156359
-0.151826
-0.147185
-0.142449
-0.137629
-0.132741
-0.127797
-0.122813
-0.117805
-0.112787
-0.107777
-0.102788
-0.0978372
-0.0929385
-0.0881061
-0.0833534
-0.0786928
-0.0741358
-0.069693
-0.0653736
-0.0611858
-0.0571366
-0.053232
-0.0494766
-0.0458741
-0.0424271
-0.039137
-0.0360046
-0.0330296
-0.0302109
-0.0275469
-0.025035
-0.0226724
-0.0204556
-0.0183807
-0.0164437
-0.0146399
-0.0129647
-0.0114134
-0.00998094
-0.00866236
-0.00745266
-0.00634687
-0.00534004
-0.00442735
-0.00360403
-0.00286546
-0.00220714
-0.00162473
-0.00111402
-0.000670958
-0.000291638
2.76901e-05
0.000290651
0.000500726
0.000661306
0.000775654
0.000847005
0.000878478
0.00087327
0.000834439
0.000765348
0.000669023
0.000549397
0.000409268
0.000254125
8.54413e-05
-0.230551
-0.231266
-0.231847
-0.232299
-0.232621
-0.232815
-0.232889
-0.232848
-0.232698
-0.232442
-0.232084
-0.231625
-0.231071
-0.230424
-0.229692
-0.228877
-0.227986
-0.227029
-0.225996
-0.224887
-0.223699
-0.222431
-0.22108
-0.219644
-0.218121
-0.216507
-0.214798
-0.21299
-0.211078
-0.209057