/*--------------------------------*- C++ -*----------------------------------*\
  =========                 |
  \\      /  F ield         | OpenFOAM: The Open Source CFD Toolbox
   \\    /   O peration     | Website:  https://openfoam.org
    \\  /    A nd           | Version:  7
     \\/     M anipulation  |
\*---------------------------------------------------------------------------*/
FoamFile
{
    version     2.0;
    format      ascii;
    class       volVectorField;
    location    "24.999";
    object      U;
}
// * * * * * * * * * * * * * * * * * * * * * * * * * * * * * * * * * * * * * //

dimensions      [0 1 -1 0 0 0 0];

internalField   nonuniform List<vector> 
11400
(
(-0.185408 0.0019315 8.38856e-21)
(-0.189865 0.00180523 1.40027e-21)
(-0.194072 0.00169253 -4.90336e-21)
(-0.198026 0.00158983 -4.58636e-21)
(-0.20175 0.00149779 5.10987e-21)
(-0.205269 0.00141541 7.52836e-22)
(-0.208605 0.00134164 -5.12285e-21)
(-0.211775 0.0012755 5.50277e-21)
(-0.214797 0.00121611 -2.69658e-21)
(-0.217685 0.00116264 5.78893e-21)
(-0.220453 0.00111435 -5.34945e-21)
(-0.223111 0.00107051 1.17069e-21)
(-0.22567 0.00103049 -4.57261e-22)
(-0.228137 0.000993675 2.90571e-21)
(-0.230519 0.000959489 -8.76475e-23)
(-0.232822 0.000927386 -3.64614e-21)
(-0.235049 0.000896816 3.52819e-21)
(-0.237203 0.000867199 4.03432e-22)
(-0.239287 0.000837911 -2.88075e-21)
(-0.241298 0.000808284 -6.33927e-22)
(-0.243236 0.000777603 -2.24073e-22)
(-0.245096 0.000745134 -6.56605e-22)
(-0.246873 0.000710081 1.12709e-21)
(-0.24856 0.000671693 -7.05045e-22)
(-0.250146 0.000629181 4.21009e-22)
(-0.251621 0.000581758 9.51425e-22)
(-0.25297 0.000528773 6.56212e-22)
(-0.254179 0.000469444 -2.0464e-21)
(-0.255231 0.000403315 -9.39058e-22)
(-0.256107 0.000329306 1.29322e-21)
(-0.256785 0.000246571 -1.7171e-21)
(-0.257243 0.000155811 2.75162e-22)
(-0.257463 5.97885e-05 1.09434e-21)
(-0.257426 -5.15257e-05 9.2772e-23)
(-0.257107 -0.000174779 2.14154e-21)
(-0.256475 -0.000308898 -2.81733e-21)
(-0.255505 -0.000453638 1.33689e-21)
(-0.254168 -0.000608965 2.78236e-22)
(-0.252437 -0.000774812 -2.0252e-21)
(-0.250288 -0.000951005 1.65975e-21)
(-0.247693 -0.00113725 -1.45152e-21)
(-0.244628 -0.00133312 1.1593e-21)
(-0.241069 -0.00153804 1.57294e-21)
(-0.236993 -0.00175129 -1.85368e-22)
(-0.232381 -0.00197205 -9.72247e-22)
(-0.227214 -0.0021991 -1.95605e-22)
(-0.221478 -0.00243178 -2.08959e-21)
(-0.215158 -0.00266907 9.67066e-22)
(-0.208244 -0.00290982 1.56116e-21)
(-0.200727 -0.00315278 1.05805e-21)
(-0.192602 -0.0033966 -3.29386e-21)
(-0.183869 -0.00363986 1.61118e-21)
(-0.174528 -0.0038812 -3.82628e-22)
(-0.164586 -0.0041191 1.39444e-21)
(-0.154052 -0.00435169 -2.0406e-21)
(-0.142939 -0.00457826 1.85709e-21)
(-0.131262 -0.00479734 -1.35732e-21)
(-0.119042 -0.00500756 -2.20565e-22)
(-0.106296 -0.00520857 7.09606e-22)
(-0.0930531 -0.00539693 5.83984e-22)
(-0.0793432 -0.0055733 -1.74526e-21)
(-0.0651964 -0.00573641 7.09535e-22)
(-0.0506403 -0.00588875 4.33106e-22)
(-0.0357115 -0.00602301 -1.36988e-23)
(-0.0204493 -0.00614332 -2.27942e-22)
(-0.00488804 -0.00624826 -1.2012e-23)
(0.0109333 -0.00633736 -5.62922e-23)
(0.0269765 -0.00641113 -1.80743e-24)
(0.0432031 -0.00646942 1.91983e-22)
(0.059575 -0.00651241 -8.03443e-23)
(0.0760545 -0.00654046 -6.34721e-23)
(0.0926049 -0.00655402 -1.41239e-22)
(0.109191 -0.00655366 1.07728e-22)
(0.125777 -0.00654004 -3.89243e-23)
(0.142332 -0.00651387 -4.87318e-23)
(0.158825 -0.00647595 6.38194e-23)
(0.175226 -0.00642712 -4.47874e-23)
(0.191509 -0.00636825 -2.54738e-23)
(0.20765 -0.00630021 -1.69557e-24)
(0.223625 -0.0062239 -2.52405e-23)
(0.239414 -0.00614021 7.2045e-24)
(0.255 -0.00605 7.98625e-24)
(0.270365 -0.00595414 -6.11764e-25)
(0.285497 -0.00585345 2.35926e-24)
(0.300382 -0.00574869 -2.60747e-24)
(0.315011 -0.00564063 1.93943e-23)
(0.329377 -0.00552996 -4.90292e-23)
(0.343471 -0.00541734 3.87318e-23)
(0.357289 -0.00530338 -2.66341e-24)
(0.370828 -0.00518863 -1.48708e-23)
(0.384086 -0.00507361 2.67815e-24)
(0.397062 -0.00495879 5.17863e-23)
(0.409755 -0.00484459 -4.61859e-23)
(0.422168 -0.00473138 5.05778e-23)
(0.434303 -0.00461953 -1.18797e-23)
(0.446163 -0.00450931 -6.61204e-23)
(0.457751 -0.00440101 4.75642e-23)
(0.469073 -0.00429485 4.00384e-23)
(0.480134 -0.00419105 -5.38051e-23)
(0.490939 -0.00408978 7.44895e-23)
(0.501494 -0.00399118 -5.83384e-23)
(0.511806 -0.00389541 9.19443e-24)
(0.521882 -0.00380257 4.06039e-24)
(0.531728 -0.00371276 5.12849e-23)
(0.541354 -0.00362609 -4.19642e-26)
(0.550766 -0.00354262 1.94852e-24)
(0.559973 -0.00346244 4.99589e-24)
(0.56898 -0.00338559 -1.53619e-23)
(0.577803 -0.0033122 8.71151e-25)
(0.586435 -0.00324228 -1.45139e-23)
(0.594918 -0.00317591 2.35095e-23)
(0.603191 -0.00311335 -3.68872e-24)
(0.611412 -0.00305408 3.88835e-24)
(0.619279 -0.00299991 -5.07479e-24)
(0.627446 -0.00294683 8.40739e-25)
(0.634605 -0.00290428 5.73592e-24)
(0.643466 -0.002853 3.78069e-24)
(0.648583 -0.00283059 9.31465e-25)
(0.661242 -0.00277245 -4.1704e-25)
(-0.177646 0.00570486 -5.95551e-21)
(-0.181889 0.00533168 1.40914e-20)
(-0.1859 0.00499785 -5.59262e-21)
(-0.189668 0.00469187 -5.7785e-21)
(-0.19321 0.00441688 6.99073e-21)
(-0.196547 0.00417025 7.26745e-22)
(-0.199701 0.00394894 -1.24175e-20)
(-0.202689 0.00375017 1.14641e-20)
(-0.205527 0.00357132 -1.84038e-21)
(-0.208228 0.00340995 -1.32336e-20)
(-0.210805 0.00326383 7.22458e-21)
(-0.213268 0.00313088 -2.02543e-21)
(-0.215627 0.00300915 1.01749e-20)
(-0.21789 0.00289684 -1.14262e-20)
(-0.220062 0.00279225 1.1967e-20)
(-0.222149 0.00269376 -9.77274e-22)
(-0.224155 0.00259974 -7.23932e-22)
(-0.226083 0.00250848 7.57811e-21)
(-0.227934 0.00241813 -3.52082e-21)
(-0.229707 0.0023267 -4.21559e-21)
(-0.231402 0.00223207 -2.67379e-21)
(-0.233014 0.00213205 5.32367e-21)
(-0.234538 0.00202426 -1.81227e-21)
(-0.235967 0.00190645 -5.56655e-21)
(-0.237292 0.00177627 1.72142e-22)
(-0.2385 0.00163146 -4.53338e-21)
(-0.23958 0.00147043 7.63598e-21)
(-0.240517 0.0012908 -1.00349e-20)
(-0.241294 0.00109102 8.38822e-21)
(-0.241894 0.000867392 1.11357e-21)
(-0.242294 0.000622645 1.63971e-21)
(-0.242468 0.000362295 6.19498e-21)
(-0.242411 5.55554e-05 -8.25763e-21)
(-0.242102 -0.000285543 -1.94189e-21)
(-0.241507 -0.000657331 -3.71304e-21)
(-0.2406 -0.00105998 1.15246e-20)
(-0.239357 -0.0014938 -9.31781e-21)
(-0.237751 -0.00195895 3.8262e-21)
(-0.235756 -0.00245524 5.99635e-21)
(-0.233348 -0.00298212 4.18357e-21)
(-0.2305 -0.00353868 -1.48994e-20)
(-0.227189 -0.00412363 1.42069e-20)
(-0.223392 -0.00473522 -1.73467e-20)
(-0.219087 -0.00537133 5.83388e-21)
(-0.214254 -0.00602949 2.45738e-21)
(-0.208878 -0.0067058 1.93885e-21)
(-0.202943 -0.00739838 -3.1971e-21)
(-0.196437 -0.00810432 2.23067e-21)
(-0.18935 -0.00882014 -1.42812e-21)
(-0.181673 -0.00954214 1.52001e-21)
(-0.173404 -0.0102663 -1.57513e-21)
(-0.16454 -0.0109883 -2.74194e-21)
(-0.155085 -0.0117042 3.17594e-22)
(-0.145043 -0.0124096 2.18522e-21)
(-0.134425 -0.0130983 1.04388e-22)
(-0.123246 -0.0137689 5.48334e-23)
(-0.111521 -0.0144168 -2.62782e-21)
(-0.09927 -0.0150381 3.39759e-21)
(-0.0865104 -0.0156334 -4.93568e-22)
(-0.0732699 -0.0161889 -1.16329e-21)
(-0.059581 -0.0167081 7.61712e-22)
(-0.0454756 -0.0171879 5.4078e-22)
(-0.0309754 -0.0176384 7.00482e-22)
(-0.0161179 -0.0180322 -8.45661e-22)
(-0.000946395 -0.0183831 -1.06829e-21)
(0.0145088 -0.0186895 7.94239e-22)
(0.0302081 -0.0189499 3.23822e-22)
(0.0461137 -0.0191642 5.20792e-22)
(0.0621882 -0.0193324 -5.42159e-22)
(0.0783941 -0.0194552 -5.7334e-23)
(0.0946944 -0.0195336 2.76914e-22)
(0.111053 -0.0195691 -5.81056e-22)
(0.127436 -0.0195634 -6.58284e-23)
(0.143808 -0.0195184 8.99874e-22)
(0.160139 -0.0194363 -1.4464e-22)
(0.176399 -0.0193195 -7.10174e-22)
(0.192559 -0.0191705 1.56849e-22)
(0.208594 -0.0189918 -1.01223e-22)
(0.22448 -0.0187862 1.83227e-22)
(0.240196 -0.0185561 -7.87982e-24)
(0.25572 -0.0183044 -1.53347e-23)
(0.271037 -0.0180336 -1.13534e-23)
(0.286132 -0.0177461 9.01954e-24)
(0.30099 -0.0174445 -6.97996e-24)
(0.3156 -0.017131 -3.97317e-23)
(0.329953 -0.0168079 -4.25706e-23)
(0.344042 -0.0164773 1.7886e-22)
(0.357861 -0.016141 -5.19507e-23)
(0.371404 -0.0158009 -1.59274e-22)
(0.38467 -0.0154586 1.48858e-22)
(0.397656 -0.0151156 -1.99635e-22)
(0.410362 -0.0147734 2.8105e-22)
(0.422789 -0.0144331 -1.2847e-22)
(0.434938 -0.0140959 -5.98191e-23)
(0.446812 -0.0137627 9.93088e-23)
(0.458415 -0.0134346 -1.51644e-22)
(0.46975 -0.0131122 3.4718e-23)
(0.480822 -0.0127962 1.75139e-22)
(0.491637 -0.0124873 7.6567e-23)
(0.502201 -0.012186 -9.43743e-23)
(0.512519 -0.0118927 3.4089e-23)
(0.522599 -0.0116078 4.08192e-23)
(0.532447 -0.0113316 -6.58652e-23)
(0.54207 -0.0110645 2.23252e-23)
(0.551477 -0.0108067 -1.90147e-23)
(0.560674 -0.0105585 3.67105e-23)
(0.569672 -0.0103201 -4.02913e-23)
(0.578473 -0.0100916 8.65952e-23)
(0.587096 -0.00987332 -1.91114e-23)
(0.595531 -0.00966545 5.4517e-23)
(0.603824 -0.00946812 -3.87742e-23)
(0.611908 -0.00928218 8.44242e-24)
(0.619947 -0.00910595 2.94676e-24)
(0.627634 -0.00894507 2.33951e-23)
(0.635628 -0.00878721 -4.80307e-24)
(0.642615 -0.00866097 -1.62647e-24)
(0.651303 -0.00850868 -7.44306e-24)
(0.656287 -0.00844182 -5.68444e-24)
(0.66869 -0.00827064 2.04298e-24)
(-0.162164 0.00921201 1.15284e-20)
(-0.165996 0.00860813 1.11251e-20)
(-0.16963 0.00806461 -2.70473e-20)
(-0.173044 0.00756024 1.70917e-20)
(-0.176236 0.00710396 -4.49876e-21)
(-0.17923 0.00669279 -1.16458e-21)
(-0.18204 0.00632219 2.18098e-20)
(-0.184682 0.00598785 -2.69382e-20)
(-0.187171 0.00568565 -1.19202e-22)
(-0.189518 0.00541171 2.52652e-20)
(-0.191734 0.00516244 -4.06277e-20)
(-0.193829 0.00493451 4.15487e-20)
(-0.195811 0.00472479 -7.51411e-21)
(-0.197687 0.00453037 -1.26511e-20)
(-0.199463 0.00434854 -5.96143e-21)
(-0.201143 0.00417672 7.10845e-21)
(-0.202732 0.00401233 -4.43688e-22)
(-0.204231 0.00385265 -1.68404e-20)
(-0.205642 0.00369467 2.17921e-20)
(-0.206966 0.00353518 1.45033e-20)
(-0.208201 0.00337066 -2.24865e-20)
(-0.209343 0.00319762 1.3227e-20)
(-0.210388 0.00301198 -2.69077e-22)
(-0.211328 0.00281025 -1.99022e-20)
(-0.212156 0.00258861 2.71309e-21)
(-0.212861 0.00234338 -5.86926e-21)
(-0.21343 0.00207205 -7.27546e-21)
(-0.21385 0.00176859 2.93566e-21)
(-0.214107 0.0014316 2.068e-20)
(-0.21418 0.00106277 -9.01432e-21)
(-0.214042 0.000669664 4.90596e-22)
(-0.2137 0.00021353 5.36008e-21)
(-0.213133 -0.000306218 -2.15297e-21)
(-0.212297 -0.00087235 -3.12973e-24)
(-0.211176 -0.00148724 -4.88751e-21)
(-0.20975 -0.00215251 3.26825e-21)
(-0.207993 -0.00286889 -5.26448e-21)
(-0.20588 -0.00363657 1.03653e-20)
(-0.203388 -0.00445519 -2.71466e-23)
(-0.200493 -0.00532379 4.00654e-21)
(-0.197171 -0.00624085 5.35423e-22)
(-0.1934 -0.00720425 -5.86773e-21)
(-0.189159 -0.0082111 -3.31915e-21)
(-0.184427 -0.00925781 1.00025e-20)
(-0.179185 -0.0103405 -1.40272e-20)
(-0.173419 -0.0114519 6.55615e-21)
(-0.167118 -0.0125893 -7.81726e-21)
(-0.160269 -0.0137481 1.46272e-20)
(-0.152863 -0.0149226 -1.43863e-21)
(-0.144895 -0.0161066 -1.44227e-21)
(-0.136361 -0.0172935 -9.7092e-21)
(-0.127263 -0.018476 -1.78758e-21)
(-0.117602 -0.0196482 4.51208e-21)
(-0.107383 -0.0208044 -1.71741e-21)
(-0.0966203 -0.021929 1.81158e-21)
(-0.0853288 -0.0230234 3.64792e-21)
(-0.0735238 -0.0240797 -2.76022e-22)
(-0.0612298 -0.0250924 1.99417e-22)
(-0.0484568 -0.0260663 -2.93761e-21)
(-0.0352322 -0.0269702 1.43548e-21)
(-0.0215951 -0.0278144 1.70586e-21)
(-0.0075827 -0.028596 -1.7398e-21)
(0.00679803 -0.0293078 1.12662e-21)
(0.0215124 -0.029948 -3.09105e-21)
(0.036501 -0.0305143 2.73602e-21)
(0.0517424 -0.0310057 1.42204e-22)
(0.0671993 -0.0314212 -7.57779e-22)
(0.0828344 -0.0317602 8.88853e-23)
(0.0986112 -0.0320232 2.38673e-21)
(0.114493 -0.0322115 -1.49922e-21)
(0.130445 -0.0323269 1.10284e-22)
(0.146433 -0.0323717 1.154e-21)
(0.162423 -0.032349 -2.25347e-21)
(0.178383 -0.0322618 7.1997e-22)
(0.194283 -0.032114 -1.96811e-22)
(0.210095 -0.0319095 1.41618e-22)
(0.225794 -0.0316524 1.96608e-22)
(0.241354 -0.031347 -5.92081e-23)
(0.256753 -0.0309977 -9.57722e-23)
(0.271971 -0.0306089 1.42918e-22)
(0.286991 -0.0301848 -5.92192e-23)
(0.301796 -0.02973 -1.91286e-24)
(0.316373 -0.0292483 8.62406e-23)
(0.33071 -0.028744 -1.04943e-22)
(0.344796 -0.0282208 -5.30554e-23)
(0.358625 -0.0276822 1.30726e-22)
(0.372188 -0.0271318 -1.2719e-22)
(0.385482 -0.0265727 -1.59001e-23)
(0.398503 -0.0260078 7.78514e-23)
(0.411248 -0.0254399 2.37809e-23)
(0.423718 -0.0248713 -2.0913e-22)
(0.435912 -0.0243044 4.59122e-22)
(0.447832 -0.0237411 -1.70805e-22)
(0.45948 -0.0231834 -4.52894e-22)
(0.470859 -0.0226327 2.69819e-22)
(0.481973 -0.0220906 -9.15375e-23)
(0.492827 -0.0215583 1.22703e-22)
(0.503425 -0.0210369 1.03557e-22)
(0.513774 -0.0205275 -2.23883e-22)
(0.523879 -0.0200307 1.96503e-22)
(0.533748 -0.0195474 -2.24768e-22)
(0.543385 -0.0190782 5.02184e-23)
(0.5528 -0.0186237 -2.81781e-22)
(0.561998 -0.0181842 1.04138e-22)
(0.570989 -0.0177603 5.09486e-23)
(0.579778 -0.0173522 -4.69293e-23)
(0.588376 -0.0169605 -1.17499e-23)
(0.596787 -0.0165852 -4.76893e-23)
(0.605028 -0.016227 -5.6256e-23)
(0.613089 -0.015886 -8.12605e-23)
(0.621017 -0.0155624 7.85738e-23)
(0.628742 -0.0152579 -5.08269e-23)
(0.636434 -0.0149692 -3.87985e-23)
(0.643776 -0.0147063 2.64651e-23)
(0.65144 -0.0144479 -3.44696e-23)
(0.658102 -0.0142422 1.24723e-23)
(0.666456 -0.0139942 -1.92602e-23)
(0.671185 -0.0138843 5.26226e-24)
(0.683099 -0.0136105 -6.1487e-24)
(-0.139007 0.0122971 2.76084e-20)
(-0.142263 0.0114915 -2.0283e-20)
(-0.145367 0.0107587 8.94988e-21)
(-0.14829 0.0100655 -2.73336e-21)
(-0.151002 0.00943196 -8.17649e-22)
(-0.153521 0.00885694 -2.39126e-20)
(-0.15586 0.0083352 2.23233e-20)
(-0.15803 0.00786149 2.65782e-21)
(-0.160043 0.0074305 -1.43218e-21)
(-0.161908 0.00703721 -1.64397e-20)
(-0.163633 0.0066769 2.20207e-20)
(-0.165228 0.00634517 3.44112e-22)
(-0.166697 0.0060379 1.98206e-20)
(-0.168048 0.00575124 -3.01474e-20)
(-0.169284 0.00548161 5.77712e-21)
(-0.170411 0.00522569 2.14164e-20)
(-0.17143 0.00498018 -3.65571e-20)
(-0.172345 0.00474149 3.18508e-20)
(-0.173158 0.0045056 4.61394e-21)
(-0.173867 0.0042682 1.24956e-21)
(-0.174473 0.00402442 1.66637e-21)
(-0.174973 0.00376989 -9.879e-21)
(-0.175362 0.0034988 -3.02405e-20)
(-0.175635 0.00320702 -4.74096e-21)
(-0.175784 0.00288903 4.51953e-20)
(-0.175797 0.0025376 -2.12096e-20)
(-0.175668 0.00214841 -5.35532e-21)
(-0.175383 0.00171704 -4.43196e-21)
(-0.174922 0.00126159 7.07396e-21)
(-0.174262 0.000754556 -5.95697e-21)
(-0.173419 0.00016968 -1.03612e-20)
(-0.172375 -0.00049569 2.30139e-20)
(-0.171082 -0.00121358 -2.11179e-20)
(-0.169527 -0.00199535 8.9552e-21)
(-0.167693 -0.00284495 -6.08427e-21)
(-0.165559 -0.00376365 2.07821e-20)
(-0.163103 -0.00475217 -1.60042e-20)
(-0.160302 -0.00581061 1.22274e-20)
(-0.157136 -0.00693835 1.07792e-20)
(-0.153583 -0.00813402 -2.0749e-20)
(-0.149621 -0.00939549 -7.74227e-21)
(-0.145231 -0.0107198 8.89539e-21)
(-0.140393 -0.0121031 2.01507e-21)
(-0.135091 -0.0135401 -4.3508e-22)
(-0.129305 -0.0150275 1.14375e-20)
(-0.123023 -0.0165518 -1.41773e-20)
(-0.116237 -0.0181095 -3.97852e-21)
(-0.108938 -0.0196962 1.36206e-20)
(-0.101117 -0.0213032 5.28822e-21)
(-0.0927719 -0.0229218 -1.05516e-20)
(-0.0838997 -0.024543 1.34562e-20)
(-0.0745046 -0.0261571 -2.21379e-20)
(-0.0645917 -0.0277575 1.46488e-20)
(-0.0541574 -0.029342 -8.21891e-21)
(-0.04322 -0.030871 4.2461e-21)
(-0.0318023 -0.032359 3.91693e-21)
(-0.0199162 -0.033796 -5.00158e-21)
(-0.00759522 -0.0351732 3.39357e-21)
(0.00516335 -0.0364768 2.37364e-21)
(0.0183381 -0.0377011 -9.00056e-22)
(0.0318731 -0.0388442 -3.72302e-22)
(0.0457449 -0.0398995 -3.79703e-21)
(0.0599324 -0.040845 3.7129e-21)
(0.0744044 -0.0417043 5.61093e-22)
(0.0891168 -0.0424604 -2.66351e-21)
(0.10404 -0.0431111 2.9747e-21)
(0.119138 -0.0436565 9.96965e-22)
(0.134376 -0.0440962 3.82155e-22)
(0.149719 -0.0444313 -2.20007e-21)
(0.165133 -0.0446636 1.7685e-21)
(0.180584 -0.0447958 -6.55429e-22)
(0.19604 -0.0448313 1.12378e-22)
(0.21147 -0.0447741 4.56726e-23)
(0.226844 -0.044629 4.06731e-22)
(0.242134 -0.0444011 -1.3668e-22)
(0.257315 -0.0440959 -5.08152e-22)
(0.272363 -0.0437192 -4.68654e-24)
(0.287255 -0.043277 1.5388e-23)
(0.301971 -0.0427754 -1.97316e-23)
(0.316495 -0.0422204 4.56631e-23)
(0.330809 -0.0416181 1.98525e-23)
(0.3449 -0.0409745 3.97952e-24)
(0.358757 -0.0402952 8.96992e-23)
(0.372368 -0.0395858 -1.7389e-22)
(0.385727 -0.0388516 3.87924e-24)
(0.398826 -0.0380974 6.98845e-23)
(0.411661 -0.037328 -4.89445e-23)
(0.424228 -0.0365476 -2.33795e-22)
(0.436524 -0.0357604 4.13391e-22)
(0.44855 -0.0349699 -2.3355e-22)
(0.460306 -0.0341795 2.70838e-23)
(0.471792 -0.0333923 -6.79707e-23)
(0.483011 -0.0326111 2.04803e-22)
(0.493966 -0.0318382 -2.33153e-22)
(0.504661 -0.0310758 3.63069e-22)
(0.5151 -0.030326 -4.04942e-22)
(0.525289 -0.0295903 3.43483e-22)
(0.535233 -0.0288704 -6.84888e-22)
(0.544937 -0.0281674 4.56692e-22)
(0.55441 -0.0274825 -2.50796e-22)
(0.563656 -0.0268166 1.65803e-22)
(0.572683 -0.0261706 1.30229e-22)
(0.581499 -0.0255451 -1.10255e-22)
(0.59011 -0.0249409 5.5162e-23)
(0.598525 -0.0243584 -3.07273e-23)
(0.60675 -0.0237982 1.87794e-22)
(0.614796 -0.0232607 -5.9508e-23)
(0.622665 -0.0227463 2.99805e-23)
(0.630378 -0.0222555 -1.21492e-22)
(0.637919 -0.0217889 4.99056e-24)
(0.645342 -0.0213462 1.26228e-23)
(0.652569 -0.0209305 1.14005e-23)
(0.65978 -0.020536 9.94863e-25)
(0.666643 -0.0201784 2.09577e-23)
(0.673847 -0.019826 -1.58429e-23)
(0.680057 -0.0195473 2.11121e-23)
(0.687942 -0.0192115 9.24944e-25)
(0.692324 -0.0190609 -1.70879e-24)
(0.70355 -0.0186995 4.41605e-24)
(-0.108159 0.0148303 -2.60781e-20)
(-0.11071 0.0138713 4.05386e-20)
(-0.113175 0.01298 -3.53998e-21)
(-0.115515 0.0121139 -1.9995e-20)
(-0.117661 0.0113115 -6.04083e-21)
(-0.119624 0.0105757 -8.35479e-21)
(-0.121413 0.00990227 -9.50459e-21)
(-0.123035 0.00928582 3.55976e-20)
(-0.124495 0.00872037 -1.39644e-21)
(-0.125801 0.0082001 -1.38962e-20)
(-0.12696 0.00771955 1.6359e-20)
(-0.127975 0.0072735 -6.56915e-21)
(-0.128853 0.00685706 -3.67538e-20)
(-0.129597 0.00646565 2.63293e-20)
(-0.130209 0.00609506 -3.68646e-20)
(-0.130695 0.00574148 1.55215e-20)
(-0.131054 0.00540119 4.92308e-20)
(-0.131292 0.00507004 -2.06406e-20)
(-0.131408 0.00474311 2.26808e-21)
(-0.131403 0.00441544 4.56858e-22)
(-0.131277 0.00408093 -1.50578e-20)
(-0.131027 0.00373505 1.12125e-20)
(-0.130651 0.00336867 -4.88969e-21)
(-0.130141 0.00297543 -1.01687e-20)
(-0.129496 0.0025464 -6.16954e-21)
(-0.128705 0.0020795 8.63204e-21)
(-0.127757 0.00159393 1.96006e-20)
(-0.126625 0.00106152 -1.7719e-20)
(-0.125317 0.000445171 8.18624e-21)
(-0.12385 -0.000249668 -8.20369e-21)
(-0.122183 -0.00102912 -6.58727e-21)
(-0.120283 -0.00186819 6.81192e-21)
(-0.118142 -0.00278007 1.50045e-20)
(-0.115746 -0.00377211 -2.43662e-20)
(-0.113076 -0.00484743 2.01114e-20)
(-0.110116 -0.00600802 -2.87833e-20)
(-0.106845 -0.00725495 1.84858e-20)
(-0.103245 -0.00858836 4.63209e-21)
(-0.0992962 -0.0100074 2.04291e-21)
(-0.094981 -0.0115103 -3.68445e-21)
(-0.090281 -0.0130943 -8.27163e-21)
(-0.085179 -0.0147554 1.51063e-20)
(-0.0796588 -0.0164888 -1.45913e-20)
(-0.0737095 -0.0182889 3.65817e-21)
(-0.0673092 -0.0201577 -1.08957e-20)
(-0.0604448 -0.0220682 -7.14557e-21)
(-0.0531169 -0.024014 2.11895e-20)
(-0.0453186 -0.0259953 -1.33712e-20)
(-0.037043 -0.0280014 4.24871e-21)
(-0.0282879 -0.0300209 -1.11746e-20)
(-0.0190541 -0.0320428 3.7499e-21)
(-0.0093498 -0.0340555 1.44343e-20)
(0.000810995 -0.0360453 4.7639e-21)
(0.011454 -0.0379949 -6.67251e-21)
(0.0225573 -0.039897 -4.4879e-21)
(0.0340748 -0.0417447 1.59357e-21)
(0.0460067 -0.0435257 8.86797e-21)
(0.0583272 -0.0452293 -1.2386e-20)
(0.0710211 -0.0468259 1.2421e-20)
(0.0840696 -0.0483335 -3.28874e-21)
(0.0974324 -0.0497365 2.41849e-21)
(0.111082 -0.0510249 -3.38015e-21)
(0.124992 -0.0521863 -4.47476e-21)
(0.139133 -0.0532261 5.08609e-21)
(0.153467 -0.054136 -6.29264e-21)
(0.167963 -0.0549137 4.49912e-21)
(0.182587 -0.0555583 -1.88131e-21)
(0.197307 -0.0560698 3.91433e-22)
(0.212091 -0.0564497 -7.95672e-22)
(0.226905 -0.0567003 -1.67248e-21)
(0.241719 -0.0568254 -6.64009e-23)
(0.256504 -0.0568293 3.77954e-22)
(0.27123 -0.0567174 6.86709e-22)
(0.285872 -0.0564957 -1.81568e-22)
(0.300403 -0.056171 -4.69256e-24)
(0.314801 -0.0557502 -7.01301e-22)
(0.329045 -0.0552408 1.32437e-21)
(0.343115 -0.0546504 -5.07903e-22)
(0.356994 -0.0539869 -1.58283e-23)
(0.370667 -0.0532578 -2.41029e-22)
(0.38412 -0.052471 9.65027e-23)
(0.397342 -0.0516339 7.15751e-23)
(0.410323 -0.0507536 1.24558e-22)
(0.423056 -0.0498372 -1.14956e-22)
(0.435533 -0.0488913 1.71659e-23)
(0.447752 -0.047922 -3.17818e-22)
(0.459707 -0.0469352 5.66122e-22)
(0.471398 -0.0459364 -2.13961e-22)
(0.482824 -0.0449305 1.53327e-23)
(0.493985 -0.043922 -2.0903e-22)
(0.504883 -0.0429152 1.51446e-22)
(0.51552 -0.0419138 3.7621e-22)
(0.525899 -0.0409212 -3.59567e-22)
(0.536025 -0.0399404 1.70794e-22)
(0.545902 -0.038974 5.41485e-24)
(0.555534 -0.0380246 -7.01583e-23)
(0.564928 -0.037094 2.34973e-22)
(0.574089 -0.0361842 -2.91296e-22)
(0.583025 -0.0352967 -1.76448e-25)
(0.591741 -0.0344328 1.40265e-22)
(0.600245 -0.0335936 -2.09183e-22)
(0.608543 -0.0327802 1.49407e-22)
(0.616643 -0.0319935 -9.85605e-23)
(0.624553 -0.031234 3.39762e-22)
(0.63228 -0.0305026 -3.30319e-22)
(0.639831 -0.0297998 -3.88938e-23)
(0.647217 -0.029126 -1.19268e-22)
(0.65444 -0.0284819 1.06302e-22)
(0.661519 -0.0278678 -4.61823e-23)
(0.66844 -0.0272849 7.54248e-23)
(0.675258 -0.026732 -2.66737e-23)
(0.681887 -0.0262142 -2.99652e-23)
(0.688521 -0.0257224 9.20488e-23)
(0.69481 -0.0252789 1.71608e-23)
(0.701459 -0.0248407 3.5516e-23)
(0.707132 -0.0244965 -1.9034e-23)
(0.714445 -0.0240833 3.56614e-24)
(0.718417 -0.0238946 6.40969e-25)
(0.728806 -0.0234627 -4.94094e-24)
(-0.069437 0.0167314 1.76639e-20)
(-0.0711928 0.0156938 -4.21051e-20)
(-0.0729725 0.0146733 3.9518e-20)
(-0.0746983 0.0136576 -6.0577e-20)
(-0.0762518 0.0127004 2.92634e-20)
(-0.0776372 0.0118105 1.94874e-21)
(-0.0788568 0.0109874 3.31539e-20)
(-0.0799118 0.0102265 -4.20043e-20)
(-0.0808048 0.00952195 2.73881e-22)
(-0.0815383 0.00886756 1.3159e-21)
(-0.082115 0.00825755 2.97551e-20)
(-0.0825374 0.00768627 -3.63984e-20)
(-0.0828078 0.0071483 6.0436e-20)
(-0.082928 0.00663858 -9.22912e-20)
(-0.0828994 0.00615252 9.421e-20)
(-0.0827236 0.00568607 -9.88989e-21)
(-0.0824022 0.00523564 -2.16476e-20)
(-0.0819377 0.00479706 -4.21567e-20)
(-0.0813312 0.004365 7.08323e-21)
(-0.080584 0.00393438 6.39116e-20)
(-0.0796938 0.00349527 -5.49818e-20)
(-0.0786623 0.00304151 4.08897e-20)
(-0.0774872 0.0025627 -5.37673e-20)
(-0.0761639 0.00206936 4.5731e-20)
(-0.0746854 0.00155453 -2.25276e-20)
(-0.0730186 0.000997702 1.46349e-20)
(-0.0711867 0.00035639 -5.90975e-20)
(-0.0692179 -0.000350431 3.4069e-21)
(-0.0670728 -0.00114866 1.35851e-20)
(-0.0647105 -0.00202457 2.80989e-20)
(-0.0621348 -0.00295503 -8.50063e-21)
(-0.0593376 -0.00396461 -6.40925e-21)
(-0.0563043 -0.00506328 5.86623e-20)
(-0.0530195 -0.00625563 -3.22952e-20)
(-0.0494691 -0.00754497 2.27949e-20)
(-0.0456377 -0.00893357 -5.99021e-20)
(-0.0415099 -0.0104227 1.46409e-20)
(-0.0370699 -0.0120126 2.24793e-20)
(-0.0323023 -0.0137022 -1.62486e-20)
(-0.0271916 -0.0154895 2.19012e-20)
(-0.0217233 -0.0173712 -3.2198e-20)
(-0.0158831 -0.019343 1.73656e-20)
(-0.00965878 -0.0213994 2.07257e-20)
(-0.00305124 -0.0235351 -2.7741e-20)
(0.00396696 -0.0257348 2.7566e-20)
(0.0114211 -0.0279865 -1.16479e-20)
(0.019293 -0.0302873 -5.75497e-21)
(0.0275824 -0.0326278 5.95793e-23)
(0.0362989 -0.0349947 -6.24755e-21)
(0.0454425 -0.037375 7.90061e-21)
(0.0550104 -0.039756 6.65576e-21)
(0.064995 -0.0421244 8.18764e-22)
(0.0753858 -0.0444592 -7.29289e-21)
(0.0861852 -0.0467316 -1.53424e-21)
(0.0973796 -0.0489643 -7.04811e-21)
(0.108941 -0.0511267 7.25037e-21)
(0.120854 -0.0532049 9.36957e-21)
(0.133098 -0.0551869 -1.44738e-20)
(0.145652 -0.0570522 3.72679e-21)
(0.158496 -0.0588004 6.00194e-22)
(0.171598 -0.0604197 -5.43381e-22)
(0.184929 -0.0619006 9.17023e-21)
(0.198463 -0.063234 -8.6764e-21)
(0.21217 -0.0644174 1.2395e-21)
(0.226018 -0.0654454 -5.49322e-21)
(0.239975 -0.0663155 6.93482e-21)
(0.254012 -0.0670264 -5.63238e-22)
(0.268097 -0.0675787 -6.42906e-22)
(0.282201 -0.0679742 3.60613e-21)
(0.296295 -0.068216 -7.49557e-21)
(0.31035 -0.0683088 7.87066e-21)
(0.324339 -0.0682581 -1.95153e-21)
(0.338238 -0.0680706 -2.30788e-21)
(0.352023 -0.0677536 1.4903e-21)
(0.365671 -0.0673152 -2.57018e-21)
(0.379163 -0.0667642 2.6251e-21)
(0.392481 -0.0661095 -6.63372e-22)
(0.405608 -0.0653604 2.00987e-22)
(0.41853 -0.0645262 -5.05552e-22)
(0.431235 -0.0636163 1.76078e-22)
(0.443711 -0.0626398 4.26125e-23)
(0.45595 -0.0616057 7.23857e-23)
(0.467944 -0.0605226 -3.32621e-23)
(0.479689 -0.0593989 -1.58952e-23)
(0.49118 -0.0582422 1.37521e-22)
(0.502413 -0.0570602 -2.36152e-23)
(0.513389 -0.0558595 9.60476e-23)
(0.524106 -0.0546467 -4.96887e-22)
(0.534565 -0.0534275 5.23885e-22)
(0.544768 -0.0522074 -2.0227e-24)
(0.554717 -0.0509913 -6.39862e-22)
(0.564417 -0.0497835 -4.45498e-23)
(0.573871 -0.0485879 2.91044e-22)
(0.583083 -0.0474081 -8.92316e-23)
(0.59206 -0.0462472 9.31156e-22)
(0.600806 -0.0451078 -7.37467e-22)
(0.609328 -0.0439925 -2.9686e-22)
(0.617632 -0.0429031 7.26766e-22)
(0.625725 -0.0418416 -5.77115e-22)
(0.633613 -0.0408094 4.50658e-22)
(0.641305 -0.0398078 -1.41469e-23)
(0.648806 -0.0388379 -1.30692e-22)
(0.656124 -0.0379007 1.92809e-22)
(0.663267 -0.036997 2.02719e-22)
(0.670243 -0.0361275 4.89598e-23)
(0.677058 -0.0352927 -4.24768e-22)
(0.683722 -0.0344934 5.31254e-22)
(0.690238 -0.0337302 -3.50913e-22)
(0.696626 -0.0330032 2.79846e-22)
(0.702867 -0.0323142 -3.88532e-23)
(0.709023 -0.0316611 2.28759e-23)
(0.714999 -0.0310512 2.62673e-23)
(0.720999 -0.0304716 7.40914e-23)
(0.726662 -0.0299516 -5.86579e-23)
(0.732698 -0.0294371 -4.74721e-23)
(0.737785 -0.0290353 3.28057e-23)
(0.744461 -0.0285559 2.73889e-23)
(0.747992 -0.0283322 -3.61001e-24)
(0.757449 -0.0278464 5.82536e-24)
(-0.0222882 0.0181508 3.8113e-20)
(-0.0232975 0.0170022 -7.06623e-20)
(-0.02444 0.0158387 4.76491e-20)
(-0.0255917 0.0147034 2.10105e-20)
(-0.0266018 0.0136122 -2.47148e-20)
(-0.0274593 0.0125785 6.1569e-21)
(-0.0281598 0.0116102 2.82273e-20)
(-0.0287002 0.0107054 -2.73002e-20)
(-0.0290778 0.00985868 -4.38891e-20)
(-0.0292911 0.00906422 6.17418e-20)
(-0.0293389 0.00831639 -5.34492e-20)
(-0.0292209 0.00760953 3.9007e-20)
(-0.0289365 0.00693799 1.58444e-20)
(-0.0284853 0.00629645 1.03361e-20)
(-0.0278665 0.00568015 -4.02669e-20)
(-0.0270796 0.00508531 -6.35962e-21)
(-0.026125 0.00450952 -2.60135e-20)
(-0.0250052 0.00394898 3.2997e-20)
(-0.0237209 0.00339473 -1.55802e-20)
(-0.0222767 0.00283881 -9.14995e-21)
(-0.02067 0.00227591 2.14424e-20)
(-0.0189022 0.0017265 -3.897e-22)
(-0.0169553 0.00115981 4.55325e-20)
(-0.0148242 0.000543573 -6.08311e-20)
(-0.0125361 -0.000126617 3.91881e-20)
(-0.0101045 -0.000854339 -2.52916e-20)
(-0.00749423 -0.00167039 -1.75724e-20)
(-0.00466901 -0.00255064 5.38149e-20)
(-0.00165505 -0.00348338 -3.572e-20)
(0.00156844 -0.00449056 4.94828e-20)
(0.00501523 -0.00557971 -1.71008e-20)
(0.00868191 -0.00676241 -6.4449e-20)
(0.0125829 -0.00804336 2.57227e-20)
(0.016731 -0.00942749 2.8297e-21)
(0.0211372 -0.0109189 -2.07403e-20)
(0.0258133 -0.0125206 1.97376e-20)
(0.0307713 -0.014234 6.00209e-22)
(0.0360232 -0.0160596 6.84562e-21)
(0.0415809 -0.0179963 5.8373e-21)
(0.0474559 -0.0200418 4.21144e-21)
(0.0536591 -0.0221926 3.24332e-20)
(0.060201 -0.0244437 -7.69243e-20)
(0.0670907 -0.0267895 1.96962e-20)
(0.0743317 -0.0292231 4.52626e-21)
(0.081935 -0.0317154 2.63928e-20)
(0.0899162 -0.0342709 -1.92934e-20)
(0.0982709 -0.0368867 1.77943e-20)
(0.106998 -0.0395434 2.07474e-21)
(0.116097 -0.0422265 -1.51307e-20)
(0.125567 -0.0449214 -8.2448e-21)
(0.135403 -0.0476129 7.74859e-21)
(0.145597 -0.0502858 6.47646e-21)
(0.156137 -0.0529199 -9.72403e-21)
(0.167018 -0.055494 -3.91523e-21)
(0.178227 -0.0580041 1.83365e-20)
(0.189742 -0.0604308 -7.6118e-21)
(0.201546 -0.0627585 9.87424e-21)
(0.213616 -0.0649728 -1.03461e-20)
(0.225932 -0.0670561 6.17849e-22)
(0.238471 -0.0689999 -2.35049e-21)
(0.251207 -0.0707932 3.26832e-21)
(0.264112 -0.0724258 -2.039e-21)
(0.277159 -0.0738888 -2.57304e-21)
(0.290321 -0.0751774 8.72775e-21)
(0.303568 -0.0762867 -9.97322e-21)
(0.316872 -0.077214 -1.37749e-21)
(0.330206 -0.0779582 6.82211e-21)
(0.34354 -0.0785202 -4.09342e-21)
(0.356849 -0.0789025 6.86308e-22)
(0.370106 -0.0791091 5.48578e-21)
(0.383287 -0.0791455 -1.92125e-21)
(0.396368 -0.0790185 -4.62071e-22)
(0.409329 -0.0787358 2.3101e-21)
(0.422148 -0.0783064 4.20091e-22)
(0.434807 -0.0777397 -2.80972e-21)
(0.447289 -0.077046 1.32085e-21)
(0.459581 -0.0762357 -1.83528e-21)
(0.471668 -0.0753197 1.97844e-21)
(0.483539 -0.0743088 -1.31165e-21)
(0.495186 -0.0732137 1.19421e-21)
(0.5066 -0.0720451 -6.58404e-22)
(0.517774 -0.0708134 1.9099e-22)
(0.528704 -0.0695284 5.07747e-24)
(0.539387 -0.0681996 -1.55914e-23)
(0.549821 -0.066836 2.93898e-25)
(0.560004 -0.065446 3.18995e-22)
(0.569937 -0.0640375 -4.89152e-22)
(0.579621 -0.0626176 2.96037e-22)
(0.589058 -0.0611931 -3.90187e-22)
(0.598251 -0.0597701 4.15443e-22)
(0.607204 -0.0583539 -9.53813e-23)
(0.615921 -0.0569496 -6.77436e-22)
(0.624406 -0.0555615 8.64075e-22)
(0.632666 -0.0541935 -8.0335e-22)
(0.640705 -0.0528491 6.1024e-22)
(0.64853 -0.0515313 -3.78193e-22)
(0.656147 -0.0502428 3.67764e-22)
(0.663563 -0.0489857 2.53854e-22)
(0.670784 -0.0477621 -3.1541e-22)
(0.677818 -0.0465735 -1.29886e-22)
(0.684671 -0.0454214 -5.75724e-22)
(0.69135 -0.044307 1.24549e-22)
(0.697863 -0.0432312 -2.41388e-22)
(0.704217 -0.0421949 2.02492e-22)
(0.71042 -0.0411989 -2.72079e-22)
(0.716477 -0.0402439 1.16784e-22)
(0.722401 -0.0393303 8.05171e-23)
(0.728189 -0.0384591 -5.10225e-23)
(0.733867 -0.0376301 4.82458e-23)
(0.739411 -0.0368459 -9.03114e-23)
(0.744885 -0.036103 -3.43602e-23)
(0.750191 -0.0354113 6.58662e-23)
(0.755538 -0.0347536 7.34837e-23)
(0.760557 -0.0341668 -1.56176e-22)
(0.765959 -0.0335856 1.57742e-23)
(0.770449 -0.0331337 -4.66968e-24)
(0.776455 -0.0325996 -1.99444e-23)
(0.779545 -0.0323442 -8.13171e-24)
(0.788026 -0.0318189 -3.24045e-24)
(0.0336584 0.0178525 -2.2658e-20)
(0.0330436 0.0165503 2.48357e-20)
(0.032353 0.0153251 -5.91752e-20)