/*--------------------------------*- C++ -*----------------------------------*\
  =========                 |
  \\      /  F ield         | OpenFOAM: The Open Source CFD Toolbox
   \\    /   O peration     | Website:  https://openfoam.org
    \\  /    A nd           | Version:  7
     \\/     M anipulation  |
\*---------------------------------------------------------------------------*/
FoamFile
{
    version     2.0;
    format      ascii;
    class       volVectorField;
    location    "35";
    object      U;
}
// * * * * * * * * * * * * * * * * * * * * * * * * * * * * * * * * * * * * * //

dimensions      [0 1 -1 0 0 0 0];

internalField   nonuniform List<vector> 
3500
(
(1.1282 0.0314915 0)
(1.20339 0.0295537 0)
(1.23642 0.024791 0)
(1.24634 0.0217956 0)
(1.24585 0.0189906 0)
(1.24143 0.0166227 0)
(1.23581 0.0145204 0)
(1.23 0.0126326 0)
(1.22433 0.0109378 0)
(1.21885 0.00941837 0)
(1.21355 0.00806068 0)
(1.20844 0.00685357 0)
(1.20351 0.00578589 0)
(1.19877 0.00484745 0)
(1.19425 0.00402761 0)
(1.18995 0.00331566 0)
(1.18589 0.00270209 0)
(1.18209 0.00217757 0)
(1.17856 0.00173307 0)
(1.17529 0.00136015 0)
(1.17231 0.0010508 0)
(1.16961 0.000797666 0)
(1.1672 0.000593736 0)
(1.16509 0.000432145 0)
(1.16328 0.000306527 0)
(1.16176 0.000210864 0)
(1.16055 0.000139374 0)
(1.15964 8.6348e-05 0)
(1.15903 4.67957e-05 0)
(1.15872 1.44849e-05 0)
(1.12611 0.0342898 0)
(1.20105 0.032453 0)
(1.23436 0.0277053 0)
(1.24459 0.0246156 0)
(1.24436 0.0217096 0)
(1.24012 0.0192279 0)
(1.23464 0.017008 0)
(1.22896 0.0150029 0)
(1.22339 0.0131916 0)
(1.218 0.0115559 0)
(1.21279 0.0100826 0)
(1.20776 0.00876057 0)
(1.2029 0.007579 0)
(1.19824 0.00652766 0)
(1.19378 0.00559609 0)
(1.18954 0.00477384 0)
(1.18554 0.00405135 0)
(1.18179 0.00341934 0)
(1.17829 0.00286885 0)
(1.17507 0.00239142 0)
(1.17212 0.00197901 0)
(1.16945 0.00162414 0)
(1.16707 0.00131972 0)
(1.16498 0.00105885 0)
(1.16319 0.000834968 0)
(1.16169 0.000641954 0)
(1.16048 0.000473869 0)
(1.15958 0.000324852 0)
(1.15898 0.000189698 0)
(1.15868 6.21216e-05 0)
(1.12412 0.0370123 0)
(1.19874 0.0352722 0)
(1.23226 0.0305387 0)
(1.2428 0.0273598 0)
(1.24281 0.0243568 0)
(1.23875 0.0217649 0)
(1.23341 0.0194314 0)
(1.22784 0.0173131 0)
(1.22237 0.015389 0)
(1.21708 0.013641 0)
(1.21197 0.0120557 0)
(1.20702 0.0106225 0)
(1.20224 0.00933052 0)
(1.19765 0.00816971 0)
(1.19325 0.00712971 0)
(1.18907 0.00620028 0)
(1.18513 0.00537185 0)
(1.18142 0.00463519 0)
(1.17797 0.00398139 0)
(1.17479 0.00340197 0)
(1.17187 0.00288892 0)
(1.16924 0.0024346 0)
(1.16688 0.00203186 0)
(1.16482 0.00167375 0)
(1.16304 0.00135358 0)
(1.16156 0.00106511 0)
(1.16037 0.000802263 0)
(1.15947 0.000559035 0)
(1.15888 0.000330024 0)
(1.15858 0.000108897 0)
(1.12223 0.0396596 0)
(1.19646 0.0380118 0)
(1.23015 0.0332914 0)
(1.24096 0.0300283 0)
(1.24119 0.0269322 0)
(1.23731 0.0242339 0)
(1.23211 0.0217907 0)
(1.22666 0.0195631 0)
(1.2213 0.01753 0)
(1.21611 0.0156733 0)
(1.21108 0.0139799 0)
(1.20621 0.012439 0)
(1.20151 0.0110401 0)
(1.19699 0.00977324 0)
(1.19266 0.00862807 0)
(1.18854 0.00759456 0)
(1.18465 0.00666317 0)
(1.181 0.0058247 0)
(1.17759 0.00507028 0)
(1.17445 0.00439142 0)
(1.17157 0.00378013 0)
(1.16897 0.00322868 0)
(1.16664 0.00272983 0)
(1.1646 0.00227657 0)
(1.16284 0.00186212 0)
(1.16137 0.00148014 0)
(1.1602 0.00112439 0)
(1.15931 0.000788775 0)
(1.15872 0.000467701 0)
(1.15843 0.000154787 0)
(1.12042 0.0422327 0)
(1.19421 0.040672 0)
(1.22801 0.0359639 0)
(1.23907 0.0326214 0)
(1.23953 0.0294356 0)
(1.23582 0.0266347 0)
(1.23076 0.0240858 0)
(1.22542 0.0217527 0)
(1.22017 0.0196144 0)
(1.21507 0.0176528 0)
(1.21013 0.0158548 0)
(1.20535 0.0142099 0)
(1.20073 0.0127076 0)
(1.19628 0.011338 0)
(1.19201 0.0100909 0)
(1.18796 0.00895637 0)
(1.18412 0.00792496 0)
(1.18052 0.0069875 0)
(1.17716 0.00613516 0)
(1.17406 0.00535943 0)
(1.17121 0.00465233 0)
(1.16864 0.00400607 0)
(1.16634 0.00341333 0)
(1.16433 0.00286705 0)
(1.16259 0.00236038 0)
(1.16114 0.00188684 0)
(1.15998 0.0014401 0)
(1.1591 0.00101397 0)
(1.15852 0.000602665 0)
(1.15823 0.000199772 0)
(1.11869 0.044732 0)
(1.19198 0.0432533 0)
(1.22586 0.0385562 0)
(1.23714 0.0351389 0)
(1.2378 0.0318671 0)
(1.23426 0.0289673 0)
(1.22934 0.0263166 0)
(1.22413 0.023882 0)
(1.21898 0.0216422 0)
(1.21397 0.0195793 0)
(1.20913 0.0176804 0)
(1.20443 0.015935 0)
(1.19988 0.0143327 0)
(1.19551 0.0128637 0)
(1.19131 0.0115178 0)
(1.18732 0.0102854 0)
(1.18354 0.00915692 0)
(1.17998 0.00812329 0)
(1.17667 0.00717572 0)
(1.17361 0.0063057 0)
(1.1708 0.00550523 0)
(1.16826 0.00476649 0)
(1.166 0.00408211 0)
(1.164 0.00344497 0)
(1.16229 0.00284814 0)
(1.16085 0.00228504 0)
(1.1597 0.00174927 0)
(1.15884 0.00123451 0)
(1.15826 0.000734857 0)
(1.15798 0.000243833 0)
(1.11704 0.0471581 0)
(1.18978 0.0457558 0)
(1.22368 0.0410687 0)
(1.23516 0.037581 0)
(1.23603 0.0342267 0)
(1.23265 0.0312318 0)
(1.22787 0.0284833 0)
(1.22277 0.0259508 0)
(1.21773 0.0236133 0)
(1.21282 0.0214528 0)
(1.20806 0.0194565 0)
(1.20345 0.0176141 0)
(1.19898 0.0159152 0)
(1.19468 0.0143501 0)
(1.19055 0.0129087 0)
(1.18662 0.0115814 0)
(1.18289 0.0103588 0)
(1.17939 0.0092318 0)
(1.17613 0.00819169 0)
(1.17311 0.00722995 0)
(1.17034 0.00633856 0)
(1.16784 0.00550971 0)
(1.16559 0.00473595 0)
(1.16363 0.00401011 0)
(1.16193 0.00332522 0)
(1.16052 0.00267461 0)
(1.15938 0.00205178 0)
(1.15853 0.00145033 0)
(1.15796 0.000864226 0)
(1.15767 0.000286953 0)
(1.11546 0.0495113 0)
(1.18759 0.0481797 0)
(1.22149 0.0435015 0)
(1.23315 0.0399475 0)
(1.23421 0.0365143 0)
(1.23099 0.0334281 0)
(1.22634 0.0305856 0)
(1.22136 0.0279591 0)
(1.21642 0.0255275 0)
(1.21162 0.023273 0)
(1.20695 0.0211831 0)
(1.20242 0.0192471 0)
(1.19803 0.017455 0)
(1.1938 0.015797 0)
(1.18974 0.0142632 0)
(1.18587 0.0128441 0)
(1.1822 0.0115303 0)
(1.17875 0.0103128 0)
(1.17554 0.00918282 0)
(1.17256 0.00813194 0)
(1.16983 0.00715211 0)
(1.16736 0.0062355 0)
(1.16514 0.00537464 0)
(1.1632 0.00456231 0)
(1.16153 0.00379148 0)
(1.16013 0.0030554 0)
(1.15901 0.00234752 0)
(1.15817 0.00166134 0)
(1.1576 0.000990724 0)
(1.15732 0.000329115 0)
(1.11394 0.0517916 0)
(1.18543 0.050525 0)
(1.21928 0.0458546 0)
(1.23109 0.0422385 0)
(1.23233 0.0387298 0)
(1.22928 0.0355561 0)
(1.22477 0.0326236 0)
(1.2199 0.0299069 0)
(1.21507 0.0273849 0)
(1.21036 0.0250401 0)
(1.20578 0.0228599 0)
(1.20134 0.0208339 0)
(1.19703 0.018952 0)
(1.19287 0.0172043 0)
(1.18888 0.0155813 0)
(1.18507 0.0140734 0)
(1.18146 0.0126713 0)
(1.17806 0.0113661 0)
(1.17489 0.0101489 0)
(1.17196 0.00901147 0)
(1.16927 0.00794567 0)
(1.16683 0.00694369 0)
(1.16465 0.00599802 0)
(1.16273 0.0051014 0)
(1.16108 0.00424676 0)
(1.1597 0.0034273 0)
(1.15859 0.00263639 0)
(1.15776 0.00186748 0)
(1.1572 0.00111431 0)
(1.15692 0.000370308 0)
(1.11249 0.0539991 0)
(1.18329 0.0527917 0)
(1.21706 0.0481282 0)
(1.229 0.0444538 0)
(1.23042 0.0408732 0)
(1.22752 0.037616 0)
(1.22314 0.0345974 0)
(1.21839 0.0317941 0)
(1.21366 0.0291854 0)
(1.20905 0.0267539 0)
(1.20456 0.024487 0)
(1.2002 0.0223744 0)
(1.19597 0.0204059 0)
(1.19189 0.018572 0)
(1.18796 0.0168628 0)
(1.18422 0.0152692 0)
(1.18067 0.0137817 0)
(1.17732 0.0123914 0)
(1.1742 0.0110898 0)
(1.17131 0.00986837 0)
(1.16866 0.00871908 0)
(1.16625 0.00763412 0)
(1.1641 0.00660593 0)
(1.16221 0.00562724 0)
(1.16058 0.00469096 0)
(1.15922 0.00379021 0)
(1.15812 0.00291832 0)
(1.1573 0.00206868 0)
(1.15675 0.00123495 0)
(1.15648 0.000410519 0)
(1.11108 0.0561337 0)
(1.18117 0.0549796 0)
(1.21482 0.0503222 0)
(1.22688 0.0465934 0)
(1.22845 0.0429443 0)
(1.22571 0.0396075 0)
(1.22146 0.0365067 0)
(1.21683 0.0336208 0)
(1.21221 0.0309291 0)
(1.20769 0.0284145 0)
(1.2033 0.0260644 0)
(1.19902 0.0238686 0)
(1.19487 0.0218169 0)
(1.19086 0.0198998 0)
(1.187 0.0181077 0)
(1.18332 0.0164312 0)
(1.17983 0.0148612 0)
(1.17654 0.0133888 0)
(1.17346 0.0120054 0)
(1.17061 0.0107025 0)
(1.168 0.00947221 0)
(1.16563 0.00830664 0)
(1.16351 0.00719825 0)
(1.16164 0.00613974 0)
(1.16004 0.00512397 0)
(1.15869 0.00414405 0)
(1.15761 0.00319325 0)
(1.1568 0.00226491 0)
(1.15626 0.00135262 0)
(1.15599 0.000449738 0)
(1.10973 0.0581953 0)
(1.17906 0.0570886 0)
(1.21256 0.0524368 0)
(1.22472 0.0486572 0)
(1.22645 0.0449433 0)
(1.22386 0.0415308 0)
(1.21974 0.0383518 0)
(1.21523 0.0353869 0)
(1.21071 0.032616 0)
(1.20629 0.0300218 0)
(1.20198 0.0275921 0)
(1.19779 0.0253164 0)
(1.19372 0.0231849 0)
(1.18978 0.0211878 0)
(1.186 0.0193158 0)
(1.18238 0.0175595 0)
(1.17894 0.0159099 0)
(1.1757 0.0143581 0)
(1.17268 0.0128955 0)
(1.16987 0.0115138 0)
(1.1673 0.0102049 0)
(1.16496 0.00896117 0)
(1.16287 0.00777489 0)
(1.16103 0.00663878 0)
(1.15945 0.00554571 0)
(1.15812 0.00448874 0)
(1.15706 0.0034611 0)
(1.15626 0.00245611 0)
(1.15572 0.00146728 0)
(1.15546 0.000487956 0)
(1.10842 0.0601836 0)
(1.17697 0.0591186 0)
(1.21029 0.0544719 0)
(1.22253 0.0506452 0)
(1.22441 0.0468701 0)
(1.22196 0.0433859 0)
(1.21798 0.0401326 0)
(1.21358 0.0370926 0)
(1.20917 0.034246 0)
(1.20484 0.0315759 0)
(1.20063 0.0290701 0)
(1.19652 0.026718 0)
(1.19253 0.0245098 0)
(1.18866 0.022436 0)
(1.18494 0.0204871 0)
(1.18139 0.018654 0)
(1.17801 0.0169276 0)
(1.17483 0.0152992 0)
(1.17185 0.0137601 0)
(1.16909 0.0123021 0)
(1.16655 0.0109172 0)
(1.16425 0.00959761 0)
(1.16219 0.00833576 0)
(1.16038 0.00712431 0)
(1.15882 0.00595612 0)
(1.15751 0.00482423 0)
(1.15646 0.00372185 0)
(1.15567 0.00264226 0)
(1.15515 0.00157892 0)
(1.15488 0.000525168 0)
(1.10715 0.0620983 0)
(1.1749 0.0610694 0)
(1.20801 0.0564277 0)
(1.22032 0.0525574 0)
(1.22233 0.0487247 0)
(1.22003 0.0451728 0)
(1.21617 0.0418492 0)
(1.21189 0.038738 0)
(1.20758 0.0358194 0)
(1.20335 0.0330769 0)
(1.19923 0.0304984 0)
(1.19521 0.0280733 0)
(1.19129 0.0257918 0)
(1.1875 0.0236443 0)
(1.18385 0.0216217 0)
(1.18036 0.0197147 0)
(1.17704 0.0179144 0)
(1.17391 0.016212 0)
(1.17098 0.0145991 0)
(1.16826 0.0130674 0)
(1.16576 0.011609 0)
(1.1635 0.0102159 0)
(1.16147 0.0088808 0)
(1.15968 0.00759626 0)
(1.15814 0.00635514 0)
(1.15685 0.00515048 0)
(1.15582 0.00397545 0)
(1.15504 0.00282332 0)
(1.15452 0.00168752 0)
(1.15426 0.000561368 0)
(1.10592 0.0639392 0)
(1.17283 0.0629409 0)
(1.20572 0.058304 0)
(1.21807 0.0543937 0)
(1.22022 0.0505071 0)
(1.21805 0.0468916 0)
(1.21432 0.0435017 0)
(1.21016 0.040323 0)
(1.20595 0.0373362 0)
(1.20182 0.034525 0)
(1.19779 0.0318773 0)
(1.19385 0.0293825 0)
(1.19002 0.0270309 0)
(1.1863 0.024813 0)
(1.18272 0.0227196 0)
(1.17928 0.0207417 0)
(1.17602 0.0188703 0)
(1.17294 0.0170967 0)
(1.17006 0.0154126 0)
(1.16739 0.0138097 0)
(1.16493 0.0122801 0)
(1.1627 0.0108161 0)
(1.1607 0.00940999 0)
(1.15894 0.0080546 0)
(1.15743 0.00674275 0)
(1.15616 0.00546745 0)
(1.15514 0.00422188 0)
(1.15437 0.00299929 0)
(1.15386 0.00179307 0)
(1.15361 0.000596552 0)
(1.10472 0.0657058 0)
(1.17078 0.0647328 0)
(1.20342 0.0601011 0)
(1.2158 0.0561544 0)
(1.21808 0.0522175 0)
(1.21605 0.0485425 0)
(1.21244 0.0450903 0)
(1.20839 0.041848 0)
(1.20429 0.0387966 0)
(1.20026 0.0359203 0)
(1.19631 0.0332068 0)
(1.19246 0.0306456 0)
(1.1887 0.0282271 0)
(1.18506 0.0259419 0)
(1.18154 0.0237808 0)
(1.17817 0.0217349 0)
(1.17497 0.0197952 0)
(1.17194 0.0179532 0)
(1.16911 0.0162005 0)
(1.16648 0.014529 0)
(1.16406 0.0129308 0)
(1.16187 0.011398 0)
(1.1599 0.0099233 0)
(1.15817 0.00849932 0)
(1.15667 0.00711892 0)
(1.15542 0.00577513 0)
(1.15442 0.00446112 0)
(1.15367 0.00317014 0)
(1.15316 0.00189556 0)
(1.15291 0.000630718 0)
(1.10355 0.0673978 0)
(1.16874 0.0664452 0)
(1.20112 0.061819 0)
(1.21351 0.0578393 0)
(1.2159 0.053856 0)
(1.214 0.0501256 0)
(1.21052 0.0466151 0)
(1.20659 0.043313 0)
(1.20259 0.0402008 0)
(1.19865 0.0372629 0)
(1.1948 0.0344871 0)
(1.19103 0.031863 0)
(1.18735 0.0293808 0)
(1.18378 0.0270314 0)
(1.18033 0.0248056 0)
(1.17702 0.0226945 0)
(1.17388 0.0206893 0)
(1.17091 0.0187816 0)
(1.16812 0.016963 0)
(1.16553 0.0152253 0)
(1.16316 0.0135608 0)
(1.161 0.0119618 0)
(1.15906 0.0104207 0)
(1.15735 0.0089304 0)
(1.15588 0.00748365 0)
(1.15465 0.00607351 0)
(1.15366 0.00469317 0)
(1.15292 0.00333588 0)
(1.15242 0.00199499 0)
(1.15217 0.000663865 0)
(1.1024 0.069015 0)
(1.16672 0.068078 0)
(1.1988 0.063458 0)
(1.2112 0.0594489 0)
(1.2137 0.0554228 0)
(1.21193 0.0516412 0)
(1.20858 0.0480764 0)
(1.20475 0.0447184 0)
(1.20086 0.0415491 0)
(1.19702 0.0385531 0)
(1.19325 0.0357184 0)
(1.18956 0.0330346 0)
(1.18596 0.030492 0)
(1.18246 0.0280815 0)
(1.17908 0.0257939 0)
(1.17584 0.0236206 0)
(1.17275 0.0215527 0)
(1.16983 0.0195819 0)
(1.16709 0.0176999 0)
(1.16455 0.0158987 0)
(1.16221 0.0141704 0)
(1.16009 0.0125074 0)
(1.15818 0.0109023 0)
(1.1565 0.00934788 0)
(1.15505 0.00783695 0)
(1.15384 0.00636261 0)
(1.15287 0.00491804 0)
(1.15213 0.0034965 0)
(1.15165 0.00209137 0)
(1.1514 0.000695993 0)
(1.10127 0.0705571 0)
(1.1647 0.0696311 0)
(1.19647 0.0650182 0)
(1.20887 0.0609831 0)
(1.21147 0.0569183 0)
(1.20983 0.0530895 0)
(1.2066 0.0494745 0)
(1.20288 0.0460643 0)
(1.19909 0.0428416 0)
(1.19535 0.0397912 0)
(1.19167 0.0369011 0)
(1.18806 0.0341609 0)
(1.18454 0.031561 0)
(1.18111 0.0290924 0)
(1.1778 0.0267461 0)
(1.17462 0.0245133 0)
(1.17159 0.0223856 0)
(1.16872 0.0203544 0)
(1.16603 0.0184116 0)
(1.16353 0.0165492 0)
(1.16123 0.0147596 0)
(1.15914 0.013035 0)
(1.15727 0.0113681 0)
(1.15561 0.00975178 0)
(1.15419 0.00817885 0)
(1.153 0.00664243 0)
(1.15204 0.00513573 0)
(1.15131 0.00365203 0)
(1.15083 0.00218469 0)
(1.15059 0.000727104 0)
(1.10017 0.0720238 0)
(1.16269 0.0711046 0)
(1.19415 0.0665 0)
(1.20652 0.0624424 0)
(1.20922 0.0583426 0)
(1.2077 0.0544708 0)
(1.20459 0.0508096 0)
(1.20099 0.0473513 0)
(1.1973 0.0440789 0)
(1.19364 0.0409775 0)
(1.19005 0.0380354 0)
(1.18653 0.035242 0)
(1.18308 0.0325881 0)
(1.17973 0.0300644 0)
(1.17648 0.0276623 0)
(1.17336 0.025373 0)
(1.17039 0.023188 0)
(1.16758 0.021099 0)
(1.16493 0.019098 0)
(1.16248 0.017177 0)
(1.16022 0.0153284 0)
(1.15816 0.0135445 0)
(1.15632 0.0118182 0)
(1.15469 0.0101421 0)
(1.15329 0.00850939 0)
(1.15211 0.00691301 0)
(1.15117 0.00534627 0)
(1.15046 0.00380246 0)
(1.14999 0.00227496 0)
(1.14975 0.000757201 0)
(1.09908 0.073415 0)
(1.16069 0.0724988 0)
(1.19181 0.0679038 0)
(1.20416 0.0638271 0)
(1.20695 0.0596962 0)
(1.20555 0.0557857 0)
(1.20256 0.0520823 0)
(1.19906 0.0485796 0)
(1.19548 0.0452611 0)
(1.19192 0.0421124 0)
(1.18841 0.0391216 0)
(1.18497 0.0362784 0)
(1.1816 0.0335735 0)
(1.17832 0.0309978 0)
(1.17514 0.0285427 0)
(1.17208 0.0261996 0)
(1.16916 0.0239601 0)
(1.1664 0.021816 0)
(1.16381 0.0197593 0)
(1.16139 0.0177822 0)
(1.15917 0.0158769 0)
(1.15715 0.0140361 0)
(1.15534 0.0122526 0)
(1.15374 0.010519 0)
(1.15236 0.0088286 0)
(1.1512 0.00717439 0)
(1.15027 0.00554968 0)
(1.14957 0.00394782 0)
(1.14911 0.0023622 0)
(1.14887 0.000786287 0)
(1.098 0.0747308 0)
(1.1587 0.0738138 0)
(1.18948 0.0692299 0)
(1.20179 0.0651377 0)
(1.20466 0.0609796 0)
(1.20338 0.0570345 0)
(1.2005 0.053293 0)
(1.19712 0.0497497 0)
(1.19363 0.0463889 0)
(1.19016 0.0431962 0)
(1.18674 0.0401601 0)
(1.18338 0.0372703 0)
(1.18009 0.0345175 0)
(1.17687 0.0318928 0)
(1.17376 0.0293877 0)
(1.17076 0.0269936 0)
(1.1679 0.0247023 0)
(1.16519 0.0225057 0)
(1.16265 0.0203958 0)
(1.16028 0.0183649 0)
(1.15809 0.0164054 0)
(1.15611 0.01451 0)
(1.15432 0.0126714 0)
(1.15275 0.0108826 0)
(1.15139 0.00913657 0)
(1.15025 0.00742662 0)
(1.14934 0.00574601 0)
(1.14865 0.00408814 0)
(1.14819 0.00244642 0)
(1.14796 0.000814368 0)
(1.09694 0.075971 0)
(1.15672 0.0750501 0)
(1.18714 0.070479 0)
(1.1994 0.0663748 0)
(1.20236 0.0621934 0)
(1.20119 0.0582178 0)
(1.19842 0.0544421 0)
(1.19515 0.0508621 0)
(1.19176 0.0474626 0)
(1.18838 0.0442295 0)
(1.18505 0.0411514 0)
(1.18177 0.0382182 0)
(1.17855 0.0354206 0)
(1.17541 0.0327498 0)
(1.17236 0.0301975 0)
(1.16942 0.0277552 0)
(1.16662 0.0254147 0)
(1.16396 0.0231681 0)
(1.16146 0.0210075 0)
(1.15913 0.0189252 0)
(1.15698 0.0169139 0)
(1.15503 0.0149661 0)
(1.15328 0.0130747 0)
(1.15173 0.0112328 0)
(1.1504 0.00943336 0)
(1.14928 0.00766976 0)
(1.14838 0.00593531 0)
(1.1477 0.00422344 0)
(1.14725 0.00252764 0)
(1.14702 0.000841451 0)
(1.09589 0.077136 0)
(1.15475 0.076208 0)
(1.1848 0.0716518 0)
(1.19701 0.0675389 0)
(1.20004 0.0633381 0)
(1.19898 0.0593361 0)
(1.19633 0.0555303 0)
(1.19316 0.0519174 0)
(1.18987 0.0484827 0)
(1.18658 0.0452127 0)
(1.18333 0.042096 0)
(1.18013 0.0391224 0)
(1.17699 0.0362831 0)
(1.17391 0.0335692 0)
(1.17093 0.0309725 0)
(1.16805 0.0284847 0)
(1.1653 0.0260977 0)
(1.16269 0.0238036 0)
(1.16024 0.0215948 0)
(1.15795 0.0194635 0)
(1.15585 0.0174026 0)
(1.15393 0.0154047 0)
(1.15221 0.0134627 0)
(1.15068 0.0115698 0)
(1.14937 0.00971906 0)
(1.14827 0.00790387 0)
(1.14738 0.00611761 0)
(1.14672 0.00435378 0)
(1.14627 0.00260589 0)
(1.14605 0.000867542 0)
(1.09485 0.0782259 0)
(1.15278 0.0772883 0)
(1.18247 0.0727488 0)
(1.19461 0.0686307 0)
(1.19771 0.0644145 0)
(1.19675 0.0603903 0)
(1.19421 0.0565583 0)
(1.19115 0.0529162 0)
(1.18796 0.04945 0)
(1.18476 0.0461464 0)
(1.18159 0.0429943 0)
(1.17847 0.0399836 0)
(1.1754 0.0371054 0)
(1.17239 0.0343513 0)
(1.16947 0.031713 0)
(1.16666 0.0291824 0)
(1.16396 0.0267514 0)
(1.1614 0.0244124 0)
(1.15899 0.0221578 0)
(1.15675 0.01998 0)
(1.15468 0.0178717 0)
(1.1528 0.0158259 0)
(1.1511 0.0138355 0)
(1.14961 0.0118937 0)
(1.14832 0.00999377 0)
(1.14723 0.00812904 0)
(1.14636 0.00629299 0)
(1.14571 0.00447918 0)
(1.14527 0.00268118 0)
(1.14505 0.00089265 0)
(1.09381 0.0792411 0)
(1.15083 0.0782916 0)
(1.18013 0.0737711 0)
(1.19221 0.0696512 0)
(1.19536 0.0654234 0)
(1.19452 0.061381 0)
(1.19209 0.0575267 0)
(1.18912 0.0538591 0)
(1.18603 0.0503649 0)
(1.18292 0.0470312 0)
(1.17984 0.0438469 0)
(1.17679 0.0408021 0)
(1.17379 0.0378882 0)
(1.17085 0.0350967 0)
(1.16799 0.0324195 0)
(1.16524 0.0298487 0)
(1.16259 0.0273764 0)
(1.16009 0.0249949 0)
(1.15772 0.0226968 0)
(1.15552 0.0204747 0)
(1.15349 0.0183214 0)
(1.15164 0.0162299 0)
(1.14997 0.0141933 0)
(1.1485 0.0122047 0)
(1.14724 0.0102576 0)
(1.14617 0.00834535 0)
(1.14531 0.00646152 0)
(1.14467 0.00459971 0)
(1.14424 0.00275356 0)
(1.14402 0.000916785 0)
(1.09279 0.0801822 0)
(1.14888 0.0792186 0)
(1.1778 0.0747196 0)
(1.1898 0.0706012 0)
(1.19302 0.0663657 0)
(1.19227 0.0623092 0)
(1.18995 0.0584364 0)
(1.18709 0.054747 0)
(1.18408 0.0512283 0)
(1.18106 0.0478677 0)
(1.17806 0.0446544 0)
(1.17509 0.0415786 0)
(1.17216 0.0386318 0)
(1.16929 0.0358057 0)
(1.16649 0.0330924 0)
(1.16379 0.030484 0)
(1.16121 0.0279728 0)
(1.15875 0.0255513 0)
(1.15643 0.0232122 0)
(1.15427 0.0209481 0)
(1.15227 0.018752 0)
(1.15045 0.016617 0)
(1.14882 0.0145362 0)
(1.14738 0.0125029 0)
(1.14613 0.0105107 0)
(1.14508 0.00855291 0)
(1.14424 0.00662326 0)
(1.1436 0.0047154 0)
(1.14318 0.00282304 0)
(1.14297 0.000939957 0)
(1.09177 0.0810497 0)
(1.14695 0.0800705 0)
(1.17548 0.0755952 0)
(1.1874 0.0714817 0)
(1.19067 0.0672424 0)
(1.19001 0.0631756 0)
(1.18779 0.0592881 0)
(1.18503 0.0555805 0)
(1.18212 0.0520408 0)
(1.17919 0.0486567 0)
(1.17627 0.0454175 0)
(1.17337 0.0423137 0)
(1.17051 0.0393369 0)
(1.16771 0.036479 0)
(1.16498 0.0337322 0)
(1.16233 0.0310887 0)
(1.1598 0.0285412 0)
(1.15739 0.0260821 0)
(1.15511 0.0237042 0)
(1.15299 0.0214004 0)
(1.15103 0.0191637 0)
(1.14925 0.0169872 0)
(1.14764 0.0148644 0)
(1.14622 0.0127885 0)
(1.14499 0.0107531 0)
(1.14397 0.00875182 0)
(1.14314 0.0067783 0)
(1.14251 0.00482632 0)
(1.1421 0.00288966 0)
(1.14189 0.000962177 0)
(1.09076 0.0818446 0)
(1.14503 0.0808482 0)
(1.17316 0.0763992 0)
(1.185 0.0722938 0)
(1.18831 0.0680544 0)
(1.18775 0.0639813 0)
(1.18564 0.0600829 0)
(1.18297 0.0563607 0)
(1.18015 0.0528033 0)
(1.1773 0.0493989 0)
(1.17446 0.0461368 0)
(1.17164 0.043008 0)
(1.16885 0.040004 0)
(1.16611 0.037117 0)
(1.16344 0.0343393 0)
(1.16085 0.0316634 0)
(1.15837 0.0290818 0)
(1.156 0.0265875 0)
(1.15377 0.0241731 0)
(1.15169 0.0218318 0)
(1.14977 0.0195567 0)
(1.14802 0.017341 0)
(1.14644 0.0151781 0)
(1.14504 0.0130616 0)
(1.14384 0.0109851 0)
(1.14283 0.00894219 0)
(1.14201 0.00692672 0)
(1.1414 0.00493253 0)
(1.14099 0.00295346 0)
(1.14078 0.000983458 0)
(1.08975 0.0825675 0)
(1.14312 0.081553 0)
(1.17086 0.0771328 0)
(1.1826 0.0730388 0)
(1.18595 0.068803 0)
(1.18549 0.0647273 0)
(1.18347 0.0608216 0)
(1.1809 0.0570883 0)
(1.17817 0.0535166 0)
(1.17541 0.050095 0)
(1.17264 0.0468131 0)
(1.16989 0.0436621 0)
(1.16717 0.0406337 0)
(1.1645 0.0377203 0)
(1.16188 0.0349143 0)
(1.15935 0.0322083 0)
(1.15692 0.0295953 0)
(1.1546 0.027068 0)
(1.15241 0.0246194 0)
(1.15037 0.0222428 0)
(1.14849 0.0199313 0)
(1.14676 0.0176784 0)
(1.14521 0.0154776 0)
(1.14384 0.0133224 0)
(1.14266 0.0112067 0)
(1.14166 0.00912414 0)
(1.14086 0.00706863 0)
(1.14026 0.00503409 0)
(1.13986 0.00301448 0)
(1.13966 0.00100381 0)
(1.08875 0.0832197 0)
(1.14122 0.0821861 0)
(1.16856 0.0777974 0)
(1.1802 0.0737179 0)
(1.1836 0.0694893 0)
(1.18322 0.0654148 0)
(1.1813 0.0615054 0)
(1.17883 0.0577644 0)
(1.17619 0.0541816 0)
(1.1735 0.0507459 0)
(1.17081 0.0474472 0)
(1.16813 0.0442768 0)
(1.16548 0.0412268 0)
(1.16287 0.0382895 0)
(1.16031 0.0354577 0)
(1.15783 0.0327242 0)
(1.15545 0.0300819 0)
(1.15318 0.0275239 0)
(1.15104 0.0250434 0)
(1.14903 0.0226335 0)
(1.14718 0.0202878 0)
(1.14549 0.0179998 0)
(1.14397 0.015763 0)
(1.14262 0.0135712 0)
(1.14146 0.0114181 0)
(1.14048 0.0092978 0)
(1.13969 0.00720411 0)
(1.1391 0.00513109 0)
(1.1387 0.00307276 0)
(1.1385 0.00102326 0)
(1.08776 0.0838022 0)
(1.13933 0.082749 0)
(1.16627 0.0783944 0)
(1.17782 0.0743325 0)
(1.18125 0.0701146 0)
(1.18095 0.066045 0)
(1.17913 0.0621354 0)
(1.17675 0.05839 0)
(1.17419 0.0547993 0)
(1.17159 0.0513525 0)
(1.16897 0.0480399 0)
(1.16636 0.0448529 0)
(1.16378 0.0417838 0)
(1.16122 0.0388253 0)
(1.15872 0.0359701 0)
(1.1563 0.0332114 0)
(1.15397 0.0305423 0)
(1.15174 0.0279558 0)
(1.14964 0.0254454 0)
(1.14767 0.0230045 0)
(1.14586 0.0206266 0)
(1.1442 0.0183054 0)
(1.1427 0.0160346 0)
(1.14138 0.013808 0)
(1.14023 0.0116196 0)
(1.13927 0.00946332 0)
(1.1385 0.00733328 0)
(1.13792 0.00522358 0)
(1.13753 0.00312835 0)
(1.13733 0.0010418 0)
(1.08677 0.0843164 0)
(1.13746 0.0832433 0)
(1.164 0.0789253 0)
(1.17544 0.074884 0)
(1.17891 0.0706804 0)
(1.17869 0.0666191 0)
(1.17696 0.0627127 0)
(1.17467 0.0589662 0)
(1.17219 0.0553707 0)
(1.16967 0.0519158 0)
(1.16713 0.0485921 0)
(1.16459 0.0453912 0)
(1.16206 0.0423056 0)
(1.15957 0.0393283 0)
(1.15712 0.0364522 0)
(1.15475 0.0336706 0)
(1.15247 0.0309768 0)
(1.15029 0.0283641 0)
(1.14823 0.025826 0)
(1.1463 0.0233561 0)
(1.14451 0.020948 0)
(1.14288 0.0185955 0)
(1.14141 0.0162926 0)
(1.14012 0.0140332 0)
(1.13899 0.0118112 0)
(1.13805 0.00962082 0)
(1.13729 0.00745624 0)
(1.13671 0.00531165 0)
(1.13633 0.00318129 0)
(1.13614 0.00105947 0)
(1.08579 0.0847637 0)
(1.1356 0.0836705 0)
(1.16175 0.0793919 0)
(1.17307 0.075374 0)
(1.17657 0.0711881 0)
(1.17643 0.0671385 0)
(1.17479 0.0632386 0)
(1.17258 0.0594941 0)
(1.17019 0.0558968 0)
(1.16774 0.0524367 0)
(1.16527 0.0491045 0)
(1.1628 0.0458924 0)
(1.16034 0.0427929 0)
(1.1579 0.0397992 0)
(1.15551 0.0369046 0)
(1.15319 0.0341024 0)
(1.15096 0.0313861 0)
(1.14882 0.0287492 0)
(1.1468 0.0261855 0)
(1.14491 0.0236885 0)
(1.14316 0.0212522 0)
(1.14155 0.0188705 0)
(1.14011 0.0165374 0)
(1.13883 0.0142469 0)
(1.13773 0.0119932 0)
(1.1368 0.00977048 0)
(1.13605 0.00757311 0)
(1.13549 0.00539539 0)
(1.13511 0.00323163 0)
(1.13493 0.00107626 0)
(1.08481 0.0851457 0)
(1.13376 0.0840326 0)
(1.15951 0.0797957 0)
(1.17072 0.0758041 0)
(1.17424 0.0716392 0)
(1.17418 0.0676046 0)
(1.17262 0.0637143 0)
(1.1705 0.0599749 0)
(1.16819 0.0563787 0)
(1.16581 0.0529161 0)
(1.16341 0.0495783 0)
(1.161 0.0463574 0)
(1.1586 0.0432465 0)
(1.15623 0.0402388 0)
(1.15389 0.0373279 0)
(1.15162 0.0345073 0)
(1.14943 0.0317706 0)
(1.14734 0.0291117 0)
(1.14536 0.0265243 0)
(1.1435 0.0240023 0)
(1.14178 0.0215397 0)
(1.14021 0.0191306 0)
(1.13879 0.0167691 0)
(1.13754 0.0144493 0)
(1.13645 0.0121657 0)
(1.13554 0.00991243 0)
(1.1348 0.00768402 0)
(1.13425 0.00547487 0)
(1.13388 0.00327943 0)
(1.13369 0.00109221 0)
(1.08384 0.0854639 0)
(1.13194 0.0843312 0)
(1.15728 0.0801387 0)
(1.16839 0.0761761 0)
(1.17193 0.0720352 0)
(1.17193 0.0680189 0)
(1.17046 0.0641413 0)
(1.16842 0.0604099 0)
(1.16619 0.0568176 0)
(1.16388 0.0533553 0)
(1.16155 0.0500143 0)
(1.15921 0.0467872 0)
(1.15686 0.0436672 0)
(1.15454 0.0406478 0)
(1.15226 0.0377228 0)
(1.15004 0.0348859 0)
(1.14789 0.032131 0)
(1.14584 0.0294521 0)
(1.1439 0.026843 0)
(1.14208 0.0242979 0)
(1.14039 0.0218109 0)
(1.13885 0.0193762 0)
(1.13746 0.016988 0)
(1.13622 0.0146408 0)
(1.13516 0.0123289 0)
(1.13426 0.0100468 0)
(1.13354 0.00778908 0)
(1.13299 0.00555019 0)
(1.13263 0.00332473 0)
(1.13245 0.00110733 0)
(1.08288 0.0857203 0)
(1.13013 0.0845684 0)
(1.15508 0.0804227 0)
(1.16607 0.0764916 0)
(1.16962 0.0723778 0)
(1.1697 0.0683827 0)
(1.1683 0.0645209 0)
(1.16635 0.0608003 0)
(1.16419 0.0572147 0)
(1.16195 0.0537552 0)
(1.15969 0.0504135 0)
(1.1574 0.0471826 0)
(1.15512 0.0440558 0)
(1.15285 0.041027 0)
(1.15062 0.0380901 0)
(1.14845 0.035239 0)
(1.14635 0.0324679 0)
(1.14434 0.0297709 0)
(1.14243 0.027142 0)
(1.14065 0.0245756 0)
(1.13899 0.022066 0)
(1.13747 0.0196075 0)
(1.13611 0.0171945 0)
(1.13489 0.0148216 0)
(1.13384 0.0124831 0)
(1.13296 0.0101739 0)
(1.13225 0.00788843 0)
(1.13172 0.00562144 0)
(1.13136 0.0033676 0)
(1.13118 0.00112164 0)
(1.08192 0.0859165 0)
(1.12834 0.0847461 0)
(1.1529 0.0806496 0)
(1.16376 0.0767526 0)
(1.16733 0.0726687 0)
(1.16747 0.0686978 0)
(1.16616 0.0648544 0)
(1.16428 0.0611475 0)
(1.16219 0.0575711 0)
(1.16002 0.0541169 0)
(1.15782 0.0507771 0)
(1.1556 0.0475446 0)
(1.15337 0.0444133 0)
(1.15116 0.0413772 0)
(1.14898 0.0384304 0)
(1.14685 0.0355672 0)
(1.14479 0.0327818 0)
(1.14282 0.0300686 0)
(1.14095 0.0274218 0)
(1.1392 0.024836 0)
(1.13757 0.0223056 0)
(1.13608 0.019825 0)
(1.13474 0.0173889 0)
(1.13355 0.0149918 0)
(1.13252 0.0126285 0)
(1.13165 0.0102937 0)
(1.13095 0.0079822 0)
(1.13043 0.00568872 0)
(1.13007 0.00340808 0)
(1.1299 0.00113516 0)
(1.08097 0.0860546 0)
(1.12657 0.0848665 0)
(1.15073 0.0808214 0)
(1.16148 0.0769608 0)
(1.16506 0.0729097 0)
(1.16526 0.0689657 0)
(1.16402 0.0651435 0)
(1.16221 0.0614528 0)
(1.1602 0.0578882 0)
(1.1581 0.0544417 0)
(1.15596 0.0511059 0)
(1.15379 0.0478742 0)
(1.15162 0.0447405 0)
(1.14946 0.0416991 0)
(1.14733 0.0387445 0)
(1.14524 0.0358711 0)
(1.14323 0.0330734 0)
(1.1413 0.0303458 0)
(1.13946 0.027683 0)
(1.13774 0.0250795 0)
(1.13615 0.0225299 0)
(1.13468 0.020029 0)
(1.13336 0.0175714 0)
(1.13219 0.0151519 0)
(1.13118 0.0127653 0)
(1.13033 0.0104066 0)
(1.12964 0.00807053 0)
(1.12912 0.00575211 0)
(1.12878 0.00344624 0)
(1.1286 0.0011479 0)
(1.08004 0.0861365 0)
(1.12482 0.0849317 0)
(1.1486 0.0809401 0)
(1.15922 0.0771182 0)
(1.16281 0.0731025 0)
(1.16306 0.069188 0)
(1.16189 0.0653896 0)
(1.16016 0.0617176 0)
(1.15821 0.0581672 0)
(1.15618 0.0547307 0)
(1.15409 0.0514012 0)
(1.15199 0.0481723 0)
(1.14987 0.0450383 0)
(1.14776 0.0419937 0)
(1.14567 0.0390332 0)
(1.14363 0.0361515 0)
(1.14166 0.0333432 0)
(1.13976 0.0306032 0)
(1.13796 0.027926 0)
(1.13628 0.0253065 0)
(1.13471 0.0227395 0)
(1.13327 0.0202198 0)
(1.13197 0.0177423 0)
(1.13082 0.015302 0)
(1.12983 0.0128937 0)
(1.12899 0.0105126 0)
(1.12831 0.00815357 0)
(1.1278 0.00581174 0)
(1.12746 0.00348214 0)
(1.12729 0.00115988 0)
(1.07911 0.0861643 0)
(1.12309 0.0849439 0)
(1.14648 0.081008 0)
(1.15698 0.0772268 0)
(1.16057 0.0732489 0)
(1.16088 0.0693665 0)
(1.15978 0.0655944 0)
(1.15812 0.0619434 0)
(1.15623 0.0584094 0)
(1.15426 0.0549852 0)
(1.15224 0.0516641 0)
(1.15018 0.0484401 0)
(1.14812 0.0453077 0)
(1.14605 0.0422619 0)
(1.14401 0.0392973 0)
(1.14202 0.0364091 0)
(1.14008 0.0335921 0)
(1.13822 0.0308412 0)
(1.13646 0.0281514 0)
(1.1348 0.0255175 0)
(1.13326 0.0229347 0)
(1.13185 0.0203979 0)
(1.13057 0.0179021 0)
(1.12944 0.0154424 0)
(1.12846 0.013014 0)
(1.12764 0.010612 0)
(1.12697 0.00823145 0)
(1.12647 0.00586769 0)
(1.12614 0.00351583 0)
(1.12597 0.00117114 0)
(1.07819 0.0861401 0)
(1.12139 0.0849055 0)
(1.14439 0.0810271 0)
(1.15477 0.0772886 0)
(1.15836 0.0733509 0)
(1.15872 0.0695029 0)
(1.15768 0.0657592 0)
(1.15608 0.0621316 0)
(1.15426 0.0586162 0)
(1.15235 0.0552063 0)
(1.15038 0.0518957 0)
(1.14838 0.0486785 0)
(1.14636 0.0455497 0)
(1.14435 0.0425044 0)
(1.14235 0.0395376 0)
(1.1404 0.0366446 0)
(1.1385 0.0338206 0)
(1.13668 0.0310605 0)
(1.13494 0.0283596 0)
(1.13332 0.0257131 0)
(1.1318 0.023116 0)
(1.13042 0.0205635 0)
(1.12916 0.018051 0)
(1.12805 0.0155735 0)
(1.12709 0.0131264 0)
(1.12627 0.0107049 0)
(1.12562 0.00830433 0)
(1.12513 0.00592007 0)
(1.1248 0.00354739 0)
(1.12463 0.00118168 0)
(1.07728 0.0860663 0)
(1.1197 0.0848187 0)
(1.14233 0.0809996 0)
(1.15258 0.0773057 0)
(1.15617 0.0734104 0)
(1.15657 0.0695989 0)
(1.1556 0.0658859 0)
(1.15406 0.0622837 0)
(1.1523 0.0587889 0)
(1.15045 0.0553954 0)
(1.14853 0.0520971 0)
(1.14658 0.0488886 0)
(1.14461 0.0457652 0)
(1.14264 0.0427222 0)
(1.14069 0.0397549 0)
(1.13877 0.0368589 0)
(1.13691 0.0340294 0)
(1.13512 0.0312618 0)
(1.13342 0.0285514 0)
(1.13182 0.0258936 0)
(1.13034 0.0232838 0)
(1.12897 0.0207172 0)
(1.12774 0.0181893 0)
(1.12665 0.0156955 0)
(1.1257 0.013231 0)
(1.1249 0.0107915 0)
(1.12426 0.00837235 0)
(1.12377 0.00596899 0)
(1.12345 0.00357688 0)
(1.12329 0.00119153 0)
(1.07638 0.0859451 0)
(1.11804 0.0846859 0)
(1.14029 0.0809277 0)
(1.15041 0.0772801 0)
(1.154 0.0734292 0)
(1.15445 0.0696563 0)
(1.15353 0.065976 0)
(1.15206 0.0624012 0)
(1.15036 0.058929 0)
(1.14855 0.0555536 0)
(1.14669 0.0522695 0)
(1.14479 0.0490716 0)
(1.14286 0.0459552 0)
(1.14094 0.0429162 0)
(1.13902 0.0399501 0)
(1.13715 0.0370525 0)
(1.13532 0.0342192 0)
(1.13357 0.0314456 0)
(1.1319 0.0287272 0)
(1.13033 0.0260597 0)
(1.12887 0.0234386 0)
(1.12753 0.0208593 0)
(1.12631 0.0183175 0)
(1.12524 0.0158086 0)
(1.1243 0.0133283 0)
(1.12352 0.0108721 0)
(1.12288 0.00843568 0)
(1.12241 0.00601456 0)
(1.12209 0.00360436 0)
(1.12193 0.00120071 0)
(1.07549 0.0857787 0)
(1.11641 0.0845094 0)
(1.13828 0.0808136 0)
(1.14828 0.0772139 0)
(1.15185 0.0734093 0)
(1.15234 0.0696768 0)
(1.15148 0.0660311 0)
(1.15006 0.0624856 0)