/*--------------------------------*- C++ -*----------------------------------*\
  =========                 |
  \\      /  F ield         | OpenFOAM: The Open Source CFD Toolbox
   \\    /   O peration     | Website:  https://openfoam.org
    \\  /    A nd           | Version:  7
     \\/     M anipulation  |
\*---------------------------------------------------------------------------*/
FoamFile
{
    version     2.0;
    format      ascii;
    class       volScalarField;
    location    "39.999";
    object      p;
}
// * * * * * * * * * * * * * * * * * * * * * * * * * * * * * * * * * * * * * //

dimensions      [0 2 -2 0 0 0 0];

internalField   nonuniform List<scalar> 
3700
(
0.663617
0.636657
0.616506
0.587148
0.555178
0.522348
0.490191
0.459412
0.43042
0.403377
0.378315
0.35519
0.333946
0.314516
0.296743
0.659031
0.632524
0.612919
0.584054
0.552497
0.520014
0.488149
0.457617
0.428835
0.401971
0.377064
0.354068
0.332928
0.313599
0.295962
0.649898
0.62429
0.605771
0.57789
0.547155
0.515362
0.484077
0.454037
0.425673
0.399167
0.374567
0.351829
0.330899
0.311769
0.294401
0.636296
0.612019
0.595116
0.568698
0.539187
0.508422
0.478003
0.448695
0.420954
0.394981
0.370839
0.348486
0.327869
0.309034
0.292064
0.618337
0.595809
0.581033
0.556545
0.52865
0.499241
0.469964
0.441624
0.414706
0.389437
0.3659
0.344057
0.323854
0.305407
0.288955
0.596175
0.575786
0.563626
0.541516
0.515615
0.48788
0.460014
0.432868
0.406966
0.382566
0.359777
0.338566
0.318876
0.300905
0.285081
0.569996
0.552107
0.543025
0.52372
0.500172
0.474414
0.448215
0.422481
0.39778
0.374409
0.352505
0.332042
0.312962
0.295548
0.280452
0.540022
0.52496
0.519383
0.503283
0.482428
0.458933
0.434643
0.410527
0.387203
0.365011
0.344122
0.324521
0.306143
0.289361
0.27508
0.506506
0.494557
0.492875
0.480351
0.462504
0.441539
0.419384
0.39708
0.375297
0.354425
0.334675
0.316042
0.298453
0.282372
0.268981
0.469732
0.461139
0.463701
0.455086
0.440537
0.422348
0.402536
0.382221
0.362133
0.342713
0.324215
0.30665
0.289934
0.274613
0.262174
0.430013
0.424972
0.432076
0.427667
0.416677
0.401485
0.384206
0.366042
0.347787
0.329939
0.312799
0.296394
0.280628
0.266119
0.254681
0.387687
0.38634
0.398236
0.39829
0.391086
0.379086
0.364508
0.34864
0.332344
0.316176
0.300488
0.28533
0.270584
0.256929
0.246528
0.343113
0.345552
0.362435
0.367161
0.363938
0.355299
0.343567
0.33012
0.315892
0.301499
0.287349
0.273514
0.259851
0.247084
0.237741
0.29667
0.302931
0.324937
0.3345
0.335416
0.330277
0.321511
0.310593
0.298526
0.285991
0.273451
0.26101
0.248487
0.236627
0.228351
0.248755
0.258818
0.286024
0.300535
0.30571
0.30418
0.298479
0.290175
0.280346
0.269734
0.258869
0.247886
0.236552
0.225606
0.218387
0.199773
0.213565
0.245985
0.265504
0.27502
0.277175
0.274609
0.268985
0.261453
0.252817
0.243676
0.23421
0.224114
0.214067
0.20787
0.15014
0.167533
0.205117
0.229648
0.243545
0.249432
0.250046
0.247146
0.241952
0.235329
0.227947
0.220054
0.211261
0.202082
0.196815
0.100274
0.121095
0.163726
0.193215
0.211493
0.221124
0.224936
0.224783
0.221953
0.217363
0.211757
0.205484
0.198083
0.189729
0.185175
0.0505866
0.0746245
0.122116
0.156452
0.179068
0.192424
0.199426
0.202019
0.201561
0.199013
0.195177
0.190543
0.184674
0.177226
0.172929
0.00149239
0.0284881
0.0805943
0.119603
0.146476
0.163505
0.173663
0.17898
0.180884
0.180377
0.178295
0.17528
0.171105
0.164884
0.159819
-0.0466004
-0.0169583
0.0394642
0.0829102
0.113918
0.134539
0.147792
0.155789
0.160026
0.161547
0.161194
0.159709
0.157239
0.152938
0.146315
-0.0932972
-0.0613734
-0.000977732
0.046605
0.0815923
0.105694
0.121956
0.132567
0.139088
0.142611
0.143971
0.143943
0.143042
0.140875
0.135716
-0.138205
-0.104441
-0.0404513
0.0109065
0.049691
0.0771317
0.0962925
0.109433
0.118171
0.12365
0.12671
0.128111
0.128624
0.128458
0.125357
-0.180891
-0.145836
-0.0787246
-0.0239807
0.0184026
0.0490099
0.0709352
0.0865003
0.097372
0.104743
0.109472
0.112286
0.114065
0.115448
0.11419
-0.221142
-0.185023
-0.115696
-0.0578511
-0.0120881
0.021477
0.0460108
0.0638791
0.0767842
0.0859651
0.0923071
0.0965057
0.0994526
0.102033
0.102222
-0.258689
-0.221184
-0.151573
-0.0904612
-0.0416078
-0.00532836
0.0216397
0.0416724
0.0564967
0.0673904
0.0752678
0.0808053
0.0848695
0.0884861
0.0898687
-0.293332
-0.254814
-0.185403
-0.121496
-0.0700033
-0.0312748
-0.00206475
0.0199768
0.0365936
0.0490929
0.0584164
0.0652324
0.0703725
0.0749485
0.0774304
-0.324872
-0.28586
-0.216683
-0.150887
-0.0971318
-0.0562384
-0.0249973
-0.00111777
0.0171532
0.031143
0.0418161
0.0498393
0.0560029
0.0614699
0.0650005
-0.35313
-0.31402
-0.245485
-0.178447
-0.122853
-0.0801025
-0.0470626
-0.0215292
-0.00175218
0.0136053
0.025526
0.0346769
0.0418007
0.0480855
0.0526024
-0.377978
-0.339059
-0.271782
-0.204068
-0.147077
-0.102757
-0.0681735
-0.0411833
-0.0200571
-0.0034616
0.00959913
0.0197927
0.0278078
0.0348386
0.0402743
-0.399347
-0.360845
-0.295455
-0.22766
-0.169835
-0.124037
-0.0882532
-0.0600129
-0.0377027
-0.0200059
-0.00591694
0.00523117
0.0140659
0.0217733
0.0280677
-0.417221
-0.379312
-0.316389
-0.24911
-0.190873
-0.144146
-0.107181
-0.0779606
-0.0546371
-0.0359811
-0.0209804
-0.00896705
0.00061388
0.00892575
0.0160271
-0.431627
-0.394443
-0.334513
-0.268352
-0.21012
-0.162863
-0.125094
-0.0949747
-0.0708184
-0.0513467
-0.0355549
-0.022766
-0.0125102
-0.00367836
0.00418353
-0.442641
-0.406271
-0.3498
-0.285354
-0.227569
-0.180113
-0.141861
-0.111091
-0.0862423
-0.0660642
-0.04961
-0.0361377
-0.02527
-0.0160162
-0.00744779
-0.450382
-0.414886
-0.36226
-0.3001
-0.243222
-0.195897
-0.157424
-0.126243
-0.100882
-0.0801502
-0.0631184
-0.049067
-0.0376364
-0.0280457
-0.0188884
-0.455013
-0.420429
-0.371941
-0.312593
-0.257077
-0.210225
-0.171782
-0.140399
-0.114701
-0.09356
-0.0760789
-0.0615633
-0.0496122
-0.039671
-0.0302257
-0.456741
-0.4231
-0.37893
-0.322859
-0.269145
-0.223109
-0.184948
-0.15356
-0.12769
-0.106275
-0.0884648
-0.0735804
-0.0611971
-0.0508964
-0.0415437
-0.455805
-0.423144
-0.383356
-0.330947
-0.27945
-0.234567
-0.19694
-0.16574
-0.139854
-0.118296
-0.100263
-0.0851015
-0.0723808
-0.0617648
-0.0523239
-0.452481
-0.420857
-0.385379
-0.33693
-0.288039
-0.244631
-0.207782
-0.176958
-0.151207
-0.129629
-0.111475
-0.0961242
-0.0831472
-0.0722437
-0.0625378
-0.447071
-0.416575
-0.385184
-0.340909
-0.294971
-0.253343
-0.217505
-0.187238
-0.161768
-0.140288
-0.12211
-0.106651
-0.0934862
-0.0823384
-0.0723466
-0.439897
-0.410652
-0.382998
-0.343012
-0.300325
-0.260757
-0.226152
-0.196612
-0.171559
-0.15029
-0.13218
-0.116691
-0.103405
-0.0920804
-0.0818764
-0.431292
-0.40344
-0.379084
-0.343395
-0.304191
-0.266935
-0.233771
-0.20512
-0.180611
-0.159658
-0.141705
-0.126259
-0.112918
-0.101491
-0.0911812
-0.421592
-0.395274
-0.373743
-0.342243
-0.306673
-0.271946
-0.240416
-0.212805
-0.188959
-0.16842
-0.150705
-0.135375
-0.122045
-0.110575
-0.100256
-0.411125
-0.386462
-0.367298
-0.33976
-0.307888
-0.275867
-0.246145
-0.219716
-0.196644
-0.176607
-0.159206
-0.144058
-0.130799
-0.11933
-0.10907
-0.400198
-0.377275
-0.360083
-0.336167
-0.307964
-0.278777
-0.251019
-0.225903
-0.203707
-0.184256
-0.167237
-0.152331
-0.139196
-0.127759
-0.117604
-0.38909
-0.367948
-0.35242
-0.3317
-0.307039
-0.280761
-0.255099
-0.231417
-0.210193
-0.191402
-0.174827
-0.160216
-0.147256
-0.135875
-0.125858
-0.378044
-0.358681
-0.344596
-0.326602
-0.305263
-0.281907
-0.258444
-0.236308
-0.216146
-0.198086
-0.18201
-0.167738
-0.154999
-0.143699
-0.133844
-0.367255
-0.349642
-0.336846
-0.321116
-0.302798
-0.282306
-0.261113
-0.240621
-0.221608
-0.204345
-0.18882
-0.174926
-0.162448
-0.151254
-0.141578
-0.356879
-0.340968
-0.329344
-0.315477
-0.29981
-0.282055
-0.263163
-0.2444
-0.226618
-0.210217
-0.195291
-0.181809
-0.16963
-0.158561
-0.149074
-0.347028
-0.332764
-0.322209
-0.309891
-0.296475
-0.281258
-0.26465
-0.247681
-0.231209
-0.215736
-0.201458
-0.188419
-0.176569
-0.165646
-0.156351
-0.33778
-0.325104
-0.315517
-0.304523
-0.292962
-0.280024
-0.265632
-0.250499
-0.23541
-0.22093
-0.207351
-0.194784
-0.183292
-0.172532
-0.163426
-0.329186
-0.318027
-0.309318
-0.299482
-0.289433
-0.278471
-0.266171
-0.252881
-0.23924
-0.225821
-0.212999
-0.200936
-0.189825
-0.179246
-0.170319
-0.321268
-0.311547
-0.303638
-0.294828
-0.286022
-0.276723
-0.266333
-0.254854
-0.242711
-0.230422
-0.218419
-0.206899
-0.196195
-0.185813
-0.177054
-0.31403
-0.305655
-0.298487
-0.290587
-0.282826
-0.274898
-0.266197
-0.256449
-0.245829
-0.234736
-0.223624
-0.212695
-0.202426
-0.192263
-0.183649
-0.307461
-0.300327
-0.293856
-0.286765
-0.279904
-0.273101
-0.265846
-0.2577
-0.248595
-0.238755
-0.22861
-0.218333
-0.208541
-0.198616
-0.190144
-0.30154
-0.295531
-0.289721
-0.283358
-0.277279
-0.271413
-0.265368
-0.258654
-0.251012
-0.242459
-0.233361
-0.223813
-0.214554
-0.204913
-0.196551
-0.296232
-0.291228
-0.28605
-0.280352
-0.274959
-0.269884
-0.26484
-0.259365
-0.253089
-0.245826
-0.237843
-0.229114
-0.220468
-0.211157
-0.202979
-0.291496
-0.287376
-0.282799
-0.277723
-0.272941
-0.268542
-0.264326
-0.259896
-0.254845
-0.248834
-0.242012
-0.234188
-0.226274
-0.21738
-0.209432
-0.287282
-0.283933
-0.279924
-0.275437
-0.271211
-0.267397
-0.263869
-0.260304
-0.256312
-0.251472
-0.24581
-0.238987
-0.231895
-0.22358
-0.21619
-0.283538
-0.280851
-0.277379
-0.273453
-0.269747
-0.266449
-0.263497
-0.260638
-0.25753
-0.253743
-0.249184
-0.243414
-0.237298
-0.229632
-0.223133
-0.280199
-0.278088
-0.275115
-0.271726
-0.268515
-0.265685
-0.263221
-0.260937
-0.258544
-0.255665
-0.252087
-0.247436
-0.242151
-0.235957
-0.22946
-0.277198
-0.275605
-0.273087
-0.270211
-0.267473
-0.265079
-0.263041
-0.261227
-0.2594
-0.257275
-0.254494
-0.251042
-0.246296
-0.242082
-0.234903
-0.274496
-0.273341
-0.27125
-0.268859
-0.266574
-0.264593
-0.262938
-0.261517
-0.260133
-0.258618
-0.256421
-0.254206
-0.249582
-0.247377
-0.239509
-0.272036
-0.271258
-0.26956
-0.267626
-0.265774
-0.264185
-0.262882
-0.2618
-0.260768
-0.259738
-0.257925
-0.256918
-0.251964
-0.251958
-0.243165
-0.269759
-0.269322
-0.26798
-0.266474
-0.265028
-0.263809
-0.262835
-0.262053
-0.261313
-0.260664
-0.259098
-0.259171
-0.253575
-0.256053
-0.245735
-0.267621
-0.267491
-0.266489
-0.265368
-0.264299
-0.263425
-0.262757
-0.262245
-0.261759
-0.261404
-0.260039
-0.260924
-0.254729
-0.25957
-0.247226
-0.265588
-0.265749
-0.265055
-0.264282
-0.263558
-0.263
-0.262613
-0.262345
-0.262089
-0.26195
-0.260814
-0.262129
-0.255784
-0.262157
-0.248015
-0.263634
-0.26408
-0.263659
-0.2632
-0.262785
-0.262511
-0.262376
-0.262327
-0.262278
-0.262297
-0.261437
-0.262803
-0.256917
-0.263577
-0.24873
-0.261745
-0.262473
-0.262294
-0.262113
-0.261969
-0.261945
-0.262032
-0.262176
-0.262307
-0.262448
-0.261875
-0.263045
-0.258061
-0.263948
-0.249785
-0.259914
-0.260924
-0.260958
-0.261019
-0.26111
-0.261301
-0.261578
-0.261888
-0.262168
-0.262413
-0.262088
-0.262984
-0.259031
-0.26363
-0.251135
-0.258147
-0.259436
-0.259656
-0.259927
-0.260216
-0.260588
-0.261023
-0.26147
-0.26187
-0.262204
-0.262053
-0.262739
-0.259668
-0.262985
-0.252487
-0.256454
-0.258018
-0.2584
-0.258848
-0.259303
-0.259823
-0.260386
-0.260943
-0.261441
-0.261826
-0.261791
-0.262376
-0.259909
-0.262273
-0.253599
-0.254854
-0.256685
-0.257205
-0.257802
-0.258393
-0.259031
-0.259696
-0.260338
-0.260905
-0.261334
-0.261464
-0.261742
-0.259916
-0.261596
-0.2544
-0.253372
-0.255454
-0.256091
-0.256812
-0.25751
-0.258241
-0.258984
-0.259689
-0.260306
-0.260768
-0.260983
-0.26107
-0.259941
-0.26051
-0.255244
-0.252032
-0.254346
-0.25508
-0.2559
-0.256684
-0.257486
-0.258287
-0.259037
-0.259687
-0.260173
-0.260426
-0.260439
-0.259726
-0.259581
-0.256093
-0.250863
-0.253381
-0.254195
-0.255094
-0.255942
-0.256797
-0.257639
-0.258422
-0.259093
-0.259594
-0.259866
-0.259862
-0.259367
-0.258893
-0.256591
-0.24989
-0.25258
-0.253456
-0.254415
-0.255312
-0.256205
-0.257076
-0.257879
-0.258564
-0.259074
-0.259357
-0.259358
-0.258982
-0.258397
-0.256834
-0.249138
-0.251961
-0.252883
-0.253886
-0.254816
-0.255736
-0.256626
-0.257442
-0.258134
-0.25865
-0.258939
-0.258952
-0.258643
-0.258052
-0.25693
-0.248625
-0.25154
-0.252492
-0.253523
-0.254475
-0.25541
-0.256312
-0.257136
-0.257833
-0.258351
-0.258643
-0.258667
-0.258395
-0.257831
-0.256953
-0.248365
-0.251326
-0.252293
-0.253339
-0.254301
-0.255244
-0.256152
-0.256979
-0.257677
-0.258196
-0.25849
-0.25852
-0.258266
-0.257724
-0.256951
0.273796
0.251201
0.231902
0.217153
0.204314
0.194398
0.185645
0.178828
0.172739
0.167974
0.163716
0.160418
0.157484
0.155237
0.153272
0.15182
0.150605
0.14979
0.149194
0.148969
0.27323
0.250813
0.231606
0.21694
0.204145
0.194271
0.185539
0.178746
0.172671
0.167917
0.163665
0.160374
0.157445
0.155201
0.153239
0.151789
0.150576
0.149762
0.149167
0.148943
0.272096
0.250039
0.231016
0.216515
0.203807
0.194017
0.185329
0.178581
0.172534
0.167804
0.163565
0.160286
0.157366
0.15513
0.153173
0.151728
0.150519
0.149707
0.149114
0.14889
0.270394
0.248879
0.230132
0.21588
0.203302
0.193637
0.185015
0.178335
0.17233
0.167635
0.163414
0.160155
0.157248
0.155023
0.153075
0.151636
0.150432
0.149625
0.149034
0.14881
0.268122
0.247335
0.228955
0.215037
0.202631
0.193132
0.184599
0.178006
0.172056
0.167408
0.163215
0.159981
0.157091
0.154881
0.152944
0.151514
0.150318
0.149515
0.148928
0.148705
0.265279
0.245408
0.22749
0.213987
0.201798
0.192505
0.184081
0.177597
0.171717
0.167131
0.162969
0.159764
0.156897
0.154705
0.152782
0.151363
0.150176
0.149379
0.148797
0.148574
0.261867
0.243102
0.225737
0.212734
0.200803
0.191755
0.183465
0.177108
0.171305
0.166782
0.162672
0.159507
0.156666
0.154495
0.152589
0.151183
0.150006
0.149217
0.14864
0.148418
0.257887
0.240419
0.223701
0.211281
0.199652
0.190886
0.182752
0.176538
0.170824
0.166408
0.162351
0.159209
0.156399
0.154252
0.152366
0.150974
0.14981
0.149029
0.148458
0.148237
0.253343
0.237364
0.221385
0.209629
0.198347
0.1899
0.181946
0.175892
0.170276
0.165961
0.16194
0.158871
0.156097
0.153977
0.152113
0.150737
0.149588
0.148816
0.148252
0.148032
0.24824
0.233939
0.218795
0.207782
0.196893
0.188797
0.18105
0.175172
0.169666
0.165446
0.161579
0.158512
0.155761
0.15367
0.151831
0.150474
0.14934
0.148578
0.148022
0.147804
0.242585
0.230151
0.215935
0.205742
0.195294
0.187581
0.180065
0.174378
0.169001
0.16488
0.161076
0.158099
0.155392
0.153333
0.151521
0.150184
0.149067
0.148317
0.147769
0.147553
0.236389
0.226001
0.212812
0.20351
0.193555
0.186253
0.178995
0.173514
0.16828
0.164273
0.160566
0.157645
0.154992
0.152967
0.151186
0.14987
0.148771
0.148033
0.147494
0.14728
0.229662
0.221494
0.209434
0.201089
0.191681
0.184816
0.177844
0.17258
0.167503
0.163612
0.159994
0.157151
0.154556
0.152575
0.150824
0.149531
0.148453
0.147728
0.147198
0.146985
0.22242
0.216631
0.205809
0.19848
0.189676
0.183273
0.176613
0.171579
0.166674
0.162905
0.159379
0.156649
0.154116
0.152161
0.15044
0.149169
0.148112
0.147401
0.146881
0.146671
0.214678
0.211412
0.201947
0.195685
0.187545
0.181625
0.175305
0.170514
0.165794
0.162156
0.158728
0.156063
0.153636
0.151715
0.150033
0.148785
0.147751
0.147054
0.146544
0.146337
0.206457
0.205835
0.197858
0.192708
0.185293
0.179878
0.173924
0.169387
0.164864
0.161364
0.158047
0.155463
0.153097
0.151255
0.149587
0.148383
0.14737
0.146688
0.146189
0.145985
0.19777
0.19989
0.19355
0.18955
0.182921
0.178034
0.172471
0.1682
0.163885
0.160532
0.157331
0.154832
0.152533
0.150753
0.149184
0.147963
0.146971
0.146304
0.145817
0.145616
0.188655
0.193584
0.189036
0.186214
0.180431
0.176092
0.170943
0.166953
0.162858
0.159658
0.156581
0.154173
0.151947
0.150216
0.148684
0.147537
0.146557
0.145905
0.145427
0.145231
0.1791
0.186938
0.184342
0.182764
0.177866
0.174106
0.169383
0.165685
0.161812
0.158771
0.155818
0.153501
0.151349
0.149676
0.148186
0.147072
0.146138
0.145492
0.145022
0.144831
0.168634
0.179471
0.179207
0.178998
0.175098
0.17198
0.167709
0.164331
0.160691
0.157821
0.154999
0.152782
0.15071
0.149099
0.14766
0.146581
0.145677
0.145058
0.144604
0.144417
0.153473
0.167237
0.170846
0.171877
0.169797
0.167528
0.164283
0.161447
0.158404
0.155873
0.15341
0.151406
0.149555
0.148081
0.146779
0.145783
0.144958
0.144384
0.143975
0.143808
0.141585
0.153638
0.16029
0.162863
0.162729
0.161633
0.159563
0.157513
0.155197
0.153178
0.151171
0.149499
0.147936
0.146675
0.145554
0.14469
0.14397
0.143465
0.143108
0.142967
0.130707
0.14248
0.150534
0.15436
0.155815
0.155801
0.154811
0.15352
0.151908
0.150399
0.148848
0.147513
0.146245
0.145204
0.144271
0.143544
0.142934
0.142504
0.142201
0.142082
0.12062
0.13269
0.141578
0.146433
0.149165
0.150124
0.15012
0.14954
0.148604
0.147585
0.146485
0.14548
0.14451
0.143687
0.142944
0.142355
0.141859
0.141505
0.141257
0.14116
0.111532
0.123901
0.133371
0.139099
0.142841
0.144671
0.145535
0.145622
0.145317
0.14477
0.144104
0.143424
0.142745
0.142139
0.141586
0.141134
0.140753
0.140476
0.140284
0.140206
0.103471
0.115988
0.125865
0.132321
0.136866
0.139469
0.141087
0.141796
0.142069
0.141976
0.141722
0.141359
0.140964
0.140572
0.140206
0.139891
0.139624
0.139424
0.139287
0.139229
0.0963441
0.108881
0.119023
0.12606
0.131251
0.134529
0.136801
0.138083
0.138883
0.139221
0.139356
0.1393
0.139178
0.138997
0.138814
0.138633
0.138479
0.138355
0.138273
0.138234
0.0900195
0.102498
0.112802
0.120284
0.125997
0.129859
0.132696
0.1345
0.135778
0.136523
0.13702
0.137262
0.137398
0.137424
0.137417
0.13737
0.137325
0.137277
0.137247
0.137228
0.0843908
0.0967627
0.107153
0.114968
0.121101
0.125459
0.128787
0.131062
0.13277
0.133896
0.134729
0.135254
0.135637
0.135863
0.136024
0.136109
0.136169
0.136196
0.136217
0.136219
0.0793762
0.0916044
0.102025
0.110082
0.116553
0.12133
0.125082
0.127777
0.129874
0.13135
0.132496
0.133289
0.133905
0.134322
0.134645
0.134857
0.13502
0.135119
0.135189
0.135211
0.0749078
0.0869653
0.0973706
0.105601
0.11234
0.117468
0.121586
0.124653
0.127098
0.128898
0.130331
0.131376
0.13221
0.132811
0.133287
0.133622
0.133882
0.134052
0.134168
0.13421
0.0709258
0.0827943
0.0931488
0.101497
0.108447
0.113867
0.118299
0.121695
0.124452
0.126546
0.128243
0.129524
0.130561
0.131336
0.131958
0.13241
0.132763
0.133001
0.133161
0.133224
0.0673774
0.0790459
0.0893227
0.0977445
0.104858
0.110521
0.115221
0.118906
0.121941
0.124301
0.12624
0.127739
0.128966
0.129905
0.130664
0.131228
0.131669
0.131971
0.132174
0.132256
0.0642156
0.0756793
0.0858588
0.0943209
0.101559
0.107421
0.11235
0.116286
0.119569
0.12217
0.124329
0.126029
0.127432
0.128524
0.129411
0.130081
0.130605
0.130969
0.131211
0.131313
0.0613996
0.0726583
0.0827274
0.0912036
0.0985326
0.104558
0.109682
0.113838
0.117339
0.120156
0.122516
0.1244
0.125965
0.127199
0.128206
0.128976
0.129577
0.129999
0.130279
0.130399
0.0588936
0.0699506
0.0799015
0.0883722
0.0957661
0.101925
0.107212
0.111559
0.115253
0.118264
0.120803
0.122856
0.12457
0.125936
0.127054
0.127916
0.12859
0.129066
0.129382
0.129519
0.0566661
0.067528
0.0773571
0.0858075
0.0932451
0.0995112
0.104936
0.109448
0.113311
0.116494
0.119196
0.121401
0.123252
0.124738
0.125959
0.126907
0.127649
0.128176
0.128524
0.128677
0.0546899
0.0653655
0.0750726
0.0834924
0.0909569
0.0973092
0.102849
0.107503
0.111514
0.11485
0.117697
0.12004
0.122014
0.123612
0.124927
0.125954
0.126758
0.127331
0.12771
0.127879
0.0529413
0.0634412
0.0730291
0.0814112
0.0888895
0.0953102
0.100946
0.105721
0.109861
0.113332
0.116309
0.118775
0.120861
0.122559
0.12396
0.12506
0.125921
0.126537
0.126944
0.127127
0.0513997
0.0617359
0.0712094
0.0795496
0.0870319
0.0935065
0.0992208
0.1041
0.108352
0.111942
0.115032
0.11761
0.119795
0.121584
0.123063
0.124228
0.125142
0.125797
0.126229
0.126425
0.0500475
0.0602328
0.0695986
0.0778951
0.0853742
0.0918905
0.0976697
0.102638
0.106985
0.110678
0.113869
0.116545
0.11882
0.120689
0.122238
0.123463
0.124423
0.125114
0.125569
0.125777
0.0488693
0.0589176
0.0681836
0.0764364
0.0839073
0.0904557
0.0962876
0.10133
0.10576
0.109543
0.112821
0.115582
0.117936
0.119878
0.121488
0.122766
0.123768
0.124491
0.124967
0.125185
0.0478522
0.0577777
0.0669529
0.0751636
0.0826232
0.0891958
0.0950703
0.100176
0.104674
0.108534
0.111888
0.114724
0.117146
0.119151
0.120816
0.12214
0.12318
0.123931
0.124424
0.124652
0.046985
0.0568025
0.0658967
0.0740682
0.0815149
0.0881054
0.094014
0.0991711
0.103728
0.107653
0.111071
0.113971
0.116452
0.118512
0.120223
0.121588
0.12266
0.123435
0.123945
0.124181
0.0462585
0.0559829
0.0650065
0.0731427
0.0805761
0.0871797
0.0931152
0.0983146
0.102919
0.106899
0.11037
0.113325
0.115855
0.117961
0.119712
0.121112
0.122211
0.123007
0.12353
0.123773
0.045665
0.0553115
0.0642752
0.0723809
0.0798017
0.0864147
0.0923709
0.097604
0.102247
0.106271
0.109786
0.112785
0.115356
0.1175
0.119284
0.120712
0.121834
0.122647
0.123182
0.123431
0.0451984
0.054782
0.0636971
0.0717776
0.0791873
0.0858068
0.0917784
0.0970377
0.101711
0.105769
0.109319
0.112352
0.114956
0.11713
0.11894
0.120391
0.121531
0.122358
0.122902
0.123155
0.0448536
0.0543898
0.0632676
0.0713289
0.0787294
0.0853532
0.0913359
0.0966141
0.101309
0.105393
0.108968
0.112028
0.114655
0.116851
0.118682
0.12015
0.121302
0.12214
0.12269
0.122948
0.0446271
0.0541313
0.0629832
0.0710316
0.0784255
0.0850521
0.0910416
0.0963324
0.101042
0.105142
0.108734
0.111811
0.114454
0.116666
0.118509
0.119988
0.12115
0.121994
0.122549
0.122809
0.0445153
0.0540043
0.0628411
0.0708842
0.0782734
0.0849024
0.0908943
0.0961921
0.100908
0.105017
0.108617
0.111703
0.114354
0.116573
0.118422
0.119907
0.121073
0.121922
0.122478
0.122739
0.138755
0.129628
0.119944
0.110576
0.101976
0.0942302
0.0873037
0.0811324
0.0756486
0.0707838
0.0664714
0.0626496
0.0592627
0.0562613
0.0536024
0.051248
0.0491655
0.0473261
0.0457054
0.0442819
0.0430373
0.041956
0.0410246
0.0402318
0.0395682
0.0390262
0.0385996
0.0382834
0.0380747
0.0379755
0.128495
0.118824
0.109706
0.10112
0.0933319
0.0863264
0.0800507
0.0744523
0.0694767
0.0650638
0.0611527
0.0576864
0.0546138
0.0518898
0.0494751
0.0473352
0.0454406
0.0437654
0.0422873
0.0409871
0.0398483
0.0388567
0.0380002
0.0372688
0.0366539
0.0361486
0.0357474
0.0354459
0.0352415
0.0351416
0.116659
0.10557
0.0966191
0.0886771
0.0817848
0.0757274
0.0703775
0.0656448
0.0614585
0.0577542
0.0544732
0.0515637
0.0489808
0.046686
0.0446461
0.0428328
0.0412218
0.0397921
0.0385257
0.0374073
0.0364235
0.0355631
0.0348162
0.0341749
0.0336323
0.0331829
0.0328224
0.0325471
0.0323544
0.0322546
0.106018
0.0949522
0.0864366
0.0789107
0.0725512
0.0670708
0.062317
0.0581692
0.0545358
0.0513413
0.0485239
0.0460319
0.0438227
0.0418607
0.040116
0.0385635
0.0371818
0.0359531
0.0348621
0.0338956
0.0330427
0.0322939
0.0316411
0.0310777
0.0305979
0.0301973
0.0298725
0.0296204
0.0294371
0.0293325
0.0952388
0.0852772
0.0779265
0.0711114
0.0653201
0.0602971
0.0559506
0.0521765
0.0488878
0.0460104
0.0434833
0.0412564
0.0392883
0.037545
0.035998
0.0346236
0.0334017
0.0323156
0.0313511
0.0304963
0.029741
0.0290766
0.0284958
0.0279926
0.0275619
0.0271996
0.0269028
0.0266689
0.0264924
0.0263803
0.0838671
0.0749748
0.0689332
0.0630785
0.058096
0.0536928
0.0498456
0.0464829
0.0435425
0.040966
0.0387027
0.0367094
0.0349498
0.0333931
0.0320137
0.0307897
0.0297028
0.0287376
0.0278808
0.0271214
0.0264501
0.0258588
0.0253408
0.0248905
0.0245032
0.0241751
0.0239033
0.0236861
0.0235166
0.0233978
0.0723854
0.0643645
0.0593208
0.0543143
0.0501658
0.0464723
0.0432342
0.0403843
0.0378774
0.0356699
0.0337237
0.0320051
0.0304851
0.0291385
0.027944
0.0268832
0.0259407
0.025103
0.0243588
0.0236985
0.0231137
0.0225976
0.022144
0.0217481
0.0214056
0.0211129
0.0208677
0.0206684
0.0205084
0.0203853
0.0610415
0.0539567
0.0497385
0.0454213
0.0419789
0.0389284
0.0362828
0.0339595
0.0319149
0.0301108
0.0285159
0.0271036
0.0258511
0.0247387
0.0237495
0.022869
0.0220849
0.0213864
0.0207643
0.0202108
0.0197192
0.0192835
0.0188989
0.0185612
0.0182668
0.0180127
0.0177965
0.0176176
0.0174696
0.0173448
0.04979
0.0437611
0.0404024
0.0367727
0.0339714
0.0314875
0.0293681
0.0275224
0.0259087
0.0244895
0.0232368
0.0221276
0.021143
0.0202672
0.019487
0.0187909
0.0181693
0.017614
0.0171178
0.0166746
0.0162792
0.015927
0.015614
0.0153369
0.015093
0.0148795
0.0146945
0.0145379
0.0144042
0.0142802
0.0385933
0.033645
0.0311877
0.0283121
0.0261741
0.024248
0.0226248
0.0212189
0.0199995
0.018934
0.0179982
0.0171724
0.0164408
0.0157905
0.0152109
0.0146933
0.0142301
0.0138152
0.013443
0.0131091
0.0128095
0.0125406
0.0122996
0.0120838
0.0118911
0.0117193
0.0115667
0.0114338
0.0113161
0.0111951
0.0274898
0.0235856
0.02201
0.0199133
0.0184623
0.017113
0.0159909
0.0150178
0.0141786
0.0134499
0.0128141
0.0122562
0.0117641
0.011328
0.0109398
0.0105931
0.0102825
0.0100033
0.0097518
0.00952461
0.00931893
0.00913228
0.00896252
0.00880777
0.0086664
0.00853684
0.00841754
0.00830929
0.00820903
0.00809333
0.0165237
0.0136251
0.0129004
0.0115608
0.0107824
0.0100095
0.0093913
0.00885242
0.00839177
0.00799585
0.0076547
0.00735853
0.00709957
0.00687152
0.00666933
0.00648886
0.00632672
0.00618009
0.00604657
0.00592411
0.00581094
0.00570552
0.00560646
0.00551254
0.00542268
0.00533578
0.00525048
0.00516783
0.00508642
0.00497808
0.00570783
0.00379278
0.00391093
0.00329744
0.00316158
0.00294284
0.00281522
0.00270223
0.00261466
0.00254875
0.0024999
0.00246293
0.00243443
0.0024118
0.002393
0.0023764
0.00236072
0.00234486
0.00232791
0.00230906
0.00228762
0.00226292
0.00223434
0.00220129
0.00216323
0.00211951
0.00206899
0.0020129
0.00195169
0.00185267
-0.0049674
-0.00590488
-0.00493395
-0.00484928
-0.00436459
-0.00405516
-0.00371215
-0.00341596
-0.00314402
-0.00288683
-0.0026483
-0.00242998
-0.00223112
-0.00205095
-0.00188857
-0.00174316
-0.00161397
-0.00150033
-0.00140172
-0.00131769
-0.00124793
-0.0011922
-0.00115037
-0.00112242
-0.00110835
-0.00110834
-0.00112332
-0.001152
-0.00119163
-0.00127957
-0.015519
-0.0154452
-0.0136276
-0.0128723
-0.0117819
-0.0109668
-0.0101698
-0.00948197
-0.00886854
-0.00829623
-0.00777806
-0.00731056
-0.00688919
-0.00651006
-0.00616957
-0.0058646
-0.00559245
-0.00535084
-0.00513783
-0.00495182
-0.00479145
-0.00465565
-0.00454356
-0.00445454
-0.0043881
-0.00434389
-0.00432263
-0.00432329
-0.00433992
-0.00441519
-0.0259584
-0.0247588
-0.0221762
-0.0207638
-0.0190927
-0.0177904
-0.0165531
-0.0154872
-0.014549
-0.0136672
-0.0128782
-0.0121687
-0.0115308
-0.0109575
-0.0104428
-0.00998136
-0.0095687
-0.00920104
-0.00887513
-0.00858825
-0.0083381
-0.00812279
-0.00794074
-0.00779074
-0.00767183
-0.00758313
-0.00752501
-0.0074973
-0.00748965
-0.00755052
-0.0362255
-0.0337402
-0.0306127
-0.0285042
-0.0263118
-0.0245302
-0.0228716
-0.0214347
-0.0201767
-0.0189912
-0.0179414
-0.0169975
-0.0161493
-0.0153871
-0.0147023
-0.0140877
-0.0135372
-0.0130456
-0.0126085
-0.0122221
-0.0118831
-0.011589
-0.0113374
-0.0111267
-0.0109553
-0.010822
-0.0107264
-0.0106701
-0.0106377
-0.0106814
-0.0462437
-0.0426313
-0.0390021
-0.0361816
-0.0335056
-0.0312366
-0.0291802
-0.0273547
-0.0257233
-0.0242602
-0.0229605
-0.0217915
-0.0207401
-0.0197942
-0.0189436
-0.0181792
-0.0174936
-0.0168803
-0.0163336
-0.0158489
-0.0154222
-0.0150499
-0.0147294
-0.0144582
-0.0142344
-0.0140565
-0.0139233
-0.0138373
-0.0137819
-0.0138032
-0.0558818
-0.0514266
-0.0472651
-0.0437902
-0.0406249
-0.0378832
-0.0354304
-0.0332385
-0.0312705
-0.0295263
-0.0279739
-0.0265787
-0.0253238
-0.0241946
-0.0231785
-0.0222647
-0.0214443
-0.0207095
-0.0200535
-0.0194707
-0.0189561
-0.0185057
-0.018116
-0.0177841
-0.0175077
-0.0172847
-0.0171137
-0.0169958
-0.0169209
-0.0169138
-0.0651909
-0.0600674
-0.0553582
-0.0512854
-0.0476338
-0.0444438
-0.0416035
-0.0390688
-0.0367976
-0.034777
-0.0329728
-0.031352
-0.0298944
-0.0285827
-0.0274019
-0.0263396
-0.0253852
-0.0245295
-0.0237648
-0.0230843
-0.0224823
-0.0219541
-0.0214954
-0.0211029
-0.0207738
-0.0205058
-0.0202969
-0.0201472
-0.0200513
-0.0200222
-0.0742725
-0.0685551
-0.0632722
-0.0586382
-0.054516
-0.0509046
-0.047693
-0.0448307
-0.0422696
-0.0399822
-0.0379335
-0.036092
-0.0344355
-0.0329444
-0.0316016
-0.030393
-0.0293063
-0.0283314
-0.0274592
-0.0266821
-0.0259937
-0.0253883
-0.0248614
-0.0244089
-0.0240275
-0.0237147
-0.0234682
-0.0232874
-0.0231683
-0.0231233
-0.0831935
-0.0769027
-0.0710139
-0.0658415
-0.0612719
-0.0572626
-0.0536956
-0.0505157
-0.0476707
-0.0451244
-0.0428399
-0.0407847
-0.0389348
-0.0372686
-0.0357674
-0.0344153
-0.0331989
-0.0321067
-0.0311288
-0.0302566
-0.029483
-0.0288016
-0.0282073
-0.0276954
-0.0272625
-0.0269055
-0.0266218
-0.0264104
-0.026267
-0.0262068
-0.0919665
-0.0850869
-0.0785943
-0.0729078
-0.0679139
-0.0635239
-0.059614
-0.0561248
-0.0530015
-0.0502028
-0.0476893
-0.0454266
-0.0433885
-0.0415513
-0.039895
-0.0384023
-0.0370585
-0.0358511
-0.0347692
-0.0338034
-0.0329458
-0.0321895
-0.0315286
-0.0309583
-0.0304745
-0.0300738
-0.0297535
-0.0295119
-0.0293444
-0.0292669
-0.100561
-0.0930993
-0.0860239
-0.0798511
-0.0744526
-0.0696949
-0.0654526
-0.0616624
-0.0582672
-0.0552219
-0.0524846
-0.0500191
-0.0477966
-0.0457918
-0.0439831
-0.0423522
-0.0408831
-0.0395622
-0.0383778
-0.0373197
-0.0363793
-0.035549
-0.0348226
-0.0341946
-0.0336606
-0.0332168
-0.0328604
-0.0325894
-0.0323981
-0.0323019
-0.108952
-0.100944
-0.0933115
-0.0866777
-0.0808912
-0.0757786
-0.0712137
-0.0671306
-0.0634701
-0.0601837
-0.0572274
-0.0545627
-0.0521589
-0.0499892
-0.0480306
-0.0462634
-0.0446707
-0.0432378
-0.0419522
-0.040803
-0.0397808
-0.0388776
-0.0380865
-0.0374017
-0.0368182
-0.0363321
-0.0359402
-0.0356403
-0.035426
-0.0353111
-0.117138
-0.10863
-0.100463
-0.0933887
-0.0872301
-0.0817762
-0.0768987
-0.0725299
-0.06861
-0.0650877
-0.0619165
-0.0590561
-0.0564737
-0.0541415
-0.052035
-0.0501334
-0.0484186
-0.0468752
-0.0454897
-0.0442505
-0.0431477
-0.0421725
-0.0413177
-0.0405768
-0.0399448
-0.0394171
-0.0389904
-0.0386624
-0.0384261
-0.0382929
-0.125125
-0.116165
-0.107481
-0.0999822
-0.0934685
-0.0876878
-0.0825071
-0.0778591
-0.0736853
-0.0699322
-0.0665501
-0.0634969
-0.0607387
-0.0582461
-0.0559937
-0.0539594
-0.0521241
-0.0504714
-0.0489873
-0.0476593
-0.0464768
-0.0454307
-0.044513
-0.0437172
-0.0430374
-0.0424691
-0.0420085
-0.0416532
-0.0413958
-0.0412455
-0.132921
-0.123554
-0.114366
-0.106459
-0.0996096
-0.0935167
-0.0880401
-0.0831179
-0.0786951