/*--------------------------------*- C++ -*----------------------------------*\
  =========                 |
  \\      /  F ield         | OpenFOAM: The Open Source CFD Toolbox
   \\    /   O peration     | Website:  https://openfoam.org
    \\  /    A nd           | Version:  7
     \\/     M anipulation  |
\*---------------------------------------------------------------------------*/
FoamFile
{
    version     2.0;
    format      ascii;
    class       surfaceScalarField;
    location    "39.999";
    object      phi;
}
// * * * * * * * * * * * * * * * * * * * * * * * * * * * * * * * * * * * * * //

dimensions      [0 3 -1 0 0 0 0];

internalField   nonuniform List<scalar> 
7248
(
-0.000159374
0.000159373
-0.000435729
0.000276353
-0.000743719
0.000307987
-0.00105657
0.00031285
-0.00137154
0.000314964
-0.00169046
0.000318921
-0.00201519
0.00032473
-0.00234734
0.000332144
-0.00268835
0.000341013
-0.00303956
0.000351209
-0.00340222
0.000362655
-0.00377751
0.000375287
-0.00416647
0.000388967
-0.00456998
0.000403505
0.000419213
-0.0049892
-0.000158679
0.000318052
-0.000434232
0.000551906
-0.000741555
0.00061531
-0.00105383
0.000625123
-0.00136824
0.000629376
-0.00168662
0.000637297
-0.00201081
0.00064892
-0.00234241
0.000663751
-0.00268289
0.000681486
-0.00303355
0.000701875
-0.00339566
0.000724762
-0.00377039
0.00075002
-0.0041588
0.000777377
-0.00456175
0.000806455
0.000837854
-0.00498039
-0.000157289
0.000475341
-0.000431237
0.000825853
-0.000737227
0.000921301
-0.00104834
0.000936237
-0.00136164
0.000942679
-0.00167893
0.000954583
-0.00200204
0.000972027
-0.00233257
0.000994278
-0.00267196
0.00102088
-0.00302154
0.00105145
-0.00338255
0.00108577
-0.00375617
0.00112364
-0.00414346
0.00116467
-0.00454529
0.00120829
0.00125535
-0.00496279
-0.000155207
0.000630549
-0.000426746
0.00109739
-0.000730737
0.00122529
-0.00104011
0.00124561
-0.00135176
0.00125432
-0.00166741
0.00127023
-0.00198889
0.00129351
-0.0023178
0.00132319
-0.00265558
0.00135865
-0.00300353
0.0013994
-0.00336289
0.00144513
-0.00373484
0.0014956
-0.00412046
0.00155029
-0.00452061
0.00160844
0.00167111
-0.00493637
-0.000152436
0.000782985
-0.000420762
0.00136572
-0.000722086
0.00152662
-0.00102915
0.00155268
-0.00133858
0.00156375
-0.00165206
0.00158371
-0.00197138
0.00161284
-0.00229814
0.00164994
-0.00263375
0.00169427
-0.00297953
0.00174518
-0.0033367
0.0018023
-0.00370643
0.00186533
-0.00408981
0.00193366
-0.00448771
0.00200635
0.00208456
-0.00490116
-0.00014898
0.000931965
-0.000413289
0.00163003
-0.000711277
0.0018246
-0.00101545
0.00185685
-0.00132213
0.00187043
-0.00163288
0.00189447
-0.00194952
0.00192948
-0.00227359
0.00197401
-0.00260651
0.00202719
-0.00294957
0.00208824
-0.003304
0.00215673
-0.00367095
0.00223229
-0.00405153
0.00231423
-0.00444661
0.00240143
0.00249509
-0.00485714
-0.000144845
0.00107681
-0.00040433
0.00188951
-0.000698312
0.00211859
-0.000999022
0.00215756
-0.0013024
0.00217381
-0.00160991
0.00220197
-0.00192332
0.00224289
-0.00224417
0.00229487
-0.00257386
0.00235688
-0.00291368
0.00242806
-0.00326482
0.00250786
-0.00362844
0.00259591
-0.00400564
0.00269143
-0.00439733
0.00279312
0.0029021
-0.00480435
-0.000140036
0.00121685
-0.000393892
0.00214337
-0.000683194
0.00240789
-0.000979869
0.00245424
-0.00127941
0.00247334
-0.00158314
0.00250571
-0.0018928
0.00255255
-0.00220991
0.00261198
-0.00253584
0.00268282
-0.00287187
0.00276409
-0.00321918
0.00285517
-0.00357892
0.00295565
-0.0039522
0.00306471
-0.00433992
0.00318085
0.00330501
-0.00474283
-0.000134563
0.00135141
-0.00038198
0.00239078
-0.000665929
0.00269184
-0.000957998
0.00274631
-0.00125316
0.00276851
-0.00155259
0.00280514
-0.00185798
0.00285794
-0.00217083
0.00292482
-0.00249248
0.00300447
-0.0028242
0.0030958
-0.00316714
0.00319812
-0.00352244
0.00331095
-0.00389123
0.00343349
-0.00427441
0.00356403
0.00370322
-0.00467262
-0.000128435
0.00147984
-0.000368604
0.00263095
-0.000646521
0.00296975
-0.000933418
0.0030332
-0.00122369
0.00305877
-0.00151829
0.00309975
-0.0018189
0.00315854
-0.00212696
0.00323288
-0.00244382
0.00332133
-0.00277069
0.00342267
-0.00310872
0.00353615
-0.00345905
0.00366128
-0.00382279
0.00379723
-0.00420086
0.0039421
0.00409614
-0.00459379
-0.000121665
0.00160151
-0.000353774
0.00286306
-0.000624977
0.00324096
-0.000906137
0.00331436
-0.00119099
0.00334362
-0.00148027
0.00338903
-0.00177558
0.00345385
-0.00207835
0.00353566
-0.00238989
0.00363287
-0.0027114
0.00374418
-0.00304399
0.00386875
-0.0033888
0.00400608
-0.00374694
0.00415537
-0.00411936
0.00431451
0.00448322
-0.00450643
-0.000114265
0.00171577
-0.000337501
0.0030863
-0.000601304
0.00350476
-0.000876165
0.00358922
-0.00115508
0.00362254
-0.00143854
0.00367248
-0.00172806
0.00374337
-0.00202504
0.00383264
-0.00233076
0.00393859
-0.00264638
0.0040598
-0.00297301
0.00419537
-0.00331174
0.00434482
-0.00366375
0.00450738
-0.00402996
0.00468072
0.00486388
-0.00441063
-0.000106252
0.00182203
-0.000319801
0.00329985
-0.000575513
0.00376047
-0.000843513
0.00385722
-0.001116
0.00389503
-0.00139313
0.00394961
-0.00167637
0.00402661
-0.00196707
0.00412334
-0.00226646
0.00423798
-0.0025757
0.00436903
-0.00289583
0.0045155
-0.00322795
0.00467695
-0.00357328
0.00485271
-0.00393277
0.00504021
0.00523761
-0.00430649
-9.76455e-05
0.00191967
-0.000300692
0.0035029
-0.000547612
0.00400739
-0.000808194
0.0041178
-0.00107375
0.00416058
-0.00134408
0.00421995
-0.00162056
0.00430309
-0.00190449
0.00440727
-0.00219708
0.00453057
-0.00249942
0.00467138
-0.00281254
0.00482862
-0.00313751
0.00500191
-0.0034756
0.00519081
-0.00382787
0.00539248
0.0056039
-0.00419416
-8.84689e-05
0.00200814
-0.000280194
0.00369462
-0.000517616
0.00424481
-0.000770222
0.00437041
-0.00102836
0.00441872
-0.00129143
0.00448301
-0.00156068
0.00457233
-0.00183737
0.00468396
-0.00212266
0.00481586
-0.00241763
0.00496634
-0.00272322
0.00513422
-0.00304046
0.00531915
-0.00337074
0.00552108
-0.00371533
0.00573707
0.00596236
-0.00407378
-7.87502e-05
0.00208689
-0.000258333
0.0038742
-0.00048554
0.00447202
-0.000729613
0.00461448
-0.000979866
0.00466898
-0.00123521
0.00473835
-0.00149677
0.0048339
-0.00176577
0.00495295
-0.0020433
0.00509339
-0.00233041
0.00525346
-0.00262802
0.00543183
-0.00293699
0.00562812
-0.00325883
0.00584292
-0.00359532
0.00607356
0.00631267
-0.00394563
-6.85254e-05
0.00215542
-0.000235138
0.00404082
-0.000451402
0.00468828
-0.000686385
0.00484947
-0.000928285
0.00491088
-0.00117546
0.00498553
-0.0014289
0.00508734
-0.00168975
0.0052138
-0.00195905
0.00536269
-0.00223784
0.00553224
-0.00252696
0.00572095
-0.00282705
0.00592822
-0.00313954
0.00615541
-0.00346735
0.00640137
0.00665509
-0.00380978
-5.78335e-05
0.00221325
-0.00021064
0.00419362
-0.000415223
0.00489287
-0.000640558
0.0050748
-0.000873649
0.00514397
-0.00111224
0.00522412
-0.00135713
0.00533223
-0.0016094
0.00546607
-0.00187004
0.00562334
-0.00214005
0.00580225
-0.00242032
0.00600122
-0.00271133
0.00621923
-0.00301391
0.00645799
-0.00333227
0.00671973
0.00699048
-0.00366767
-4.66668e-05
0.00225992
-0.000184877
0.00433183
-0.000377028
0.00508502
-0.000592155
0.00528993
-0.000815995
0.00536781
-0.00104558
0.00545371
-0.00128151
0.00556817
-0.00152479
0.00570935
-0.00177635
0.00587489
-0.0020371
0.006063
-0.00230796
0.00627208
-0.00258924
0.00650051
-0.00288031
0.00674906
-0.00318528
0.00702471
0.00732267
-0.00351747
-3.50622e-05
0.00229498
-0.000157893
0.00445466
-0.000336845
0.00526397
-0.000541204
0.00549429
-0.000755358
0.00558196
-0.000975546
0.00567389
-0.00120213
0.00579475
-0.00143602
0.00594324
-0.00167809
0.00611695
-0.00192917
0.00631408
-0.00219024
0.00653315
-0.00246212
0.0067724
-0.00274404
0.00703098
-0.00303414
0.00731481
0.00765815
-0.00336963
-2.30563e-05
0.00231803
-0.000129738
0.00456135
-0.000294709
0.00542894
-0.00048774
0.00568732
-0.000691781
0.005786
-0.000902189
0.0058843
-0.00111904
0.0060116
-0.00134317
0.00616738
-0.00157538
0.00634916
-0.00181642
0.00655511
-0.00206717
0.0067839
-0.00232858
0.00703381
-0.00260108
0.00730348
-0.00288553
0.00759926
0.00793233
-0.00315971
-1.06395e-05
0.00232867
-0.000100452
0.00465116
-0.000250656
0.00557914
-0.000431807
0.00586847
-0.000625308
0.00597951
-0.000825569
0.00608456
-0.00103234
0.00621837
-0.00124634
0.00638138
-0.00146832
0.00657114
-0.00169895
0.00678574
-0.00193895
0.0070239
-0.00218923
0.00728409
-0.00245024
0.00756449
-0.00272005
0.00786907
0.00821222
-0.00299994
2.23038e-06
0.00232644
-7.00332e-05
0.00472342
-0.000204739
0.00571385
-0.000373466
0.0060372
-0.000555988
0.00616203
-0.00074575
0.00627433
-0.000942096
0.00641471
-0.00114563
0.00658491
-0.00135703
0.00678254
-0.00157692
0.00700563
-0.00180591
0.00725289
-0.00204484
0.00752302
-0.0022948
0.00781445
-0.00255607
0.00813034
0.00848048
-0.00282433
1.44668e-05
0.00231198
-3.82782e-05
0.00477617
-0.000157075
0.00583265
-0.000312803
0.00619292
-0.000483875
0.0063331
-0.000662799
0.00645325
-0.000848402
0.00660032
-0.00104114
0.00677765
-0.00124164
0.00698305
-0.00145049
0.00721448
-0.00166825
0.00747065
-0.00189577
0.00775054
-0.0021343
0.00805298
-0.00238405
0.00838009
0.00873797
-0.00264154
2.69705e-05
0.00228501
-3.17775e-06
0.00480632
-0.000107951
0.00593742
-0.000249864
0.00633484
-0.000409023
0.00649226
-0.00057679
0.00662102
-0.000751345
0.00677487
-0.000932982
0.00695929
-0.00112228
0.00717234
-0.00131978
0.00741198
-0.00152606
0.00767693
-0.00174192
0.0079664
-0.00196854
0.0082796
-0.00220587
0.00861742
0.00898308
-0.00245098
3.89938e-05
0.00224601
2.62405e-05
0.00481907
-5.81099e-05
0.00602177
-0.000184718
0.00646145
-0.000331527
0.00663907
-0.000487806
0.0067773
-0.000651016
0.00693808
-0.000821264
0.00712954
-0.000999056
0.00735014
-0.00118492
0.00759785
-0.0013794
0.0078714
-0.00158325
0.00817025
-0.00179757
0.00849392
-0.00202234
0.0088422
0.00921565
-0.00225491
5.08305e-05
0.00219518
5.78524e-05
0.00481205
-5.89591e-06
0.00608552
-0.000117525
0.00657307
-0.000251488
0.00677303
-0.000395926
0.00692173
-0.000547511
0.00708967
-0.000706095
0.00728812
-0.000872103
0.00751614
-0.00104602
0.00777177
-0.00122838
0.00805376
-0.00141987
0.00836175
-0.00162148
0.00869552
-0.00183326
0.00905398
0.00943557
-0.00205319
6.24591e-05
0.00213272
9.02466e-05
0.00478426
4.64608e-05
0.00612931
-4.85264e-05
0.00666806
-0.00016897
0.00689347
-0.000301238
0.007054
-0.000440929
0.00722936
-0.000587591
0.00743478
-0.000741546
0.0076701
-0.000903239
0.00793346
-0.00107316
0.00822368
-0.00125195
0.00854054
-0.00144045
0.00888401
-0.00163872
0.00925225
0.0096422
-0.00184534
7.36614e-05
0.00205906
0.000122796
0.00473512
0.000100228
0.00615187
2.23228e-05
0.00674597
-8.41285e-05
0.00699992
-0.000203832
0.00717371
-0.000331377
0.0073569
-0.000465876
0.00756928
-0.000607521
0.00781174
-0.000756714
0.00808266
-0.000913903
0.00838087
-0.00107965
0.00870629
-0.00125467
0.00905903
-0.00143901
0.00943659
0.00983482
-0.00163164
8.42302e-05
0.00197483
0.00015517
0.00466419
0.00015479
0.00615225
9.48862e-05
0.00680587
2.0436e-06
0.00709277
-0.000103834
0.00727958
-0.000218985
0.00747205
-0.000341076
0.00769137
-0.000470172
0.00794084
-0.000606608
0.00821909
-0.000750774
0.00852504
-0.000903153
0.00885867
-0.00106436
0.00922024
-0.00123445
0.00960668
0.010013
-0.00141258
9.39846e-05
0.00188085
0.000187025
0.00457115
0.000209785
0.00612949
0.000169093
0.00684656
9.23372e-05
0.00716952
-2.15096e-06
0.00737407
-0.000103909
0.00757381
-0.000213349
0.00780081
-0.000329652
0.00805714
-0.00045309
0.00834253
-0.000583963
0.00865591
-0.000722652
0.00899736
-0.000869723
0.00936731
-0.00102528
0.00976224
0.0101762
-0.00118857
0.000102748
0.0017781
0.000217982
0.00445591
0.000264866
0.00608261
0.000244434
0.00686699
0.000183742
0.00723021
0.000103829
0.00745398
1.35452e-05
0.0076641
-8.28928e-05
0.00789725
-0.000186143
0.00816039
-0.000296341
0.00845273
-0.000413673
0.00877324
-0.000538381
0.00912206
-0.00067099
0.00949992
-0.0008118
0.00990305
0.0103243
-0.000959883
0.000110345
0.00166775
0.000247631
0.00431863
0.000319601
0.00601064
0.000320614
0.00686598
0.000276887
0.00727394
0.000211104
0.00751977
0.000134462
0.00774074
5.03717e-05
0.00798134
-3.99776e-05
0.00825074
-0.000136578
0.00854933
-0.000240138
0.0088768
-0.000350596
0.00923252
-0.000468401
0.00961772
-0.000594299
0.010029
0.0104569
-0.000726868
0.00011661
0.00155114
0.000275539
0.0041597
0.000373495
0.00591268
0.000397258
0.00684222
0.000371503
0.0072997
0.000320434
0.00757084
0.000257182
0.00780399
0.000186436
0.00805209
0.000109316
0.00832786
2.58694e-05
0.00863277
-6.3636e-05
0.00896631
-0.000159644
0.00932853
-0.000262301
0.00972038
-0.00037298
0.0101396
0.0105738
-0.000489904
0.000121399
0.00142975
0.000301244
0.00397985
0.000425985
0.00578794
0.000473895
0.00679431
0.000467266
0.00730632
0.000431608
0.00760649
0.000382055
0.00785354
0.000324632
0.00810951
0.000261015
0.00839148
0.000191518
0.00870227
0.000115934
0.00904189
3.41236e-05
0.00941034
-5.34902e-05
0.00980799
-0.000147493
0.0102336
0.0106761
-0.000249763
0.000124597
0.00130515
0.000324262
0.00378018
0.000476428
0.00563578
0.000549956
0.00672078
0.000563783
0.0072925
0.000544354
0.00762592
0.000508906
0.00788899
0.000464968
0.00815345
0.000414921
0.00844153
0.000359303
0.00875789
0.000298122
0.00910307
0.000231373
0.00947709
0.000159028
0.00988034
8.08845e-05
0.0103118
0.0107664
-9.45093e-06
0.000126128
0.00117902
0.000344094
0.00356222
0.000524092
0.00545578
0.00062476
0.00662011
0.00066056
0.0072567
0.000658351
0.00762813
0.0006375
0.00790984
0.000607263
0.00818369
0.000570897
0.00847789
0.000529276
0.00879951
0.000482566
0.00914978
0.000430746
0.00952891
0.000373857
0.00993723
0.000311277
0.0103744
0.010834
0.000243746
0.000125964
0.00105306
0.000360176
0.00332801
0.000568159
0.0052478
0.000697503
0.00649077
0.000756983
0.00719722
0.000773199
0.00761192
0.000767565
0.00791548
0.000751296
0.00819996
0.000728736
0.00850045
0.000701209
0.00882704
0.000669048
0.00918194
0.00063231
0.00956565
0.000591103
0.00997843
0.000545426
0.01042
0.0108842
0.000495166
0.000124131
0.000928927
0.00037199
0.00308015
0.000607737
0.00501205
0.000767241
0.00633126
0.000852298
0.00711216
0.00088839
0.00757583
0.000898775
0.00790509
0.000896822
0.00820191
0.000888207
0.00850907
0.000874852
0.00884039
0.000857321
0.00919947
0.000835788
0.00958718
0.000810429
0.0100038
0.00078126
0.0104492
0.0109175
0.000747946
0.000120716
0.000808211
0.000379134
0.00282173
0.000641882
0.0047493
0.00083288
0.00614027
0.000945582
0.00699946
0.00100329
0.00751812
0.00103072
0.00787765
0.00104355
0.00818908
0.00104906
0.00850356
0.00104995
0.0088395
0.0010471
0.00920232
0.00104082
0.00959346
0.00103132
0.0100133
0.00101846
0.0104621
0.0109339
0.00100206
0.000115857
0.000692354
0.000381294
0.00255629
0.000669601
0.00446099
0.000893169
0.0059167
0.00103572
0.00685691
0.00111708
0.00743675
0.0011629
0.00783184
0.00119115
0.00816083
0.00121103
0.00848368
0.00122624
0.00882429
0.00123811
0.00919046
0.00124708
0.00958449
0.00125341
0.010007
0.0012569
0.0104586
0.0109337
0.00125714
0.000109736
0.000582618
0.000378294
0.00228773
0.000689898
0.00414939
0.000946702
0.00565989
0.00112137
0.00668225
0.00122877
0.00732935
0.00129463
0.00776598
0.00133919
0.00811627
0.00137379
0.00844908
0.00140344
0.00879463
0.00143004
0.00916386
0.00145425
0.00956028
0.00147643
0.00998479
0.00149639
0.0104386
0.0109167
0.00151338
0.000102575
0.000480042
0.000370133
0.00202018
0.000701819
0.0038177
0.000991934
0.00536978
0.00120094
0.00647324
0.00133707
0.00719323
0.00142506
0.00767799
0.00148713
0.0080542
0.00153699
0.00839922
0.00158125
0.00875037
0.00162262
0.00912249
0.00166206
0.00952083
0.00170008
0.00994677
0.00173664
0.010402
0.0108827
0.00177063
9.46209e-05
0.000385422
0.000357015
0.00175778
0.000704533
0.00347018
0.00102722
0.00504709
0.00127259
0.00622787
0.00144042
0.0070254
0.0015531
0.00756531
0.00163428
0.00797302
0.00170017
0.00833333
0.00175933
0.0086912
0.00181553
0.0090663
0.00187022
0.00946614
0.00192406
0.00989293
0.00197727
0.0103488
0.0108316
0.00202837
8.6134e-05
0.000299288
0.000339367
0.00150455
0.000697438
0.00311211
0.00105088
0.00469366
0.0013342
0.00594454
0.00153689
0.00682272
0.0016773
0.00742489
0.00177972
0.0078706
0.00186277
0.00825028
0.00193729
0.00861668
0.00200846
0.00899513
0.00207839
0.00939621
0.00214801
0.0098233
0.00221786
0.010279
0.0107634
0.0022861
7.73687e-05
0.000221919
0.000317823
0.00126409
0.000680274
0.00274966
0.00106129
0.00431264
0.00138344
0.00562239
0.00162416
0.006582
0.00179585
0.0072532
0.00192222
0.00774424
0.00202404
0.00814845
0.00211465
0.00852607
0.00220102
0.00890876
0.00228623
0.009311
0.00237158
0.00973796
0.00245801
0.0101926
0.010678
0.00254336
6.85585e-05
0.00015336
0.000293193
0.00103946
0.000653246
0.00238961
0.00105707
0.00390882
0.00141779
0.00526167
0.00169948
0.0063003
0.00190643
0.00704626
0.00206014
0.00759053
0.00218293
0.00802566
0.00229077
0.00841823
0.00239279
0.00880674
0.00249339
0.00921041
0.0025944
0.00963695
0.00269734
0.0100896
0.0105756
0.00279971
5.99047e-05
9.34556e-05
0.000266403
0.000832963
0.000617111
0.0020389
0.00103722
0.00348871
0.00143471
0.00486417
0.00175973
0.00597529
0.00200614
0.00679985
0.00219132
0.00740535
0.00233805
0.00787892
0.00246481
0.00829148
0.00258322
0.00868833
0.00269943
0.00909419
0.00281609
0.00952029
0.00293545
0.00997026
0.0104564
0.00305474
5.15728e-05
4.18828e-05
0.000238422
0.000646114
0.000573195
0.00170413
0.00100141
0.0030605
0.00143185
0.00443373
0.00180142
0.00560572
0.0020915
0.00650977
0.00231292
0.00718393
0.00248745
0.00770439
0.00263555
0.00814337
0.00277157
0.00855231
0.00290388
0.00896188
0.00303625
0.00938793
0.00317196
0.00983455
0.0103203
0.00330802
4.36941e-05
-1.81125e-06
0.00021018
0.000479627
0.000523307
0.001391
0.000950205
0.0026336
0.00140732
0.00397662
0.00182092
0.00519212
0.00215835
0.00617233
0.00242131
0.00692097
0.00262846
0.00749725
0.0028013
0.00797053
0.00295684
0.00839676
0.00310611
0.00881262
0.00325442
0.00923961
0.00340644
0.00968253
0.0101676
0.00355912
3.63698e-05
-3.81811e-05
0.000182499
0.000333499
0.000469578
0.00110392
0.000885212
0.00221797
0.0013601
0.00350173
0.00181471
0.00473751
0.00220201
0.00578503
0.00251195
0.00661104
0.00275748
0.00725171
0.00295961
0.00776841
0.00313753
0.00821884
0.00330521
0.00864494
0.00347002
0.00907481
0.00363844
0.00951411
0.00999847
0.00380759
2.96712e-05
-6.78523e-05
0.000156048
0.000207122
0.00041423
0.000845741
0.000809118
0.00182308
0.0012905
0.00302035
0.0017799
0.00424811
0.00221749
0.00534744
0.00257934
0.00624919
0.00286977
0.00696129
0.00310701
0.00753116
0.00331143
0.00801442
0.0034999
0.00845646
0.00368226
0.00889245
0.00386738
0.00932899
0.00981284
0.00405301
2.36487e-05
-9.1501e-05
0.000131338
9.94328e-05
0.000359347
0.000617732
0.000725458
0.00145697
0.00120048
0.00254532
0.00171478
0.00373381
0.00219991
0.00486232
0.00261719
0.0058319
0.00295927
0.00661921
0.00323872
0.0072517
0.00347525
0.00777789
0.00368816
0.00824355
0.00388998
0.00869063
0.00409257
0.0091264
0.00961068
0.00429473
1.83319e-05
-0.000109833
0.000108734
9.03058e-06
0.000306693
0.000419773
0.000638201
0.00112546
0.00109385
0.00208967
0.00161964
0.00320802
0.0021453
0.00433665
0.00261878
0.00535842
0.00301858
0.00621941
0.00334828
0.00692201
0.00362423
0.00750194
0.00386692
0.00800086
0.00409133
0.00846622
0.0043129
0.00890483
0.00939132
0.00453227
1.37328e-05
-0.000123566
8.84713e-05
-6.57079e-05
0.00025762
0.000250624
0.000551233
0.000831846
0.000975926
0.00166498
0.0014973
0.00268664
0.00205159
0.00378237
0.00257772
0.00483229
0.00303923
0.0057579
0.00342733
0.00653391
0.0037516
0.00717767
0.00403144
0.00772102
0.00428347
0.0082142
0.0045266
0.00866169
0.00915364
0.00476428
9.84759e-06
-0.000133413
7.06764e-05
-0.000126537
0.000213056
0.000108244
0.000467908
0.000576994
0.000852902
0.00127999
0.00135343
0.00218612
0.00191976
0.00321603
0.00248921
0.00426284
0.00301237
0.00523474
0.00346572
0.00608056
0.00384815
0.00679524
0.00417472
0.00739446
0.00446153
0.00792738
0.00473119
0.00839203
0.00889548
0.00498934
6.65671e-06
-0.00014007
5.53777e-05
-0.000175258
0.000173539
-9.91708e-06
0.000390759
0.000359774
0.000730876
0.000939872
0.00119592
0.00172107
0.00175472
0.00265723
0.00235174
0.00366582
0.00293024
0.00465624
0.00345211
0.00555869
0.00390203
0.00634532
0.0042867
0.00700979
0.0046185
0.00759558
0.00492107
0.00808947
0.00861142
0.00520513
4.12388e-06
-0.000144194
4.25132e-05
-0.000213647
0.00013927
-0.000106674
0.000321425
0.00017762
0.000615015
0.000646282
0.00103376
0.00130233
0.00156531
0.00212568
0.00216868
0.00306244
0.00278837
0.00403655
0.0033755
0.00497155
0.00389931
0.00582152
0.00435364
0.00655546
0.00474318
0.00720604
0.00509076
0.00774189
0.00829927
0.00540291
2.19549e-06
-0.000146389
3.19363e-05
-0.000243388
0.000110161
-0.000184899
0.000260696
2.70847e-05
0.000509027
0.000397951
0.00087543
0.000935929
0.00136307
0.00163804
0.00194908
0.00247644
0.00258807
0.00339755
0.00322811
0.00433151
0.00382537
0.00522426
0.00435919
0.00602164
0.00481944
0.00674579
0.00522549
0.00733584
0.00793636
0.0055884
8.04982e-07
-0.000147194
2.34229e-05
-0.000266006
8.58797e-05
-0.000247356
0.000208645
-9.56802e-05
0.000415022
0.000191574
0.000727656
0.000623295
0.00116013
0.00120557
0.0017067
0.00192986
0.00233818
0.00276608
0.00300874
0.00366095
0.00366914
0.00456385
0.00428323
0.00540756
0.00483169
0.00619733
0.00530367
0.00686386
0.00751805
0.00572198
-1.49866e-07
-0.000147044
1.66766e-05
-0.000282832
6.58939e-05
-0.000296573
0.000164767
-0.000194553
0.000333655
2.26858e-05
0.000594715
0.000362235
0.000966881
0.000833406
0.00145741
0.00143933
0.00205455
0.00216894
0.00272573
0.00298977
0.0034271
0.00386247
0.00411105
0.00472361
0.00474881
0.00555957
0.00532025
0.00629242
0.00704395
0.00579435
-8.83082e-07
-0.000146161
1.13506e-05
-0.000295066
4.95314e-05
-0.000334754
0.000128136
-0.000273157
0.000264419
-0.000113598
0.000478433
0.000148222
0.000790543
0.000521296
0.00121578
0.00101409
0.00175687
0.00162785
0.00239722
0.00234942
0.00310725
0.00315244
0.00383775
0.00399311
0.00455316
0.00484416
0.00523822
0.00560736
0.00648547
0.0057967
-1.31555e-06
-0.000144846
7.09462e-06
-0.000303476
3.60395e-05
-0.000363699
9.75582e-05
-0.000334676
0.000205991
-0.000222031
0.000378603
-2.43897e-05
0.000634703
0.000265196
0.000992521
0.000656277
0.0014641
0.00115627
0.00204745
0.00176608
0.00272997
0.00246992
0.00347243
0.00325064
0.00423618
0.00408041
0.00501627
0.00482728
0.00582626
0.00567548
-1.61214e-06
-0.000143234
3.54951e-06
-0.000308638
2.46537e-05
-0.000384803
7.17255e-05
-0.000381748
0.000156571
-0.000306876
0.000293595
-0.000161413
0.000499802
5.89886e-05
0.000793426
0.000362652
0.00119075
0.000758951
0.00170059
0.00125624
0.00232369
0.00184683
0.00303906
0.00253526
0.00381116
0.0033083
0.00464674
0.0039917
0.00507051
0.0054025
-1.90842e-06
-0.000141325
4.3151e-07
-0.000310978
1.46552e-05
-0.000399027
4.93515e-05
-0.000416444
0.00011419
-0.000371715
0.000220985
-0.000268209
0.000384045
-0.000104071
0.000619814
0.000126883
0.000945189
0.000433576
0.00137514
0.000826288
0.00191756
0.00130441
0.00257174
0.00188108
0.00331044
0.00256961
0.00414612
0.00315602
0.00424332
0.00497331
-2.29239e-06
-0.000139033
-2.72882e-06
-0.000310541
5.41017e-06
-0.000407166
2.92875e-05
-0.000440321
7.69714e-05
-0.000419399
0.000158104
-0.000349342
0.000284412
-0.000230379
0.00046984
-5.85443e-05
0.00072991
0.000173506
0.00108137
0.000474825
0.00153482
0.000850963
0.00210496
0.00131094
0.00277537
0.0018992
0.00355643
0.00237495
0.00339128
0.00440847
-2.81348e-06
-0.000136219
-5.97443e-06
-0.00030738
-3.56214e-06
-0.000409578
1.05979e-05
-0.000454481
4.3302e-05
-0.000452103
0.00010245
-0.00040849
0.000197533
-0.000325462
0.000339957
-0.000200968
0.000543046
-2.95833e-05
0.000822272
0.000195599
0.00118921
0.000484022
0.00166474
0.000835408
0.00224471
0.00131923
0.00293183
0.00168783
0.00257232
0.0037508
-3.50855e-06
-0.000132711
-9.48128e-06
-0.000301407
-1.26005e-05
-0.000406459
-7.39988e-06
-0.000459682
1.19396e-05
-0.000471443
5.19534e-05
-0.000448504
0.000120303
-0.000393811
0.000226143
-0.000306808
0.000380423
-0.000183863
0.000595972
-1.99504e-05
0.000884765
0.000195229
0.00126538
0.000454789
0.00174663
0.000837981
0.00232026
0.00111421
0.00183878
0.0030538
-4.39325e-06
-0.000128318
-1.33279e-05
-0.000292473
-2.18908e-05
-0.000397896
-2.51284e-05
-0.000456444
-1.79549e-05
-0.000478616
5.09882e-06
-0.000471557
5.02418e-05
-0.000438954
0.000124754
-0.000381321
0.000237368
-0.000296477
0.00039816
-0.000180743
0.000618657
-2.52672e-05
0.00091146
0.000161986
0.00129595
0.000453489
0.00175292
0.000657239
0.00122258
0.00236912
-5.46144e-06
-0.000122856
-1.75187e-05
-0.000280416
-3.14873e-05
-0.000383927
-4.27682e-05
-0.000445164
-4.68363e-05
-0.000474548
-3.90518e-05
-0.000479342
-1.43658e-05
-0.00046364
3.29915e-05
-0.000428678
0.000109849
-0.000373334
0.000223937
-0.000294831
0.000385356
-0.000186686
0.000601444
-5.41026e-05
0.000896424
0.000158509
0.00124479
0.000308875
0.000731625
0.00173574
-6.68789e-06
-0.000116168
-2.19987e-05
-0.000265105
-4.13242e-05
-0.000364602
-6.02989e-05
-0.000426189
-7.48301e-05
-0.000460017
-8.09373e-05
-0.000473235
-7.44934e-05
-0.000470084
-5.09577e-05
-0.000452214
-5.14161e-06
-0.00041915
6.91676e-05
-0.00036914
0.0001796
-0.000297119
0.00033095
-0.000205452
0.000545829
-5.63702e-05
0.000800279
5.44252e-05
0.000357122
0.00117478
-8.0319e-06
-0.000108136
-2.66655e-05
-0.000246471
-5.12433e-05
-0.000340024
-7.75403e-05
-0.000399892
-0.000101802
-0.000435755
-0.000120581
-0.000454455
-0.000130496
-0.000460169
-0.000127975
-0.000454735
-0.000109
-0.000438125
-6.92731e-05
-0.000408867
-3.83423e-06
-0.000362558
9.58053e-05
-0.000305092
0.000240107
-0.000200672
0.000418203
-0.000123671
8.42427e-05
0.000691082
-9.44147e-06
-9.86949e-05
-3.13833e-05
-0.000224529
-6.10208e-05
-0.000310386
-9.42001e-05
-0.000366713
-0.000127434
-0.000402522
-0.000157713
-0.000424176
-0.000182263
-0.00043562
-0.00019829
-0.000438707
-0.000202783
-0.000433633
-0.00019243
-0.00041922
-0.000162152
-0.000392837
-0.000110495
-0.000356748
-2.58781e-05
-0.000285289
9.55749e-05
-0.000245124
-9.86642e-05
0.000278482
-1.08575e-05
-8.78373e-05
-3.59953e-05
-0.000199392
-7.03932e-05
-0.000275989
-0.000109918
-0.000327188
-0.000151295
-0.000361145
-0.000191878
-0.000383593
-0.000229384
-0.000398113
-0.000261644
-0.000406447
-0.000286394
-0.000408883
-0.000301075
-0.000404539
-0.000302162
-0.000391749
-0.000288339
-0.000370572
-0.000245513
-0.000328115
-0.000184737
-0.0003059
-0.000212076
-7.1325e-05
-1.22182e-05
-7.56192e-05
-4.03368e-05
-0.000171273
-7.90815e-05
-0.000237244
-0.000124306
-0.000281963
-0.000172905
-0.000312546
-0.000222528
-0.00033397
-0.000271292
-0.000349349
-0.000317516
-0.000360223
-0.000359496
-0.000366903
-0.000395282
-0.000368753
-0.000422343
-0.000364688
-0.000438758
-0.000354156
-0.000434805
-0.000332068
-0.000419586
-0.000321119
-0.000273011
-0.000358652
-1.34624e-05
-6.21568e-05
-4.42458e-05
-0.000140489
-8.68114e-05
-0.000194678
-0.00013698
-0.000231794
-0.000191778
-0.000257748
-0.000249096
-0.000276653
-0.000307366
-0.000291078
-0.000365282
-0.000302308
-0.000421558
-0.000310627
-0.000474705
-0.000315605
-0.000522837
-0.000316557
-0.000563952
-0.000313041
-0.00059217
-0.000303851
-0.000612494
-0.000300795
-0.000283063
-0.000602441
-1.45337e-05
-4.76231e-05
-4.75729e-05
-0.00010745
-9.33307e-05
-0.00014892
-0.000147587
-0.000177537
-0.000207469
-0.000197867
-0.000271053
-0.000213069
-0.000337015
-0.000225116
-0.000404328
-0.000234995
-0.000472014
-0.000242942
-0.000538932
-0.000248687
-0.000603658
-0.000251831
-0.000664495
-0.000252203
-0.000718194
-0.000250151
-0.000767196
-0.000251793
-0.000250518
-0.000799742
-1.53834e-05
-3.22397e-05
-5.0189e-05
-7.26447e-05
-9.84223e-05
-0.000100687
-0.000155824
-0.000120135
-0.000219592
-0.000134099
-0.000287943
-0.000144719
-0.000359727
-0.000153331
-0.000434117
-0.000160605
-0.000510352
-0.000166708
-0.000587549
-0.000171489
-0.000664635
-0.000174745
-0.000740352
-0.000176486
-0.000813107
-0.000177397
-0.000884275
-0.000180624
-0.000185349
-0.000949444
-1.59724e-05
-1.62673e-05
-5.19922e-05
-3.66249e-05
-0.000101915
-5.0764e-05
-0.000161452
-6.05988e-05
-0.000227847
-6.77032e-05
-0.000299407
-7.31587e-05
-0.000375099
-7.76389e-05
-0.000454222
-8.14818e-05
-0.000536155
-8.47746e-05
-0.000620193
-8.74516e-05
-0.000705506
-8.94323e-05
-0.000791226
-9.07662e-05
-0.000876716
-9.19064e-05
-0.000963119
-9.42216e-05
-9.8216e-05
-0.00105025
-1.62738e-05
-5.29117e-05
-0.000103692
-0.000164307
-0.000232027
-0.000305202
-0.000382855
-0.000464349
-0.000549133
-0.000636588
-0.000726018
-0.000816772
-0.000908655
-0.00100284
-0.00110099
-0.00515161
0.000162413
-0.0052563
0.000104686
-0.00534448
8.81792e-05
-0.00539905
5.45668e-05
-0.00544516
4.61163e-05
-0.00547051
2.53501e-05
-0.00549129
2.07724e-05
-0.00549868
7.39156e-06
-0.00550343
4.74656e-06
-0.00549923
-4.19991e-06
-0.00549318
-6.04546e-06
-0.00548085
-1.23277e-05
-0.00546719
-1.36668e-05
-0.00544917
-1.80202e-05
-0.00543003
-1.91405e-05
-0.00540775
-2.22807e-05
-0.00538444
-2.33127e-05
-0.00535874
-2.57003e-05
-0.005332
-2.67322e-05
-2.8703e-05
-0.00514319
0.00032521
-0.00524815
0.000209644
-0.00533678
0.000176807
-0.00539171
0.000109502
-0.0054383
9.2708e-05
-0.00546408
5.11244e-05
-0.00548532
4.2019e-05
-0.00549316
1.52305e-05
-0.00549836
9.94546e-06
-0.00549463
-7.93458e-06
-0.00548905
-1.16222e-05
-0.00547719
-2.41899e-05
-0.00546398
-2.68741e-05
-0.00544643
-3.55749e-05
-0.00542774
-3.78239e-05
-0.00540592
-4.40989e-05
-0.00538307
-4.61697e-05
-0.00535783
-5.09412e-05
-0.00533155
-5.30105e-05
-5.69501e-05
-0.00512634
0.000488767
-0.00523187
0.000315169
-0.00532137
0.000266312
-0.00537705
0.000165181
-0.00542459
0.000140242
-0.00545121
7.77509e-05
-0.0054734
6.4209e-05
-0.00548214
2.3966e-05
-0.00548824
1.60469e-05
-0.00548544
-1.07402e-05
-0.00548079
-1.62658e-05
-0.00546986
-3.51215e-05
-0.00545757
-3.91652e-05
-0.00544094
-5.22e-05
-0.00542317
-5.5595e-05
-0.00540228
-6.49934e-05
-0.00538033
-6.81169e-05
-0.00535601
-7.52647e-05
-0.00533064
-7.8382e-05
-8.42862e-05
-0.00510105
0.000653445
-0.00520747
0.000421588
-0.00529827
0.000357112