/*--------------------------------*- C++ -*----------------------------------*\
  =========                 |
  \\      /  F ield         | OpenFOAM: The Open Source CFD Toolbox
   \\    /   O peration     | Website:  https://openfoam.org
    \\  /    A nd           | Version:  7
     \\/     M anipulation  |
\*---------------------------------------------------------------------------*/
FoamFile
{
    version     2.0;
    format      ascii;
    class       surfaceScalarField;
    location    "5";
    object      phi;
}
// * * * * * * * * * * * * * * * * * * * * * * * * * * * * * * * * * * * * * //

dimensions      [0 3 -1 0 0 0 0];

internalField   nonuniform List<scalar> 
6502
(
0.00132503
0.00262149
0.00179765
0.000550248
0.000862563
0.00226012
0.0015514
0.0002321
0.000462773
0.00195119
0.00108086
-0.000170707
0.00135084
-3.78737e-05
0.00012357
0.00169004
0.000730958
-0.000426788
0.000918699
-0.000358448
0.0011491
-0.00026827
-0.000161669
0.00143433
0.000557678
-0.00055006
0.000711542
-0.000512312
0.000902341
-0.000459069
-0.000395422
0.00113609
0.000243911
-0.000637155
0.000330798
-0.000636946
0.000444094
-0.000625608
0.000588501
-0.000603476
-0.000574359
0.000767438
1.30301e-05
-0.000663458
5.65368e-05
-0.000680453
0.000121313
-0.000690385
0.000210959
-0.000693122
-0.000690241
0.000326841
-0.000226213
-0.000614464
-0.000242911
-0.00064676
-0.000247908
-0.000675456
-0.000237985
-0.000700308
-0.000210455
-0.000720652
-0.000736626
-0.000164071
-0.000443206
-0.000550561
-0.000504068
-0.000585898
-0.000559498
-0.000620026
-0.000607146
-0.00065266
-0.00064457
-0.000683227
-0.000713136
-0.00066806
-0.000646109
-0.000450306
-0.000748902
-0.000483105
-0.000852797
-0.000516131
-0.000956305
-0.000549152
-0.00105763
-0.000581902
-0.000615795
-0.00115497
-0.000817255
-0.000319175
-0.000956014
-0.000344346
-0.00110187
-0.000370276
-0.0012542
-0.000396823
-0.00141218
-0.000423923
-0.000452634
-0.00157534
-0.000941163
-0.00016553
-0.00110633
-0.000179175
-0.00128321
-0.000193397
-0.0014719
-0.000208134
-0.00167243
-0.000223395
-0.000239737
-0.00188533
-0.000840705
-0.00100624
-0.00118541
-0.00137881
-0.00158695
-0.00181034
-0.00205008
0.000687853
0.0351528
-0.000648393
0.000604352
0.036755
0.000522705
0.0356959
0.000460747
0.0344219
0.000404743
0.0333891
0.000362561
0.0325888
0.000330746
0.0319481
0.00030515
0.0314389
0.000284519
0.031025
0.000267047
0.0306854
0.000251746
0.0304038
0.000237952
0.0301678
0.000225219
0.0299685
0.000213272
0.0297989
0.000201943
0.0296538
0.000191133
0.0295288
0.000180781
0.0294208
0.000170854
0.0293271
0.000161336
0.0292454
0.000152214
0.0291741
0.000143479
0.0291116
0.000135124
0.0290568
0.00012714
0.0290085
0.000119517
0.028966
0.000112243
0.0289285
0.000105305
0.0288953
9.8688e-05
0.0288659
9.23776e-05
0.0288399
8.63578e-05
0.0288168
8.06122e-05
0.0287964
7.51243e-05
0.0287782
6.98774e-05
0.0287621
6.48553e-05
0.0287477
6.00418e-05
0.028735
5.54211e-05
0.0287237
5.0978e-05
0.0287137
4.66975e-05
0.0287049
4.25655e-05
0.028697
3.85681e-05
0.0286901
3.46921e-05
0.0286841
3.09247e-05
0.0286788
2.72536e-05
0.0286742
2.3667e-05
0.0286702
2.01533e-05
0.0286669
1.67015e-05
0.028664
1.33008e-05
0.0286618
9.94055e-06
0.02866
6.61046e-06
0.0286586
3.30045e-06
0.0286577
0.0286573
0.00035823
0.0352599
-0.000465318
0.000277722
0.0368355
0.000270191
0.0357034
0.000257999
0.0344341
0.000249943
0.0333971
0.00024371
0.0325951
0.000237646
0.0319542
0.000231441
0.0314451
0.000225402
0.031031
0.000219061
0.0306917
0.000212386
0.0304105
0.00020535
0.0301749
0.000197996
0.0299759
0.000190386
0.0298066
0.000182591
0.0296616
0.000174687
0.0295367
0.000166748
0.0294288
0.00015884
0.029335
0.00015102
0.0292532
0.000143336
0.0291818
0.000135824
0.0291191
0.000128513
0.0290641
0.000121425
0.0290156
0.000114571
0.0289728
0.00010796
0.0289351
0.000101595
0.0289016
9.54743e-05
0.028872
8.95939e-05
0.0288458
8.39472e-05
0.0288225
7.85257e-05
0.0288018
7.33195e-05
0.0287834
6.83178e-05
0.0287671
6.3509e-05
0.0287526
5.88812e-05
0.0287397
5.44222e-05
0.0287282
5.01198e-05
0.028718
4.59621e-05
0.028709
4.1937e-05
0.0287011
3.80328e-05
0.028694
3.42382e-05
0.0286879
3.0542e-05
0.0286825
2.69334e-05
0.0286778
2.34018e-05
0.0286738
1.99369e-05
0.0286703
1.65287e-05
0.0286675
1.31674e-05
0.0286651
9.84325e-06
0.0286633
6.54688e-06
0.0286619
3.26889e-06
0.028661
0.0286606
-2.07042e-05
0.0354459
-0.000165299
-3.92754e-05
0.0368541
-3.3988e-06
0.0356675
4.64921e-05
0.0343842
8.72185e-05
0.0333564
0.000118423
0.0325639
0.000139271
0.0319334
0.000153465
0.0314309
0.000162728
0.0310218
0.000168019
0.0306865
0.000170384
0.0304081
0.000170459
0.0301748
0.000168769
0.0299776
0.000165727
0.0298096
0.000161659
0.0296656
0.000156826
0.0295416
0.00015144
0.0294342
0.00014567
0.0293408
0.000139654
0.0292593
0.0001335
0.0291879
0.000127293
0.0291253
0.000121101
0.0290703
0.000114973
0.0290217
0.000108949
0.0289789
0.000103056
0.028941
9.73131e-05
0.0289074
9.17336e-05
0.0288776
8.63247e-05
0.0288512
8.10894e-05
0.0288277
7.60275e-05
0.0288069
7.1136e-05
0.0287883
6.641e-05
0.0287718
6.1843e-05
0.0287571
5.74276e-05
0.0287441
5.31553e-05
0.0287325
4.90174e-05
0.0287222
4.50045e-05
0.028713
4.11074e-05
0.028705
3.73166e-05
0.0286978
3.36225e-05
0.0286916
3.00159e-05
0.0286861
2.64874e-05
0.0286813
2.30278e-05
0.0286772
1.96282e-05
0.0286737
1.62796e-05
0.0286708
1.29733e-05
0.0286684
9.70075e-06
0.0286666
6.45327e-06
0.0286652
3.22257e-06
0.0286642
0.0286638
-0.000493389
0.0356275
0.000311835
-0.000374277
0.036735
-0.00025855
0.0355518
-0.000153555
0.0342792
-6.93808e-05
0.0332722
-6.02982e-06
0.0325005
4.06595e-05
0.0318867
7.53357e-05
0.0313962
9.96172e-05
0.0309975
0.000116478
0.0306696
0.000127793
0.0303968
0.000134896
0.0301677
0.000138841
0.0299736
0.000140362
0.0298081
0.000140025
0.029666
0.000138278
0.0295433
0.000135466
0.029437
0.000131861
0.0293444
0.000127677
0.0292634
0.000123083
0.0291925
0.000118212
0.0291302
0.000113167
0.0290753
0.000108031
0.0290269
0.000102865
0.028984
9.77183e-05
0.0289461
9.26255e-05
0.0289125
8.76136e-05
0.0288826
8.27015e-05
0.0288561
7.79018e-05
0.0288325
7.32224e-05
0.0288115
6.86675e-05
0.0287929
6.42381e-05
0.0287762
5.99328e-05
0.0287614
5.57487e-05
0.0287483
5.16813e-05
0.0287365
4.7725e-05
0.0287261
4.38737e-05
0.0287169
4.01205e-05
0.0287087
3.64581e-05
0.0287015
3.28793e-05
0.0286951
2.93763e-05
0.0286896
2.59416e-05
0.0286847
2.25674e-05
0.0286806
1.9246e-05
0.028677
1.59697e-05
0.0286741
1.2731e-05
0.0286717
9.52218e-06
0.0286698
6.33574e-06
0.0286683
3.16421e-06
0.0286674
0.028667
-0.00100264
0.0357496
0.000880508
-0.000726481
0.0364588
-0.00051737
0.0353427
-0.000348642
0.0341105
-0.000218028
0.0331416
-0.000121998
0.0324045
-5.25779e-05
0.0318172
-1.50472e-06
0.0313451
3.7124e-05
0.0309589
6.52962e-05
0.0306414
8.53165e-05
0.0303768
9.92769e-05
0.0301537
0.000108719
0.0299642
0.000114708
0.0298021
0.000118048
0.0296626
0.000119352
0.029542
0.000119095
0.0294372
0.000117647
0.0293458
0.000115296
0.0292658
0.000112268
0.0291955
0.000108743
0.0291337
0.000104861
0.0290792
0.000100731
0.029031
9.64408e-05
0.0289883
9.20568e-05
0.0289505
8.76315e-05
0.0289169
8.32047e-05
0.0288871
7.88065e-05
0.0288605
7.44593e-05
0.0288369
7.01789e-05
0.0288158
6.59765e-05
0.0287971
6.18591e-05
0.0287803
5.78305e-05
0.0287655
5.38922e-05
0.0287522
5.00434e-05
0.0287404
4.62821e-05
0.0287299
4.26051e-05
0.0287206
3.90081e-05
0.0287123
3.54862e-05
0.028705
3.20341e-05
0.0286986
2.86461e-05
0.028693
2.5316e-05
0.0286881
2.20377e-05
0.0286839
1.88049e-05
0.0286803
1.56111e-05
0.0286773
1.24499e-05
0.0286748
9.31465e-06
0.0286729
6.19895e-06
0.0286715
3.09625e-06
0.0286705
0.0286701
-0.00152771
0.0357075
0.00156983
-0.00108087
0.036012
-0.000776986
0.0350388
-0.000536653
0.0338702
-0.000361184
0.0329662
-0.000234638
0.032278
-0.000142218
0.0317248
-7.31928e-05
0.0312761
-2.2574e-05
0.0309082
1.4912e-05
0.0306039
4.33812e-05
0.0303483
6.39322e-05
0.0301332
7.87202e-05
0.0299494
8.90501e-05
0.0297918
9.5969e-05
0.0296557
0.000100261
0.0295377
0.000102517
0.029435
0.000103198
0.0293451
0.000102664
0.0292663
0.000101195
0.029197
9.90143e-05
0.0291359
9.62958e-05
0.0290819
9.31781e-05
0.0290341
8.97703e-05
0.0289917
8.61588e-05
0.0289541
8.2411e-05
0.0289207
7.85801e-05
0.0288909
7.47071e-05
0.0288644
7.08237e-05
0.0288408
6.69538e-05
0.0288197
6.31153e-05
0.0288009
5.93211e-05
0.0287841
5.558e-05
0.0287692
5.1898e-05
0.0287559
4.82782e-05
0.028744
4.4722e-05
0.0287334
4.1229e-05
0.0287241
3.77977e-05
0.0287157
3.44255e-05
0.0287084
3.11091e-05
0.0287019
2.78446e-05
0.0286962
2.46277e-05
0.0286913
2.14537e-05
0.028687
1.83175e-05
0.0286834
1.52141e-05
0.0286804
1.21382e-05
0.0286779
9.08432e-06
0.0286759
6.047e-06
0.0286745
3.02074e-06
0.0286736
0.0286731
-0.00203603
0.03543
0.00231356
-0.00141989
0.0353959
-0.00102662
0.0346455
-0.000713579
0.0335571
-0.000496645
0.0327492
-0.000342043
0.0321233
-0.000228287
0.0316111
-0.000143089
0.0311909
-7.99257e-05
0.0308451
-3.27212e-05
0.0305567
2.17628e-06
0.0303134
2.91567e-05
0.0301062
4.90754e-05
0.0299295
6.3599e-05
0.0297772
7.39874e-05
0.0296453
8.11798e-05
0.0295305
8.58881e-05
0.0294303
8.86561e-05
0.0293424
8.99086e-05
0.0292651
8.99789e-05
0.0291969
8.91294e-05
0.0291368
8.75679e-05
0.0290835
8.54593e-05
0.0290362
8.29345e-05
0.0289943
8.00978e-05
0.0289569
7.70318e-05
0.0289237
7.38022e-05
0.0288941
7.04606e-05
0.0288677
6.70478e-05
0.0288442
6.35956e-05
0.0288231
6.01283e-05
0.0288044
5.66647e-05
0.0287876
5.32188e-05
0.0287726
4.98006e-05
0.0287593
4.64172e-05
0.0287474
4.30733e-05
0.0287368
3.97715e-05
0.0287274
3.65129e-05
0.028719
3.32972e-05
0.0287116
3.01232e-05
0.0287051
2.69888e-05
0.0286994
2.38915e-05
0.0286944
2.08279e-05
0.0286901
1.77947e-05
0.0286864
1.47877e-05
0.0286834
1.18031e-05
0.0286809
8.83646e-06
0.0286789
5.8834e-06
0.0286775
2.93943e-06
0.0286765
0.028676
-0.00248656
0.0348959
0.00302059
-0.00172498
0.0346343
-0.0012485
0.034169
-0.000874466
0.0331831
-0.000622588
0.0324973
-0.00044318
0.0319439
-0.000309501
0.0314774
-0.000209595
0.031091
-0.000135154
0.0307706
-7.89739e-05
0.0305005
-3.63929e-05
0.0302708
-4.39169e-06
0.0300742
2.00311e-05
0.029905
3.85609e-05
0.0297587
5.22781e-05
0.0296316
6.22722e-05
0.0295205
6.9353e-05
0.0294232
7.4149e-05
0.0293376
7.71458e-05
0.0292621
7.87236e-05
0.0291954
7.91833e-05
0.0291363
7.87631e-05
0.0290839
7.76529e-05
0.0290373
7.60044e-05
0.0289959
7.39389e-05
0.028959
7.15532e-05
0.0289261
6.89252e-05
0.0288967
6.61167e-05
0.0288705
6.31772e-05
0.0288471
6.01459e-05
0.0288262
5.70539e-05
0.0288075
5.39252e-05
0.0287907
5.07789e-05
0.0287758
4.76292e-05
0.0287624
4.44871e-05
0.0287505
4.13604e-05
0.0287399
3.82547e-05
0.0287305
3.51736e-05
0.0287221
3.21192e-05
0.0287146
2.90923e-05
0.0287081
2.60928e-05
0.0287024
2.31197e-05
0.0286974
2.01713e-05
0.028693
1.72454e-05
0.0286894
1.43394e-05
0.0286863
1.14505e-05
0.0286838
8.57553e-06
0.0286818
5.7111e-06
0.0286803
2.85377e-06
0.0286794
0.0286789
-0.00283853
0.0341445
0.00359002
-0.00197904
0.0337748
-0.0014369
0.0336269
-0.00101607
0.0327622
-0.000737814
0.0322191
-0.000536359
0.0317425
-0.000384632
0.0313257
-0.000271896
0.0309783
-0.000187444
0.0306862
-0.000123195
0.0304363
-7.40722e-05
0.0302217
-3.65161e-05
0.0300366
-7.81202e-06
0.0298763
1.41368e-05
0.0297368
3.10241e-05
0.0296147
4.36878e-05
0.0295079
5.30489e-05
0.0294138
5.97987e-05
0.0293308
6.44827e-05
0.0292574
6.75254e-05
0.0291923
6.92617e-05
0.0291346
6.99583e-05
0.0290832
6.98285e-05
0.0290375
6.9043e-05
0.0289967
6.7739e-05
0.0289603
6.60271e-05
0.0289278
6.39963e-05
0.0288988
6.17183e-05
0.0288728
5.9251e-05
0.0288496
5.66407e-05
0.0288288
5.39245e-05
0.0288102
5.11323e-05
0.0287935
4.82875e-05
0.0287786
4.54087e-05
0.0287653
4.25103e-05
0.0287534
3.96036e-05
0.0287428
3.66969e-05
0.0287334
3.37964e-05
0.028725
3.09064e-05
0.0287175
2.80298e-05
0.028711
2.51683e-05
0.0287052
2.23226e-05
0.0287002
1.94924e-05
0.0286959
1.66771e-05
0.0286922
1.38753e-05
0.0286891
1.10853e-05
0.0286866
8.30515e-06
0.0286846
5.53251e-06
0.0286831
2.76497e-06
0.0286821
0.0286816
-0.00306931
0.033259
0.0039548
-0.00216968
0.0328751
-0.00158523
0.0330425
-0.00113568
0.0323127
-0.000840282
0.0319237
-0.000618827
0.031521
-0.000452601
0.0311594
-0.00032931
0.030855
-0.0002362
0.0305931
-0.000164816
0.0303649
-0.000109851
0.0301667
-6.74182e-05
0.0299942
-3.4565e-05
0.0298435
-9.16607e-06
0.0297114
1.03898e-05
0.0295952
2.55779e-05
0.0294927
3.70964e-05
0.0294023
4.57139e-05
0.0293222
5.20159e-05
0.0292511
5.6469e-05
0.0291879
5.94403e-05
0.0291316
6.12212e-05
0.0290814
6.20465e-05
0.0290366
6.21045e-05
0.0289966
6.15472e-05
0.0289609
6.04976e-05
0.0289289
5.90555e-05
0.0289002
5.73018e-05
0.0288746
5.53021e-05
0.0288516
5.31096e-05
0.028831
5.07675e-05
0.0288125
4.83106e-05
0.028796
4.57669e-05
0.0287812
4.31592e-05
0.0287679
4.05053e-05
0.0287561
3.78195e-05
0.0287455
3.51131e-05
0.0287361
3.23947e-05
0.0287277
2.96708e-05
0.0287203
2.69463e-05
0.0287137
2.42247e-05
0.0287079
2.15084e-05
0.0287029
1.87985e-05
0.0286986
1.60959e-05
0.0286949
1.34004e-05
0.0286918
1.07114e-05
0.0286892
8.02823e-06
0.0286873
5.34955e-06
0.0286858
2.67398e-06
0.0286848
0.0286843
-0.00317966
0.0323355
0.0041031
-0.00229246
0.0319879
-0.00169008
0.0324401
-0.00123085
0.0318535
-0.000924452
0.0316173
-0.000688945
0.0312855
-0.000512663
0.0309832
-0.00038126
0.0307236
-0.000280919
0.0304927
-0.000203425
0.0302874
-0.000143375
0.0301067
-9.66438e-05
0.0299475
-6.01275e-05
0.029807
-3.15597e-05
0.0296828
-9.2555e-06
0.0295729
8.05583e-06
0.0294754
2.1606e-05
0.0293887
3.19874e-05
0.0293118
3.9826e-05
0.0292432
4.56277e-05
0.0291821
4.97829e-05
0.0291274
5.26086e-05
0.0290786
5.43578e-05
0.0290349
5.52344e-05
0.0289958
5.54041e-05
0.0289607
5.50014e-05
0.0289293
5.41359e-05
0.0289011
5.2897e-05
0.0288758
5.13575e-05
0.0288531
4.95772e-05
0.0288328
4.76048e-05
0.0288145
4.548e-05
0.0287981
4.32353e-05
0.0287834
4.08971e-05
0.0287703
3.84867e-05
0.0287585
3.60215e-05
0.028748
3.35153e-05
0.0287386
3.09792e-05
0.0287302
2.84219e-05
0.0287228
2.58503e-05
0.0287163
2.32695e-05
0.0287105
2.06835e-05
0.0287055
1.80952e-05
0.0287012
1.55064e-05
0.0286975
1.29184e-05
0.0286944
1.03319e-05
0.0286918
7.74706e-06
0.0286898
5.16374e-06
0.0286884
2.58156e-06
0.0286874
0.0286869
-0.00318327
0.031452
0.00406678
-0.00234985
0.0311545
-0.00175308
0.0318433
-0.00130066
0.031401
-0.000989615
0.0313062
-0.000746168
0.0310421
-0.000564307
0.0308013
-0.000427215
0.0305865
-0.000321167
0.0303867
-0.000238716
0.030205
-0.000174409
0.0300424
-0.00012397
0.029897
-8.4232e-05
0.0297672
-5.28669e-05
0.0296514
-2.81045e-05
0.0295481
-8.59835e-06
0.0294559
6.66545e-06
0.0293735
1.86947e-05
0.0292998
2.79812e-05
0.029234
3.50597e-05
0.029175
4.03424e-05
0.0291221
4.41673e-05
0.0290748
4.68039e-05
0.0290323
4.84699e-05
0.0289941
4.93431e-05
0.0289598
4.95684e-05
0.028929
4.92643e-05
0.0289014
4.85278e-05
0.0288765
4.74388e-05
0.0288542
4.60629e-05
0.0288341
4.44539e-05
0.0288161
4.26564e-05
0.0287999
4.07068e-05
0.0287854
3.86352e-05
0.0287723
3.64661e-05
0.0287607
3.42198e-05
0.0287502
3.19127e-05
0.0287409
2.95583e-05
0.0287326
2.71672e-05
0.0287252
2.47483e-05
0.0287187
2.23084e-05
0.028713
1.98531e-05
0.028708
1.73867e-05
0.0287036
1.49123e-05
0.0287
1.24325e-05
0.0286969
9.94914e-06
0.0286943
7.4634e-06
0.0286923
4.97624e-06
0.0286908
2.48829e-06
0.0286899
0.0286894
-0.00309848
0.0306557
0.00389481
-0.00234973
0.0304058
-0.0017786
0.0312722
-0.00134603
0.0309685
-0.00103649
0.0309967
-0.000791004
0.0307966
-0.000607358
0.0306176
-0.000466675
0.0304458
-0.000356622
0.0302766
-0.000270477
0.0301188
-0.00020278
0.0299747
-0.000149249
0.0298435
-0.000106745
0.0297247
-7.29287e-05
0.0296176
-4.59974e-05
0.0295212
-2.45558e-05
0.0294344
-7.5298e-06
0.0293565
5.8882e-06
0.0292864
1.65367e-05
0.0292233
2.4813e-05
0.0291667
3.11604e-05
0.0291158
3.59347e-05
0.02907
3.94179e-05
0.0290288
4.18405e-05
0.0289917
4.33905e-05
0.0289583
4.42221e-05
0.0289282
4.44616e-05
0.0289012
4.42132e-05
0.0288768
4.3563e-05
0.0288549
4.25818e-05
0.0288351
4.13286e-05
0.0288174
3.98521e-05
0.0288014
3.81926e-05
0.028787
3.63835e-05
0.0287741
3.44525e-05
0.0287626
3.24226e-05
0.0287522
3.03126e-05
0.028743
2.81382e-05
0.0287348
2.59123e-05
0.0287274
2.36453e-05
0.028721
2.13458e-05
0.0287153
1.90209e-05
0.0287103
1.66763e-05
0.028706
1.43164e-05
0.0287023
1.19449e-05
0.0286992
9.56486e-06
0.0286967
7.17855e-06
0.0286947
4.78792e-06
0.0286932
2.39461e-06
0.0286923
0.0286918
-0.00295883
0.0299762
0.00363831
-0.0023055
0.0297524
-0.00177228
0.030739
-0.00136886
0.030565
-0.00106632
0.0306942
-0.000824435
0.0305547
-0.000641942
0.0304352
-0.00049957
0.0303034
-0.000387189
0.0301642
-0.000298592
0.0300302
-0.000228367
0.0299044
-0.000172373
0.0297875
-0.000127578
0.0296799
-9.16684e-05
0.0295817
-6.28387e-05
0.0294923
-3.96868e-05
0.0294113
-2.11155e-05
0.0293379
-6.26135e-06
0.0292715
5.53027e-06
0.0292115
1.49226e-05
0.0291573
2.22689e-05
0.0291085
2.794e-05
0.0290643
3.22256e-05
0.0290245
3.5369e-05
0.0289885
3.75666e-05
0.0289561
3.89804e-05
0.0289268
3.97439e-05
0.0289004
3.99675e-05
0.0288766
3.97427e-05
0.0288551
3.91455e-05
0.0288357
3.82391e-05
0.0288183
3.70761e-05
0.0288025
3.57006e-05
0.0287884
3.41491e-05
0.0287757
3.24522e-05
0.0287643
3.06354e-05
0.0287541
2.872e-05
0.0287449
2.67237e-05
0.0287368
2.46612e-05
0.0287295
2.25448e-05
0.0287231
2.03848e-05
0.0287174
1.81896e-05
0.0287125
1.59662e-05
0.0287082
1.37204e-05
0.0287046
1.14571e-05
0.0287015
9.18032e-06
0.028699
6.89344e-06
0.028697
4.5994e-06
0.0286955
2.30082e-06
0.0286946
0.0286941
-0.00279658
0.0294296
0.00334322
-0.0022324
0.0291883
-0.00174077
0.0302473
-0.00137185
0.0301961
-0.00108084
0.0304031
-0.000847131
0.030321
-0.000668254
0.0302563
-0.000526099
0.0301613
-0.000412966
0.0300511
-0.000323038
0.0299403
-0.000251106
0.0298325
-0.00019328
0.0297297
-0.000146676
0.0296333
-0.000109035
0.0295441
-7.85837e-05
0.0294619
-5.39355e-05
0.0293866
-3.39958e-05
0.0293179
-1.78936e-05
0.0292554
-4.93711e-06
0.0291986
5.41062e-06
0.029147
1.36952e-05
0.0291002
2.02027e-05
0.0290578
2.5246e-05
0.0290194
2.90726e-05
0.0289847
3.18865e-05
0.0289533
3.3857e-05
0.0289248
3.51233e-05
0.0288991
3.58014e-05
0.0288759
3.59876e-05
0.0288549
3.57623e-05
0.0288359
3.51928e-05
0.0288188
3.43353e-05
0.0288034
3.3237e-05
0.0287895
3.19376e-05
0.028777
3.04702e-05
0.0287658
2.88627e-05
0.0287557
2.71388e-05
0.0287466
2.5318e-05
0.0287386
2.34169e-05
0.0287314
2.14496e-05
0.028725
1.94277e-05
0.0287194
1.73612e-05
0.0287146
1.52582e-05
0.0287103
1.3126e-05
0.0287067
1.09703e-05
0.0287036
8.79647e-06
0.0287012
6.60877e-06
0.0286992
4.41114e-06
0.0286977
2.20715e-06
0.0286968
0.0286963
-0.00261278
0.0290039
0.00303838
-0.00213833
0.0287138
-0.00168953
0.0297986
-0.00135814
0.0298647
-0.00108209
0.0301271
-0.000859955
0.0300989
-0.00068666
0.030083
-0.000546584
0.0300212
-0.00043413
0.0299387
-0.00034388
0.0298501
-0.000271007
0.0297596
-0.000211956
0.0296706
-0.00016401
0.0295854
-0.000124998
0.029505
-9.32033e-05
0.0294301
-6.72762e-05
0.0293607
-4.61383e-05
0.0292968
-2.89267e-05
0.0292382
-1.49451e-05
0.0291846
-3.63327e-06
0.0291357
5.45189e-06
0.0290911
1.27414e-05
0.0290505
1.84949e-05
0.0290137
2.2965e-05
0.0289802
2.63627e-05
0.0289499
2.88628e-05
0.0289223
3.06098e-05
0.0288974
3.17239e-05
0.0288748
3.23057e-05
0.0288543
3.24396e-05
0.0288358
3.21963e-05
0.0288191
3.16354e-05
0.028804
3.0807e-05
0.0287903
2.97535e-05
0.028778
2.85105e-05
0.028767
2.71082e-05
0.0287571
2.55722e-05
0.0287482
2.39241e-05
0.0287402
2.21821e-05
0.0287331
2.03619e-05
0.0287269
1.84766e-05
0.0287213
1.65374e-05
0.0287165
1.45539e-05
0.0287123
1.25343e-05
0.0287087
1.04856e-05
0.0287057
8.41414e-06
0.0287032
6.32516e-06
0.0287013
4.22355e-06
0.0286998
2.1138e-06
0.0286989
0.0286984
-0.00241454
0.0286812
0.0027373
-0.00201877
0.028318
-0.00162242
0.0294022
-0.00133017
0.0295725
-0.0010721
0.029869
-0.00086399
0.0298908
-0.000697856
0.0299169
-0.000561471
0.0298848
-0.000450928
0.0298281
-0.000361258
0.0297604
-0.000288153
0.0296865
-0.000228438
0.0296109
-0.000179589
0.0295365
-0.000139548
0.029465
-0.000106683
0.0293972
-7.96925e-05
0.0293337
-5.75274e-05
0.0292746
-3.93411e-05
0.02922
-2.44478e-05
0.0291697
-1.22878e-05
0.0291235
-2.40503e-06
0.0290812
5.5706e-06
0.0290425
1.19835e-05
0.0290073
1.70571e-05
0.0289752
2.1006e-05
0.0289459
2.40078e-05
0.0289193
2.62123e-05
0.0288952
2.77431e-05
0.0288732
2.87045e-05
0.0288533
2.91841e-05
0.0288353
2.92559e-05
0.028819
2.89822e-05
0.0288042
2.84159e-05
0.0287909
2.76017e-05
0.0287789
2.65776e-05
0.028768
2.53759e-05
0.0287583
2.4024e-05
0.0287495
2.25453e-05
0.0287417
2.09597e-05
0.0287347
1.92843e-05
0.0287285
1.75336e-05
0.0287231
1.57202e-05
0.0287183
1.38548e-05
0.0287142
1.19468e-05
0.0287106
1.00042e-05
0.0287076
8.03426e-06
0.0287052
6.04331e-06
0.0287033
4.03708e-06
0.0287018
2.021e-06
0.0287009
0.0287004
-0.0022098
0.0284432
0.00244779
-0.00188392
0.0279922
-0.00154427
0.0290625
-0.00129031
0.0293185
-0.00105289
0.0296316
-0.000860413
0.0296983
-0.000702657
0.0297591
-0.000571292
0.0297534
-0.00046367
0.0297205
-0.00037536
0.0296721
-0.000302663
0.0296138
-0.000242798
0.029551
-0.000193446
0.0294872
-0.000152698
0.0294243
-0.000119021
0.0293636
-9.11753e-05
0.0293059
-6.81506e-05
0.0292516
-4.91255e-05
0.029201
-3.34292e-05
0.029154
-2.05106e-05
0.0291106
-9.91663e-06
0.0290706
-1.2768e-06
0.0290339
5.72242e-06
0.0290003
1.13627e-05
0.0289695
1.58263e-05
0.0289415
1.93024e-05
0.0289159
2.19404e-05
0.0288925
2.38682e-05
0.0288713
2.51924e-05
0.028852
2.60037e-05
0.0288345
2.63787e-05
0.0288186
2.63823e-05
0.0288042
2.60696e-05
0.0287912
2.54876e-05
0.0287794
2.46765e-05
0.0287688
2.36702e-05
0.0287593
2.24981e-05
0.0287507
2.11852e-05
0.028743
1.97529e-05
0.0287362
1.82197e-05
0.0287301
1.66015e-05
0.0287247
1.49119e-05
0.02872
1.3163e-05
0.0287159
1.13651e-05
0.0287124
9.52741e-06
0.0287095
7.65793e-06
0.0287071
5.76404e-06
0.0287052
3.8523e-06
0.0287037
1.92902e-06
0.0287028
0.0287023
-0.00200595
0.0282736
0.0021755
-0.00174463
0.0277308
-0.00146012
0.028778
-0.00124173
0.0291001
-0.00102659
0.0294165
-0.000850437
0.0295221
-0.00070194
0.0296106
-0.000576613
0.0296281
-0.0004727
0.0296166
-0.000386406
0.0295858
-0.000314681
0.0295421
-0.000255121
0.0294915
-0.000205633
0.0294377
-0.000164475
0.0293831
-0.000130229
0.0293293
-0.000101725
0.0292774
-7.8002e-05
0.0292279
-5.827e-05
0.0291813
-4.18786e-05
0.0291376
-2.82894e-05
0.029097
-1.70587e-05
0.0290594
-7.81639e-06
0.0290247
-2.58337e-07
0.0289927
5.88835e-06
0.0289634
1.08349e-05
0.0289365
1.4756e-05
0.0289119
1.78041e-05
0.0288895
2.0108e-05
0.028869
2.17779e-05
0.0288504
2.29063e-05
0.0288334
2.35721e-05
0.028818
2.38424e-05
0.028804
2.37745e-05
0.0287913
2.34172e-05
0.0287798
2.28124e-05
0.0287694
2.19961e-05
0.0287601
2.09991e-05
0.0287517
1.98479e-05
0.0287442
1.85654e-05
0.0287374
1.71714e-05
0.0287315
1.5683e-05
0.0287262
1.41151e-05
0.0287216
1.24807e-05
0.0287175
1.07912e-05
0.0287141
9.05675e-06
0.0287112
7.28635e-06
0.0287088
5.48823e-06
0.028707
3.66979e-06
0.0287056
1.83819e-06
0.0287046
0.0287042
-0.0018096
0.0281576
0.00192564
-0.00160806
0.0275293
-0.00137304
0.028543
-0.00118771
0.0289148
-0.000995211
0.029224
-0.000835255
0.0293622
-0.000696574
0.0294719
-0.00057798
0.0295095
-0.000478363
0.029517
-0.000394626
0.029502
-0.000324353
0.0294718
-0.000265497
0.0294326
-0.000216203
0.0293884
-0.000174912
0.0293418
-0.000140322
0.0292947
-0.000111347
0.0292484
-8.70786e-05
0.0292036
-6.67664e-05
0.0291609
-4.97852e-05
0.0291206
-3.56133e-05
0.0290828
-2.38174e-05
0.0290476
-1.40347e-05
0.0290149
-5.96175e-06
0.0289846
6.41107e-07
0.0289568
6.04175e-06
0.0289311
1.03799e-05
0.0289076
1.38125e-05
0.0288861
1.64722e-05
0.0288663
1.84697e-05
0.0288484
1.99e-05
0.028832
2.08437e-05
0.028817
2.13697e-05
0.0288034
2.1537e-05
0.0287911
2.13962e-05
0.0287799
2.09908e-05
0.0287698
2.03584e-05
0.0287607
1.95313e-05
0.0287525
1.85373e-05
0.0287452
1.74007e-05
0.0287386
1.61425e-05
0.0287327
1.47809e-05
0.0287276
1.3332e-05
0.028723
1.18098e-05
0.0287191
1.02267e-05
0.0287157
8.59364e-06
0.0287128
6.92063e-06
0.0287105
5.21672e-06
0.0287087
3.49013e-06
0.0287073
1.7488e-06
0.0287064
0.0287059
-0.00162613
0.0280816
0.00170217
-0.00147903
0.0273822
-0.00128609
0.0283501
-0.00113101
0.0287597
-0.000960281
0.0290532
-0.000815949
0.0292178
-0.000687337
0.0293433
-0.00057589
0.0293981
-0.000480991
0.0294221
-0.000400246
0.0294213
-0.000331827
0.0294034
-0.00027402
0.0293748
-0.000225219
0.0293396
-0.000184045
0.0293006
-0.000149323
0.02926
-0.000120051
0.0292191
-9.53841e-05
0.029179
-7.46135e-05
0.0291402
-5.71437e-05
0.0291032
-4.2474e-05
0.0290682
-3.01844e-05
0.0290353
-1.99208e-05
0.0290046
-1.13858e-05
0.0289761
-4.32536e-06
0.0289497
1.4579e-06
0.0289253
6.18136e-06
0.0289029
9.97381e-06
0.0288823
1.2968e-05
0.0288634
1.5275e-05
0.028846
1.69915e-05
0.0288302
1.81996e-05
0.0288158
1.89697e-05
0.0288027
1.93623e-05
0.0287907
1.94295e-05
0.0287799
1.92161e-05
0.0287701
1.87612e-05
0.0287612
1.80983e-05
0.0287532
1.72567e-05
0.028746
1.62617e-05
0.0287396
1.51356e-05
0.0287339
1.38976e-05
0.0287288
1.25648e-05
0.0287243
1.11521e-05
0.0287205
9.67297e-06
0.0287172
8.13926e-06
0.0287144
6.56168e-06
0.0287121
4.95018e-06
0.0287103
3.31375e-06
0.0287089
1.66108e-06
0.028708
0.0287076
-0.00145912
0.0280333
0.0015074
-0.00135974
0.0272828
-0.00120312
0.0281934
-0.00107355
0.0286302
-0.00092297
0.0289027
-0.000793419
0.0290883
-0.000674869
0.0292248
-0.000570776
0.029294
-0.000480886
0.0293322
-0.000403477
0.0293439
-0.000337244
0.0293372
-0.000280787
0.0293184
-0.000232743
0.0292916
-0.000191916
0.0292598
-0.000157256
0.0292253
-0.000127851
0.0291897
-0.000102924
0.029154
-8.18118e-05
0.0291191
-6.39512e-05
0.0290853
-4.88658e-05
0.0290531
-3.6152e-05
0.0290226
-2.54668e-05
0.0289939
-1.65197e-05
0.0289672
-9.06451e-06
0.0289422
-2.89402e-06
0.0289192
2.16694e-06
0.0288978
6.29491e-06
0.0288781
9.60191e-06
0.02886
1.21995e-05
0.0288435
1.41861e-05
0.0288282
1.56449e-05
0.0288143
1.66472e-05
0.0288017
1.72547e-05
0.0287901
1.75208e-05
0.0287796
1.74917e-05
0.0287701
1.72075e-05
0.0287615
1.67029e-05
0.0287537
1.60085e-05
0.0287467
1.51506e-05
0.0287404
1.41525e-05
0.0287349
1.30345e-05
0.0287299
1.18147e-05
0.0287256
1.05088e-05
0.0287218
9.13111e-06
0.0287185
7.69439e-06
0.0287158
6.21014e-06
0.0287136
4.68906e-06
0.0287118
3.14093e-06
0.0287105
1.57513e-06
0.0287096
0.0287092
-0.00131009
0.0280017
0.00134163
-0.00125016
0.0272229
-0.00112462
0.0280679
-0.00101631
0.0285218
-0.00088414
0.0287705
-0.000768388
0.0289725
-0.000659707
0.0291161
-0.00056303
0.0291973
-0.000478336
0.0292475
-0.000404529
0.0292701
-0.000340756
0.0292734
-0.000285903
0.0292635
-0.000238851
0.0292445
-0.000198576
0.0292195
-0.000164156
0.0291909
-0.000134772
0.0291603
-0.000109715
0.029129
-8.83708e-05
0.0290977
-7.02131e-05
0.0290671
-5.4791e-05
0.0290376
-4.17198e-05
0.0290095
-3.06703e-05
0.0289829
-2.13607e-05
0.0289579
-1.3551e-05
0.0289344
-7.03843e-06
0.0289126
-1.64439e-06
0.0288924
2.77954e-06
0.0288737
6.3768e-06
0.0288564
9.2459e-06
0.0288406
1.14868e-05
0.028826
1.31822e-05
0.0288127
1.44045e-05
0.0288004
1.52164e-05
0.0287893
1.56723e-05
0.0287792
1.58194e-05
0.0287699
1.56989e-05
0.0287616
1.53467e-05
0.028754
1.47941e-05
0.0287472
1.40686e-05
0.0287412
1.31944e-05
0.0287357
1.21928e-05
0.0287309
1.10825e-05
0.0287267
9.88052e-06
0.028723
8.60165e-06
0.0287198
7.25951e-06
0.0287172
5.86635e-06
0.028715
4.43362e-06
0.0287132
2.97181e-06
0.0287119
1.49098e-06
0.0287111
0.0287107
-0.00117877
0.027978
0.00120253
-0.00114939
0.0271935
-0.00105053
0.027969
-0.00095967
0.028431
-0.000844387
0.0286552
-0.000741426
0.0288696
-0.000642319
0.029017
-0.000553014
0.029108
-0.000473616
0.0291681
-0.000403607
0.0292001
-0.000342509
0.0292123
-0.000289477
0.0292105
-0.000243619
0.0291986
-0.00020408
0.02918
-0.000170061
0.0291569
-0.000140838
0.0291311
-0.000115772
0.0291039
-9.43001e-05
0.0290762
-7.59343e-05
0.0290488
-6.02518e-05
0.029022
-4.68881e-05
0.0289961
-3.55294e-05
0.0289715
-2.59051e-05
0.0289482
-1.77823e-05
0.0289263
-1.0962e-05
0.0289058
-5.27224e-06
0.0288867
-5.63847e-07
0.028869
3.29547e-06
0.0288526
6.41779e-06
0.0288375
8.89609e-06
0.0288235
1.08138e-05
0.0288107
1.22438e-05
0.028799
1.32494e-05
0.0287883
1.38857e-05
0.0287785
1.42008e-05
0.0287696
1.42369e-05
0.0287615
1.40307e-05
0.0287542
1.36144e-05
0.0287477
1.30165e-05
0.0287418
1.22619e-05
0.0287365
1.13728e-05
0.0287318
1.03689e-05
0.0287277
9.26771e-06
0.0287241
8.08494e-06
0.028721
6.83489e-06
0.0287184
5.53054e-06
0.0287163
4.18398e-06
0.0287146
2.80645e-06
0.0287133
1.40859e-06
0.0287125
0.0287121
-0.00106352
0.0279559
0.00108562
-0.00105649
0.0271865
-0.000980629
0.0278932
-0.000903777
0.0283541
-0.000804206
0.0285556
-0.000713033
0.0287784
-0.000623156
0.0289271
-0.00054109
0.0290259
-0.000467015
0.029094
-0.000400932
0.029134
-0.000342673
0.029154
-0.000291635
0.0291594
-0.000247142
0.0291541
-0.000208497
0.0291413
-0.000175022
0.0291234
-0.000146088
0.0291022
-0.000121124
0.0290789
-9.96207e-05
0.0290547
-8.11301e-05
0.0290303
-6.52588e-05
0.0290061
-5.16646e-05
0.0289826
-4.00496e-05
0.0289599
-3.01561e-05
0.0289383
-2.17597e-05
0.0289179
-1.46666e-05
0.0288987
-8.7094e-06
0.0288808
-3.74333e-06
0.028864
3.52783e-07
0.0288485
3.71439e-06
0.0288341
6.41428e-06
0.0288208
8.54056e-06
0.0288086
1.01658e-05
0.0287974
1.13543e-05
0.0287871
1.21616e-05
0.0287777
1.26366e-05
0.0287691
1.28221e-05
0.0287614
1.27555e-05
0.0287543
1.24701e-05
0.0287479
1.19948e-05
0.0287422
1.13556e-05
0.0287371
1.05752e-05
0.0287326
9.67419e-06
0.0287286
8.67073e-06
0.0287251
7.58127e-06
0.0287221
6.42078e-06
0.0287196
5.20289e-06
0.0287175
3.94031e-06
0.0287158
2.64494e-06
0.0287146
1.32798e-06
0.0287138
0.0287134
-0.000961945
0.0279323
0.000985548
-0.000970691
0.0271952
-0.000914609
0.0278371
-0.000848902
0.0282884
-0.000764048
0.0284708
-0.000683669
0.028698
-0.000602639
0.0288461
-0.000527599
0.0289509
-0.000458807
0.0290252
-0.000396717
0.0290719
-0.000341406
0.0290987
-0.000292497
0.0291105
-0.000249508
0.0291112
-0.000211892