/*--------------------------------*- C++ -*----------------------------------*\
  =========                 |
  \\      /  F ield         | OpenFOAM: The Open Source CFD Toolbox
   \\    /   O peration     | Website:  https://openfoam.org
    \\  /    A nd           | Version:  7
     \\/     M anipulation  |
\*---------------------------------------------------------------------------*/
FoamFile
{
    version     2.0;
    format      ascii;
    class       volScalarField;
    location    "54.999";
    object      p;
}
// * * * * * * * * * * * * * * * * * * * * * * * * * * * * * * * * * * * * * //

dimensions      [0 2 -2 0 0 0 0];

internalField   nonuniform List<scalar> 
3700
(
-0.248296
-0.246604
-0.244712
-0.242642
-0.240394
-0.237973
-0.235379
-0.232625
-0.229713
-0.226645
-0.223425
-0.220055
-0.216541
-0.212885
-0.209088
-0.205157
-0.201093
-0.196903
-0.192592
-0.188165
-0.183628
-0.178989
-0.174255
-0.169435
-0.164538
-0.159572
-0.15455
-0.149481
-0.144377
-0.13925
-0.13411
-0.128971
-0.123843
-0.11874
-0.113672
-0.108653
-0.103692
-0.0988001
-0.0939882
-0.0892654
-0.0846407
-0.0801214
-0.0757155
-0.0714287
-0.0672667
-0.063234
-0.0593342
-0.0555702
-0.051944
-0.0484568
-0.0451091
-0.0419006
-0.0388305
-0.0358974
-0.0330994
-0.0304341
-0.0278989
-0.0254906
-0.0232062
-0.0210421
-0.0189947
-0.0170605
-0.0152359
-0.0135172
-0.0119009
-0.0103839
-0.00896241
-0.00763486
-0.0063954
-0.00524843
-0.00417727
-0.0032123
-0.00228234
-0.00154186
-0.000648591
-0.00036856
0.000976556
-0.24842
-0.246726
-0.244833
-0.242762
-0.240513
-0.238092
-0.235498
-0.232725
-0.229805
-0.226732
-0.223506
-0.220131
-0.21661
-0.212946
-0.209143
-0.205205
-0.201136
-0.196942
-0.192628
-0.188199
-0.183664
-0.179027
-0.174299
-0.169485
-0.164597
-0.159642
-0.154631
-0.149576
-0.144485
-0.139371
-0.134245
-0.129119
-0.124004
-0.118911
-0.113853
-0.108841
-0.103885
-0.0989965
-0.0941851
-0.0894601
-0.0848308
-0.0803046
-0.0758896
-0.0715912
-0.0674162
-0.0633689
-0.0594534
-0.0556727
-0.0520292
-0.0485246
-0.0451596
-0.0419342
-0.0388481
-0.0358999
-0.0330881
-0.0304105
-0.0278645
-0.0254473
-0.0231556
-0.020986
-0.0189351
-0.0169991
-0.0151743
-0.0134571
-0.0118437
-0.010331
-0.00891478
-0.00759362
-0.00636112
-0.00522193
-0.00415833
-0.00320174
-0.00227854
-0.00154574
-0.000657281
-0.000377864
0.000952779
-0.248638
-0.24694
-0.245045
-0.242971
-0.240721
-0.238295
-0.235695
-0.232922
-0.230001
-0.226923
-0.223691
-0.22031
-0.216783
-0.213113
-0.209303
-0.205359
-0.201286
-0.197088
-0.192771
-0.188342
-0.183807
-0.179173
-0.174449
-0.169641
-0.16476
-0.159814
-0.154814
-0.149769
-0.14469
-0.139588
-0.134474
-0.129359
-0.124254
-0.11917
-0.114119
-0.109111
-0.104159
-0.09927
-0.0944566
-0.089727
-0.0850909
-0.0805537
-0.0761275
-0.0718158
-0.0676253
-0.0635612
-0.0596277
-0.0558283
-0.0521658
-0.048642
-0.0452581
-0.0420144
-0.0389107
-0.0359462
-0.0331193
-0.030428
-0.0278701
-0.0254426
-0.0231425
-0.0209663
-0.0189105
-0.0169715
-0.0151453
-0.0134283
-0.0118166
-0.0103068
-0.00889463
-0.00757855
-0.00635156
-0.00521886
-0.00416111
-0.00321168
-0.00229312
-0.00156659
-0.000681333
-0.000396217
0.000906132
-0.248931
-0.247228
-0.245331
-0.243256
-0.241005
-0.238579
-0.235977
-0.23321
-0.23028
-0.227197
-0.223962
-0.220577
-0.217045
-0.21337
-0.209556
-0.205608
-0.201532
-0.197331
-0.193013
-0.188584
-0.18405
-0.179419
-0.174699
-0.169898
-0.165024
-0.160086
-0.155094
-0.150059
-0.14499
-0.139898
-0.134793
-0.129686
-0.124588
-0.119511
-0.114464
-0.109458
-0.104507
-0.0996126
-0.0947951
-0.0900586
-0.0854125
-0.0808649
-0.0764243
-0.0720968
-0.0678891
-0.0638064
-0.0598535
-0.0560341
-0.0523512
-0.0488071
-0.0454032
-0.0421402
-0.0390182
-0.0360363
-0.0331935
-0.0304878
-0.027917
-0.0254784
-0.0231689
-0.0209852
-0.0189235
-0.0169803
-0.0151516
-0.0134336
-0.0118222
-0.010314
-0.00890436
-0.00759187
-0.0063687
-0.00524092
-0.00418704
-0.00324317
-0.00232689
-0.00160459
-0.000720852
-0.000423624
0.000839107
-0.249272
-0.247566
-0.245668
-0.243595
-0.241346
-0.23892
-0.236314
-0.233552
-0.230623
-0.227541
-0.224304
-0.220917
-0.217383
-0.213706
-0.209889
-0.205939
-0.20186
-0.197659
-0.193341
-0.188913
-0.184381
-0.179753
-0.175037
-0.170241
-0.165374
-0.160444
-0.15546
-0.150433
-0.145372
-0.140288
-0.135191
-0.130092
-0.124994
-0.119921
-0.114876
-0.109871
-0.104916
-0.10002
-0.0951945
-0.0904483
-0.0857906
-0.0812295
-0.0767733
-0.0724288
-0.0682026
-0.0641004
-0.0601271
-0.0562869
-0.0525831
-0.0490182
-0.0455939
-0.0423112
-0.0391703
-0.0361708
-0.0333116
-0.0305911
-0.028007
-0.0255566
-0.0232371
-0.0210449
-0.0189766
-0.0170282
-0.0151958
-0.0134755
-0.011863
-0.010355
-0.00894617
-0.00763559
-0.0064143
-0.00528958
-0.00423731
-0.00329694
-0.00238039
-0.00165964
-0.000775777
-0.00045994
0.000755109
-0.247923
-0.24603
-0.243962
-0.241719
-0.2393
-0.236699
-0.233942
-0.231013
-0.227932
-0.224697
-0.22131
-0.217776
-0.214099
-0.210283
-0.206334
-0.202255
-0.198055
-0.193738
-0.189312
-0.184783
-0.18016
-0.175449
-0.170659
-0.165799
-0.160871
-0.155894
-0.150875
-0.145822
-0.140744
-0.135652
-0.130556
-0.125466
-0.120394
-0.115348
-0.11034
-0.105381
-0.100478
-0.0956444
-0.0908875
-0.086217
-0.0816413
-0.0771688
-0.0728066
-0.0685614
-0.0644394
-0.0604456
-0.0565845
-0.0528597
-0.049274
-0.0458294
-0.0425271
-0.0393675
-0.0363504
-0.0334749
-0.0307393
-0.0281416
-0.0256792
-0.0233491
-0.0211479
-0.0190719
-0.0171174
-0.0152802
-0.0135563
-0.0119412
-0.0104317
-0.00902192
-0.0077113
-0.00648976
-0.00536589
-0.00431276
-0.00337337
-0.00245389
-0.00173132
-0.000845826
-0.000504795
0.00065812
-0.248267
-0.246385
-0.244327
-0.242095
-0.239681
-0.237072
-0.234338
-0.231423
-0.228349
-0.225119
-0.221737
-0.218208
-0.214537
-0.210714
-0.206768
-0.202694
-0.198497
-0.194184
-0.189762
-0.185238
-0.180619
-0.175913
-0.171129
-0.166274
-0.161357
-0.156387
-0.151373
-0.146326
-0.141253
-0.136166
-0.131073
-0.125985
-0.120913
-0.115866
-0.110855
-0.10589
-0.10098
-0.0961369
-0.0913687
-0.0866851
-0.0820946
-0.0776057
-0.0732258
-0.0689619
-0.0648203
-0.0608065
-0.0569251
-0.0531799
-0.0495741
-0.0461098
-0.0427885
-0.0396107
-0.0365764
-0.0336847
-0.0309342
-0.0283229
-0.0258481
-0.023507
-0.0212962
-0.0192118
-0.0172501
-0.0154068
-0.0136779
-0.0120586
-0.0105457
-0.009133
-0.00782019
-0.006596
-0.00547049
-0.00441378
-0.00347243
-0.00254729
-0.0018189
-0.000930443
-0.000557583
0.000552338
-0.248566
-0.246699
-0.244659
-0.242445
-0.240052
-0.2375
-0.234738
-0.231829
-0.228764
-0.225543
-0.222169
-0.218646
-0.21498
-0.211172
-0.207231
-0.203161
-0.198969
-0.194661
-0.190245
-0.185726
-0.181114
-0.176415
-0.171637
-0.166789
-0.161879
-0.156916
-0.151909
-0.146867
-0.1418
-0.136716
-0.131627
-0.12654
-0.121468
-0.116419
-0.111404
-0.106434
-0.101517
-0.0966643
-0.0918851
-0.0871888
-0.082584
-0.0780795
-0.0736828
-0.0694013
-0.0652412
-0.0612085
-0.0573078
-0.0535435
-0.0499186
-0.0464356
-0.0430962
-0.0399009
-0.03685
-0.0339427
-0.0311775
-0.0285526
-0.0260654
-0.0237129
-0.0214917
-0.0193981
-0.017428
-0.0155773
-0.0138418
-0.0122165
-0.0106983
-0.00928032
-0.00796291
-0.00673348
-0.00560351
-0.00454036
-0.00359369
-0.00266015
-0.00192142
-0.00102875
-0.000617539
0.000441817
-0.24878
-0.246938
-0.244924
-0.242734
-0.240355
-0.23781
-0.235085
-0.232198
-0.229151
-0.225945
-0.222585
-0.219074
-0.215418
-0.21162
-0.207688
-0.203628
-0.199445
-0.195146
-0.190737
-0.186228
-0.181623
-0.176933
-0.172163
-0.167324
-0.162421
-0.157466
-0.152466
-0.14743
-0.142369
-0.13729
-0.132204
-0.127119
-0.122047
-0.116997
-0.111979
-0.107004
-0.102081
-0.0972199
-0.0924309
-0.0877231
-0.0831056
-0.0785869
-0.0741751
-0.0698775
-0.0657007
-0.0616507
-0.0577325
-0.0539505
-0.0503081
-0.0468078
-0.0434513
-0.0402397
-0.0371729
-0.0342505
-0.031471
-0.0288325
-0.0263326
-0.0239682
-0.021736
-0.019632
-0.0176524
-0.0157927
-0.0140488
-0.0124155
-0.0108898
-0.00946422
-0.00813957
-0.00690212
-0.00576462
-0.00469204
-0.00373635
-0.00279171
-0.00203771
-0.00113953
-0.000683821
0.000330167
-0.24887
-0.247065
-0.245086
-0.242931
-0.240584
-0.238067
-0.235367
-0.232504
-0.229479
-0.226294
-0.222953
-0.21946
-0.215821
-0.212038
-0.20812
-0.204073
-0.199902
-0.195615
-0.191219
-0.18672
-0.182127
-0.177448
-0.172689
-0.167859
-0.162967
-0.15802
-0.153029
-0.148002
-0.142947
-0.137874
-0.132792
-0.127711
-0.12264
-0.117591
-0.112572
-0.107593
-0.102665
-0.0977979
-0.093001
-0.0882839
-0.0836558
-0.0791253
-0.0747006
-0.0703892
-0.066198
-0.0621329
-0.0581992
-0.0544015
-0.0507433
-0.0472272
-0.0438551
-0.0406282
-0.0375464
-0.0346094
-0.0318158
-0.0291639
-0.0266509
-0.0242741
-0.0220299
-0.0199145
-0.0179239
-0.0160536
-0.0142994
-0.0126559
-0.0111202
-0.00968446
-0.00834975
-0.00710136
-0.00595304
-0.00486797
-0.00389929
-0.0029409
-0.00216647
-0.00126128
-0.000755588
0.000220353
-0.248787
-0.247036
-0.245104
-0.242994
-0.240683
-0.238184
-0.235529
-0.232706
-0.229715
-0.22656
-0.223245
-0.219777
-0.216159
-0.212398
-0.2085
-0.204471
-0.200318
-0.196048
-0.191667
-0.187184
-0.182605
-0.17794
-0.173195
-0.168378
-0.163498
-0.158564
-0.153583
-0.148566
-0.14352
-0.138455
-0.13338
-0.128304
-0.123238
-0.118191
-0.113173
-0.108194
-0.103264
-0.0983933
-0.0935914
-0.0888679
-0.0842321
-0.0796927
-0.075258
-0.0709356
-0.0667325
-0.0626549
-0.0587082
-0.0548969
-0.0512248
-0.0476946
-0.0443084
-0.0410672
-0.0379714
-0.0350203
-0.0322129
-0.0295473
-0.027021
-0.0246309
-0.0223738
-0.0202457
-0.0182425
-0.0163597
-0.0145931
-0.0129371
-0.0113889
-0.00994024
-0.00859248
-0.00733014
-0.00616756
-0.00506693
-0.00408114
-0.00310637
-0.00230637
-0.00139227
-0.000832026
0.000114615
-0.2468
-0.244932
-0.242882
-0.240631
-0.238167
-0.235552
-0.232772
-0.229824
-0.226708
-0.223429
-0.219993
-0.216405
-0.212673
-0.208801
-0.204797
-0.200667
-0.196419
-0.19206
-0.187597
-0.183038
-0.17839
-0.173663
-0.168863
-0.164
-0.159081
-0.154115
-0.149111
-0.144077
-0.139023
-0.133958
-0.128891
-0.123832
-0.118791
-0.113777
-0.108801
-0.103873
-0.0990021
-0.0941987
-0.0894723
-0.0848322
-0.0802872
-0.0758458
-0.0715156
-0.0673037
-0.0632163
-0.0592591
-0.0554366
-0.0517527
-0.0482103
-0.0448113
-0.041557
-0.0384478
-0.0354832
-0.0326621
-0.0299826
-0.0274423
-0.0250383
-0.022767
-0.0206247
-0.0186072
-0.0167099
-0.0149288
-0.0132579
-0.0116945
-0.0102302
-0.00886628
-0.00758697
-0.0064066
-0.00528739
-0.0042803
-0.00328659
-0.00245608
-0.00153069
-0.000912367
1.44834e-05
-0.246292
-0.244511
-0.242534
-0.240336
-0.237869
-0.235351
-0.232649
-0.229765
-0.226702
-0.22347
-0.220076
-0.216528
-0.212833
-0.208996
-0.205025
-0.200926
-0.196707
-0.192375
-0.187939
-0.183405
-0.178781
-0.174077
-0.169299
-0.164456
-0.159557
-0.15461
-0.149624
-0.144607
-0.139568
-0.134517
-0.129463
-0.124416
-0.119384
-0.114379
-0.10941
-0.104487
-0.0996205
-0.0948196
-0.0900943
-0.0854538
-0.0809071
-0.0764626
-0.072128
-0.0679104
-0.0638163
-0.0598513
-0.05602
-0.0523263
-0.0487733
-0.045363
-0.0420967
-0.0389748
-0.035997
-0.0331621
-0.0304685
-0.0279136
-0.0254946
-0.0232079
-0.0210499
-0.0190163
-0.0171026
-0.0153045
-0.0136164
-0.0120351
-0.0105523
-0.00916918
-0.00786992
-0.00666825
-0.00552754
-0.00449507
-0.00347983
-0.00261429
-0.00167473
-0.00099588
-7.91243e-05
-0.24544
-0.243778
-0.241907
-0.23983
-0.237519
-0.234922
-0.232283
-0.229488
-0.2265
-0.223332
-0.219995
-0.216498
-0.21285
-0.209059
-0.20513
-0.201071
-0.196889
-0.192593
-0.18819
-0.183689
-0.179096
-0.174421
-0.169671
-0.164855
-0.159982
-0.155059
-0.150095
-0.1451
-0.140082
-0.13505
-0.130014
-0.124982
-0.119966
-0.114974
-0.110017
-0.105104
-0.100246
-0.0954516
-0.0907317
-0.086095
-0.0815505
-0.0771065
-0.072771
-0.0685511
-0.0644533
-0.060483
-0.0566453
-0.0529439
-0.0493819
-0.0459616
-0.0426843
-0.0395503
-0.0365596
-0.0337109
-0.0310027
-0.0284324
-0.0259974
-0.0236941
-0.0215188
-0.0194673
-0.017535
-0.0157178
-0.0140099
-0.0124081
-0.0109041
-0.00949881
-0.00817674
-0.00695036
-0.00578535
-0.00472364
-0.0036843
-0.00277978
-0.00182274
-0.00108188
-0.000165788
-0.244173
-0.242668
-0.240926
-0.238958
-0.236734
-0.234242
-0.23169
-0.22898
-0.226077
-0.222987
-0.21972
-0.216287
-0.2127
-0.208965
-0.20509
-0.201081
-0.196947
-0.192696
-0.188336
-0.183875
-0.179321
-0.174683
-0.169968
-0.165186
-0.160344
-0.155452
-0.150518
-0.14555
-0.140558
-0.135551
-0.130538
-0.125528
-0.120532
-0.115558
-0.110618
-0.10572
-0.100875
-0.0960925
-0.0913824
-0.0867537
-0.0822154
-0.0777758
-0.0734429
-0.0692238
-0.065125
-0.0611522
-0.0573102
-0.0536029
-0.0500336
-0.0466044
-0.0433168
-0.0401713
-0.0371677
-0.034305
-0.0315817
-0.0289954
-0.0265433
-0.024222
-0.0220278
-0.0199566
-0.0180039
-0.0161654
-0.0144353
-0.0128105
-0.0112827
-0.00985238
-0.00850483
-0.00725054
-0.0060586
-0.00496416
-0.00389814
-0.00295136
-0.00197322
-0.00116973
-0.000245457
-0.241127
-0.239554
-0.237745
-0.235692
-0.233353
-0.230642
-0.228119
-0.225371
-0.222398
-0.219223
-0.215872
-0.21236
-0.208697
-0.204888
-0.200942
-0.196867
-0.192672
-0.188364
-0.183954
-0.179448
-0.174855
-0.170183
-0.165442
-0.16064
-0.155785
-0.150887
-0.145953
-0.140994
-0.136017
-0.131033
-0.126051
-0.12108
-0.11613
-0.111211
-0.106333
-0.101507
-0.0967403
-0.0920442
-0.0874275
-0.0828992
-0.0784675
-0.0741405
-0.0699251
-0.065828
-0.0618549
-0.0580105
-0.0542991
-0.0507237
-0.0472866
-0.0439895
-0.0408328
-0.0378165
-0.0349396
-0.0322007
-0.0295975
-0.0271274
-0.0247868
-0.0225724
-0.0204798
-0.0185048
-0.0166429
-0.0148887
-0.0132385
-0.0116846
-0.0102266
-0.00885114
-0.00756607
-0.0063448
-0.00521462
-0.00411938
-0.0031278
-0.00212481
-0.00125874
-0.000318286
-0.239116
-0.237754
-0.236135
-0.234265
-0.232156
-0.229816
-0.227017
-0.224368
-0.221545
-0.21849
-0.21524
-0.21182
-0.208242
-0.204514
-0.200643
-0.196639
-0.192511
-0.188267
-0.183917
-0.179468
-0.174929
-0.17031
-0.165618
-0.160863
-0.156053
-0.151197
-0.146304
-0.141383
-0.136443
-0.131494
-0.126544
-0.121604
-0.116683
-0.111791
-0.106938
-0.102134
-0.0973881
-0.0927102
-0.0881094
-0.0835946
-0.0791743
-0.0748561
-0.0706473
-0.0665545
-0.0625833
-0.0587386
-0.0550246
-0.0514445
-0.0480007
-0.0446948
-0.0415274
-0.0384986
-0.0356075
-0.0328528
-0.0302322
-0.0277433
-0.0253825
-0.0231466
-0.0210314
-0.0190325
-0.0171456
-0.0153653
-0.0136878
-0.0121059
-0.0106179
-0.00921249
-0.00789419
-0.00664145
-0.00547304
-0.0043462
-0.00330797
-0.00227642
-0.00134834
-0.000384503
-0.236653
-0.235529
-0.234118
-0.232435
-0.230476
-0.228213
-0.225712
-0.223108
-0.220405
-0.217492
-0.214369
-0.211061
-0.207588
-0.203957
-0.200176
-0.196256
-0.192208
-0.188039
-0.18376
-0.179378
-0.174903
-0.170345
-0.165711
-0.161011
-0.156253
-0.151448
-0.146602
-0.141727
-0.13683
-0.131922
-0.127011
-0.122107
-0.117221
-0.112361
-0.107537
-0.10276
-0.0980391
-0.0933835
-0.0888025
-0.0843049
-0.079899
-0.0755927
-0.0713931
-0.0673069
-0.0633396
-0.0594964
-0.0557812
-0.0521975
-0.0487478
-0.0454336
-0.0422558
-0.0392145
-0.036309
-0.0335379
-0.0308992
-0.0283905
-0.0260085
-0.0237498
-0.0216104
-0.0195862
-0.0176724
-0.0158644
-0.0141575
-0.0125455
-0.0110255
-0.00958798
-0.00823417
-0.00694781
-0.00573902
-0.00457813
-0.00349184
-0.00242807
-0.00143872
-0.000444753
-0.233875
-0.233044
-0.231889
-0.230439
-0.228713
-0.226713
-0.22437
-0.221625
-0.219082
-0.21633
-0.213351
-0.210168
-0.206811
-0.203288
-0.199609
-0.195786
-0.191829
-0.187748
-0.183551
-0.179248
-0.174849
-0.170361
-0.165795
-0.161159
-0.156462
-0.151714
-0.146924
-0.1421
-0.137253
-0.13239
-0.127523
-0.12266
-0.117812
-0.112987
-0.108196
-0.103449
-0.0987543
-0.0941224
-0.0895622
-0.0850823
-0.0806912
-0.0763966
-0.0722058
-0.0681254
-0.064161
-0.0603179
-0.0566001
-0.0530111
-0.0495534
-0.0462289
-0.0430384
-0.0399823
-0.0370598
-0.0342699
-0.0316105
-0.0290794
-0.0266734
-0.0243893
-0.022223
-0.0201707
-0.0182274
-0.0163889
-0.0146499
-0.0130054
-0.0114506
-0.00997867
-0.00858684
-0.0072645
-0.00601315
-0.00481566
-0.00368007
-0.00258051
-0.00153097
-0.000500418
-0.229601
-0.228752
-0.227584
-0.226125
-0.224379
-0.222394
-0.220134
-0.217316
-0.214693
-0.211914
-0.208914
-0.205721
-0.202345
-0.198799
-0.195098
-0.191254
-0.187279
-0.183181
-0.17897
-0.174657
-0.17025
-0.16576
-0.161196
-0.156567
-0.151883
-0.147152
-0.142385
-0.137591
-0.132778
-0.127958
-0.123139
-0.118331
-0.113544
-0.108788
-0.104072
-0.0994065
-0.0948007
-0.0902636
-0.085804
-0.08143
-0.0771497
-0.0729703
-0.0688982
-0.0649394
-0.0610989
-0.057381
-0.0537893
-0.0503263
-0.0469939
-0.0437932
-0.0407246
-0.0377875
-0.0349809
-0.0323028
-0.0297513
-0.0273231
-0.0250152
-0.0228235
-0.0207445
-0.0187729
-0.016905
-0.015135
-0.0134586
-0.0118698
-0.0103638
-0.00893445
-0.00757625
-0.00628298
-0.00504835
-0.0038649
-0.0027276
-0.0016218
-0.000550285
-0.224898
-0.224357
-0.223475
-0.222292
-0.220823
-0.219071
-0.21701
-0.214698
-0.212103
-0.209326
-0.206417
-0.203346
-0.200097
-0.196676
-0.1931
-0.189378
-0.185522
-0.181541
-0.177444
-0.173242
-0.168944
-0.164559
-0.160099
-0.155571
-0.150985
-0.146352
-0.14168
-0.136978
-0.132257
-0.127526
-0.122795
-0.118073
-0.113369
-0.108694
-0.104057
-0.0994682
-0.0949356
-0.0904686
-0.0860757
-0.081765
-0.077544
-0.0734199
-0.069399
-0.0654868
-0.0616885
-0.058008
-0.0544489
-0.0510138
-0.0477044
-0.0445219
-0.0414666
-0.0385381
-0.0357355
-0.033057
-0.0305006
-0.0280633
-0.0257423
-0.0235334
-0.0214335
-0.0194374
-0.0175417
-0.0157401
-0.0140295
-0.0124023
-0.0108563
-0.00938186
-0.00797842
-0.00663283
-0.00534846
-0.00410473
-0.0029135
-0.00173786
-0.000605359
-0.216277
-0.216097
-0.215527
-0.214628
-0.21342
-0.2119
-0.210089
-0.208025
-0.205842
-0.203566
-0.201053
-0.198286
-0.195306
-0.192145
-0.188818
-0.185337
-0.181712
-0.177955
-0.174074
-0.170082
-0.165989
-0.161804
-0.157538
-0.1532
-0.1488
-0.144348
-0.139853
-0.135325
-0.130773
-0.126208
-0.121638
-0.117073
-0.112523
-0.107996
-0.103503
-0.0990528
-0.0946535
-0.090314
-0.0860424
-0.0818466
-0.0777338
-0.0737107
-0.0697835
-0.0659574
-0.0622374
-0.0586275
-0.0551309
-0.0517503
-0.0484876
-0.0453439
-0.0423197
-0.0394147
-0.0366283
-0.0339588
-0.0314046
-0.0289628
-0.0266312
-0.0244056
-0.0222833
-0.0202592
-0.0183306
-0.0164907
-0.0147379
-0.013063
-0.0114664
-0.00993525
-0.0084737
-0.00706271
-0.00571369
-0.00439576
-0.00313412
-0.00187482
-0.000665685
-0.207867
-0.208069
-0.207848
-0.207291
-0.20644
-0.205312
-0.203929
-0.202314
-0.200461
-0.198321
-0.195945
-0.193385
-0.190641
-0.187716
-0.184618
-0.18136
-0.177954
-0.17441
-0.170739
-0.166951
-0.163058
-0.159069
-0.154994
-0.150843
-0.146627
-0.142354
-0.138035
-0.133678
-0.129295
-0.124893
-0.120483
-0.116074
-0.111675
-0.107295
-0.102943
-0.0986293
-0.0943609
-0.0901465
-0.0859939
-0.0819107
-0.0779037
-0.0739795
-0.0701438
-0.066402
-0.0627587
-0.0592177
-0.0557824
-0.0524553
-0.0492384
-0.0461328
-0.0431392
-0.0402574
-0.0374871
-0.0348267
-0.032275
-0.0298291
-0.0274873
-0.0252455
-0.0231015
-0.0210501
-0.0190895
-0.0172123
-0.0154181
-0.0136967
-0.0120503
-0.0104642
-0.00894549
-0.00747144
-0.00605882
-0.00467022
-0.00333954
-0.00200214
-0.000718738
-0.199772
-0.200325
-0.200434
-0.200197
-0.199663
-0.198849
-0.197753
-0.196372
-0.194718
-0.192833
-0.190752
-0.188462
-0.185968
-0.183281
-0.180415
-0.177382
-0.174196
-0.170866
-0.167405
-0.163823
-0.160129
-0.156336
-0.152453
-0.148489
-0.144456
-0.140362
-0.136217
-0.132032
-0.127815
-0.123576
-0.119324
-0.115068
-0.110819
-0.106583
-0.102372
-0.0981915
-0.0940517
-0.08996
-0.0859241
-0.081951
-0.0780476
-0.0742201
-0.070474
-0.0668145
-0.0632461
-0.0597725
-0.0563971
-0.0531224
-0.0499503
-0.0468822
-0.0439187
-0.0410599
-0.0383056
-0.0356545
-0.0331054
-0.030656
-0.0283045
-0.0260473
-0.0238825
-0.0218049
-0.0198133
-0.0179001
-0.0160658
-0.0142996
-0.012605
-0.0109659
-0.00939185
-0.00785753
-0.00638331
-0.00492778
-0.0035304
-0.00211989
-0.000764912
-0.191992
-0.192863
-0.193279
-0.193334
-0.19308
-0.192533
-0.191693
-0.190568
-0.189182
-0.187565
-0.18573
-0.183676
-0.18141
-0.178947
-0.1763
-0.173484
-0.170509
-0.167387
-0.164129
-0.160745
-0.157247
-0.153644
-0.149947
-0.146166
-0.142311
-0.138392
-0.134418
-0.130399
-0.126344
-0.122264
-0.118166
-0.11406
-0.109956
-0.105861
-0.101784
-0.0977344
-0.0937193
-0.0897466
-0.0858237
-0.0819575
-0.0781544
-0.0744205
-0.0707613
-0.0671817
-0.063686
-0.060278
-0.056961
-0.0537374
-0.0506092
-0.0475779
-0.0446443
-0.0418084
-0.0390703
-0.0364289
-0.0338833
-0.0314312
-0.0290713
-0.0268
-0.024616
-0.0225139
-0.0204932
-0.0185461
-0.0166739
-0.0148652
-0.0131249
-0.0114358
-0.00980902
-0.00821789
-0.0066851
-0.00516683
-0.00370616
-0.00222761
-0.000805119
-0.184564
-0.185723
-0.186424
-0.186751
-0.186758
-0.186464
-0.185876
-0.185007
-0.183874
-0.182496
-0.180885
-0.17905
-0.177002
-0.174753
-0.172318
-0.169709
-0.166937
-0.164014
-0.160951
-0.157758
-0.154447
-0.151027
-0.14751
-0.143905
-0.140221
-0.13647
-0.13266
-0.128801
-0.124903
-0.120975
-0.117025
-0.113063
-0.109098
-0.105138
-0.101191
-0.0972663
-0.0933708
-0.0895122
-0.0856976
-0.0819337
-0.0782268
-0.0745828
-0.0710069
-0.067504
-0.0640782
-0.0607334
-0.0574726
-0.0542984
-0.0512128
-0.0482173
-0.0453129
-0.0424997
-0.039778
-0.0371466
-0.0346052
-0.0321513
-0.0297843
-0.0275004
-0.0252988
-0.0231742
-0.0211264
-0.0191478
-0.0172401
-0.0153918
-0.0136085
-0.0118725
-0.0101963
-0.00855208
-0.0069643
-0.00538761
-0.0038676
-0.00232617
-0.000840932
-0.177517
-0.178934
-0.179897
-0.180478
-0.18073
-0.180676
-0.180326
-0.179693
-0.178789
-0.177631
-0.176233
-0.174607
-0.172767
-0.170723
-0.168489
-0.166077
-0.163499
-0.160766
-0.157889
-0.154879
-0.151746
-0.148501
-0.145155
-0.141718
-0.138199
-0.134608
-0.130955
-0.127249
-0.1235
-0.119717
-0.115909
-0.112085
-0.108252
-0.104421
-0.100598
-0.0967923
-0.0930108
-0.0892608
-0.0855494
-0.081883
-0.0782678
-0.0747095
-0.0712131
-0.0677833
-0.0644244
-0.06114
-0.0579331
-0.0548064
-0.051762
-0.0488011
-0.0459251
-0.0431342
-0.0404287
-0.0378077
-0.035271
-0.0328164
-0.0304434
-0.0281483
-0.0259308
-0.0237856
-0.021713
-0.0197052
-0.0177646
-0.0158795
-0.0140561
-0.0122767
-0.0105543
-0.00886074
-0.00722174
-0.00559091
-0.00401581
-0.00241643
-0.000873311
-0.170856
-0.172505
-0.173706
-0.174521
-0.175
-0.17517
-0.175041
-0.174624
-0.173932
-0.17298
-0.171785
-0.170359
-0.168716
-0.166866
-0.164823
-0.162598
-0.160203
-0.15765
-0.15495
-0.152113
-0.14915
-0.146072
-0.142889
-0.139612
-0.136249
-0.132811
-0.129307
-0.125748
-0.122141
-0.118497
-0.114823
-0.111129
-0.107423
-0.103714
-0.100009
-0.096316
-0.0926426
-0.0889958
-0.0853823
-0.0818086
-0.0782804
-0.0748034
-0.0713825
-0.0680224
-0.0647272
-0.0615004
-0.0583451
-0.0552638
-0.0522588
-0.0493315
-0.046483
-0.0437139
-0.0410245
-0.0384141
-0.0358826
-0.033428
-0.03105
-0.0287453
-0.0265135
-0.0243496
-0.0222541
-0.0202196
-0.0182486
-0.0163296
-0.0144691
-0.0126494
-0.0108842
-0.00914498
-0.00745854
-0.00577771
-0.00415176
-0.00249911
-0.000902827
-0.16458
-0.166434
-0.167848
-0.168878
-0.169568
-0.169943
-0.170017
-0.169801
-0.169307
-0.16855
-0.167546
-0.166309
-0.164851
-0.163185
-0.161321
-0.159273
-0.157052
-0.15467
-0.152137
-0.149464
-0.146663
-0.143743
-0.140715
-0.137589
-0.134375
-0.131083
-0.127721
-0.1243
-0.120828
-0.117315
-0.113769
-0.110199
-0.106613
-0.10302
-0.0994261
-0.0958403
-0.0922693
-0.0887202
-0.0851996
-0.0817135
-0.0782678
-0.0748679
-0.0715187
-0.0682247
-0.0649899
-0.0618179
-0.0587117
-0.0556739
-0.0527066
-0.0498114
-0.0469896
-0.0442416
-0.041568
-0.0389683
-0.0364424
-0.0339886
-0.0316067
-0.0292935
-0.0270489
-0.0248682
-0.022752
-0.0206929
-0.018694
-0.0167437
-0.014849
-0.0129922
-0.0111874
-0.00940614
-0.00767595
-0.00594909
-0.00427638
-0.00257481
-0.000929872
-0.158679
-0.160715
-0.162322
-0.163546
-0.164428
-0.164993
-0.165255
-0.165224
-0.164914
-0.16434
-0.163516
-0.162456
-0.161173
-0.159679
-0.157985
-0.156104
-0.154047
-0.151826
-0.149451
-0.146935
-0.144286
-0.141516
-0.138635
-0.135653
-0.13258
-0.129425
-0.126198
-0.122908
-0.119564
-0.116175
-0.11275
-0.109297
-0.105825
-0.102341
-0.0988527
-0.0953681
-0.091894
-0.0884372
-0.0850042
-0.081601
-0.0782333
-0.0749063
-0.0716249
-0.0683935
-0.0652161
-0.062096
-0.0590365
-0.0560401
-0.0531089
-0.0502444
-0.0474482
-0.0447208
-0.0420627
-0.0394737
-0.0369537
-0.0345013
-0.0321163
-0.0297958
-0.02754
-0.0253439
-0.0232089
-0.0211275
-0.019103
-0.017124
-0.0151979
-0.0133068
-0.0114657
-0.00964569
-0.00787528
-0.00610612
-0.00439052
-0.00264411
-0.000954708
-0.153147
-0.155344
-0.157121
-0.158521
-0.159579
-0.160318
-0.160752
-0.160894
-0.160755
-0.160351
-0.159695
-0.1588
-0.157681
-0.156348
-0.154814
-0.15309
-0.151188
-0.149119
-0.146894
-0.144524
-0.14202
-0.139392
-0.13665
-0.133804
-0.130863
-0.127839
-0.124739
-0.121573
-0.11835
-0.115079
-0.111768
-0.108426
-0.10506
-0.10168
-0.0982911
-0.094902
-0.0915192
-0.0881496
-0.0847993
-0.0814743
-0.0781802
-0.074922
-0.0717047
-0.0685324
-0.0654092
-0.0623384
-0.0593232
-0.056366
-0.0534691
-0.0506341
-0.0478625
-0.0451548
-0.042512
-0.0399335
-0.0374197
-0.0349691
-0.0325819
-0.0302552
-0.0279893
-0.0257796
-0.0236275
-0.0215257
-0.0194778
-0.0174725
-0.0155176
-0.0135952
-0.0117207
-0.00986511
-0.0080578
-0.00624985
-0.00449499
-0.00270752
-0.000977511
-0.147974
-0.150311
-0.152241
-0.153798
-0.155015
-0.155913
-0.156506
-0.156806
-0.156826
-0.156579
-0.15608
-0.15534
-0.154374
-0.153193
-0.151808
-0.150232
-0.148475
-0.146549
-0.144465
-0.142234
-0.139866
-0.137371
-0.13476
-0.132042
-0.129227
-0.126325
-0.123345
-0.120296
-0.117187
-0.114027
-0.110824
-0.107586
-0.104322
-0.101038
-0.0977436
-0.0944444
-0.0911477
-0.08786
-0.0845876
-0.0813363
-0.0781114
-0.0749182
-0.0717612
-0.0686447
-0.0655727
-0.0625484
-0.0595751
-0.0566552
-0.0537909
-0.0509839
-0.0482358
-0.0455472
-0.042919
-0.040351
-0.0378435
-0.0353952
-0.0330065
-0.0306744
-0.0283997
-0.0261778
-0.0240102
-0.02189
-0.0198208
-0.0177915
-0.0158102
-0.013859
-0.011954
-0.0100658
-0.0082247
-0.00638123
-0.00459048
-0.00276547
-0.000998418
-0.14315
-0.145611
-0.147675
-0.149373
-0.150733
-0.151776
-0.152514
-0.15296
-0.153126
-0.153025
-0.15267
-0.152075
-0.151251
-0.150211
-0.148967
-0.147528
-0.145908
-0.144117
-0.142165
-0.140064
-0.137824
-0.135454
-0.132966
-0.130369
-0.127673
-0.124886
-0.122019
-0.11908
-0.116078
-0.113022
-0.10992
-0.106781
-0.103611
-0.100419
-0.0972123
-0.0939976
-0.0907818
-0.0875712
-0.0843719
-0.0811898
-0.0780301
-0.0748978
-0.0717976
-0.0687336
-0.0657098
-0.0627294
-0.0597956
-0.0569108
-0.0540775
-0.0512971
-0.0485714
-0.0459011
-0.0432871
-0.0407293
-0.0382282
-0.0357825
-0.0333928
-0.0310563
-0.0287738
-0.026541
-0.0243596
-0.0222225
-0.020134
-0.0180828
-0.0160774
-0.0141
-0.0121671
-0.0102491
-0.0083771
-0.00650117
-0.00467766
-0.00281837
-0.00101755
-0.138665
-0.141234
-0.143416
-0.145239
-0.146729
-0.147902
-0.148773
-0.149352
-0.149652
-0.149685
-0.149465
-0.149003
-0.148312
-0.147404
-0.14629
-0.14498
-0.143487
-0.141822
-0.139994
-0.138015
-0.135894
-0.133642
-0.13127
-0.128786
-0.1262
-0.123522
-0.12076
-0.117925
-0.115023
-0.112065
-0.109058
-0.10601
-0.10293
-0.0998237
-0.0966994
-0.0935639
-0.0904238
-0.0872854
-0.0841548
-0.0810374
-0.0779388
-0.0748637
-0.0718167
-0.068802
-0.0658235
-0.0628844
-0.0599878
-0.0571362
-0.054332
-0.0515768
-0.0488724
-0.0462195
-0.0436191
-0.0410713
-0.0385766
-0.0361338
-0.0337436
-0.0314034
-0.0291142
-0.0268716
-0.0246777
-0.0225255
-0.0204194
-0.0183483
-0.0163211
-0.0143197
-0.0123613
-0.0104161
-0.00851602
-0.00661049
-0.00475712
-0.00286658
-0.001035
-0.13451
-0.137172
-0.139458
-0.141392
-0.142996
-0.144288
-0.145278
-0.145979
-0.146402
-0.146559
-0.146462
-0.146124
-0.145556
-0.14477
-0.143776
-0.142587
-0.141212
-0.139664
-0.137951
-0.136086
-0.134077
-0.131935
-0.129671
-0.127292
-0.12481
-0.122233
-0.119571
-0.116832
-0.114024
-0.111158
-0.108239
-0.105278
-0.10228
-0.0992541
-0.0962069
-0.0931454
-0.090076
-0.0870051
-0.0839385
-0.0808818
-0.0778401
-0.0748185
-0.0718214
-0.0688528
-0.0659166
-0.0630162
-0.0601545
-0.0573341
-0.0545573
-0.0518259
-0.0491416
-0.0465053
-0.043918
-0.0413797
-0.0388914
-0.0364517
-0.0340614
-0.0317182
-0.0294231
-0.0271719
-0.0249668
-0.022801
-0.020679
-0.0185899
-0.0165427
-0.0145196
-0.012538
-0.0105681
-0.00864239
-0.00670992
-0.0048294
-0.00291043
-0.00105089
-0.130674
-0.133415
-0.135792
-0.137824
-0.139531
-0.140928
-0.142027
-0.142838
-0.143373
-0.143643
-0.14366
-0.143435
-0.14298
-0.142307
-0.141426
-0.140348
-0.139083
-0.137643
-0.136038
-0.134278
-0.132373
-0.130334
-0.12817
-0.12589
-0.123504
-0.121022
-0.118451
-0.115802
-0.113082
-0.110301
-0.107465
-0.104583
-0.101663
-0.0987119
-0.0957365
-0.0927439
-0.0897404
-0.0867323
-0.0837253
-0.080725
-0.0777366
-0.0747647
-0.071814
-0.0688884
-0.0659918
-0.0631275
-0.0602984
-0.0575072
-0.0547562
-0.0520471
-0.0493818
-0.0467611
-0.0441862
-0.0416572
-0.039175
-0.0367385
-0.0343486
-0.0320029
-0.0297027
-0.0274439
-0.0252288
-0.0230507
-0.0209144
-0.018809
-0.0167439
-0.014701
-0.0126984
-0.0107061
-0.00875708
-0.00680016
-0.00489499
-0.00295022
-0.00106531
-0.127147
-0.129956
-0.132411
-0.134529
-0.136327
-0.137819
-0.139015
-0.139927
-0.140563
-0.140936
-0.141056
-0.140936
-0.140585
-0.140015
-0.139237
-0.138262
-0.137099
-0.135759
-0.134253
-0.132591
-0.130783
-0.128838
-0.126767
-0.124579
-0.122282
-0.119887
-0.117403
-0.114837
-0.112198
-0.109496
-0.106737
-0.103929
-0.101081
-0.0981988
-0.09529
-0.0923613
-0.0894189
-0.086469
-0.0835174
-0.0805694
-0.0776303
-0.0747046
-0.071797
-0.0689114
-0.0660515
-0.0632207
-0.060422
-0.057658
-0.054931
-0.0522428
-0.0495953
-0.0469893
-0.0444262
-0.0419061
-0.0394298
-0.0369966
-0.0346073
-0.0322597
-0.0299551
-0.0276895
-0.0254656
-0.0232765
-0.0211274
-0.0190072
-0.0169258
-0.0148652
-0.0128436
-0.0108309
-0.00886087
-0.00688182
-0.00495435
-0.00298622
-0.00107835
-0.123919
-0.126786
-0.129308
-0.131501
-0.13338
-0.134956
-0.13624
-0.13724
-0.137969
-0.138435
-0.13865
-0.138624
-0.138369
-0.137894
-0.137211
-0.136329
-0.13526
-0.134012
-0.132598
-0.131026
-0.129306
-0.127449
-0.125464
-0.12336
-0.121146
-0.118832
-0.116426
-0.113937
-0.111373
-0.108744
-0.106055
-0.103317
-0.100534
-0.0977163
-0.094869
-0.0919992