/*--------------------------------*- C++ -*----------------------------------*\
  =========                 |
  \\      /  F ield         | OpenFOAM: The Open Source CFD Toolbox
   \\    /   O peration     | Website:  https://openfoam.org
    \\  /    A nd           | Version:  7
     \\/     M anipulation  |
\*---------------------------------------------------------------------------*/
FoamFile
{
    version     2.0;
    format      ascii;
    class       surfaceScalarField;
    location    "54.999";
    object      phi;
}
// * * * * * * * * * * * * * * * * * * * * * * * * * * * * * * * * * * * * * //

dimensions      [0 3 -1 0 0 0 0];

internalField   nonuniform List<scalar> 
7273
(
-0.00123665
2.52391e-05
-0.00125848
2.06215e-05
-0.00127663
1.62698e-05
-0.00129139
1.21251e-05
-0.00130296
8.13808e-06
-0.0013115
4.27645e-06
-0.00131704
4.59377e-07
-0.00131987
-2.89572e-06
-0.00132012
-5.87522e-06
-0.00131789
-8.68958e-06
-0.00131324
-1.13341e-05
-0.00130618
-1.37545e-05
-0.00129679
-1.59578e-05
-0.00128506
-1.78914e-05
-0.00127102
-1.95484e-05
-0.00125469
-2.09288e-05
-0.00123609
-2.20422e-05
-0.00121524
-2.29096e-05
-0.00119214
-2.35532e-05
-0.00116682
-2.4007e-05
-0.00113929
-2.43089e-05
-0.00110958
-2.45045e-05
-0.00107771
-2.46441e-05
-0.00104371
-2.47807e-05
-0.00100762
-2.49672e-05
-0.000969483
-2.5258e-05
-0.000929363
-2.56926e-05
-0.000887319
-2.63288e-05
-0.000843418
-2.72116e-05
-0.000797733
-2.83767e-05
-0.000750344
-2.98517e-05
-0.000701339
-3.16527e-05
-0.000650804
-3.37959e-05
-0.000598855
-3.62364e-05
-0.000545596
-3.89896e-05
-0.000491137
-4.20248e-05
-0.00043559
-4.53039e-05
-0.000379063
-4.87979e-05
-0.000321687
-5.24087e-05
-0.000263579
-5.61041e-05
-0.000204856
-5.98153e-05
-0.000145629
-6.34845e-05
-8.60224e-05
-6.70151e-05
-2.61439e-05
-7.03644e-05
3.38958e-05
-7.34525e-05
9.39933e-05
-7.62247e-05
0.00015405
-7.86258e-05
0.000213973
-8.06077e-05
0.000273673
-8.21314e-05
0.000333071
-8.31672e-05
0.00039209
-8.36949e-05
0.000450664
-8.37045e-05
0.000508728
-8.31961e-05
0.00056623
-8.21793e-05
0.00062312
-8.06733e-05
0.000679354
-7.87059e-05
0.000734898
-7.63131e-05
0.00078972
-7.35376e-05
0.000843795
-7.04284e-05
0.000897104
-6.70394e-05
0.000949633
-6.34285e-05
0.00100137
-5.96561e-05
0.00105231
-5.57848e-05
0.00110246
-5.18763e-05
0.00115182
-4.79976e-05
0.00120039
-4.42046e-05
0.0012482
-4.05649e-05
0.00129525
-3.71252e-05
0.00134158
-3.39632e-05
0.00138719
-3.10988e-05
0.00143214
-2.86432e-05
0.00147644
-2.65696e-05
0.00152015
-2.50457e-05
0.00156339
-2.40456e-05
0.00160593
-2.36727e-05
0.00164872
-2.42502e-05
-2.5806e-05
-0.00118044
4.99347e-05
-0.0012012
4.13808e-05
-0.00121837
3.34416e-05
-0.00123222
2.59693e-05
-0.00124293
1.88481e-05
-0.00125063
1.19796e-05
-0.00125553
5.36115e-06
-0.00125751
-9.1796e-07
-0.00125705
-6.33137e-06
-0.00125415
-1.15906e-05
-0.00124885
-1.6639e-05
-0.00124117
-2.14313e-05
-0.00123116
-2.59656e-05
-0.00121884
-3.02104e-05
-0.00120423
-3.41638e-05
-0.00118735
-3.78067e-05
-0.00116822
-4.11712e-05
-0.00114686
-4.42747e-05
-0.00112327
-4.71404e-05
-0.00109748
-4.97996e-05
-0.0010695
-5.2288e-05
-0.00103935
-5.46476e-05
-0.00100707
-5.69248e-05
-0.000972686
-5.91677e-05
-0.00093623
-6.14229e-05
-0.000897746
-6.37419e-05
-0.000857301
-6.61375e-05
-0.000814957
-6.86726e-05
-0.000770782
-7.13873e-05
-0.000724849
-7.4309e-05
-0.000677243
-7.74582e-05
-0.000628053
-8.08428e-05
-0.000577363
-8.44857e-05
-0.000525299
-8.83004e-05
-0.000471967
-9.23213e-05
-0.00041748
-9.65119e-05
-0.000361955
-0.000100829
-0.000305499
-0.000105253
-0.00024825
-0.000109658
-0.000190329
-0.000114026
-0.000131856
-0.000118289
-7.29361e-05
-0.000122404
-1.37013e-05
-0.00012625
4.57284e-05
-0.000129794
0.000105257
-0.000132981
0.000164779
-0.000135747
0.000224196
-0.000138043
0.000283418
-0.000139829
0.000342359
-0.000141073
0.000400943
-0.000141751
0.000459099
-0.000141851
0.000516764
-0.00014137
0.000573883
-0.000140315
0.000630407
-0.000138703
0.000686294
-0.00013656
0.000741509
-0.00013392
0.000796022
-0.000130826
0.000849809
-0.000127325
0.000902854
-0.000123473
0.000955142
-0.000119328
0.00100667
-0.000114952
0.00105742
-0.000110412
0.00110741
-0.000105773
0.00115664
-0.000101102
0.00120511
-9.64683e-05
0.00125283
-9.19306e-05
0.00129983
-8.75653e-05
0.00134612
-8.34123e-05
0.00139173
-7.95698e-05
0.00143666
-7.60355e-05
0.00148098
-7.29607e-05
0.0015247
-7.02852e-05
0.00156784
-6.81933e-05
0.00161057
-6.67729e-05
0.0016526
-6.57009e-05
0.00169486
-6.65085e-05
-6.67157e-05
-0.00106892
7.23956e-05
-0.00108762
6.00774e-05
-0.00110289
4.87103e-05
-0.00111496
3.80407e-05
-0.001124
2.78938e-05
-0.00113013
1.81093e-05
-0.00113348
8.70194e-06
-0.00113404
-3.5123e-07
-0.00113224
-8.1318e-06
-0.00112803
-1.5805e-05
-0.00112145
-2.32194e-05
-0.00111254
-3.0339e-05
-0.00110134
-3.71639e-05
-0.00108787
-4.36787e-05
-0.00107215
-4.98899e-05
-0.0010542
-5.57517e-05
-0.00103405
-6.13227e-05
-0.00101171
-6.66178e-05
-0.000987187
-7.16599e-05
-0.000960509
-7.64778e-05
-0.000931692
-8.11045e-05
-0.000900762
-8.55781e-05
-0.000867746
-8.99406e-05
-0.000832678
-9.42356e-05
-0.000795597
-9.85037e-05
-0.000756541
-0.000102798
-0.000715582
-0.000107096
-0.000672786
-0.000111468
-0.000628223
-0.000115951
-0.000581969
-0.000120563
-0.000534111
-0.000125316
-0.000484743
-0.000130211
-0.000433945
-0.000135284
-0.000381851
-0.000140394
-0.000328571
-0.000145601
-0.000274222
-0.000150862
-0.000218924
-0.000156126
-0.000162777
-0.0001614
-0.00010593
-0.000166506
-4.84989e-05
-0.000171456
9.40238e-06
-0.00017619
6.75973e-05
-0.000180599
0.000126031
-0.000184684
0.00018458
-0.000188343
0.000243131
-0.000191532
0.000301584
-0.000194199
0.000359842
-0.000196302
0.000417821
-0.000197807
0.000475439
-0.000198691
0.000532625
-0.000198937
0.000589316
-0.000198542
0.000645456
-0.000197509
0.000700996
-0.000195855
0.000755895
-0.000193603
0.000810121
-0.000190786
0.000863647
-0.000187446
0.00091645
-0.000183629
0.000968517
-0.000179392
0.00101984
-0.000174793
0.00107041
-0.000169897
0.00112022
-0.000164769
0.00116929
-0.00015948
0.00121762
-0.0001541
0.00126521
-0.000148696
0.00131209
-0.000143345
0.00135826
-0.000138103
0.00140375
-0.000133056
0.00144858
-0.000128237
0.00149277
-0.000123761
0.00153634
-0.000119609
0.00157934
-0.000115958
0.00162179
-0.00011274
0.0016637
-0.000110104
0.00170526
-0.000108326
0.00174613
-0.00010657
0.00178717
-0.000107549
-0.000106591
-0.00090372
9.16983e-05
-0.000919533
7.58899e-05
-0.000932144
6.13222e-05
-0.000941746
4.76425e-05
-0.000948472
3.46197e-05
-0.000952398
2.20348e-05
-0.000953584
9.8882e-06
-0.000952306
-1.62946e-06
-0.000948599
-1.18386e-05
-0.000942557
-2.1847e-05
-0.000934218
-3.15581e-05
-0.000923617
-4.09405e-05
-0.000910784
-4.99967e-05
-0.000895742
-5.87203e-05
-0.000878495
-6.71369e-05
-0.000859093
-7.51542e-05
-0.000837549
-8.2867e-05
-0.000813878
-9.02886e-05
-0.000788098
-9.74399e-05
-0.000760229
-0.000104347
-0.000730294
-0.00011104
-0.00069832
-0.000117552
-0.000664341
-0.00012392
-0.000628392
-0.000130184
-0.000590517
-0.000136379
-0.000550748
-0.000142567
-0.000509166
-0.000148679
-0.000465841
-0.000154793
-0.000420845
-0.000160947
-0.000374259
-0.000167149
-0.000326174
-0.0001734
-0.000276689
-0.000179696
-0.000225872
-0.000186101
-0.000173869
-0.000192397
-0.000120795
-0.000198676
-6.67561e-05
-0.0002049
-1.18517e-05
-0.000211031
4.36703e-05
-0.000216922
9.97961e-05
-0.000222632
0.000156393
-0.000228053
0.000213328
-0.000233124
0.000270491
-0.000237762
0.000327752
-0.000241945
0.000385004
-0.000245595
0.000442143
-0.00024867
0.00049907
-0.000251126
0.000555696
-0.000252928
0.00061194
-0.000254051
0.000667728
-0.000254479
0.000722996
-0.000254205
0.000777687
-0.000253233
0.000831754
-0.000251576
0.000885157
-0.000249258
0.000937864
-0.00024631
0.000989851
-0.000242773
0.0010411
-0.000238695
0.0010916
-0.00023413
0.00114135
-0.000229138
0.00119034
-0.000223783
0.00123858
-0.000218135
0.00128607
-0.000212264
0.00133283
-0.000206242
0.00137888
-0.000200143
0.00142422
-0.000194037
0.00146887
-0.000188003
0.00151287
-0.000182099
0.00155623
-0.000176414
0.00159897
-0.000170979
0.00164112
-0.000165916
0.00168272
-0.000161205
0.00172378
-0.000157019
0.00176437
-0.000153328
0.00180444
-0.000150171
0.00184422
-0.000148109
0.00188334
-0.000145693
0.00192256
-0.000146769
-0.000144895
-0.000686828
-0.000699209
8.82708e-05
-0.000708675
7.07878e-05
-0.000715367
5.43344e-05
-0.000719374
3.86275e-05
-0.00072073
2.33903e-05
-0.000719423
8.58155e-06
-0.000715907
-5.14553e-06
-0.000710028
-1.77183e-05
-0.000701873
-3.00011e-05
-0.000691496
-4.1936e-05
-0.000678931
-5.35051e-05
-0.000664211
-6.47169e-05
-0.000647359
-7.55724e-05
-0.000628363
-8.61329e-05
-0.000607287
-9.62293e-05
-0.00058415
-0.000106005
-0.000558966
-0.000115473
-0.000531756
-0.00012465
-0.000502543
-0.00013356
-0.000471355
-0.000142228
-0.000438223
-0.000150684
-0.000403185
-0.000158959
-0.000366284
-0.000167085
-0.000327567
-0.000175095
-0.000287061
-0.000183074
-0.000244851
-0.000190889
-0.000201017
-0.000198626
-0.000155631
-0.000206333
-0.000108775
-0.000214006
-6.05301e-05
-0.000221645
-1.09597e-05
-0.000229266
3.96258e-05
-0.000236687
9.12914e-05
-0.000244062
0.000143914
-0.000251298
0.000197359
-0.000258345
0.00025149
-0.000265162
0.00030621
-0.000271642
0.000361368
-0.00027779
0.000416841
-0.000283526
0.000472508
-0.000288791
0.000528257
-0.000293512
0.00058397
-0.000297657
0.00063954
-0.000301166
0.000694867
-0.000303998
0.00074986
-0.000306119
0.000804434
-0.000307502
0.000858514
-0.000308131
0.000912034
-0.000307999
0.000964936
-0.000307108
0.00101717
-0.000305471
0.00106871
-0.00030311
0.00111951
-0.000300058
0.00116955
-0.000296353
0.00121882
-0.000292045
0.00126731
-0.000287187
0.00131503
-0.000281841
0.00136196
-0.000276072
0.00140813
-0.000269949
0.00145354
-0.000263545
0.00149821
-0.000256935
0.00154216
-0.000250193
0.00158541
-0.000243396
0.00162799
-0.000236615
0.00166992
-0.000229932
0.00171122
-0.000223404
0.00175193
-0.000217124
0.00179208
-0.000211123
0.00183168
-0.000205521
0.00187079
-0.000200312
0.0019094
-0.000195631
0.00194762
-0.000191544
0.00198533
-0.000187887
0.00202284
-0.000185615
0.00205973
-0.000182585
0.00209664
-0.000183673
-0.000181155
-0.000428933
9.70593e-05
-0.000435133
7.69877e-05
-0.00043882
5.80222e-05
-0.000440027
3.98339e-05
-0.000438726
2.20893e-05
-0.000434942
4.79765e-06
-0.000429149
-1.09383e-05
-0.000421045
-2.58221e-05
-0.000410746
-4.03007e-05
-0.000398303
-5.4379e-05
-0.000383754
-6.80542e-05
-0.000367132
-8.13387e-05
-0.000348457
-9.42476e-05
-0.000327711
-0.000106879
-0.000304963
-0.000118977
-0.000280237
-0.00013073
-0.000253554
-0.000142156
-0.000224935
-0.000153269
-0.000194408
-0.000164087
-0.000162004
-0.000174632
-0.000127757
-0.00018493
-9.17069e-05
-0.000195009
-5.38914e-05
-0.0002049
-1.43333e-05
-0.000214653
2.67386e-05
-0.000224146
6.93603e-05
-0.000233511
0.000113504
-0.00024277
0.000159072
-0.000251901
0.000205969
-0.000260903
0.000254091
-0.000269766
0.000303322
-0.000278497
0.000353599
-0.000286964
0.000404775
-0.000295238
0.000456729
-0.000303252
0.000509339
-0.000310955
0.000562479
-0.000318302
0.00061604
-0.000325203
0.000669887
-0.000331638
0.000723898
-0.000337537
0.000777952
-0.000342845
0.000831941
-0.000347501
0.000885751
-0.000351467
0.00093928
-0.000354695
0.000992434
-0.000357152
0.00104513
-0.000358812
0.00109728
-0.000359657
0.00114883
-0.000359679
0.00119971
-0.000358881
0.00124988
-0.000357276
0.00129929
-0.000354886
0.00134793
-0.000351742
0.00139575
-0.000347885
0.00144277
-0.000343364
0.00148895
-0.000338233
0.00153432
-0.000332554
0.00157887
-0.000326395
0.00162263
-0.000319825
0.0016656
-0.00031292
0.00170781
-0.000305756
0.00174928
-0.000298409
0.00179005
-0.000290959
0.00183014
-0.000283482
0.00186957
-0.000276053
0.00190839
-0.000268751
0.00194663
-0.000261639
0.0019843
-0.000254804
0.00202147
-0.000248287
0.00205813
-0.000242188
0.00209437
-0.000236544
0.00213014
-0.000231405
0.00216559
-0.000226997
0.00220057
-0.000222867
0.00223541
-0.000220451
0.0022697
-0.000216875
0.00230392
-0.000217889
-0.000214985
-0.000110514
0.000102633
-0.000113829
8.03029e-05
-0.000114882
5.90749e-05
-0.00011365
3.86013e-05
-0.000110082
1.8522e-05
-0.000104054
-1.23052e-06
-9.62937e-05
-1.86987e-05
-8.62696e-05
-3.58461e-05
-7.41014e-05
-5.24689e-05
-5.98497e-05
-6.86307e-05
-4.35485e-05
-8.43554e-05
-2.52222e-05
-9.9665e-05
-4.84814e-06
-0.000114622
1.72789e-05
-0.000129006
4.13578e-05
-0.000143056
6.73688e-05
-0.000156741
9.52713e-05
-0.000170059
0.000125027
-0.000183025
0.000156599
-0.000195658
0.000189946
-0.000207978
0.000225024
-0.000220008
0.000261783
-0.000231768
0.000300164
-0.000243282
0.0003401
-0.000254589
0.000381562
-0.000265608
0.000424465
-0.000276413
0.000468714
-0.000287019
0.000514224
-0.000297412
0.000560904
-0.000307583
0.000608651
-0.000317513
0.000657352
-0.000327198
0.000706924
-0.000336536
0.000757235
-0.00034555
0.000808165
-0.000354182
0.000859591
-0.000362381
0.000911387
-0.000370099
0.000963442
-0.000377258
0.00101563
-0.000383823
0.00106782
-0.000389733
0.00111991
-0.000394937
0.00117179
-0.00039938
0.00122336
-0.000403028
0.0012745
-0.000405843
0.00132515
-0.000407798
0.00137521
-0.000408876
0.00142463
-0.000409069
0.00147333
-0.00040838
0.00152127
-0.00040682
0.0015684
-0.000404412
0.0016147
-0.000401189
0.00166015
-0.00039719
0.00170473
-0.000392466
0.00174844
-0.000387074
0.00179129
-0.000381075
0.00183327
-0.000374539
0.00187442
-0.000367539
0.00191474
-0.00036015
0.00195427
-0.000352452
0.00199304
-0.000344524
0.00203108
-0.000336446
0.00206842
-0.000328298
0.00210509
-0.00032016
0.00214115
-0.000312107
0.00217661
-0.000304217
0.00221153
-0.000296557
0.00224593
-0.000289205
0.00227987
-0.000282221
0.00231335
-0.000275666
0.00234645
-0.000269647
0.00237913
-0.000264087
0.00241156
-0.00025943
0.00244356
-0.000254861
0.00247545
-0.000252347
0.0025069
-0.000248319
0.00253819
-0.000249179
-0.000246107
0.000254688
0.000106043
0.000253233
8.1758e-05
0.000253865
5.84432e-05
0.000256675
3.57915e-05
0.00026189
1.33067e-05
0.000268788
-8.12803e-06
0.000278012
-2.79227e-05
0.000289317
-4.71517e-05
0.000302693
-6.58449e-05
0.000318097
-8.40345e-05
0.000335491
-0.00010175
0.00035484
-0.000119013
0.000376102
-0.000135884
0.000399304
-0.000152208
0.000424384
-0.000168136
0.000451297
-0.000183654
0.00048001
-0.000198772
0.000510486
-0.000213501
0.000542685
-0.000227857
0.00057656
-0.000241853
0.000612061
-0.000255508
0.000649132
-0.000268839
0.000687709
-0.000281859
0.000727718
-0.000294599
0.000769113
-0.000307002
0.000811807
-0.000319108
0.00085571
-0.000330922
0.000900729
-0.000342431
0.000946766
-0.00035362
0.000993717
-0.000364465
0.00104147
-0.000374948
0.00108992
-0.000384992
0.00113896
-0.000394586
0.00118846
-0.000403679
0.00123829
-0.000412217
0.00128835
-0.000420152
0.0013385
-0.000427414
0.00138864
-0.00043396
0.00143864
-0.000439738
0.00148841
-0.000444698
0.00153782
-0.000448796
0.00158679
-0.000451999
0.00163523
-0.00045428
0.00168305
-0.00045562
0.00173019
-0.000456012
0.00177657
-0.000455456
0.00182216
-0.000453965
0.0018669
-0.000451562
0.00191077
-0.000448279
0.00195374
-0.000444157
0.0019958
-0.000439248
0.00203694
-0.000433609
0.00207717
-0.000427305
0.0021165
-0.000420406
0.00215495
-0.000412988
0.00219254
-0.000405129
0.0022293
-0.000396912
0.00226526
-0.000388416
0.00230047
-0.000379728
0.00233495
-0.000370927
0.00236875
-0.000362099
0.00240191
-0.000353319
0.00243447
-0.00034467
0.00246647
-0.00033622
0.00249797
-0.000328051
0.00252898
-0.000320216
0.00255957
-0.000312814
0.00258975
-0.000305839
0.00261961
-0.000299505
0.00264908
-0.000293557
0.00267836
-0.000288713
0.00270725
-0.000283751
0.00273607
-0.000281166
0.00276455
-0.000276795
0.0027928
-0.000277435
-0.000274365
0.000666547
0.000109387
0.000665089
8.32167e-05
0.000665701
5.78308e-05
0.000668487
3.3005e-05
0.00067368
8.11415e-06
0.00068076
-1.52078e-05
0.000690036
-3.71989e-05
0.000701487
-5.86028e-05
0.000715041
-7.93985e-05
0.000730639
-9.9633e-05
0.000748237
-0.000119348
0.000767791
-0.000138568
0.000789252
-0.000157345
0.000812627
-0.000175582
0.00083785
-0.00019336
0.000864876
-0.00021068
0.000893658
-0.000227554
0.00092415
-0.000243993
0.000956299
-0.000260006
0.00099005
-0.000275605
0.00102534
-0.000290802
0.00106211
-0.00030561
0.00110029
-0.000320035
0.00113979
-0.000334098
0.00118055
-0.000347762
0.00122248
-0.000361041
0.00126549
-0.000373933
0.00130949
-0.000386422
0.00135435
-0.000398489
0.00139999
-0.000410104
0.00144629
-0.000421242
0.00149313
-0.000431838
0.00154041
-0.000441865
0.00158801
-0.000451271
0.00163579
-0.000460004
0.00168365
-0.000468014
0.00173148
-0.000475239
0.00177915
-0.000481635
0.00182657
-0.000487151
0.00187362
-0.000491747
0.00192021
-0.000495385
0.00196625
-0.000498037
0.00201165
-0.000499686
0.00205635
-0.00050032
0.00210028
-0.000499942
0.00214339
-0.000498563
0.00218563
-0.000496205
0.00222697
-0.000492901
0.00226738
-0.000488693
0.00230685
-0.000483631
0.00234538
-0.000477776
0.00238297
-0.000471194
0.00241962
-0.000463958
0.00245536
-0.000456145
0.00249021
-0.000447837
0.00252419
-0.000439117
0.00255736
-0.000430073
0.00258973
-0.000420789
0.00262136
-0.000411354
0.00265228
-0.000401848
0.00268254
-0.000392362
0.00271219
-0.000382966
0.00274127
-0.000373753
0.00276983
-0.000364775
0.00279791
-0.000356137
0.00282555
-0.000347854
0.00285282
-0.000340081
0.0028797
-0.000332723
0.00290632
-0.000326127
0.0029326
-0.00031983
0.00295873
-0.000314847
0.00298453
-0.000309549
0.00301026
-0.000306898
0.00303577
-0.000302303
0.00306101
-0.000302676
-0.000299723
0.0011248
0.000115886
0.00112056
8.74569e-05
0.00111869
5.97048e-05
0.00111924
3.24489e-05
0.00112239
4.96229e-06
0.00112767
-2.0489e-05
0.00113541
-4.49333e-05
0.00114548
-6.86713e-05
0.00115778
-9.16974e-05
0.00117223
-0.000114087
0.00118878
-0.000135892
0.00120735
-0.000157144
0.00122789
-0.000177888
0.00125038
-0.000198069
0.00127475
-0.000217724
0.00130092
-0.000236859
0.00132886
-0.000255489
0.00135849
-0.000273621
0.00138974
-0.000291262
0.00142256
-0.000308421
0.00145686
-0.000325105
0.00149258
-0.000341324
0.00152962
-0.000357079
0.0015679
-0.00037238
0.00160734
-0.000387204
0.00164785
-0.000401548
0.00168932
-0.000415405
0.00173166
-0.000428756
0.00177475
-0.000441577
0.00181848
-0.000453836
0.00186274
-0.000465502
0.00190742
-0.000476518
0.0019524
-0.000486846
0.00199757
-0.000496438
0.0020428
-0.00050524
0.00208799
-0.000513205
0.00213303
-0.000520276
0.0021778
-0.000526409
0.00222222
-0.000531562
0.00226617
-0.000535698
0.00230957
-0.000538787
0.00235234
-0.000540808
0.00239441
-0.000541753
0.00243571
-0.000541619
0.00247618
-0.000540418
0.00251579
-0.000538171
0.00255449
-0.000534909
0.00259227
-0.000530675
0.00262909
-0.00052552
0.00266497
-0.000519504
0.00269989
-0.000512696
0.00273386
-0.000505169
0.00276691
-0.000497005
0.00279905
-0.000488285
0.00283031
-0.000479101
0.00286073
-0.000469537
0.00289035
-0.000459689
0.0029192
-0.00044964
0.00294733
-0.000439486
0.00297479
-0.000429305
0.00300162
-0.000419194
0.00302787
-0.000409216
0.00305359
-0.000399475
0.00307882
-0.000390006
0.00310363
-0.000380941
0.00312802
-0.000372248
0.00315209
-0.000364151
0.00317581
-0.000356446
0.00319932
-0.000349637
0.00322253
-0.000343033
0.00324562
-0.000337945
0.00326845
-0.00033238
0.00329121
-0.000329657
0.00331386
-0.000324949
0.00333621
-0.000325032
-0.000322268
0.00162791
0.00161724
9.81281e-05
0.00160969
6.72578e-05
0.00160515
3.69841e-05
0.00160357
6.53952e-06
0.00160492
-2.18365e-05
0.00160899
-4.90017e-05
0.00161575
-7.54313e-05
0.00162503
-0.000100979
0.00163671
-0.000125765
0.00165068
-0.000149862
0.00166686
-0.000173319
0.00168515
-0.000196181
0.0017055
-0.000218418
0.00172782
-0.000240043
0.00175203
-0.000261069
0.00177805
-0.000281509
0.00180579
-0.000301369
0.00183519
-0.000320655
0.00186614
-0.000339373
0.00189856
-0.000357528
0.00193236
-0.000375125
0.00196745
-0.000392165
0.00200372
-0.00040865
0.00204108
-0.000424561
0.00207942
-0.000439891
0.00211864
-0.000454625
0.00215863
-0.000468744
0.00219927
-0.00048222
0.00224045
-0.00049502
0.00228206
-0.00050711
0.00232398
-0.000518438
0.0023661
-0.000528963
0.0024083
-0.000538637
0.00245047
-0.00054741
0.0024925
-0.000555235
0.00253428
-0.000562063
0.00257573
-0.000567853
0.00261673
-0.000572568
0.00265721
-0.000576178
0.00269709
-0.000578661
0.00273629
-0.000580005
0.00277474
-0.000580207
0.0028124
-0.000579276
0.00284921
-0.000577232
0.00288514
-0.000574105
0.00292017
-0.000569936
0.00295427
-0.000564775
0.00298743
-0.000558684
0.00301966
-0.000551731
0.00305096
-0.000543991
0.00308133
-0.000535547
0.00311082
-0.000526485
0.00313942
-0.000516895
0.00316719
-0.000506871
0.00319416
-0.000496503
0.00322036
-0.000485892
0.00324584
-0.00047512
0.00327065
-0.000464292
0.00329482
-0.000453478
0.00331842
-0.000442788
0.00334147
-0.000432271
0.00336405
-0.00042205
0.00338617
-0.000412132
0.00340792
-0.000402686
0.0034293
-0.000393624
0.00345039
-0.00038525
0.00347119
-0.00037724
0.00349181
-0.000370258
0.00351217
-0.000363397
0.00353246
-0.000358226
0.00355254
-0.000352467
0.00357255
-0.000349659
0.00359253
-0.000344937
0.00361223
-0.000344727
-0.000342191
0.00214964
0.00011933
0.00213284
8.40609e-05
0.00212007
4.97544e-05
0.00211097
1.56429e-05
0.00210569
-1.65645e-05
0.00210375
-4.70575e-05
0.00210509
-7.67693e-05
0.00210941
-0.000105306
0.00211653
-0.000132885
0.00212628
-0.000159608
0.00213852
-0.000185559
0.00215313
-0.000210789
0.00217
-0.000235289
0.00218902
-0.000259062
0.00221007
-0.000282123
0.00223305
-0.000304489
0.00225785
-0.000326169
0.00228436
-0.000347167
0.00231248
-0.000367489
0.00234209
-0.000387141
0.00237309
-0.000406125
0.00240537
-0.00042444
0.0024388
-0.000442086
0.00247329
-0.000459048
0.00250871
-0.000475313
0.00254496
-0.000490867
0.0025819
-0.000505688
0.00261943
-0.000519749
0.00265742
-0.000533016
0.00269577
-0.000545454
0.00273435
-0.000557017
0.00277304
-0.000567662
0.00281175
-0.000577345
0.00285036
-0.00058602
0.00288877
-0.000593643
0.00292688
-0.000600172
0.0029646
-0.000605571
0.00300184
-0.000609809
0.00303852
-0.000612863
0.00307458
-0.000614719
0.00310995
-0.000615372
0.00314457
-0.00061483
0.0031784
-0.000613109
0.00321141
-0.000610238
0.00324356
-0.000606254
0.00327483
-0.000601209
0.00330522
-0.000595161
0.00333471
-0.000588178
0.00336332
-0.000580336
0.00339105
-0.00057172
0.00341791
-0.000562414
0.00344394
-0.000552515
0.00346916
-0.000542114
0.00349361
-0.000531314
0.00351731
-0.000520204
0.00354031
-0.000508891
0.00356265
-0.000497459
0.00358437
-0.000486016
0.00360552
-0.00047463
0.00362615
-0.000463418
0.0036463
-0.000452417
0.00366602
-0.00044177
0.00368534
-0.000431453
0.00370433
-0.000421679
0.003723
-0.000412295
0.00374144
-0.00040369
0.00375962
-0.000395421
0.00377767
-0.000388302
0.00379551
-0.000381238
0.00381328
-0.000375997
0.00383093
-0.000370119
0.00384848
-0.000367212
0.0038661
-0.000362559
0.00388345
-0.000362069
-0.000359776
0.00270686
0.000154737
0.00267751
0.000113407
0.00265348
7.37833e-05
0.002634
3.51275e-05
0.00262025
-2.81623e-06
0.00260999
-3.67974e-05
0.0026038
-7.05803e-05
0.00260128
-0.000102785
0.00260213
-0.000133733
0.00260608
-0.000163556
0.00261292
-0.000192404
0.00262249
-0.000220355
0.00263461
-0.000247415
0.00264914
-0.00027359
0.00266592
-0.000298901
0.0026848
-0.000323372
0.00270565
-0.000347019
0.00272833
-0.000369846
0.00275271
-0.000391863
0.00277864
-0.000413076
0.00280601
-0.000433491
0.00283467
-0.000453106
0.00286451
-0.000471922
0.00289539
-0.000489928
0.00292719
-0.000507111
0.00295978
-0.000523457
0.00299303
-0.000538944
0.00302683
-0.000553549
0.00306106
-0.000567238
0.00309558
-0.000579978
0.00313029
-0.00059173
0.00316508
-0.000602453
0.00319985
-0.000612106
0.00323447
-0.000620648
0.00326887
-0.000628043
0.00330295
-0.000634252
0.00333663
-0.000639248
0.00336983
-0.000643005
0.00340247
-0.00064551
0.00343451
-0.000646756
0.00346588
-0.000646745
0.00349655
-0.000645494
0.00352646
-0.000643026
0.00355561
-0.00063938
0.00358395
-0.0006346
0.00361149
-0.000628745
0.00363821
-0.000621881
0.00366411
-0.000614083
0.00368921
-0.000605434
0.00371352
-0.000596023
0.00373704
-0.000585942
0.00375982
-0.000575291
0.00378187
-0.000564167
0.00380323
-0.000552674
0.00382393
-0.000540906
0.00384402
-0.000528974
0.00386352
-0.000516959
0.00388248
-0.000504978
0.00390094
-0.000493091
0.00391895
-0.000481428
0.00393654
-0.000470008
0.00395377
-0.000458999
0.00397066
-0.000448342
0.00398728
-0.000438294
0.00400362
-0.000428641
0.00401978
-0.00041985
0.00403573
-0.000411374
0.00405158
-0.000404148
0.00406728
-0.000396939
0.00408292
-0.000391637
0.00409851
-0.00038571
0.004114
-0.000382695
0.00412961
-0.000378172
0.00414497
-0.000377428
-0.00037538
0.00327079
0.000206435
0.00322688
0.000157311
0.0031899
0.000110764
0.003159
6.60297e-05
0.0031333
2.2881e-05
0.00311392
-1.74152e-05
0.00309881
-5.54717e-05
0.0030881
-9.20729e-05
0.00308141
-0.000127047
0.00307837
-0.000160516
0.00307871
-0.000192741
0.00308219
-0.000223831
0.00308858
-0.000253813
0.00309769
-0.0002827
0.00310932
-0.000310523
0.00312326
-0.000337322
0.00313936
-0.000363119
0.00315744
-0.000387926
0.00317734
-0.000411758
0.00319889
-0.000434627
0.00322194
-0.000456543
0.00324635
-0.00047751
0.00327196
-0.00049753
0.00329863
-0.000516599
0.00332622
-0.000534707
0.00335461
-0.000551842
0.00338365
-0.000567987
0.00341322
-0.000583122
0.00344321
-0.000597219
0.00347348
-0.000610248
0.00350392
-0.000622175
0.00353443
-0.000632965
0.00356491
-0.000642583
0.00359526
-0.000650995
0.00362538
-0.000658168
0.00365521
-0.000664075
0.00368465
-0.000668693
0.00371365
-0.000672005
0.00374215
-0.000674005
0.00377008
-0.000674693
0.00379742
-0.000674081
0.00382412
-0.000672192
0.00385015
-0.000669058
0.00387549
-0.000664722
0.00390013
-0.000659239
0.00392406
-0.000652673
0.00394727
-0.000645095
0.00396978
-0.000636589
0.00399158
-0.00062724
0.00401271
-0.000617144
0.00403316
-0.000606397
0.00405297
-0.000595103
0.00407217
-0.000583361
0.00409077
-0.000571281
0.00410882
-0.000558956
0.00412635
-0.000546502
0.00414339
-0.000533998
0.00415998
-0.000521568
0.00417615
-0.000509264
0.00419195
-0.000497228
0.00420741
-0.000485464
0.00422257
-0.00047416
0.00423746
-0.000463228
0.00425213
-0.000452964
0.00426658
-0.000443099
0.0042809
-0.000434166
0.00429506
-0.000425538
0.00430915
-0.000418232
0.00432314
-0.000410937
0.00433709
-0.000405578
0.00435104
-0.000399665
0.00436489
-0.00039654
0.00437891
-0.00039219
0.0043927
-0.000391225
-0.000389413
0.00381624
0.00375798
0.000215576
0.00370789
0.00016085
0.0036649
0.000109021
0.00362823
5.95506e-05
0.00359873
1.20822e-05
0.00357431
-3.10449e-05
0.00355479
-7.25528e-05
0.00354002
-0.000112282
0.00352949
-0.000149984
0.00352282
-0.000186076
0.00351972
-0.000220725
0.0035199
-0.000253995
0.00352311
-0.000285907
0.0035291
-0.00031651
0.00353764
-0.000345863
0.00354852
-0.000374001
0.00356154
-0.000400945
0.0035765
-0.00042672
0.00359322
-0.000451347
0.00361152
-0.000474845
0.00363124
-0.000497226
0.0036522
-0.000518498
0.00367427
-0.000538663
0.00369728
-0.00055772
0.0037211
-0.000575663
0.00374559
-0.00059248
0.00377063
-0.000608156
0.00379608
-0.000622672
0.00382184
-0.000636003
0.00384778
-0.000648123
0.00387382
-0.000659002
0.00389985
-0.000668613
0.00392578
-0.000676929
0.00395154
-0.000683926
0.00397705
-0.000689582
0.00400224
-0.000693883
0.00402705
-0.000696821
0.00405144
-0.000698394
0.00407536
-0.000698613
0.00409878
-0.000697496
0.00412166
-0.000695072
0.00414398
-0.000691381
0.00416573
-0.000686473
0.0041869
-0.000680407
0.00420748
-0.000673254
0.00422748
-0.000665091
0.00424689
-0.000656005
0.00426574
-0.000646086
0.00428403
-0.000635434
0.00430178
-0.000624148
0.00431901
-0.000612336
0.00433575
-0.000600098
0.00435202
-0.000587548
0.00436784
-0.000574779
0.00438325
-0.000561911
0.00439827
-0.000549022
0.00441294
-0.000536239
0.00442729
-0.000523609
0.00444134
-0.000511284
0.00445513
-0.000499255
0.0044687
-0.000487727
0.00448206
-0.000476588
0.00449526
-0.000466165
0.00450831
-0.000456149
0.00452126
-0.000447116
0.00453411
-0.000438391
0.00454691
-0.000431029
0.00455968
-0.000423703
0.00457239
-0.000418294
0.00458518
-0.000412448
0.00459785
-0.000409215
0.00461073
-0.000405065
0.00462341
-0.000403912
-0.000402326
0.00424402
0.000285358
0.00418305
0.000221822
0.00412998
0.000162085
0.00408388
0.000105656
0.00404374
5.22188e-05
0.00401261
8.41924e-08
0.003985
-4.49387e-05
0.00396256
-8.9846e-05
0.00394485
-0.000132269
0.00393145
-0.000172676
0.00392197
-0.000211245
0.00391608
-0.000248104
0.00391347
-0.000283298
0.00391385
-0.000316897
0.00391698
-0.000348986
0.00392259
-0.000379616
0.00393047
-0.000408823
0.0039404
-0.000436644
0.00395216
-0.000463115
0.00396558
-0.000488263
0.00398047
-0.000512113
0.00399665
-0.000534682
0.00401397
-0.000555983
0.00403227
-0.000576022
0.00405141
-0.000594802
0.00407125
-0.00061232
0.00409167
-0.00062857
0.00411253
-0.000643538
0.00413374
-0.000657209
0.00415518
-0.000669565
0.00417677
-0.000680585
0.0041984
-0.000690248
0.00422001
-0.000698534
0.00424151
-0.000705429
0.00426285
-0.000710919
0.00428396
-0.000714996
0.0043048
-0.000717659
0.00432532
-0.000718916
0.00434549
-0.000718781
0.00436527
-0.000717282
0.00438465
-0.000714452
0.00440361
-0.000710339
0.00442213
-0.000704996
0.00444022
-0.000698489
0.00445785
-0.000690892
0.00447505
-0.000682288
0.00449181
-0.000672765
0.00450814
-0.000662419
0.00452406
-0.000651351
0.00453958
-0.000639664
0.00455471
-0.000627467
0.00456947
-0.000614862
0.00458389
-0.000601967
0.00459799
-0.000588873
0.00461178
-0.000575703
0.00462529
-0.000562533
0.00463855
-0.000549497
0.00465157
-0.000536634
0.00466439
-0.000524106
0.00467703
-0.000511891
0.00468951
-0.000500211
0.00470186
-0.000488933
0.0047141
-0.000478406
0.00472625
-0.000468298
0.00473834
-0.000459203
0.00475038
-0.000450436
0.00476239
-0.000443038
0.00477442
-0.000435731
0.0047864
-0.000430279
0.00479849
-0.000424541
0.00481049
-0.000421207
0.00482269
-0.000417271
0.00483474
-0.00041596
-0.000414583
0.00465932
0.000361414
0.00459188
0.000289266
0.00453232
0.00022164
0.00448002
0.000157952
0.00443463