/*--------------------------------*- C++ -*----------------------------------*\
  =========                 |
  \\      /  F ield         | OpenFOAM: The Open Source CFD Toolbox
   \\    /   O peration     | Website:  https://openfoam.org
    \\  /    A nd           | Version:  7
     \\/     M anipulation  |
\*---------------------------------------------------------------------------*/
FoamFile
{
    version     2.0;
    format      ascii;
    class       volVectorField;
    location    "54.999";
    object      U;
}
// * * * * * * * * * * * * * * * * * * * * * * * * * * * * * * * * * * * * * //

dimensions      [0 1 -1 0 0 0 0];

internalField   nonuniform List<vector> 
3700
(
(-0.208951 0.0012221 2.0835e-22)
(-0.213198 0.000977584 -2.67236e-21)
(-0.216886 0.000741924 2.91079e-21)
(-0.219955 0.000513562 -3.6025e-21)
(-0.22248 0.00029137 1.91661e-21)
(-0.224475 7.61467e-05 -7.05834e-22)
(-0.225958 -0.000130929 3.05314e-21)
(-0.226951 -0.00033433 -1.70986e-21)
(-0.227495 -0.000497625 1.55681e-21)
(-0.227608 -0.000647698 -7.23204e-22)
(-0.227297 -0.000784951 -1.19273e-21)
(-0.226569 -0.000901904 -6.24329e-22)
(-0.22543 -0.0010021 6.16479e-22)
(-0.223884 -0.00107719 -5.16484e-22)
(-0.221931 -0.00112649 7.35067e-22)
(-0.219573 -0.00115105 -2.62338e-22)
(-0.216814 -0.00115087 -9.13536e-22)
(-0.213654 -0.00112818 1.96602e-21)
(-0.210093 -0.00108513 -2.30124e-21)
(-0.206133 -0.0010247 -4.13354e-22)
(-0.201775 -0.000950912 2.08018e-21)
(-0.197021 -0.000868201 -3.15341e-22)
(-0.191874 -0.000781515 -3.30702e-22)
(-0.186337 -0.000696104 3.85167e-22)
(-0.180414 -0.000617284 -1.59241e-21)
(-0.174111 -0.000550408 1.20598e-21)
(-0.167436 -0.000500356 8.38083e-23)
(-0.160399 -0.000472393 -3.4749e-22)
(-0.153009 -0.000470999 -1.46789e-21)
(-0.145277 -0.000499904 1.23001e-21)
(-0.137215 -0.00056201 6.58811e-22)
(-0.128837 -0.000659161 -1.17486e-21)
(-0.120157 -0.000792735 -3.09606e-23)
(-0.111192 -0.000959983 -3.84887e-22)
(-0.101961 -0.00116165 1.03965e-21)
(-0.0924812 -0.00139506 -6.72341e-22)
(-0.0827727 -0.0016568 1.86244e-22)
(-0.0728535 -0.00194364 -3.52345e-22)
(-0.0627443 -0.00224765 -8.77373e-23)
(-0.0524673 -0.00256497 2.06502e-22)
(-0.0420429 -0.00288946 -9.65534e-23)
(-0.0314901 -0.0032152 4.89026e-23)
(-0.0208304 -0.00353352 -9.34534e-23)
(-0.0100848 -0.00383979 9.49173e-23)
(0.000728086 -0.00412652 -4.0364e-23)
(0.0115887 -0.00438827 -1.16267e-22)
(0.0224791 -0.00461962 9.23286e-24)
(0.0333819 -0.00481581 -3.1136e-22)
(0.0442807 -0.00497288 3.04691e-22)
(0.0551602 -0.00508773 -9.96037e-23)
(0.066006 -0.00515817 -1.66927e-22)
(0.0768051 -0.00518294 1.00178e-22)
(0.0875455 -0.00516172 -9.68626e-23)
(0.0982162 -0.00509513 -1.04448e-23)
(0.108808 -0.00498468 -6.53307e-23)
(0.119311 -0.00483268 2.33571e-23)
(0.129719 -0.00464224 1.72522e-23)
(0.140025 -0.00441711 -3.30737e-23)
(0.150223 -0.00416166 8.70455e-24)
(0.160309 -0.00388072 2.61676e-24)
(0.17028 -0.00357949 -7.59562e-24)
(0.180133 -0.00326346 -1.79899e-23)
(0.189866 -0.00293833 1.02622e-23)
(0.199478 -0.00260977 1.66698e-23)
(0.208969 -0.00228334 -2.21206e-24)
(0.218339 -0.0019648 -2.7081e-23)
(0.227593 -0.00165995 -4.31492e-24)
(0.236725 -0.00137346 2.59625e-24)
(0.245756 -0.0011116 -1.63159e-24)
(0.254649 -0.000877366 2.74184e-24)
(0.263503 -0.000679071 2.7906e-24)
(0.272111 -0.000516224 -3.59219e-24)
(0.280963 -0.000402915 -2.12796e-24)
(0.288974 -0.000332552 -1.66008e-25)
(0.298622 -0.000333703 -7.55677e-26)
(0.304419 -0.000378158 -1.6739e-25)
(0.318641 -0.000596056 7.45428e-25)
(-0.199925 0.00371522 -1.5513e-21)
(-0.203942 0.00309772 4.82469e-21)
(-0.207416 0.00252238 -4.41274e-21)
(-0.210285 0.00198063 -2.92415e-21)
(-0.21262 0.00146506 -1.7402e-21)
(-0.214435 0.000970946 2.80635e-21)
(-0.215755 0.000498732 -3.92049e-21)
(-0.216581 4.42832e-05 1.12268e-20)
(-0.216958 -0.000370432 -5.00777e-21)
(-0.216919 -0.00076296 -8.64519e-22)
(-0.216461 -0.00113476 1.77344e-21)
(-0.21559 -0.00148295 -2.62688e-21)
(-0.214312 -0.00180819 3.09209e-21)
(-0.21263 -0.00210679 -2.06875e-21)
(-0.210544 -0.0023783 -3.27618e-21)
(-0.208058 -0.00262198 -1.20765e-21)
(-0.205175 -0.00283983 4.56514e-21)
(-0.201894 -0.00303369 -1.09632e-21)
(-0.198216 -0.00320577 6.96562e-21)
(-0.194143 -0.00335926 -7.32592e-21)
(-0.189675 -0.00349761 -8.9155e-22)
(-0.184816 -0.00362502 3.88231e-21)
(-0.179566 -0.00374609 -3.75486e-22)
(-0.17393 -0.00386564 1.34613e-21)
(-0.167912 -0.0039884 -3.56071e-21)
(-0.161516 -0.00411932 4.59386e-21)
(-0.154752 -0.00426102 -2.96256e-21)
(-0.147629 -0.00441918 1.6618e-21)
(-0.140157 -0.00459778 -4.90745e-22)
(-0.132348 -0.0047998 1.96283e-21)
(-0.124213 -0.00502748 3.19767e-23)
(-0.115768 -0.00528191 -1.10493e-21)
(-0.107025 -0.00556456 -1.3588e-21)
(-0.0980045 -0.0058697 3.38112e-21)
(-0.0887251 -0.00619937 -1.80025e-21)
(-0.079205 -0.00655029 1.07267e-22)
(-0.0694652 -0.00691854 5.201e-22)
(-0.0595237 -0.00730201 -1.49622e-21)
(-0.0494022 -0.00768973 1.51019e-21)
(-0.0391245 -0.0080795 -7.84232e-22)
(-0.0287115 -0.00846484 -1.68281e-22)
(-0.0181823 -0.00884146 8.0126e-22)
(-0.00755891 -0.00919814 5.05767e-22)
(0.00313676 -0.00953188 -1.39609e-21)
(0.0138864 -0.00983631 1.01594e-21)
(0.0246702 -0.0101058 -9.79511e-22)
(0.0354702 -0.0103356 1.88116e-21)
(0.0462696 -0.0105213 -8.96706e-22)
(0.0570524 -0.0106598 -5.96238e-22)
(0.0678039 -0.0107485 6.2867e-22)
(0.0785108 -0.0107858 -2.2188e-22)
(0.0891607 -0.0107713 9.62423e-23)
(0.0997429 -0.0107053 -5.37498e-24)
(0.110248 -0.0105889 -4.76005e-23)
(0.120667 -0.0104244 4.56505e-22)
(0.130992 -0.0102147 -1.60654e-22)
(0.141219 -0.00996338 1.36953e-22)
(0.151341 -0.00967488 -7.14948e-23)
(0.161355 -0.00935404 -2.15159e-22)
(0.171258 -0.00900617 -9.61473e-23)
(0.181046 -0.00863697 1.90058e-22)
(0.19072 -0.00825233 -4.75484e-23)
(0.200278 -0.00785838 -1.1174e-23)
(0.20972 -0.00746109 7.90182e-23)
(0.219047 -0.00706697 3.77617e-24)
(0.22826 -0.00668139 7.53546e-24)
(0.237364 -0.00631116 1.26263e-23)
(0.246353 -0.00596033 -2.0869e-23)
(0.255251 -0.00563725 3.39408e-23)
(0.264015 -0.00534266 1.46019e-23)
(0.272754 -0.00508915 -3.17046e-23)
(0.281244 -0.00487219 5.96817e-24)
(0.290003 -0.00470934 1.35641e-23)
(0.2979 -0.00460181 -1.71173e-24)
(0.307474 -0.00454221 5.09301e-26)
(0.313168 -0.00461417 3.28023e-25)
(0.327255 -0.00470785 -1.46659e-24)
(-0.181929 0.00601386 8.62485e-21)
(-0.1855 0.00503465 -1.67204e-20)
(-0.188559 0.00413037 1.24135e-20)
(-0.191042 0.00328342 -8.94538e-22)
(-0.193011 0.00248036 -8.99507e-21)
(-0.194477 0.00171032 1.11368e-20)
(-0.195458 0.000978235 3.63394e-22)
(-0.195961 0.00030387 4.55193e-21)
(-0.196034 -0.000364885 -4.14523e-21)
(-0.195697 -0.000998286 -2.31795e-21)
(-0.194949 -0.00160428 1.19017e-20)
(-0.193796 -0.00218175 -1.60473e-20)
(-0.192243 -0.00273157 1.08755e-20)
(-0.190294 -0.00325231 2.20096e-21)
(-0.187947 -0.0037444 -1.64862e-20)
(-0.185209 -0.00420521 1.02055e-20)
(-0.182081 -0.00463905 -9.64869e-22)
(-0.178563 -0.00504752 -2.17081e-21)
(-0.174657 -0.0054329 -5.14925e-22)
(-0.170363 -0.0057981 -6.12612e-21)
(-0.165683 -0.0061464 2.88265e-21)
(-0.160619 -0.00648163 -1.91644e-21)
(-0.155175 -0.00680798 5.41294e-21)
(-0.149354 -0.00712984 -2.18927e-21)
(-0.14316 -0.00745128 4.55003e-21)
(-0.136598 -0.00777701 -4.03386e-21)
(-0.129677 -0.00810689 3.90778e-21)
(-0.122409 -0.00844717 -5.53598e-21)
(-0.114803 -0.00880138 -3.06688e-21)
(-0.106871 -0.00917162 3.88691e-21)
(-0.0986255 -0.00955944 1.54382e-21)
(-0.090084 -0.0099651 -2.61967e-21)
(-0.0812576 -0.0103915 -1.01398e-21)
(-0.0721665 -0.0108277 4.10868e-21)
(-0.0628328 -0.0112781 -2.8085e-21)
(-0.053274 -0.011739 8.35785e-22)
(-0.0435133 -0.0122058 -3.55357e-21)
(-0.0335674 -0.012679 3.22244e-21)
(-0.0234585 -0.0131421 -2.15502e-21)
(-0.0132127 -0.0135959 1.72114e-21)
(-0.00285171 -0.0140345 -9.70351e-22)
(0.00760674 -0.0144505 -3.01875e-22)
(0.0181408 -0.0148383 -4.54641e-22)
(0.0287263 -0.0151915 -1.48366e-21)
(0.0393461 -0.0155054 2.38294e-21)
(0.0499808 -0.0157747 2.16556e-22)
(0.0606129 -0.015995 -8.41144e-22)
(0.0712261 -0.0161629 5.00235e-22)
(0.0818051 -0.0162757 -1.1388e-22)
(0.0923365 -0.0163317 2.15523e-22)
(0.102808 -0.01633 3.40093e-23)
(0.113208 -0.0162708 -2.26905e-23)
(0.123528 -0.0161551 -1.24631e-21)
(0.133759 -0.0159849 3.35156e-22)
(0.143896 -0.0157629 -2.00444e-22)
(0.153931 -0.0154929 3.57662e-22)
(0.16386 -0.0151789 -3.55926e-22)
(0.173681 -0.0148259 1.28766e-23)
(0.183391 -0.0144393 -2.76956e-22)
(0.192988 -0.0140248 4.25365e-22)
(0.202471 -0.0135886 -7.46325e-23)
(0.211841 -0.013137 -1.7769e-23)
(0.221099 -0.0126764 -1.36669e-23)
(0.230244 -0.0122132 3.95519e-23)
(0.239281 -0.0117542 2.71244e-23)
(0.248209 -0.011305 6.73459e-23)
(0.257037 -0.010873 -3.63788e-23)
(0.265754 -0.0104617 -3.57912e-23)
(0.274393 -0.0100813 4.92166e-23)
(0.2829 -0.00973062 -7.72933e-24)
(0.291401 -0.00942544 3.0102e-23)
(0.299643 -0.00915897 -7.34636e-24)
(0.308191 -0.00894862 2.74697e-24)
(0.315837 -0.00880854 9.79967e-25)
(0.325229 -0.00868902 -3.13287e-24)
(0.330699 -0.00878345 2.19047e-24)
(0.344468 -0.00876532 2.47078e-25)
(-0.15503 0.00800266 9.84271e-21)
(-0.157975 0.00668238 -1.5008e-20)
(-0.160448 0.00546766 1.69177e-20)
(-0.162387 0.00433103 -2.03937e-21)
(-0.163842 0.00325391 5.3771e-21)
(-0.164817 0.00222041 5.47182e-21)
(-0.165319 0.00123683 -1.07961e-20)
(-0.165379 0.000326899 5.14996e-21)
(-0.165033 -0.000584353 -1.05588e-20)
(-0.164273 -0.00145018 -5.25153e-22)
(-0.163118 -0.00228277 2.35404e-20)
(-0.161569 -0.00308273 -2.01609e-20)
(-0.159632 -0.00385166 -2.60725e-21)
(-0.157309 -0.00458932 1.29932e-20)
(-0.154599 -0.00529722 -8.86393e-22)
(-0.151507 -0.0059697 -3.38051e-21)
(-0.148038 -0.00661397 1.94306e-21)
(-0.14419 -0.00723144 2.45696e-21)
(-0.139966 -0.00782429 2.00443e-21)
(-0.135366 -0.0083952 -6.974e-22)
(-0.130393 -0.00894717 -8.08837e-21)
(-0.12505 -0.00948366 4.62404e-21)
(-0.119339 -0.0100084 5.35331e-21)
(-0.113266 -0.0105254 4.53338e-21)
(-0.106837 -0.0110381 -1.3717e-20)
(-0.100055 -0.0115518 1.07093e-20)
(-0.0929286 -0.0120624 -5.23652e-21)
(-0.0854723 -0.0125768 3.03435e-21)
(-0.0776958 -0.0130986 -5.89597e-21)
(-0.0696115 -0.0136287 6.8236e-21)
(-0.0612332 -0.0141678 -1.88505e-21)
(-0.0525803 -0.0147155 1.14584e-21)
(-0.0436621 -0.015279 2.40598e-21)
(-0.0344986 -0.0158369 2.10997e-21)
(-0.0251159 -0.0163985 -1.54812e-21)
(-0.0155306 -0.0169599 5.78187e-23)
(-0.00576879 -0.0175171 9.52542e-22)
(0.004155 -0.0180631 -3.43164e-21)
(0.0142198 -0.0185923 -4.76214e-22)
(0.0243949 -0.0191003 2.69377e-21)
(0.0346609 -0.0195813 -1.615e-21)
(0.0449981 -0.0200258 2.88131e-21)
(0.0553853 -0.0204336 1.00715e-21)
(0.0658 -0.0207959 -2.26081e-21)
(0.0762242 -0.0211085 1.64935e-21)
(0.0866394 -0.021367 -3.16137e-22)
(0.0970286 -0.0215678 9.98985e-22)
(0.107377 -0.0217081 -5.18747e-22)
(0.117669 -0.0217861 -2.34221e-22)
(0.127894 -0.0218008 -1.29042e-22)
(0.13804 -0.0217522 2.53611e-22)
(0.148098 -0.0216411 8.677e-22)
(0.158061 -0.0214695 -1.213e-21)
(0.167921 -0.0212399 6.7168e-22)
(0.177674 -0.0209559 2.98462e-22)
(0.187315 -0.0206217 1.76268e-22)
(0.196844 -0.020242 -1.98025e-22)
(0.206257 -0.0198224 6.7241e-22)
(0.215554 -0.0193687 -2.98099e-22)
(0.224736 -0.0188871 -3.62118e-22)
(0.233803 -0.0183842 4.36435e-23)
(0.242758 -0.0178666 4.29007e-22)
(0.251602 -0.0173411 1.19063e-22)
(0.260337 -0.0168141 -2.09738e-22)
(0.268969 -0.0162931 1.25499e-23)
(0.277497 -0.0157833 -2.03939e-23)
(0.285932 -0.0152931 -2.12131e-24)
(0.294262 -0.0148253 4.90525e-23)
(0.302526 -0.0143914 -9.21098e-23)
(0.310658 -0.0139892 5.98019e-23)
(0.318808 -0.0136357 -1.48144e-23)
(0.326681 -0.0133252 -1.13336e-23)
(0.334912 -0.0130688 -5.68862e-24)
(0.342183 -0.0129021 -8.23796e-24)
(0.351285 -0.0127237 4.36445e-24)
(0.356427 -0.0128334 -1.33959e-24)
(0.369704 -0.0127236 -1.94764e-24)
(-0.119265 0.00958833 1.5973e-21)
(-0.121455 0.00795784 -1.32682e-20)
(-0.123219 0.00645706 2.40363e-20)
(-0.124504 0.00505107 -2.45808e-20)
(-0.125341 0.00371654 2.44777e-20)
(-0.125729 0.00243348 -9.45601e-21)
(-0.125659 0.00120825 -3.03575e-21)
(-0.125186 5.57399e-05 -2.77189e-20)
(-0.124334 -0.0010808 4.27967e-20)
(-0.123076 -0.00217001 -4.14598e-20)
(-0.121435 -0.00322161 3.04821e-20)
(-0.119415 -0.00423694 -6.02404e-21)
(-0.11702 -0.00521813 6.19921e-23)
(-0.114254 -0.00616556 -4.61842e-21)
(-0.111112 -0.00708317 -1.307e-21)
(-0.107602 -0.00796019 9.94219e-21)
(-0.103729 -0.00880773 -4.8893e-21)
(-0.0994912 -0.00962693 -2.9572e-21)
(-0.094892 -0.0104197 -4.48982e-21)
(-0.0899331 -0.0111885 -6.98179e-21)
(-0.0846172 -0.0119359 1.14803e-20)
(-0.0789478 -0.012665 -1.35475e-20)
(-0.0729293 -0.0133791 8.77761e-21)
(-0.0665668 -0.0140812 2.5344e-21)
(-0.0598695 -0.0147748 -8.52507e-21)
(-0.0528387 -0.015469 7.7957e-21)
(-0.0454837 -0.0161505 -5.59106e-21)
(-0.0378212 -0.0168279 4.97719e-21)
(-0.0298617 -0.0175062 -4.10883e-21)
(-0.021618 -0.0181852 -5.73861e-21)
(-0.0131046 -0.018865 -6.69166e-21)
(-0.004346 -0.0195462 1.10463e-20)
(0.00465243 -0.0202228 9.76161e-22)
(0.0138742 -0.0208918 1.13484e-21)
(0.0232845 -0.0215534 -6.69345e-21)
(0.0328686 -0.0222033 2.25446e-22)
(0.0426027 -0.0228377 4.15594e-21)
(0.0524673 -0.0234433 -6.22059e-21)
(0.062442 -0.0240253 3.77917e-21)
(0.0724995 -0.0245739 -2.47115e-21)
(0.0826189 -0.0250832 -2.11573e-21)
(0.0927793 -0.0255459 -1.88132e-21)
(0.10296 -0.0259595 4.53434e-21)
(0.113141 -0.0263176 -1.25751e-21)
(0.123303 -0.0266163 -1.55217e-21)
(0.133428 -0.0268518 9.95924e-22)
(0.143502 -0.0270214 -3.54994e-23)
(0.153509 -0.0271231 -1.46953e-21)
(0.163438 -0.0271558 2.22226e-21)
(0.173276 -0.0271195 -2.39912e-21)
(0.183015 -0.0270149 -2.95371e-22)
(0.192648 -0.0268438 1.46246e-21)
(0.202167 -0.0266089 -1.7491e-21)
(0.211569 -0.0263135 9.46586e-22)
(0.22085 -0.0259618 6.99264e-22)
(0.230009 -0.0255587 -1.298e-21)
(0.239045 -0.0251096 2.45916e-22)
(0.247958 -0.0246205 -3.4584e-22)
(0.25675 -0.0240978 -2.40121e-22)
(0.265422 -0.023548 3.49152e-22)
(0.273978 -0.0229781 -2.29274e-22)
(0.282421 -0.0223949 -1.6239e-22)
(0.290754 -0.0218056 1.7539e-22)
(0.298982 -0.0212167 9.17218e-23)
(0.30711 -0.020636 -1.21963e-22)
(0.315137 -0.0200686 -1.46327e-22)
(0.323081 -0.0195235 -4.50169e-23)
(0.330923 -0.0190031 4.14233e-23)
(0.338713 -0.0185194 3.56942e-23)
(0.346368 -0.0180703 -6.28151e-23)
(0.354069 -0.0176716 -1.70715e-23)
(0.361467 -0.0173231 2.50882e-23)
(0.369286 -0.0170219 -1.86927e-23)
(0.376076 -0.0168348 -5.25822e-24)
(0.384788 -0.0165998 -6.3335e-24)
(0.389519 -0.0167162 -1.33358e-24)
(0.402145 -0.0165387 3.38055e-24)
(-0.0759369 0.00881233 2.82328e-20)
(-0.0769409 0.00705521 -3.41474e-20)
(-0.0775256 0.00540456 4.38364e-21)
(-0.0777047 0.00383261 1.51845e-20)
(-0.0774661 0.00231381 -1.54442e-20)
(-0.0767915 0.0008581 -2.42454e-20)
(-0.075756 -0.000529582 1.69083e-20)
(-0.0743625 -0.00188223 2.14878e-20)
(-0.0725749 -0.00318543 -4.90504e-21)
(-0.0704204 -0.00444686 2.10941e-20)
(-0.0679014 -0.00566852 -2.9657e-20)
(-0.0650216 -0.00685277 -1.07033e-20)
(-0.0617877 -0.00800075 2.81941e-20)
(-0.0581923 -0.00912557 -7.59855e-21)
(-0.0542406 -0.010199 7.21512e-21)
(-0.0499427 -0.0112406 -2.97711e-20)
(-0.0452971 -0.0122524 3.00552e-20)
(-0.0403064 -0.0132359 -2.20063e-20)
(-0.0349739 -0.0141931 2.32861e-21)
(-0.0293029 -0.0151263 2.24408e-20)
(-0.0232982 -0.0160381 -1.12267e-20)
(-0.0169649 -0.0169312 1.83836e-21)
(-0.0103092 -0.0178087 1.99003e-21)
(-0.00334528 -0.0186747 -1.47443e-20)
(0.00392758 -0.0195269 3.86599e-21)
(0.011505 -0.0203652 2.62851e-21)
(0.0193626 -0.021195 2.08111e-21)
(0.0274889 -0.0220175 4.55047e-21)
(0.0358714 -0.0228323 -7.9673e-22)
(0.0444943 -0.023639 4.4559e-21)
(0.0533366 -0.0244387 -2.24655e-21)
(0.0623834 -0.025214 2.51388e-21)
(0.0716199 -0.0259796 -7.38937e-21)
(0.0810169 -0.0267261 7.82924e-21)
(0.0905555 -0.0274484 -6.09816e-21)
(0.100212 -0.0281427 6.35781e-21)
(0.109966 -0.0287992 1.45466e-21)
(0.119796 -0.0294177 5.97616e-21)
(0.129677 -0.0299909 -7.66526e-21)
(0.139588 -0.0305134 -5.39035e-22)
(0.149508 -0.0309789 1.51773e-21)
(0.159417 -0.0313842 3.23409e-21)
(0.169295 -0.0317241 5.65019e-21)
(0.179125 -0.0319953 -2.33494e-22)
(0.18889 -0.0321949 -5.48968e-21)
(0.198576 -0.0323209 3.07298e-21)
(0.20817 -0.0323721 2.04604e-21)
(0.21766 -0.0323486 -2.19478e-21)
(0.227038 -0.032251 -1.44216e-23)
(0.236295 -0.032081 6.30543e-23)
(0.245427 -0.0318413 1.44482e-21)
(0.254427 -0.0315353 1.5127e-22)
(0.263295 -0.0311671 -7.99624e-22)
(0.272029 -0.0307418 4.51109e-22)
(0.280628 -0.0302649 2.49844e-22)
(0.289095 -0.0297423 -9.67543e-23)
(0.297431 -0.0291806 1.00229e-21)
(0.30564 -0.0285865 3.07848e-22)
(0.313725 -0.0279671 -4.58915e-22)
(0.321691 -0.0273295 -2.90005e-22)
(0.329543 -0.0266809 5.40156e-22)
(0.337287 -0.0260287 -2.94019e-23)
(0.344926 -0.0253795 -1.68796e-23)
(0.352471 -0.0247411 2.70715e-22)
(0.359918 -0.024119 4.78178e-23)
(0.367289 -0.0235217 2.45788e-23)
(0.37456 -0.0229525 1.3076e-22)
(0.381795 -0.0224222 1.6102e-23)
(0.388887 -0.0219313 1.22164e-22)
(0.396059 -0.02149 3.40903e-24)
(0.402896 -0.0211098 1.4671e-23)
(0.410222 -0.0207651 -4.02833e-24)
(0.416447 -0.0205631 3.97052e-23)
(0.424677 -0.020276 4.6817e-24)
(0.428944 -0.0203897 2.89129e-24)
(0.440776 -0.0201684 -4.35226e-24)
(-0.0212568 0.00924464 -2.41841e-20)
(-0.0215475 0.0072635 3.04226e-20)
(-0.0214762 0.00539452 -2.03005e-20)
(-0.0210417 0.00360714 -4.92349e-21)
(-0.0202179 0.00187744 1.56092e-20)
(-0.0189759 0.000245949 2.10359e-20)
(-0.0174089 -0.00140813 -2.3174e-20)
(-0.0155036 -0.0029795 -2.24028e-20)
(-0.0132208 -0.00449012 4.46598e-20)
(-0.0105834 -0.00595365 -4.14631e-20)
(-0.00759501 -0.0073742 3.63571e-21)
(-0.00425888 -0.00875478 3.61084e-20)
(-0.000589326 -0.0101006 -1.89104e-21)
(0.0034287 -0.0114051 -2.5098e-20)
(0.00779685 -0.0126676 -5.80558e-21)
(0.0124912 -0.013897 3.43708e-21)
(0.0175161 -0.0150937 1.35586e-20)
(0.0228686 -0.0162591 -3.10538e-20)
(0.0285446 -0.017395 2.95398e-20)
(0.0345391 -0.0185034 -2.14425e-20)
(0.0408464 -0.0195867 -5.53313e-21)
(0.0474597 -0.0206471 1.69128e-20)
(0.0543717 -0.0216874 -7.63256e-25)
(0.0615704 -0.0227119 2.18244e-20)
(0.069048 -0.0237083 -1.678e-20)
(0.0767991 -0.0246899 -1.13636e-20)
(0.0848048 -0.0256578 2.51469e-20)
(0.0930508 -0.0266094 -1.44793e-20)
(0.101522 -0.0275442 -2.87618e-21)
(0.110202 -0.0284608 -1.13036e-20)
(0.11907 -0.0293593 1.71537e-21)
(0.128108 -0.0302285 -7.85081e-22)
(0.1373 -0.031073 -2.86094e-21)
(0.14662 -0.0318865 4.75722e-21)
(0.156046 -0.0326644 5.32183e-22)
(0.165558 -0.0334022 -9.65133e-22)
(0.175131 -0.0340921 4.25918e-21)
(0.184745 -0.0347311 -5.91901e-21)
(0.194378 -0.0353133 6.34524e-21)
(0.204007 -0.0358336 -9.01573e-21)
(0.213612 -0.0362867 5.59621e-21)
(0.223174 -0.036669 -5.88547e-21)
(0.232675 -0.0369767 2.34823e-21)
(0.242098 -0.0372069 3.43128e-22)
(0.251429 -0.0373576 9.54903e-22)
(0.260654 -0.0374278 1.67864e-21)
(0.269761 -0.0374172 -3.83879e-21)
(0.278742 -0.0373266 -1.75425e-21)
(0.287588 -0.0371577 4.68353e-21)
(0.296294 -0.0369132 -2.87677e-22)
(0.304855 -0.0365966 -2.85891e-23)
(0.31327 -0.0362121 -2.30403e-21)
(0.321538 -0.0357648 -1.25252e-22)
(0.329658 -0.0352603 -1.24294e-21)
(0.337634 -0.0347048 1.23944e-21)
(0.345468 -0.0341048 5.75846e-23)
(0.353165 -0.0334674 -1.17468e-21)
(0.360729 -0.0327998 1.08373e-21)
(0.368165 -0.0321093 -9.38861e-22)
(0.375481 -0.0314034 1.46733e-22)
(0.382681 -0.0306895 2.60059e-23)
(0.389774 -0.029975 -4.11872e-22)
(0.396764 -0.029267 6.31979e-22)
(0.403664 -0.0285728 -3.12202e-24)
(0.410468 -0.0278984 -9.23843e-23)
(0.417206 -0.0272518 -1.5379e-22)
(0.423843 -0.0266375 -3.34897e-23)
(0.430461 -0.0260635 -6.25239e-24)
(0.436926 -0.0255356 -8.73415e-24)
(0.443506 -0.0250541 -6.83684e-24)
(0.449717 -0.0246481 -5.11733e-23)
(0.456484 -0.0242616 -2.7584e-24)
(0.462087 -0.0240491 -1.46056e-24)
(0.469751 -0.0237166 1.5738e-24)
(0.473524 -0.0238185 -5.54094e-24)
(0.484443 -0.0235743 2.27419e-24)
(0.0429662 0.0093097 3.43712e-20)
(0.0432075 0.00713934 -3.64214e-20)
(0.0437745 0.00507595 3.18877e-20)
(0.0446773 0.00309155 -3.80737e-20)
(0.0459728 0.00116068 2.18931e-20)
(0.04762 -0.000688401 3.24244e-20)
(0.049573 -0.00255849 -4.68286e-20)
(0.0519021 -0.00432953 5.52712e-20)
(0.0545823 -0.00603822 -4.11811e-20)
(0.0576039 -0.00769602 -1.7828e-20)
(0.0609655 -0.00930801 4.99751e-21)
(0.0646641 -0.0108776 3.62578e-20)
(0.0686914 -0.0124116 -3.59122e-20)
(0.0730481 -0.0138877 3.45835e-20)
(0.0777379 -0.0153328 -1.8844e-21)
(0.0827464 -0.0167414 4.97769e-21)
(0.0880711 -0.0181137 -1.35093e-20)
(0.093707 -0.019451 1.00216e-20)
(0.0996486 -0.020755 -1.32664e-21)
(0.105889 -0.0220274 -8.98629e-21)
(0.112422 -0.0232701 1.93297e-20)
(0.119239 -0.0244849 -1.90517e-20)
(0.12633 -0.0256735 1.97263e-20)
(0.133684 -0.0268392 -2.2062e-21)
(0.141289 -0.0279756 -1.70587e-20)
(0.149137 -0.0290878 -9.79933e-21)
(0.157211 -0.0301765 1.2518e-20)
(0.165495 -0.0312406 -1.14884e-20)
(0.173972 -0.0322789 -1.31791e-20)
(0.182626 -0.0332893 3.01559e-20)
(0.191434 -0.0342706 -1.31713e-20)
(0.200378 -0.0352145 -7.22428e-21)
(0.20944 -0.0361211 -5.57004e-21)
(0.218595 -0.0369854 2.47096e-20)
(0.227822 -0.0378025 -1.46227e-20)
(0.237099 -0.0385676 -1.56783e-21)
(0.246404 -0.039274 6.6397e-21)
(0.255714 -0.0399177 4.65425e-21)
(0.26501 -0.0404935 -7.81284e-21)
(0.274269 -0.0409967 1.74328e-21)
(0.283474 -0.0414226 -5.59423e-21)
(0.292605 -0.0417681 7.46269e-21)
(0.301646 -0.0420301 -3.96235e-21)
(0.310581 -0.0422067 8.66242e-23)
(0.319398 -0.0422966 4.25801e-21)
(0.328085 -0.0422998 -6.7563e-21)
(0.336631 -0.0422168 4.45152e-21)
(0.345031 -0.0420496 -5.03097e-21)
(0.353276 -0.0418007 5.18539e-21)
(0.361364 -0.0414737 -2.77756e-21)
(0.369293 -0.0410731 -1.49298e-21)
(0.377061 -0.0406038 -6.11335e-22)
(0.38467 -0.0400719 1.15232e-21)
(0.392121 -0.0394834 -4.85182e-22)
(0.39942 -0.0388454 6.35485e-22)
(0.40657 -0.038165 1.31524e-21)
(0.413577 -0.0374496 -5.98745e-22)
(0.420448 -0.0367067 -1.14053e-22)
(0.427189 -0.0359443 -2.89399e-22)
(0.433808 -0.0351698 -6.51284e-22)
(0.440312 -0.034391 7.52126e-22)
(0.446711 -0.0336151 -4.71355e-22)
(0.453008 -0.0328497 -7.52186e-22)
(0.45922 -0.0321016 2.22949e-22)
(0.465338 -0.0313777 7.27008e-23)
(0.471399 -0.0306842 -1.62632e-22)
(0.477359 -0.0300284 2.5759e-23)
(0.483317 -0.0294134 -3.26338e-23)
(0.489112 -0.0288532 -1.40337e-22)
(0.495056 -0.0283338 6.26837e-23)
(0.500598 -0.0279074 -8.12377e-23)
(0.506755 -0.0274819 -2.25303e-23)
(0.511704 -0.0272612 -3.18998e-24)
(0.518732 -0.0268918 -9.06382e-24)
(0.522005 -0.0269743 8.88687e-25)
(0.531918 -0.0267235 3.60623e-24)
(0.117326 0.00914845 -8.75382e-20)
(0.117745 0.00681384 -1.61882e-20)
(0.118495 0.00457107 5.74065e-20)
(0.119577 0.00240034 -1.41497e-20)
(0.121064 0.000271932 3.4842e-20)
(0.122906 -0.0018366 -2.77648e-20)
(0.125066 -0.00387502 1.65781e-21)
(0.127598 -0.00583844 2.08026e-20)
(0.130482 -0.00774033 -6.07147e-21)
(0.13371 -0.00958752 -2.44328e-20)
(0.137277 -0.0113853 2.70163e-20)
(0.141178 -0.013137 1.04693e-21)
(0.145406 -0.0148486 -7.75094e-21)
(0.149956 -0.0165092 7.46663e-22)
(0.15483 -0.0181287 3.18644e-20)
(0.160015 -0.019707 -1.80336e-20)
(0.165506 -0.0212455 -2.4248e-20)
(0.171296 -0.0227453 -5.67311e-24)
(0.177377 -0.0242076 3.16048e-20)
(0.18374 -0.0256336 -2.02123e-20)
(0.190377 -0.0270246 1.79273e-20)
(0.197277 -0.0283821 -2.58569e-20)
(0.204429 -0.029707 7.7331e-22)
(0.211821 -0.0310014 3.25802e-20)
(0.219438 -0.0322615 -2.00481e-20)
(0.227268 -0.033489 -1.96209e-21)
(0.235297 -0.0346842 2.81976e-21)
(0.243505 -0.0358458 1.02411e-20)
(0.251875 -0.0369721 -2.48024e-20)
(0.260388 -0.0380603 6.0391e-23)
(0.269025 -0.0391085 -9.31387e-22)
(0.277763 -0.0401099 1.51842e-20)
(0.286583 -0.0410624 1.39831e-20)
(0.295463 -0.0419613 -6.59829e-21)
(0.304381 -0.0428015 7.66094e-21)
(0.313316 -0.0435783 -1.51461e-20)
(0.322244 -0.0442855 4.95104e-21)
(0.331146 -0.044919 -1.09808e-20)
(0.340002 -0.045474 1.2424e-20)
(0.348792 -0.0459462 -3.80606e-22)
(0.357497 -0.0463317 -7.00727e-21)
(0.366102 -0.0466279 2.34162e-21)
(0.374591 -0.0468326 -1.37052e-21)
(0.38295 -0.0469446 3.46011e-21)
(0.391169 -0.0469636 2.05389e-21)
(0.399237 -0.0468904 -7.03783e-21)
(0.407146 -0.0467267 5.14762e-21)
(0.414892 -0.0464751 -8.53826e-22)
(0.422468 -0.0461393 -5.10517e-23)
(0.429875 -0.0457238 -1.95764e-21)
(0.43711 -0.0452338 -9.82382e-22)
(0.444175 -0.0446753 1.95392e-21)
(0.451073 -0.0440548 1.19943e-21)
(0.457807 -0.0433794 -1.19887e-21)
(0.464384 -0.0426565 6.53152e-22)
(0.470808 -0.0418938 -2.38626e-22)
(0.477087 -0.0410992 -1.9549e-21)
(0.483228 -0.0402806 1.32989e-21)
(0.48924 -0.0394463 6.70945e-22)
(0.495131 -0.0386036 -1.84954e-22)
(0.500908 -0.0377609 2.41353e-22)
(0.506585 -0.0369251 5.61645e-22)
(0.512161 -0.0361043 -2.76459e-22)
(0.517659 -0.0353044 -4.41929e-22)
(0.523066 -0.0345337 3.97963e-22)
(0.528426 -0.0337959 1.80217e-24)
(0.533682 -0.0331022 2.23187e-22)
(0.538956 -0.0324488 -1.10783e-22)
(0.544055 -0.0318608 1.1597e-22)
(0.549336 -0.0313061 9.18038e-23)
(0.554188 -0.0308636 -2.76889e-23)
(0.559698 -0.0304031 1.61743e-23)
(0.563986 -0.0301746 2.77754e-23)
(0.57032 -0.0297784 -1.97916e-24)
(0.573106 -0.0298354 1.18661e-23)
(0.581948 -0.0295893 -4.89874e-25)
(0.202494 0.00900957 -4.12782e-21)
(0.202549 0.00650552 -8.46565e-20)
(0.203001 0.00407877 6.23812e-20)
(0.203837 0.00171847 3.88486e-20)
(0.205121 -0.000595966 -4.30086e-20)
(0.206795 -0.00294288 -1.76874e-20)
(0.208842 -0.0051972 -4.41139e-20)
(0.211287 -0.00736648 8.83427e-20)
(0.214105 -0.00946562 -1.68821e-20)
(0.217284 -0.0115048 -2.66863e-20)
(0.220814 -0.01349 1.11097e-20)
(0.224689 -0.0154249 -2.8899e-23)
(0.2289 -0.0173143 -1.31925e-20)
(0.233437 -0.019152 1.41906e-20)
(0.238298 -0.0209429 4.69665e-22)
(0.24347 -0.0226879 -1.36514e-20)
(0.248943 -0.0243881 2.15762e-20)
(0.25471 -0.0260447 -1.74432e-20)
(0.260758 -0.0276582 -1.81505e-20)
(0.267077 -0.0292296 3.14537e-20)
(0.273655 -0.0307599 -8.9231e-21)
(0.28048 -0.03225 2.04834e-20)
(0.287538 -0.0337003 -3.44892e-20)
(0.294814 -0.035112 2.28464e-20)
(0.302293 -0.0364825 1.05078e-20)
(0.309959 -0.0378119 -1.9648e-20)
(0.317796 -0.0390998 9.4185e-21)
(0.325785 -0.0403446 -3.11849e-21)
(0.333906 -0.0415441 -2.04453e-20)
(0.34214 -0.0426952 1.34996e-21)
(0.350466 -0.0437953 1.50801e-20)
(0.358863 -0.0448386 -3.75898e-21)
(0.367309 -0.0458219 -6.88279e-22)
(0.375783 -0.0467403 -4.74872e-21)
(0.384263 -0.047589 2.50715e-20)
(0.392729 -0.0483632 -1.495e-20)
(0.401159 -0.0490575 1.04124e-21)
(0.409533 -0.0496675 1.14141e-20)
(0.417833 -0.050189 -6.40781e-21)
(0.426041 -0.0506184 8.06454e-21)
(0.43414 -0.0509525 -1.01751e-20)
(0.442115 -0.0511892 3.36855e-21)
(0.449953 -0.0513272 -5.32444e-21)
(0.457643 -0.0513661 5.62995e-21)
(0.465174 -0.0513065 2.00501e-21)
(0.47254 -0.0511502 -7.62936e-23)
(0.479734 -0.0508997 -4.60848e-21)
(0.486753 -0.0505588 1.1931e-21)
(0.493594 -0.0501318 -1.26605e-21)
(0.500256 -0.0496242 1.35074e-21)
(0.506742 -0.0490421 2.85515e-21)
(0.513053 -0.0483922 -2.25607e-21)
(0.519194 -0.0476817 2.2663e-21)
(0.525169 -0.0469183 -1.51394e-21)
(0.530986 -0.0461102 -4.05005e-22)
(0.536652 -0.0452652 1.34524e-21)
(0.542173 -0.0443921 1.98014e-21)
(0.54756 -0.0434987 3.97556e-22)
(0.55282 -0.0425937 -2.00264e-21)
(0.557964 -0.0416846 3.7451e-22)
(0.562998 -0.0407801 5.06298e-23)
(0.567937 -0.0398866 -2.50888e-22)
(0.57278 -0.0390131 -2.38582e-23)
(0.577553 -0.0381639 8.52581e-22)
(0.582237 -0.0373497 -6.82616e-23)
(0.586886 -0.0365703 -3.18255e-22)
(0.591431 -0.0358427 3.00781e-22)
(0.596011 -0.0351537 -2.20543e-22)
(0.600407 -0.034542 -1.66958e-22)
(0.605012 -0.033955 3.71972e-23)
(0.609174 -0.0334995 7.00397e-23)
(0.614015 -0.0330092 1.5613e-23)
(0.617653 -0.0327722 1.89316e-23)
(0.623252 -0.0323589 -2.12105e-24)
(0.625578 -0.032387 -1.69993e-26)
(0.633315 -0.0321526 -2.1983e-24)
(0.298939 0.00925596 2.90504e-20)
(0.297908 0.00652568 -1.28315e-20)
(0.297423 0.00387372 5.61427e-20)
(0.297448 0.00128914 -1.36864e-21)
(0.298002 -0.00123954 -6.64825e-20)
(0.299045 -0.00383384 -4.56236e-20)
(0.300569 -0.00632432 3.90272e-20)
(0.302545 -0.00872221 -3.38291e-21)
(0.304943 -0.0110365 2.91833e-20)
(0.307742 -0.013281 -5.92334e-20)
(0.310928 -0.0154638 2.29285e-20)
(0.314488 -0.0175898 3.84267e-21)
(0.318407 -0.0196636 1.41488e-20)
(0.322673 -0.0216816 3.02849e-20)
(0.327275 -0.0236463 -1.76894e-20)
(0.332199 -0.0255587 -6.35078e-21)
(0.33743 -0.0274199 -5.91937e-21)
(0.342956 -0.0292308 3.77029e-20)
(0.348762 -0.0309918 2.1973e-21)
(0.354834 -0.0327037 -6.36946e-21)
(0.361157 -0.0343669 -1.82676e-20)
(0.367716 -0.0359821 2.21683e-20)
(0.374493 -0.0375492 -3.65362e-20)
(0.381472 -0.0390689 2.62639e-20)
(0.388635 -0.040539 -2.33299e-20)
(0.395963 -0.0419588 2.16288e-20)
(0.403439 -0.0433275 -1.67604e-20)
(0.411042 -0.0446429 1.9774e-20)
(0.418751 -0.0459026 -2.5281e-20)
(0.426545 -0.0471035 1.13894e-20)
(0.434403 -0.0482423 -1.7185e-20)
(0.442304 -0.049314 2.21374e-20)
(0.450226 -0.0503146 -1.89156e-20)
(0.458147 -0.0512397 8.44709e-21)
(0.466048 -0.0520843 4.7501e-21)
(0.473906 -0.0528439 2.58781e-21)
(0.481704 -0.0535136 -1.33702e-20)
(0.489421 -0.0540894 1.21239e-21)
(0.497041 -0.0545675 1.46724e-20)
(0.504548 -0.054945 -1.68944e-20)
(0.511927 -0.0552193 7.7417e-21)
(0.519165 -0.0553892 -9.30605e-21)
(0.526251 -0.055454 1.17003e-20)
(0.533175 -0.0554144 -1.35849e-20)
(0.539931 -0.0552718 5.13433e-21)
(0.546512 -0.0550287 4.80598e-21)
(0.552914 -0.0546887 -5.9454e-21)
(0.559136 -0.0542564 7.0463e-21)
(0.565177 -0.0537371 -3.70134e-21)
(0.571039 -0.0531369 -1.26679e-21)
(0.576723 -0.0524628 -1.85295e-21)
(0.582235 -0.0517221 2.77602e-21)
(0.587579 -0.0509228 -1.49845e-21)
(0.592762 -0.0500731 -6.27658e-22)
(0.597791 -0.0491817 5.49251e-22)
(0.602674 -0.0482569 1.15724e-21)
(0.607419 -0.0473077 7.10777e-22)
(0.612036 -0.0463423 -1.68072e-21)
(0.616533 -0.0453698 -7.43138e-22)
(0.620921 -0.0443973 1.74456e-21)
(0.625207 -0.0434344 -2.45197e-22)
(0.629406 -0.0424864 -2.48013e-22)
(0.633516 -0.0415639 4.30408e-22)
(0.637565 -0.0406688 -7.34178e-23)
(0.64153 -0.039815 -3.29029e-22)
(0.645472 -0.0389973 1.82047e-22)
(0.649312 -0.0382398 1.60083e-22)
(0.653202 -0.0375184 -2.28549e-22)
(0.656906 -0.0368867 -8.62736e-23)
(0.660836 -0.0362714 1.18208e-22)
(0.664323 -0.0358049 3.9846e-25)