4 	-3.95101 	-7.09088e-18 	1.22394 	0.000402099 	0
4 	-3.85303 	-7.09088e-18 	1.22412 	0.00120883 	0
4 	-3.75506 	-7.09088e-18 	1.22448 	0.0020229 	0
4 	-3.65708 	-7.09088e-18 	1.22501 	0.00284918 	0
4 	-3.5591 	-7.09088e-18 	1.22572 	0.00369272 	0
4 	-3.46112 	-7.09088e-18 	1.2266 	0.00455849 	0
4 	-3.36314 	-7.09088e-18 	1.22765 	0.00545151 	0
4 	-3.26517 	-7.09088e-18 	1.22887 	0.00637682 	0
4 	-3.16719 	-7.09088e-18 	1.23025 	0.00733956 	0
4 	-3.06921 	-7.09088e-18 	1.23178 	0.0083449 	0
4 	-2.97123 	-7.09088e-18 	1.23346 	0.0093981 	0
4 	-2.87325 	-7.09088e-18 	1.23529 	0.0105045 	0
4 	-2.77528 	-7.09088e-18 	1.23725 	0.0116695 	0
4 	-2.6773 	-7.09088e-18 	1.23934 	0.0128984 	0
4 	-2.57932 	-7.09088e-18 	1.24155 	0.0141969 	0
4 	-2.48134 	-9.5195e-18 	1.24388 	0.0155704 	0
4 	-2.38336 	-1.19481e-17 	1.24631 	0.0170245 	0
4 	-2.28539 	-1.19481e-17 	1.24884 	0.0185646 	0
4 	-2.18741 	-1.19481e-17 	1.25149 	0.0201966 	0
4 	-2.08943 	-1.09073e-17 	1.25424 	0.0219267 	0
4 	-1.99145 	-9.86644e-18 	1.25711 	0.0237624 	0
4 	-1.89347 	-9.86644e-18 	1.26003 	0.0257127 	0
4 	-1.7955 	-9.86644e-18 	1.2629 	0.0277897 	0
4 	-1.69752 	-9.86644e-18 	1.2654 	0.0300102 	0
4 	-1.59954 	-9.86644e-18 	1.26689 	0.0323983 	0
4 	-1.50156 	-9.86644e-18 	1.26596 	0.0349881 	0
4 	-1.40358 	-9.86644e-18 	1.25993 	0.0378212 	0
4 	-1.30561 	-9.86644e-18 	1.24419 	0.0409535 	0
4 	-1.20763 	-9.86644e-18 	1.21201 	0.0443542 	0
4 	-1.10965 	-9.86644e-18 	1.15582 	0.0463942 	0
4 	-1.03771 	-8.48375e-18 	1.09197 	0.0510448 	4.41739e-20
4 	-1.00898 	-9.96354e-18 	1.03674 	0.0521289 	1.76532e-20
4 	-0.985532 	-1.47397e-17 	1.03784 	0.0494797 	-2.00532e-20
4 	-0.943916 	-1.66533e-17 	0.972352 	0.0501487 	-1.99715e-20
4 	-0.895572 	-1.63003e-17 	0.898621 	0.0502574 	4.25308e-20
4 	-0.846307 	-1.89514e-17 	0.817975 	0.049633 	1.35096e-20
4 	-0.801121 	-2.03454e-17 	0.732013 	0.0482999 	9.79918e-20
4 	-0.77583 	-2.04697e-17 	0.72849 	0.045975 	-4.67547e-20
4 	-0.745164 	-2.35922e-17 	0.637898 	0.0440895 	-5.03112e-20
4 	-0.693369 	-2.46331e-17 	0.545663 	0.0416038 	-4.7908e-20
4 	-0.640819 	-2.8396e-17 	0.453498 	0.0386217 	4.54938e-21
4 	-0.587563 	-3.05164e-17 	0.362951 	0.0352649 	1.53263e-20
4 	-0.533652 	-3.00685e-17 	0.275383 	0.031661 	9.99352e-21
4 	-0.47914 	-3.00478e-17 	0.192002 	0.0279326 	-1.85033e-20
4 	-0.448527 	-2.96696e-17 	0.113915 	0.0241883 	-1.75889e-20
4 	-0.42087 	-2.86107e-17 	0.107326 	0.0226208 	8.39393e-21
4 	-0.368541 	-2.32453e-17 	0.0358303 	0.019098 	2.09219e-20
4 	-0.312573 	-1.97758e-17 	-0.0281775 	0.015724 	-2.19649e-20
4 	-0.256242 	-1.97758e-17 	-0.0836734 	0.0125373 	-1.30474e-20
4 	-0.199612 	-1.8735e-17 	-0.129644 	0.00955283 	8.31736e-21
4 	-0.142748 	-2.08167e-17 	-0.165139 	0.00675579 	-2.1624e-21
4 	-0.0857162 	-2.74086e-17 	-0.189345 	0.00411085 	1.08038e-21
4 	-0.0285833 	-3.05286e-17 	-0.201663 	0.00156212 	-2.1303e-21
4 	0.0285833 	-7.63278e-18 	-0.201775 	-0.000950912 	2.08018e-21
4 	0.0857162 	-7.97973e-18 	-0.189675 	-0.00349761 	-8.9155e-22
4 	0.142748 	-1.11022e-17 	-0.165683 	-0.0061464 	2.88265e-21
4 	0.199612 	-1.249e-17 	-0.130393 	-0.00894717 	-8.08837e-21
4 	0.256242 	-1.38778e-17 	-0.0846172 	-0.0119359 	1.14803e-20
4 	0.312573 	-1.49186e-17 	-0.0293029 	-0.0151263 	2.24408e-20
4 	0.368541 	-1.59595e-17 	0.0345391 	-0.0185034 	-2.14425e-20
4 	0.42087 	-1.7186e-17 	0.105889 	-0.0220274 	-8.98629e-21
4 	0.448527 	-1.85918e-17 	0.112422 	-0.0232701 	1.93297e-20
4 	0.47914 	-2.27619e-17 	0.190377 	-0.0270246 	1.79273e-20
4 	0.533652 	-2.79868e-17 	0.273655 	-0.0307599 	-8.9231e-21
4 	0.587563 	-3.22945e-17 	0.361157 	-0.0343669 	-1.82676e-20
4 	0.640819 	-3.0521e-17 	0.451681 	-0.0377232 	-2.67367e-21
4 	0.693369 	-2.91434e-17 	0.543865 	-0.0407022 	5.08105e-20
4 	0.745164 	-3.08781e-17 	0.636158 	-0.0431838 	4.72668e-20
4 	0.77583 	-3.1473e-17 	0.726842 	-0.0450667 	4.50424e-20
4 	0.801121 	-2.64914e-17 	0.730287 	-0.0471752 	-9.28119e-20
4 	0.846307 	-2.12066e-17 	0.816374 	-0.0485237 	-1.42902e-20
4 	0.895572 	-2.20249e-17 	0.897165 	-0.0491691 	-4.71289e-20
4 	0.943916 	-2.70617e-17 	0.971056 	-0.0490885 	2.34342e-20
4 	0.985532 	-3.08835e-17 	1.03671 	-0.048453 	1.93594e-20
4 	1.00898 	-3.09646e-17 	1.03563 	-0.050955 	-1.83421e-20
4 	1.03771 	-3.31168e-17 	1.09104 	-0.0499271 	-4.42916e-20
4 	1.10965 	-3.41526e-17 	1.15514 	-0.0453942 	0
4 	1.20763 	-3.41526e-17 	1.21158 	-0.0434028 	0
4 	1.30561 	-3.41526e-17 	1.24393 	-0.0400948 	0
4 	1.40358 	-3.41526e-17 	1.25979 	-0.0370567 	0
4 	1.50156 	-3.57138e-17 	1.26589 	-0.0343125 	0
4 	1.59954 	-3.7969e-17 	1.26687 	-0.0318043 	0
4 	1.69752 	-3.86628e-17 	1.26542 	-0.0294898 	0
4 	1.7955 	-3.86628e-17 	1.26293 	-0.0273344 	0
4 	1.89347 	-3.86628e-17 	1.26008 	-0.0253148 	0
4 	1.99145 	-3.86628e-17 	1.25717 	-0.0234149 	0
4 	2.08943 	-3.86628e-17 	1.25431 	-0.0216236 	0
4 	2.18741 	-3.86628e-17 	1.25156 	-0.0199323 	0
4 	2.28539 	-3.86628e-17 	1.24892 	-0.0183345 	0
4 	2.38336 	-3.86628e-17 	1.24638 	-0.0168243 	0
4 	2.48134 	-3.86628e-17 	1.24395 	-0.0153965 	0
4 	2.57932 	-3.7969e-17 	1.24163 	-0.0140461 	0
4 	2.6773 	-3.72751e-17 	1.23942 	-0.0127679 	0
4 	2.77528 	-3.58873e-17 	1.23733 	-0.0115567 	0
4 	2.87325 	-3.44995e-17 	1.23536 	-0.0104074 	0
4 	2.97123 	-3.51934e-17 	1.23353 	-0.00931483 	0
4 	3.06921 	-3.58873e-17 	1.23185 	-0.00827383 	0
4 	3.16719 	-3.58873e-17 	1.23031 	-0.00727932 	0
4 	3.26517 	-3.51934e-17 	1.22893 	-0.00632622 	0
4 	3.36314 	-3.44995e-17 	1.22771 	-0.00540955 	0
4 	3.46112 	-3.38056e-17 	1.22666 	-0.00452433 	0
4 	3.5591 	-3.31117e-17 	1.22578 	-0.00366567 	0
4 	3.65708 	-3.31117e-17 	1.22507 	-0.00282869 	0
4 	3.75506 	-3.24178e-17 	1.22453 	-0.00200855 	0
4 	3.85303 	-3.10301e-17 	1.22418 	-0.00120034 	0
4 	3.95101 	-3.08781e-17 	1.224 	-0.000399288 	0
