/*--------------------------------*- C++ -*----------------------------------*\
  =========                 |
  \\      /  F ield         | OpenFOAM: The Open Source CFD Toolbox
   \\    /   O peration     | Website:  https://openfoam.org
    \\  /    A nd           | Version:  7
     \\/     M anipulation  |
\*---------------------------------------------------------------------------*/
FoamFile
{
    version     2.0;
    format      ascii;
    class       volVectorField;
    location    "45";
    object      U;
}
// * * * * * * * * * * * * * * * * * * * * * * * * * * * * * * * * * * * * * //

dimensions      [0 1 -1 0 0 0 0];

internalField   nonuniform List<vector> 
6000
(
(0.720721 -0.037482 -5.32553e-20)
(0.622853 -0.0295384 6.58935e-20)
(0.527739 -0.0231426 -4.19283e-20)
(0.362179 -0.0180014 -5.04871e-20)
(0.437839 -0.0183674 -2.16377e-21)
(0.290507 -0.0158194 5.91063e-20)
(0.354779 -0.0151601 -3.40141e-20)
(0.225669 -0.0143238 -3.32455e-20)
(0.2794 -0.013361 7.29623e-20)
(0.139764 -0.0179665 4.45972e-20)
(0.167507 -0.0134218 -6.64369e-20)
(0.211903 -0.0127186 -2.24677e-20)
(0.0922108 -0.0171419 -2.4697e-20)
(0.115676 -0.0130217 3.42776e-20)
(0.152021 -0.0129137 4.38683e-20)
(0.050222 -0.0165555 1.74077e-20)
(0.0697012 -0.013005 -2.10542e-21)
(0.0991927 -0.0135913 -2.03101e-20)
(0.0132485 -0.0161069 2.23762e-20)
(0.0290296 -0.0132647 -6.06129e-21)
(0.0527417 -0.0143615 3.3813e-21)
(-0.0313371 -0.0186077 -1.39242e-20)
(-0.0192816 -0.0157014 6.13509e-21)
(-0.00689399 -0.0137563 2.88583e-20)
(0.012053 -0.0147212 -1.60527e-20)
(-0.0570316 -0.017637 3.84294e-20)
(-0.0479596 -0.0152591 -1.54254e-20)
(-0.0383273 -0.0141204 -1.7966e-20)
(-0.0235663 -0.0147386 1.56337e-21)
(-0.0795566 -0.0165593 -5.63811e-21)
(-0.0730775 -0.0147013 -1.7352e-20)
(-0.0657873 -0.014019 -5.55217e-21)
(-0.0549764 -0.0146836 -2.8015e-20)
(-0.0991806 -0.0153222 -4.05488e-21)
(-0.0949334 -0.0139162 5.18535e-20)
(-0.089813 -0.0135268 2.68947e-20)
(-0.0824889 -0.0143406 6.32662e-21)
(-0.116104 -0.0138843 -1.15087e-20)
(-0.113781 -0.0128455 -3.16622e-20)
(-0.110669 -0.0126544 -3.09923e-20)
(-0.10627 -0.0135111 4.15975e-20)
(-0.130469 -0.0122249 -8.8648e-21)
(-0.129792 -0.0114729 3.08316e-20)
(-0.128475 -0.0114056 1.82425e-20)
(-0.126465 -0.0122012 -1.02755e-20)
(-0.142367 -0.0103439 1.03635e-20)
(-0.143069 -0.00981137 -4.24452e-21)
(-0.143289 -0.00981198 -1.4335e-20)
(-0.143183 -0.0104881 -1.07878e-20)
(-0.151853 -0.00825956 -2.67336e-22)
(-0.153664 -0.00789426 -1.25818e-20)
(-0.155134 -0.00792461 1.37152e-20)
(-0.156498 -0.00845563 8.97262e-22)
(-0.15598 -0.00647042 -1.15097e-21)
(-0.158955 -0.00600442 1.06888e-21)
(-0.161603 -0.00576855 1.40517e-20)
(-0.164019 -0.00580452 -1.5197e-21)
(-0.166456 -0.00618319 -4.70307e-21)
(-0.160204 -0.00389014 6.23692e-21)
(-0.163685 -0.00362109 6.16411e-21)
(-0.166893 -0.00348961 -4.84509e-21)
(-0.169943 -0.00351709 -1.51406e-21)
(-0.173081 -0.00374424 2.28075e-22)
(-0.162313 -0.00124623 -3.59696e-21)
(-0.166047 -0.00115857 1.38022e-21)
(-0.169536 -0.00111731 -2.19301e-21)
(-0.172903 -0.0011291 5.77329e-22)
(-0.176388 -0.00120735 1.75035e-21)
(1.28795 -0.0981267 0)
(1.29912 -0.0977461 0)
(1.29702 -0.0962253 0)
(1.29109 -0.0940465 0)
(1.28394 -0.0913247 0)
(1.27637 -0.0882781 0)
(1.26883 -0.0849946 0)
(1.2616 -0.0815307 0)
(1.25484 -0.077946 0)
(1.24859 -0.0742814 0)
(1.24279 -0.0705626 0)
(1.23739 -0.066809 0)
(1.23236 -0.0630362 0)
(1.22766 -0.0592577 0)
(1.22328 -0.0554844 0)
(1.21922 -0.0517253 0)
(1.21545 -0.0479868 0)
(1.21199 -0.0442737 0)
(1.20881 -0.0405888 0)
(1.20592 -0.0369337 0)
(1.2033 -0.0333088 0)
(1.20096 -0.0297133 0)
(1.19889 -0.0261459 0)
(1.19709 -0.0226044 0)
(1.19554 -0.0190862 0)
(1.19426 -0.0155885 0)
(1.19324 -0.0121066 0)
(1.19247 -0.00864224 0)
(1.19196 -0.00517219 0)
(1.19172 -0.00174076 0)
(1.28348 -0.0901664 0)
(1.29821 -0.0902739 0)
(1.29762 -0.089236 0)
(1.29238 -0.0874148 0)
(1.28567 -0.0850297 0)
(1.27845 -0.0823291 0)
(1.27118 -0.0794035 0)
(1.26417 -0.076301 0)
(1.25758 -0.0730723 0)
(1.25145 -0.069753 0)
(1.24575 -0.066367 0)
(1.24043 -0.0629321 0)
(1.23545 -0.0594635 0)
(1.23079 -0.0559741 0)
(1.22644 -0.0524752 0)
(1.22239 -0.0489762 0)
(1.21864 -0.0454844 0)
(1.21517 -0.0420053 0)
(1.21199 -0.0385429 0)
(1.20909 -0.0350997 0)
(1.20646 -0.031677 0)
(1.20411 -0.0282753 0)
(1.20203 -0.024894 0)
(1.20021 -0.0215321 0)
(1.19866 -0.0181879 0)
(1.19737 -0.0148594 0)
(1.19634 -0.0115433 0)
(1.19556 -0.00824088 0)
(1.19505 -0.00493388 0)
(1.1948 -0.00165694 0)
(1.27893 -0.082248 0)
(1.2973 -0.0828685 0)
(1.29834 -0.0824234 0)
(1.29378 -0.0810065 0)
(1.28745 -0.0789604 0)
(1.2805 -0.0765894 0)
(1.27345 -0.0739973 1.62391e-28)
(1.26662 -0.071229 -3.53017e-29)
(1.26017 -0.068329 0)
(1.25414 -0.0653302 0)
(1.24853 -0.0622547 0)
(1.24328 -0.0591196 0)
(1.23835 -0.0559389 0)
(1.23373 -0.0527254 0)
(1.22941 -0.04949 0)
(1.22538 -0.0462424 0)
(1.22164 -0.0429904 0)
(1.21817 -0.0397401 0)
(1.21499 -0.0364961 0)
(1.21208 -0.0332619 0)
(1.20945 -0.0300396 0)
(1.20709 -0.0268304 0)
(1.205 -0.0236349 0)
(1.20318 -0.0204527 0)
(1.20162 -0.017283 0)
(1.20032 -0.0141247 0)
(1.19928 -0.0109754 0)
(1.1985 -0.00783639 0)
(1.19798 -0.00469339 0)
(1.19774 -0.00157357 0)
(1.27418 -0.0746087 0)
(1.29628 -0.0756795 0)
(1.29909 -0.0757959 0)
(1.29526 -0.0747662 0)
(1.28928 -0.0730499 0)
(1.28257 -0.0709993 0)
(1.2757 -0.0687266 -1.62391e-28)
(1.26901 -0.0662748 3.53017e-29)
(1.26267 -0.063685 0)
(1.25674 -0.0609886 0)
(1.25119 -0.0582074 0)
(1.24599 -0.0553575 0)
(1.24111 -0.0524524 0)
(1.23653 -0.0495041 0)
(1.23223 -0.0465234 0)
(1.22822 -0.0435201 0)
(1.22448 -0.0405021 0)
(1.22102 -0.0374761 0)
(1.21784 -0.0344472 0)
(1.21493 -0.0314196 0)
(1.21229 -0.0283961 0)
(1.20992 -0.0253787 0)
(1.20782 -0.0223686 0)
(1.20599 -0.0193662 0)
(1.20442 -0.0163716 0)
(1.20312 -0.0133843 0)
(1.20207 -0.0104029 0)
(1.20129 -0.00742869 0)
(1.20077 -0.0044507 0)
(1.20052 -0.00149034 0)
(1.26917 -0.067333 0)
(1.29492 -0.0687871 0)
(1.2996 -0.0693848 0)
(1.29656 -0.0686952 0)
(1.29095 -0.0672842 0)
(1.28448 -0.0655386 0)
(1.27779 -0.0635708 0)
(1.27123 -0.0614201 0)
(1.265 -0.0591251 0)
(1.25915 -0.0567169 0)
(1.25367 -0.0542167 0)
(1.24853 -0.0516401 0)
(1.24369 -0.049 0)
(1.23914 -0.0463078 0)
(1.23487 -0.0435742 0)
(1.23087 -0.0408088 0)
(1.22715 -0.0380198 0)
(1.22369 -0.035214 0)
(1.22051 -0.0323973 0)
(1.2176 -0.0295741 0)
(1.21496 -0.0267479 0)
(1.21259 -0.0239213 0)
(1.21049 -0.0210962 0)
(1.20865 -0.0182738 0)
(1.20707 -0.0154546 0)
(1.20576 -0.012639 0)
(1.20471 -0.00982635 0)
(1.20393 -0.00701813 0)
(1.2034 -0.00420603 0)
(1.20315 -0.00140708 0)
(1.26395 -0.060401 0)
(1.29316 -0.0621852 0)
(1.29971 -0.0631979 0)
(1.29752 -0.0628068 0)
(1.29232 -0.0616748 0)
(1.2861 -0.0602145 0)
(1.2796 -0.0585334 0)
(1.27319 -0.056667 0)
(1.26707 -0.0546518 0)
(1.2613 -0.052518 0)
(1.2559 -0.0502864 0)
(1.25082 -0.0479719 0)
(1.24603 -0.0455867 0)
(1.24153 -0.0431419 0)
(1.23729 -0.0406479 0)
(1.23332 -0.0381142 0)
(1.22961 -0.0355489 0)
(1.22617 -0.0329593 0)
(1.223 -0.0303513 0)
(1.2201 -0.0277299 0)
(1.21746 -0.0250992 0)
(1.21509 -0.0224621 0)
(1.21298 -0.0198212 0)
(1.21114 -0.0171783 0)
(1.20957 -0.0145345 0)
(1.20825 -0.0118909 0)
(1.2072 -0.00924739 0)
(1.20642 -0.0066058 0)
(1.20589 -0.00396004 0)
(1.20564 -0.00132383 0)
(1.2586 -0.0537706 0)
(1.29105 -0.0558367 0)
(1.29945 -0.0572216 0)
(1.29814 -0.0571037 0)
(1.29338 -0.0562315 0)
(1.28742 -0.0550375 0)
(1.28112 -0.0536243 0)
(1.27486 -0.0520248 0)
(1.26886 -0.050274 0)
(1.26319 -0.0484008 0)
(1.25787 -0.0464253 0)
(1.25286 -0.0443616 0)
(1.24814 -0.0422213 0)
(1.24368 -0.0400151 0)
(1.23949 -0.037753 0)
(1.23555 -0.0354443 0)
(1.23187 -0.0330972 0)
(1.22845 -0.030719 0)
(1.2253 -0.0283159 0)
(1.22241 -0.0258933 0)
(1.21978 -0.0234555 0)
(1.21741 -0.021006 0)
(1.21531 -0.018548 0)
(1.21348 -0.0160835 0)
(1.2119 -0.0136146 0)
(1.21059 -0.0111425 0)
(1.20954 -0.00866801 0)
(1.20875 -0.00619313 0)
(1.20823 -0.00371363 0)
(1.20797 -0.00124078 0)
(1.25318 -0.0474147 0)
(1.28866 -0.0497126 0)
(1.29889 -0.0514385 0)
(1.29847 -0.0515785 0)
(1.29415 -0.0509537 0)
(1.28847 -0.0500105 0)
(1.28237 -0.0488484 0)
(1.27626 -0.0474998 0)
(1.27039 -0.0459986 0)
(1.26483 -0.0443727 0)
(1.2596 -0.042641 0)
(1.25467 -0.040817 0)
(1.25001 -0.0389117 0)
(1.24561 -0.0369352 0)
(1.24147 -0.0348972 0)
(1.23757 -0.0328066 0)
(1.23393 -0.0306717 0)
(1.23054 -0.0284998 0)
(1.22741 -0.0262974 0)
(1.22454 -0.0240699 0)
(1.22192 -0.0218221 0)
(1.21957 -0.0195579 0)
(1.21748 -0.0172806 0)
(1.21565 -0.0149932 0)
(1.21408 -0.0126978 0)
(1.21277 -0.0103963 0)
(1.21172 -0.00809016 0)
(1.21094 -0.0057815 0)
(1.21041 -0.00346768 0)
(1.21016 -0.00115814 0)
(1.24778 -0.0413206 0)
(1.28605 -0.0437991 0)
(1.29807 -0.0458377 0)
(1.29857 -0.0462219 0)
(1.29471 -0.0458347 0)
(1.2893 -0.0451301 0)
(1.28339 -0.0442051 0)
(1.27744 -0.0430934 0)
(1.27169 -0.0418287 0)
(1.26624 -0.0404377 0)
(1.2611 -0.0389383 0)
(1.25626 -0.0373434 0)
(1.25167 -0.0356633 0)
(1.24734 -0.0339078 0)
(1.24325 -0.032086 0)
(1.2394 -0.0302067 0)
(1.2358 -0.028278 0)
(1.23244 -0.0263072 0)
(1.22934 -0.0243008 0)
(1.22649 -0.0222645 0)
(1.2239 -0.0202033 0)
(1.22156 -0.0181215 0)
(1.21948 -0.0160227 0)
(1.21766 -0.0139103 0)
(1.2161 -0.0117867 0)
(1.21479 -0.00965453 0)
(1.21375 -0.0075155 0)
(1.21297 -0.00537208 0)
(1.21245 -0.00322291 0)
(1.2122 -0.00107607 0)
(1.24241 -0.0354803 0)
(1.28328 -0.0380907 0)
(1.29704 -0.0404145 0)
(1.29845 -0.0410272 0)
(1.29505 -0.0408678 0)
(1.28992 -0.0403907 0)
(1.2842 -0.039691 0)
(1.27841 -0.0388043 0)
(1.27279 -0.0377644 0)
(1.26745 -0.036597 0)
(1.26241 -0.0353194 0)
(1.25764 -0.0339436 0)
(1.25314 -0.0324796 0)
(1.24887 -0.0309366 0)
(1.24484 -0.0293235 0)
(1.24104 -0.0276487 0)
(1.23749 -0.0259201 0)
(1.23417 -0.024145 0)
(1.2311 -0.02233 0)
(1.22827 -0.0204808 0)
(1.2257 -0.0186026 0)
(1.22338 -0.0167001 0)
(1.22132 -0.0147771 0)
(1.21951 -0.0128372 0)
(1.21796 -0.0108836 0)
(1.21667 -0.00891888 0)
(1.21563 -0.0069454 0)
(1.21485 -0.00496584 0)
(1.21434 -0.00297993 0)
(1.21408 -0.000994741 0)
(1.23713 -0.0298849 0)
(1.28036 -0.0325819 0)
(1.2958 -0.0351666 0)
(1.29813 -0.0359902 0)
(1.29521 -0.0360484 0)
(1.29035 -0.0357884 0)
(1.28482 -0.0353031 0)
(1.27919 -0.0346307 0)
(1.2737 -0.033805 0)
(1.26846 -0.0328511 0)
(1.26352 -0.0317854 0)
(1.25884 -0.0306195 0)
(1.25441 -0.029363 0)
(1.25022 -0.0280246 0)
(1.24625 -0.0266129 0)
(1.2425 -0.0251359 0)
(1.23899 -0.0236015 0)
(1.23572 -0.0220167 0)
(1.23268 -0.0203882 0)
(1.22989 -0.0187218 0)
(1.22735 -0.017023 0)
(1.22505 -0.0152963 0)
(1.223 -0.0135462 0)
(1.22121 -0.0117763 0)
(1.21967 -0.00999022 0)
(1.21839 -0.00819089 0)
(1.21736 -0.00638105 0)
(1.21659 -0.00456364 0)
(1.21608 -0.00273926 0)
(1.21582 -0.000914281 0)
(1.23195 -0.0245233 0)
(1.27732 -0.027266 0)
(1.29437 -0.0300929 0)
(1.29761 -0.0311077 0)
(1.29517 -0.0313727 0)
(1.29059 -0.0313203 0)
(1.28526 -0.0310395 0)
(1.27977 -0.0305714 0)
(1.27441 -0.0299502 0)
(1.26929 -0.0292002 0)
(1.26444 -0.0283372 0)
(1.25985 -0.0273726 0)
(1.2555 -0.0263154 0)
(1.25138 -0.0251741 0)
(1.24747 -0.0239567 0)
(1.24379 -0.0226711 0)
(1.24033 -0.0213249 0)
(1.2371 -0.0199251 0)
(1.2341 -0.0184783 0)
(1.23135 -0.0169904 0)
(1.22883 -0.0154669 0)
(1.22656 -0.0139126 0)
(1.22453 -0.0123321 0)
(1.22276 -0.0107294 0)
(1.22123 -0.00910826 0)
(1.21996 -0.00747196 0)
(1.21894 -0.00582356 0)
(1.21818 -0.00416626 0)
(1.21767 -0.0025014 0)
(1.21742 -0.000834825 0)
(1.22689 -0.0193833 0)
(1.27417 -0.0221357 0)
(1.29277 -0.0251922 0)
(1.29691 -0.0263756 0)
(1.29495 -0.0268385 0)
(1.29065 -0.0269847 0)
(1.28551 -0.0268992 0)
(1.28018 -0.0266257 0)
(1.27495 -0.0261996 0)
(1.26994 -0.0256445 0)
(1.26519 -0.0249759 0)
(1.26069 -0.0242043 0)
(1.25642 -0.0233388 0)
(1.25237 -0.0223872 0)
(1.24853 -0.0213574 0)
(1.24491 -0.0202569 0)
(1.2415 -0.0190931 0)
(1.23832 -0.017873 0)
(1.23536 -0.0166029 0)
(1.23264 -0.015289 0)
(1.23016 -0.0139368 0)
(1.22791 -0.0125512 0)
(1.22591 -0.011137 0)
(1.22415 -0.00969835 0)
(1.22265 -0.00823925 0)
(1.22139 -0.00676333 0)
(1.22038 -0.00527391 0)
(1.21962 -0.0037744 0)
(1.21912 -0.00226677 0)
(1.21887 -0.000756502 0)
(1.22198 -0.0144574 0)
(1.27095 -0.017186 0)
(1.29102 -0.0204653 0)
(1.29603 -0.0217882 0)
(1.29455 -0.0224421 0)
(1.29053 -0.0227803 0)
(1.28559 -0.0228811 0)
(1.28041 -0.0227929 0)
(1.27531 -0.022553 0)
(1.27041 -0.0221845 0)
(1.26576 -0.0217021 0)
(1.26135 -0.0211159 0)
(1.25716 -0.0204346 0)
(1.25319 -0.0196658 0)
(1.24942 -0.0188169 0)
(1.24586 -0.0178953 0)
(1.24251 -0.0169082 0)
(1.23937 -0.0158624 0)
(1.23646 -0.0147643 0)
(1.23378 -0.0136199 0)
(1.23133 -0.0124347 0)
(1.22911 -0.011214 0)
(1.22714 -0.0099625 0)
(1.2254 -0.00868464 0)
(1.22391 -0.00738457 0)
(1.22267 -0.00606617 0)
(1.22167 -0.004733 0)
(1.22092 -0.00338871 0)
(1.22042 -0.00203577 0)
(1.22018 -0.000679429 0)
(1.2172 -0.00973441 0)
(1.26767 -0.0124171 0)
(1.28913 -0.0159116 0)
(1.29498 -0.0173383 0)
(1.29398 -0.0181834 0)
(1.29025 -0.0187065 0)
(1.2855 -0.0189839 0)
(1.28048 -0.0190719 0)
(1.2755 -0.0190099 0)
(1.27071 -0.0188203 0)
(1.26616 -0.0185165 0)
(1.26184 -0.0181083 0)
(1.25774 -0.0176041 0)
(1.25384 -0.0170112 0)
(1.25015 -0.0163369 0)
(1.24665 -0.0155883 0)
(1.24336 -0.0147723 0)
(1.24027 -0.0138955 0)
(1.23741 -0.0129644 0)
(1.23477 -0.0119849 0)
(1.23235 -0.0109626 0)
(1.23017 -0.00990274 0)
(1.22822 -0.00881025 0)
(1.22651 -0.00768971 0)
(1.22504 -0.00654543 0)
(1.22381 -0.00538148 0)
(1.22282 -0.00420165 0)
(1.22208 -0.00300977 0)
(1.22159 -0.00180877 0)
(1.22135 -0.000603714 0)
(1.21256 -0.00520472 0)
(1.26436 -0.00783433 0)
(1.28713 -0.0115285 0)
(1.29376 -0.0130184 0)
(1.29325 -0.0140607 0)
(1.28981 -0.0147623 0)
(1.28526 -0.0152054 0)
(1.28038 -0.015461 0)
(1.27553 -0.0155698 0)
(1.27086 -0.0155517 0)
(1.2664 -0.0154193 0)
(1.26218 -0.0151821 0)
(1.25816 -0.0148482 0)
(1.25434 -0.0144248 0)
(1.25072 -0.0139189 0)
(1.24728 -0.0133374 0)
(1.24405 -0.0126868 0)
(1.24102 -0.0119739 0)
(1.23821 -0.0112049 0)
(1.23561 -0.0103857 0)
(1.23323 -0.00952189 0)
(1.23108 -0.00861888 0)
(1.22916 -0.00768161 0)
(1.22747 -0.00671479 0)
(1.22602 -0.00572289 0)
(1.22481 -0.00471015 0)
(1.22383 -0.00368055 0)
(1.2231 -0.0026381 0)
(1.22262 -0.00158608 0)
(1.22238 -0.000529454 0)
(1.20805 -0.000914898 0)
(1.26107 -0.00345348 0)
(1.28501 -0.00730002 0)
(1.2924 -0.00882561 0)
(1.29239 -0.0100805 0)
(1.28923 -0.0109442 0)
(1.28487 -0.0115421 0)
(1.28014 -0.0119588 0)
(1.27541 -0.0122319 0)
(1.27085 -0.0123786 0)
(1.2665 -0.0124106 0)
(1.26236 -0.0123375 0)
(1.25843 -0.0121675 0)
(1.25469 -0.0119074 0)
(1.25114 -0.011564 0)
(1.24777 -0.0111437 0)
(1.2446 -0.0106532 0)
(1.24163 -0.010099 0)
(1.23886 -0.00948713 0)
(1.2363 -0.00882361 0)
(1.23396 -0.00811402 0)
(1.23185 -0.00736371 0)
(1.22996 -0.00657775 0)
(1.22829 -0.00576094 0)
(1.22687 -0.00491788 0)
(1.22567 -0.00405296 0)
(1.22471 -0.00317032 0)
(1.22399 -0.00227412 0)
(1.22351 -0.00136796 0)
(1.22328 -0.000456733 0)
(1.20369 0.00324533 0)
(1.25784 0.000723441 0)
(1.28277 -0.0032009 0)
(1.29091 -0.0047686 0)
(1.29139 -0.00624034 0)
(1.2885 -0.00724467 0)
(1.28433 -0.00799062 0)
(1.27975 -0.00856448 0)
(1.27515 -0.00899588 0)
(1.27069 -0.0093004 0)
(1.26644 -0.00949013 0)
(1.2624 -0.00957493 0)
(1.25855 -0.00956257 0)
(1.25489 -0.00945975 0)
(1.25141 -0.00927287 0)
(1.24811 -0.00900834 0)
(1.245 -0.00867259 0)
(1.24209 -0.0082719 0)
(1.23937 -0.00781239 0)
(1.23686 -0.00729993 0)
(1.23456 -0.00674012 0)
(1.23248 -0.00613833 0)
(1.23062 -0.00549968 0)
(1.22898 -0.00482908 0)
(1.22758 -0.00413121 0)
(1.2264 -0.00341058 0)
(1.22546 -0.0026715 0)
(1.22475 -0.00191823 0)
(1.22428 -0.00115466 0)
(1.22404 -0.000385626 0)
(1.19954 0.00723827 0)
(1.25466 0.00471772 0)
(1.28041 0.000811723 0)
(1.28932 -0.00086064 0)
(1.29025 -0.00253856 0)
(1.28763 -0.00365681 0)
(1.28365 -0.00455096 0)
(1.27921 -0.00527764 0)
(1.27474 -0.00586068 0)
(1.2704 -0.00631645 0)
(1.26625 -0.00665773 0)
(1.2623 -0.0068943 0)
(1.25853 -0.00703366 0)
(1.25495 -0.00708227 0)
(1.25155 -0.00704633 0)
(1.24832 -0.00693208 0)
(1.24527 -0.00674579 0)
(1.24241 -0.00649364 0)
(1.23974 -0.00618164 0)
(1.23728 -0.00581561 0)
(1.23502 -0.00540116 0)
(1.23298 -0.00494366 0)
(1.23115 -0.00444828 0)
(1.22954 -0.00391999 0)
(1.22816 -0.00336355 0)
(1.227 -0.00278359 0)
(1.22607 -0.00218454 0)
(1.22538 -0.00157077 0)
(1.22491 -0.000946376 0)
(1.22468 -0.000316199 0)
(1.19559 0.0110581 0)
(1.25146 0.00857973 0)
(1.27796 0.00470594 0)
(1.28764 0.00287735 0)
(1.28898 0.00105818 0)
(1.28663 -0.000179838 0)
(1.28283 -0.00122514 0)
(1.27855 -0.00209746 0)
(1.2742 -0.00282516 0)
(1.26997 -0.00342606 0)
(1.26591 -0.00391307 0)
(1.26206 -0.00429564 0)
(1.25838 -0.00458099 0)
(1.25488 -0.00477538 0)
(1.25155 -0.00488486 0)
(1.24839 -0.00491555 0)
(1.2454 -0.00487357 0)
(1.2426 -0.00476496 0)
(1.23999 -0.00459568 0)
(1.23757 -0.00437149 0)
(1.23536 -0.00409796 0)
(1.23335 -0.0037805 0)
(1.23155 -0.00342428 0)
(1.22997 -0.00303434 0)
(1.22862 -0.00261552 0)
(1.22748 -0.00217251 0)
(1.22657 -0.00170984 0)
(1.22588 -0.00123202 0)
(1.22542 -0.000743292 0)
(1.2252 -0.000248508 0)
(1.19182 0.0147268 0)
(1.24823 0.0123135 0)
(1.27548 0.00846002 0)
(1.28584 0.00646957 0)
(1.28758 0.00454929 0)
(1.2855 0.00317792 0)
(1.28189 0.00199046 0)
(1.27776 0.000978477 0)
(1.27353 0.000111825 0)
(1.2694 -0.000628706 0)
(1.26545 -0.0012559 0)
(1.26169 -0.00177887 0)
(1.2581 -0.00220462 0)
(1.25468 -0.0025393 0)
(1.25142 -0.00278885 0)
(1.24833 -0.00295925 0)
(1.24541 -0.00305649 0)
(1.24266 -0.00308655 0)
(1.2401 -0.00305523 0)
(1.23773 -0.00296825 0)
(1.23556 -0.00283122 0)
(1.23359 -0.0026495 0)
(1.23183 -0.00242832 0)
(1.23028 -0.00217271 0)
(1.22895 -0.0018876 0)
(1.22783 -0.00157774 0)
(1.22693 -0.00124775 0)
(1.22626 -0.000902227 0)
(1.22581 -0.000545559 0)
(1.22559 -0.000182603 0)
(1.18822 0.0182577 0)
(1.24501 0.0159093 0)
(1.27295 0.0120738 0)
(1.28392 0.00993509 0)
(1.28606 0.00792436 0)
(1.28425 0.0064172 0)
(1.28083 0.00509676 0)
(1.27684 0.0039514 0)
(1.27273 0.00295103 0)
(1.26872 0.00207607 0)
(1.26486 0.00131406 0)
(1.26119 0.000656143 0)
(1.25769 9.53857e-05 0)
(1.25435 -0.000374227 0)
(1.25117 -0.000758563 0)
(1.24814 -0.00106354 0)
(1.24529 -0.00129503 0)
(1.2426 -0.00145886 0)
(1.2401 -0.00156078 0)
(1.23778 -0.00160648 0)
(1.23565 -0.00160149 0)
(1.23372 -0.00155123 0)
(1.23199 -0.0014609 0)
(1.23047 -0.00133558 0)
(1.22916 -0.00118022 0)
(1.22806 -0.000999648 0)
(1.22718 -0.000798559 0)
(1.22652 -0.000581603 0)
(1.22608 -0.000353304 0)
(1.22586 -0.000118525 0)
(1.18476 0.021655 -1.11098e-11)
(1.24181 0.019365 -1.08418e-11)
(1.27038 0.0155516 0)
(1.2819 0.01328 -1.03338e-11)
(1.28443 0.0111792 -1.00855e-11)
(1.28289 0.0095411 -2.83774e-28)
(1.27965 0.00809447 9.61467e-12)
(1.2758 0.00682162 9.39438e-12)
(1.27182 0.00569276 0)
(1.26791 0.0046886 0)
(1.26416 0.00379709 0)
(1.26057 0.00300957 0)
(1.25716 0.00231914 0)
(1.2539 0.00171981 0)
(1.25079 0.0012058 0)
(1.24784 0.000771295 0)
(1.24505 0.000410532 0)
(1.24242 0.00011763 0)
(1.23997 -0.000112857 0)
(1.2377 -0.000286552 0)
(1.23561 -0.000409224 7.44328e-12)
(1.23372 -0.000486116 1.47221e-11)
(1.23203 -0.000522446 7.28818e-12)
(1.23054 -0.00052332 0)
(1.22925 -0.000493726 -7.17013e-12)
(1.22818 -0.000438533 -7.12487e-12)
(1.22732 -0.000362493 0)
(1.22667 -0.00027032 -7.06162e-12)
(1.22623 -0.000166633 -7.04358e-12)
(1.22602 -5.63081e-05 -2.02828e-28)
(1.18145 0.0249205 1.11099e-11)
(1.23865 0.0226842 1.08418e-11)
(1.26776 0.0188963 0)
(1.27978 0.0165047 1.03338e-11)
(1.28269 0.0143142 1.00855e-11)
(1.28141 0.0125519 2.83774e-28)
(1.27835 0.0109846 -9.61467e-12)
(1.27464 0.00958948 -9.39438e-12)
(1.27078 0.00833729 0)
(1.26699 0.00720919 0)
(1.26333 0.00619347 0)
(1.25984 0.00528162 0)
(1.25651 0.00446672 0)
(1.25333 0.00374279 0)
(1.2503 0.00310414 0)
(1.24742 0.00254506 0)
(1.24469 0.00205987 0)
(1.24213 0.00164278 0)
(1.23973 0.00128838 0)
(1.2375 0.000991088 0)
(1.23546 0.000745199 -7.44328e-12)
(1.23361 0.000545473 -1.47221e-11)
(1.23196 0.000386693 -7.28818e-12)
(1.23049 0.000263738 0)
(1.22924 0.000171596 7.17013e-12)
(1.22818 0.000105364 7.12487e-12)
(1.22734 6.02464e-05 0)
(1.2267 3.14779e-05 7.06162e-12)
(1.22628 1.43653e-05 7.04358e-12)
(1.22607 4.01934e-06 2.02828e-28)
(1.17827 0.0280566 0)
(1.23552 0.0258708 0)
(1.26509 0.0221094 0)
(1.27758 0.0196088 0)
(1.28085 0.0173311 0)
(1.27982 0.0154509 0)
(1.27695 0.0137679 0)
(1.27338 0.0122555 0)
(1.26964 0.0108851 0)
(1.26595 0.00963822 0)
(1.2624 0.00850352 0)
(1.259 0.00747249 0)
(1.25575 0.00653822 0)
(1.25265 0.00569474 0)
(1.2497 0.00493643 0)
(1.24689 0.00425767 0)
(1.24422 0.00365287 0)
(1.24172 0.00311634 0)
(1.23937 0.00264263 0)
(1.2372 0.00222622 0)
(1.23521 0.00186152 0)
(1.23339 0.00154327 0)
(1.23177 0.00126626 0)
(1.23034 0.00102535 0)
(1.22911 0.00081553 0)
(1.22808 0.00063186 0)
(1.22725 0.000469513 0)
(1.22662 0.000323685 0)
(1.22621 0.000189624 0)
(1.226 6.24325e-05 0)
(1.17522 0.0310657 0)
(1.23242 0.0289277 0)
(1.26238 0.0251923 0)
(1.2753 0.0225929 0)
(1.27892 0.0202307 0)
(1.27813 0.0182389 0)
(1.27543 0.016445 0)
(1.27201 0.0148202 0)
(1.2684 0.0133366 0)
(1.26481 0.0119761 0)
(1.26136 0.0107276 0)
(1.25805 0.00958243 0)
(1.25489 0.00853381 0)
(1.25187 0.00757577 0)
(1.24899 0.00670271 0)
(1.24625 0.00590912 0)
(1.24365 0.00518947 0)
(1.2412 0.00453816 0)
(1.23891 0.00394973 0)
(1.23679 0.00341869 0)
(1.23484 0.00293957 0)
(1.23307 0.0025071 0)
(1.23148 0.00211607 0)
(1.23008 0.00176135 0)
(1.22888 0.00143791 0)
(1.22787 0.00114081 0)
(1.22705 0.000865187 0)
(1.22644 0.000606214 0)
(1.22604 0.000359088 0)
(1.22584 0.000118915 0)
(1.17228 0.03395 0)
(1.22935 0.0318564 0)
(1.25964 0.0281461 0)
(1.27294 0.0254573 0)
(1.27689 0.0230139 0)
(1.27634 0.0209162 0)
(1.27382 0.0190164 0)
(1.27054 0.0172842 0)
(1.26705 0.0156924 0)
(1.26357 0.0142234 0)
(1.26021 0.012866 0)
(1.257 0.0116117 0)
(1.25392 0.0104537 0)
(1.25098 0.00938602 0)
(1.24818 0.00840309 0)
(1.24551 0.00749946 0)
(1.24297 0.00666968 0)
(1.24059 0.00590819 0)
(1.23835 0.00520957 0)
(1.23628 0.00456839 0)
(1.23437 0.00397922 0)
(1.23264 0.00343682 0)
(1.23109 0.00293598 0)
(1.22972 0.00247159 0)
(1.22854 0.00203862 0)
(1.22755 0.00163211 0)
(1.22676 0.00124718 0)
(1.22616 0.000878999 0)
(1.22577 0.00052272 0)
(1.22557 0.000173454 0)
(1.16944 0.0367114 0)
(1.22631 0.0346582 0)
(1.25686 0.0309718 0)
(1.27052 0.0282024 0)
(1.27478 0.0256811 0)
(1.27446 0.0234833 0)
(1.27212 0.0214825 0)
(1.26898 0.0196479 0)
(1.2656 0.0179529 0)
(1.26223 0.0163804 0)
(1.25897 0.0149191 0)
(1.25585 0.0135607 0)
(1.25286 0.0122982 0)
(1.25 0.0111257 0)
(1.24727 0.0100377 0)
(1.24467 0.0090288 0)
(1.2422 0.00809354 0)
(1.23987 0.00722646 0)
(1.23769 0.00642218 0)
(1.23567 0.00567529 0)
(1.23381 0.00498043 0)
(1.23212 0.00433238 0)
(1.2306 0.00372594 0)
(1.22927 0.00315602 0)
(1.22811 0.00261758 0)
(1.22714 0.00210569 0)
(1.22637 0.00161545 0)
(1.22578 0.001142 0)
(1.22539 0.000680492 0)
(1.2252 0.000226041 0)
(1.16671 0.0393509 0)
(1.2233 0.0373341 0)
(1.25405 0.0336704 0)
(1.26803 0.0308283 0)
(1.27259 0.0282328 0)
(1.2725 0.0259404 0)
(1.27032 0.0238436 0)
(1.26732 0.0219117 0)
(1.26406 0.0201186 0)
(1.2608 0.0184475 0)
(1.25764 0.0168873 0)
(1.25461 0.0154296 0)
(1.2517 0.0140675 0)
(1.24892 0.0127951 0)
(1.24626 0.0116068 0)
(1.24373 0.0104973 0)
(1.24133 0.00946119 0)
(1.23906 0.00849308 0)
(1.23694 0.00758761 0)
(1.23496 0.00673943 0)
(1.23315 0.00594321 0)
(1.2315 0.00519376 0)
(1.23002 0.00448591 0)
(1.22871 0.00381459 0)
(1.22759 0.00317477 0)
(1.22664 0.00256152 0)
(1.22588 0.00196995 0)
(1.22531 0.00139519 0)
(1.22493 0.000832391 0)
(1.22474 0.000276672 0)
(1.16406 0.0418696 0)
(1.22032 0.0398847 0)
(1.25121 0.0362426 0)
(1.26548 0.0333352 0)
(1.27032 0.0306692 0)
(1.27044 0.0282878 0)
(1.26844 0.0261003 0)
(1.26558 0.024076 0)
(1.26244 0.0221898 0)
(1.25929 0.0204251 0)
(1.25622 0.018771 0)
(1.25327 0.017219 0)
(1.25045 0.0157621 0)
(1.24775 0.0143945 0)
(1.24517 0.0131106 0)
(1.24271 0.0119052 0)
(1.24037 0.0107728 0)
(1.23816 0.0097082 0)
(1.23609 0.00870599 0)
(1.23417 0.00776089 0)
(1.2324 0.00686762 0)
(1.23079 0.00602101 0)
(1.22934 0.00521593 0)
(1.22807 0.00444733 0)
(1.22697 0.00371019 0)
(1.22605 0.00299961 0)
(1.2253 0.00231069 0)
(1.22475 0.00163858 0)
(1.22437 0.000978415 0)
(1.22419 0.000325346 0)
(1.16149 0.0442679 0)
(1.21736 0.0423103 0)
(1.24835 0.0386891 0)
(1.26288 0.035723 0)
(1.26797 0.0329907 0)
(1.26831 0.0305259 0)
(1.26648 0.0282527 0)
(1.26375 0.0261413 0)
(1.26073 0.024167 0)
(1.25768 0.0223137 0)
(1.25472 0.0205706 0)
(1.25186 0.0189291 0)
(1.24912 0.0173822 0)
(1.2465 0.0159242 0)
(1.24399 0.0145495 0)
(1.2416 0.0132527 0)
(1.23932 0.0120287 0)
(1.23718 0.010872 0)
(1.23516 0.0097775 0)
(1.23329 0.00873983 0)
(1.23156 0.00775379 0)
(1.22999 0.00681424 0)
(1.22858 0.00591608 0)
(1.22734 0.00505429 0)
(1.22626 0.0042239 0)
(1.22536 0.00341998 0)
(1.22464 0.00263769 0)
(1.2241 0.00187217 0)
(1.22373 0.00111857 0)
(1.22355 0.000372066 0)
(1.15899 0.0465459 0)
(1.21443 0.0446112 0)
(1.24547 0.0410103 0)
(1.26022 0.0379919 0)
(1.26556 0.0351975 0)
(1.26611 0.032655 0)
(1.26444 0.0303014 0)
(1.26185 0.0281079 0)
(1.25895 0.0260506 0)
(1.256 0.0241138 0)
(1.25313 0.0222865 0)
(1.25037 0.0205604 0)
(1.24771 0.0189284 0)
(1.24517 0.0173847 0)
(1.24273 0.0159238 0)
(1.24041 0.0145403 0)
(1.2382 0.0132291 0)
(1.23611 0.0119849 0)
(1.23415 0.0108024 0)
(1.23232 0.00967645 0)
(1.23064 0.00860188 0)
(1.22911 0.00757358 0)
(1.22774 0.00658648 0)
(1.22652 0.00563559 0)
(1.22548 0.00471596 0)
(1.2246 0.00382271 0)
(1.22389 0.002951 0)
(1.22336 0.002096 0)
(1.22301 0.00125288 0)
(1.22283 0.000416838 0)
(1.15655 0.0487039 0)
(1.21152 0.0467875 0)
(1.24257 0.0432066 0)
(1.25752 0.0401418 0)
(1.26309 0.0372898 0)
(1.26383 0.0346753 0)
(1.26233 0.0322466 0)
(1.25987 0.0299762 0)
(1.25709 0.0278411 0)
(1.25425 0.0258257 0)
(1.25147 0.0239193 0)
(1.2488 0.0221134 0)
(1.24623 0.0204011 0)
(1.24376 0.0187764 0)
(1.2414 0.0172339 0)
(1.23914 0.0157683 0)
(1.23699 0.0143744 0)
(1.23496 0.013047 0)
(1.23305 0.0117809 0)
(1.23128 0.010571 0)
(1.22964 0.00941213 0)
(1.22815 0.00829924 0)
(1.22681 0.00722729 0)
(1.22563 0.00619135 0)
(1.22461 0.00518649 0)
(1.22375 0.00420788 0)
(1.22306 0.00325068 0)
(1.22255 0.00231012 0)
(1.2222 0.00138137 0)
(1.22203 0.000459671 0)
(1.15418 0.0507415 0)
(1.20864 0.0488394 0)
(1.23965 0.0452787 0)
(1.25477 0.042173 0)
(1.26056 0.0392682 0)
(1.2615 0.0365872 0)
(1.26015 0.0340889 0)
(1.25783 0.0317469 0)
(1.25516 0.0295391 0)
(1.25243 0.0274502 0)
(1.24974 0.0254696 0)
(1.24716 0.0235888 0)
(1.24467 0.0218008 0)
(1.24228 0.0200998 0)
(1.23999 0.0184803 0)
(1.2378 0.0169371 0)
(1.23571 0.015465 0)
(1.23374 0.0140588 0)
(1.23189 0.0127134 0)
(1.23016 0.0114238 0)
(1.22857 0.0101848 0)
(1.22712 0.00899144 0)
(1.22581 0.00783872 0)
(1.22466 0.00672174 0)
(1.22367 0.00563564 0)
(1.22283 0.00457559 0)
(1.22216 0.00353683 0)
(1.22165 0.00251458 0)
(1.22132 0.00150408 0)
(1.22115 0.000500577 0)
(1.15185 0.0526588 0)
(1.20578 0.0507671 0)
(1.23672 0.0472268 0)
(1.25198 0.0440858 0)
(1.25798 0.0411329 0)
(1.2591 0.0383913 0)
(1.25791 0.0358288 0)
(1.25572 0.0334206 0)
(1.25317 0.0311452 0)
(1.25054 0.0289878 0)
(1.24795 0.0269379 0)
(1.24545 0.024987 0)
(1.24304 0.0231282 0)
(1.24073 0.0213556 0)
(1.23851 0.0196637 0)
(1.23639 0.0180473 0)
(1.23437 0.0165014 0)
(1.23245 0.0150207 0)
(1.23065 0.0136004 0)
(1.22897 0.0122352 0)
(1.22742 0.0109202 0)
(1.22601 0.00965046 0)
(1.22474 0.00842101 0)
(1.22362 0.00722698 0)
(1.22265 0.00606357 0)
(1.22184 0.00492601 0)
(1.22118 0.00380955 0)
(1.22069 0.00270947 0)
(1.22036 0.00162105 0)
(1.2202 0.000539572 0)
(1.14957 0.0544555 0)
(1.20293 0.0525707 0)
(1.23378 0.0490516 0)
(1.24917 0.0458805 0)
(1.25535 0.0428846 0)
(1.25665 0.0400882 0)
(1.25561 0.037467 0)
(1.25355 0.0349978 0)
(1.25111 0.03266 0)
(1.24859 0.0304393 0)
(1.24609 0.028325 0)
(1.24368 0.0263089 0)
(1.24135 0.024384 0)
(1.23912 0.0225443 0)
(1.23697 0.0207845 0)
(1.23491 0.0190995 0)
(1.23295 0.0174841 0)
(1.23109 0.0159333 0)
(1.22935 0.0144422 0)
(1.22772 0.0130056 0)
(1.22621 0.0116188 0)
(1.22484 0.0102766 0)
(1.2236 0.00897443 0)
(1.22251 0.0077073 0)
(1.22157 0.00647049 0)
(1.22078 0.00525927 0)
(1.22014 0.00406896 0)
(1.21966 0.00289488 0)
(1.21934 0.00173233 0)
(1.21918 0.000576672 0)
(1.14733 0.0561315 0)
(1.20011 0.0542506 0)
(1.23083 0.0507537 0)
(1.24632 0.0475579 0)
(1.25267 0.044524 0)
(1.25415 0.0416785 0)
(1.25326 0.0390041 0)
(1.25133 0.0364794 0)
(1.24901 0.0340845 0)
(1.24658 0.0318055 0)
(1.24418 0.0296318 0)
(1.24185 0.0275552 0)
(1.23961 0.0255688 0)
(1.23745 0.0236667 0)
(1.23537 0.0218436 0)
(1.23338 0.0200942 0)
(1.23148 0.0184137 0)
(1.22968 0.0167971 0)
(1.22798 0.0152393 0)
(1.2264 0.0137355 0)
(1.22493 0.0122808 0)
(1.2236 0.0108703 0)
(1.2224 0.00949931 0)
(1.22134 0.00816297 0)
(1.22042 0.00685662 0)
(1.21965 0.00557558 0)
(1.21903 0.00431521 0)
(1.21856 0.00307089 0)
(1.21825 0.00183798 0)
(1.21809 0.000611899 0)
(1.14513 0.057687 0)
(1.19731 0.0558075 0)
(1.22787 0.0523341 0)
(1.24345 0.0491186 0)
(1.24997 0.0460519 0)
(1.25161 0.0431632 0)
(1.25087 0.0404413 0)
(1.24906 0.0378664 0)
(1.24685 0.0354196 0)
(1.24452 0.0330873 0)
(1.24222 0.0308591 0)
(1.23997 0.0287268 0)
(1.23781 0.0266836 0)
(1.23572 0.0247237 0)
(1.23371 0.0228416 0)
(1.23178 0.0210323 0)
(1.22994 0.0192909 0)
(1.2282 0.0176126 0)
(1.22655 0.0159923 0)
(1.22502 0.0144253 0)
(1.2236 0.0129068 0)
(1.2223 0.0114319 0)
(1.22113 0.00999599 0)
(1.2201 0.0085943 0)
(1.21921 0.00722222 0)
(1.21846 0.00587513 0)
(1.21785 0.00454845 0)
(1.2174 0.00323763 0)
(1.21709 0.00193808 0)
(1.21694 0.000645274 0)
(1.14297 0.0591224 0)
(1.19453 0.0572421 0)
(1.22492 0.0537939 0)
(1.24056 0.0505637 0)
(1.24722 0.0474696 0)
(1.24903 0.0445434 0)
(1.24843 0.0417795 0)
(1.24675 0.0391598 0)
(1.24465 0.0366663 0)
(1.24242 0.0342858 0)
(1.2402 0.032008 0)
(1.23804 0.0298248 0)
(1.23596 0.0277294 0)
(1.23394 0.025716 0)
(1.232 0.0237794 0)
(1.23014 0.0219145 0)
(1.22836 0.0201165 0)
(1.22667 0.0183806 0)
(1.22507 0.0167019 0)
(1.22358 0.0150757 0)
(1.2222 0.0134973 0)
(1.22094 0.0119619 0)
(1.21981 0.0104649 0)