/*--------------------------------*- C++ -*----------------------------------*\
  =========                 |
  \\      /  F ield         | OpenFOAM: The Open Source CFD Toolbox
   \\    /   O peration     | Website:  https://openfoam.org
    \\  /    A nd           | Version:  7
     \\/     M anipulation  |
\*---------------------------------------------------------------------------*/
FoamFile
{
    version     2.0;
    format      ascii;
    class       surfaceScalarField;
    location    "25";
    object      phi;
}
// * * * * * * * * * * * * * * * * * * * * * * * * * * * * * * * * * * * * * //

dimensions      [0 3 -1 0 0 0 0];

internalField   nonuniform List<scalar> 
21496
(
-1.13935e-05
1.13935e-05
2.07748e-13
-3.73543e-05
2.59608e-05
8.57827e-13
-7.24078e-05
3.50535e-05
1.01115e-12
-0.000112227
3.98189e-05
1.13088e-12
-0.000153224
4.09969e-05
1.27349e-12
-0.000192348
3.91243e-05
1.39793e-12
-0.000226941
3.4593e-05
1.52663e-12
-0.000254619
2.76779e-05
1.65565e-12
-0.000273184
1.85649e-05
1.78456e-12
-0.000280561
7.37728e-06
1.91997e-12
-0.000274764
-5.7964e-06
2.07571e-12
-0.000253891
-2.08736e-05
2.26146e-12
-0.000216148
-3.77426e-05
2.47515e-12
-0.00015994
-5.62078e-05
2.71083e-12
-8.4015e-05
-7.59255e-05
2.96301e-12
1.23045e-05
-9.63195e-05
3.22467e-12
0.000128804
-0.0001165
3.48922e-12
0.000263979
-0.000135174
3.74769e-12
0.000414335
-0.000150357
3.99189e-12
-0.000158971
4.21857e-12
0.000573306
-9.94074e-06
2.13342e-05
-3.2028e-05
4.8048e-05
-6.09618e-05
6.39873e-05
-9.24814e-05
7.13385e-05
-0.000123001
7.15166e-05
-0.000149425
6.55478e-05
-0.000169012
5.41805e-05
-0.000179272
3.79374e-05
-0.000177875
1.71687e-05
-0.000162599
-7.89891e-06
-0.000131288
-3.71077e-05
-8.18332e-05
-7.03283e-05
-1.21992e-05
-0.000107377
7.95224e-05
-0.000147929
0.000194989
-0.000191392
0.000335396
-0.000236726
0.000501144
-0.000282248
0.00069136
-0.00032539
0.000903052
-0.000362049
-0.000385533
0.00112961
-7.18456e-06
2.85188e-05
-2.1864e-05
6.27274e-05
-3.90391e-05
8.11624e-05
-5.45598e-05
8.68592e-05
-6.48328e-05
8.17896e-05
-6.66687e-05
6.73838e-05
-5.717e-05
4.46817e-05
-3.36384e-05
1.44058e-05
6.49464e-06
-2.29643e-05
6.57235e-05
-6.71278e-05
0.00014651
-0.000117895
0.0002513
-0.000175117
0.000382526
-0.000238603
0.000542593
-0.000307996
0.0007338
-0.000382599
0.000958184
-0.00046111
0.0012172
-0.000541263
0.00151113
-0.000619319
0.00183797
-0.000688893
-0.000738654
0.00219109
-3.37976e-06
3.18986e-05
-7.70382e-06
6.70515e-05
-8.32409e-06
8.17827e-05
-1.21059e-06
7.97457e-05
1.72585e-05
6.33205e-05
5.04102e-05
3.4232e-05
0.000101363
-6.27088e-06
0.000173086
-5.73171e-05
0.000268466
-0.000118344
0.000390336
-0.000188997
0.000541504
-0.000269063
0.000724778
-0.000358392
0.000942981
-0.000456806
0.00119896
-0.000563975
0.00149558
-0.00067922
0.00183566
-0.000801191
0.00222174
-0.000927345
0.00265549
-0.00105307
0.00313634
-0.00116974
-0.00126028
0.00365796
1.18637e-06
3.07122e-05
9.48148e-06
5.87564e-05
2.92038e-05
6.20604e-05
6.42806e-05
4.46689e-05
0.000118384
9.21706e-06
0.000195001
-4.23848e-05
0.000297487
-0.000108757
0.00042911
-0.00018894
0.00059306
-0.000282295
0.000792475
-0.000388412
0.00103043
-0.000507023
0.00130997
-0.000637927
0.00163406
-0.0007809
0.00200567
-0.000935583
0.00242776
-0.00110131
0.00290335
-0.00127678
0.00343547
-0.00145946
0.00402677
-0.00164437
0.00467825
-0.00182122
-0.00196704
0.00538502
6.26891e-06
2.44433e-05
2.88257e-05
3.61996e-05
7.17108e-05
1.91753e-05
0.000138763
-2.23828e-05
0.000233693
-8.5713e-05
0.000360123
-0.000168816
0.000521595
-0.000270228
0.000721567
-0.000388913
0.000963408
-0.000524136
0.00125036
-0.000675367
0.00158552
-0.000842182
0.00197178
-0.00102419
0.00241182
-0.00122094
0.00290807
-0.00143184
0.00346279
-0.00165602
0.00407812
-0.00189212
0.00475633
-0.00213767
0.0054998
-0.00238784
0.00631066
-0.00263208
-0.00284413
0.00718775
1.17147e-05
1.27286e-05
4.9717e-05
-1.80264e-06
0.000117781
-4.88883e-05
0.000219627
-0.000124229
0.000358929
-0.000225015
0.000539308
-0.000349194
0.000764298
-0.000495219
0.0010373
-0.000661917
0.00136153
-0.00084836
0.00173991
-0.00105375
0.00217504
-0.00127731
0.00266908
-0.00151823
0.0032237
-0.00177555
0.00383999
-0.00204813
0.00451849
-0.00233452
0.00525928
-0.0026329
0.00606226
-0.00294065
0.00692778
-0.00325337
0.00785802
-0.00356232
-0.0038457
0.0088596
1.74717e-05
-4.74317e-06
7.17843e-05
-5.61152e-05
0.000166409
-0.000143513
0.000304784
-0.000262604
0.000490338
-0.000410569
0.000726411
-0.000585266
0.00101616
-0.000784964
0.00136244
-0.0010082
0.00176774
-0.00125366
0.00223401
-0.00152002
0.0027626
-0.00180591
0.00335416
-0.00210979
0.00400857
-0.00242996
0.00472488
-0.00276444
0.00550134
-0.00311098
0.00633545
-0.00346701
0.00722421
-0.00382941
0.00816429
-0.00419345
0.00915293
-0.00455095
-0.00489635
0.0102036
2.35184e-05
-2.82616e-05
9.47968e-05
-0.000127394
0.000216719
-0.000265435
0.000392171
-0.000438057
0.000623958
-0.000642356
0.000914649
-0.000875957
0.00126642
-0.00113673
0.00168087
-0.00142266
0.00215891
-0.0017317
0.00270063
-0.00206173
0.00330517
-0.00241045
0.00397077
-0.00277539
0.00469472
-0.00315391
0.00547358
-0.00354329
0.00630336
-0.00394076
0.00717998
-0.00434364
0.00809995
-0.00474938
0.00906228
-0.00515578
0.0100738
-0.00556251
-0.00597518
0.0111527
2.98276e-05
-5.80892e-05
0.000118366
-0.000215932
0.000267498
-0.000414566
0.000479075
-0.000649634
0.000754705
-0.000917987
0.00109551
-0.00121676
0.00150186
-0.00154309
0.00197324
-0.00189403
0.00250799
-0.00226646
0.00310332
-0.00265706
0.0037552
-0.00306233
0.00445843
-0.00347862
0.0052068
-0.00390229
0.00599327
-0.00432976
0.00681021
-0.0047577
0.00764972
-0.00518314
0.00850392
-0.00560359
0.00936539
-0.00601725
0.0102262
-0.00642337
-0.00681945
0.0110705
3.62648e-05
-9.4354e-05
0.000141784
-0.000321452
0.000316842
-0.000589624
0.000561619
-0.00089441
0.00087581
-0.00123218
0.00125829
-0.00159923
0.00170681
-0.00199162
0.00221787
-0.00240509
0.00278657
-0.00283516
0.00340664
-0.00327714
0.00407061
-0.00372629
0.00476997
-0.00417799
0.00549556
-0.00462787
0.00623785
-0.00507206
0.00698742
-0.00550727
0.00773524
-0.00593096
0.00847296
-0.0063413
0.00919291
-0.00673721
0.00988728
-0.00711774
-0.00747931
0.0105471
4.25614e-05
-0.000136915
0.000163898
-0.000442788
0.000361988
-0.000787714
0.00063461
-0.00116703
0.000978786
-0.00157635
0.00139038
-0.00201083
0.00186387
-0.00246511
0.00239226
-0.00293347
0.00296713
-0.00341003
0.00357891
-0.00388892
0.00421724
-0.00436461
0.00487136
-0.00483211
0.0055307
-0.00528721
0.00618534
-0.0057267
0.00682647
-0.0061484
0.00744677
-0.00655126
0.00804064
-0.00693517
0.00860422
-0.00730079
0.00913533
-0.00764885
-0.007978
0.00963402
4.8316e-05
-0.000185231
0.000183154
-0.000577626
0.000399473
-0.00100403
0.000691952
-0.00145951
0.00105429
-0.00193869
0.00147881
-0.00243536
0.00195642
-0.00294271
0.00247665
-0.0034537
0.00302805
-0.00396142
0.00359863
-0.0044595
0.00417648
-0.00494247
0.0047504
-0.00540602
0.00531043
-0.00584725
0.00584843
-0.00626469
0.00635833
-0.0066583
0.00683633
-0.00702926
0.00728089
-0.00737973
0.00769248
-0.00771238
0.00807338
-0.00802975
-0.0083325
0.00842789
5.3037e-05
-0.000238268
0.000197774
-0.000722363
0.000425568
-0.00123183
0.000727473
-0.00176142
0.00109349
-0.0023047
0.00151232
-0.00285419
0.0019715
-0.0034019
0.0024578
-0.00394
0.00295779
-0.00446142
0.00345859
-0.0049603
0.00394851
-0.00543239
0.00441774
-0.00587525
0.00485877
-0.00628828
0.00526668
-0.0066726
0.0056391
-0.00703072
0.00597607
-0.00736624
0.00627964
-0.00768329
0.0065534
-0.00798614
0.00680207
-0.00827841
-0.00856197
0.00703154
5.62079e-05
-0.000294476
0.000206006
-0.000872162
0.000436825
-0.00146265
0.000735901
-0.00206049
0.00108959
-0.00265839
0.00148337
-0.00324797
0.00190225
-0.00382077
0.0023314
-0.00436915
0.00275696
-0.00488698
0.0031668
-0.00537013
0.00355113
-0.00581673
0.00390297
-0.00622709
0.00421824
-0.00660355
0.00449564
-0.00695
0.00473633
-0.00727141
0.00494333
-0.00757324
0.00512097
-0.00786094
0.00527428
-0.00813945
0.00540849
-0.00841263
-0.00868264
0.00552915
5.73583e-05
-0.000351835
0.000206376
-0.00102118
0.000430606
-0.00168688
0.000713701
-0.00234359
0.00103892
-0.00298361
0.00138942
-0.00359847
0.0017489
-0.00418025
0.00210244
-0.00472269
0.00243728
-0.00522183
0.0027435
-0.00567635
0.00301431
-0.00608754
0.00324616
-0.00645894
0.00343845
-0.00679584
0.00359303
-0.00710458
0.00371355
-0.00739192
0.00380473
-0.00766442
0.00387176
-0.00792796
0.00391971
-0.0081874
0.00395324
-0.00844616
-0.00870609
0.00397669
5.61256e-05
-0.00040796
0.000197889
-0.00116294
0.000405452
-0.00189444
0.000659576
-0.00259771
0.000941409
-0.00326545
0.00123304
-0.00389009
0.00151829
-0.00446551
0.00178359
-0.00498799
0.00201854
-0.00545678
0.00221627
-0.00587408
0.00237339
-0.00624466
0.00248963
-0.00657518
0.00256722
-0.00687343
0.00261013
-0.00714749
0.00262331
-0.0074051
0.00261197
-0.00765309
0.0025811
-0.00789709
0.00253505
-0.00814136
0.00247745
-0.00838855
-0.00864005
0.00241141
5.22994e-05
-0.00046026
0.000180155
-0.0012908
0.000361257
-0.00207554
0.000574569
-0.00281102
0.000800419
-0.0034913
0.00102123
-0.0041109
0.00122232
-0.0046666
0.00139256
-0.00515823
0.00152465
-0.00558887
0.00161504
-0.00596447
0.00166347
-0.00629309
0.00167228
-0.00658399
0.00164555
-0.0068467
0.00158828
-0.00709022
0.00150568
-0.0073225
0.00140264
-0.00755004
0.00128334
-0.0077778
0.00115113
-0.00800914
0.00100851
-0.00824593
-0.00848895
0.000857418
4.58453e-05
-0.000506105
0.000153423
-0.00139838
0.000299233
-0.00222135
0.000461812
-0.0029736
0.000622084
-0.00365157
0.000764126
-0.00425294
0.000875825
-0.0047783
0.00094918
-0.00523158
0.000980187
-0.00561988
0.000968348
-0.00595263
0.000915892
-0.00624064
0.000826871
-0.00649497
0.00070627
-0.00672609
0.000559249
-0.0069432
0.0003906
-0.00715385
0.000204416
-0.00736386
3.95142e-06
-0.00757733
-0.000208378
-0.00779681
-0.0004311
-0.00802321
-0.00825662
-0.000663437
3.69056e-05
-0.000543011
0.000118533
-0.00148
0.000221713
-0.00232453
0.000326038
-0.00307793
0.000414382
-0.00373991
0.000473563
-0.00431213
0.00049471
-0.00479944
0.000473174
-0.00521005
0.000408034
-0.00555474
0.000301262
-0.00584586
0.000156785
-0.00609616
-2.04681e-05
-0.00631772
-0.000225376
-0.00652119
-0.000453204
-0.00671538
-0.000699933
-0.00690713
-0.000962377
-0.00710141
-0.00123815
-0.00730156
-0.00152556
-0.0075094
-0.00182343
-0.00772535
-0.0079491
-0.00213094
2.5785e-05
-0.000568796
7.68205e-05
-0.00153104
0.000131863
-0.00237957
0.000172989
-0.00311905
0.000186206
-0.00375313
0.000161791
-0.00428771
9.44109e-05
-0.00473206
-1.7368e-05
-0.00509827
-0.000171903
-0.0054002
-0.000365408
-0.00565235
-0.000593006
-0.00586856
-0.000849574
-0.00606115
-0.00113037
-0.00624039
-0.00143142
-0.00641433
-0.00174962
-0.00658893
-0.00208271
-0.00676832
-0.00242908
-0.00695519
-0.0027875
-0.00715098
-0.00315688
-0.00735597
-0.00756961
-0.00353637
1.29758e-05
-0.000581771
2.99736e-05
-0.00154804
3.33723e-05
-0.00238297
8.97528e-06
-0.00309466
-5.34006e-05
-0.00369075
-0.000159478
-0.00418163
-0.000311087
-0.00458045
-0.000506846
-0.00490251
-0.000743098
-0.00516395
-0.00101496
-0.00538049
-0.00131722
-0.00556631
-0.00164499
-0.00573337
-0.00199421
-0.00589117
-0.00236175
-0.00604679
-0.00274545
-0.00620523
-0.00314392
-0.00636986
-0.00355626
-0.00654285
-0.00398169
-0.00672555
-0.00441895
-0.00691871
-0.00712214
-0.00486643
-1.32082e-06
-0.000580451
-2.02517e-05
-0.00152911
-7.00139e-05
-0.00233321
-0.000160093
-0.00300458
-0.000296028
-0.00355482
-0.000479665
-0.003998
-0.000709606
-0.00435051
-0.000982128
-0.00462999
-0.00129218
-0.0048539
-0.0016343
-0.00503836
-0.00200336
-0.00519725
-0.002395
-0.00534173
-0.0028059
-0.00548028
-0.00323376
-0.00561893
-0.00367721
-0.00576177
-0.00413561
-0.00591146
-0.00460883
-0.00606963
-0.00509673
-0.00623764
-0.00559791
-0.00641753
-0.00660853
-0.00611152
-1.59676e-05
-0.000564483
-7.17322e-05
-0.00147334
-0.000174379
-0.00223056
-0.000328092
-0.00285086
-0.000533795
-0.00334912
-0.000789474
-0.00374232
-0.00109091
-0.00404908
-0.00143259
-0.00428831
-0.00180858
-0.0044779
-0.00221331
-0.00463363
-0.00264202
-0.00476855
-0.003091
-0.00489274
-0.00355771
-0.00501357
-0.00404058
-0.00513606
-0.00453886
-0.00526349
-0.00505245
-0.00539787
-0.00558181
-0.00554027
-0.00612822
-0.00569123
-0.00669297
-0.00585278
-0.00603349
-0.00726801
-3.08741e-05
-0.000533609
-0.00012269
-0.00138152
-0.000276155
-0.0020771
-0.000489817
-0.0026372
-0.00075996
-0.00307897
-0.00108106
-0.00342122
-0.00144653
-0.00368361
-0.00184955
-0.00388529
-0.00228376
-0.00404369
-0.00274376
-0.00417364
-0.00322536
-0.00428695
-0.00372566
-0.00439244
-0.00424293
-0.0044963
-0.00477643
-0.00460256
-0.00532627
-0.00471365
-0.00589325
-0.00483089
-0.00647857
-0.00495495
-0.00708337
-0.00508643
-0.00771047
-0.00522567
-0.00536826
-0.0083757
-4.52704e-05
-0.000488339
-0.000171299
-0.0012555
-0.000372093
-0.0018763
-0.000640607
-0.00236869
-0.000968751
-0.00275083
-0.00134789
-0.00304207
-0.00176954
-0.00326196
-0.00222593
-0.00342889
-0.00271053
-0.00355909
-0.00321823
-0.00366594
-0.00374537
-0.00375981
-0.00428962
-0.00384819
-0.00484975
-0.00393617
-0.00542537
-0.00402694
-0.00601668
-0.00412234
-0.00662424
-0.00422333
-0.00724879
-0.0043304
-0.00789157
-0.00444365
-0.00855479
-0.00456246
-0.0046858
-0.00923726
-5.86534e-05
-0.000429685
-0.000215966
-0.00109818
-0.000459382
-0.00163289
-0.000776572
-0.0020515
-0.0011555
-0.0023719
-0.0015849
-0.00261268
-0.00205477
-0.00279209
-0.00255678
-0.00292689
-0.00308439
-0.00303148
-0.00363289
-0.00311744
-0.00419915
-0.00319355
-0.00478138
-0.00326596
-0.0053788
-0.00333875
-0.00599134
-0.0034144
-0.00661937
-0.00349431
-0.00726353
-0.00357917
-0.0079246
-0.00366933
-0.00860345
-0.0037648
-0.00930073
-0.00386518
-0.00397027
-0.0100162
-7.05558e-05
-0.000359129
-0.000255309
-0.00091343
-0.000535644
-0.00135255
-0.00089449
-0.00169265
-0.00131641
-0.00194998
-0.00178798
-0.00214111
-0.00229807
-0.00228199
-0.002838
-0.00238697
-0.00340136
-0.00246811
-0.00398385
-0.00253496
-0.00458283
-0.00259456
-0.00519699
-0.0026518
-0.00582592
-0.00270982
-0.00646984
-0.00277049
-0.00712931
-0.00283484
-0.0078051
-0.00290337
-0.0084981
-0.00297633
-0.00920917
-0.00305372
-0.00993907
-0.00313529
-0.00322104
-0.0106883
-8.05751e-05
-0.000278554
-0.000288172
-0.000705833
-0.000598931
-0.00104179
-0.00099178
-0.0012998
-0.0014485
-0.00149326
-0.00195397
-0.00163563
-0.00249627
-0.0017397
-0.0030665
-0.00181674
-0.00365846
-0.00187615
-0.00426822
-0.0019252
-0.00489357
-0.00196921
-0.00553358
-0.0020118
-0.00618815
-0.00205525
-0.00685774
-0.0021009
-0.0075431
-0.00214948
-0.00824513
-0.00220134
-0.00896482
-0.00225664
-0.00970316
-0.00231539
-0.010461
-0.00237739
-0.00244273
-0.0112394
-8.83827e-05
-0.000190172
-0.000313628
-0.000480588
-0.000647713
-0.000707709
-0.00106644
-0.000881077
-0.00154948
-0.00101022
-0.00208047
-0.00110464
-0.00264694
-0.00117323
-0.00323989
-0.00122379
-0.00385332
-0.00126271
-0.00448361
-0.00129491
-0.00512887
-0.00132395
-0.00578847
-0.0013522
-0.00646257
-0.00138115
-0.00715178
-0.00141168
-0.00785702
-0.00144424
-0.0085793
-0.00147906
-0.0093197
-0.00151623
-0.0100793
-0.00155576
-0.0108592
-0.00159752
-0.00164157
-0.0116604
-9.37282e-05
-9.64433e-05
-0.000330983
-0.000243333
-0.000680856
-0.000357837
-0.00111701
-0.000444921
-0.0016177
-0.000509537
-0.00216575
-0.00055659
-0.00274833
-0.000590648
-0.00335644
-0.000615685
-0.0039842
-0.000634942
-0.00462822
-0.000650898
-0.00528684
-0.000665326
-0.00595962
-0.000679412
-0.00664688
-0.000693892
-0.00734938
-0.00070919
-0.00806809
-0.000725528
-0.00880414
-0.000743014
-0.00955868
-0.000761697
-0.0103329
-0.000781573
-0.0111278
-0.000802579
-0.000824761
-0.0119446
-9.64433e-05
1.49201e-13
-0.000339776
5.52801e-13
-0.000697613
1.1069e-12
-0.00114253
1.27792e-12
-0.00165207
1.45297e-12
-0.00220866
1.5935e-12
-0.00279931
1.67787e-12
-0.00341499
1.7104e-12
-0.00404994
1.7104e-12
-0.00470083
1.68662e-12
-0.00536616
1.64836e-12
-0.00604557
1.59866e-12
-0.00673946
1.54381e-12
-0.00744865
1.48828e-12
-0.00817418
1.43275e-12
-0.0089172
1.38031e-12
-0.00967889
1.33671e-12
-0.0104605
1.30499e-12
-0.011263
1.28028e-12
1.26458e-12
-0.0120878
-9.64433e-05
9.64433e-05
-0.000339776
0.000243333
-0.000697613
0.000357837
-0.00114253
0.000444921
-0.00165207
0.000509537
-0.00220866
0.00055659
-0.00279931
0.000590648
-0.00341499
0.000615685
-0.00404994
0.000634942
-0.00470083
0.000650898
-0.00536616
0.000665326
-0.00604557
0.000679412
-0.00673946
0.000693892
-0.00744865
0.00070919
-0.00817418
0.000725528
-0.0089172
0.000743014
-0.00967889
0.000761697
-0.0104605
0.000781573
-0.011263
0.000802579
0.000824761
-0.0120878
-9.37282e-05
0.000190172
-0.000330983
0.000480588
-0.000680856
0.000707709
-0.00111701
0.000881077
-0.0016177
0.00101022
-0.00216575
0.00110464
-0.00274833
0.00117323
-0.00335644
0.00122379
-0.0039842
0.00126271
-0.00462822
0.00129491
-0.00528684
0.00132395
-0.00595962
0.0013522
-0.00664688
0.00138115
-0.00734938
0.00141168
-0.00806809
0.00144424
-0.00880414
0.00147906
-0.00955868
0.00151623
-0.0103329
0.00155576
-0.0111278
0.00159752
0.00164157
-0.0119446
-8.83827e-05
0.000278554
-0.000313628
0.000705833
-0.000647713
0.00104179
-0.00106644
0.0012998
-0.00154948
0.00149326
-0.00208047
0.00163563
-0.00264694
0.0017397
-0.00323989
0.00181674
-0.00385332
0.00187615
-0.00448361
0.0019252
-0.00512887
0.00196921
-0.00578847
0.0020118
-0.00646257
0.00205525
-0.00715178
0.0021009
-0.00785702
0.00214948
-0.0085793
0.00220134
-0.0093197
0.00225664
-0.0100793
0.00231539
-0.0108592
0.00237739
0.00244273
-0.0116604
-8.05751e-05
0.000359129
-0.000288172
0.00091343
-0.000598931
0.00135255
-0.00099178
0.00169265
-0.0014485
0.00194998
-0.00195397
0.00214111
-0.00249627
0.00228199
-0.0030665
0.00238697
-0.00365846
0.00246811
-0.00426822
0.00253496
-0.00489357
0.00259456
-0.00553358
0.0026518
-0.00618815
0.00270982
-0.00685774
0.00277049
-0.0075431
0.00283484
-0.00824513
0.00290337
-0.00896482
0.00297633
-0.00970316
0.00305372
-0.010461
0.00313529
0.00322104
-0.0112394
-7.05558e-05
0.000429685
-0.000255309
0.00109818
-0.000535644
0.00163289
-0.00089449
0.0020515
-0.00131641
0.0023719
-0.00178798
0.00261268
-0.00229807
0.00279209
-0.002838
0.00292689
-0.00340136
0.00303148
-0.00398385
0.00311744
-0.00458283
0.00319355
-0.00519699
0.00326596
-0.00582592
0.00333875
-0.00646984
0.0034144
-0.00712931
0.00349431
-0.0078051
0.00357917
-0.0084981
0.00366933
-0.00920917
0.0037648
-0.00993907
0.00386518
0.00397027
-0.0106883
-5.86534e-05
0.000488339
-0.000215966
0.0012555
-0.000459382
0.0018763
-0.000776572
0.00236869
-0.0011555
0.00275083
-0.0015849
0.00304207
-0.00205477
0.00326196
-0.00255678
0.00342889
-0.00308439
0.00355909
-0.00363289
0.00366594
-0.00419915
0.00375981
-0.00478138
0.00384819
-0.0053788
0.00393617
-0.00599134
0.00402694
-0.00661937
0.00412234
-0.00726353
0.00422333
-0.0079246
0.0043304
-0.00860345
0.00444365
-0.00930073
0.00456246
0.0046858
-0.0100162
-4.52704e-05
0.000533609
-0.000171299
0.00138152
-0.000372093
0.0020771
-0.000640607
0.0026372
-0.000968751
0.00307897
-0.00134789
0.00342122
-0.00176954
0.00368361
-0.00222593
0.00388529
-0.00271053
0.00404369
-0.00321823
0.00417364
-0.00374537
0.00428695
-0.00428962
0.00439244
-0.00484975
0.0044963
-0.00542537
0.00460256
-0.00601668
0.00471365
-0.00662424
0.00483089
-0.00724879
0.00495495
-0.00789157
0.00508643
-0.00855479
0.00522567
0.00536826
-0.00923726
-3.08741e-05
0.000564483
-0.00012269
0.00147334
-0.000276155
0.00223056
-0.000489817
0.00285086
-0.00075996
0.00334912
-0.00108106
0.00374232
-0.00144653
0.00404908
-0.00184955
0.00428831
-0.00228376
0.0044779
-0.00274376
0.00463363
-0.00322536
0.00476855
-0.00372566
0.00489274
-0.00424293
0.00501357
-0.00477643
0.00513606
-0.00532627
0.00526349
-0.00589325
0.00539787
-0.00647857
0.00554027
-0.00708337
0.00569123
-0.00771047
0.00585278
0.00603349
-0.0083757
-1.59676e-05
0.000580451
-7.17322e-05
0.00152911
-0.000174379
0.00233321
-0.000328092
0.00300458
-0.000533795
0.00355482
-0.000789474
0.003998
-0.00109091
0.00435051
-0.00143259
0.00462999
-0.00180858
0.0048539
-0.00221331
0.00503836
-0.00264202
0.00519725
-0.003091
0.00534173
-0.00355771
0.00548028
-0.00404058
0.00561893
-0.00453886
0.00576177
-0.00505245
0.00591146
-0.00558181
0.00606963
-0.00612822
0.00623764
-0.00669297
0.00641753
0.00660853
-0.00726801
-1.32082e-06
0.000581771
-2.02517e-05
0.00154804
-7.00139e-05
0.00238297
-0.000160093
0.00309466
-0.000296028
0.00369075
-0.000479665
0.00418163
-0.000709606
0.00458045
-0.000982128
0.00490251
-0.00129218
0.00516395
-0.0016343
0.00538049
-0.00200336
0.00556631
-0.002395
0.00573337
-0.0028059
0.00589117
-0.00323376
0.00604679
-0.00367721
0.00620523
-0.00413561
0.00636986
-0.00460883
0.00654285
-0.00509673
0.00672555
-0.00559791
0.00691871
0.00712214
-0.00611152
1.29758e-05
0.000568796
2.99736e-05
0.00153104
3.33723e-05
0.00237957
8.97527e-06
0.00311905
-5.34006e-05
0.00375313
-0.000159478
0.00428771
-0.000311087
0.00473206
-0.000506846
0.00509827
-0.000743098
0.0054002
-0.00101496
0.00565235
-0.00131722
0.00586856
-0.00164499
0.00606115
-0.00199421
0.00624039
-0.00236175
0.00641433
-0.00274545
0.00658893
-0.00314392
0.00676832
-0.00355626
0.00695519
-0.00398169
0.00715098
-0.00441895
0.00735597
0.00756961
-0.00486643
2.5785e-05
0.000543011
7.68205e-05
0.00148
0.000131863
0.00232453
0.000172989
0.00307793
0.000186206
0.00373991
0.000161791
0.00431213
9.44109e-05
0.00479944
-1.7368e-05
0.00521005
-0.000171903
0.00555474
-0.000365408
0.00584586
-0.000593006
0.00609616
-0.000849574
0.00631772
-0.00113037
0.00652119
-0.00143142
0.00671538
-0.00174962
0.00690713
-0.00208271
0.00710141
-0.00242908
0.00730156
-0.0027875
0.0075094
-0.00315688
0.00772535
0.0079491
-0.00353637
3.69056e-05
0.000506105
0.000118533
0.00139838
0.000221713
0.00222135
0.000326038
0.0029736
0.000414382
0.00365157
0.000473563
0.00425294
0.00049471
0.0047783
0.000473174
0.00523158
0.000408034
0.00561988
0.000301262
0.00595263
0.000156785
0.00624064
-2.04681e-05
0.00649497
-0.000225376
0.00672609
-0.000453204
0.0069432
-0.000699933
0.00715385
-0.000962377
0.00736386
-0.00123815
0.00757733
-0.00152556
0.00779681
-0.00182343
0.00802321
0.00825662
-0.00213094
4.58453e-05
0.00046026
0.000153423
0.0012908
0.000299233
0.00207554
0.000461812
0.00281102
0.000622084
0.0034913
0.000764126
0.0041109
0.000875825
0.0046666
0.00094918
0.00515823
0.000980187
0.00558887
0.000968348
0.00596447
0.000915892
0.00629309
0.000826871
0.00658399
0.00070627
0.0068467
0.000559249
0.00709022
0.0003906
0.0073225
0.000204416
0.00755004
3.95142e-06
0.0077778
-0.000208378
0.00800914
-0.0004311
0.00824593
0.00848895
-0.000663437
5.22994e-05
0.00040796
0.000180155
0.00116294
0.000361257
0.00189444
0.000574569
0.00259771
0.000800419
0.00326545
0.00102123
0.00389009
0.00122232
0.00446551
0.00139256
0.00498799
0.00152465
0.00545678
0.00161504
0.00587408
0.00166347
0.00624466
0.00167228
0.00657518
0.00164555
0.00687343
0.00158828
0.00714749
0.00150568
0.0074051
0.00140264
0.00765309
0.00128334
0.00789709
0.00115113
0.00814136
0.00100851
0.00838855
0.00864005
0.000857418
5.61256e-05
0.000351835
0.000197889
0.00102118
0.000405452
0.00168688
0.000659576
0.00234359
0.000941409
0.00298361
0.00123304
0.00359847
0.00151829
0.00418025
0.00178359
0.00472269
0.00201854
0.00522183
0.00221627
0.00567635
0.00237339
0.00608754
0.00248963
0.00645894
0.00256722
0.00679584
0.00261013
0.00710458
0.00262331
0.00739192
0.00261197
0.00766442
0.0025811
0.00792796
0.00253505
0.0081874
0.00247745
0.00844616
0.00870609
0.00241141
5.73583e-05
0.000294476
0.000206376
0.000872162
0.000430606
0.00146265
0.000713701
0.00206049
0.00103892
0.00265839
0.00138942
0.00324797
0.0017489
0.00382077
0.00210244
0.00436915
0.00243728
0.00488698
0.0027435
0.00537013
0.00301431
0.00581673
0.00324616
0.00622709
0.00343845
0.00660355
0.00359303
0.00695
0.00371355
0.00727141
0.00380473
0.00757324
0.00387176
0.00786094
0.00391971
0.00813945
0.00395324
0.00841263
0.00868264
0.00397669
5.62079e-05
0.000238268
0.000206006
0.000722363
0.000436825
0.00123183
0.000735901
0.00176142
0.00108959
0.0023047
0.00148337
0.00285419
0.00190225
0.0034019
0.0023314
0.00394
0.00275696
0.00446142
0.0031668
0.0049603
0.00355113
0.00543239
0.00390297
0.00587525
0.00421824
0.00628828
0.00449564
0.0066726
0.00473633
0.00703072
0.00494333
0.00736624
0.00512097
0.00768329
0.00527428
0.00798614
0.00540849
0.00827841
0.00856197
0.00552915
5.3037e-05
0.000185231
0.000197774
0.000577626
0.000425568
0.00100403
0.000727473
0.00145951
0.00109349
0.00193869
0.00151232
0.00243536
0.0019715
0.00294271
0.0024578
0.0034537
0.00295779
0.00396142
0.00345859
0.0044595
0.00394851
0.00494247
0.00441774
0.00540602
0.00485877
0.00584725
0.00526668
0.00626469
0.0056391
0.0066583
0.00597607
0.00702926
0.00627964
0.00737973
0.0065534
0.00771238
0.00680207
0.00802975
0.0083325
0.00703154
4.8316e-05
0.000136915
0.000183154
0.000442788
0.000399473
0.000787714
0.000691952
0.00116703
0.00105429
0.00157635
0.00147881
0.00201083
0.00195642
0.00246511
0.00247665
0.00293347
0.00302805
0.00341003
0.00359863
0.00388892
0.00417648
0.00436461
0.0047504
0.00483211
0.00531043
0.00528721
0.00584843
0.0057267
0.00635833
0.0061484
0.00683633
0.00655126
0.00728089
0.00693517
0.00769248
0.00730079
0.00807338
0.00764885
0.007978
0.00842789
4.25614e-05
9.4354e-05
0.000163898
0.000321452
0.000361988
0.000589624
0.00063461
0.00089441
0.000978786
0.00123218
0.00139038
0.00159923
0.00186387
0.00199162
0.00239226
0.00240509
0.00296713
0.00283516
0.00357891
0.00327714
0.00421724
0.00372629
0.00487136
0.00417799
0.0055307
0.00462787
0.00618534
0.00507206
0.00682647
0.00550727
0.00744677
0.00593096
0.00804064
0.0063413
0.00860422
0.00673721
0.00913533
0.00711774
0.00747931
0.00963402
3.62648e-05
5.80892e-05
0.000141784
0.000215932
0.000316842
0.000414566
0.000561619
0.000649634
0.00087581
0.000917987
0.00125829
0.00121676
0.00170681
0.00154309
0.00221787
0.00189403
0.00278657
0.00226646
0.00340664
0.00265706
0.00407061
0.00306233
0.00476997
0.00347862
0.00549556
0.00390229
0.00623785
0.00432976
0.00698742
0.0047577
0.00773524
0.00518314
0.00847296
0.00560359
0.00919291
0.00601725
0.00988728
0.00642337
0.00681945
0.0105471
2.98276e-05
2.82616e-05
0.000118366
0.000127394
0.000267498
0.000265435
0.000479075
0.000438057
0.000754705
0.000642357
0.00109551
0.000875957
0.00150186
0.00113673
0.00197324
0.00142266
0.00250799
0.0017317
0.00310332
0.00206173
0.0037552
0.00241045
0.00445843
0.00277539
0.0052068
0.00315391
0.00599327
0.00354329
0.00681021
0.00394076
0.00764972
0.00434364
0.00850392
0.00474938
0.00936539
0.00515578
0.0102262
0.00556251
0.00597518
0.0110705
2.35184e-05
4.74317e-06
9.47968e-05
5.61152e-05
0.000216719
0.000143513
0.000392171
0.000262604
0.000623958
0.000410569
0.000914649
0.000585266
0.00126642
0.000784964
0.00168087
0.0010082
0.00215891
0.00125366
0.00270063
0.00152002
0.00330517
0.00180591
0.00397077
0.00210979
0.00469472
0.00242996
0.00547358
0.00276444
0.00630336
0.00311098
0.00717998
0.00346701
0.00809995
0.00382941
0.00906228
0.00419345
0.0100738
0.00455095
0.00489635
0.0111527
1.74717e-05
-1.27286e-05
7.17843e-05
1.80264e-06
0.000166409
4.88883e-05
0.000304784
0.000124229
0.000490338
0.000225015
0.000726411
0.000349194
0.00101616
0.000495219
0.00136244
0.000661917
0.00176774
0.00084836
0.00223401
0.00105375
0.0027626
0.00127731
0.00335416
0.00151823
0.00400857
0.00177555
0.00472488
0.00204813
0.00550134
0.00233452
0.00633545
0.0026329
0.00722421
0.00294065
0.00816429
0.00325337
0.00915293
0.00356232
0.0038457
0.0102036
1.17147e-05
-2.44433e-05
4.9717e-05
-3.61996e-05
0.000117781
-1.91753e-05
0.000219627
2.23829e-05
0.000358929
8.5713e-05
0.000539308
0.000168816
0.000764298
0.000270228
0.0010373
0.000388913
0.00136153
0.000524136
0.00173991
0.000675367
0.00217504
0.000842182
0.00266908
0.00102419
0.0032237
0.00122094
0.00383999
0.00143184
0.00451849
0.00165602
0.00525928
0.00189212
0.00606226
0.00213767
0.00692778
0.00238784
0.00785802
0.00263208
0.00284413
0.0088596
6.26891e-06
-3.07122e-05
2.88257e-05
-5.87564e-05
7.17108e-05
-6.20604e-05
0.000138763
-4.46689e-05
0.000233693
-9.21706e-06
0.000360123
4.23848e-05
0.000521595
0.000108757
0.000721567
0.00018894
0.000963408
0.000282295
0.00125036
0.000388412
0.00158552
0.000507023
0.00197178
0.000637927
0.00241182
0.0007809
0.00290807
0.000935583
0.00346279
0.00110131
0.00407812
0.00127678
0.00475633
0.00145946
0.0054998
0.00164437
0.00631066
0.00182122
0.00196704
0.00718775
1.18637e-06
-3.18986e-05
9.48148e-06
-6.70515e-05
2.92038e-05
-8.17827e-05
6.42806e-05
-7.97457e-05
0.000118384
-6.33205e-05
0.000195001
-3.4232e-05
0.000297487
6.27088e-06
0.00042911
5.73171e-05
0.000593061
0.000118344
0.000792475
0.000188997
0.00103043
0.000269063
0.00130997
0.000358392
0.00163406
0.000456806
0.00200567
0.000563975
0.00242776
0.00067922
0.00290335
0.000801191
0.00343547
0.000927345
0.00402677
0.00105307
0.00467825
0.00116974
0.00126028
0.00538502
-3.37976e-06
-2.85188e-05
-7.70381e-06
-6.27274e-05
-8.32409e-06
-8.11624e-05
-1.21059e-06
-8.68592e-05
1.72585e-05
-8.17896e-05
5.04102e-05
-6.73838e-05
0.000101363
-4.46817e-05
0.000173086
-1.44058e-05
0.000268466
2.29643e-05
0.000390336
6.71278e-05
0.000541504
0.000117895
0.000724778
0.000175117
0.000942981
0.000238603
0.00119896
0.000307996
0.00149558
0.000382599
0.00183566
0.00046111
0.00222174
0.000541263
0.00265549
0.000619319
0.00313634
0.000688893
0.000738654
0.00365796
-7.18456e-06
-2.13343e-05
-2.1864e-05
-4.8048e-05
-3.90391e-05
-6.39873e-05
-5.45598e-05
-7.13385e-05
-6.48328e-05
-7.15166e-05
-6.66687e-05
-6.55478e-05
-5.717e-05
-5.41805e-05
-3.36383e-05
-3.79374e-05
6.49465e-06
-1.71687e-05
6.57235e-05
7.8989e-06
0.00014651
3.71077e-05
0.0002513
7.03283e-05
0.000382526
0.000107377
0.000542593
0.000147929
0.0007338
0.000191392
0.000958184
0.000236726
0.0012172
0.000282248
0.00151113
0.00032539
0.00183797
0.000362049
0.000385533
0.00219109
-9.94074e-06
-1.13935e-05
-3.2028e-05
-2.59608e-05
-6.09618e-05
-3.50535e-05
-9.24814e-05
-3.98189e-05
-0.000123001
-4.09969e-05
-0.000149425
-3.91243e-05
-0.000169012