/*--------------------------------*- C++ -*----------------------------------*\
  =========                 |
  \\      /  F ield         | OpenFOAM: The Open Source CFD Toolbox
   \\    /   O peration     | Website:  https://openfoam.org
    \\  /    A nd           | Version:  7
     \\/     M anipulation  |
\*---------------------------------------------------------------------------*/
FoamFile
{
    version     2.0;
    format      ascii;
    class       volScalarField;
    location    "35";
    object      p;
}
// * * * * * * * * * * * * * * * * * * * * * * * * * * * * * * * * * * * * * //

dimensions      [0 2 -2 0 0 0 0];

internalField   nonuniform List<scalar> 
1360
(
-0.310676
0.84841
0.79933
0.84841
0.79933
0.819821
0.772203
0.76394
0.719188
0.683287
0.642697
0.615244
0.581476
0.546182
0.523633
0.510849
0.463019
0.433956
0.417021
0.409858
0.333074
0.310949
0.300054
0.298763
0.302087
0.197171
0.182434
0.177725
0.182205
0.191752
0.203439
0.215211
0.0609073
0.0537224
0.0550821
0.0649224
0.080141
0.0979371
0.1161
0.133066
0.14792
-0.0703272
-0.070167
-0.063063
-0.0485178
-0.0284791
-0.00548244
0.0182213
0.0409386
0.0615912
0.0796367
0.0949278
-0.192137
-0.184562
-0.172367
-0.154006
-0.130174
-0.103161
-0.0750796
-0.0476637
-0.0221123
0.0008846
0.0210495
0.0383907
0.0530934
0.0654321
-0.300167
-0.286008
-0.269326
-0.247999
-0.221643
-0.191923
-0.160813
-0.129994
-0.100699
-0.0737546
-0.0495562
-0.0282132
-0.00963105
0.00640627
0.0201604
0.0318946
0.0419498
-0.391691
-0.371766
-0.351367
-0.327994
-0.300222
-0.269155
-0.236464
-0.203668
-0.17198
-0.14227
-0.11506
-0.0905774
-0.0688339
-0.0496942
-0.0329492
-0.0183665
-0.00565091
0.00567141
0.015751
0.0225239
-0.465004
-0.440302
-0.416996
-0.392411
-0.364254
-0.333082
-0.300193
-0.266852
-0.234158
-0.202978
-0.173909
-0.147285
-0.123225
-0.101693
-0.0825531
-0.065622
-0.0506635
-0.0373103
-0.0253184
-0.0160343
-0.519566
-0.491229
-0.465844
-0.440758
-0.413051
-0.382801
-0.350909
-0.318326
-0.285963
-0.254613
-0.224888
-0.197197
-0.171756
-0.14863
-0.127771
-0.109066
-0.0923445
-0.077332
-0.063817
-0.0525672
-0.555952
-0.525218
-0.498575
-0.473569
-0.446919
-0.418333
-0.388347
-0.357584
-0.326709
-0.296379
-0.267158
-0.239477
-0.213623
-0.189747
-0.167892
-0.14802
-0.130037
-0.113766
-0.0990212
-0.0861101
-0.575693
-0.543825
-0.516724
-0.49226
-0.467052
-0.440577
-0.413072
-0.384861
-0.356351
-0.328014
-0.300311
-0.27364
-0.248311
-0.224533
-0.202424
-0.182024
-0.163312
-0.146211
-0.130576
-0.116315
-0.58103
-0.549245
-0.522446
-0.498897
-0.475345
-0.451165
-0.426392
-0.401111
-0.375497
-0.349825
-0.324416
-0.299586
-0.275617
-0.252738
-0.231112
-0.210838
-0.191965
-0.174507
-0.158394
-0.143235
-0.574639
-0.544034
-0.518237
-0.495923
-0.474129
-0.452241
-0.430186
-0.407891
-0.385355
-0.362677
-0.34003
-0.317619
-0.295661
-0.274357
-0.253879
-0.234357
-0.215885
-0.19855
-0.18237
-0.166747
-0.559344
-0.530836
-0.506657
-0.485863
-0.465881
-0.446183
-0.426664
-0.407175
-0.387604
-0.367923
-0.348178
-0.328464
-0.308909
-0.28966
-0.270863
-0.252645
-0.235115
-0.218403
-0.202613
-0.186973
-0.537855
-0.512142
-0.490087
-0.471071
-0.452952
-0.435321
-0.418092
-0.401099
-0.384186
-0.367254
-0.35026
-0.333212
-0.31616
-0.299185
-0.282387
-0.26587
-0.249731
-0.234121
-0.219241
-0.204114
-0.512563
-0.490109
-0.470561
-0.45355
-0.437357
-0.421698
-0.406525
-0.391697
-0.377058
-0.362486
-0.347896
-0.333245
-0.318528
-0.303779
-0.289062
-0.274458
-0.260058
-0.246051
-0.232852
-0.219329
-0.485408
-0.466468
-0.449677
-0.434847
-0.420649
-0.406907
-0.393614
-0.380666
-0.367934
-0.355302
-0.342678
-0.329998
-0.31723
-0.304378
-0.291486
-0.27863
-0.265903
-0.253579
-0.242576
-0.232142
-0.457841
-0.442494
-0.428588
-0.416049
-0.4039
-0.392046
-0.380513
-0.369236
-0.35812
-0.347073
-0.336013
-0.324877
-0.313627
-0.302254
-0.290798
-0.279351
-0.268039
-0.257103
-0.247776
-0.242375
-0.430866
-0.419073
-0.408064
-0.397849
-0.387754
-0.377751
-0.367884
-0.358121
-0.348398
-0.338646
-0.328796
-0.31878
-0.308535
-0.298003
-0.287132
-0.275898
-0.264267
-0.251724
-0.236894
-0.225367
-0.405173
-0.3968
-0.388614
-0.380668
-0.372571
-0.364345
-0.356048
-0.347677
-0.339199
-0.330572
-0.321748
-0.312675
-0.303301
-0.293569
-0.283426
-0.272865
-0.261932
-0.2502
-0.236116
-0.225108
-0.381305
-0.376161
-0.370624
-0.364805
-0.358571
-0.351989
-0.34513
-0.338016
-0.330645
-0.323004
-0.315071
-0.30682
-0.298219
-0.289237
-0.279847
-0.270072
-0.259996
-0.249267
-0.236693
-0.227429
-0.359794
-0.357606
-0.354471
-0.350556
-0.345975
-0.340843
-0.335241
-0.329215
-0.322793
-0.315991
-0.308811
-0.301254
-0.293315
-0.284986
-0.276269
-0.267214
-0.257909
-0.248069
-0.236915
-0.228927
-0.341266
-0.341667
-0.3406
-0.338296
-0.335099
-0.331169
-0.326601
-0.321466
-0.315818
-0.309697
-0.303135
-0.296155
-0.288779
-0.281029
-0.272935
-0.264568
-0.256018
-0.247098
-0.237391
-0.230234
-0.326441
-0.328943
-0.329526
-0.328483
-0.326356
-0.323347
-0.319565
-0.315103
-0.310039
-0.304436
-0.298347
-0.291819
-0.284898
-0.277633
-0.270079
-0.262321
-0.25445
-0.246389
-0.237991
-0.231303
-0.316044
-0.320037
-0.321772
-0.321596
-0.320195
-0.317807
-0.314551
-0.310538
-0.305864
-0.300607
-0.294839
-0.288623
-0.282026
-0.275115
-0.267964
-0.260663
-0.253307
-0.245915
-0.238502
-0.232029
-0.310676
-0.315444
-0.317772
-0.318036
-0.317003
-0.314926
-0.311934
-0.308145
-0.303665
-0.298582
-0.292975
-0.28692
-0.280492
-0.273769
-0.266833
-0.259779
-0.252702
-0.245676
-0.238791
-0.232389
0.0247513
0.0262459
0.026602
0.0276358
0.0288432
0.0300506
0.0312389
0.0323824
0.033444
0.0344048
0.0352588
0.0360051
0.0366454
0.0371824
0.0376193
0.0379589
0.0382044
0.0383542
0.0383972
0.0383738
-0.00929428
-0.00309831
0.00142536
0.00571136
0.00949676
0.0127357
0.0155765
0.0181109
0.0203199
0.0222336
0.0238842
0.0252975
0.0264952
0.0274958
0.0283141
0.0289623
0.0294506
0.0297839
0.0299547
0.0299932
-0.0416577
-0.0308393
-0.0225287
-0.0153406
-0.00918994
-0.00413462
0.000220591
0.00411098
0.00741238
0.010236
0.0126502
0.0147047
0.0164402
0.0178896
0.0190793
0.0200302
0.020759
0.0212773
0.0215831
0.0216925
-0.0717019
-0.0569708
-0.0452525
-0.0354843
-0.0272573
-0.020302
-0.0143877
-0.00935455
-0.00507887
-0.00142647
0.00169288
0.00434619
0.0065883
0.00846388
0.0100087
0.0112511
0.0122138
0.0129132
0.0133539
0.0135466
-0.098863
-0.0810232
-0.0664789
-0.0544163
-0.0443197
-0.0357887
-0.0285558
-0.0224251
-0.0172107
-0.0127599
-0.00896322
-0.00573539
-0.0030069
-0.000721651
0.00116517
0.00268914
0.0038785
0.00475493
0.00532865
0.00559873
-0.123312
-0.102975
-0.0861524
-0.0721591
-0.0604255
-0.0505101
-0.0421029
-0.0349556
-0.0288613
-0.0236578
-0.0192206
-0.0154482
-0.0122581
-0.00958376
-0.00737191
-0.00558034
-0.0041756
-0.00313087
-0.00243031
-0.00208677
-0.144823
-0.122696
-0.104276
-0.0887369
-0.0755481
-0.0643723
-0.0549001
-0.0468299
-0.0399307
-0.0340331
-0.0290008
-0.0247194
-0.0210959
-0.0180556
-0.015538
-0.0134953
-0.0118892
-0.0106883
-0.00987099
-0.0094585
-0.16322
-0.140315
-0.121243
-0.104482
-0.0898993
-0.0775266
-0.0670454
-0.0580856
-0.050411
-0.043852
-0.0382566
-0.0334955
-0.0294652
-0.0260825
-0.0232803
-0.0210048
-0.0192138
-0.017872
-0.0169516
-0.0164782
-0.178231
-0.155741
-0.13679
-0.118843
-0.102973
-0.0896538
-0.0783498
-0.0686132
-0.0602464
-0.053087
-0.04697
-0.0417588
-0.0373451
-0.03364
-0.0305708
-0.028079
-0.0261184
-0.0246505
-0.0236421
-0.0231178
-0.191278
-0.171322
-0.152867
-0.133303
-0.115996
-0.101568
-0.089211
-0.0785538
-0.069448
-0.0616866
-0.0550663
-0.0494327
-0.0446659
-0.0406675
-0.037358
-0.0346737
-0.0325651
-0.0309911
-0.0299142
-0.0293521
-0.20216
-0.184695
-0.165073
-0.144368
-0.126868
-0.112076
-0.099095
-0.0878146
-0.0781316
-0.0698299
-0.062723
-0.0566684
-0.051545
-0.04725
-0.043699
-0.0408241
-0.0385721
-0.0368996
-0.0357659
-0.0351764
-0.226584
-0.208534
-0.18402
-0.160332
-0.140415
-0.123344
-0.108712
-0.0963606
-0.0859264
-0.077058
-0.0695107
-0.0631036
-0.057693
-0.0531647
-0.0494282
-0.0464108
-0.044056
-0.0423191
-0.0411584
-0.0405648
-0.219142
-0.206906
-0.188177
-0.168745
-0.150356
-0.133379
-0.118293
-0.105206
-0.0939465
-0.084298
-0.0760618
-0.0690613
-0.0631475
-0.0581988
-0.0541173
-0.050824
-0.0482572
-0.0463705
-0.0451223
-0.0444875
-0.21908
-0.206013
-0.188802
-0.171086
-0.153672
-0.137244
-0.122403
-0.109324
-0.0979439
-0.0881253
-0.0797065
-0.0725287
-0.0664521
-0.0613594
-0.0571542
-0.0537583
-0.0511095
-0.0491619
-0.0478763
-0.0472253
-0.218613
-0.203689
-0.186404
-0.169416
-0.152899
-0.137364
-0.123257
-0.110719
-0.0997234
-0.0901724
-0.0819363
-0.0748821
-0.0688888
-0.0638517
-0.0596832
-0.056311
-0.0536773
-0.0517386
-0.0504601
-0.0498178
-0.215853
-0.200156
-0.183357
-0.16712
-0.15146
-0.136789
-0.123428
-0.111483
-0.100943
-0.0917318
-0.0837457
-0.0768744
-0.0710145
-0.0660748
-0.0619768
-0.0586553
-0.0560575
-0.0541431
-0.0528808
-0.0522497
-0.211558
-0.196145
-0.180418
-0.16511
-0.150297
-0.136399
-0.123687
-0.112261
-0.102121
-0.093212
-0.0854512
-0.0787464
-0.073009
-0.0681589
-0.064126
-0.0608513
-0.0582867
-0.0563946
-0.0551468
-0.0545245
-0.206635
-0.191976
-0.177442
-0.163094
-0.149119
-0.135953
-0.123848
-0.112907
-0.103146
-0.0945282
-0.0869882
-0.0804496
-0.0748366
-0.0700789
-0.0661142
-0.0628893
-0.0603602
-0.0584925
-0.0572603
-0.0566465
-0.20147
-0.187692
-0.174277
-0.160847
-0.147691
-0.135243
-0.123738
-0.113283
-0.10391
-0.0955969
-0.0882927
-0.0819357
-0.0764615
-0.0718093
-0.0679241
-0.0647582
-0.0622721
-0.0604343
-0.0592212
-0.0586174
-0.196173
-0.183303
-0.170929
-0.158373
-0.146013
-0.134268
-0.123356
-0.113392
-0.104416
-0.0964202
-0.0893667
-0.0832062
-0.0778852
-0.0733513
-0.0695567
-0.0664592
-0.0640234
-0.0622211
-0.0610306
-0.0604383
-0.190809
-0.178849
-0.167453
-0.155733
-0.144147
-0.133082
-0.122752
-0.113274
-0.104698
-0.0970261
-0.0902324
-0.0842787
-0.0791209
-0.074715
-0.0710195
-0.0679977
-0.0656182
-0.0638556
-0.0626907
-0.0621111
-0.185441
-0.174369
-0.163875
-0.15298
-0.14213
-0.131722
-0.121959
-0.112959
-0.104781
-0.097435
-0.0909064
-0.0851663
-0.0801792
-0.0759086
-0.0723191
-0.0693788
-0.0670603
-0.0653412
-0.0642042
-0.0636385
-0.180113
-0.169891
-0.160237
-0.150118
-0.139979
-0.130207
-0.120994
-0.112464
-0.104679
-0.0976602
-0.0914001
-0.0858785
-0.0810681
-0.0769386
-0.0734607
-0.070607
-0.0683537
-0.0666812
-0.0655743
-0.0650235
-0.174852
-0.165432
-0.156556
-0.147168
-0.137713
-0.128551
-0.119873
-0.111802
-0.104407
-0.0977135
-0.0917237
-0.0864243
-0.0817949
-0.0778115
-0.0744498
-0.0716869
-0.0695023
-0.0678792
-0.0668042
-0.0662692
-0.169673
-0.161003
-0.152848
-0.14415
-0.135348
-0.126772
-0.118611
-0.110989
-0.103977
-0.0976071
-0.0918878
-0.0868128
-0.0823676
-0.0785339
-0.0752922
-0.0726236
-0.0705107
-0.0689393
-0.0678978
-0.0673792
-0.164583
-0.156615
-0.149127
-0.141083
-0.132899
-0.124887
-0.117226
-0.11004
-0.103403
-0.097353
-0.0919032
-0.0870532
-0.0827942
-0.0791129
-0.075994
-0.0734222
-0.0713834
-0.0698656
-0.0688589
-0.0683575
-0.15959
-0.152277
-0.145408
-0.137979
-0.130383
-0.12291
-0.11573
-0.108968
-0.102698
-0.0969627
-0.09178
-0.0871546
-0.0830827
-0.0795553
-0.0765611
-0.0740883
-0.0721254
-0.0706626
-0.0696918
-0.0692081
-0.154697
-0.147995
-0.1417
-0.134851
-0.127813
-0.120854
-0.114138
-0.107785
-0.101874
-0.096447
-0.091528
-0.0871258
-0.0832408
-0.079868
-0.0769997
-0.0746272
-0.0727416
-0.071335
-0.0704008
-0.0699351
-0.149906
-0.143774
-0.138014
-0.131711
-0.125201
-0.118732
-0.112461
-0.106505
-0.100941
-0.095816
-0.0911566
-0.0869752
-0.0832761
-0.0800579
-0.0773161
-0.0750446
-0.0732371
-0.0718874
-0.0709904
-0.0705432
-0.145219
-0.139619
-0.134357
-0.128567
-0.122557
-0.116556
-0.11071
-0.105136
-0.0999099
-0.0950797
-0.0906747
-0.0867111
-0.0831961
-0.0801317
-0.0775162
-0.0753461
-0.073617
-0.0723248
-0.0714654
-0.0710367
-0.140638
-0.135535
-0.130737
-0.125429
-0.119891
-0.114334
-0.108897
-0.103691
-0.0987908
-0.0942471
-0.090091
-0.0863412
-0.0830079
-0.0800959
-0.0776061
-0.0755371
-0.0738867
-0.072652
-0.0718303
-0.0714203
-0.136163
-0.131523
-0.127159
-0.122304
-0.117213
-0.112078
-0.10703
-0.102177
-0.0975927
-0.093327
-0.0894135
-0.0858732
-0.0827187
-0.0799572
-0.0775918
-0.0756234
-0.0740513
-0.0728741
-0.0720901
-0.0716987
-0.131795
-0.127588
-0.123629
-0.119199
-0.114529
-0.109794
-0.105119
-0.100605
-0.0963241
-0.0923277
-0.0886501
-0.0853144
-0.0823352
-0.0797218
-0.0774793
-0.0756104
-0.0741159
-0.0729959
-0.0722494
-0.0718767
-0.127534
-0.123732
-0.120151
-0.11612
-0.111847
-0.107492
-0.103172
-0.0989815
-0.0949931
-0.0912569
-0.0878083
-0.0846718
-0.081864
-0.0793958
-0.0772743
-0.0755036
-0.0740859
-0.0730224
-0.0723132
-0.0719589
-0.123381
-0.119957
-0.116728
-0.113072
-0.109173
-0.105178
-0.101195
-0.0973149
-0.0936072
-0.0901218
-0.0868949
-0.083952
-0.0813114
-0.0789853
-0.0769824
-0.0753082
-0.0739662
-0.0729586
-0.0722862
-0.0719501
-0.119336
-0.116265
-0.113365
-0.110059
-0.106513
-0.102858
-0.0991956
-0.0956118
-0.0921732
-0.0889294
-0.0859166
-0.0831616
-0.0806834
-0.078496
-0.249139
-0.245231
-0.234559
-0.226729
-0.220041
-0.213263
-0.206603
-0.200215
-0.19405
-0.188065
-0.182252
-0.1766
-0.1711
-0.165742
-0.160519
-0.155427
-0.150461
-0.145619
-0.140899
-0.136299
-0.131817
-0.127455
-0.123209
-0.250363
-0.248093
-0.23611
-0.227078
-0.220036
-0.213059
-0.206095
-0.199395
-0.19296
-0.186735
-0.180697
-0.174839
-0.169149
-0.163619
-0.158241
-0.15301
-0.147921
-0.142971
-0.138158
-0.13348
-0.128934
-0.12452
-0.248057
-0.244922
-0.233313
-0.224109
-0.216876
-0.209918
-0.203012
-0.196343
-0.189936
-0.183742
-0.177731
-0.171893
-0.166219
-0.160701
-0.155332
-0.15011
-0.14503
-0.140092
-0.135292
-0.13063
-0.126104
-0.243139
-0.238947
-0.228611
-0.220078
-0.213051
-0.206318
-0.199665
-0.193194
-0.18693
-0.180844
-0.174917
-0.16914
-0.163512
-0.158029
-0.152689
-0.147491
-0.142434
-0.137518
-0.132741
-0.128104
-0.237596
-0.232491
-0.223577
-0.215873
-0.209142
-0.202643
-0.196235
-0.189969
-0.183863
-0.177902
-0.172078
-0.166389
-0.160835
-0.155417
-0.150135
-0.14499
-0.139983
-0.135114
-0.130384
-0.125793
-0.232629
-0.226917
-0.219235
-0.212241
-0.205783
-0.199482
-0.193269
-0.187172
-0.181201
-0.175352
-0.169624
-0.16402
-0.158542
-0.153192
-0.147973
-0.142888
-0.137936
-0.133121
-0.128442
-0.22896
-0.222944
-0.216135
-0.209623
-0.203356
-0.197192
-0.19111
-0.185125
-0.179246
-0.173477
-0.16782
-0.16228
-0.156861
-0.151566
-0.146399
-0.141362
-0.136458
-0.131687
-0.127052
-0.227025
-0.220901
-0.214537
-0.20826
-0.202088
-0.195993
-0.189974
-0.184045
-0.178213
-0.172484
-0.166864
-0.161359
-0.155972
-0.150707
-0.145569
-0.140559
-0.135681
-0.130936
-0.126325
)
;

boundaryField
{
    inlet
    {
        type            zeroGradient;
    }
    outlet
    {
        type            fixedValue;
        value           nonuniform 0();
    }
    cylinder
    {
        type            zeroGradient;
    }
    top
    {
        type            symmetryPlane;
    }
    bottom
    {
        type            symmetryPlane;
    }
    defaultFaces
    {
        type            empty;
    }
    procBoundary1to0
    {
        type            processor;
        value           nonuniform List<scalar> 
50
(
0.763774
0.738064
0.687801
0.687801
0.597439
0.597439
0.501619
0.406788
0.406788
0.307106
0.307106
0.312007
0.225703
0.225703
0.234186
0.160274
0.160274
0.170098
0.107572
0.107572
0.117818
0.12597
0.0756988
0.0756988
0.0841716
0.091225
0.050888
0.050888
0.0587713
0.0627961
0.0601214
0.0565525
0.052532
0.0501757
0.048705
0.0477691
0.0472082
0.0468979
0.0467497
0.0467024
0.0467151
0.0467598
0.046817
0.0468728
0.0469172
0.0469429
0.046945
0.0469155
0.0468415
0.0467683
)
;
    }
    procBoundary1to2
    {
        type            processor;
        value           nonuniform List<scalar> 
34
(
-0.0766092
-0.0750296
-0.073762
-0.0728092
-0.0721731
-0.071855
-0.115399
-0.11908
-0.112656
-0.110064
-0.107087
-0.103872
-0.100539
-0.0971804
-0.0938788
-0.0906979
-0.087686
-0.0848798
-0.0823064
-0.079986
-0.0766092
-0.0779336
-0.11908
-0.120236
-0.120236
-0.121713
-0.121713
-0.123605
-0.123605
-0.121339
-0.1239
-0.1239
-0.122551
-0.121848
)
;
    }
    procBoundary1to4
    {
        type            processor;
        value           uniform 0.763774;
    }
    procBoundary1to5
    {
        type            processor;
        value           nonuniform List<scalar> 
42
(
-0.315444
-0.316044
-0.315444
-0.317772
-0.318036
-0.317003
-0.314926
-0.311934
-0.308145
-0.303665
-0.298582
-0.292975
-0.28692
-0.280492
-0.273769
-0.266833
-0.259779
-0.252702
-0.245676
-0.238791
-0.232389
0.819821
0.772203
-0.227025
-0.220901
-0.214537
-0.20826
-0.202088
-0.195993
-0.189974
-0.184045
-0.178213
-0.172484
-0.166864
-0.161359
-0.155972
-0.150707
-0.145569
-0.140559
-0.135681
-0.130936
-0.126325
)
;
    }
}


// ************************************************************************* //
