/*--------------------------------*- C++ -*----------------------------------*\
  =========                 |
  \\      /  F ield         | OpenFOAM: The Open Source CFD Toolbox
   \\    /   O peration     | Website:  https://openfoam.org
    \\  /    A nd           | Version:  7
     \\/     M anipulation  |
\*---------------------------------------------------------------------------*/
FoamFile
{
    version     2.0;
    format      ascii;
    class       volVectorField;
    location    "65";
    object      U;
}
// * * * * * * * * * * * * * * * * * * * * * * * * * * * * * * * * * * * * * //

dimensions      [0 1 -1 0 0 0 0];

internalField   nonuniform List<vector> 
14000
(
(-0.00750606 0.00518796 -4.84726e-22)
(-0.0296268 0.00908433 9.69448e-22)
(-0.0612398 0.0100154 6.22627e-20)
(-0.0905214 0.0097574 1.08567e-20)
(-0.116821 0.00903183 2.1128e-20)
(-0.139959 0.00815563 -1.22243e-20)
(-0.15967 0.00713236 -2.2665e-20)
(-0.175062 0.00561897 2.19993e-20)
(-0.188857 0.00523915 2.15467e-20)
(-0.19412 0.00219397 1.6821e-20)
(-0.00858819 0.0151761 -7.89158e-20)
(-0.0305673 0.0266847 5.22399e-20)
(-0.0605493 0.0294814 -7.11037e-20)
(-0.0875959 0.028739 3.81258e-21)
(-0.111124 0.0265919 -5.07308e-20)
(-0.130989 0.0239925 6.23443e-21)
(-0.147248 0.0211093 3.25644e-20)
(-0.15715 0.016216 -1.432e-19)
(-0.168048 0.0158439 3.53346e-20)
(-0.165018 0.0054352 1.49762e-22)
(-0.0106323 0.0239464 1.46916e-19)
(-0.032398 0.0424563 -1.30056e-20)
(-0.0592646 0.0471024 9.88015e-20)
(-0.0819425 0.0459749 -9.25308e-21)
(-0.0999783 0.0425236 -1.08166e-19)
(-0.11306 0.0382865 7.98708e-20)
(-0.122741 0.0341586 -3.43466e-20)
(-0.120148 0.0252566 3.44502e-20)
(-0.126063 0.0270224 -1.04573e-19)
(-0.104577 0.00690182 1.48408e-19)
(-0.0134315 0.0309046 1.73424e-20)
(-0.0350202 0.0553732 -2.33782e-19)
(-0.0575373 0.0617281 -1.39127e-19)
(-0.0738779 0.0602855 7.3198e-20)
(-0.0838485 0.0556743 8.69486e-20)
(-0.0861487 0.0498923 -1.44732e-19)
(-0.0865618 0.0448877 6.20053e-20)
(-0.0623401 0.0323916 4.12318e-20)
(-0.0612861 0.0370916 1.65609e-19)
(-0.00600167 0.0108175 -2.13891e-19)
(-0.0167531 0.0357381 -7.3942e-20)
(-0.0382849 0.064684 1.15146e-19)
(-0.0554746 0.0723576 3.36976e-19)
(-0.0636064 0.0705337 -1.68075e-19)
(-0.0630131 0.0648057 1.55994e-19)
(-0.0501491 0.0579083 2.63061e-19)
(-0.0375255 0.0500787 -7.31335e-21)
(0.0173572 0.0387205 7.48199e-21)
(0.0279133 0.0425248 -2.44391e-19)
(0.139543 0.0214144 1.15254e-19)
(-0.0204012 0.0384417 -1.75305e-19)
(-0.041958 0.0699796 1.03821e-19)
(-0.0529422 0.0782454 -4.70307e-19)
(-0.0508517 0.0757784 2.28993e-19)
(-0.0364924 0.0687331 3.21331e-20)
(-0.0042893 0.0616874 -2.96729e-19)
(0.0292121 0.0486228 -8.7109e-20)
(0.127416 0.0451308 8.70462e-20)
(0.14334 0.0376963 1.65311e-19)
(0.348398 0.0343401 -9.19014e-20)
(-0.0242525 0.0392731 -1.92091e-20)
(-0.0456229 0.071205 -3.26579e-19)
(-0.0492075 0.079021 3.22636e-19)
(-0.0342248 0.075456 -2.3195e-19)
(-0.00100314 0.0671257 5.75532e-20)
(0.0572791 0.0610774 1.9282e-19)
(0.122579 0.0426112 -3.53494e-19)
(0.273339 0.0519375 -1.48019e-19)
(0.304016 0.0310868 1.25758e-19)
(0.607825 0.0468283 7.33112e-20)
(-0.0282508 0.0386469 1.92309e-19)
(-0.048521 0.0686136 5.63574e-19)
(-0.0424641 0.0747971 -5.43913e-19)
(-0.0100071 0.0697397 1.33031e-19)
(0.0500981 0.0607671 3.32994e-19)
(0.144787 0.0566147 -1.69537e-19)
(0.260465 0.0401643 -5.39071e-20)
(0.452946 0.0569158 -2.00305e-19)
(0.535505 0.0401616 2.38655e-19)
(0.869017 0.0682283 -1.67468e-19)
(-0.0323037 0.0369488 -3.52631e-19)
(-0.0493814 0.062723 9.74809e-20)
(-0.029315 0.06622 2.03423e-19)
(0.0285727 0.0598764 -1.01184e-19)
(0.128006 0.0524103 -3.4191e-19)
(0.271949 0.0516518 4.04968e-19)
(0.450316 0.0510865 2.57052e-19)
(0.659955 0.0648523 2.31701e-19)
(0.813933 0.070021 -1.88767e-19)
(1.07745 0.0959417 1.4285e-19)
(-0.0360662 0.0344102 -8.75698e-20)
(-0.0461837 0.0541563 -2.84945e-19)
(-0.00451577 0.0545092 -1.69083e-19)
(0.0913691 0.0486816 1.98568e-19)
(0.245304 0.0475733 3.81279e-20)
(0.447678 0.0555616 -2.38593e-19)
(0.672071 0.0742786 2.78073e-19)
(0.879736 0.0873556 -3.90409e-19)
(1.05262 0.111556 -2.19462e-19)
(1.19641 0.116487 7.64334e-20)
(-0.0388757 0.0311267 2.13945e-19)
(-0.0359027 0.0434934 3.00276e-19)
(0.0389822 0.0416036 1.24754e-19)
(0.189345 0.0409087 1.73848e-19)
(0.40788 0.0530402 -1.00791e-19)
(0.657715 0.0765694 -2.57764e-19)
(0.887891 0.105538 1.02755e-19)
(1.06807 0.122367 1.26049e-19)
(1.18815 0.144689 4.19515e-19)
(1.23259 0.120216 -2.46481e-19)
(-0.039769 0.0270478 3.18978e-19)
(-0.0145554 0.0312948 -3.89117e-20)
(0.109327 0.0306105 2.87586e-19)
(0.329085 0.0431258 -1.27806e-19)
(0.603793 0.073871 3.90469e-19)
(0.863522 0.110685 1.54697e-19)
(1.05936 0.140151 1.91363e-19)
(1.18262 0.15459 -3.13094e-19)
(1.23527 0.157743 -1.27847e-19)
(1.26005 0.143324 1.22597e-19)
(-0.0374137 0.0220019 2.28816e-20)
(0.0226913 0.0184647 -2.8103e-19)
(0.213694 0.0265961 -2.66768e-19)
(0.504005 0.06079 -6.73235e-20)
(0.800906 0.108113 -1.06335e-19)
(1.02801 0.147846 1.15851e-19)
(1.16631 0.17027 -4.79419e-19)
(1.23126 0.17378 3.20377e-19)
(1.25477 0.171838 -3.16123e-21)
(1.25875 0.153364 -3.773e-19)
(-0.0300903 0.0158718 -4.54964e-19)
(0.0812622 0.00713729 -9.28029e-20)
(0.353355 0.0357662 -9.84286e-21)
(0.690377 0.093366 2.86618e-20)
(0.966186 0.147285 1.5017e-19)
(1.13729 0.180583 -4.68475e-19)
(1.22018 0.191734 4.58196e-19)
(1.2508 0.189541 -1.0086e-19)
(1.25382 0.180099 5.91239e-20)
(1.24786 0.162746 9.70576e-20)
(-0.0156901 0.00883011 1.21498e-20)
(0.165815 0.00193841 3.72994e-19)
(0.51711 0.0613404 9.46741e-20)
(0.859447 0.134269 -5.08171e-20)
(1.08594 0.184353 -4.25669e-20)
(1.20061 0.206795 2.72779e-19)
(1.24423 0.209223 -1.1948e-21)
(1.2519 0.201207 1.9904e-19)
(1.24596 0.188412 -6.20606e-20)
(1.23944 0.172734 -2.89825e-21)
(0.00856196 0.00166604 7.43305e-20)
(0.277068 0.00955204 -1.35365e-19)
(0.682847 0.100404 1.06449e-19)
(0.994725 0.176973 1.40523e-19)
(1.16436 0.217174 -9.21855e-20)
(1.23321 0.22881 -1.52407e-20)
(1.24959 0.223668 -2.66263e-19)
(1.24548 0.212084 -1.74344e-19)
(1.23604 0.196504 2.13027e-19)
(1.22589 0.181349 -1.33898e-19)
(0.0455286 -0.00344102 9.61931e-20)
(0.408317 0.0347378 1.71522e-19)
(0.830736 0.147143 1.204e-19)
(1.0938 0.218459 -1.81664e-19)
(1.21102 0.246421 2.14401e-19)
(1.24545 0.247916 -1.13621e-19)
(1.24541 0.237132 -2.8424e-20)
(1.23497 0.222296 -1.02116e-20)
(1.22332 0.204709 -6.03381e-20)
(1.21375 0.190544 1.92397e-20)
(0.0965709 -0.00296396 2.44163e-19)
(0.546129 0.0765553 -1.35562e-19)
(0.951642 0.197255 8.48466e-20)
(1.16084 0.257821 9.9016e-20)
(1.23445 0.272859 -7.06159e-20)
(1.2452 0.265591 1.06963e-19)
(1.23537 0.250031 3.89305e-20)
(1.22192 0.232468 5.17385e-20)
(1.21023 0.21337 3.29427e-20)
(1.19946 0.198916 5.26014e-20)
(0.160473 0.00665854 -8.99645e-20)
(0.676175 0.130288 -1.31799e-19)
(1.04411 0.248411 -1.03168e-19)
(1.20161 0.294778 -9.77699e-20)
(1.24145 0.297316 -4.2966e-20)
(1.23671 0.282446 4.71637e-20)
(1.22175 0.262831 -2.32317e-20)
(1.20724 0.242608 -2.15636e-22)
(1.19526 0.221953 -2.13704e-20)
(1.18488 0.206854 3.87783e-21)
(0.233353 0.0274633 2.4082e-20)
(0.788336 0.191096 -5.23937e-21)
(1.1098 0.299227 2.32834e-20)
(1.22161 0.329471 1.82065e-20)
(1.23667 0.320311 1.36302e-20)
(1.22265 0.298869 -3.65067e-20)
(1.20533 0.275449 1.68654e-20)
(1.19065 0.252544 -1.64445e-20)
(1.17938 0.230347 -5.24799e-21)
(1.16925 0.213883 -8.55983e-21)
(0.309621 0.0594077 1.24957e-21)
(0.878009 0.255288 -7.32454e-22)
(1.15135 0.348679 -5.04772e-21)
(1.22528 0.362085 6.06196e-20)
(1.22322 0.342144 -1.642e-20)
(1.20424 0.314796 -1.5381e-20)
(1.18638 0.287704 1.99787e-21)
(1.17237 0.262038 -1.6446e-21)
(1.16179 0.238011 -6.08195e-21)
(1.15259 0.219949 -1.266e-20)
(0.383208 0.100871 -1.03628e-19)
(0.944255 0.320288 1.96085e-20)
(1.17179 0.395937 -1.67026e-19)
(1.21593 0.392571 -5.8468e-20)
(1.203 0.362778 -1.78415e-20)
(1.18213 0.329985 -2.25368e-21)
(1.16498 0.299241 -1.17472e-20)
(1.15218 0.270748 -6.33142e-21)
(1.14285 0.244825 5.95008e-21)
(1.13434 0.224936 8.70049e-21)
(0.448566 0.149536 1.78805e-19)
(0.9875 0.384022 -9.11856e-20)
(1.17396 0.440094 1.26862e-19)
(1.19594 0.420672 5.04447e-20)
(1.17716 0.381937 -1.75935e-20)
(1.15663 0.343992 5.84437e-20)
(1.14118 0.309614 -1.4791e-20)
(1.13027 0.278379 1.67857e-20)
(1.12227 0.250739 3.31703e-21)
(1.11442 0.228764 5.61107e-21)
(0.501415 0.202815 -1.09537e-19)
(1.00905 0.444708 4.14759e-19)
(1.16039 0.480309 -7.63038e-20)
(1.16704 0.445945 -4.24588e-20)
(1.14645 0.399097 8.91531e-20)
(1.12804 0.356285 -3.70277e-20)
(1.11515 0.318346 -1.28479e-20)
(1.10661 0.284583 -8.18562e-21)
(1.10006 0.255676 9.02264e-22)
(1.09359 0.231402 -1.05313e-20)
(0.539061 0.257937 -1.98682e-19)
(1.01062 0.500698 -2.21575e-19)
(1.13314 0.515664 1.35256e-19)
(1.13063 0.467738 3.72866e-20)
(1.11157 0.413582 -4.39332e-20)
(1.09673 0.366312 -5.71535e-21)
(1.0871 0.325063 1.90922e-20)
(1.08112 0.289126 6.44486e-21)
(1.07623 0.25901 -2.057e-20)
(1.07214 0.232687 -2.52803e-21)
(0.560361 0.312012 6.85981e-20)
(0.994118 0.55043 2.84911e-19)
(1.094 0.54513 -5.72027e-20)
(1.0881 0.485231 4.46418e-21)
(1.07318 0.424677 -3.34168e-21)
(1.06288 0.373459 1.6229e-21)
(1.05709 0.329467 1.52342e-20)
(1.05394 0.29168 -1.17013e-20)
(1.05133 0.260463 1.96296e-20)
(1.0501 0.232526 -1.94549e-20)
(0.565516 0.362259 -5.06993e-19)
(0.961324 0.592275 2.55628e-20)
(1.04505 0.567708 -1.05556e-19)
(1.04057 0.497394 1.3048e-20)
(1.03163 0.431734 -1.97567e-21)
(1.02674 0.377222 5.84605e-20)
(1.02541 0.331061 -4.77437e-20)
(1.02559 0.291917 2.78209e-20)
(1.02593 0.259748 -2.65606e-20)
(1.0282 0.230848 -8.90851e-20)
(0.5556 0.406393 2.57119e-19)
(0.913792 0.624155 -2.40342e-19)
(0.988571 0.582533 -1.692e-20)
(0.989013 0.50343 -3.59359e-21)
(0.987515 0.433983 9.11453e-20)
(0.988854 0.377059 -8.46895e-21)
(0.992469 0.329435 7.15482e-20)
(0.996624 0.289439 8.31545e-21)
(1.0009 0.256687 5.67759e-21)
(1.00727 0.227747 1.24772e-19)
(0.531735 0.442721 1.42306e-19)
(0.854009 0.644489 -1.99275e-20)
(0.926598 0.588356 -7.81174e-21)
(0.934501 0.502883 7.17866e-20)
(0.941568 0.430885 -3.05053e-20)
(0.949705 0.372479 -1.09468e-19)
(0.958755 0.324058 -7.04971e-20)
(0.967652 0.283657 7.0372e-21)
(0.976926 0.250757 9.7137e-20)
(0.987684 0.223576 -7.93043e-20)
(0.495104 0.468688 -1.14426e-20)
(0.786017 0.652946 -2.58837e-20)
(0.860999 0.584266 -1.00006e-19)
(0.878186 0.495196 4.70858e-21)
(0.894583 0.422008 1.50126e-19)
(0.909937 0.363134 -4.79167e-20)
(0.924822 0.314597 1.79554e-19)
(0.93908 0.273998 -2.48019e-19)
(0.953924 0.240694 -1.67206e-19)
(0.968289 0.217154 -3.59588e-20)
(0.44804 0.481032 3.56677e-20)
(0.712355 0.647982 5.37222e-20)
(0.79331 0.570158 3.44122e-20)
(0.821261 0.479926 -5.33862e-20)
(0.847441 0.40707 -2.26714e-19)
(0.870277 0.34884 2.14126e-19)
(0.891316 0.301067 8.29945e-20)
(0.911136 0.26087 1.07659e-19)
(0.931221 0.22604 3.08289e-19)
(0.946446 0.199849 -7.48596e-20)
(0.394712 0.479402 1.30847e-19)
(0.636023 0.629171 -2.32027e-20)
(0.725417 0.545836 -5.78368e-20)
(0.764985 0.456819 1.12219e-19)
(0.801109 0.385879 2.00828e-19)
(0.831565 0.329453 -4.76437e-19)
(0.85895 0.283455 -7.42832e-20)
(0.884044 0.245254 -1.93727e-19)
(0.907228 0.212989 3.92375e-20)
(0.921979 0.188134 -1.40741e-19)
(0.338277 0.463413 -2.65585e-19)
(0.559679 0.596169 -1.20209e-19)
(0.65911 0.511364 4.00165e-19)
(0.710649 0.425875 -2.2966e-19)
(0.756585 0.358442 -3.31406e-19)
(0.794598 0.304925 3.11017e-19)
(0.828284 0.261273 -2.85439e-19)
(0.858496 0.224783 1.41876e-19)
(0.88502 0.193868 -1.76502e-19)
(0.901912 0.170293 2.79314e-19)
(0.281868 0.433494 -1.08291e-19)
(0.48612 0.549356 5.9401e-19)
(0.596198 0.46701 -6.19143e-19)
(0.659543 0.387313 2.58815e-20)
(0.714879 0.325007 2.02302e-19)
(0.760077 0.275761 -1.2552e-20)
(0.79948 0.235842 4.36456e-19)
(0.83385 0.202694 -3.80673e-19)
(0.863111 0.174596 2.77434e-19)
(0.883112 0.152532 -1.87624e-19)
(0.228304 0.390663 -1.77201e-19)
(0.417859 0.489461 9.69079e-20)
(0.538408 0.413288 2.6681e-19)
(0.612933 0.341532 3.06911e-19)
(0.67703 0.285788 -7.04855e-20)
(0.728957 0.241777 2.91233e-19)
(0.773682 0.206115 2.45017e-20)
(0.811877 0.176552 3.145e-20)
(0.843828 0.151685 -1.11811e-19)
(0.866884 0.132265 -6.06794e-21)
(0.179991 0.33649 5.34758e-19)
(0.357152 0.417686 -3.71248e-19)
(0.487399 0.350985 -4.96143e-19)
(0.571982 0.28924 2.78666e-20)
(0.643844 0.241527 -1.45979e-19)
(0.701649 0.203971 1.21952e-19)
(0.750909 0.17362 -4.45992e-19)
(0.792361 0.148462 1.31547e-19)
(0.826903 0.127205 3.74443e-19)
(0.853065 0.11043 -1.81134e-19)
(0.138808 0.272651 7.26724e-20)
(0.306025 0.335787 4.61684e-19)
(0.444755 0.28117 3.33521e-19)
(0.537834 0.231225 -3.12019e-19)
(0.616272 0.192723 1.94706e-19)
(0.679031 0.162455 -8.82244e-20)
(0.732051 0.138043 -5.74707e-20)
(0.776176 0.117861 -2.7335e-20)
(0.812953 0.100808 -1.15809e-19)
(0.841895 0.0872241 2.13826e-19)
(0.106313 0.200786 -3.58168e-19)
(0.266139 0.2458 -4.17574e-19)
(0.411683 0.2053 -6.75187e-21)
(0.51137 0.168603 2.97401e-19)
(0.594926 0.140355 -5.45631e-20)
(0.661522 0.118174 -5.89872e-20)
(0.717427 0.100299 8.57246e-20)
(0.763611 0.0855223 -4.63224e-20)
(0.802195 0.0730054 -3.69576e-20)
(0.83345 0.0629535 3.84307e-20)
(0.0838516 0.122932 5.20744e-20)
(0.238805 0.149893 -6.84984e-20)
(0.389118 0.124984 2.95578e-19)
(0.493326 0.102554 -7.25069e-20)
(0.580384 0.0852987 1.36799e-19)
(0.649601 0.0717591 -3.67527e-20)
(0.70746 0.0608595 -5.73317e-20)
(0.755039 0.051853 9.18306e-20)
(0.794883 0.0442048 1.27852e-20)
(0.827806 0.0380168 -3.3068e-20)
(0.0723769 0.0413897 -1.40928e-21)
(0.224911 0.0503674 1.85311e-21)
(0.377679 0.0419619 1.37402e-19)
(0.484181 0.034417 -6.86734e-20)
(0.573018 0.028614 3.15046e-20)
(0.643562 0.0240619 -1.66917e-20)
(0.702406 0.0203988 1.99022e-20)
(0.750688 0.0173724 -2.61413e-20)
(0.791178 0.0147984 -1.59292e-20)
(0.824979 0.012707 5.64505e-24)
(0.0723772 -0.0413978 1.40925e-21)
(0.224912 -0.0503773 -1.8531e-21)
(0.377679 -0.0419706 -1.37401e-19)
(0.484182 -0.0344243 -2.44987e-20)
(0.573018 -0.0286202 -4.15492e-20)
(0.643562 -0.024067 2.22398e-20)
(0.702406 -0.0204031 3.52799e-20)
(0.750688 -0.0173759 -3.24269e-20)
(0.791179 -0.0148011 -2.84327e-20)
(0.824979 -0.0127091 -1.95225e-20)
(0.0838525 -0.12294 1.66605e-19)
(0.238806 -0.149903 -1.18436e-19)
(0.389119 -0.124993 1.68674e-19)
(0.493327 -0.102561 -2.33983e-21)
(0.580386 -0.0853048 9.83966e-20)
(0.649602 -0.0717642 -8.09175e-21)
(0.707461 -0.0608637 -4.97947e-20)
(0.75504 -0.0518564 2.01285e-19)
(0.794884 -0.0442075 -4.72258e-20)
(0.827806 -0.0380189 -1.24787e-21)
(0.106315 -0.200794 -3.57582e-19)
(0.266142 -0.24581 4.16274e-20)
(0.411685 -0.205309 -2.27212e-19)
(0.511373 -0.16861 2.10426e-20)
(0.594928 -0.140361 1.95979e-19)
(0.661524 -0.118179 -1.32489e-19)
(0.717428 -0.100303 5.26105e-20)
(0.763613 -0.0855256 -4.90876e-20)
(0.802196 -0.073008 1.30343e-19)
(0.833451 -0.0629556 -1.73368e-19)
(0.138811 -0.272659 -5.71486e-21)
(0.306028 -0.335797 5.12265e-19)
(0.444758 -0.281178 2.79315e-19)
(0.537837 -0.231232 -1.35971e-19)
(0.616275 -0.192729 -1.59998e-19)
(0.679033 -0.16246 2.39757e-19)
(0.732053 -0.138047 -9.19934e-20)
(0.776178 -0.117864 -5.75306e-20)
(0.812955 -0.100811 -1.91881e-19)
(0.841897 -0.087226 2.44767e-19)
(0.179994 -0.336498 1.57003e-19)
(0.357157 -0.417696 -2.27209e-19)
(0.487403 -0.350993 -6.27108e-19)
(0.571986 -0.289247 2.98246e-19)
(0.643848 -0.241533 -2.65791e-19)
(0.701652 -0.203975 -3.75767e-19)
(0.750912 -0.173624 2.90047e-20)
(0.792364 -0.148465 -1.21549e-20)
(0.826905 -0.127207 2.73533e-19)
(0.853067 -0.110431 -1.27527e-19)
(0.228308 -0.390671 2.66045e-19)
(0.417864 -0.48947 -1.52289e-19)
(0.538413 -0.413296 7.74229e-19)
(0.612938 -0.341539 -3.62103e-19)
(0.677034 -0.285793 -3.54497e-20)
(0.728961 -0.241782 4.12374e-19)
(0.773686 -0.206118 1.26874e-19)
(0.81188 -0.176555 -1.05657e-19)
(0.843831 -0.151687 -1.76676e-19)
(0.866887 -0.132267 9.49044e-20)
(0.281873 -0.433502 -4.76779e-21)
(0.486126 -0.549365 4.0614e-19)
(0.596205 -0.467018 -4.45001e-19)
(0.659549 -0.38732 3.05526e-19)
(0.714884 -0.325012 -7.52686e-20)
(0.760081 -0.275765 -2.47028e-19)
(0.799484 -0.235845 4.06168e-19)
(0.833854 -0.202697 1.56497e-19)
(0.863115 -0.174598 -1.35896e-19)
(0.883115 -0.152533 -6.85032e-20)
(0.338282 -0.463422 -1.36536e-19)
(0.559687 -0.596179 -6.39859e-19)
(0.659117 -0.511371 6.21526e-19)
(0.710656 -0.425881 -1.65229e-19)
(0.756591 -0.358447 -3.61015e-19)
(0.794603 -0.304929 1.73684e-19)
(0.828289 -0.261276 3.54627e-20)
(0.858501 -0.224785 1.9033e-19)
(0.885024 -0.19387 -2.19605e-19)
(0.901916 -0.170294 1.46608e-19)
(0.394718 -0.47941 2.36167e-19)
(0.636032 -0.62918 -4.93132e-20)
(0.725425 -0.545843 -2.20349e-19)
(0.764993 -0.456824 8.94114e-20)
(0.801116 -0.385883 3.44345e-19)
(0.831571 -0.329456 -3.81271e-19)
(0.858955 -0.283457 -2.45535e-19)
(0.884048 -0.245256 -1.99629e-19)
(0.907233 -0.21299 1.60818e-19)
(0.921982 -0.188135 -1.20222e-19)
(0.448047 -0.48104 -5.32715e-20)
(0.712365 -0.647991 9.31091e-20)
(0.79332 -0.570165 5.60868e-20)
(0.821269 -0.479931 -1.4598e-19)
(0.847449 -0.407074 -2.39796e-20)
(0.870283 -0.348842 2.11982e-19)
(0.891322 -0.301069 -2.18755e-19)
(0.911141 -0.260871 3.09291e-19)
(0.931226 -0.22604 1.53809e-19)
(0.94645 -0.199849 -5.28826e-20)
(0.495112 -0.468695 -4.27188e-21)
(0.786028 -0.652955 -2.88755e-20)
(0.86101 -0.584272 -8.99675e-20)
(0.878195 -0.4952 -6.15276e-20)
(0.894591 -0.422011 5.98732e-20)
(0.909944 -0.363136 1.56206e-19)
(0.924829 -0.314598 -6.72367e-20)
(0.939086 -0.273999 -8.12252e-20)
(0.95393 -0.240693 -2.98062e-19)
(0.968294 -0.217153 1.68501e-19)
(0.531745 -0.442729 1.85876e-19)
(0.854021 -0.644497 1.82315e-20)
(0.926609 -0.588362 -2.91691e-20)
(0.934511 -0.502887 4.8836e-20)
(0.941577 -0.430887 -1.46726e-19)
(0.949713 -0.37248 -7.58451e-20)
(0.958763 -0.324059 -9.71055e-20)
(0.967658 -0.283657 1.77087e-19)
(0.976932 -0.250757 7.21688e-20)
(0.987689 -0.223575 -6.87168e-20)
(0.555611 -0.4064 9.9051e-20)
(0.913806 -0.624162 -1.43371e-19)
(0.988584 -0.582538 -2.0128e-20)
(0.989024 -0.503433 6.41486e-21)
(0.987525 -0.433985 3.59894e-20)
(0.988863 -0.37706 -9.35722e-21)
(0.992477 -0.329435 1.76496e-19)
(0.996631 -0.289439 -1.44822e-19)
(1.00091 -0.256686 -1.08106e-20)
(1.00727 -0.227745 1.97152e-19)
(0.565528 -0.362266 -3.71031e-19)
(0.96134 -0.592282 -1.07955e-19)
(1.04506 -0.567712 -1.02883e-20)
(1.04059 -0.497396 -9.1088e-22)
(1.03164 -0.431735 6.10594e-21)
(1.02675 -0.377222 7.88256e-20)
(1.02542 -0.33106 -1.14852e-19)
(1.0256 -0.291915 2.6729e-20)
(1.02594 -0.259746 -3.2648e-20)
(1.0282 -0.230846 -5.33436e-20)
(0.560374 -0.312019 8.96584e-21)
(0.994135 -0.550436 2.93281e-19)
(1.09402 -0.545133 3.07857e-20)
(1.08811 -0.485233 -1.68415e-20)
(1.07319 -0.424677 -2.29832e-22)
(1.06289 -0.373458 3.16383e-21)
(1.0571 -0.329465 1.93804e-20)
(1.05395 -0.291677 -2.80621e-20)
(1.05134 -0.26046 3.90867e-21)
(1.0501 -0.232523 -1.84227e-21)
(0.539074 -0.257943 7.34911e-20)
(1.01064 -0.500703 -1.37296e-19)
(1.13315 -0.515666 4.84662e-20)
(1.13064 -0.467738 6.28058e-20)
(1.11158 -0.413581 -4.53516e-20)
(1.09674 -0.36631 -3.38001e-21)
(1.08711 -0.32506 -1.22174e-20)
(1.08113 -0.289122 1.48214e-20)
(1.07624 -0.259006 -2.11477e-20)
(1.07214 -0.232683 2.08189e-20)
(0.50143 -0.20282 1.0108e-19)
(1.00907 -0.444713 1.73941e-19)
(1.16041 -0.480311 9.90581e-20)
(1.16706 -0.445944 -1.06822e-19)
(1.14646 -0.399095 9.76599e-20)
(1.12805 -0.356282 -4.19185e-20)
(1.11516 -0.318342 -5.84937e-21)
(1.10662 -0.284579 -5.31914e-21)
(1.10007 -0.255671 1.65901e-21)
(1.09359 -0.231397 -1.18408e-20)
(0.448581 -0.14954 2.60129e-19)
(0.987522 -0.384027 -1.36855e-19)
(1.17398 -0.440094 7.82417e-20)
(1.19596 -0.42067 7.21429e-20)
(1.17718 -0.381934 -3.18388e-20)
(1.15664 -0.343988 4.89757e-20)
(1.14119 -0.309609 1.50078e-20)
(1.13028 -0.278374 1.57455e-20)
(1.12228 -0.250733 8.7752e-21)
(1.11442 -0.228757 3.81054e-21)
(0.383223 -0.100874 -9.51674e-20)
(0.944278 -0.320291 -1.32363e-19)
(1.17181 -0.395937 -8.74429e-20)
(1.21595 -0.392569 -8.01216e-20)
(1.20302 -0.362774 -2.80011e-20)
(1.18214 -0.329979 3.64808e-20)
(1.16499 -0.299235 -1.46947e-20)
(1.15219 -0.270741 2.97682e-21)
(1.14286 -0.244818 -7.9528e-21)
(1.13435 -0.224928 4.79182e-21)
(0.309635 -0.0594097 2.46309e-20)
(0.878034 -0.255291 -5.38082e-21)
(1.15137 -0.348679 2.21121e-20)
(1.2253 -0.362081 1.45406e-20)
(1.22324 -0.342139 1.26798e-20)
(1.20425 -0.314789 -2.93876e-20)
(1.18639 -0.287697 1.31101e-20)
(1.17238 -0.26203 -1.21942e-20)
(1.1618 -0.238002 -2.99118e-21)
(1.15259 -0.21994 -3.96687e-21)
(0.233365 -0.0274643 1.02532e-21)
(0.788362 -0.191099 -7.80414e-22)
(1.10983 -0.299226 -5.22268e-21)
(1.22163 -0.329467 6.68818e-20)
(1.23668 -0.320304 -1.81396e-20)
(1.22266 -0.298861 -2.08717e-20)
(1.20534 -0.27544 3.81113e-21)
(1.19066 -0.252534 -3.83598e-21)
(1.17938 -0.230337 -9.05185e-21)
(1.16926 -0.213873 -1.99419e-20)
(0.160484 -0.00665857 -9.85801e-20)
(0.676202 -0.130291 2.13854e-20)
(1.04414 -0.24841 -1.83531e-19)
(1.20163 -0.294773 -6.95568e-20)
(1.24147 -0.297309 -2.57597e-20)
(1.23672 -0.282437 -7.60572e-21)
(1.22177 -0.262821 -1.95176e-20)
(1.20725 -0.242597 -1.8593e-20)
(1.19527 -0.221941 5.65046e-21)
(1.18489 -0.206841 1.38497e-20)
(0.096579 0.00296473 1.66759e-19)
(0.546156 -0.0765569 -9.35404e-20)
(0.951671 -0.197254 1.43842e-19)
(1.16086 -0.257816 7.36636e-20)
(1.23447 -0.272851 -4.32751e-20)
(1.24522 -0.265581 1.3363e-19)
(1.23538 -0.250019 -2.79745e-20)
(1.22194 -0.232455 5.12674e-20)
(1.21024 -0.213356 3.52862e-21)
(1.19947 -0.198901 5.08427e-20)
(0.0455344 0.00344223 -1.02987e-19)
(0.408341 -0.0347382 4.276e-19)
(0.830767 -0.147142 -9.38917e-20)
(1.09383 -0.218454 -7.97325e-20)
(1.21104 -0.246413 2.03677e-19)
(1.24547 -0.247905 -9.05126e-20)
(1.24543 -0.237119 -4.69125e-20)
(1.23498 -0.222281 -2.52536e-20)
(1.22333 -0.204692 -9.59368e-20)
(1.21376 -0.190526 3.43862e-20)
(0.00856568 -0.00166477 -1.86431e-19)
(0.277089 -0.00955094 -2.53912e-19)
(0.68288 -0.100403 2.00637e-19)
(0.994758 -0.176969 5.63976e-20)
(1.16439 -0.217166 -1.45468e-19)
(1.23323 -0.228799 -1.47312e-19)
(1.24961 -0.223653 7.84614e-21)
(1.2455 -0.212067 -9.58821e-20)
(1.23605 -0.196485 1.45962e-19)
(1.2259 -0.181328 -2.0985e-20)
(-0.0156879 -0.00882901 8.29202e-20)
(0.16583 -0.00193634 3.96749e-19)
(0.517142 -0.0613403 -4.98159e-20)
(0.859484 -0.134267 1.40214e-20)
(1.08598 -0.184347 -3.3095e-20)
(1.20064 -0.206783 1.93078e-19)
(1.24425 -0.209207 6.54092e-20)
(1.25191 -0.201188 1.11315e-19)
(1.24597 -0.18839 -1.01776e-19)
(1.23945 -0.17271 6.11939e-20)
(-0.030089 -0.0158709 -6.13778e-19)
(0.0812725 -0.00713545 1.56062e-19)
(0.353382 -0.0357662 -1.99266e-19)
(0.690415 -0.093366 2.40269e-19)
(0.966225 -0.147282 -5.93359e-20)
(1.13732 -0.180573 -3.38747e-19)
(1.22021 -0.191718 1.81365e-19)
(1.25082 -0.18952 -6.78338e-20)
(1.25383 -0.180073 6.16656e-20)
(1.24787 -0.162717 1.84524e-19)
(-0.0374131 -0.0220015 2.874e-19)
(0.0226977 -0.0184646 -4.32131e-19)
(0.213714 -0.0265975 -5.34816e-20)
(0.504041 -0.0607921 -2.66876e-19)
(0.80095 -0.108113 -3.29653e-19)
(1.02805 -0.14784 1.62391e-19)
(1.16634 -0.170256 -2.01893e-19)
(1.23129 -0.173757 -2.42971e-20)
(1.25479 -0.17181 -1.89488e-20)
(1.25876 -0.153329 -2.35793e-19)
(-0.039769 -0.0270484 2.66945e-19)
(-0.0145517 -0.0312979 -1.02219e-19)
(0.109342 -0.0306155 9.74972e-20)
(0.329116 -0.0431313 -1.44607e-19)
(0.603839 -0.0738748 1.42278e-19)
(0.863575 -0.110684 2.63675e-19)
(1.05941 -0.14014 1.56292e-19)
(1.18266 -0.154568 -7.74564e-21)
(1.2353 -0.157709 -1.74171e-19)
(1.26007 -0.143284 1.39742e-19)
(-0.0388765 -0.0311291 3.1059e-19)
(-0.0359009 -0.0435014 9.95892e-20)
(0.0389945 -0.041615 1.66989e-19)
(0.189372 -0.0409202 4.90602e-20)
(0.407924 -0.0530497 -2.38675e-19)
(0.657774 -0.0765735 7.15714e-20)
(0.887957 -0.105533 -2.72073e-19)
(1.06814 -0.122348 3.76579e-19)
(1.1882 -0.144656 2.25923e-19)
(1.23262 -0.120158 6.03246e-20)
(-0.0360684 -0.0344156 -4.39447e-19)
(-0.0461833 -0.0541708 -1.09387e-19)
(-0.00450459 -0.0545287 -1.27489e-19)
(0.0913934 -0.0487014 7.41871e-20)
(0.245345 -0.0475907 3.01518e-19)
(0.447738 -0.0555722 -2.42731e-19)
(0.672147 -0.0742802 -1.05372e-19)
(0.879821 -0.0873409 -1.32969e-19)
(1.0527 -0.111524 -4.24661e-19)
(1.19646 -0.116433 1.07865e-19)
(-0.0323076 -0.0369588 -1.79328e-19)
(-0.0493821 -0.0627452 3.92389e-20)
(-0.0293045 -0.0662484 1.95952e-20)
(0.028596 -0.0599052 -1.20026e-19)
(0.128045 -0.0524363 -1.92169e-19)
(0.272006 -0.0516699 5.07751e-19)
(0.450398 -0.0510963 7.13749e-20)
(0.660045 -0.0648427 2.21892e-19)
(0.81406 -0.0699914 -4.3722e-20)
(1.07753 -0.0958892 1.67156e-19)
(-0.0282561 -0.0386622 3.19921e-19)
(-0.0485234 -0.0686439 7.15698e-20)
(-0.0424554 -0.0748341 -3.38255e-19)
(-0.00998582 -0.0697765 1.88496e-19)
(0.0501341 -0.0608008 3.0683e-19)
(0.14484 -0.05664 -2.99017e-19)
(0.260544 -0.0401796 2.55098e-19)
(0.453033 -0.0569132 -1.38631e-19)
(0.535646 -0.0401318 2.01753e-19)
(0.869133 -0.0681763 -3.1691e-19)
(-0.024259 -0.0392939 6.15133e-20)
(-0.0456273 -0.0712432 -4.61227e-19)
(-0.0492018 -0.079065 4.48323e-19)
(-0.0342076 -0.0754987 -2.56723e-20)
(-0.000972933 -0.0671642 -1.49191e-19)
(0.0573229 -0.0611069 -5.14873e-21)
(0.122644 -0.0426273 -3.9284e-19)
(0.273419 -0.0519412 3.53152e-19)
(0.304133 -0.0310491 -2.82514e-19)
(0.60796 -0.0467707 1.96947e-19)
(-0.0204086 -0.038468 9.22434e-20)
(-0.041964 -0.0700249 -4.63112e-20)
(-0.0529397 -0.0782946 -1.58685e-19)
(-0.05084 -0.0758243 -1.94848e-19)
(-0.0364706 -0.0687728 4.41653e-20)
(-0.00425843 -0.0617172 -2.16865e-19)
(0.0292576 -0.0486364 -7.22229e-21)
(0.127477 -0.0451306 -3.28492e-20)
(0.143414 -0.037648 9.75139e-20)
(0.348515 -0.0342734 4.53841e-21)
(-0.0167607 -0.0357692 -2.6454e-19)
(-0.0382918 -0.0647349 1.8938e-19)
(-0.0554749 -0.0724104 2.66488e-19)
(-0.0636001 -0.0705808 -1.14941e-20)
(-0.0630006 -0.064844 8.80188e-20)
(-0.050132 -0.0579347 -8.27519e-20)
(-0.0375002 -0.0500857 3.30932e-19)
(0.0173902 -0.0387068 -1.06597e-19)
(0.0279445 -0.0424647 -3.38803e-19)
(0.139609 -0.0213283 1.60245e-19)
(-0.0134383 -0.0309397 -1.86574e-20)
(-0.0350271 -0.0554284 -2.13141e-19)
(-0.0575396 -0.0617831 -1.68587e-19)
(-0.073876 -0.0603326 1.64287e-19)
(-0.0838435 -0.0557103 -1.21171e-19)
(-0.0861422 -0.049913 5.51968e-20)
(-0.0865534 -0.0448856 4.13649e-20)
(-0.0623306 -0.032362 1.93239e-20)
(-0.0612867 -0.0370159 1.00448e-19)
(-0.00597628 -0.0106941 -1.89503e-19)
(-0.0106378 -0.0239845 1.45885e-19)
(-0.0324039 -0.0425145 1.84203e-19)
(-0.0592675 -0.0471586 5.74635e-21)
(-0.0819431 -0.0460214 -1.47723e-19)
(-0.0999778 -0.0425567 2.41232e-20)
(-0.113061 -0.0383016 3.79081e-20)
(-0.122743 -0.0341478 -5.75321e-20)
(-0.120154 -0.0252113 3.00027e-20)
(-0.126081 -0.0269291 3.07956e-20)
(-0.104596 -0.00674204 -3.1654e-20)
(-0.00859171 -0.0152162 -2.08034e-20)
(-0.0305712 -0.0267448 2.87059e-20)
(-0.0605517 -0.0295382 -1.28172e-19)
(-0.0875972 -0.0287847 3.3314e-20)
(-0.111125 -0.0266227 -7.34542e-20)
(-0.130991 -0.0240029 1.98999e-20)
(-0.147253 -0.0210911 3.58478e-20)
(-0.15716 -0.0161589 -6.41616e-20)
(-0.168067 -0.0157346 -7.43781e-21)
(-0.165043 -0.00525654 2.86616e-20)
(-0.00750728 -0.005229 -1.4327e-20)
(-0.0296281 -0.0091452 3.0596e-21)
(-0.0612406 -0.0100725 6.83121e-20)
(-0.090522 -0.00980262 2.71243e-20)
(-0.116821 -0.00906124 -1.59667e-20)
(-0.13996 -0.00816359 9.06425e-21)
(-0.159672 -0.00711011 -1.21454e-20)
(-0.175066 -0.0055555 1.87321e-20)
(-0.188865 -0.00512155 1.24077e-20)
(-0.194131 -0.00200602 5.23223e-24)
(-0.197834 0.0032707 -4.93343e-20)
(-0.201585 0.00303064 3.53022e-20)
(-0.204823 0.00271455 4.79761e-22)
(-0.207674 0.0024334 -6.11352e-21)
(-0.210207 0.00218771 -1.22003e-20)
(-0.212456 0.00197235 -1.40209e-20)
(-0.214452 0.00178183 -2.39743e-20)
(-0.216225 0.0016103 4.26292e-20)
(-0.217794 0.00145236 -2.41618e-20)
(-0.219176 0.00130345 4.95332e-20)
(-0.220382 0.00115999 -3.11903e-20)
(-0.221421 0.00101919 -4.49867e-21)
(-0.222298 0.000879032 -1.10003e-20)
(-0.223017 0.000738401 2.85174e-20)
(-0.223579 0.00059754 -1.8779e-20)
(-0.223988 0.000457246 1.91391e-20)
(-0.224248 0.000316517 -1.33087e-20)
(-0.224368 0.000175528 -1.11984e-20)
(-0.224358 2.91615e-05 7.21232e-21)
(-0.224219 -0.00012187 -4.78692e-21)
(-0.223947 -0.000277135 1.78469e-20)
(-0.223541 -0.000436216 -8.13014e-21)
(-0.223 -0.000598441 -1.20276e-20)
(-0.222323 -0.000763117 7.45735e-21)
(-0.221509 -0.000930449 -1.01114e-20)
(-0.220558 -0.00110012 1.18996e-20)
(-0.219466 -0.00127172 3.29803e-21)
(-0.218232 -0.00144476 -9.50162e-21)
(-0.216855 -0.00161862 1.70355e-20)
(-0.215332 -0.00179263 1.7381e-20)
(-0.213661 -0.00196603 -1.80717e-20)
(-0.21184 -0.00213806 7.60891e-21)
(-0.209867 -0.00230791 9.33267e-21)
(-0.20774 -0.00247476 -1.675e-20)
(-0.205457 -0.0026378 1.95612e-20)
(-0.203016 -0.00279623 -1.91248e-20)
(-0.200415 -0.00294927 2.27675e-20)
(-0.197654 -0.00309619 -1.03753e-20)
(-0.194729 -0.0032363 -4.01423e-21)
(-0.191641 -0.00336899 7.23008e-22)
(-0.188389 -0.00349371 6.07066e-21)
(-0.184971 -0.00360999 3.5293e-21)
(-0.181387 -0.00371745 8.03057e-23)
(-0.177638 -0.00381583 -9.34019e-21)
(-0.173723 -0.00390494 -1.05787e-21)
(-0.169643 -0.00398473 -2.98999e-21)
(-0.165399 -0.00405523 6.30608e-21)
(-0.160991 -0.00411659 -5.38097e-22)
(-0.156422 -0.00416906 6.76413e-21)
(-0.151693 -0.00421297 -1.2941e-20)
(-0.146806 -0.00424869 6.54259e-21)
(-0.141763 -0.00427658 5.04732e-22)
(-0.136567 -0.0042971 -1.10878e-20)
(-0.13122 -0.004311 5.3305e-21)
(-0.125726 -0.00431902 2.42017e-21)
(-0.120092 -0.00432195 1.38836e-21)
(-0.11432 -0.00432105 -3.26365e-21)
(-0.108415 -0.00431711 1.90901e-22)
(-0.102381 -0.00431092 1.01945e-20)
(-0.0962235 -0.00430337 -1.48777e-20)
(-0.0899472 -0.00429535 1.0251e-20)
(-0.0835573 -0.00428773 1.40013e-21)
(-0.0770593 -0.00428139 -1.40956e-21)
(-0.0704588 -0.00427717 -1.07044e-21)
(-0.0637613 -0.0042758 1.16631e-21)
(-0.0569731 -0.00427797 -2.21381e-21)
(-0.0501005 -0.00428493 -2.0836e-22)
(-0.0431469 -0.00429895 -5.51085e-22)
(-0.036119 -0.0043148 2.83453e-22)
(-0.0290256 -0.00433588 1.50122e-21)
(-0.0218718 -0.00436326 -2.82023e-21)
(-0.0146633 -0.00439694 -7.49885e-22)
(-0.0074062 -0.00443691 2.32126e-21)
(-0.000106259 -0.00448314 1.6208e-21)
(0.00723082 -0.00453553 -1.93535e-21)
(0.0145992 -0.00459392 7.95756e-22)