/*--------------------------------*- C++ -*----------------------------------*\
  =========                 |
  \\      /  F ield         | OpenFOAM: The Open Source CFD Toolbox
   \\    /   O peration     | Website:  https://openfoam.org
    \\  /    A nd           | Version:  7
     \\/     M anipulation  |
\*---------------------------------------------------------------------------*/
FoamFile
{
    version     2.0;
    format      ascii;
    class       volScalarField;
    location    "9.999";
    object      p;
}
// * * * * * * * * * * * * * * * * * * * * * * * * * * * * * * * * * * * * * //

dimensions      [0 2 -2 0 0 0 0];

internalField   nonuniform List<scalar> 
3700
(
-0.332136
-0.309962
-0.290518
-0.272694
-0.256526
-0.241876
-0.228581
-0.216496
-0.205504
-0.195498
-0.186384
-0.178083
-0.170526
-0.163651
-0.157404
-0.151739
-0.146613
-0.141988
-0.137832
-0.134115
-0.130811
-0.127898
-0.125354
-0.123164
-0.121313
-0.119789
-0.118581
-0.117682
-0.117086
-0.116788
-0.329448
-0.307052
-0.287506
-0.269736
-0.253706
-0.23923
-0.226125
-0.214243
-0.203458
-0.193658
-0.184744
-0.176633
-0.169255
-0.162547
-0.156454
-0.15093
-0.145931
-0.141421
-0.137368
-0.133742
-0.130518
-0.127674
-0.125192
-0.123054
-0.121247
-0.119758
-0.118578
-0.1177
-0.117117
-0.116827
-0.32418
-0.301718
-0.28238
-0.264921
-0.249226
-0.235092
-0.222328
-0.21078
-0.200315
-0.190817
-0.182186
-0.174339
-0.167204
-0.160719
-0.154829
-0.149489
-0.144657
-0.140296
-0.136376
-0.132869
-0.129749
-0.126997
-0.124594
-0.122523
-0.120772
-0.11933
-0.118186
-0.117335
-0.11677
-0.116489
-0.316102
-0.294008
-0.275217
-0.258323
-0.243165
-0.229543
-0.217266
-0.206178
-0.196141
-0.187038
-0.17877
-0.171255
-0.164422
-0.158212
-0.152572
-0.147456
-0.142826
-0.138646
-0.134887
-0.131522
-0.128528
-0.125886
-0.123578
-0.121588
-0.119905
-0.118519
-0.117419
-0.1166
-0.116057
-0.115786
-0.305221
-0.283961
-0.266081
-0.250015
-0.235604
-0.222669
-0.211027
-0.200519
-0.191011
-0.182388
-0.174557
-0.167437
-0.160963
-0.155075
-0.149726
-0.144872
-0.140475
-0.136504
-0.132931
-0.12973
-0.126881
-0.124365
-0.122166
-0.12027
-0.118666
-0.117343
-0.116294
-0.115513
-0.114994
-0.114736
-0.291682
-0.271691
-0.255061
-0.240081
-0.226631
-0.214557
-0.20369
-0.193878
-0.184994
-0.176933
-0.169607
-0.162942
-0.156876
-0.151356
-0.146335
-0.141775
-0.137641
-0.133905
-0.130539
-0.127523
-0.124835
-0.12246
-0.120383
-0.118592
-0.117074
-0.115823
-0.114831
-0.114091
-0.1136
-0.113355
-0.275745
-0.257411
-0.242321
-0.228658
-0.216363
-0.205311
-0.195348
-0.186338
-0.178168
-0.170743
-0.163984
-0.157827
-0.152215
-0.1471
-0.142442
-0.138206
-0.134362
-0.130882
-0.127745
-0.124929
-0.122419
-0.120198
-0.118255
-0.116577
-0.115155
-0.113982
-0.113051
-0.112357
-0.111896
-0.111666
-0.257769
-0.241425
-0.228106
-0.215948
-0.204968
-0.195072
-0.186123
-0.178006
-0.170624
-0.163898
-0.157761
-0.152157
-0.147038
-0.142364
-0.138098
-0.134212
-0.130678
-0.127475
-0.124583
-0.121984
-0.119663
-0.117608
-0.115808
-0.114252
-0.112933
-0.111843
-0.110978
-0.110333
-0.109905
-0.109691
-0.238209
-0.224107
-0.212721
-0.202202
-0.192657
-0.184016
-0.176164
-0.169008
-0.162474
-0.156497
-0.151024
-0.146009
-0.141415
-0.137207
-0.133357
-0.129841
-0.126636
-0.123726
-0.121092
-0.118721
-0.116601
-0.114721
-0.113072
-0.111645
-0.110434
-0.109433
-0.108638
-0.108045
-0.107651
-0.107454
-0.217579
-0.205874
-0.196508
-0.187707
-0.17967
-0.172345
-0.165641
-0.159491
-0.153843
-0.148648
-0.143868
-0.139468
-0.135419
-0.131697
-0.12828
-0.125148
-0.122286
-0.119679
-0.117315
-0.115182
-0.11327
-0.111572
-0.110079
-0.108787
-0.107688
-0.10678
-0.106057
-0.105517
-0.105159
-0.10498
-0.19641
-0.187154
-0.179818
-0.172761
-0.166258
-0.16027
-0.154734
-0.149609
-0.144864
-0.140467
-0.136394
-0.132622
-0.129131
-0.125905
-0.12293
-0.120192
-0.117679
-0.115383
-0.113294
-0.111404
-0.109706
-0.108194
-0.106863
-0.105707
-0.104724
-0.10391
-0.103262
-0.102778
-0.102456
-0.102295
-0.175218
-0.168361
-0.162998
-0.157655
-0.152666
-0.148
-0.143622
-0.139516
-0.135671
-0.132071
-0.128705
-0.12556
-0.122629
-0.119902
-0.11737
-0.115028
-0.112868
-0.110885
-0.109074
-0.107429
-0.105947
-0.104623
-0.103455
-0.102439
-0.101572
-0.100854
-0.100281
-0.099853
-0.0995681
-0.0994258
-0.154444
-0.149867
-0.146366
-0.142663
-0.139127
-0.135733
-0.132475
-0.12936
-0.126393
-0.123572
-0.120899
-0.118373
-0.115992
-0.113757
-0.111665
-0.109715
-0.107905
-0.106233
-0.104698
-0.103297
-0.10203
-0.100894
-0.0998886
-0.0990117
-0.0982625
-0.0976398
-0.0971427
-0.0967705
-0.0965227
-0.0963989
-0.134464
-0.131988
-0.1302
-0.128026
-0.125848
-0.123651
-0.121453
-0.11928
-0.11715
-0.115077
-0.113072
-0.111142
-0.109296
-0.107539
-0.105875
-0.104307
-0.102839
-0.101472
-0.100208
-0.099048
-0.0979925
-0.0970421
-0.0961971
-0.0954577
-0.0948241
-0.0942961
-0.0938739
-0.0935572
-0.0933462
-0.0932407
-0.115602
-0.114997
-0.114739
-0.113951
-0.113011
-0.111912
-0.110694
-0.109398
-0.108054
-0.106685
-0.10531
-0.103947
-0.10261
-0.10131
-0.100057
-0.0988578
-0.0977197
-0.0966479
-0.0956467
-0.0947198
-0.0938702
-0.0931003
-0.092412
-0.0918069
-0.0912862
-0.090851
-0.090502
-0.0902397
-0.0900647
-0.0899771
-0.0980973
-0.0991093
-0.100173
-0.100606
-0.100764
-0.10065
-0.100319
-0.0998233
-0.0991996
-0.0984802
-0.0976922
-0.0968588
-0.0959994
-0.0951302
-0.0942651
-0.0934156
-0.0925916
-0.0918014
-0.0910518
-0.0903487
-0.089697
-0.0891009
-0.0885636
-0.0880882
-0.0876767
-0.0873313
-0.0870532
-0.0868437
-0.0867036
-0.0866335
-0.0821053
-0.0844666
-0.0866393
-0.0881171
-0.0892241
-0.0899716
-0.090426
-0.0906436
-0.0906684
-0.0905382
-0.0902856
-0.0899383
-0.0895199
-0.0890506
-0.0885474
-0.0880252
-0.0874962
-0.0869713
-0.0864595
-0.0859684
-0.0855048
-0.085074
-0.0846809
-0.0843292
-0.0840223
-0.0837627
-0.0835527
-0.0833938
-0.0832872
-0.0832337
-0.0677136
-0.0711522
-0.0742238
-0.0765693
-0.0784742
-0.0799565
-0.0810885
-0.0819291
-0.0825256
-0.0829195
-0.0831469
-0.0832385
-0.0832209
-0.0831169
-0.0829463
-0.082726
-0.0824705
-0.0821925
-0.0819026
-0.0816101
-0.0813229
-0.0810478
-0.0807905
-0.0805558
-0.0803478
-0.0801696
-0.0800241
-0.0799131
-0.0798384
-0.0798008
-0.0549398
-0.0591983
-0.0629694
-0.0660102
-0.0685647
-0.0706562
-0.0723587
-0.0737306
-0.0748204
-0.0756714
-0.0763211
-0.0768022
-0.0771428
-0.0773677
-0.0774981
-0.0775526
-0.0775471
-0.0774958
-0.0774104
-0.0773016
-0.0771782
-0.0770479
-0.0769173
-0.0767919
-0.0766763
-0.0765745
-0.0764895
-0.0764236
-0.0763788
-0.0763561
-0.0437426
-0.0485915
-0.0528801
-0.056454
-0.0595176
-0.0620984
-0.0642677
-0.0660813
-0.0675871
-0.0688282
-0.0698424
-0.0706627
-0.0713182
-0.0718342
-0.0722329
-0.0725338
-0.0727539
-0.072908
-0.0730089
-0.0730678
-0.0730945
-0.0730974
-0.0730835
-0.0730591
-0.0730292
-0.0729982
-0.0729693
-0.0729454
-0.0729284
-0.0729195
-0.0340387
-0.0392825
-0.0439268
-0.0478864
-0.0513312
-0.05429
-0.0568285
-0.0589986
-0.060846
-0.0624123
-0.0637343
-0.0648444
-0.0657715
-0.0665409
-0.067175
-0.0676936
-0.0681141
-0.0684517
-0.0687199
-0.0689302
-0.0690928
-0.0692166
-0.0693092
-0.069377
-0.0694256
-0.0694594
-0.0694821
-0.0694967
-0.0695053
-0.0695093
-0.0257219
-0.0311943
-0.0360543
-0.0402713
-0.0439839
-0.0472201
-0.0500385
-0.0524861
-0.0546055
-0.0564355
-0.0580111
-0.0593633
-0.0605199
-0.0615057
-0.0623428
-0.0630505
-0.0636464
-0.0641457
-0.0645619
-0.0649069
-0.065191
-0.0654234
-0.0656117
-0.0657628
-0.0658823
-0.065975
-0.0660446
-0.0660942
-0.0661261
-0.0661416
-0.0186717
-0.0242337
-0.0291921
-0.033557
-0.0374394
-0.0408642
-0.0438826
-0.0465362
-0.0488635
-0.0509003
-0.0526788
-0.054228
-0.0555741
-0.0567409
-0.0577494
-0.0586185
-0.0593653
-0.0600047
-0.06055
-0.0610131
-0.0614043
-0.0617327
-0.0620061
-0.0622314
-0.0624143
-0.0625596
-0.0626713
-0.0627524
-0.0628052
-0.0628312
-0.0127598
-0.0182994
-0.0232608
-0.0276825
-0.031651
-0.0351878
-0.0383361
-0.0411321
-0.04361
-0.0458017
-0.0477364
-0.0494407
-0.0509389
-0.0522531
-0.0534032
-0.0544071
-0.0552812
-0.0560397
-0.0566957
-0.0572607
-0.0577448
-0.0581569
-0.0585049
-0.0587954
-0.0590341
-0.059226
-0.0593749
-0.0594839
-0.0595553
-0.0595906
-0.00785736
-0.0132877
-0.0181765
-0.0225806
-0.0265658
-0.0301494
-0.0333673
-0.0362503
-0.038828
-0.0411283
-0.0431771
-0.0449983
-0.0466141
-0.0480446
-0.0493083
-0.050422
-0.0514009
-0.0522587
-0.0530077
-0.0536589
-0.0542222
-0.0547061
-0.0551182
-0.0554651
-0.0557524
-0.0559848
-0.0561662
-0.0562996
-0.0563873
-0.0564307
-0.00383957
-0.00909539
-0.0138538
-0.0181813
-0.0221266
-0.0257032
-0.02894
-0.0318626
-0.0344959
-0.0368639
-0.0389893
-0.0408931
-0.0425951
-0.0441134
-0.045465
-0.0466651
-0.047728
-0.0486663
-0.0494915
-0.0502142
-0.0508435
-0.0513878
-0.0518541
-0.052249
-0.0525776
-0.0528447
-0.053054
-0.0532084
-0.0533101
-0.0533605
-0.00058932
-0.00562372
-0.0102088
-0.0144142
-0.0182751
-0.0218011
-0.0250149
-0.027937
-0.0305883
-0.0329888
-0.0351579
-0.0371139
-0.0388741
-0.0404546
-0.0418705
-0.0431358
-0.0442633
-0.0452646
-0.0461505
-0.0469307
-0.0476137
-0.0482074
-0.0487186
-0.0491532
-0.0495165
-0.0498126
-0.0500454
-0.0502174
-0.050331
-0.0503874
0.00200138
-0.0027797
-0.00716127
-0.0112111
-0.0149534
-0.0183943
-0.0215511
-0.0244399
-0.0270776
-0.0294806
-0.0316651
-0.0336467
-0.0354404
-0.0370602
-0.0385195
-0.0398305
-0.041005
-0.0420534
-0.0429855
-0.0438102
-0.0445355
-0.0451685
-0.0457156
-0.0461825
-0.0465738
-0.0468938
-0.0471457
-0.0473324
-0.0474557
-0.047517
0.00403062
-0.00047777
-0.00463655
-0.00850704
-0.0121054
-0.0154348
-0.0185078
-0.0213369
-0.0239349
-0.0263152
-0.0284911
-0.0304756
-0.0322813
-0.0339203
-0.0354042
-0.0367438
-0.0379494
-0.0390304
-0.0399956
-0.040853
-0.0416098
-0.0422728
-0.0428476
-0.0433395
-0.043753
-0.0440917
-0.044359
-0.0445573
-0.0446885
-0.0447537
0.00558608
0.0013589
-0.00256606
-0.00624141
-0.00967785
-0.0128762
-0.015845
-0.0185933
-0.0211308
-0.0234678
-0.0256151
-0.0275831
-0.0293824
-0.0310233
-0.0325155
-0.0338684
-0.035091
-0.0361917
-0.0371781
-0.0380574
-0.0388362
-0.0395204
-0.0401154
-0.0406259
-0.0410558
-0.0414088
-0.0416878
-0.041895
-0.0420322
-0.0421005
0.00674373
0.00279851
-0.000887492
-0.00435811
-0.00762081
-0.0106744
-0.0135241
-0.0161757
-0.0186362
-0.0209134
-0.0230156
-0.0249511
-0.0267286
-0.0283564
-0.0298428
-0.0311959
-0.0324231
-0.0335319
-0.034529
-0.0354206
-0.0362127
-0.0369104
-0.0375187
-0.0380417
-0.0384831
-0.0388461
-0.0391333
-0.0393469
-0.0394885
-0.0395589
0.00757028
0.00390223
0.000455696
-0.00280592
-0.0058883
-0.00878841
-0.0115084
-0.0140516
-0.0164227
-0.0186272
-0.0206712
-0.0225612
-0.0243039
-0.0259063
-0.027375
-0.0287167
-0.0299379
-0.0310448
-0.0320432
-0.0329387
-0.0337362
-0.0344406
-0.0350559
-0.0355861
-0.0360343
-0.0364035
-0.036696
-0.0369137
-0.037058
-0.03713
0.00812416
0.00472486
0.00151441
-0.00153841
-0.00443815
-0.00718001
-0.00976372
-0.0121905
-0.0144631
-0.0165851
-0.0185607
-0.0203948
-0.0220924
-0.023659
-0.0251
-0.0264208
-0.0276268
-0.0287232
-0.0297149
-0.0306067
-0.031403
-0.0321078
-0.0327248
-0.0332573
-0.0337082
-0.0340801
-0.0343751
-0.0345949
-0.0347407
-0.0348134
0.00845564
0.00531463
0.00233369
-0.000514043
-0.00323213
-0.00581425
-0.00825823
-0.0105637
-0.0127317
-0.0147642
-0.0166638
-0.0184339
-0.0200782
-0.0216007
-0.0230058
-0.0242977
-0.0254808
-0.0265594
-0.0275376
-0.0284193
-0.0292084
-0.0299082
-0.0305221
-0.0310527
-0.0315027
-0.0318743
-0.0321694
-0.0323894
-0.0325354
-0.0326082
0.00860845
0.00571339
0.00295288
0.000303972
-0.00223596
-0.00465943
-0.00696288
-0.00914466
-0.0112044
-0.0131427
-0.0149609
-0.0166611
-0.0182457
-0.0197178
-0.0210804
-0.0223369
-0.0234908
-0.0245455
-0.0255043
-0.0263705
-0.0271474
-0.0278376
-0.0284441
-0.0289692
-0.0294152
-0.0297838
-0.0300768
-0.0302954
-0.0304406
-0.030513
0.00861992
0.00595701
0.00340614
0.000948014
-0.00141915
-0.0036871
-0.00585129
-0.00790905
-0.00985892
-0.0117004
-0.0134336
-0.0150597
-0.0165801
-0.0179968
-0.0193118
-0.0205278
-0.0216474
-0.0226732
-0.0236078
-0.024454
-0.0252144
-0.0258912
-0.0264868
-0.0270032
-0.0274424
-0.0278058
-0.0280948
-0.0283106
-0.028454
-0.0285256
0.00852125
0.00607591
0.00372289
0.00144635
-0.000754807
-0.00287193
-0.00489974
-0.00683482
-0.00867484
-0.0104184
-0.0120648
-0.0136142
-0.0150672
-0.0164249
-0.0176886
-0.0188602
-0.0199414
-0.0209343
-0.0218409
-0.0226634
-0.0234037
-0.0240639
-0.0246456
-0.0251507
-0.0255807
-0.0259369
-0.0262205
-0.0264323
-0.0265731
-0.0266434
0.00833833
0.00609573
0.00392829
0.00182343
-0.000219432
-0.0021915
-0.00408703
-0.00590206
-0.00763359
-0.00927953
-0.0108385
-0.0123099
-0.0136936
-0.01499
-0.0161998
-0.017324
-0.0183638
-0.0193208
-0.0201964
-0.0209921
-0.0217096
-0.0223504
-0.0229159
-0.0234075
-0.0238264
-0.0241738
-0.0244505
-0.0246573
-0.0247949
-0.0248636
0.00809248
0.0060379
0.00404369
0.00210026
0.000207397
-0.00162616
-0.0033944
-0.00509297
-0.00671842
-0.00826812
-0.00974017
-0.0111333
-0.0124469
-0.0136806
-0.0148347
-0.0159096
-0.0169059
-0.0178247
-0.0186669
-0.0194337
-0.0201261
-0.0207454
-0.0212927
-0.021769
-0.0221753
-0.0225125
-0.0227813
-0.0229823
-0.0231161
-0.0231829
0.00780115
0.00592024
0.00408708
0.00229476
0.000543295
-0.00115877
-0.00280531
-0.00439174
-0.00591429
-0.00736995
-0.0087564
-0.0100719
-0.0113154
-0.012486
-0.0135835
-0.0146079
-0.0155593
-0.0164384
-0.0172455
-0.0179816
-0.0186473
-0.0192435
-0.0197711
-0.0202307
-0.0206231
-0.020949
-0.0212091
-0.0214036
-0.0215332
-0.0215978
0.0074784
0.0057574
0.0040735
0.0024221
0.000803375
-0.000774455
-0.00230527
-0.00378437
-0.0052078
-0.00657226
-0.00787514
-0.00911439
-0.0102885
-0.0113962
-0.012437
-0.0134103
-0.0143161
-0.0151544
-0.0159254
-0.0166296
-0.0172675
-0.0178394
-0.018346
-0.0187879
-0.0191655
-0.0194794
-0.0197299
-0.0199175
-0.0200424
-0.0201048
0.00713545
0.00556134
0.00401545
0.00249509
0.00100052
-0.000460402
-0.00188167
-0.00325857
-0.00458702
-0.0058636
-0.00708546
-0.00825029
-0.00935627
-0.010402
-0.0113864
-0.0123087
-0.0131686
-0.0139657
-0.0147001
-0.0153717
-0.0159808
-0.0165277
-0.0170126
-0.017436
-0.0177981
-0.0180993
-0.0183399
-0.0185201
-0.0186401
-0.0187001
0.00678119
0.00534179
0.00392326
0.00252445
0.00114569
-0.000205586
-0.00152355
-0.00280353
-0.00404144
-0.00523376
-0.00637752
-0.00747025
-0.00850988
-0.0094948
-0.0104237
-0.0112956
-0.0121098
-0.0128657
-0.0135631
-0.0142019
-0.0147819
-0.0153032
-0.015766
-0.0161703
-0.0165165
-0.0168046
-0.0170348
-0.0172073
-0.0173223
-0.0173797
0.00642259
0.00510659
0.00380541
0.00251914
0.00124816
-5.68597e-07
-0.00122141
-0.00240982
-0.00356175
-0.00467366
-0.00574252
-0.00676573
-0.00774111
-0.00866685
-0.00954147
-0.0103638
-0.0111329
-0.011848
-0.0125087
-0.0131145
-0.0136653
-0.0141609
-0.0146012
-0.0149863
-0.0153162
-0.0155909
-0.0158106
-0.0159753
-0.016085
-0.0161399
0.00606508
0.00486203
0.00366886
0.00248662
0.00131573
0.000162715
-0.00096707
-0.00206922
-0.00313977
-0.00417523
-0.00517255
-0.00612907
-0.00704253
-0.00791099
-0.00873284
-0.00950674
-0.0102316
-0.0109066
-0.0115309
-0.0121041
-0.0126258
-0.0130957
-0.0135136
-0.0138794
-0.0141929
-0.0144542
-0.0146632
-0.0148199
-0.0149244
-0.0149766
0.00571285
0.00461314
0.00351927
0.00243307
0.001355
0.000291137
-0.000753458
-0.00177455
-0.00276831
-0.00373132
-0.00466055
-0.00555334
-0.00640737
-0.00722065
-0.00799146
-0.00871836
-0.00940015
-0.0100358
-0.0106245
-0.0111656
-0.0116586
-0.0121031
-0.0124986
-0.0128451
-0.0131423
-0.0133902
-0.0135885
-0.0137373
-0.0138365
-0.0138861
0.00536907
0.00436385
0.00336119
0.00236358
0.00137149
0.000390534
-0.000574507
-0.0015196
-0.00244107
-0.00333561
-0.00420023
-0.00503232
-0.00582954
-0.00658986
-0.00731152
-0.00799301
-0.00863301
-0.00923045
-0.00978439
-0.0102941
-0.0107589
-0.0111783
-0.0115519
-0.0118793
-0.0121604
-0.0123948
-0.0125826
-0.0127235
-0.0128174
-0.0128644
0.00503606
0.0041172
0.00319829
0.00228232
0.00136979
0.000465847
-0.000425014
-0.00129898
-0.00215253
-0.0029825
-0.00378598
-0.00456042
-0.00530349
-0.00601317
-0.00668768
-0.00732544
-0.00792512
-0.00848553
-0.00900571
-0.00948479
-0.00992207
-0.010317
-0.010669
-0.0109778
-0.0112429
-0.0114642
-0.0116415
-0.0117746
-0.0118633
-0.0119077
0.00471542
0.00387546
0.00303343
0.00219269
0.00135372
0.000521242
-0.000300532
-0.00110801
-0.00189787
-0.00266706
-0.00341282
-0.00413263
-0.00482424
-0.00548564
-0.00611504
-0.00671086
-0.00727173
-0.00779645
-0.00828396
-0.00873337
-0.00914392
-0.00951496
-0.00984595
-0.0101364
-0.010386
-0.0105945
-0.0107615
-0.0108869
-0.0109705
-0.0110124
0.00440814
0.00364028
0.00286883
0.0020974
0.00132641
0.000560213
-0.000197272
-0.000942679
-0.00167288
-0.00238497
-0.0030763
-0.00374446
-0.00438726
-0.00500273
-0.00558911
-0.00614482
-0.00666848
-0.00715886
-0.0076149
-0.00803566
-0.00842033
-0.00876824
-0.00907879
-0.00935149
-0.00958593
-0.00978177
-0.00993876
-0.0100567
-0.0101354
-0.0101747
0.00411477
0.00341282
0.00270619
0.0019986
0.00129044
0.000585684
-0.000112014
-0.000799518
-0.00147389
-0.00213239
-0.00277249
-0.0033919
-0.0039885
-0.00456037
-0.0051058
-0.00562324
-0.00611131
-0.00656878
-0.00699457
-0.00738774
-0.00774745
-0.008073
-0.00836377
-0.00861924
-0.00883896
-0.00902259
-0.00916982
-0.00928044
-0.00935428
-0.00939122
0.00383543
0.00319378
0.00254674
0.00189797
0.00124787
0.000600083
-4.20311e-05
-0.000675546
-0.00129771
-0.00190596
-0.0024979
-0.00307133
-0.00362425
-0.00415481
-0.00466134
-0.00514233
-0.00559643
-0.00602242
-0.00641923
-0.0067859
-0.00712161
-0.00742561
-0.00769729
-0.00793611
-0.0081416
-0.00831339
-0.00845118
-0.00855473
-0.00862386
-0.00865844
0.00357003
0.00298363
0.00239137
0.00179684
0.00120042
0.000605432
1.49888e-05
-0.000568201
-0.00114158
-0.00170273
-0.00224941
-0.00277956
-0.00329123
-0.00378269
-0.00425232
-0.00469866
-0.00512039
-0.00551634
-0.00588542
-0.00622671
-0.00653937
-0.00682268
-0.00707598
-0.00729875
-0.00749051
-0.00765088
-0.00777954
-0.00787625
-0.00794082
-0.00797313
0.00331823
0.0027825
0.00224068
0.00169618
0.0011494
0.000603392
6.09934e-05
-0.000475283
-0.00100306
-0.00152009
-0.00202428
-0.00251366
-0.00298643
-0.00344091
-0.00387557
-0.004289
-0.00467995
-0.00504724
-0.00538986
-0.00570687
-0.00599746
-0.0062609
-0.00649656
-0.00670389
-0.00688244
-0.0070318
-0.00715166
-0.00724177
-0.00730195
-0.00733207
0.00307963
0.00259044
0.00209506
0.00159674
0.00109591
0.000595337
9.76242e-05
-0.000394912
-0.000880073
-0.00135577
-0.00182005
-0.00227108
-0.00270716
-0.0031267
-0.00352825
-0.00391047
-0.00427215
-0.00461217
-0.00492954
-0.00522337
-0.00549284
-0.00573726
-0.00595601
-0.00614853
-0.00631438
-0.00645316
-0.00656455
-0.00664832
-0.00670426
-0.00673226
0.00285362
0.00240722
0.00195465
0.00149901
0.00104075
0.000582373
0.000126255
-0.000325471
-0.00077078
-0.00120774
-0.00163455
-0.00204948
-0.00245095
-0.00283748
-0.00320768
-0.0035603
-0.00389417
-0.00420825
-0.00450157
-0.00477326
-0.00502257
-0.00524879
-0.00545133
-0.00562965
-0.00578331
-0.00591193
-0.0060152
-0.00609286
-0.00614474
-0.0061707
0.00263965
0.0022326
0.00181952
0.00140335
0.000984566
0.000565399
0.000148027
-0.0002656
-0.000673624
-0.00107427
-0.00146587
-0.00184682
-0.00221566
-0.00257099
-0.00291153
-0.00323609
-0.00354356
-0.00383296
-0.00410337
-0.00435397
-0.00458401
-0.00479284
-0.00497988
-0.0051446
-0.00528659
-0.00540547
-0.00550093
-0.00557273
-0.0056207
-0.00564471
0.0024368
0.00206604
0.00168945
0.00130988
0.000927763
0.000545107
0.00016389
-0.000214111
-0.000587201
-0.000953756
-0.00131223
-0.00166117
-0.00199921
-0.00232504
-0.00263748
-0.00293542
-0.00321782
-0.00348374
-0.00373233
-0.0039628
-0.00417446
-0.00436666
-0.00453886
-0.00469057
-0.00482137
-0.00493091
-0.00501888
-0.00508506
-0.00512928
-0.00515141
0.00224441
0.0019071
0.00156428
0.00121866
0.000870656
0.000522037
0.000174595
-0.000170059
-0.000510386
-0.000844907
-0.00117221
-0.00149097
-0.00179991
-0.00209784
-0.00238367
-0.00265634
-0.00291492
-0.00315852
-0.00338632
-0.00359761
-0.00379171
-0.00396803
-0.00412605
-0.00426531
-0.00438539
-0.00448597
-0.00456677
-0.00462756
-0.00466818
-0.00468851
0.00206127
0.00175494
0.0014435
0.00112953
0.000813372
0.000496589
0.000180798
-0.000132548
-0.000442062
-0.000746406
-0.0010443
-0.00133452
-0.00161593
-0.00188742
-0.00214798
-0.00239665
-0.00263256
-0.00285488
-0.00306287
-0.00325583
-0.00343316
-0.00359429
-0.00373874
-0.00386606
-0.00397587
-0.00406787
-0.00414178
-0.0041974
-0.00423456
-0.00425317
0.00188667
0.00160905
0.00132681
0.00104237
0.000755976
0.000469017
0.000182931
-0.000100984
-0.000381485
-0.00065737
-0.000927485
-0.00119073
-0.00144605
-0.00169246
-0.00192903
-0.00215489
-0.00236922
-0.00257127
-0.00276035
-0.00293582
-0.00309712
-0.00324373
-0.00337518
-0.00349107
-0.00359105
-0.00367481
-0.00374212
-0.00379277
-0.00382663
-0.00384357
0.00171912
0.00146836
0.00121351
0.000956807
0.000698424
0.000439562
0.000181502
-7.46056e-05
-0.000327658
-0.000576583
-0.000820348
-0.00105796
-0.00128849
-0.00151103
-0.00172473
-0.00192882
-0.00212254
-0.00230521
-0.0024762
-0.00263493
-0.00278087
-0.00291355
-0.00303253
-0.00313745
-0.00322797
-0.00330383
-0.00336479
-0.00341067
-0.00344134
-0.0034567
0.00155808
0.00133239
0.00110322
0.000872593
0.000640581
0.000408217
0.000176626
-5.31848e-05
-0.000280247
-0.000503615
-0.000722374
-0.000935643
-0.00114258
-0.00134239
-0.00153431
-0.00171762
-0.00189167
-0.00205582
-0.00220952
-0.00235221
-0.00248344
-0.00260276
-0.00270979
-0.00280418
-0.00288563
-0.00295389
-0.00300876
-0.00305005
-0.00307765
-0.00309145
0.00140177
0.00119992
0.000995161
0.000789331
0.000582404
0.000375262
0.000168886
-3.58525e-05
-0.000238115
-0.000437075
-0.000631931
-0.000821909
-0.00100627
-0.00118429
-0.00135532
-0.0015187
-0.00167385
-0.00182021
-0.00195727
-0.00208454
-0.0022016
-0.00230806
-0.00240356
-0.0024878
-0.0025605
-0.00262143
-0.00267041
-0.00270728
-0.00273192
-0.00274427
0.00125002
0.00107058
0.000888912
0.000706587
0.000523479
0.000340317
0.000157938
-2.29206e-05
-0.000201543
-0.00037722
-0.000549258
-0.000716986
-0.000879754
-0.00103694
-0.00118796
-0.00133225
-0.00146929
-0.00159858
-0.00171966
-0.00183212
-0.00193557
-0.00202965
-0.00211407
-0.00218854
-0.00225281
-0.00230669
-0.00235
-0.00238259
-0.00240438
-0.00241527
0.00110076
0.000943123
0.000783818
0.000624215
0.000464102
0.000304082
0.000144859
-1.29542e-05
-0.00016876
-0.000321958
-0.000471959
-0.000618191
-0.000760095
-0.000897139
-0.00102881
-0.00115462
-0.00127412
-0.00138687
-0.00149248
-0.00159058
-0.00168083
-0.00176292
-0.00183658
-0.00190157
-0.00195766
-0.00200469
-0.00204249
-0.00207095
-0.00208997
-0.00209953
0.000954205
0.000817145
0.000679157
0.000541281
0.000403194
0.000265362
0.000128353
-7.34664e-06
-0.000141251
-0.000272867
-0.000401704
-0.000527282
-0.000649133
-0.000766805
-0.000879862
-0.000987893
-0.0010905
-0.00118733
-0.00127803
-0.00136228
-0.0014398
-0.00151032
-0.0015736
-0.00162942
-0.00167762
-0.00171802
-0.0017505
-0.00177495
-0.00179129
-0.00179943
0.000808221
0.000691842
0.000575013
0.000458593
0.000342185
0.000226146
0.000110925
-3.10525e-06
-0.000115563
-0.000226054
-0.000334181
-0.000439554
-0.000541788
-0.00064051
-0.000735359
-0.000825991
-0.000912081
-0.00099332
-0.00106942
-0.00114012
-0.00120517
-0.00126435
-0.00131746
-0.00136432
-0.00140477
-0.00143869
-0.00146596
-0.00148649
-0.00150022
-0.00150717
0.000662866
0.000565979
0.000469449
0.0003737
0.000278214
0.000183222
8.90423e-05
-4.06287e-06
-9.58134e-05
-0.000185909
-0.000274043
-0.000359909
-0.000443201
-0.000523622
-0.000600883
-0.000674706
-0.000744829
-0.000811002
-0.000872992
-0.000930583
-0.000983575
-0.00103179
-0.00107505
-0.00111323
-0.00114619
-0.00117382
-0.00119603
-0.00121275
-0.00122392
-0.00122943
0.000517071
0.000440672
0.000364965
0.0002902
0.00021581
0.00014194
6.88091e-05
-3.41196e-06
-7.45304e-05
-0.00014433
-0.000212587
-0.000279071
-0.000343552
-0.000405805
-0.000465609
-0.000522751
-0.000577029
-0.000628251
-0.000676237
-0.000720819
-0.000761842
-0.000799166
-0.000832664
-0.000862222
-0.000887741
-0.000909136
-0.000926338
-0.000939292
-0.00094798
-0.000952472
0.000368818
0.000311663
0.000256016
0.000201566
0.000147618
9.42247e-05
4.15038e-05
-1.04685e-05
-6.15869e-05
-0.000111718
-0.000160714
-0.000208422
-0.000254684
-0.000299342
-0.000342242
-0.000383232
-0.000422169
-0.000458914
-0.00049334
-0.000525325
-0.00055476
-0.000581541
-0.000605578
-0.000626788
-0.0006451
-0.000660451
-0.000672787
-0.000682066
-0.000688238
-0.000691149
0.000221847
0.000186159
0.000152091
0.000119008
8.62742e-05
5.39679e-05
2.21478e-05
-9.17749e-06
-3.99618e-05
-7.01333e-05
-9.96104e-05
-0.000128305
-0.000156126
-0.00018298
-0.000208776
-0.000233423
-0.000256835
-0.000278931
-0.000299632
-0.000318866
-0.000336567
-0.000352673
-0.000367128
-0.000379884
-0.000390898
-0.000400131
-0.000407549
-0.000413127
-0.000416899
-0.000419051
6.76212e-05
5.26342e-05
3.95282e-05
2.71047e-05
1.49616e-05
3.18884e-06
-8.26939e-06
-1.94746e-05
-3.044e-05
-4.11608e-05
-5.16235e-05
-6.18066e-05
-7.16833e-05
-8.12233e-05
-9.0395e-05
-9.91662e-05
-0.000107505
-0.000115382
-0.000122767
-0.000129634
-0.000135957
-0.000141713
-0.000146882
-0.000151444
-0.000155385
-0.000158689
-0.000161343
-0.000163316
-0.000164502
-0.000164691
-0.34494
-0.342346
-0.336926
-0.328475
-0.317002
-0.302653
-0.285696
-0.266519
-0.245617
-0.223555
-0.200922
-0.178281
-0.1561
-0.134823
-0.114831
-0.0963478
-0.0795317
-0.0644865
-0.0512257
-0.0396942
-0.0297929
-0.0213954
-0.0143591
-0.00853478
-0.00377468
6.20222e-05
0.00310606
0.00547581
0.00727616
0.00859813
0.00952441
0.0101274
0.0104706
0.0106056
0.0105764
0.0104201
0.0101673
0.00984315
0.00946816
0.00905879
0.00862819
0.00818673
0.00774256
0.00730196
0.00686974
0.00644944
0.00604363
0.00565402
0.00528165
0.00492703
0.00459028
0.00427116
0.0039693
0.00368406
0.00341481
0.00316059
0.00292065
0.00269374
0.00247908
0.00227506
0.00208108
0.00189507
0.00171693
0.00154394
0.00137685
0.00121208
0.00105152
0.000890566
0.000732137
0.000571313
0.000410241
0.000247432
7.84066e-05
-0.356909
-0.356317
-0.35292
-0.346464
-0.336758
-0.323837
-0.307892
-0.28925
-0.26837
-0.245825
-0.222253
-0.198309
-0.174594
-0.151529
-0.129566
-0.109072
-0.0902838
-0.0733569
-0.0583593
-0.0452661
-0.0339892
-0.024402
-0.0163547
-0.00968607
-0.00423255
0.000163971
0.00365168
0.00636632
0.00842906
0.00994632
0.0110108
0.0117048
0.0120971
0.0122467
0.0122058
0.012018
0.0117191
0.0113385
0.0109001
0.0104228
0.00992208
0.00940978
0.00889527
0.0083857
0.00788649
0.00740166
0.00693406
0.00648564
0.00605757
0.00565045
0.00526435
0.00489903
0.00455393
0.00422838
0.00392149
0.00363241
0.00335997
0.0031033
0.00286092
0.00263198
0.00241464
0.0022083
0.00201059
0.00182153
0.00163795
0.00146101
0.00128628
0.00111664
0.000945922
0.000778947
0.000608027
0.000438689
0.000264617
8.67523e-05
-0.366978
-0.365995
-0.361922
-0.354539
-0.34368
-0.329405
-0.311948
-0.291694
-0.269174
-0.245035
-0.219992
-0.19476
-0.169926
-0.145937
-0.123295
-0.102375
-0.0833932
-0.0664675
-0.0516211
-0.0387897
-0.0278519
-0.0186531
-0.0110205
-0.00477476
0.000260832
0.00425396
0.00735927
0.00971667
0.0114495
0.0126656
0.0134533
0.0138917
0.014052
0.0139946
0.01377
0.0134196
0.0129767
0.0124685
0.0119169
0.0113394
0.0107495
0.010158
0.0095729
0.00900038
0.0084449
0.00790965
0.00739679
0.00690768
0.00644295
0.00600273
0.00558669
0.00519421
0.00482441
0.00447634
0.00414885
0.00384089
0.00355114
0.00327854
0.00302148
0.00277899
0.00254904
0.00233098
0.00212218
0.00192275
0.0017291
0.00154275
0.00135854
0.00118018
0.00100011
0.000824968
0.000644214
0.00046719
0.000281797
9.64281e-05
-0.377263
-0.375802
-0.371
-0.362657
-0.350633
-0.335011
-0.316065
-0.294234
-0.270116
-0.244424
-0.217942
-0.191426
-0.165467
-0.140572
-0.117279
-0.0959554
-0.0767913
-0.0598652
-0.0451599
-0.0325751
-0.0219583
-0.013128
-0.00588958
-4.66204e-05
0.00459053
0.00819872
0.010939
0.0129547
0.0143705
0.0152898
0.0158036
0.0159948
0.0159344
0.0156809
0.0152822
0.014777
0.0141965
0.013566
0.0129057
0.0122315
0.0115555
0.0108873
0.0102338
0.0096001
0.00898986
0.00840552
0.00784856
0.00731978
0.00681929
0.00634679
0.00590152
0.00548252
0.00508858
0.0047185
0.00437088
0.00404452
0.00373787
0.00344977
0.00317842
0.00292276
0.00268055
0.00245111
0.00223152
0.00202201
0.00181856
0.00162307
0.00142961
0.00124284
0.00105358
0.000870659
0.000680171
0.000496076
0.000299243
0.000107356
-0.3869
-0.384953
-0.379442
-0.370156
-0.356982
-0.340028
-0.319606
-0.296211
-0.270504
-0.243271
-0.215362
-0.187569
-0.160493
-0.134737
-0.110853
-0.0891865
-0.0698968
-0.0530243
-0.0385109
-0.0262194
-0.0159648
-0.00753857
-0.000723958
0.00469244
0.0089126
0.012122
0.0144875
0.0161544
0.0172466
0.0178661
0.0181089
0.018058
0.0177818
0.0173361
0.016766
0.0161082
0.0153921
0.014641
0.0138735
0.013104
0.0123433
0.0115996
0.0108788
0.0101851
0.00952113
0.00888866
0.00828854
0.00772095
0.00718553
0.0066815
0.00620772
0.00576285
0.0053454
0.00495388
0.0045867
0.00424244
0.0039194
0.00361628
0.0033311
0.00306269
0.00280863
0.00256817
0.00233816
0.0021189
0.00190596
0.00170166
0.0014992
0.00130435
0.00110613
0.000915849
0.000715746
0.000525272
0.000316856
0.000119482
-0.394571
-0.395628
-0.3932
-0.386985
-0.37677
-0.362468
-0.344215
-0.322359
-0.297448
-0.270202
-0.241477
-0.212181
-0.183115
-0.154963
-0.128408
-0.103996
-0.0820447
-0.062685
-0.0459187
-0.0316466
-0.0196937
-0.00984204
-0.00185524
0.00450554
0.00947042
0.0132533
0.0160482
0.0180264
0.0193349
0.020094
0.0204106
0.0203822
0.0200893
0.0195975
0.0189598
0.0182191
0.0174098
0.0165593
0.0156891
0.014816
0.0139527
0.0131089
0.0122913
0.0115047
0.0107523
0.0100359
0.00935656
0.00871443
0.00810913
0.0075398
0.00700519
0.00650377
0.00603386
0.00559364
0.0051814
0.00479531
0.00443379
0.00409496
0.00377737
0.00347889
0.00319825
0.00293279
0.00268177
0.00244172
0.0022131
0.00199102
0.00177824
0.00156709
0.00136451
0.00115757
0.000960408
0.000750838
0.000554722
0.000334588
0.00013287
-0.402516
-0.40324
-0.400315
-0.393397
-0.382272
-0.366878
-0.347378
-0.324156
-0.297807
-0.269106
-0.238971
-0.208346
-0.178063