/*--------------------------------*- C++ -*----------------------------------*\
  =========                 |
  \\      /  F ield         | OpenFOAM: The Open Source CFD Toolbox
   \\    /   O peration     | Website:  https://openfoam.org
    \\  /    A nd           | Version:  7
     \\/     M anipulation  |
\*---------------------------------------------------------------------------*/
FoamFile
{
    version     2.0;
    format      ascii;
    class       surfaceScalarField;
    location    "9.999";
    object      phi;
}
// * * * * * * * * * * * * * * * * * * * * * * * * * * * * * * * * * * * * * //

dimensions      [0 3 -1 0 0 0 0];

internalField   nonuniform List<scalar> 
7273
(
-0.000423098
0.0130091
0.000445841
-0.000395915
0.0130844
-0.000369012
0.0130148
-0.000342588
0.0128971
-0.000316572
0.0127681
-0.000291307
0.0126411
-0.000267113
0.0125207
-0.000244182
0.0124085
-0.000222598
0.0123052
-0.000202382
0.0122104
-0.000183532
0.0121231
-0.000166029
0.0120427
-0.000149833
0.0119684
-0.000134884
0.0118998
-0.000121111
0.0118365
-0.000108432
0.0117783
-9.67612e-05
0.0117248
-8.60108e-05
0.0116759
-7.6094e-05
0.0116314
-6.69262e-05
0.0115912
-5.84257e-05
0.011555
-5.05138e-05
0.0115228
-4.31155e-05
0.0114944
-3.61587e-05
0.0114698
-2.95746e-05
0.0114489
-2.3297e-05
0.0114315
-1.72622e-05
0.0114177
-1.14098e-05
0.0114074
-5.67841e-06
0.0114005
0.0113971
-0.000650192
0.0129694
0.00068998
-0.000605295
0.0130395
-0.000560809
0.0129703
-0.000517914
0.0128542
-0.000476981
0.0127272
-0.000438173
0.0126023
-0.000401658
0.0124841
-0.000367513
0.0123744
-0.000335692
0.0122734
-0.000306096
0.0121808
-0.000278617
0.0120956
-0.000253142
0.0120172
-0.000229554
0.0119448
-0.000207726
0.011878
-0.000187531
0.0118163
-0.000168836
0.0117596
-0.000151513
0.0117075
-0.000135433
0.0116598
-0.000120476
0.0116165
-0.000106523
0.0115772
-9.34621e-05
0.0115419
-8.11873e-05
0.0115105
-6.95971e-05
0.0114828
-5.85951e-05
0.0114588
-4.80888e-05
0.0114384
-3.79899e-05
0.0114214
-2.82136e-05
0.011408
-1.86788e-05
0.0113979
-9.30318e-06
0.0113912
0.0113878
-0.000879246
0.0129111
0.000937529
-0.000814356
0.0129746
-0.000751172
0.0129072
-0.00069123
0.0127942
-0.000634957
0.0126709
-0.000582379
0.0125498
-0.000533479
0.0124352
-0.000488138
0.012329
-0.000446149
0.0122314
-0.000407277
0.0121419
-0.000371298
0.0120596
-0.000337999
0.0119839
-0.000307177
0.011914
-0.000278635
0.0118494
-0.000252182
0.0117899
-0.000227634
0.011735
-0.000204816
0.0116846
-0.000183558
0.0116386
-0.000163702
0.0115966
-0.000145099
0.0115586
-0.000127605
0.0115244
-0.000111086
0.011494
-9.54166e-05
0.0114672
-8.04753e-05
0.0114439
-6.61477e-05
0.0114241
-5.23239e-05
0.0114076
-3.88988e-05
0.0113945
-2.57711e-05
0.0113847
-1.284e-05
0.0113782
0.011375
-0.00110507
0.0128326
0.00118354
-0.00101956
0.0128891
-0.000937116
0.0128247
-0.000859901
0.012717
-0.000788253
0.0125993
-0.000722001
0.0124835
-0.000660895
0.0123741
-0.000604587
0.0122727
-0.000552685
0.0121795
-0.000504805
0.012094
-0.000460596
0.0120154
-0.000419739
0.011943
-0.000381943
0.0118762
-0.000346937
0.0118144
-0.000314465
0.0117574
-0.000284292
0.0117048
-0.000256192
0.0116565
-0.000229958
0.0116123
-0.000205394
0.011572
-0.000182317
0.0115355
-0.000160557
0.0115027
-0.000139952
0.0114734
-0.000120352
0.0114476
-0.000101612
0.0114251
-8.35968e-05
0.011406
-6.61765e-05
0.0113902
-4.92266e-05
0.0113776
-3.26269e-05
0.0113681
-1.62587e-05
0.0113619
0.0113587
-0.00132227
0.0127329
0.00142202
-0.00121643
0.0127833
-0.00111516
0.0127235
-0.00102111
0.012623
-0.000934546
0.0125127
-0.000855092
0.0124041
-0.000782248
0.0123013
-0.000715432
0.0122059
-0.000654063
0.0121182
-0.000597603
0.0120376
-0.000545569
0.0119634
-0.000497535
0.011895
-0.000453123
0.0118318
-0.000411985
0.0117733
-0.000373806
0.0117192
-0.000338296
0.0116693
-0.000305185
0.0116234
-0.000274226
0.0115814
-0.000245189
0.011543
-0.000217859
0.0115082
-0.000192038
0.0114769
-0.00016754
0.0114489
-0.000144191
0.0114242
-0.000121826
0.0114028
-0.000100289
0.0113845
-7.94309e-05
0.0113693
-5.911e-05
0.0113573
-3.91885e-05
0.0113482
-1.95308e-05
0.0113422
0.0113392
-0.00152568
0.012612
0.00164657
-0.00140054
0.0126581
-0.0012817
0.0126046
-0.00117194
0.0125132
-0.00107145
0.0124122
-0.000979683
0.0123123
-0.000895892
0.0122175
-0.00081928
0.0121293
-0.000749092
0.012048
-0.000684639
0.0119731
-0.000625317
0.0119041
-0.000570599
0.0118403
-0.00052002
0.0117812
-0.000473164
0.0117264
-0.000429658
0.0116757
-0.000389161
0.0116288
-0.000351363
0.0115856
-0.000315977
0.011546
-0.000282744
0.0115098
-0.000251419
0.0114769
-0.00022178
0.0114472
-0.000193617
0.0114207
-0.000166734
0.0113973
-0.000140948
0.011377
-0.000116084
0.0113596
-9.19767e-05
0.0113452
-6.84669e-05
0.0113337
-4.54015e-05
0.0113252
-2.26295e-05
0.0113194
0.0113166
-0.00171053
0.0124714
0.00185113
-0.00156793
0.0125155
-0.00143339
0.0124701
-0.00130961
0.0123894
-0.00119668
0.0122993
-0.00109388
0.0122095
-0.00100025
0.0121239
-0.000914801
0.0120439
-0.000836636
0.0119698
-0.000764939
0.0119014
-0.000698997
0.0118381
-0.000638192
0.0117795
-0.000581986
0.011725
-0.000529902
0.0116743
-0.000481513
0.0116273
-0.000436436
0.0115838
-0.000394322
0.0115435
-0.000354855
0.0115065
-0.000317743
0.0114726
-0.00028272
0.0114418
-0.000249538
0.011414
-0.000217969
0.0113892
-0.000187798
0.0113672
-0.000158823
0.011348
-0.000130855
0.0113317
-0.000103713
0.0113181
-7.72221e-05
0.0113073
-5.12159e-05
0.0112991
-2.55298e-05
0.0112938
0.0112911
-0.00187258
0.0123137
0.00203027
-0.00171515
0.0123581
-0.00156735
0.0123223
-0.00143171
0.0122538
-0.00130823
0.0121758
-0.001196
0.0120973
-0.0010939
0.0120218
-0.0010008
0.0119508
-0.000915677
0.0118847
-0.000837627
0.0118233
-0.000765849
0.0117664
-0.000699654
0.0117133
-0.000638442
0.0116638
-0.000581687
0.0116176
-0.00052892
0.0115746
-0.000479721
0.0115346
-0.000433711
0.0114975
-0.000390545
0.0114634
-0.00034991
0.011432
-0.000311517
0.0114034
-0.0002751
0.0113776
-0.000240412
0.0113545
-0.000207224
0.011334
-0.000175319
0.0113161
-0.000144494
0.0113008
-0.000114553
0.0112882
-8.53116e-05
0.011278
-5.65895e-05
0.0112704
-2.82105e-05
0.0112654
0.0112628
-0.00200848
0.0121424
0.0021798
-0.00183946
0.0121891
-0.0016813
0.0121641
-0.00153635
0.0121088
-0.0014045
0.0120439
-0.00128469
0.0119775
-0.00117569
0.0119128
-0.00107628
0.0118514
-0.000985368
0.0117938
-0.000901974
0.01174
-0.000825243
0.0116896
-0.000754435
0.0116425
-0.000688908
0.0115983
-0.0006281
0.0115568
-0.00057151
0.011518
-0.000518692
0.0114817
-0.000469243
0.0114481
-0.000422798
0.0114169
-0.000379024
0.0113882
-0.000337617
0.011362
-0.000298297
0.0113383
-0.000260802
0.011317
-0.00022489
0.0112981
-0.000190332
0.0112816
-0.000156915
0.0112674
-0.000124431
0.0112557
-9.26863e-05
0.0112463
-6.14898e-05
0.0112392
-3.06556e-05
0.0112345
0.0112322
-0.00211601
0.0119615
0.00229682
-0.00193904
0.0120121
-0.00177372
0.0119988
-0.00162224
0.0119574
-0.00148437
0.0119061
-0.00135898
0.0118521
-0.00124478
0.0117986
-0.00114053
0.0117471
-0.00104509
0.0116983
-0.000957442
0.0116523
-0.000876712
0.0116089
-0.000802131
0.0115679
-0.000733033
0.0115292
-0.000668835
0.0114926
-0.000609017
0.0114581
-0.000553117
0.0114258
-0.000500716
0.0113957
-0.000451437
0.0113676
-0.000404934
0.0113417
-0.000360891
0.011318
-0.000319017
0.0112964
-0.000279042
0.011277
-0.000240714
0.0112597
-0.000203796
0.0112446
-0.000168064
0.0112317
-0.000133305
0.0112209
-9.93154e-05
0.0112123
-6.58964e-05
0.0112058
-3.28549e-05
0.0112015
0.0111993
-0.00219416
0.0117756
0.00238015
-0.00201302
0.0118309
-0.00184387
0.0118297
-0.00168871
0.0118022
-0.00154725
0.0117646
-0.00141835
0.0117232
-0.00130071
0.0116809
-0.00119313
0.0116395
-0.00109447
0.0115997
-0.00100371
0.0115616
-0.000919978
0.0115252
-0.000842501
0.0114904
-0.00077061
0.0114573
-0.000703714
0.0114257
-0.000641289
0.0113957
-0.000582866
0.0113674
-0.000528021
0.0113408
-0.00047637
0.011316
-0.000427561
0.0112929
-0.000381272
0.0112717
-0.000337207
0.0112524
-0.00029509
0.0112349
-0.000254662
0.0112193
-0.000215682
0.0112057
-0.00017792
0.0111939
-0.000141158
0.0111841
-0.000105186
0.0111763
-6.98015e-05
0.0111704
-3.48046e-05
0.0111665
0.0111645
-0.00224332
0.0115883
0.0024306
-0.00206159
0.0116492
-0.00189179
0.0116599
-0.00173574
0.0116461
-0.00159307
0.0116219
-0.00146268
0.0115928
-0.00134337
0.0115616
-0.00123398
0.0115301
-0.00113341
0.0114991
-0.00104069
0.0114688
-0.000954961
0.0114394
-0.000875478
0.0114109
-0.000801582
0.0113834
-0.000732693
0.0113568
-0.000668293
0.0113313
-0.000607917
0.011307
-0.000551143
0.011284
-0.000497588
0.0112624
-0.000446902
0.0112422
-0.000398762
0.0112236
-0.000352871
0.0112065
-0.00030895
0.011191
-0.000266741
0.0111771
-0.000225998
0.0111649
-0.00018649
0.0111544
-0.000147997
0.0111457
-0.000110305
0.0111386
-7.32088e-05
0.0111333
-3.65066e-05
0.0111298
0.011128
-0.00226472
0.0114036
0.00244935
-0.00208577
0.0114702
-0.00191829
0.0114924
-0.00176392
0.0114918
-0.00162226
0.0114803
-0.00149232
0.0114628
-0.00137301
0.0114423
-0.00126326
0.0114204
-0.00116206
0.0113979
-0.0010685
0.0113753
-0.000981771
0.0113527
-0.00090116
0.0113303
-0.000826041
0.0113082
-0.000755857
0.0112866
-0.000690108
0.0112656
-0.000628342
0.0112453
-0.00057015
0.0112259
-0.000515158
0.0112074
-0.000463019
0.0111901
-0.000413419
0.011174
-0.000366061
0.0111591
-0.000320671
0.0111456
-0.000276993
0.0111334
-0.000234781
0.0111227
-0.000193806
0.0111135
-0.000153847
0.0111057
-0.000114691
0.0110995
-7.61316e-05
0.0110948
-3.79675e-05
0.0110916
0.0110901
-0.00226017
0.0112252
0.00243864
-0.00208716
0.0112972
-0.0019247
0.0113299
-0.00177432
0.0113414
-0.00163568
0.0113417
-0.00150795
0.0113351
-0.00139019
0.0113245
-0.00128145
0.0113116
-0.00118082
0.0112973
-0.00108748
0.0112819
-0.00100069
0.0112659
-0.000919794
0.0112494
-0.000844203
0.0112327
-0.000773397
0.0112158
-0.000706905
0.0111991
-0.000644298
0.0111827
-0.000585184
0.0111667
-0.000529204
0.0111514
-0.000476027
0.0111369
-0.000425343
0.0111233
-0.000376869
0.0111106
-0.000330334
0.011099
-0.000285488
0.0110886
-0.000242091
0.0110793
-0.000199917
0.0110713
-0.000158747
0.0110645
-0.000118373
0.0110591
-7.85895e-05
0.011055
-3.91972e-05
0.0110522
0.0110509
-0.00223258
0.0110555
0.00240221
-0.00206803
0.0111327
-0.00191283
0.0111747
-0.00176841
0.011197
-0.00163454
0.0112078
-0.00151057
0.0112111
-0.00139574
0.0112097
-0.00128923
0.0112051
-0.00119027
0.0111983
-0.00109813
0.0111898
-0.00101216
0.0111799
-0.000931751
0.011169
-0.00085639
0.0111573
-0.000785595
0.011145
-0.000718931
0.0111324
-0.000656
0.0111197
-0.000596435
0.0111072
-0.000539897
0.0110949
-0.000486072
0.0110831
-0.000434667
0.0110719
-0.000385407
0.0110614
-0.000338037
0.0110517
-0.000292311
0.0110429
-0.000247999
0.011035
-0.000204881
0.0110282
-0.000162745
0.0110224
-0.000121386
0.0110177
-8.0605e-05
0.0110142
-4.02069e-05
0.0110118
0.0110106
-0.00218526
0.0108971
0.00234373
-0.00203108
0.0109785
-0.00188487
0.0110285
-0.00174799
0.0110601
-0.00162032
0.0110801
-0.00150141
0.0110922
-0.00139068
0.011099
-0.00128748
0.0111019
-0.00119115
0.011102
-0.00110107
0.0110997
-0.00101669
0.0110956
-0.000937484
0.0110898
-0.000862993
0.0110828
-0.000792788
0.0110748
-0.000726479
0.0110661
-0.000663702
0.011057
-0.000604122
0.0110476
-0.000547425
0.0110382
-0.000493319
0.011029
-0.000441529
0.0110201
-0.000391798
0.0110116
-0.000343881
0.0110038
-0.000297547
0.0109965
-0.000252576
0.01099
-0.000208756
0.0109843
-0.000165883
0.0109795
-0.000123762
0.0109756
-8.21997e-05
0.0109726
-4.10073e-05
0.0109707
0.0109696
-0.00212151
0.0107514
0.00226721
-0.00197914
0.0108361
-0.00184321
0.0108926
-0.00171504
0.0109319
-0.00159468
0.0109597
-0.00148186
0.0109794
-0.0013762
0.0109933
-0.00127717
0.0110029
-0.00118427
0.0110091
-0.001097
0.0110124
-0.00101488
0.0110134
-0.000937497
0.0110124
-0.000864439
0.0110097
-0.00079534
0.0110057
-0.000729856
0.0110006
-0.000667666
0.0109948
-0.000608467
0.0109884
-0.000551976
0.0109817
-0.000497926
0.0109749
-0.000446065
0.0109682
-0.000396152
0.0109617
-0.00034796
0.0109556
-0.000301273
0.0109498
-0.000255883
0.0109446
-0.00021159
0.01094
-0.000168201
0.0109361
-0.000125529
0.0109329
-8.33914e-05
0.0109305
-4.16071e-05
0.0109289
0.010928
-0.00204478
0.0106194
0.0021768
-0.00191506
0.0107064
-0.00179024
0.0107678
-0.0016716
0.0108133
-0.00155932
0.0108475
-0.00145337
0.0108735
-0.00135348
0.0108934
-0.00125932
0.0109087
-0.0011705
0.0109203
-0.00108664
0.0109286
-0.00100735
0.0109342
-0.000932303
0.0109374
-0.000861159
0.0109386
-0.000793611
0.0109382
-0.000729365
0.0109364
-0.000668142
0.0109335
-0.000609679
0.0109299
-0.000553724
0.0109258
-0.000500036
0.0109213
-0.000448389
0.0109166
-0.000398563
0.0109119
-0.000350349
0.0109073
-0.000303549
0.010903
-0.000257968
0.0108991
-0.00021342
0.0108955
-0.000169725
0.0108924
-0.000126706
0.0108899
-8.41922e-05
0.010888
-4.20123e-05
0.0108867
0.010886
-0.00195839
0.0105014
0.00207639
-0.00184165
0.0105897
-0.00172833
0.0106545
-0.00161964
0.0107046
-0.00151594
0.0107438
-0.00141735
0.0107749
-0.00132375
0.0107998
-0.00123496
0.0108199
-0.0011507
0.010836
-0.0010707
0.0108486
-0.000994688
0.0108582
-0.000922395
0.0108651
-0.000853562
0.0108698
-0.000787938
0.0108725
-0.000725281
0.0108737
-0.000665356
0.0108736
-0.00060794
0.0108725
-0.000552812
0.0108706
-0.000499764
0.0108682
-0.000448592
0.0108654
-0.000399101
0.0108624
-0.000351102
0.0108593
-0.000304414
0.0108563
-0.000258859
0.0108535
-0.000214266
0.0108509
-0.000170469
0.0108486
-0.000127303
0.0108467
-8.46078e-05
0.0108453
-4.22254e-05
0.0108443
0.0108438
-0.00186535
0.0103973
0.00196946
-0.0017615
0.0104858
-0.00165968
0.0105526
-0.00156106
0.010606
-0.00146613
0.0106488
-0.00137515
0.0106839
-0.00128814
0.0107128
-0.00120502
0.0107368
-0.00112565
0.0107566
-0.00104985
0.0107728
-0.000977442
0.0107857
-0.000908229
0.0107959
-0.00084202
0.0108036
-0.000778623
0.0108091
-0.000717847
0.0108129
-0.000659502
0.0108153
-0.000603401
0.0108164
-0.00054936
0.0108166
-0.000497198
0.010816
-0.000446739
0.010815
-0.000397813
0.0108135
-0.000350251
0.0108118
-0.00030389
0.01081
-0.00025857
0.0108082
-0.000214137
0.0108065
-0.000170436
0.0108049
-0.00012732
0.0108036
-8.46385e-05
0.0108026
-4.22466e-05
0.0108019
0.0108015
-0.0017683
0.0103066
0.00185899
-0.00167687
0.0103944
-0.00158624
0.010462
-0.00149751
0.0105173
-0.00141131
0.0105626
-0.00132798
0.0106005
-0.00124766
0.0106325
-0.00117038
0.0106595
-0.00109608
0.0106823
-0.0010247
0.0107014
-0.000956114
0.0107172
-0.000890213
0.01073
-0.000826866
0.0107402
-0.000765935
0.0107482
-0.000707278
0.0107543
-0.000650746
0.0107587
-0.00059619
0.0107619
-0.000543461
0.0107639
-0.000492408
0.010765
-0.000442881
0.0107654
-0.000394732
0.0107653
-0.000347815
0.0107649
-0.000301987
0.0107642
-0.000257105
0.0107633
-0.000213031
0.0107624
-0.000169626
0.0107615
-0.000126754
0.0107608
-8.42818e-05
0.0107601
-4.20742e-05
0.0107597
0.0107595
-0.00166935
0.0102285
0.00174742
-0.00158963
0.0103147
-0.00150964
0.010382
-0.00143045
0.0104381
-0.00135274
0.0104849
-0.00127693
0.0105247
-0.00120325
0.0105588
-0.00113181
0.0105881
-0.00106265
0.0106132
-0.000995779
0.0106345
-0.000931153
0.0106525
-0.000868719
0.0106675
-0.000808402
0.0106799
-0.000750116
0.0106899
-0.000693764
0.0106979
-0.000639237
0.0107042
-0.000586423
0.010709
-0.000535204
0.0107126
-0.000485456
0.0107152
-0.000437058
0.010717
-0.000389885
0.0107182
-0.000343812
0.0107188
-0.000298714
0.0107191
-0.000254467
0.0107191
-0.000210948
0.0107189
-0.000168035
0.0107186
-0.000125604
0.0107183
-8.35351e-05
0.0107181
-4.17069e-05
0.0107179
0.0107178
-0.00157021
0.0101621
0.00163665
-0.00150131
0.0102458
-0.00143127
0.010312
-0.00136109
0.0103679
-0.00129147
0.0104153
-0.0012229
0.0104562
-0.00115568
0.0104916
-0.00108999
0.0105224
-0.00102594
0.0105491
-0.00096359
0.0105722
-0.000902975
0.0105919
-0.000844091
0.0106087
-0.000786913
0.0106227
-0.000731401
0.0106344
-0.000677496
0.010644
-0.000625129
0.0106519
-0.00057422
0.0106581
-0.00052468
0.0106631
-0.000476415
0.010667
-0.000429327
0.0106699
-0.000383314
0.0106721
-0.00033827
0.0106738
-0.000294091
0.0106749
-0.00025067
0.0106756
-0.000207898
0.0106761
-0.000165668
0.0106764
-0.000123871
0.0106765
-8.23999e-05
0.0106766
-4.11453e-05
0.0106766
0.0106766
-0.00147221
0.0101061
0.00152815
-0.00141315
0.0101867
-0.00135225
0.0102511
-0.00129042
0.0103061
-0.0012284
0.0103533
-0.00116671
0.0103945
-0.00110567
0.0104306
-0.00104554
0.0104623
-0.000986474
0.0104901
-0.000928596
0.0105143
-0.00087198
0.0105353
-0.000816672
0.0105533
-0.000762691
0.0105687
-0.000710035
0.0105818
-0.000658682
0.0105927
-0.000608595
0.0106018
-0.000559725
0.0106093
-0.00051201
0.0106154
-0.000465383
0.0106204
-0.000419767
0.0106243
-0.000375082
0.0106275
-0.000331242
0.0106299
-0.00028816
0.0106318
-0.000245744
0.0106332
-0.000203904
0.0106343
-0.000162544
0.010635
-0.000121569
0.0106356
-8.08847e-05
0.0106359
-4.03934e-05
0.0106361
0.0106362
-0.00137637
0.0100595
0.001423
-0.00132612
0.0101365
-0.00127348
0.0101984
-0.0012193
0.0102519
-0.00116432
0.0102983
-0.00110905
0.0103392
-0.00105386
0.0103754
-0.000999038
0.0104074
-0.000944784
0.0104358
-0.000891258
0.0104608
-0.000838577
0.0104826
-0.000786823
0.0105016
-0.000736053
0.010518
-0.000686296
0.010532
-0.000637564
0.0105439
-0.000589847
0.010554
-0.000543122
0.0105625
-0.000497354
0.0105696
-0.000452497
0.0105755
-0.000408496
0.0105803
-0.00036529
0.0105843
-0.000322813
0.0105874
-0.000280992
0.01059
-0.000239752
0.010592
-0.000199015
0.0105935
-0.000158701
0.0105947
-0.000118726
0.0105956
-7.90077e-05
0.0105962
-3.94605e-05
0.0105966
0.0105968
-0.00128347
0.010021
0.00132197
-0.00124099
0.010094
-0.00119573
0.0101532
-0.00114848
0.0102046
-0.00109993
0.0102498
-0.00105059
0.0102899
-0.00100087
0.0103256
-0.000951053
0.0103576
-0.000901385
0.0103861
-0.000852051
0.0104114
-0.000803197
0.0104338
-0.000754937
0.0104533
-0.000707355
0.0104704
-0.000660507
0.0104852
-0.000614432
0.0104979
-0.000569144
0.0105088
-0.000524644
0.010518
-0.000480919
0.0105259
-0.000437943
0.0105325
-0.000395679
0.0105381
-0.000354085
0.0105427
-0.00031311
0.0105465
-0.000272696
0.0105496
-0.000232784
0.0105521
-0.000193307
0.0105541
-0.000154198
0.0105556
-0.000115386
0.0105568
-7.67987e-05
0.0105576
-3.83612e-05
0.0105581
0.0105584
-0.00119412
0.00998945
0.00122564
-0.0011584
0.0100582
-0.00111965
0.0101144
-0.00107859
0.0101636
-0.00103585
0.010207
-0.000991953
0.010246
-0.00094728
0.010281
-0.000902148
0.0103125
-0.000856811
0.0103408
-0.000811475
0.0103661
-0.000766309
0.0103886
-0.000721448
0.0104085
-0.000676997
0.0104259
-0.000633038
0.0104412
-0.000589626
0.0104545
-0.0005468
0.0104659
-0.000504579
0.0104758
-0.000462967
0.0104843
-0.000421956
0.0104915
-0.000381529
0.0104976
-0.000341655
0.0105028
-0.000302299
0.0105071
-0.000263418
0.0105107
-0.000224964
0.0105136
-0.000186883
0.010516
-0.000149118
0.0105178
-0.000111611
0.0105193
-7.42981e-05
0.0105203
-3.71159e-05
0.010521
0.0105213
-0.00110878
0.00996383
0.0011344
-0.00107888
0.0100283
-0.00104582
0.0100814
-0.00101023
0.010128
-0.000972703
0.0101695
-0.000933728
0.010207
-0.000893685
0.0102409
-0.000852892
0.0102717
-0.000811608
0.0102995
-0.000770052
0.0103246
-0.000728408
0.010347
-0.000686824
0.0103669
-0.000645423
0.0103845
-0.000604302
0.0104001
-0.000563535
0.0104137
-0.000523174
0.0104256
-0.000483257
0.0104359
-0.000443802
0.0104448
-0.000404818
0.0104525
-0.000366297
0.0104591
-0.000328227
0.0104647
-0.000290583
0.0104695
-0.000253333
0.0104734
-0.000216442
0.0104767
-0.000179867
0.0104794
-0.000143562
0.0104815
-0.000107476
0.0104832
-7.15564e-05
0.0104844
-3.57496e-05
0.0104852
0.0104855
-0.0010278
0.00994314
0.00104849
-0.00100287
0.0100034
-0.000974725
0.0100532
-0.000943932
0.0100972
-0.000911037
0.0101366
-0.000876488
0.0101724
-0.000840656
0.0102051
-0.000803849
0.0102349
-0.000766329
0.010262
-0.00072832
0.0102865
-0.00069001
0.0103086
-0.000651559
0.0103284
-0.000613102
0.0103461
-0.000574746
0.0103617
-0.000536577
0.0103755
-0.000498661
0.0103877
-0.000461046
0.0103983
-0.000423766
0.0104076
-0.000386838
0.0104156
-0.00035027
0.0104225
-0.000314058
0.0104285
-0.000278189
0.0104336
-0.000242643
0.0104379
-0.000207392
0.0104415
-0.000172404
0.0104444
-0.000137643
0.0104468
-0.000103066
0.0104486
-6.86309e-05
0.0104499
-3.42911e-05
0.0104508
0.0104513
-0.000951465
0.00992655
0.000968062
-0.000930729
0.00998267
-0.000906803
0.0100293
-0.000880183
0.0100706
-0.000851366
0.0101078
-0.000820766
0.0101418
-0.000788733
0.0101731
-0.000755563
0.0102017
-0.000721514
0.010228
-0.000686805
0.0102518
-0.00065163
0.0102735
-0.000616153
0.010293
-0.000580513
0.0103104
-0.000544826
0.010326
-0.000509186
0.0103399
-0.000473668
0.0103521
-0.00043833
0.0103629
-0.000403214
0.0103724
-0.000368348
0.0103807
-0.000333748
0.0103879
-0.00029942
0.0103942
-0.00026536
0.0103995
-0.000231558
0.0104041
-0.000197995
0.0104079
-0.000164646
0.0104111
-0.000131483
0.0104136
-9.84743e-05
0.0104156
-6.55828e-05
0.0104171
-3.2771e-05
0.010418
0.0104185
-0.000879962
0.0099133
0.000893213
-0.000862743
0.00996545
-0.000842399
0.010009
-0.000819382
0.0100475
-0.000794133
0.0100826
-0.000767034
0.0101147
-0.000738407
0.0101444
-0.000708536
0.0101719
-0.000677665
0.0101971
-0.000646011
0.0102202
-0.000613763
0.0102412
-0.000581087
0.0102603
-0.000548123
0.0102775
-0.000514991
0.0102929
-0.00048179
0.0103067
-0.000448601
0.010319
-0.000415487
0.0103298
-0.000382499
0.0103394
-0.000349672
0.0103479
-0.000317028
0.0103553
-0.000284582
0.0103617
-0.000252338
0.0103673
-0.000220292
0.010372
-0.000188433
0.010376
-0.000156745
0.0103794
-0.000125206
0.0103821
-9.37918e-05
0.0103842
-6.24733e-05
0.0103857
-3.12199e-05
0.0103868
0.0103873
-0.000813399
0.00990276
0.000823934
-0.000799095
0.00995114
-0.000781773
0.00999165
-0.000761844
0.0100276
-0.000739702
0.0100604
-0.000715688
0.0100907
-0.000690102
0.0101189
-0.000663206
0.010145
-0.000635232
0.0101691
-0.000606388
0.0101913
-0.000576857
0.0102117
-0.000546801
0.0102302
-0.000516361
0.010247
-0.000485655
0.0102622
-0.000454785
0.0102758
-0.000423835
0.010288
-0.000392874
0.0102989
-0.000361954
0.0103085
-0.000331118
0.0103171
-0.000300393
0.0103246
-0.000269801
0.0103311
-0.00023935
0.0103368
-0.000209044
0.0103417
-0.000178879
0.0103459
-0.000148844
0.0103493
-0.000118926
0.0103522
-8.91052e-05
0.0103544
-5.936e-05
0.010356
-2.96667e-05
0.0103571
0.0103576
-0.000751775
0.00989441
0.00076013
-0.000739869
0.00993924
-0.000725084
0.00997686
-0.000707794
0.0100103
-0.000688345
0.010041
-0.000667043
0.0100694
-0.000644159
0.010096
-0.000619936
0.0101207
-0.000594592
0.0101438
-0.000568321
0.0101651
-0.000541298
0.0101847
-0.000513679
0.0102026
-0.000485601
0.010219
-0.000457181
0.0102338
-0.000428521
0.0102471
-0.000399705
0.0102592
-0.000370803
0.01027
-0.000341873
0.0102796
-0.000312958
0.0102882
-0.000284093
0.0102957
-0.000255301
0.0103023
-0.000226598
0.0103081
-0.000197993
0.0103131
-0.000169485
0.0103174
-0.000141072
0.0103209
-0.000112745
0.0103238
-8.4491e-05
0.0103261
-5.62942e-05
0.0103278
-2.81369e-05
0.0103289
0.0103295
-0.000695014
0.00988778
0.000701642
-0.00068507
0.00992929
-0.000672407
0.0099642
-0.000657365
0.00999528
-0.000640247
0.0100238
-0.000621322
0.0100505
-0.000600836
0.0100755
-0.000579009
0.0100989
-0.000556041
0.0101208
-0.000532116
0.0101411
-0.000507397
0.01016
-0.000482032
0.0101772
-0.000456151
0.0101931
-0.00042987
0.0102075
-0.000403286
0.0102206
-0.000376485
0.0102324
-0.000349536
0.010243
-0.000322498
0.0102526
-0.000295419
0.0102611
-0.000268334
0.0102686
-0.000241271
0.0102753
-0.000214251
0.0102811
-0.000187285
0.0102862
-0.000160379
0.0102905
-0.000133535
0.0102941
-0.000106749
0.010297
-8.00133e-05
0.0102994
-5.33185e-05
0.0103011
-2.66519e-05
0.0103022
0.0103028
-0.000642976
0.00988251
0.000648249
-0.000634631
0.00992095
-0.000623742
0.00995331
-0.000610614
0.00998215
-0.00059551
0.0100087
-0.000578667
0.0100337
-0.000560303
0.0100571
-0.000540618
0.0100792
-0.000519793
0.0101
-0.000497998
0.0101193
-0.000475384
0.0101373
-0.000452091
0.010154
-0.000428241
0.0101692
-0.000403946
0.0101832
-0.0003793
0.0101959
-0.000354385
0.0102075
-0.000329272
0.0102179
-0.000304018
0.0102273
-0.000278674
0.0102357
-0.000253276
0.0102432
-0.000227857
0.0102499
-0.000202437
0.0102557
-0.000177034
0.0102608
-0.000151658
0.0102651
-0.000126313
0.0102687
-0.000101002
0.0102717
-7.57213e-05
0.0102741
-5.04657e-05
0.0102758
-2.52281e-05
0.010277
0.0102776
-0.000595482
0.00987829
0.000599701
-0.000588439
0.00991391
-0.00057903
0.0099439
-0.00056753
0.00997065
-0.000554165
0.00999537
-0.000539142
0.0100186
-0.000522653
0.0100406
-0.000504876
0.0100614
-0.000485977
0.0100811
-0.000466107
0.0100995
-0.000445408
0.0101166
-0.000424009
0.0101326
-0.000402025
0.0101472
-0.000379562
0.0101607
-0.00035671
0.0101731
-0.000333548
0.0101843
-0.000310146
0.0101945
-0.000286561
0.0102037
-0.000262842
0.010212
-0.00023903
0.0102194
-0.000215157
0.010226
-0.000191247
0.0102318
-0.00016732
0.0102368
-0.00014339
0.0102412
-0.000119465
0.0102448
-9.55508e-05
0.0102478
-7.16489e-05
0.0102502
-4.77585e-05
0.0102519
-2.38768e-05
0.0102531
0.0102537
-0.00055232
0.00987488
0.000555723
-0.000546331
0.00990792
-0.000538157
0.00993573
-0.00052804
0.00996053
-0.000516174
0.00998351
-0.000502738
0.0100052
-0.000487901
0.0100258
-0.000471819
0.0100454
-0.00045464
0.0100639
-0.000436503
0.0100813
-0.000417537
0.0100977
-0.00039786
0.0101129
-0.00037758
0.010127
-0.000356797
0.0101399
-0.000335595
0.0101519
-0.000314052
0.0101628
-0.000292233
0.0101727
-0.000270197
0.0101817
-0.000247992
0.0101898
-0.000225658
0.0101971
-0.000203228
0.0102036
-0.000180731
0.0102093
-0.000158187
0.0102143
-0.000135613
0.0102186
-0.000113022
0.0102222
-9.04208e-05
0.0102252
-6.78159e-05
0.0102276
-4.52101e-05
0.0102293
-2.26047e-05
0.0102305
0.0102311
-0.000513239
0.00987211
0.000516015
-0.000508106
0.00990278
-0.000500959
0.00992858
-0.000492013
0.00995159
-0.000481435
0.00997293
-0.000469378
0.00999314
-0.000455989
0.0100124
-0.000441406
0.0100308
-0.000425759
0.0100482
-0.000409174
0.0100648
-0.000391767
0.0100803
-0.000373648
0.0100948
-0.000354916
0.0101082
-0.000335664
0.0101207
-0.000315973
0.0101322
-0.000295915
0.0101427
-0.000275555
0.0101523
-0.000254948
0.0101611
-0.000234142
0.010169
-0.000213178
0.0101761
-0.00019209
0.0101825
-0.000170906
0.0101881
-0.000149651
0.010193
-0.000128342
0.0101973
-0.000106995
0.0102009
-8.56211e-05
0.0102038
-6.42289e-05
0.0102062
-4.28249e-05
0.0102079
-2.1414e-05
0.0102091
0.0102097
-0.000477952
0.00986981
0.000480244
-0.000473512
0.00989835
-0.000467219
0.00992229
-0.000459262
0.00994363
-0.000449786
0.00996345
-0.000438922
0.00998227
-0.000426798
0.0100003
-0.000413533
0.0100175
-0.000399244
0.010034
-0.000384042
0.0100496
-0.000368033
0.0100643
-0.000351317
0.010078
-0.000333986
0.0100909
-0.000316124
0.0101028
-0.000297809
0.0101139
-0.00027911
0.010124
-0.000260086
0.0101333
-0.000240792
0.0101418
-0.000221276
0.0101495
-0.000201576
0.0101564
-0.000181728
0.0101626
-0.000161762
0.0101681
-0.000141702
0.010173
-0.000121568
0.0101771
-0.000101379
0.0101807
-8.1147e-05
0.0101836
-6.08845e-05
0.0101859
-4.06007e-05
0.0101877
-2.03035e-05
0.0101888
0.0101894
-0.000446129
0.0098679
0.000448046
-0.000442254
0.00989447
-0.000436671
0.0099167
-0.000429548
0.00993651
-0.000421013
0.00995492
-0.000411179
0.00997244
-0.000400154
0.00998926
-0.000388046
0.0100054
-0.000374956
0.0100209
-0.000360984
0.0100356
-0.000346224
0.0100495
-0.000330767
0.0100626
-0.000314699
0.0100748
-0.000298097
0.0100862
-0.000281032
0.0100968
-0.00026357
0.0101065
-0.000245769
0.0101155
-0.000227679
0.0101237
-0.000209347
0.0101311
-0.000190812
0.0101379
-0.000172109
0.0101439
-0.000153267
0.0101493
-0.000134314
0.010154
-0.00011527
0.0101581
-9.61544e-05
0.0101616
-7.69839e-05
0.0101644
-5.77718e-05
0.0101667
-3.85303e-05
0.0101684
-1.92697e-05
0.0101695
0.0101701
-0.000417417
0.00986627
0.000419042
-0.000414005
0.00989106
-0.000409015
0.00991171
-0.000402599
0.00993009
-0.000394868
0.00994719
-0.000385921
0.00996349
-0.000375854
0.00997919
-0.000364759
0.00999432
-0.000352726
0.0100088
-0.000339844
0.0100227
-0.000326199
0.0100359
-0.000311872
0.0100483
-0.00029694
0.0100599
-0.000281477
0.0100708
-0.000265547
0.0100809
-0.000249212
0.0100902
-0.000232526
0.0100988
-0.000215538
0.0101067
-0.000198293
0.0101139
-0.000180829
0.0101204
-0.000163181
0.0101263
-0.000145379
0.0101315
-0.000127449
0.0101361
-0.000109415
0.0101401
-9.12959e-05
0.0101435
-7.3111e-05
0.0101463
-5.48754e-05
0.0101485
-3.66032e-05
0.0101501
-1.83074e-05
0.0101512
0.0101518
-0.000391467
0.00986487
0.000392865
-0.000388435
0.00988803
-0.000383945
0.00990722
-0.000378129
0.00992427
-0.000371089
0.00994015
-0.00036291
0.00995531
-0.000353677
0.00996996
-0.000343471
0.00998411
-0.000332372
0.00999774
-0.000320458
0.0100108
-0.000307807
0.0100232
-0.000294492
0.0100349
-0.000280584
0.010046
-0.000266149
0.0100563
-0.000251248
0.010066
-0.000235938
0.0100749
-0.000220271
0.0100832
-0.000204292
0.0100907
-0.000188045
0.0100977
-0.000171566
0.0101039
-0.000154891
0.0101096
-0.000138048
0.0101147
-0.000121066
0.0101191
-0.000103967
0.010123
-8.67736e-05
0.0101263
-6.95047e-05
0.010129
-5.21775e-05
0.0101312
-3.4808e-05
0.0101328
-1.74108e-05
0.0101338
0.0101344
-0.000367958
0.00986365
0.000369187
-0.000365238
0.00988531
-0.000361169
0.00990315
-0.000355868
0.00991897
-0.000349424
0.0099337
-0.000341914
0.0099478
-0.000333411
0.00996145
-0.000323986
0.00997469
-0.000313713
0.00998746
-0.000302659
0.00999973
-0.000290896
0.0100114
-0.000278489
0.0100225
-0.000265502
0.010033
-0.000251997
0.0100428
-0.00023803
0.010052
-0.000223653
0.0100605
-0.000208915
0.0100684
-0.00019386
0.0100757
-0.000178529
0.0100823
-0.000162958
0.0100884
-0.00014718
0.0100938
-0.000131225
0.0100987
-0.00011512
0.010103
-9.88902e-05
0.0101067
-8.2557e-05
0.0101099
-6.61409e-05
0.0101126
-4.96603e-05
0.0101147
-3.31326e-05
0.0101162
-1.65739e-05
0.0101173
0.0101178
-0.000346625
0.00986253
0.000347742
-0.000344151
0.00988283
-0.000340435
0.00989944
-0.000335574
0.00991411