/*--------------------------------*- C++ -*----------------------------------*\
  =========                 |
  \\      /  F ield         | OpenFOAM: The Open Source CFD Toolbox
   \\    /   O peration     | Website:  https://openfoam.org
    \\  /    A nd           | Version:  7
     \\/     M anipulation  |
\*---------------------------------------------------------------------------*/
FoamFile
{
    version     2.0;
    format      ascii;
    class       surfaceScalarField;
    location    "10";
    object      phi;
}
// * * * * * * * * * * * * * * * * * * * * * * * * * * * * * * * * * * * * * //

dimensions      [0 3 -1 0 0 0 0];

internalField   nonuniform List<scalar> 
6502
(
0.000845107
0.00188854
0.00114356
0.0003493
0.000507167
0.0014815
0.000866994
0.000129483
0.000229594
0.00114457
0.000477932
-0.000107901
0.00065256
-4.51458e-05
7.749e-06
0.000874405
0.000235578
-0.000240017
0.000339734
-0.000212056
0.000476772
-0.000182184
-0.000164691
0.000649212
0.000135041
-0.000296066
0.000212417
-0.000289433
0.00031523
-0.000284997
-0.000293001
0.00044354
-3.06245e-06
-0.00032187
3.15774e-05
-0.000330706
8.23497e-05
-0.000340205
0.000151365
-0.000354012
-0.000380464
0.000238827
-9.09593e-05
-0.000325065
-7.86473e-05
-0.000343018
-5.51699e-05
-0.000363682
-1.93524e-05
-0.00038983
-0.000423672
2.38561e-05
-0.000167243
-0.000288263
-0.00018298
-0.000309329
-0.00019364
-0.000332357
-0.000198237
-0.000359085
-0.000196602
-0.000391465
-0.000432407
-0.000187867
-0.000239973
-0.000253325
-0.000274372
-0.000274929
-0.000307631
-0.000299098
-0.000339476
-0.00032724
-0.000370023
-0.000360918
-0.000402465
-0.000399965
-0.000307185
-0.000204205
-0.00035873
-0.000223385
-0.000412725
-0.000245102
-0.000469527
-0.000270438
-0.000529847
-0.000300598
-0.000337292
-0.000595021
-0.00036346
-0.000143268
-0.000429296
-0.000157549
-0.000500569
-0.00017383
-0.00057816
-0.000192847
-0.000663328
-0.00021543
-0.00024273
-0.00075789
-0.000403983
-7.38489e-05
-0.000480078
-8.14542e-05
-0.000563753
-9.01548e-05
-0.000656273
-0.000100326
-0.000759311
-0.000112393
-0.000126941
-0.0008751
-0.000351341
-0.000425189
-0.000506643
-0.000596797
-0.000697122
-0.000809514
-0.000936454
0.00156385
0.0315951
-0.000917925
0.00149125
0.0355334
0.00130347
0.0355164
0.00111774
0.0346716
0.000934933
0.033886
0.000781764
0.0332046
0.00065515
0.0326119
0.000551219
0.0321035
0.0004662
0.0316636
0.000396322
0.0312827
0.000338662
0.0309519
0.000290794
0.030664
0.00025081
0.0304129
0.000217204
0.0301936
0.000188785
0.0300018
0.000164614
0.0298339
0.000143942
0.0296867
0.000126175
0.0295575
0.000110833
0.029444
9.75356e-05
0.0293442
8.59697e-05
0.0292564
7.58757e-05
0.0291791
6.70405e-05
0.029111
5.92864e-05
0.0290509
5.2465e-05
0.0289978
4.64515e-05
0.028951
4.11408e-05
0.0289096
3.64431e-05
0.028873
3.22819e-05
0.0288406
2.85911e-05
0.028812
2.53139e-05
0.0287867
2.24007e-05
0.0287643
1.98081e-05
0.0287446
1.74983e-05
0.0287271
1.54371e-05
0.0287116
1.35947e-05
0.028698
1.19451e-05
0.028686
1.04651e-05
0.0286754
9.134e-06
0.0286662
7.93315e-06
0.0286581
6.84579e-06
0.028651
5.85665e-06
0.028645
4.95179e-06
0.0286398
4.1184e-06
0.0286353
3.34458e-06
0.0286317
2.61926e-06
0.0286287
1.93196e-06
0.0286264
1.27268e-06
0.0286246
6.31962e-07
0.0286235
0.0286229
0.00142074
0.0309724
-0.000798069
0.00129198
0.0356622
0.00113884
0.0356695
0.000975551
0.0348349
0.000820316
0.0340412
0.000688165
0.0333368
0.000578022
0.0327221
0.000487527
0.032194
0.000413075
0.0317381
0.000351783
0.031344
0.000301099
0.0310026
0.000258944
0.0307061
0.000223677
0.0304482
0.000193992
0.0302233
0.000168851
0.030027
0.000147437
0.0298553
0.000129095
0.029705
0.000113308
0.0295733
9.96578e-05
0.0294576
8.7809e-05
0.0293561
7.74862e-05
0.0292667
6.8464e-05
0.0291881
6.05555e-05
0.0291189
5.36052e-05
0.0290578
4.74827e-05
0.0290039
4.20785e-05
0.0289564
3.72999e-05
0.0289143
3.30679e-05
0.0288772
2.9315e-05
0.0288444
2.59828e-05
0.0288154
2.30208e-05
0.0287897
2.03851e-05
0.028767
1.80372e-05
0.0287469
1.59433e-05
0.0287292
1.40732e-05
0.0287135
1.24002e-05
0.0286997
1.09012e-05
0.0286875
9.55512e-06
0.0286768
8.34352e-06
0.0286674
7.24965e-06
0.0286592
6.25839e-06
0.028652
5.35601e-06
0.0286459
4.52992e-06
0.0286406
3.76856e-06
0.0286361
3.0612e-06
0.0286324
2.39778e-06
0.0286294
1.76886e-06
0.028627
1.16534e-06
0.0286252
5.78593e-07
0.0286241
0.0286235
0.00124243
0.0305
-0.000770067
0.00112505
0.0357795
0.000978761
0.0358158
0.000828822
0.0349849
0.000695487
0.0341746
0.000585425
0.0334468
0.000493634
0.0328139
0.00041782
0.0322698
0.000355232
0.0318007
0.000303529
0.0313957
0.000260611
0.0310455
0.000224792
0.0307419
0.00019473
0.0304782
0.000169347
0.0302487
0.000147786
0.0300485
0.000129365
0.0298737
0.000113542
0.0297208
9.98844e-05
0.0295869
8.80418e-05
0.0294695
7.77344e-05
0.0293664
6.87305e-05
0.0292758
6.08406e-05
0.029196
5.39076e-05
0.0291258
4.78002e-05
0.0290639
4.24081e-05
0.0290093
3.76384e-05
0.0289611
3.34124e-05
0.0289186
2.96626e-05
0.028881
2.6331e-05
0.0288477
2.33676e-05
0.0288183
2.0729e-05
0.0287923
1.83772e-05
0.0287693
1.62788e-05
0.028749
1.44045e-05
0.028731
1.27279e-05
0.0287152
1.1226e-05
0.0287012
9.8782e-06
0.0286888
8.66629e-06
0.028678
7.57388e-06
0.0286685
6.58621e-06
0.0286602
5.68992e-06
0.0286529
4.87286e-06
0.0286467
4.12385e-06
0.0286413
3.43264e-06
0.0286368
2.78965e-06
0.028633
2.18594e-06
0.02863
1.61307e-06
0.0286276
1.06292e-06
0.0286258
5.27837e-07
0.0286246
0.028624
0.0010516
0.0302043
-0.000755837
0.000947033
0.0358841
0.000818639
0.0359442
0.000680167
0.0351233
0.000568448
0.0342863
0.000479859
0.0335354
0.000406587
0.0328872
0.000345807
0.0323306
0.000295557
0.0318509
0.000253845
0.0314374
0.000219022
0.0310803
0.000189811
0.0307711
0.00016517
0.0305029
0.00014426
0.0302696
0.000126409
0.0300664
0.000111083
0.0298891
9.78559e-05
0.0297341
8.63865e-05
0.0295984
7.63974e-05
0.0294795
6.76657e-05
0.0293751
6.00065e-05
0.0292834
5.32682e-05
0.0292028
4.73249e-05
0.0291317
4.20705e-05
0.0290692
3.74157e-05
0.029014
3.3285e-05
0.0289653
2.96138e-05
0.0289222
2.63468e-05
0.0288842
2.34361e-05
0.0288506
2.08402e-05
0.0288209
1.85228e-05
0.0287946
1.64521e-05
0.0287714
1.46e-05
0.0287509
1.29417e-05
0.0287327
1.14548e-05
0.0287167
1.01197e-05
0.0287025
8.91889e-06
0.02869
7.83658e-06
0.0286791
6.85869e-06
0.0286695
5.97247e-06
0.028661
5.16632e-06
0.0286537
4.42969e-06
0.0286474
3.75284e-06
0.028642
3.12681e-06
0.0286374
2.54322e-06
0.0286336
1.99422e-06
0.0286305
1.47239e-06
0.0286281
9.70596e-07
0.0286263
4.8209e-07
0.0286251
0.0286245
0.000848206
0.0300599
-0.000703794
0.000753331
0.035979
0.000643047
0.0360545
0.000526759
0.0352396
0.000439994
0.034373
0.000372889
0.0336025
0.000318029
0.032942
0.00027257
0.032376
0.000234933
0.0318886
0.000203447
0.0314689
0.000176923
0.0311068
0.000154486
0.0307936
0.000135398
0.030522
0.000119063
0.0302859
0.000105002
0.0300805
9.28284e-05
0.0299012
8.22391e-05
0.0297447
7.29889e-05
0.0296076
6.48745e-05
0.0294876
5.77324e-05
0.0293823
5.14264e-05
0.0292897
4.58445e-05
0.0292083
4.08928e-05
0.0291367
3.64911e-05
0.0290736
3.25717e-05
0.0290179
2.90766e-05
0.0289688
2.59562e-05
0.0289254
2.31672e-05
0.028887
2.06721e-05
0.0288531
1.8438e-05
0.0288231
1.64358e-05
0.0287966
1.464e-05
0.0287732
1.3028e-05
0.0287525
1.15794e-05
0.0287341
1.02759e-05
0.028718
9.10125e-06
0.0287037
8.04093e-06
0.0286911
7.08182e-06
0.02868
6.21207e-06
0.0286703
5.42093e-06
0.0286618
4.6986e-06
0.0286545
4.0361e-06
0.0286481
3.42514e-06
0.0286426
2.85805e-06
0.028638
2.32764e-06
0.0286341
1.82715e-06
0.028631
1.35019e-06
0.0286286
8.90594e-07
0.0286267
4.42503e-07
0.0286255
0.0286249
0.00062573
0.0300386
-0.000604504
0.000544344
0.0360604
0.00045524
0.0361436
0.00036751
0.0353273
0.000309519
0.034431
0.000264579
0.0336475
0.000228433
0.0329782
0.000198636
0.0324058
0.000173821
0.0319134
0.000152728
0.03149
0.000134639
0.0311249
0.000119086
0.0308091
0.000105636
0.0305354
9.3938e-05
0.0302976
8.37121e-05
0.0300907
7.47184e-05
0.0299102
6.67868e-05
0.0297526
5.97682e-05
0.0296147
5.35351e-05
0.0294938
4.79851e-05
0.0293878
4.30317e-05
0.0292947
3.86036e-05
0.0292128
3.46392e-05
0.0291407
3.1085e-05
0.0290771
2.78949e-05
0.0290211
2.50288e-05
0.0289716
2.24523e-05
0.0289279
2.01343e-05
0.0288893
1.80477e-05
0.0288552
1.61681e-05
0.028825
1.44739e-05
0.0287983
1.2946e-05
0.0287747
1.1567e-05
0.0287538
1.03211e-05
0.0287354
9.19401e-06
0.0287191
8.17295e-06
0.0287047
7.24636e-06
0.028692
6.40372e-06
0.0286809
5.63546e-06
0.0286711
4.93281e-06
0.0286625
4.28777e-06
0.0286551
3.69293e-06
0.0286487
3.14145e-06
0.0286432
2.62693e-06
0.0286385
2.14337e-06
0.0286346
1.68509e-06
0.0286315
1.24673e-06
0.028629
8.2307e-07
0.0286272
4.09165e-07
0.028626
0.0286254
0.00036989
0.0301236
-0.000454893
0.000320841
0.0361094
0.000254687
0.0362098
0.000201954
0.0353801
0.00017613
0.0344569
0.000154601
0.033669
0.000138054
0.0329947
0.000124323
0.0324196
0.000112494
0.0319252
0.000101942
0.0315005
9.23657e-05
0.0311345
8.37617e-05
0.0308177
7.59962e-05
0.0305432
6.89654e-05
0.0303047
6.25965e-05
0.0300971
5.67909e-05
0.029916
5.15233e-05
0.0297579
4.67364e-05
0.0296194
4.23819e-05
0.0294982
3.84189e-05
0.0293918
3.48116e-05
0.0292983
3.15305e-05
0.029216
2.85468e-05
0.0291436
2.58332e-05
0.0290798
2.33652e-05
0.0290236
2.11212e-05
0.0289739
1.90816e-05
0.02893
1.7228e-05
0.0288912
1.55431e-05
0.0288569
1.40115e-05
0.0288266
1.2619e-05
0.0287997
1.13527e-05
0.028776
1.02005e-05
0.028755
9.15128e-06
0.0287364
8.19469e-06
0.02872
7.32134e-06
0.0287056
6.5227e-06
0.0286928
5.79083e-06
0.0286816
5.1184e-06
0.0286718
4.49865e-06
0.0286632
3.92534e-06
0.0286557
3.39267e-06
0.0286492
2.89522e-06
0.0286437
2.42785e-06
0.028639
1.98576e-06
0.0286351
1.56434e-06
0.0286319
1.15924e-06
0.0286294
7.66183e-07
0.0286276
3.81149e-07
0.0286263
0.0286257
0.000104807
0.0302726
-0.00025382
8.57242e-05
0.0361285
3.87847e-05
0.0362567
3.78533e-05
0.035381
3.84365e-05
0.0344563
4.30183e-05
0.0336644
4.69298e-05
0.0329908
4.98083e-05
0.0324167
5.11261e-05
0.0319239
5.12495e-05
0.0315004
5.02282e-05
0.0311355
4.86136e-05
0.0308194
4.65415e-05
0.0305453
4.41757e-05
0.030307
4.16662e-05
0.0300996
3.90317e-05
0.0299187
3.642e-05
0.0297605
3.38552e-05
0.029622
3.137e-05
0.0295006
2.8985e-05
0.0293941
2.67153e-05
0.0293005
2.45737e-05
0.0292182
2.25633e-05
0.0291457
2.0684e-05
0.0290817
1.89319e-05
0.0290253
1.73043e-05
0.0289755
1.57967e-05
0.0289315
1.44025e-05
0.0288926
1.31151e-05
0.0288582
1.19272e-05
0.0288277
1.08323e-05
0.0288008
9.82363e-06
0.028777
8.8945e-06
0.0287559
8.03826e-06
0.0287373
7.24844e-06
0.0287208
6.51916e-06
0.0287063
5.84488e-06
0.0286935
5.22021e-06
0.0286822
4.64005e-06
0.0286723
4.09965e-06
0.0286637
3.59454e-06
0.0286562
3.12051e-06
0.0286497
2.67355e-06
0.0286441
2.24983e-06
0.0286394
1.8457e-06
0.0286355
1.45763e-06
0.0286323
1.08227e-06
0.0286298
7.16316e-07
0.0286279
3.56645e-07
0.0286267
0.0286261
-0.000188295
0.0304502
1.06885e-05
-0.000184832
0.036125
-0.000165621
0.0362375
-0.000131878
0.0353473
-9.60932e-05
0.0344205
-6.63822e-05
0.0336347
-4.25422e-05
0.032967
-2.38055e-05
0.0323979
-9.85645e-06
0.0319099
2.06001e-07
0.0314903
8.18391e-06
0.0311275
1.36206e-05
0.0308139
1.72538e-05
0.0305416
1.954e-05
0.0303047
2.08697e-05
0.0300982
2.13856e-05
0.0299182
2.1414e-05
0.0297604
2.10516e-05
0.0296224
2.04219e-05
0.0295013
1.96024e-05
0.029395
1.86599e-05
0.0293015
1.76505e-05
0.0292192
1.6608e-05
0.0291467
1.55592e-05
0.0290828
1.45197e-05
0.0290263
1.35065e-05
0.0289765
1.2529e-05
0.0289325
1.15932e-05
0.0288935
1.07024e-05
0.0288591
9.85734e-06
0.0288286
9.05933e-06
0.0288016
8.30792e-06
0.0287778
7.60146e-06
0.0287566
6.93779e-06
0.028738
6.31431e-06
0.0287215
5.72863e-06
0.0287069
5.17818e-06
0.028694
4.66011e-06
0.0286827
4.17159e-06
0.0286728
3.70983e-06
0.0286642
3.27216e-06
0.0286566
2.85598e-06
0.0286501
2.45868e-06
0.0286445
2.07771e-06
0.0286398
1.7106e-06
0.0286358
1.35493e-06
0.0286326
1.00834e-06
0.0286301
6.68485e-07
0.0286283
3.3316e-07
0.028627
0.0286264
-0.000517237
0.0306343
0.000333183
-0.00046357
0.0360714
-0.00037772
0.0361516
-0.000298332
0.0352679
-0.000230044
0.0343522
-0.000174326
0.033579
-0.000129971
0.0329226
-9.52945e-05
0.0323633
-6.85127e-05
0.0318831
-4.79198e-05
0.0314697
-3.23561e-05
0.031112
-2.05249e-05
0.0308021
-1.1599e-05
0.0305327
-4.93592e-06
0.0302981
-8.37165e-08
0.0300934
3.72435e-06
0.0299143
6.3798e-06
0.0297578
8.21111e-06
0.0296205
9.42466e-06
0.0295001
1.01622e-05
0.0293942
1.05405e-05
0.0293011
1.06593e-05
0.0292191
1.05823e-05
0.0291468
1.03651e-05
0.029083
1.00378e-05
0.0290267
9.64107e-06
0.0289769
9.19674e-06
0.0289329
8.72271e-06
0.028894
8.23236e-06
0.0288596
7.73365e-06
0.0288291
7.23643e-06
0.0288021
6.74605e-06
0.0287782
6.266e-06
0.0287571
5.7985e-06
0.0287384
5.34461e-06
0.0287219
4.90576e-06
0.0287073
4.48226e-06
0.0286945
4.07374e-06
0.0286832
3.67963e-06
0.0286732
3.29913e-06
0.0286645
2.93139e-06
0.028657
2.57542e-06
0.0286505
2.23002e-06
0.0286449
1.89396e-06
0.0286401
1.56595e-06
0.0286362
1.24466e-06
0.028633
9.28785e-07
0.0286304
6.16933e-07
0.0286286
3.0782e-07
0.0286273
0.0286267
-0.000862107
0.030801
0.00069539
-0.00073301
0.0359423
-0.000592443
0.0360111
-0.000465048
0.0351405
-0.00036259
0.0342497
-0.000280668
0.0334971
-0.000216123
0.0328581
-0.000165734
0.0323129
-0.000126552
0.031844
-9.60662e-05
0.0314392
-7.24613e-05
0.0310884
-5.41191e-05
0.0307837
-3.9887e-05
0.0305185
-2.88372e-05
0.030287
-2.02626e-05
0.0300848
-1.36884e-05
0.0299078
-8.61372e-06
0.0297527
-4.7189e-06
0.0296166
-1.76169e-06
0.0294971
5.02365e-07
0.029392
2.22534e-06
0.0292994
3.48116e-06
0.0292178
4.37606e-06
0.0291459
4.9971e-06
0.0290824
5.39e-06
0.0290263
5.61836e-06
0.0289767
5.71528e-06
0.0289328
5.71144e-06
0.028894
5.63063e-06
0.0288596
5.48618e-06
0.0288292
5.29837e-06
0.0288023
5.07729e-06
0.0287785
4.83155e-06
0.0287574
4.56803e-06
0.0287387
4.29102e-06
0.0287222
4.00617e-06
0.0287076
3.71641e-06
0.0286948
3.42394e-06
0.0286834
3.1305e-06
0.0286735
2.83722e-06
0.0286648
2.54517e-06
0.0286573
2.25498e-06
0.0286507
1.96686e-06
0.0286451
1.68094e-06
0.0286404
1.39711e-06
0.0286365
1.11519e-06
0.0286332
8.34906e-07
0.0286307
5.55868e-07
0.0286289
2.77734e-07
0.0286276
0.028627
-0.00121464
0.030905
0.0011107
-0.00100616
0.0357338
-0.00080346
0.0358084
-0.000628977
0.034966
-0.000491737
0.0341125
-0.000384017
0.0333893
-0.000299968
0.032774
-0.000234466
0.0322474
-0.000183358
0.0317929
-0.00014334
0.0313992
-0.000112046
0.0310571
-8.74501e-05
0.0307591
-6.80998e-05
0.0304991
-5.28327e-05
0.0302718
-4.07768e-05
0.0300728
-3.12519e-05
0.0298982
-2.37131e-05
0.0297452
-1.7731e-05
0.0296107
-1.29869e-05
0.0294924
-9.23186e-06
0.0293882
-6.26978e-06
0.0292964
-3.92957e-06
0.0292155
-2.09165e-06
0.029144
-6.63832e-07
0.0290809
4.76313e-07
0.0290251
1.34932e-06
0.0289758
2.00499e-06
0.0289322
2.48616e-06
0.0288935
2.82951e-06
0.0288593
3.05268e-06
0.028829
3.18766e-06
0.0288022
3.24808e-06
0.0287784
3.24866e-06
0.0287574
3.20088e-06
0.0287387
3.11132e-06
0.0287223
2.99104e-06
0.0287077
2.84507e-06
0.0286949
2.67834e-06
0.0286836
2.4949e-06
0.0286737
2.29776e-06
0.028665
2.09005e-06
0.0286575
1.87397e-06
0.028651
1.65125e-06
0.0286454
1.42335e-06
0.0286406
1.19141e-06
0.0286367
9.56408e-07
0.0286335
7.19148e-07
0.028631
4.80268e-07
0.0286291
2.40395e-07
0.0286279
0.0286273
-0.00156364
0.0309185
0.00155015
-0.00127528
0.0354454
-0.00100673
0.0355398
-0.000786427
0.0347457
-0.000615641
0.0339417
-0.00048322
0.0332569
-0.000380753
0.0326715
-0.000301019
0.0321676
-0.00023862
0.0317305
-0.000189574
0.0313502
-0.000150984
0.0310185
-0.000120452
0.0307286
-9.62065e-05
0.0304749
-7.68896e-05
0.0302525
-6.14558e-05
0.0300573
-4.90866e-05
0.0298859
-3.9138e-05
0.0297352
-3.11113e-05
0.0296026
-2.46212e-05
0.0294859
-1.93631e-05
0.029383
-1.50995e-05
0.0292922
-1.16349e-05
0.029212
-8.81671e-06
0.0291412
-6.52728e-06
0.0290786
-4.67366e-06
0.0290233
-3.17563e-06
0.0289743
-1.96783e-06
0.0289309
-1.00169e-06
0.0288925
-2.39066e-07
0.0288585
3.83133e-07
0.0288284
8.59934e-07
0.0288017
1.21914e-06
0.028778
1.48142e-06
0.0287571
1.66422e-06
0.0287386
1.77561e-06
0.0287222
1.83319e-06
0.0287077
1.84348e-06
0.0286949
1.81439e-06
0.0286836
1.75255e-06
0.0286738
1.66239e-06
0.0286651
1.54968e-06
0.0286576
1.41799e-06
0.0286511
1.27071e-06
0.0286455
1.11057e-06
0.0286408
9.4004e-07
0.0286369
7.61311e-07
0.0286336
5.76284e-07
0.0286311
3.8666e-07
0.0286293
1.94067e-07
0.0286281
0.0286274
-0.00189388
0.0308271
0.00198525
-0.00152844
0.03508
-0.00119799
0.0352094
-0.000934878
0.0344826
-0.000732515
0.0337394
-0.000577244
0.0331016
-0.000457864
0.0325522
-0.00036497
0.0320748
-0.000292072
0.0316576
-0.000234621
0.0312927
-0.000189203
0.0309731
-0.000153077
0.0306925
-0.000124193
0.030446
-0.000101008
0.0302293
-8.23195e-05
0.0300386
-6.71994e-05
0.0298708
-5.49017e-05
0.0297229
-4.48653e-05
0.0295926
-3.66461e-05
0.0294777
-2.98937e-05
0.0293762
-2.43302e-05
0.0292866
-1.97347e-05
0.0292074
-1.59302e-05
0.0291374
-1.278e-05
0.0290755
-1.01674e-05
0.0290207
-8.00314e-06
0.0289721
-6.21009e-06
0.0289292
-4.72569e-06
0.0288911
-3.50069e-06
0.0288573
-2.4989e-06
0.0288274
-1.68012e-06
0.0288009
-1.01608e-06
0.0287774
-4.85346e-07
0.0287566
-6.80898e-08
0.0287381
2.69424e-07
0.0287218
5.20344e-07
0.0287074
7.01109e-07
0.0286947
8.22814e-07
0.0286835
8.95191e-07
0.0286737
9.23923e-07
0.0286651
9.17799e-07
0.0286576
8.81533e-07
0.0286511
8.20497e-07
0.0286456
7.38539e-07
0.0286409
6.39659e-07
0.028637
5.27236e-07
0.0286338
4.04315e-07
0.0286313
2.73709e-07
0.0286294
1.38083e-07
0.0286282
0.0286276
-0.0021886
0.0306319
0.00238373
-0.00175684
0.0346482
-0.00137447
0.034827
-0.00107179
0.0341799
-0.000840616
0.0335082
-0.000665182
0.0329262
-0.000530764
0.0324177
-0.000425935
0.0319699
-0.000343459
0.0315751
-0.000278317
0.0312276
-0.000226602
0.0309213
-0.000185251
0.0306511
-0.000152
0.0304127
-0.000125143
0.0302024
-0.000103338
0.0300168
-8.55552e-05
0.029853
-7.09708e-05
0.0297083
-5.89618e-05
0.0295806
-4.90312e-05
0.0294677
-4.07901e-05
0.029368
-3.3926e-05
0.0292797
-2.81934e-05
0.0292017
-2.33917e-05
0.0291326
-1.93636e-05
0.0290715
-1.598e-05
0.0290173
-1.31344e-05
0.0289693
-1.07393e-05
0.0289268
-8.72404e-06
0.028889
-7.03116e-06
0.0288556
-5.61175e-06
0.028826
-4.42445e-06
0.0287997
-3.4334e-06
0.0287764
-2.61012e-06
0.0287557
-1.93068e-06
0.0287375
-1.3775e-06
0.0287213
-9.28352e-07
0.028707
-5.69673e-07
0.0286944
-2.89119e-07
0.0286832
-7.58332e-08
0.0286735
8.66115e-08
0.0286649
1.98767e-07
0.0286575
2.68965e-07
0.0286511
3.04506e-07
0.0286455
3.10725e-07
0.0286409
2.93175e-07
0.028637
2.56514e-07
0.0286338
2.05016e-07
0.0286313
1.42612e-07
0.0286295
7.30487e-08
0.0286283
0.0286277
-0.00243365
0.0303499
0.00271569
-0.00195284
0.0341674
-0.00153167
0.0344058
-0.0011935
0.0338417
-0.000938489
0.0332532
-0.000746349
0.0327341
-0.000598946
0.0322703
-0.000483519
0.0318545
-0.00039251
0.0314841
-0.000320465
0.0311555
-0.000263016
0.0308639
-0.000216833
0.030605
-0.000179502
0.0303754
-0.00014918
0.0301721
-0.000124402
0.029992
-0.00010405
0.0298326
-8.7243e-05
0.0296915
-7.33011e-05
0.0295666
-6.16818e-05
0.0294561
-5.19613e-05
0.0293582
-4.37996e-05
0.0292716
-3.69247e-05
0.0291948
-3.11185e-05
0.0291268
-2.62024e-05
0.0290665
-2.20354e-05
0.0290131
-1.84964e-05
0.0289658
-1.54874e-05
0.0289237
-1.29293e-05
0.0288865
-1.07545e-05
0.0288534
-8.90662e-06
0.0288241
-7.33749e-06
0.0287981
-6.00882e-06
0.0287751
-4.88615e-06
0.0287546
-3.93895e-06
0.0287365
-3.14585e-06
0.0287205
-2.48362e-06
0.0287063
-1.93446e-06
0.0286938
-1.48214e-06
0.0286828
-1.11311e-06
0.0286731
-8.1749e-07
0.0286646
-5.82954e-07
0.0286573
-4.0052e-07
0.0286509
-2.62136e-07
0.0286454
-1.61015e-07
0.0286408
-9.03802e-08
0.0286369
-4.42727e-08
0.0286338
-1.70795e-08
0.0286313
-3.80123e-09
0.0286295
5.40277e-10
0.0286283
0.0286277
-0.00262008
0.0300098
0.00296021
-0.00211032
0.0336577
-0.00165958
0.0339551
-0.00129679
0.033479
-0.00102502
0.0329814
-0.000820202
0.0325292
-0.000661858
0.032112
-0.000537299
0.0317299
-0.000438934
0.0313857
-0.000360827
0.0310774
-0.000298213
0.0308013
-0.000247607
0.0305543
-0.0002065
0.0303343
-0.000172925
0.0301385
-0.000145321
0.0299644
-0.000122503
0.0298098
-0.000103543
0.0296726
-8.77135e-05
0.0295508
-7.44347e-05
0.0294428
-6.32529e-05
0.0293471
-5.38038e-05
0.0292621
-4.57908e-05
0.0291868
-3.89801e-05
0.02912
-3.31731e-05
0.0290607
-2.82179e-05
0.0290082
-2.39793e-05
0.0289615
-2.03527e-05
0.0289201
-1.72434e-05
0.0288834
-1.45799e-05
0.0288508
-1.2298e-05
0.0288218
-1.0343e-05
0.0287962
-8.6704e-06
0.0287734
-7.2408e-06
0.0287532
-6.02007e-06
0.0287353
-4.98227e-06
0.0287194
-4.10184e-06
0.0287054
-3.35691e-06
0.0286931
-2.72913e-06
0.0286822
-2.20205e-06
0.0286726
-1.76358e-06
0.0286642
-1.4e-06
0.0286569
-1.09963e-06
0.0286506
-8.53428e-07
0.0286452
-6.52966e-07
0.0286406
-4.89626e-07
0.0286367
-3.56654e-07
0.0286336
-2.47345e-07
0.0286312
-1.5542e-07
0.0286294
-7.489e-08
0.0286282
0.0286276
-0.00274517
0.0296449
0.00311006
-0.00222623
0.0331387
-0.00175835
0.0334872
-0.00138101
0.0331016
-0.00109943
0.0326998
-0.000885915
0.0323157
-0.000718839
0.0319449
-0.000586855
0.031598
-0.000482412
0.0312813
-0.000399092
0.0309941
-0.000331882
0.0307341
-0.00027728
0.0304997
-0.000232713
0.0302897
-0.000196105
0.0301019
-0.000165829
0.0299342
-0.000140658
0.0297846
-0.000119626
0.0296515
-0.000101965
0.0295332
-8.70691e-05
0.0294279
-7.44552e-05
0.0293344
-6.37392e-05
0.0292514
-5.46035e-05
0.0291777
-4.67968e-05
0.0291122
-4.011e-05
0.0290541
-3.43726e-05
0.0290024
-2.94416e-05
0.0289566
-2.51967e-05
0.0289159
-2.15417e-05
0.0288797
-1.83914e-05
0.0288476
-1.56771e-05
0.0288191
-1.33375e-05
0.0287938
-1.13224e-05
0.0287714
-9.58608e-06
0.0287515
-8.09389e-06
0.0287338
-6.81267e-06
0.0287182
-5.71454e-06
0.0287043
-4.77407e-06
0.0286921
-3.97254e-06
0.0286814
-3.28855e-06
0.0286719
-2.70691e-06
0.0286636
-2.21411e-06
0.0286564
-1.79689e-06
0.0286502
-1.44335e-06
0.0286448
-1.14345e-06
0.0286403
-8.8821e-07
0.0286365
-6.69045e-07
0.0286334
-4.7784e-07
0.028631
-3.07299e-07
0.0286292
-1.50231e-07
0.028628
0.0286274
-0.00281149
0.0292856
0.00317077
-0.00230083
0.0326281
-0.00182882
0.0330152
-0.00144686
0.0327196
-0.00116151
0.0324145
-0.000942559
0.0320968
-0.000769284
0.0317716
-0.000631808
0.0314605
-0.000522594
0.0311721
-0.000434878
0.0309064
-0.000363649
0.0306628
-0.000305499
0.0304416
-0.000257798
0.030242
-0.000218382
0.0300625
-0.0001856
0.0299014
-0.000158204
0.0297572
-0.000135194
0.0296285
-0.000115773
0.0295137
-9.9316e-05
0.0294115
-8.53157e-05
0.0293204
-7.33686e-05
0.0292395
-6.31421e-05
0.0291674
-5.43659e-05
0.0291034
-4.68204e-05
0.0290465
-4.03187e-05
0.0289959
-3.47098e-05
0.028951
-2.98644e-05
0.028911
-2.56773e-05
0.0288755
-2.20519e-05
0.028844
-1.89182e-05
0.028816
-1.62032e-05
0.0287911
-1.38557e-05
0.028769
-1.18252e-05
0.0287494
-1.00708e-05
0.028732
-8.55401e-06
0.0287166
-7.24584e-06
0.028703
-6.11898e-06
0.028691
-5.14795e-06
0.0286804
-4.31286e-06
0.0286711
-3.59705e-06
0.0286629
-2.98124e-06
0.0286558
-2.45153e-06
0.0286496
-1.99711e-06
0.0286444
-1.60386e-06
0.0286399
-1.26151e-06
0.0286361
-9.61002e-07
0.0286331
-6.93021e-07
0.0286307
-4.48969e-07
0.028629
-2.20666e-07
0.0286278
0.0286272
-0.00282571
0.0289553
0.00315597
-0.00233689
0.0321392
-0.0018725
0.0325508
-0.00149522
0.0323424
-0.00121152
0.0321308
-0.000989941
0.0318752
-0.000812862
0.0315946
-0.00067182
0.0313194
-0.000559068
0.0310593
-0.000467738
0.0308151
-0.000393091
0.0305882
-0.000331862
0.0303804
-0.000281354
0.0301915
-0.000239367
0.0300205
-0.000204265
0.0298663
-0.000174789
0.0297278
-0.000149914
0.0296037
-0.000128825
0.0294927
-0.000110881
0.0293935
-9.55589e-05
0.0293051
-8.24346e-05
0.0292263
-7.11639e-05
0.0291562
-6.14609e-05
0.0290937
-5.30925e-05
0.0290381
-4.58633e-05
0.0289887
-3.96082e-05
0.0289447
-3.41929e-05
0.0289056
-2.94966e-05
0.0288708
-2.54237e-05
0.0288399
-2.18898e-05
0.0288125
-1.88242e-05
0.028788
-1.61621e-05
0.0287664
-1.38544e-05
0.0287471
-1.18509e-05
0.02873
-1.01158e-05
0.0287149
-8.61313e-06
0.0287015
-7.31325e-06
0.0286897
-6.18937e-06
0.0286793
-5.21772e-06
0.0286701
-4.37802e-06
0.0286621
-3.6511e-06
0.0286551
-3.0218e-06
0.028649
-2.4766e-06
0.0286438
-2.00074e-06
0.0286394
-1.58321e-06
0.0286357
-1.21218e-06
0.0286327
-8.77916e-07
0.0286304
-5.70453e-07
0.0286286
-2.80997e-07
0.0286275
0.0286269
-0.00279643
0.0286691
0.00308266
-0.00233876
0.0316816
-0.00189182
0.0321039
-0.00152706
0.0319776
-0.00124959
0.0318533
-0.001028
0.0316536
-0.000849476
0.031416
-0.0007066
0.0311766
-0.000591375
0.0309441
-0.000497209
0.0307209
-0.000419787
0.0305108
-0.000355952
0.0303165
-0.000302965
0.0301385
-0.00025866
0.0299762
-0.000221446
0.0298291
-0.000190055
0.0296964
-0.000163448
0.029577
-0.000140805
0.02947
-0.00012147
0.0293742
-0.000104909
0.0292886
-9.06822e-05
0.0292121
-7.84327e-05
0.0291439
-6.78639e-05
0.0290831
-5.87267e-05
0.029029
-5.08187e-05
0.0289808
-4.39649e-05
0.0289379
-3.80147e-05
0.0288997
-3.28512e-05
0.0288657
-2.8363e-05
0.0288354
-2.44643e-05
0.0288086
-2.10757e-05
0.0287847
-1.81324e-05
0.0287634
-1.55709e-05
0.0287446
-1.33479e-05
0.0287278
-1.14169e-05
0.028713
-9.74226e-06
0.0286998
-8.29146e-06
0.0286882
-7.03321e-06
0.028678
-5.9443e-06
0.028669
-4.99913e-06
0.0286611
-4.17958e-06
0.0286542
-3.46944e-06
0.0286483
-2.8495e-06
0.0286432
-2.30743e-06
0.0286389
-1.82949e-06
0.0286352
-1.40357e-06
0.0286323
-1.01799e-06
0.02863
-6.62547e-07
0.0286283
-3.26271e-07
0.0286272
0.0286266
-0.00273156
0.0284331
0.00296753
-0.0023116
0.0312616
-0.00189001
0.0316823
-0.00154354
0.0316311
-0.00127549
0.0315853
-0.00105674
0.0314349
-0.00087906
0.0312384
-0.000735823
0.0310333
-0.000619085
0.0308273
-0.000522879
0.0306247
-0.000443326
0.0304312
-0.000377345
0.0302506
-0.000322217
0.0300834
-0.000275872
0.0299299
-0.000236776
0.02979
-0.000203657
0.0296633
-0.000175476
0.0295489
-0.000151414
0.0294459
-0.000130809
0.0293536
-0.000113113
0.0292709
-9.7879e-05
0.0291969
-8.47353e-05
0.0291308
-7.33761e-05
0.0290718
-6.35403e-05
0.0290192
-5.50158e-05
0.0289723
-4.7618e-05
0.0289305
-4.1193e-05
0.0288932
-3.56106e-05
0.0288601
-3.07556e-05
0.0288306
-2.65327e-05
0.0288043
-2.28605e-05
0.028781
-1.96678e-05
0.0287602
-1.68923e-05
0.0287418
-1.44808e-05
0.0287254
-1.23877e-05
0.0287109
-1.05692e-05
0.028698
-8.99235e-06
0.0286867
-7.62546e-06
0.0286766
-6.44186e-06
0.0286678
-5.41684e-06
0.0286601
-4.52863e-06
0.0286534
-3.75623e-06
0.0286475
-3.08489e-06
0.0286425
-2.49709e-06
0.0286383
-1.97963e-06
0.0286347
-1.51792e-06
0.0286318
-1.10074e-06
0.0286296
-7.16097e-07
0.0286279
-3.52762e-07
0.0286268
0.0286263
-0.00263766
0.0282458
0.00282497
-0.00226107
0.030885
-0.00187049
0.0312917
-0.00154611
0.0313067
-0.00128992
0.0313291
-0.00107641
0.0312214
-0.000901558
0.0310635
-0.00075921
0.030891
-0.000641889
0.03071
-0.000544422
0.0305272
-0.000463347
0.0303502
-0.000395664
0.0301829
-0.000338747
0.0300265
-0.000290668
0.0298818
-0.000249942
0.0297492
-0.000215303
0.0296286
-0.000185728
0.0295193
-0.000160407
0.0294206
-0.000138671
0.0293319
-0.000119966
0.0292522
-0.000103835
0.0291807
-8.98989e-05
0.0291168
-7.784e-05
0.0290597
-6.7389e-05
0.0290087
-5.83257e-05
0.0289632
-5.04534e-05
0.0289226
-4.3615e-05
0.0288864
-3.76694e-05
0.0288542
-3.25018e-05
0.0288254
-2.8008e-05
0.0287998
-2.41015e-05
0.0287771
-2.07014e-05
0.0287568
-1.77501e-05
0.0287388
-1.51884e-05
0.0287228
-1.29653e-05
0.0287087
-1.10399e-05
0.0286961
-9.36947e-06
0.028685
-7.92575e-06
0.0286752
-6.67784e-06
0.0286666
-5.59929e-06
0.028659
-4.66769e-06
0.0286524
-3.86038e-06
0.0286467
-3.16128e-06
0.0286418
-2.55183e-06
0.0286377
-2.01811e-06
0.0286342
-1.54364e-06
0.0286314
-1.11731e-06
0.0286292
-7.25989e-07
0.0286275
-3.57221e-07
0.0286264
0.0286259
-0.00252683
0.0281055
0.00266717
-0.00219325
0.0305514
-0.00183642
0.0309349
-0.00153636
0.0310067
-0.00129372
0.0310864
-0.00108744
0.0310151
-0.000916965
0.030893
-0.000776581
0.0307506
-0.000659554
0.030593
-0.000561569
0.0304292
-0.000479548
0.0302681
-0.000410599
0.0301139
-0.000352268
0.0299682
-0.000302781
0.0298323
-0.000260696
0.0297072
-0.000224766
0.0295927
-0.000194001
0.0294885
-0.0001676
0.0293942
-0.000144892
0.0293091
-0.000125319
0.0292326
-0.000108418
0.0291638
-9.38035e-05
0.0291022
-8.11479e-05
0.0290471
-7.01764e-05
0.0289977
-6.06565e-05
0.0289537
-5.23911e-05
0.0289143
-4.52117e-05
0.0288792
-3.89698e-05
0.0288479
-3.35478e-05
0.02882
-2.8836e-05
0.0287951
-2.4743e-05
0.028773
-2.11906e-05
0.0287533
-1.81076e-05
0.0287357
-1.54364e-05
0.0287202
-1.31248e-05
0.0287064
-1.11259e-05
0.0286941
-9.40055e-06
0.0286833
-7.9095e-06
0.0286737
-6.6298e-06
0.0286653
-5.52752e-06
0.0286579
-4.58039e-06
0.0286515
-3.76835e-06
0.0286459
-3.06595e-06
0.0286411
-2.46205e-06
0.0286371
-1.93589e-06
0.0286337
-1.47481e-06
0.0286309
-1.06324e-06
0.0286287
-6.88391e-07
0.0286271
-3.3804e-07
0.0286261
0.0286256
-0.00240788
0.0280094
0.002504
-0.00211345
0.030257
-0.00179082
0.0306122
-0.00151594
0.0307318
-0.00128781
0.0308583
-0.00109033
0.0308176
-0.000925415
0.0307281
-0.000787907
0.0306131
-0.00067198
0.0304771
-0.000574169
0.0303314
-0.000491744
0.0301857
-0.000421966
0.0300441
-0.00036261
0.0299088
-0.000312053
0.0297817
-0.000268889
0.029664
-0.000231918
0.0295557
-0.000200184
0.0294568
-0.000172897
0.0293669
-0.000149388
0.0292856
-0.0001291
0.0292123
-0.000111567
0.0291463
-9.63969e-05
0.0290871
-8.32568e-05
0.0290339
-7.1865e-05
0.0289864
-6.19802e-05
0.0289438
-5.34023e-05
0.0289058
-4.59541e-05
0.0288718
-3.9489e-05
0.0288414
-3.38773e-05
0.0288144
-2.90042e-05
0.0287903
-2.47813e-05
0.0287688
-2.11213e-05
0.0287496
-1.79534e-05
0.0287326
-1.5215e-05
0.0287174
-1.28547e-05
0.028704
-1.08188e-05
0.0286921
-9.0704e-06
0.0286815
-7.57338e-06
0.0286722
-6.2904e-06
0.028664
-5.19546e-06
0.0286568
-4.26368e-06
0.0286505
-3.47082e-06
0.0286451
-2.79792e-06
0.0286404
-2.22273e-06
0.0286365
-1.73108e-06
0.0286332
-1.30681e-06
0.0286305
-9.35421e-07
0.0286284
-6.02443e-07
0.0286268
-2.95082e-07
0.0286258
0.0286253
-0.00228318
0.0279509
0.00234163
-0.00202519
0.029999
-0.00173627