/*--------------------------------*- C++ -*----------------------------------*\
  =========                 |
  \\      /  F ield         | OpenFOAM: The Open Source CFD Toolbox
   \\    /   O peration     | Website:  https://openfoam.org
    \\  /    A nd           | Version:  7
     \\/     M anipulation  |
\*---------------------------------------------------------------------------*/
FoamFile
{
    version     2.0;
    format      ascii;
    class       surfaceScalarField;
    location    "50";
    object      phi;
}
// * * * * * * * * * * * * * * * * * * * * * * * * * * * * * * * * * * * * * //

dimensions      [0 3 -1 0 0 0 0];

internalField   nonuniform List<scalar> 
2625
(
-3.73527e-05
2.59597e-05
-7.24047e-05
3.5052e-05
-0.000112222
3.98172e-05
-0.000153217
4.09952e-05
-0.00019234
3.91227e-05
-0.000226931
3.45916e-05
-0.000254608
2.76768e-05
-0.000273172
1.85642e-05
-0.00028055
7.37716e-06
-0.000274754
-5.7958e-06
-0.000253882
-2.08721e-05
-0.000216142
-3.774e-05
-0.000159938
-5.62039e-05
-8.40178e-05
-7.592e-05
1.22943e-05
-9.63121e-05
0.000128785
-0.00011649
0.000263947
-0.000135162
0.000414289
-0.000150342
-0.000158955
0.000573244
-9.94035e-06
2.13334e-05
-3.20268e-05
4.80461e-05
-6.09595e-05
6.39847e-05
-9.24781e-05
7.13358e-05
-0.000122997
7.15139e-05
-0.00014942
6.55454e-05
-0.000169007
5.41787e-05
-0.000179266
3.79364e-05
-0.000177871
1.71687e-05
-0.000162596
-7.89748e-06
-0.000131287
-3.71046e-05
-8.18363e-05
-7.03231e-05
-1.22074e-05
-0.000107369
7.95074e-05
-0.000147919
0.000194965
-0.000191378
0.000335361
-0.000236708
0.000501095
-0.000282225
0.000691295
-0.000325362
0.000902967
-0.000362015
-0.000385494
0.00112951
-7.18436e-06
2.85177e-05
-2.18634e-05
6.27252e-05
-3.90382e-05
8.11595e-05
-5.45588e-05
8.68563e-05
-6.4832e-05
8.17871e-05
-6.66687e-05
6.73821e-05
-5.71713e-05
4.46813e-05
-3.36419e-05
1.4407e-05
6.48786e-06
-2.2961e-05
6.57123e-05
-6.71219e-05
0.000146493
-0.000117886
0.000251275
-0.000175105
0.000382492
-0.000238586
0.000542548
-0.000307974
0.000733741
-0.000382571
0.000958108
-0.000461075
0.0012171
-0.00054122
0.00151101
-0.000619267
0.00183782
-0.000688831
-0.000738583
0.00219091
-3.37979e-06
3.18975e-05
-7.70408e-06
6.70494e-05
-8.32494e-06
8.17804e-05
-1.21251e-06
7.97439e-05
1.72548e-05
6.33198e-05
5.0404e-05
3.4233e-05
0.000101353
-6.26774e-06
0.000173071
-5.73112e-05
0.000268445
-0.000118335
0.000390307
-0.000188984
0.000541466
-0.000269044
0.000724728
-0.000358367
0.000942917
-0.000456775
0.00119888
-0.000563936
0.00149548
-0.000679172
0.00183554
-0.000801133
0.00222159
-0.000927275
0.00265531
-0.00105299
0.00313612
-0.00116964
-0.00126016
0.0036577
1.18611e-06
3.07114e-05
9.4804e-06
5.87552e-05
2.92012e-05
6.20596e-05
6.42757e-05
4.46694e-05
0.000118376
9.21957e-06
0.000194988
-4.23795e-05
0.000297469
-0.000108748
0.000429085
-0.000188927
0.000593026
-0.000282277
0.00079243
-0.000388387
0.00103038
-0.000506991
0.0013099
-0.000637887
0.00163397
-0.000780851
0.00200556
-0.000935523
0.00242762
-0.00110124
0.00290318
-0.00127669
0.00343527
-0.00145936
0.00402654
-0.00164426
0.00467799
-0.00182109
-0.00196689
0.00538471
6.26847e-06
2.44429e-05
2.88239e-05
3.61997e-05
7.17067e-05
1.91768e-05
0.000138755
-2.2379e-05
0.000233681
-8.5706e-05
0.000360106
-0.000168804
0.000521569
-0.000270212
0.000721533
-0.00038889
0.000963363
-0.000524107
0.00125031
-0.00067533
0.00158545
-0.000842136
0.00197169
-0.00102413
0.00241171
-0.00122087
0.00290794
-0.00143175
0.00346263
-0.00165593
0.00407794
-0.001892
0.00475612
-0.00213754
0.00549956
-0.0023877
0.00631038
-0.00263191
-0.00284394
0.00718744
1.17141e-05
1.27288e-05
4.97147e-05
-1.80086e-06
0.000117775
-4.88839e-05
0.000219618
-0.000124222
0.000358914
-0.000225002
0.000539286
-0.000349176
0.000764268
-0.000495194
0.00103726
-0.000661884
0.00136147
-0.000848319
0.00173984
-0.0010537
0.00217496
-0.00127725
0.00266899
-0.00151816
0.00322358
-0.00177546
0.00383985
-0.00204802
0.00451833
-0.00233441
0.0052591
-0.00263277
0.00606206
-0.0029405
0.00692756
-0.0032532
0.00785778
-0.00356213
-0.0038455
0.00885934
1.74711e-05
-4.74225e-06
7.17817e-05
-5.61115e-05
0.000166403
-0.000143505
0.000304773
-0.000262592
0.000490322
-0.000410551
0.000726387
-0.000585241
0.00101612
-0.00078493
0.0013624
-0.00100816
0.00176768
-0.0012536
0.00223394
-0.00151995
0.00276252
-0.00180583
0.00335407
-0.00210971
0.00400846
-0.00242986
0.00472475
-0.00276432
0.0055012
-0.00311085
0.0063353
-0.00346687
0.00722405
-0.00382925
0.00816413
-0.00419328
0.00915276
-0.00455076
-0.00489615
0.0102034
2.35177e-05
-2.82599e-05
9.47939e-05
-0.000127388
0.000216712
-0.000265424
0.00039216
-0.00043804
0.000623941
-0.000642332
0.000914625
-0.000875924
0.00126638
-0.00113669
0.00168083
-0.0014226
0.00215886
-0.00173164
0.00270056
-0.00206166
0.0033051
-0.00241036
0.00397068
-0.00277529
0.00469463
-0.0031538
0.00547348
-0.00354317
0.00630326
-0.00394063
0.00717988
-0.00434349
0.00809985
-0.00474923
0.00906219
-0.00515562
0.0100738
-0.00556234
-0.00597501
0.0111526
2.98268e-05
-5.80868e-05
0.000118363
-0.000215924
0.000267491
-0.000414552
0.000479063
-0.000649612
0.000754688
-0.000917957
0.00109548
-0.00121672
0.00150183
-0.00154304
0.0019732
-0.00189397
0.00250795
-0.00226639
0.00310327
-0.00265698
0.00375514
-0.00306223
0.00445836
-0.00347852
0.00520674
-0.00390218
0.0059932
-0.00432964
0.00681015
-0.00475757
0.00764966
-0.005183
0.00850388
-0.00560344
0.00936537
-0.00601711
0.0102262
-0.00642322
-0.0068193
0.0110705
3.6264e-05
-9.43508e-05
0.000141781
-0.000321441
0.000316836
-0.000589606
0.000561608
-0.000894384
0.000875794
-0.00123214
0.00125826
-0.00159919
0.00170679
-0.00199156
0.00221784
-0.00240502
0.00278653
-0.00283508
0.0034066
-0.00327705
0.00407056
-0.00372619
0.00476993
-0.00417788
0.00549552
-0.00462776
0.00623782
-0.00507194
0.0069874
-0.00550715
0.00773523
-0.00593083
0.00847297
-0.00634118
0.00919294
-0.00673708
0.00988734
-0.00711762
-0.00747919
0.0105472
4.25606e-05
-0.000136911
0.000163895
-0.000442776
0.000361982
-0.000787693
0.000634601
-0.001167
0.000978773
-0.00157631
0.00139037
-0.00201078
0.00186385
-0.00246505
0.00239223
-0.0029334
0.0029671
-0.00340995
0.00357889
-0.00388884
0.00421721
-0.00436452
0.00487134
-0.00483201
0.00553069
-0.00528711
0.00618534
-0.00572659
0.00682649
-0.0061483
0.00744681
-0.00655115
0.0080407
-0.00693507
0.0086043
-0.00730069
0.00913544
-0.00764875
-0.00797791
0.00963415
4.83153e-05
-0.000185227
0.000183151
-0.000577612
0.000399468
-0.00100401
0.000691944
-0.00145948
0.00105427
-0.00193864
0.0014788
-0.00243531
0.0019564
-0.00294265
0.00247664
-0.00345363
0.00302803
-0.00396135
0.00359862
-0.00445942
0.00417648
-0.00494238
0.0047504
-0.00540593
0.00531045
-0.00584716
0.00584846
-0.0062646
0.00635837
-0.00665821
0.0068364
-0.00702918
0.00728098
-0.00737965
0.00769259
-0.00771231
0.00807351
-0.00802967
-0.00833244
0.00842804
5.30364e-05
-0.000238263
0.000197772
-0.000722348
0.000425564
-0.0012318
0.000727467
-0.00176138
0.00109348
-0.00230466
0.00151231
-0.00285413
0.00197149
-0.00340183
0.00245779
-0.00393993
0.00295779
-0.00446135
0.00345859
-0.00496022
0.00394852
-0.00543231
0.00441776
-0.00587517
0.00485881
-0.00628821
0.00526673
-0.00667252
0.00563917
-0.00703065
0.00597615
-0.00736617
0.00627974
-0.00768323
0.00655352
-0.00798608
0.0068022
-0.00827836
-0.00856192
0.00703169
5.62074e-05
-0.000294471
0.000206005
-0.000872145
0.000436822
-0.00146262
0.000735897
-0.00206046
0.00108959
-0.00265835
0.00148337
-0.00324792
0.00190225
-0.00382071
0.0023314
-0.00436909
0.00275697
-0.00488691
0.00316681
-0.00537007
0.00355116
-0.00581666
0.00390301
-0.00622702
0.00421829
-0.00660349
0.00449571
-0.00694994
0.00473641
-0.00727135
0.00494342
-0.00757318
0.00512108
-0.00786089
0.0052744
-0.0081394
0.00540863
-0.00841259
-0.0086826
0.0055293
5.7358e-05
-0.000351829
0.000206375
-0.00102116
0.000430604
-0.00168685
0.000713699
-0.00234355
0.00103892
-0.00298357
0.00138942
-0.00359842
0.0017489
-0.00418019
0.00210245
-0.00472263
0.0024373
-0.00522177
0.00274352
-0.00567629
0.00301434
-0.00608748
0.00324621
-0.00645889
0.00343851
-0.00679579
0.0035931
-0.00710453
0.00371363
-0.00739188
0.00380482
-0.00766438
0.00387186
-0.00792793
0.00391983
-0.00818736
0.00395336
-0.00844613
-0.00870606
0.00397683
5.61254e-05
-0.000407954
0.000197889
-0.00116293
0.000405452
-0.00189441
0.000659577
-0.00259768
0.000941412
-0.00326541
0.00123304
-0.00389005
0.0015183
-0.00446546
0.00178361
-0.00498794
0.00201857
-0.00545673
0.00221631
-0.00587403
0.00237344
-0.00624461
0.00248969
-0.00657514
0.00256728
-0.00687339
0.0026102
-0.00714745
0.00262339
-0.00740506
0.00261206
-0.00765305
0.00258119
-0.00789706
0.00253516
-0.00814133
0.00247756
-0.00838853
-0.00864003
0.00241153
5.22994e-05
-0.000460253
0.000180155
-0.00129078
0.000361258
-0.00207551
0.000574572
-0.00281099
0.000800425
-0.00349126
0.00102124
-0.00411086
0.00122233
-0.00466655
0.00139258
-0.00515818
0.00152468
-0.00558882
0.00161507
-0.00596443
0.00166351
-0.00629305
0.00167233
-0.00658395
0.00164561
-0.00684666
0.00158835
-0.00709019
0.00150576
-0.00732247
0.00140272
-0.00755002
0.00128343
-0.00777777
0.00115123
-0.00800912
0.00100861
-0.00824592
-0.00848894
0.000857527
4.58455e-05
-0.000506099
0.000153423
-0.00139836
0.000299235
-0.00222133
0.000461816
-0.00297357
0.000622091
-0.00365153
0.000764138
-0.0042529
0.000875843
-0.00477826
0.000949204
-0.00523154
0.000980217
-0.00561984
0.000968385
-0.00595259
0.000915936
-0.0062406
0.000826923
-0.00649494
0.000706327
-0.00672607
0.000559313
-0.00694318
0.00039067
-0.00715383
0.000204491
-0.00736384
4.03264e-06
-0.00757731
-0.000208292
-0.0077968
-0.000431009
-0.0080232
-0.00825661
-0.000663342
3.69059e-05
-0.000543005
0.000118535
-0.00147999
0.000221716
-0.00232451
0.000326044
-0.0030779
0.000414391
-0.00373988
0.000473577
-0.00431209
0.000494729
-0.00479941
0.000473199
-0.00521001
0.000408065
-0.0055547
0.000301299
-0.00584583
0.000156828
-0.00609613
-2.04197e-05
-0.00631769
-0.000225323
-0.00652116
-0.000453145
-0.00671535
-0.000699869
-0.00690711
-0.00096231
-0.0071014
-0.00123808
-0.00730154
-0.00152549
-0.00182335
-0.00213086
2.57854e-05
-0.00056879
7.68221e-05
-0.00153102
0.000131867
-0.00237955
0.000172996
-0.00311903
0.000186217
-0.0037531
0.000161806
-0.00428768
9.44305e-05
-0.00473203
-1.73432e-05
-0.00509824
-0.000171873
-0.00540017
-0.000365373
-0.00565233
-0.000592966
-0.00586854
-0.00084953
-0.00606113
-0.00113032
-0.00624037
-0.00143136
-0.00641431
-0.00174956
-0.00208265
1.29763e-05
-0.000581766
2.99755e-05
-0.00154802
3.33763e-05
-0.00238295
8.98227e-06
-0.00309463
-5.33899e-05
-0.00369073
-0.000159463
-0.00418161
-0.000311068
-0.00458043
-0.000506822
-0.00490248
-0.00074307
-0.00516393
-0.00101493
-0.00538047
-0.00131718
-0.00556629
-0.00164495
-0.00199417
-1.32032e-06
-0.000580446
-2.02498e-05
-0.00152909
-7.00097e-05
-0.00233319
-0.000160086
-0.00300456
-0.000296018
-0.0035548
-0.000479651
-0.00399797
-0.000709588
-0.00435049
-0.000982105
-0.00462997
-0.00129215
-0.00485388
-0.00163427
-1.59671e-05
-0.000564479
-7.17301e-05
-0.00147333
-0.000174374
-0.00223055
-0.000328085
-0.00285085
-0.000533785
-0.0033491
-0.00078946
-0.0037423
-0.00109089
-0.00404906
-0.00143257
-3.08735e-05
-0.000533605
-0.000122688
-0.00138152
-0.000276151
-0.00207709
-0.00048981
-0.00263719
-0.00075995
-0.00307896
-0.00108105
-4.52698e-05
-0.000488336
-0.000171297
-0.00125549
-0.000372089
-0.00187629
-0.0006406
-0.00236868
-5.86528e-05
-0.000429683
-0.000215964
-0.00109818
-0.000459379
-0.00163288
-0.00205149
-7.05552e-05
-0.000359128
-0.000255307
-0.000913425
-0.00053564
-0.00135255
-8.05747e-05
-0.000278553
-0.00028817
-0.00070583
-8.83822e-05
-0.000190171
-0.000480586
-9.37278e-05
0.000684328
-0.000111084
0.000788069
-0.000103741
0.000888995
-0.000100926
0.000989023
-0.000100028
0.00108902
-0.000100001
0.00118962
-0.000100597
0.00129127
-0.00010165
0.00139426
-0.000102989
0.00149873
-0.000104473
0.00160474
-0.000106006
0.00171226
-0.000107517
0.00182121
-0.000108954
0.00193149
-0.000110278
0.00204295
-0.00011146
0.00215543
-0.000112483
0.00226877
-0.000113335
0.00238278
-0.00011401
0.00249728
-0.000114506
-0.000114826
0.00123053
-0.000212103
0.00132485
-0.000198061
0.0014177
-0.000193778
0.00151054
-0.000192873
0.00160381
-0.000193263
0.00169792
-0.000194714
0.00179329
-0.000197013
0.00189013
-0.000199831
0.00198855
-0.000202892
0.00208855
-0.00020601
0.00219008
-0.000209052
0.00229305
-0.000211921
0.00239732
-0.000214545
0.00250273
-0.000216872
0.00260912
-0.000218871
0.00271631
-0.000220523
0.00282411
-0.000221819
0.00293237
-0.00022276
-0.000223354
0.00227071
-0.000291904
0.00234511
-0.000272456
0.00242088
-0.000269553
0.00249865
-0.000270645
0.00257797
-0.000272575
0.00265885
-0.000275602
0.00274152
-0.000279685
0.00282606
-0.000284369
0.00291243
-0.000289263
0.00300054
-0.000294117
0.00309026
-0.000298765
0.00318142
-0.000303083
0.00327385
-0.00030698
0.00336738
-0.000310398
0.00346181
-0.000313301
0.00355696
-0.000315674
0.00365266
-0.000317515
0.00374873
-0.000318832
-0.000319641
0.00370341
-0.000337611
0.0037465
-0.00031555
0.00379541
-0.000318465
0.00384958
-0.000324812
0.00390734
-0.000330329
0.0039681
-0.000336362
0.00403171
-0.000343296
0.00409794
-0.000350599
0.00416648
-0.000357809
0.00423706
-0.000364692
0.00430939
-0.000371103
0.00438325
-0.000376934
0.00445837
-0.000382109
0.00453456
-0.000386585
0.00461161
-0.000390347
0.00468933
-0.000393394
0.00476755
-0.000395742
0.00484614
-0.000397413
0.00492493
-0.000398438
-0.000398852
0.00538289
-0.000335783
0.00538467
-0.000317336
0.00539816
-0.000331948
0.00542105
-0.000347702
0.00545039
-0.000359668
0.00548485
-0.00037083
0.0055237
-0.000382148
0.00556618
-0.000393076
0.0056116
-0.000403228
0.00565943
-0.000412519
0.00570924
-0.000420917
0.0057607
-0.000428389
0.00581351
-0.00043492
0.00586744
-0.000440517
0.0059223
-0.000445204
0.00597791
-0.000449012
0.00603415
-0.000451978
0.00609088
-0.000454147
0.00614801
-0.000455561
-0.000456269
0.0071287
-0.00027704
0.00708497
-0.000273612
0.00705951
-0.000306488
0.00704704
-0.000335226
0.00704374
-0.000356369
0.00704769
-0.000374782
0.00705739
-0.000391844
0.0070715
-0.000407185
0.00708904
-0.000420771
0.00710934
-0.000432818
0.0071319
-0.000443484
0.00715638
-0.000452862
0.00718249
-0.00046103
0.00721003
-0.000468063
0.00723886
-0.000474031
0.00726884
-0.000478994
0.00729988
-0.000483011
0.00733187
-0.000486139
0.00736474
-0.00048843
0.00739841
-0.000489938
-0.000490713
0.00874606
-0.000163767
0.00866716
-0.000194711
0.00860812
-0.000247446
0.00856069
-0.000287798
0.00852271
-0.000318386
0.00849248
-0.00034455
0.00846821
-0.000367575
0.00844864
-0.00038762
0.00843302
-0.000405153
0.00842084
-0.000420637
0.00841172
-0.000434359
0.00840537
-0.00044651
0.00840157
-0.000457236
0.00840017
-0.000466658
0.00840101
-0.00047487
0.00840397
-0.000481951
0.00840892
-0.00048797
0.00841577
-0.000492988
0.00842441
-0.000497065
0.00843473
-0.000500255
0.00844662
-0.000502613
-0.000504188
0.0100845
-4.48241e-05
0.00999925
-0.000109489
0.00991094
-0.000159141
0.00982615
-0.000203006
0.00974784
-0.000240075
0.00967587
-0.000272574
0.0096098
-0.000301514
0.00954954
-0.000327353
0.00949492
-0.000350537
0.00944572
-0.000371432
0.00940165
-0.000390289
0.00936243
-0.000407289
0.00932777
-0.000422582
0.00929741
-0.000436294
0.00927107
-0.00044853
0.0092485
-0.000459382
0.00922946
-0.000468933
0.00921373
-0.00047726
0.0092011
-0.000484432
0.00919136
-0.000490518
0.00918433
-0.000495583
0.00917983
-0.000499689
-0.000502894
0.0165553
0.000183481
-0.0167836
0.016335
0.000110759
0.0161322
4.36913e-05
0.0159447
-1.54972e-05
0.0157726
-6.79481e-05
0.0156147
-0.000114713
0.0154697
-0.000156461
0.0153361
-0.000193777
0.0152127
-0.000227197
0.0150985
-0.000257176
0.0149923
-0.000284096
0.0148933
-0.000308279
0.0148007
-0.00033
0.0147139
-0.000349492
0.0146323
-0.000366955
0.0145555
-0.000382558
0.014483
-0.000396452
0.0144145
-0.000408768
0.0143497
-0.000419623
0.0142883
-0.000429123
0.0142301
-0.000437365
0.0141748
-0.000444437
0.0141224
-0.000450422
-0.000455395
0.0178813
0.000304868
-0.0180027
0.0177451
0.000247014
0.0176013
0.000187497
0.017456
0.000129755
0.0173124
7.56338e-05
0.0171722
2.55517e-05
0.0170363
-2.05814e-05
0.0169054
-6.29209e-05
0.0167799
-0.000101663
0.0166598
-0.000137058
0.016545
-0.000169313
0.0164354
-0.000198673
0.0163308
-0.000225366
0.0162309
-0.000249598
0.0161355
-0.00027156
0.0160443
-0.000291423
0.0159572
-0.000309344
0.0158739
-0.000325466
0.0157942
-0.000339919
0.0157179
-0.000352822
0.0156449
-0.000364285
0.0155748
-0.000374409
0.0155077
-0.000383289
-0.00039101
0.0185745
0.000391671
-0.0186613
0.0184866
0.0003349
0.0183948
0.000279308
0.0182991
0.000225481
0.0182004
0.000174335
0.0180997
0.000126207
0.0179981
8.10878e-05
0.0178962
3.89185e-05
0.0177948
-2.14178e-07
0.0176945
-3.68152e-05
0.0175958
-7.05846e-05
0.0174989
-0.000101805
0.0174042
-0.000130598
0.0173117
-0.000157097
0.0172215
-0.000181434
0.0171339
-0.000203736
0.0170486
-0.000224125
0.0169659
-0.000242719
0.0168856
-0.000259628
0.0168077
-0.000274956
0.0167323
-0.000288801
0.0166591
-0.000301259
0.0165882
-0.000312418
-0.00032236
0.0188958
0.000444087
-0.0189482
0.0188417
0.000388936
0.0187845
0.000336531
0.0187235
0.000286511
0.0186589
0.000238929
0.0185912
0.000193857
0.0185211
0.000151282
0.0184488
0.000111161
0.0183752
7.34423e-05
0.0183003
3.80429e-05
0.0182248
4.94667e-06
0.018149
-2.59938e-05
0.0180732
-5.48063e-05
0.0179977
-8.16011e-05
0.0179227
-0.000106465
0.0178484
-0.000129487
0.0177751
-0.000150758
0.0177027
-0.000170365
0.0176315
-0.000188394
0.0175615
-0.000204928
0.0174927
-0.000220048
0.0174253
-0.000233832
0.0173592
-0.000246353
-0.000257686
0.0189712
0.000466277
-0.0189934
0.0189448
0.000415342
0.0189143
0.000367024
0.0188797
0.000321118
0.0188412
0.000277396
0.0187993
0.000235801
0.0187542
0.000196322
0.0187065
0.000158927
0.0186563
0.000123575
0.0186042
9.02162e-05
0.0185503
5.87966e-05
0.0184951
2.9258e-05
0.0184387
1.56217e-06
0.0183815
-2.44043e-05
0.0183237
-4.86588e-05
0.0182655
-7.12852e-05
0.0182071
-9.23494e-05
0.0181486
-0.000111918
0.0180903
-0.000130057
0.0180322
-0.000146833
0.0179745
-0.000162308
0.0179172
-0.000176547
0.0178604
-0.000189611
-0.00020156
0.0188993
0.000465558
-0.0188986
0.0188946
0.000420005
0.0188851
0.000376554
0.018871
0.000335195
0.0188527
0.000295669
0.0188307
0.000257887
0.0188051
0.000221851
0.0187765
0.000187559
0.0187451
0.000154988
0.0187112
0.000124106
0.0186751
9.48758e-05
0.0186371
6.72609e-05
0.0185975
4.12196e-05
0.0185563
1.67041e-05
0.018514
-6.3285e-06
0.0184707
-2.79328e-05
0.0184265
-4.81549e-05
0.0183816
-6.70475e-05
0.0183362
-8.46625e-05
0.0182904
-0.000101051
0.0182444
-0.000116266
0.0181982
-0.000130357
0.018152
-0.000143376
-0.000155371
0.0187541
0.000449277
-0.0187378
0.0187648
0.000409359
0.0187703
0.000371004
0.0187712
0.000334313
0.0187678
0.000299073
0.0187605
0.00026521
0.0187496
0.00023275
0.0187354
0.000201713
0.0187183
0.000172101
0.0186985
0.000143899
0.0186763
0.00011709
0.0186519
9.16532e-05
0.0186256
6.75626e-05
0.0185975
4.47891e-05
0.0185678
2.32998e-05
0.0185368
3.06137e-06
0.0185047
-1.59681e-05
0.0184714
-3.38227e-05
0.0184373
-5.05438e-05
0.0184024
-6.61721e-05
0.0183669
-8.07485e-05
0.0183309
-9.43146e-05
0.0182944
-0.000106911
-0.00011858
0.0185826
0.000423501
-0.0185568
0.018603
0.000388938
0.0186185
0.00035546
0.0186296
0.000323239
0.0186365
0.000292126
0.0186397
0.000262074
0.0186393
0.000233127
0.0186357
0.000205323
0.0186291
0.00017868
0.0186198
0.000153201
0.018608
0.000128884
0.018594
0.000105722
0.0185778
8.37028e-05
0.0185598
6.28098e-05
0.0185401
4.3023e-05
0.0185188
2.43189e-05
0.0184962
6.67156e-06
0.0184723
-9.94745e-06
0.0184473
-2.55677e-05
0.0184214
-4.02204e-05
0.0183946
-5.39377e-05
0.018367
-6.67526e-05
0.0183388
-7.86985e-05
-8.98089e-05
0.0184102
0.000392417
-0.0183791
0.0184364
0.000362667
0.0184582
0.000333642
0.0184759
0.000305541
0.0184898
0.000278265
0.0185001
0.000251797
0.018507
0.000226186
0.0185109
0.000201484
0.0185118
0.000177717
0.0185101
0.000154903
0.018506
0.000133049
0.0184995
0.00011216
0.018491
9.22337e-05
0.0184805
7.32635e-05
0.0184683
5.52393e-05
0.0184545
3.81473e-05
0.0184392
2.19701e-05
0.0184226
6.68851e-06
0.0184047
-7.71921e-06
0.0183858
-2.12765e-05
0.0183658
-3.40075e-05
0.018345
-4.59386e-05
0.0183234
-5.70961e-05
-6.75069e-05
0.0182488
0.000358554
-0.0182149
0.0182784
0.00033304
0.018304
0.000308003
0.0183259
0.000283634
0.0183443
0.000259872
0.0183594
0.000236717
0.0183714
0.000214223
0.0183804
0.000192442
0.0183867
0.000171412
0.0183905
0.000151154
0.0183918
0.000131684
0.018391
0.000113014
0.0183881
9.515e-05
0.0183832
7.80922e-05
0.0183766
6.18376e-05
0.0183684
4.63796e-05
0.0183587
3.17081e-05
0.0183475
1.78108e-05
0.0183352
4.67256e-06
0.0183216
-7.72338e-06
0.018307
-1.93954e-05
0.0182914
-3.03633e-05
0.018275
-4.06479e-05
-5.02709e-05
0.0181027
0.000323316
-0.0180675
0.0181343
0.000301526
0.0181622
0.000280046
0.0181868
0.000259046
0.0182082
0.000238488
0.0182265
0.000218381
0.018242
0.00019878
0.0182547
0.000179737
0.0182648
0.000161289
0.0182725
0.000143463
0.0182779
0.000126281
0.0182811
0.000109756
0.0182824
9.39e-05
0.0182818
7.87189e-05
0.0182794
6.42149e-05
0.0182754
5.03864e-05
0.0182699
3.72282e-05
0.0182629
2.47339e-05
0.0182547
1.28933e-05
0.0182453
1.69512e-06
0.0182348
-8.87428e-06
0.0182233
-1.88298e-05
0.0182108
-2.81871e-05
-3.69634e-05
0.017973
0.000287446
-0.0179371
0.0180056
0.000268955
0.0180349
0.000250662
0.0180613
0.000232712
0.0180847
0.000215081
0.0181053
0.000197783
0.0181232
0.000180869
0.0181385
0.000164388
0.0181515
0.000148376
0.0181621
0.000132862
0.0181705
0.000117867
0.0181768
0.000103409
0.0181812
8.95014e-05
0.0181838
7.61536e-05
0.0181846
6.33708e-05
0.0181839
5.11551e-05
0.0181816
3.95058e-05
0.0181779
2.84194e-05
0.0181729
1.78905e-05
0.0181667
7.91126e-06
0.0181593
-1.52748e-06
0.0181509
-1.04367e-05
0.0181416
-1.88283e-05
-2.67154e-05
0.0178591
0.00025133
-0.017823
0.0178923
0.000235791
0.0179226
0.000220377
0.0179501
0.000205207
0.0179749
0.000190265
0.0179971
0.000175566
0.0180168
0.000161157
0.0180341
0.000147081
0.0180491
0.000133372
0.0180619
0.000120056
0.0180727
0.000107156
0.0180814
9.46896e-05
0.0180882
8.26713e-05
0.0180932
7.11117e-05
0.0180966
6.00183e-05
0.0180984
4.9395e-05
0.0180986
3.92439e-05
0.0180975
2.95646e-05
0.018095
2.0354e-05
0.0180913
1.16077e-05
0.0180865
3.31944e-06
0.0180805
-4.51842e-06
0.0180736
-1.19147e-05
-1.88794e-05
0.0177606
0.000215169
-0.0177244
0.0177941
0.000202306
0.0178249
0.000189517
0.0178532
0.0001769
0.017879
0.000164445
0.0179024
0.000152167
0.0179235
0.000140104
0.0179423
0.000128295
0.0179589
0.000116769
0.0179734
0.000105551
0.0179859
9.46616e-05
0.0179965
8.41173e-05
0.0180052
7.39324e-05
0.0180122
6.41178e-05
0.0180175
5.46816e-05
0.0180213
4.56293e-05
0.0180236
3.69641e-05
0.0180245
2.86871e-05
0.018024
2.07978e-05
0.0180223
1.32935e-05
0.0180195
6.17045e-06
0.0180155
-5.76514e-07
0.0180106
-6.95384e-06
-1.29687e-05
0.0176768
0.000179071
-0.0176407
0.0177104
0.000168659
0.0177417
0.000158289
0.0177705
0.00014804
0.0177971
0.000137904
0.0178213
0.000127894
0.0178434
0.000118043
0.0178633
0.000108382
0.0178812
9.89371e-05
0.017897
8.97283e-05
0.0179109
8.07739e-05
0.0179229
7.2089e-05
0.0179331
6.36865e-05
0.0179417
5.5577e-05
0.0179486
4.77675e-05
0.017954
4.02647e-05
0.0179578
3.30718e-05
0.0179603
2.61911e-05
0.0179615
1.96231e-05
0.0179614
1.33665e-05
0.0179602
7.41973e-06
0.0179578
1.77854e-06
0.0179544
-3.56065e-06
-8.60359e-06
0.0176074
0.000143082
-0.0175714
0.0176411
0.000134943
0.0176726
0.000126828
0.0177018
0.000118797
0.0177289
0.000110843
0.0177538
0.000102978
0.0177766
9.52274e-05
0.0177974
8.76159e-05
0.0178161
8.01642e-05
0.017833
7.28891e-05
0.017848
6.58054e-05
0.0178611
5.8926e-05
0.0178725
5.22615e-05
0.0178823
4.58208e-05
0.0178905
3.96109e-05
0.0178971
3.36371e-05
0.0179023
2.79031e-05
0.017906
2.24113e-05
0.0179085
1.71627e-05
0.0179097
1.21574e-05
0.0179097
7.39396e-06
0.0179086
2.87044e-06
0.0179065
-1.41614e-06
-5.46947e-06
0.0175521
0.000107207
-0.0175162
0.0175858
0.000101206
0.0176174
9.52198e-05
0.017647
8.92892e-05
0.0176744
8.34114e-05
0.0176998
7.75943e-05
0.0177231
7.18558e-05
0.0177445
6.62153e-05
0.017764
6.06876e-05
0.0177816
5.52854e-05
0.0177974
5.00203e-05
0.0178114
4.49014e-05
0.0178238
3.99377e-05
0.0178344
3.5136e-05
0.0178436
3.05016e-05
0.0178511
2.60389e-05
0.0178573
2.17516e-05
0.0178621
1.76414e-05
0.0178655
1.37095e-05
0.0178677
9.95636e-06
0.0178687
6.38134e-06
0.0178686
2.98326e-06
0.0178674
-2.39759e-07
-3.29017e-06
0.0175108
7.14308e-05
-0.017475
0.0175445
6.74685e-05
0.0175762
6.35173e-05
0.0176059
5.96043e-05
0.0176336
5.57255e-05
0.0176593
5.18852e-05
0.0176831
4.80953e-05
0.0177049
4.43677e-05
0.0177249
4.07123e-05
0.017743
3.71376e-05
0.0177594
3.36509e-05
0.0177741
3.02588e-05
0.017787
2.6967e-05
0.0177984
2.37803e-05
0.0178082
2.07026e-05
0.0178165
1.77369e-05
0.0178233
1.48856e-05
0.0178288
1.21502e-05
0.017833
9.53169e-06
0.0178359
7.03052e-06
0.0178377
4.6465e-06
0.0178383
2.37896e-06
0.0178378
2.26827e-07
-1.81139e-06
0.0174834
3.5722e-05
-0.0174477
0.0175172
3.37369e-05
0.0175489
3.17673e-05
0.0175787
2.98203e-05
0.0176065
2.78916e-05
0.0176325
2.59822e-05
0.0176564
2.40981e-05
0.0176786
2.22446e-05
0.0176989
2.04264e-05
0.0177173
1.86478e-05
0.0177341
1.6912e-05
0.0177491
1.52225e-05
0.0177625
1.35825e-05
0.0177743
1.19939e-05
0.0177845
1.04591e-05
0.0177933
8.97924e-06
0.0178006
7.55581e-06
0.0178066
6.18991e-06
0.0178112
4.88172e-06
0.0178146
3.63173e-06
0.0178168
2.43955e-06
0.0178179
1.30515e-06
0.0178179
2.28305e-07
-7.92094e-07
0.0174699
-0.0174342
0.0175037
0.0175354
0.0175652
0.0175931
0.0176191
0.0176432
0.0176655
0.0176859
0.0177045
0.0177214
0.0177367
0.0177503
0.0177622
0.0177727
0.0177817
0.0177892
0.0177954
0.0178003
0.0178039
0.0178064
0.0178077
0.0178079
0.0116161
-0.017247
0.0116699
-0.0180565
0.0114174
-0.0184089
0.0109341
-0.0184649
0.010307
-0.0183664
0.00960594
-0.0181975
0.00887481
-0.0180067
0.00813873
-0.0178207
0.00740994
-0.0176503
0.00669292
-0.0174979
0.00598832
-0.0173629
0.00529531
-0.0172441
0.00461256
-0.0171403
0.00393864
-0.0170505
0.0032721
-0.0169742
0.00261151
-0.0169108
0.00195544
-0.0168602
0.00130245
-0.016822
0.000651071
-0.0167964
-0.0167831
0.0113263
-0.0175027
0.0111423
-0.0178726
0.0106935
-0.01796
0.01009
-0.0178614
0.00941264
-0.017689
0.00871456
-0.0174994
0.00802137
-0.0173135
0.00734205
-0.0171414
0.00667841
-0.0169866
0.00602949
-0.016849
0.00539348
-0.0167269
0.00476857
-0.0166192
0.0041532
-0.0165249
0.00354592
-0.0164432
0.00294543
-0.0163737
0.00235043
-0.0163158
0.00175965
-0.0162694
0.00117182
-0.0162342
0.000585656
-0.0162102
-0.0161975
0.0104696
-0.0174251
0.0100953
-0.0174983
0.00956172
-0.0174264
0.00896193
-0.0172616
0.00833793
-0.017065
0.00771227
-0.0168738
0.00709663
-0.0166979
0.00649467
-0.0165394
0.00590645
-0.0163984
0.00533101
-0.0162735
0.00476705
-0.0161629
0.00421322
-0.0160654
0.00366821
-0.0159799
0.00313077
-0.0159058
0.00259973
-0.0158426
0.00207391
-0.01579
0.00155217
-0.0157477
0.00103336
-0.0157154
0.000516322
-0.0156932
-0.0156812
0.00935472
-0.0171457
0.00890904
-0.0170526
0.00837167
-0.0168891
0.00780374
-0.0166936
0.00723451
-0.0164958
0.00667552
-0.0163148
0.00613191
-0.0161543
0.00560459
-0.0160121
0.00509209
-0.0158859
0.00459247
-0.0157739
0.00410398
-0.0156745
0.00362511
-0.0155865
0.00315454
-0.0155093
0.00269108
-0.0154423
0.00223361
-0.0153852
0.0017811
-0.0153375
0.0013325
-0.015299
0.000886787
-0.0152697
0.000442944
-0.0152493
-0.0152382
0.00804321
-0.0167609
0.00757581
-0.0165852
0.00706973
-0.016383
0.00655976
-0.0161837
0.0060635
-0.0159995
0.00558489
-0.0158361
0.00512348
-0.0156929
0.00467774
-0.0155664
0.00424567
-0.0154539
0.00382537
-0.0153536
0.0034153
-0.0152644
0.00301413
-0.0151853
0.00262072
-0.0151159
0.00223399
-0.0150556
0.00185293
-0.0150041
0.00147658
-0.0149611
0.00110403
-0.0149265
0.000734362
-0.0149
0.00036665
-0.0148816
-0.0148716
0.00661679
-0.016346
0.00617213
-0.0161406
0.00572326
-0.0159341
0.00528653
-0.0157469
0.00486958
-0.0155826
0.00447257
-0.0154391
0.00409311
-0.0153134
0.00372884
-0.0152021
0.00337767
-0.0151027
0.00303779
-0.0150137
0.00270769
-0.0149343
0.00238608
-0.0148637
0.00207184
-0.0148016
0.00176394
-0.0147477
0.00146143
-0.0147016
0.00116344
-0.0146631
0.000869122
-0.0146322
0.00057766
-0.0146085
0.000288231
-0.0145922
-0.0145833
0.0051298
-0.0159465
0.004732
-0.0157428
0.00435071
-0.0155528
0.00399216
-0.0153884
0.00365715
-0.0152476
0.00334312
-0.0151251
0.00304669
-0.015017
0.00276505
-0.0149204
0.00249598
-0.0148336
0.00223771
-0.0147554
0.00198878
-0.0146853
0.00174794
-0.0146229
0.0015141
-0.0145678
0.00128629
-0.0145199
0.00106362
-0.0144789
0.000845266
-0.0144448
0.000630469
-0.0144174
0.000418492
-0.0143966
0.000208596
-0.0143823
-0.0143747
0.00361783
-0.0155875
0.00328088
-0.0154058
0.0029733
-0.0152453
0.00269506
-0.0151101
0.00244245
-0.0149949
0.00221102
-0.0148937
0.00199699
-0.0148029
0.00179749
-0.0147209
0.00161032
-0.0146464
0.0014337
-0.0145788
0.00126614
-0.0145178
0.00110639
-0.0144632
0.000953364
-0.0144148
0.000806092
-0.0143726
0.000663722
-0.0143365
0.000525481
-0.0143066
0.000390663
-0.0142826
0.0002586
-0.0142645
0.000128625
-0.0142523
-0.0142461
0.00210745
-0.0152834
0.00183853
-0.0151369
0.00160648
-0.0150132
0.0014079
-0.0149116
0.00123665
-0.0148237
0.00108635
-0.0147434
0.000953152
-0.0146697
0.000834866
-0.0146027
0.000728963
-0.0145405
0.000633509
-0.0144834
0.00054693
-0.0144312
0.000467916
-0.0143841
0.00039536
-0.0143422
0.000328305
-0.0143055
0.000265916
-0.0142742
0.000207452
-0.0142481
0.000152247
-0.0142274
9.96938e-05
-0.0142119
4.91877e-05
-0.0142018
-0.0141969
0.000610314
-0.0150362
0.000410016
-0.0149366
0.000253419
-0.0148566
0.000132198
-0.0147903
3.85735e-05
-0.0147301
-3.09778e-05
-0.0146738
-8.13234e-05
-0.0146194
-0.00011782
-0.0145662
-0.000142514
-0.0145158
-0.000157214
-0.0144687
-0.000163434
-0.014425
-0.000162444
-0.0143851
-0.000155333
-0.0143493
-0.000143037
-0.0143178
-0.000126368