4 	-3.95101 	3.46945e-18 	1.22401 	0.000379745 	0
4 	-3.85303 	3.46945e-18 	1.2242 	0.00114165 	0
4 	-3.75506 	2.08167e-18 	1.22457 	0.00191078 	0
4 	-3.65708 	2.42861e-18 	1.22513 	0.00269204 	0
4 	-3.5591 	4.16334e-18 	1.22587 	0.00349036 	0
4 	-3.46112 	2.77556e-18 	1.22679 	0.00431062 	0
4 	-3.36314 	-3.46945e-19 	1.22789 	0.00515768 	0
4 	-3.26517 	-2.08167e-18 	1.22917 	0.00603645 	0
4 	-3.16719 	-2.08167e-18 	1.23062 	0.00695182 	0
4 	-3.06921 	-2.08167e-18 	1.23224 	0.00790868 	0
4 	-2.97123 	-3.46945e-19 	1.23402 	0.00891192 	0
4 	-2.87325 	1.38778e-18 	1.23596 	0.00996638 	0
4 	-2.77528 	1.38778e-18 	1.23805 	0.0110769 	0
4 	-2.6773 	-3.46945e-19 	1.24029 	0.0122481 	0
4 	-2.57932 	-3.46945e-19 	1.24267 	0.0134846 	0
4 	-2.48134 	1.38778e-18 	1.24518 	0.0147907 	0
4 	-2.38336 	1.38778e-18 	1.24783 	0.0161706 	0
4 	-2.28539 	1.38778e-18 	1.25061 	0.017628 	0
4 	-2.18741 	1.38778e-18 	1.25353 	0.0191667 	0
4 	-2.08943 	1.38778e-18 	1.2566 	0.0207902 	0
4 	-1.99145 	1.38778e-18 	1.25981 	0.0225027 	0
4 	-1.89347 	1.38778e-18 	1.26314 	0.0243091 	0
4 	-1.7955 	1.38778e-18 	1.26648 	0.026216 	0
4 	-1.69752 	1.38778e-18 	1.26956 	0.0282338 	0
4 	-1.59954 	3.1225e-18 	1.27178 	0.0303799 	0
4 	-1.50156 	4.85723e-18 	1.27182 	0.0326729 	0
4 	-1.40358 	4.85723e-18 	1.26705 	0.0351771 	0
4 	-1.30561 	4.85723e-18 	1.25267 	0.037842 	0
4 	-1.20763 	4.51028e-18 	1.22152 	0.0410469 	0
4 	-1.10965 	1.04083e-18 	1.1651 	0.0424411 	0
4 	-1.04542 	-3.46945e-18 	1.10729 	0.0454476 	6.55294e-22
4 	-1.0147 	-7.76824e-18 	1.07157 	0.0462641 	-3.04006e-20
4 	-0.983543 	-5.2012e-18 	1.03161 	0.0467607 	-4.00487e-21
4 	-0.951948 	-1.71115e-18 	0.987617 	0.0470119 	-1.62692e-20
4 	-0.928914 	-1.94291e-18 	0.93992 	0.046928 	-4.21072e-21
4 	-0.912798 	-9.33325e-20 	0.938281 	0.044095 	2.01716e-20
4 	-0.887488 	-1.73472e-18 	0.88653 	0.0437155 	-5.41115e-21
4 	-0.854642 	-3.46945e-18 	0.831915 	0.0429908 	6.07813e-21
4 	-0.8214 	-6.40567e-18 	0.774943 	0.0419231 	6.95793e-21
4 	-0.787774 	-9.63346e-18 	0.716147 	0.0405231 	5.7866e-21
4 	-0.753776 	-9.18428e-18 	0.656069 	0.0388105 	-9.21497e-21
4 	-0.731907 	-8.07525e-18 	0.595237 	0.0368123 	-4.61184e-21
4 	-0.714639 	-7.32293e-18 	0.589875 	0.0344128 	7.801e-21
4 	-0.684714 	-3.46945e-18 	0.528358 	0.0322239 	-3.69098e-21
4 	-0.649678 	0 	0.467155 	0.0298204 	-9.64305e-21
4 	-0.614324 	5.58548e-19 	0.406698 	0.0272443 	-2.28168e-21
4 	-0.578667 	2.07135e-18 	0.347381 	0.0245387 	-3.12144e-21
4 	-0.542723 	6.39841e-18 	0.289557 	0.0217467 	3.16475e-21
4 	-0.506508 	1.3047e-17 	0.233552 	0.0189092 	4.30662e-21
4 	-0.470037 	1.71594e-17 	0.179669 	0.016064 	-9.0329e-22
4 	-0.4486 	1.74349e-17 	0.128203 	0.0132449 	3.4328e-21
4 	-0.430188 	1.74574e-17 	0.121999 	0.0115694 	-1.17358e-20
4 	-0.396401 	1.45717e-17 	0.0734324 	0.00888861 	4.25553e-21
4 	-0.35927 	9.36751e-18 	0.0279048 	0.00629198 	9.56396e-22
4 	-0.321954 	5.89806e-18 	-0.0142961 	0.00379568 	1.32837e-22
4 	-0.284472 	5.89806e-18 	-0.0528783 	0.00138469 	-2.07195e-21
4 	-0.246843 	5.89806e-18 	-0.0875396 	-0.000859397 	-8.20814e-22
4 	-0.209085 	3.1225e-18 	-0.118031 	-0.00291486 	9.50011e-22
4 	-0.171219 	2.82508e-18 	-0.144024 	-0.00487181 	8.94203e-22
4 	-0.133263 	6.32035e-18 	-0.165278 	-0.00672485 	-1.60046e-21
4 	-0.0952381 	1.08799e-17 	-0.181571 	-0.00847502 	2.36173e-22
4 	-0.0571629 	1.10573e-17 	-0.192722 	-0.0101405 	-4.15303e-22
4 	-0.0190576 	7.36665e-18 	-0.198601 	-0.0117446 	-3.04457e-23
4 	0.0190576 	-5.41647e-19 	-0.199136 	-0.0133043 	7.00384e-23
4 	0.0571629 	-1.21585e-18 	-0.194316 	-0.0148275 	2.56317e-22
4 	0.0952381 	-1.35622e-19 	-0.184189 	-0.0163314 	-1.42604e-22
4 	0.133263 	1.18715e-19 	-0.168864 	-0.0178411 	1.51294e-21
4 	0.171219 	-8.17836e-19 	-0.148499 	-0.0193767 	-1.02999e-21
4 	0.209085 	3.46945e-19 	-0.123295 	-0.0209537 	-1.13353e-21
4 	0.246843 	4.85723e-18 	-0.0934889 	-0.0225842 	1.6622e-21
4 	0.284472 	6.59195e-18 	-0.0593386 	-0.0242754 	8.61172e-22
4 	0.321954 	8.32667e-18 	-0.0211175 	-0.0260293 	9.94875e-22
4 	0.35927 	1.45717e-17 	0.0208941 	-0.0278435 	-4.4688e-22
4 	0.396401 	1.45717e-17 	0.0664131 	-0.0297105 	-5.97006e-21
4 	0.430188 	1.20329e-17 	0.115156 	-0.031617 	1.2189e-20
4 	0.4486 	1.09695e-17 	0.119229 	-0.0322508 	-2.78791e-21
4 	0.470037 	7.79193e-18 	0.17093 	-0.0342494 	-6.31821e-22
4 	0.506508 	4.72031e-18 	0.225227 	-0.0362415 	-3.78882e-21
4 	0.542723 	2.14834e-18 	0.281802 	-0.0382006 	-3.07738e-21
4 	0.578667 	8.7873e-19 	0.340317 	-0.0400971 	2.61454e-21
4 	0.614324 	2.22822e-18 	0.400406 	-0.0418991 	2.4609e-21
4 	0.649678 	4.16334e-18 	0.461666 	-0.0435734 	1.0135e-20
4 	0.684714 	4.16334e-18 	0.523652 	-0.0450866 	1.17064e-21
4 	0.714639 	3.50654e-18 	0.585881 	-0.0464071 	-4.27999e-21
4 	0.731907 	3.10116e-18 	0.588518 	-0.0473127 	2.79939e-21
4 	0.753776 	2.95878e-18 	0.649991 	-0.0484725 	9.16189e-21
4 	0.787774 	1.20856e-18 	0.710586 	-0.0493882 	-5.65314e-21
4 	0.8214 	9.66901e-19 	0.769746 	-0.050041 	-5.70169e-21
4 	0.854642 	3.81639e-18 	0.826915 	-0.0504178 	-6.16875e-21
4 	0.887488 	4.51028e-18 	0.881556 	-0.0505128 	4.93658e-21
4 	0.912798 	4.77709e-18 	0.93317 	-0.050328 	-1.82291e-20
4 	0.928914 	8.13168e-18 	0.932558 	-0.0514354 	4.72603e-21
4 	0.951948 	9.39108e-18 	0.980124 	-0.0510548 	1.5505e-20
4 	0.983543 	1.0498e-17 	1.02387 	-0.0504026 	3.39752e-21
4 	1.0147 	8.6249e-18 	1.06351 	-0.0496013 	2.81887e-20
4 	1.04542 	2.08167e-18 	1.09887 	-0.0486267 	-5.86725e-22
4 	1.10965 	-2.42861e-18 	1.15607 	-0.0445616 	0
4 	1.20763 	-2.77556e-18 	1.21205 	-0.0420057 	0
4 	1.30561 	-1.04083e-18 	1.24336 	-0.0380214 	0
4 	1.40358 	-6.93889e-19 	1.25836 	-0.0348206 	0
4 	1.50156 	-6.93889e-19 	1.264 	-0.0319315 	0
4 	1.59954 	-6.93889e-19 	1.26488 	-0.0293731 	0
4 	1.69752 	-2.42861e-18 	1.26353 	-0.0270486 	0
4 	1.7955 	-2.42861e-18 	1.26124 	-0.0249171 	0
4 	1.89347 	-2.08167e-18 	1.2586 	-0.0229457 	0
4 	1.99145 	-6.59195e-18 	1.25589 	-0.0211126 	0
4 	2.08943 	-9.71445e-18 	1.25322 	-0.0194028 	0
4 	2.18741 	-9.71445e-18 	1.25062 	-0.0178046 	0
4 	2.28539 	-8.67362e-18 	1.2481 	-0.0163084 	0
4 	2.38336 	-7.63278e-18 	1.24568 	-0.0149064 	0
4 	2.48134 	-6.245e-18 	1.24334 	-0.0135914 	0
4 	2.57932 	-6.59195e-18 	1.24109 	-0.0123569 	0
4 	2.6773 	-8.32667e-18 	1.23895 	-0.0111967 	0
4 	2.77528 	-8.32667e-18 	1.23691 	-0.0101046 	0
4 	2.87325 	-9.71445e-18 	1.23499 	-0.0090748 	0
4 	2.97123 	-1.11022e-17 	1.2332 	-0.00810166 	0
4 	3.06921 	-8.32667e-18 	1.23155 	-0.00717967 	0
4 	3.16719 	-5.55112e-18 	1.23004 	-0.0063035 	0
4 	3.26517 	-5.55112e-18 	1.22868 	-0.00546794 	0
4 	3.36314 	-5.55112e-18 	1.22748 	-0.00466793 	0
4 	3.46112 	-6.93889e-18 	1.22645 	-0.00389852 	0
4 	3.5591 	-6.93889e-18 	1.22557 	-0.00315487 	0
4 	3.65708 	-5.55112e-18 	1.22487 	-0.00243219 	0
4 	3.75506 	-7.28584e-18 	1.22435 	-0.00172577 	0
4 	3.85303 	-7.28584e-18 	1.22399 	-0.00103089 	0
4 	3.95101 	-7.12062e-18 	1.22382 	-0.000342864 	0
