/*--------------------------------*- C++ -*----------------------------------*\
  =========                 |
  \\      /  F ield         | OpenFOAM: The Open Source CFD Toolbox
   \\    /   O peration     | Website:  https://openfoam.org
    \\  /    A nd           | Version:  7
     \\/     M anipulation  |
\*---------------------------------------------------------------------------*/
FoamFile
{
    version     2.0;
    format      ascii;
    class       volScalarField;
    location    "85";
    object      p;
}
// * * * * * * * * * * * * * * * * * * * * * * * * * * * * * * * * * * * * * //

dimensions      [0 2 -2 0 0 0 0];

internalField   nonuniform List<scalar> 
6000
(
-0.210135
-0.210453
-0.211241
-0.231093
-0.212495
-0.231852
-0.214196
-0.232875
-0.216318
-0.242335
-0.234277
-0.218837
-0.244038
-0.236165
-0.221733
-0.246035
-0.238624
-0.224972
-0.248522
-0.241561
-0.228597
-0.25844
-0.251428
-0.244398
-0.233447
-0.26112
-0.254703
-0.247899
-0.238677
-0.264157
-0.258347
-0.251989
-0.244106
-0.267536
-0.262355
-0.256575
-0.249817
-0.271236
-0.266712
-0.261602
-0.255861
-0.275229
-0.27139
-0.267018
-0.262234
-0.279483
-0.276354
-0.272769
-0.268913
-0.283959
-0.281563
-0.278799
-0.275859
-0.290043
-0.288616
-0.286968
-0.285046
-0.28302
-0.294152
-0.293405
-0.292512
-0.291442
-0.290329
-0.298345
-0.298276
-0.298136
-0.297914
-0.297708
-0.190276
-0.180715
-0.17176
-0.162986
-0.154334
-0.145924
-0.137854
-0.130174
-0.122914
-0.116087
-0.109696
-0.103737
-0.098201
-0.0930771
-0.0883513
-0.0840089
-0.0800346
-0.0764133
-0.0731303
-0.0701716
-0.067524
-0.0651756
-0.0631153
-0.0613336
-0.0598218
-0.0585726
-0.0575801
-0.0568391
-0.0563476
-0.0560998
-0.184539
-0.176103
-0.168368
-0.160658
-0.152913
-0.145269
-0.137833
-0.13067
-0.123822
-0.117322
-0.111186
-0.105425
-0.10004
-0.0950308
-0.0903899
-0.0861091
-0.0821784
-0.0785866
-0.0753223
-0.0723743
-0.0697315
-0.0673838
-0.0653215
-0.063536
-0.0620198
-0.0607661
-0.0597696
-0.0590255
-0.058532
-0.0582837
-0.179482
-0.172434
-0.165813
-0.158986
-0.15197
-0.144944
-0.138019
-0.131272
-0.12476
-0.118526
-0.112599
-0.107001
-0.101742
-0.0968268
-0.0922561
-0.0880263
-0.0841313
-0.0805636
-0.0773144
-0.0743748
-0.0717356
-0.0693879
-0.0673234
-0.0655344
-0.0640141
-0.0627563
-0.0617561
-0.0610092
-0.0605136
-0.0602649
-0.175189
-0.169637
-0.164052
-0.157985
-0.151573
-0.14504
-0.138516
-0.132089
-0.125831
-0.119796
-0.114026
-0.108547
-0.103378
-0.0985297
-0.0940065
-0.0898094
-0.0859356
-0.0823802
-0.0791367
-0.076198
-0.0735562
-0.0712038
-0.0691333
-0.0673377
-0.0658109
-0.0645472
-0.0635419
-0.0627911
-0.0622926
-0.0620429
-0.171736
-0.167523
-0.162832
-0.157413
-0.151507
-0.145375
-0.139166
-0.132985
-0.126919
-0.121035
-0.11538
-0.109988
-0.104884
-0.100083
-0.0955923
-0.0914166
-0.0875555
-0.0840063
-0.0807641
-0.077823
-0.0751767
-0.0728182
-0.0707409
-0.0689384
-0.0674049
-0.0661352
-0.0651249
-0.0643701
-0.0638689
-0.063618
-0.169309
-0.16611
-0.162098
-0.157175
-0.151659
-0.145831
-0.139855
-0.133855
-0.127929
-0.122154
-0.116582
-0.111254
-0.106197
-0.10143
-0.0969642
-0.0928048
-0.0889538
-0.0854098
-0.0821693
-0.0792273
-0.0765782
-0.0742159
-0.0721341
-0.070327
-0.068789
-0.0675152
-0.0665014
-0.065744
-0.0652408
-0.0649892
-0.168112
-0.165559
-0.161971
-0.157344
-0.152065
-0.146422
-0.140584
-0.13469
-0.128847
-0.123137
-0.117616
-0.112327
-0.1073
-0.102556
-0.0981069
-0.0939598
-0.0901174
-0.0865791
-0.083342
-0.0804017
-0.0777529
-0.0753901
-0.0733072
-0.0714986
-0.0699591
-0.0686838
-0.0676687
-0.0669103
-0.0664063
-0.0661544
-0.168289
-0.166055
-0.16261
-0.158047
-0.152823
-0.147218
-0.141406
-0.135531
-0.129705
-0.124008
-0.1185
-0.113222
-0.108205
-0.103469
-0.0990279
-0.0948875
-0.0910508
-0.0875173
-0.0842843
-0.0813474
-0.0787014
-0.0763408
-0.0742597
-0.0724526
-0.0709141
-0.0696397
-0.0686252
-0.0678672
-0.0673636
-0.0671118
-0.169987
-0.167742
-0.164121
-0.159373
-0.154005
-0.14828
-0.142369
-0.136418
-0.130535
-0.124796
-0.119257
-0.113958
-0.108928
-0.104184
-0.0997387
-0.0955973
-0.0917618
-0.0882309
-0.0850014
-0.0820685
-0.0794267
-0.0770702
-0.0749931
-0.0731896
-0.0716544
-0.0703827
-0.0693705
-0.0686142
-0.0681117
-0.0678606
-0.173317
-0.170683
-0.166535
-0.161347
-0.155632
-0.149622
-0.143486
-0.137362
-0.131347
-0.125507
-0.119894
-0.114543
-0.109475
-0.104706
-0.100244
-0.0960935
-0.0922541
-0.0887231
-0.085496
-0.0825672
-0.0799306
-0.0775798
-0.0755084
-0.0737104
-0.0721803
-0.0709131
-0.0699046
-0.0691513
-0.0686507
-0.0684006
-0.178281
-0.174825
-0.169803
-0.163932
-0.157669
-0.151215
-0.144734
-0.138344
-0.132124
-0.12613
-0.120402
-0.114968
-0.10984
-0.105029
-0.100541
-0.0963738
-0.0925262
-0.0889927
-0.0857674
-0.0828432
-0.080213
-0.0778696
-0.0758059
-0.0740155
-0.0724924
-0.0712314
-0.0702282
-0.0694788
-0.0689809
-0.0687323
-0.184789
-0.180039
-0.173821
-0.167042
-0.160037
-0.152995
-0.14606
-0.13932
-0.132832
-0.126636
-0.120755
-0.115218
-0.110009
-0.105144
-0.10062
-0.0964313
-0.0925727
-0.089036
-0.0858129
-0.0828947
-0.0802729
-0.0779391
-0.0758855
-0.074105
-0.0725912
-0.0713384
-0.0703419
-0.0695979
-0.0691036
-0.0688569
-0.19267
-0.186101
-0.178453
-0.17055
-0.162628
-0.154875
-0.147393
-0.140232
-0.133425
-0.126989
-0.120933
-0.11526
-0.109962
-0.105034
-0.100469
-0.0962572
-0.0923872
-0.0888482
-0.0856292
-0.0827195
-0.0801088
-0.0777877
-0.0757472
-0.0739794
-0.0724774
-0.0712351
-0.0702474
-0.0695101
-0.0690204
-0.068776
-0.201704
-0.192736
-0.183499
-0.174287
-0.16531
-0.15675
-0.148645
-0.141009
-0.133845
-0.127143
-0.120891
-0.115075
-0.109678
-0.104684
-0.100078
-0.0958422
-0.0919628
-0.0884244
-0.085213
-0.0823156
-0.07972
-0.0774153
-0.0753915
-0.0736399
-0.0721527
-0.0709234
-0.0699465
-0.0692175
-0.0687335
-0.0684919
-0.211493
-0.199676
-0.188732
-0.178038
-0.167925
-0.158487
-0.149713
-0.141572
-0.13403
-0.127048
-0.120592
-0.114631
-0.109135
-0.104076
-0.0994309
-0.0951766
-0.0912925
-0.0877598
-0.0845613
-0.0816813
-0.0791057
-0.0768221
-0.0748194
-0.0730877
-0.0716187
-0.0704053
-0.0694415
-0.0687227
-0.0682454
-0.0680073
-0.2215
-0.206521
-0.193884
-0.181609
-0.170289
-0.159946
-0.150487
-0.141833
-0.133911
-0.126651
-0.119996
-0.113896
-0.108307
-0.103192
-0.0985157
-0.0942502
-0.0903693
-0.0868497
-0.0836711
-0.0808151
-0.0782658
-0.0760089
-0.0740322
-0.0723249
-0.070878
-0.0696836
-0.0687355
-0.0680287
-0.0675596
-0.0673256
-0.230781
-0.213337
-0.198587
-0.184715
-0.172207
-0.160973
-0.150847
-0.1417
-0.133416
-0.125897
-0.11906
-0.112838
-0.107171
-0.102012
-0.0973181
-0.0930534
-0.0891864
-0.0856899
-0.0825401
-0.0797164
-0.0772006
-0.074977
-0.0730322
-0.0713543
-0.0699336
-0.0687619
-0.0678323
-0.0671397
-0.0666801
-0.0664509
-0.239136
-0.219247
-0.20247
-0.187099
-0.17348
-0.161413
-0.150674
-0.14108
-0.132475
-0.124731
-0.117742
-0.111423
-0.105702
-0.10052
-0.0958256
-0.0915771
-0.087738
-0.0842769
-0.081167
-0.0783852
-0.0759115
-0.0737288
-0.0718222
-0.0701794
-0.0687898
-0.0676445
-0.0667366
-0.0660604
-0.0656118
-0.0653882
-0.246064
-0.223745
-0.205181
-0.188505
-0.173908
-0.161118
-0.149855
-0.139888
-0.131022
-0.123103
-0.116004
-0.109624
-0.103879
-0.0986993
-0.0940272
-0.0898143
-0.0860198
-0.0826087
-0.0795515
-0.0768227
-0.0744008
-0.0722672
-0.0704063
-0.0688046
-0.0674512
-0.0663366
-0.0654536
-0.0647963
-0.0643605
-0.0641432
-0.251059
-0.226452
-0.206445
-0.188707
-0.173314
-0.159954
-0.148291
-0.138047
-0.128998
-0.120969
-0.113814
-0.107417
-0.101684
-0.0965381
-0.0919145
-0.0877599
-0.0840293
-0.0806849
-0.0776947
-0.0750314
-0.0726719
-0.0705967
-0.0687892
-0.0672353
-0.0659235
-0.0648442
-0.0639897
-0.0633538
-0.0629324
-0.0627223
-0.253602
-0.227065
-0.206039
-0.187518
-0.17156
-0.157819
-0.145901
-0.135496
-0.126359
-0.118295
-0.111145
-0.104782
-0.0991047
-0.0940279
-0.0894827
-0.0854115
-0.0817664
-0.0785071
-0.0755996
-0.0730152
-0.0707297
-0.0687227
-0.0669769
-0.0654779
-0.0642136
-0.0631742
-0.0623517
-0.0617401
-0.0613348
-0.0611329
-0.253249
-0.225377
-0.203786
-0.1848
-0.168549
-0.154637
-0.142628
-0.132193
-0.123072
-0.115058
-0.107982
-0.10171
-0.096134
-0.0911652
-0.0867308
-0.0827704
-0.0792338
-0.0760791
-0.073271
-0.0707797
-0.0685804
-0.0666519
-0.0649766
-0.0635396
-0.0623288
-0.0613342
-0.0605477
-0.0599631
-0.0595758
-0.0593829
-0.249756
-0.221272
-0.199583
-0.180481
-0.16423
-0.150372
-0.138445
-0.128118
-0.119125
-0.111249
-0.104319
-0.0981971
-0.0927717
-0.0879516
-0.083662
-0.0798409
-0.0764371
-0.0734074
-0.070716
-0.0683326
-0.0662319
-0.0643925
-0.0627965
-0.0614291
-0.060278
-0.0593331
-0.0585864
-0.0580316
-0.0576642
-0.0574812
-0.24311
-0.21475
-0.193421
-0.174561
-0.158605
-0.145022
-0.133352
-0.123273
-0.114518
-0.106871
-0.100161
-0.0942496
-0.0890245
-0.0843944
-0.0802842
-0.0766315
-0.0733848
-0.0705009
-0.0679438
-0.0656831
-0.0636936
-0.0619539
-0.0604463
-0.059156
-0.0580706
-0.0571804
-0.0564773
-0.0559551
-0.0556095
-0.0554374
-0.233476
-0.205933
-0.185382
-0.16711
-0.151724
-0.138624
-0.127379
-0.117682
-0.109273
-0.101943
-0.0955241
-0.0898817
-0.0849059
-0.0805066
-0.0766098
-0.0731542
-0.0700888
-0.0673711
-0.0649656
-0.0628424
-0.0609765
-0.0593471
-0.0579367
-0.0567307
-0.0557173
-0.0548866
-0.0542308
-0.0537441
-0.053422
-0.0532616
-0.221167
-0.195049
-0.175631
-0.158255
-0.14368
-0.131251
-0.120582
-0.111389
-0.103426
-0.0964939
-0.0904337
-0.0851162
-0.080436
-0.0763063
-0.0726556
-0.0694246
-0.0665638
-0.0640321
-0.0617949
-0.0598233
-0.0580932
-0.0565842
-0.0552795
-0.054165
-0.0532293
-0.0524628
-0.0518581
-0.0514095
-0.0511127
-0.0509649
-0.206618
-0.182403
-0.164395
-0.14817
-0.134605
-0.123002
-0.113039
-0.104458
-0.0970277
-0.0905661
-0.084925
-0.0799831
-0.075641
-0.0718167
-0.0684424
-0.0654617
-0.0628273
-0.0605001
-0.058447
-0.0566405
-0.0550575
-0.0536786
-0.0524877
-0.0514715
-0.0506189
-0.0499211
-0.0493709
-0.0489629
-0.048693
-0.0485587
-0.190328
-0.16835
-0.151941
-0.137063
-0.124653
-0.113999
-0.104847
-0.0969634
-0.0901397
-0.0842106
-0.0790407
-0.0745186
-0.0705523
-0.0670654
-0.0639948
-0.0612875
-0.0588995
-0.0567937
-0.0549392
-0.0533101
-0.0518846
-0.0506447
-0.0495751
-0.0486633
-0.0478991
-0.0472741
-0.0467816
-0.0464165
-0.0461751
-0.046055
-0.172818
-0.153261
-0.138557
-0.125154
-0.113995
-0.104376
-0.0961123
-0.0889927
-0.0828326
-0.0774854
-0.0728297
-0.0687643
-0.0652055
-0.0620835
-0.0593402
-0.0569267
-0.0548024
-0.0529331
-0.0512902
-0.0498495
-0.048591
-0.047498
-0.0465564
-0.0457547
-0.0450835
-0.0445349
-0.0441029
-0.0437829
-0.0435714
-0.0434662
-0.154585
-0.137497
-0.124529
-0.11267
-0.102808
-0.0942753
-0.0869484
-0.0806375
-0.075182
-0.0704537
-0.0663449
-0.0627653
-0.0596397
-0.056905
-0.0545085
-0.052406
-0.0505603
-0.0489403
-0.0475199
-0.0462772
-0.0451939
-0.0442548
-0.0434471
-0.0427603
-0.042186
-0.0417172
-0.0413483
-0.0410752
-0.0408948
-0.040805
-0.136075
-0.121388
-0.11013
-0.0998226
-0.0912616
-0.0838354
-0.0774691
-0.0719917
-0.0672659
-0.0631809
-0.0596419
-0.0565691
-0.0538958
-0.0515656
-0.0495314
-0.0477534
-0.0461984
-0.0448382
-0.0436495
-0.0426127
-0.0417113
-0.0409318
-0.0402629
-0.0396953
-0.0392213
-0.0388349
-0.0385313
-0.0383066
-0.0381583
-0.0380845
-0.11766
-0.105224
-0.0956021
-0.0868081
-0.0795176
-0.0731898
-0.0677846
-0.0631472
-0.0591618
-0.0557326
-0.0527767
-0.0502242
-0.048016
-0.0461025
-0.0444417
-0.0429983
-0.0417429
-0.0406506
-0.0397007
-0.0388759
-0.0381618
-0.0375466
-0.0370204
-0.0365751
-0.0362041
-0.0359024
-0.0356656
-0.0354906
-0.0353752
-0.0353178
-0.0996295
-0.0892494
-0.0811568
-0.073797
-0.0677206
-0.0624609
-0.0579981
-0.0541918
-0.0509445
-0.0481732
-0.0458051
-0.0437789
-0.0420428
-0.040553
-0.0392725
-0.0381704
-0.0372207
-0.0364018
-0.0356956
-0.0350873
-0.0345643
-0.0341167
-0.0337359
-0.0334153
-0.0331494
-0.0329338
-0.0327651
-0.0326407
-0.0325588
-0.0325181
-0.0821891
-0.0736596
-0.0669646
-0.0609332
-0.0559969
-0.0517575
-0.0482033
-0.0452066
-0.0426846
-0.040564
-0.0387807
-0.0372806
-0.0360179
-0.0349543
-0.0340572
-0.0332995
-0.0326589
-0.0321164
-0.0316569
-0.0312675
-0.030938
-0.0306599
-0.0304263
-0.0302319
-0.0300722
-0.0299437
-0.0298438
-0.0297705
-0.0297225
-0.0296986
-0.0654757
-0.0586019
-0.0531549
-0.0483334
-0.0444525
-0.0411734
-0.0384831
-0.0362651
-0.0344471
-0.0329627
-0.0317546
-0.0307745
-0.0299819
-0.0293427
-0.0288283
-0.0284152
-0.028084
-0.0278188
-0.0276067
-0.0274372
-0.0273018
-0.027194
-0.0271082
-0.0270404
-0.0269873
-0.0269463
-0.0269155
-0.0268936
-0.0268795
-0.0268726
-0.0495978
-0.0441644
-0.03982
-0.0360881
-0.0331732
-0.030787
-0.0289094
-0.0274327
-0.0262908
-0.0254223
-0.0247745
-0.0243039
-0.0239736
-0.0237533
-0.0236177
-0.0235464
-0.0235226
-0.0235331
-0.0235673
-0.0236167
-0.0236748
-0.0237366
-0.0237982
-0.0238566
-0.0239098
-0.0239559
-0.023994
-0.0240232
-0.0240429
-0.0240528
-0.0346162
-0.0304098
-0.0270274
-0.0242659
-0.0222272
-0.0206633
-0.0195433
-0.0187661
-0.0182682
-0.0179909
-0.0178847
-0.017909
-0.0180299
-0.0182198
-0.0184562
-0.0187211
-0.0190004
-0.019283
-0.0195604
-0.0198262
-0.0200756
-0.0203052
-0.0205125
-0.0206958
-0.0208541
-0.0209865
-0.0210927
-0.0211724
-0.0212256
-0.0212522
-0.02055
-0.0173802
-0.0148231
-0.012919
-0.0116678
-0.010855
-0.0104366
-0.0103147
-0.0104259
-0.0107121
-0.0111256
-0.0116273
-0.0121854
-0.0127741
-0.0133731
-0.0139666
-0.0145424
-0.0150914
-0.0156072
-0.0160852
-0.0165224
-0.0169167
-0.0172671
-0.0175731
-0.0178346
-0.0180517
-0.0182247
-0.0183541
-0.0184402
-0.0184831
-0.0073949
-0.00509383
-0.00323749
-0.00208387
-0.00153544
-0.00140451
-0.00163193
-0.00212066
-0.00280468
-0.00362503
-0.00453426
-0.00549381
-0.00647268
-0.00744655
-0.00839664
-0.00930876
-0.0101725
-0.0109807
-0.0117284
-0.012413
-0.013033
-0.0135878
-0.0140777
-0.0145032
-0.0148653
-0.0151649
-0.0154031
-0.0155809
-0.015699
-0.0157579
0.00486526
0.00644685
0.00771261
0.00821567
0.00814002
0.00765468
0.00683499
0.00577969
0.00455938
0.00323509
0.00185541
0.000459419
-0.00092215
-0.0022657
-0.0035535
-0.00477262
-0.00591412
-0.00697226
-0.00794392
-0.008828
-0.00962461
-0.0103346
-0.0109593
-0.0115003
-0.0119597
-0.0123391
-0.0126403
-0.0128649
-0.0130139
-0.0130882
0.0162509
0.0172466
0.0180209
0.0179644
0.0173361
0.0162958
0.0149345
0.013355
0.0116343
0.00983648
0.00801238
0.0062024
0.00443761
0.00274138
0.00113084
-0.000382067
-0.00178949
-0.00308693
-0.0042728
-0.00534789
-0.0063138
-0.00717253
-0.00792651
-0.00857841
-0.00913098
-0.00958686
-0.00994844
-0.0102178
-0.0103964
-0.0104855
0.0267801
0.0273135
0.0276866
0.0271519
0.0260356
0.0244969
0.022641
0.0205778
0.0183914
0.01615
0.0139079
0.0117071
0.00957967
0.00754907
0.0056321
0.00384
0.00217985
0.000655292
-0.000733373
-0.00198965
-0.00311644
-0.00411661
-0.0049935
-0.00575069
-0.0063918
-0.00692026
-0.00733911
-0.00765092
-0.00785766
-0.0079607
0.0364623
0.0366551
0.0367103
0.0357699
0.0342244
0.032239
0.0299317
0.0274227
0.0248038
0.0221485
0.0195148
0.0169471
0.0144785
0.012133
0.00992706
0.00787153
0.00597291
0.00423478
0.00265717
0.00123079
-4.76386e-05
-0.00118115
-0.00217378
-0.00302999
-0.00375429
-0.00435088
-0.00482348
-0.00517514
-0.00540825
-0.0055244
0.0452983
0.0452757
0.0450925
0.0438097
0.0418895
0.039504
0.0367852
0.0338657
0.030846
0.0278058
0.0248072
0.0218968
0.0191095
0.0164698
0.0139937
0.0116914
0.00956904
0.00763135
0.00588378
0.00429874
0.00287817
0.00162002
0.000519646
-0.000428565
-0.00123005
-0.0018898
-0.00241219
-0.00280076
-0.00305827
-0.00318656
0.0532844
0.0531738
0.052833
0.0512595
0.0490172
0.0462726
0.0431802
0.0398823
0.0364925
0.0330964
0.0297598
0.0265319
0.0234493
0.0205371
0.017811
0.0152799
0.0129479
0.0108204
0.00893716
0.00720086
0.0056468
0.00427349
0.00307424
0.00204188
0.0011699
0.000452497
-0.000115294
-0.000537516
-0.000817277
-0.000956644
0.0604153
0.060338
0.0599256
0.0581037
0.0555883
0.0525264
0.0490977
0.0454469
0.0417174
0.0379945
0.0343471
0.0308278
0.0274745
0.0243128
0.0213588
0.0186194
0.0160924
0.0137565
0.0118297
0.00992231
0.00824324
0.0067661
0.0054782
0.00437044
0.00343538
0.00266635
0.00205796
0.00160561
0.00130595
0.00115667
0.0666755
0.0667515
0.0663485
0.064322
0.0615784
0.0582432
0.0545241
0.0505237
0.04649
0.0424706
0.038541
0.0347578
0.0311603
0.0277749
0.0246177
0.0216965
0.019013
0.0165703
0.0144059
0.0124212
0.0106485
0.00908433
0.00771992
0.00654664
0.0055565
0.00474245
0.00409856
0.00361993
0.00330289
0.00314498
0.0719971
0.0723894
0.0721209
0.0698424
0.0669634
0.0633669
0.0593641
0.0551141
0.050793
0.046501
0.0423164
0.0382971
0.0344831
0.0309011
0.0275666
0.0244872
0.0216649
0.0191
0.0167936
0.0147138
0.0128579
0.0112196
0.00979051
0.00856176
0.00752503
0.00667288
0.00599896
0.0054981
0.00516638
0.00500116
0.0762335
0.077111
0.0770723
0.0748005
0.0717082
0.0678848
0.0636346
0.0591441
0.0545769
0.0500483
0.0456423
0.041419
0.0374194
0.0336699
0.0301854
0.0269725
0.024032
0.0213607
0.0189518
0.016789
0.0148626
0.0131633
0.0116814
0.0104076
0.00933318
0.00845019
0.00775201
0.00723318
0.0068896
0.00671849
0.0795115
0.0806446
0.0810654
0.0789413
0.0757288
0.071732
0.0672784
0.0625799
0.0578056
0.053079
0.0484887
0.044097
0.0399456
0.0360604
0.0324555
0.0291363
0.0261018
0.0233466
0.0208619
0.0186347
0.0166534
0.0149071
0.0133851
0.0120772
0.0109742
0.010068
0.00935155
0.00881921
0.00846671
0.00829117
0.081271
0.0831487
0.0841127
0.0822097
0.0789575
0.0748469
0.0702395
0.0653761
0.0604383
0.0555567
0.0508238
0.0463034
0.0420377
0.0380519
0.0343592
0.0309633
0.0278621
0.0250483
0.022512
0.0202408
0.0182221
0.016444
0.014895
0.0135644
0.0124426
0.011521
0.0107925
0.0102513
0.00989293
0.00971447
0.0816553
0.0845596
0.0861059
0.0845267
0.0813196
0.0771582
0.0724536
0.0674784
0.0624289
0.0574422
0.0526143
0.0480103
0.0436723
0.039625
0.0358801
0.0324403
0.0293019
0.0264565
0.0238933
0.0215994
0.019562
0.0177682
0.0162062
0.0148647
0.0137339
0.0128051
0.012071
0.0115256
0.0111645
0.0109847
0.0803448
0.0846468
0.0869303
0.0858005
0.0827307
0.0785878
0.0738508
0.0688273
0.0637274
0.0586945
0.0538267
0.0491904
0.0448274
0.0407617
0.037004
0.0335557
0.0304119
0.0275636
0.0249989
0.0227048
0.020668
0.0188754
0.0173147
0.0159747
0.0148452
0.0139175
0.0131842
0.0126395
0.0122788
0.0120992
0.0776023
0.0833504
0.0865068
0.0859462
0.0831058
0.0790542
0.0743575
0.0693594
0.0642822
0.0592719
0.0544281
0.0498177
0.0454828
0.0414466
0.0377188
0.0343003
0.0311852
0.028364
0.0258245
0.0235535
0.0215374
0.0197633
0.0182188
0.0168926
0.0157748
0.0148566
0.0141308
0.0135916
0.0132346
0.0130568
0.0735655
0.0806984
0.0847851
0.0848875
0.0823606
0.0784737
0.0738968
0.0690096
0.0640403
0.0591333
0.0543871
0.049869
0.0456213
0.0416671
0.0380158
0.034668
0.0316176
0.0288551
0.0263683
0.0241442
0.0221695
0.0204315
0.0189181
0.0176185
0.0165228
0.0156226
0.0149109
0.0143821
0.014032
0.0138576
0.0684067
0.0767602
0.0817406
0.082553
0.0804113
0.0767616
0.0723913
0.0677126
0.0629509
0.0582406
0.0536763
0.0493252
0.0452301
0.0414151
0.0378902
0.0346565
0.0317085
0.0290373
0.0266314
0.0244785
0.0225661
0.020882
0.0194148
0.0181542
0.017091
0.0162172
0.0155261
0.0150125
0.0146723
0.0145029
0.0622753
0.0716155
0.0773669
0.0788742
0.0771719
0.0738326
0.0697648
0.065407
0.0609678
0.0565613
0.0522741
0.048173
0.0443023
0.040688
0.0373423
0.034268
0.0314613
0.0289148
0.0266183
0.024561
0.0227316
0.0211189
0.0197128
0.0185036
0.017483
0.0166438
0.0159797
0.0154859
0.0151588
0.0149958
0.0552673
0.0653231
0.0716563
0.0737818
0.0725538
0.0696031
0.0659469
0.0620392
0.0580537
0.0540721
0.0501683
0.0464078
0.0428384
0.0394899
0.0363785
0.0335101
0.0308842
0.0284958
0.0263372
0.0243995
0.0226733
0.0211493
0.0198185
0.0186727
0.0177045
0.0169075
0.0162765
0.0158069
0.0154957
0.0153407
0.0474079
0.0578903
0.0645815
0.0672041
0.0664679
0.0639952
0.0608787
0.0575706
0.0541864
0.0507636
0.0473587
0.0440361
0.0408487
0.0378333
0.035012
0.0323965
0.0299905
0.027793
0.0257998
0.0240049
0.0224015
0.0209824
0.0197406
0.0186693
0.0177627
0.0170154
0.016423
0.0159819
0.0156894
0.0155436
0.0386397
0.0492575
0.0560784
0.0590632
0.0588316
0.0569454
0.0545219
0.0519846
0.0493648
0.0466456
0.0438619
0.0410777
0.0383549
0.03574
0.0332645
0.0309474
0.028799
0.0268239
0.0250222
0.023392
0.0219295
0.0206304
0.01949
0.0185037
0.017667
0.0169761
0.0164276
0.0160187
0.0157472
0.0156119
0.0288169
0.0392933
0.0460425
0.0492781
0.0495817
0.0484187
0.0468723
0.0452972
0.043617
0.0417523
0.0397143
0.0375693
0.035392
0.033243
0.0311659
0.0291902
0.0273347
0.0256107
0.0240245
0.0225785
0.0212733
0.0201078
0.0190801
0.0181878
0.0174286
0.0167999
0.0162998
0.0159264
0.0156783
0.0155544
0.0177112
0.0278078
0.0343449
0.0377811
0.0386938
0.0384271
0.0379743
0.0375683
0.0370079
0.0361479
0.034976
0.0335655
0.0320093
0.0303861
0.0287554
0.0271596
0.0256281
0.0241807
0.0228305
0.021586
0.0204521
0.0194317
0.0185261
0.0177357
0.0170601
0.0164988
0.0160509
0.0157158
0.0154928
0.0153814
0.00504085
0.0145883
0.0208698
0.0245487
0.0262083
0.0270542
0.0279365
0.0289117
0.0296462
0.0299303
0.0297328
0.029141
0.0282713
0.0272251
0.0260811
0.0248972
0.0237154
0.0225652
0.021468
0.0204385
0.0194872
0.0186211
0.0178453
0.0171629
0.016576
0.0160859
0.0156933
0.0153986
0.0152021
0.0151039
-0.00946967
-0.000535245
0.00557235
0.00964421
0.012261
0.0144758
0.0169445
0.0195029
0.0216879
0.0232329
0.0240967
0.0243895
0.0242569
0.0238265
0.0231993
0.0224512
0.0216377
0.0207999
0.0199677
0.0191631
0.0184022
0.0176971
0.0170563
0.0164863
0.0159916
0.0155754
0.0152403
0.0149877
0.0148188
0.0147341
-0.0259981
-0.0176067
-0.0114557
-0.0067377
-0.00289119
0.000976797
0.00526822
0.00958098
0.0133357
0.0162221
0.0182035
0.0194224
0.0200574
0.020266
0.0201734
0.0198746
0.0194403
0.0189232
0.0183627
0.0177884
0.0172225
0.0166819
0.0161791
0.0157238
0.0153232
0.0149826
0.0147061
0.0144964
0.0143556
0.0142849
-0.0445211
-0.0364589
-0.0299299
-0.024238
-0.0188514
-0.0130501
-0.0067429
-0.000558021
0.00483118
0.00909128
0.012208
0.0143639
0.0157737
0.0166261
0.0170716
0.0172245
0.0171709
0.0169757
0.0166879
0.0163446
0.0159742
0.0155985
0.0152342
0.014894
0.0145878
0.014323
0.0141053
0.0139387
0.0138261
0.0137694
-0.0647354
-0.0566595
-0.0493496
-0.0423267
-0.0350872
-0.0271201
-0.0186769
-0.0105773
-0.00355831
0.00205061
0.00627637
0.00934618
0.0115119
0.012993
0.0139644
0.0145592
0.0148785
0.0149989
0.0149785
0.014862
0.0146838
0.0144704
0.0142423
0.0140155
0.0138023
0.0136123
0.0134526
0.0133285
0.0132438
0.0132009
-0.0860379
-0.0775092
-0.0690146
-0.0603273
-0.0509619
-0.040688
-0.030088
-0.0201234
-0.0115584
-0.00468639
0.000575961
0.00450156
0.0073777
0.00945232
0.0109218
0.0119366
0.0126115
0.0130335
0.0132694
0.0133707
0.0133774
0.0133204
0.0132238
0.0131066
0.0129836
0.012866
0.0127626
0.0126797
0.0126221
0.0125926
-0.107556
-0.0981157
-0.0880843
-0.0774656
-0.0657911
-0.0531954
-0.0405329
-0.0288552
-0.0189075
-0.0109175
-0.00473506
-4.49676e-05
0.00347126
0.00608488
0.00801002
0.00941173
0.0104156
0.0111181
0.0115935
0.0118992
0.0120798
0.0121703
0.0121983
0.0121851
0.0121476
0.0120989
0.0120491
0.0120056
0.0119738
0.0119571
-0.128251
-0.117474
-0.105658
-0.0929331
-0.0789033
-0.0641187
-0.0496135
-0.0364787
-0.0253813
-0.0164673
-0.00951794
-0.00418201
-0.00011765
0.00296391
0.0052897
0.00703432
0.00833289
0.00928847
0.00998147
0.0104737
0.0108141
0.0110409
0.011184
0.0112674
0.0113096
0.0113251
0.0113254
0.0113188
0.0113112
0.0113065
-0.147033
-0.134538
-0.120851
-0.105949
-0.0897013
-0.0730251
-0.0570284
-0.0427716
-0.0308072
-0.0211982
-0.0136624
-0.00782041
-0.00331508
0.000150432
0.00281094
0.00484725
0.00639923
0.0075754
0.00845959
0.00911755
0.00960096
0.00995008
0.0101973
0.0103682
0.010483
0.0105573
0.0106035
0.0106306
0.0106452
0.0106515
-0.162834
-0.148327
-0.132848
-0.115883
-0.0977461
-0.0796139
-0.0625722
-0.0475637
-0.0350532
-0.0250148
-0.0170943
-0.0108994
-0.0060716
-0.00231285
0.000610782
0.00288158
0.00464222
0.0060027
0.00704942
0.00784956
0.00845712
0.00891314
0.00925189
0.00950036
0.00967961
0.00980639
0.00989371
0.0099511
0.00998571
0.0100019
-0.17461
-0.158112
-0.141039
-0.122401
-0.102809
-0.083673
-0.066091
-0.0507956
-0.0381033
-0.0278861
-0.0197761
-0.0133804
-0.00834761
-0.00438898
-0.0012755
0.00117219
0.00309402
0.00460006
0.00577672
0.00669249
0.00740149
0.00794652
0.00836231
0.00867652
0.00891095
0.00908296
0.00920581
0.0092896
0.00934163
0.00936653
-0.181404
-0.163398
-0.145262
-0.125143
-0.104791
-0.085277
-0.0676488
-0.0524875
-0.0399439
-0.0298024
-0.0216971
-0.0152514
-0.0101326
-0.0060679
-0.0028396
-0.00027593
0.00175843
0.00337057
0.00464539
0.00565051
0.00643984
0.00705646
0.00753511
0.00790357
0.00818398
0.00839384
0.00854671
0.00865288
0.00871972
0.00875199
-0.183133
-0.1641
-0.144928
-0.124304
-0.103837
-0.0845824
-0.0674216
-0.0527771
-0.0406595
-0.0308123
-0.0228838
-0.0165249
-0.0114302
-0.00734824
-0.00407722
-0.00145628
0.000642726
0.00232185
0.00366281
0.00473106
0.00557926
0.00624978
0.00677678
0.00718774
0.00750464
0.00774488
0.00792207
0.00804645
0.00812541
0.00816374
-0.179471
-0.160243
-0.140751
-0.120276
-0.100359
-0.0819319
-0.0656705
-0.0518432
-0.0403749
-0.0309987
-0.0233902
-0.0172355
-0.0122615
-0.0082425
-0.00499499
-0.00237144
-0.000253075
0.00145562
0.00283174
0.00393757
0.00482353
0.00553047
0.00609144
0.00653316
0.00687709
0.00714027
0.00733602
0.00747446
0.00756284
0.00760588
-0.171414
-0.152387
-0.133317
-0.113667
-0.0948864
-0.0777272
-0.0626783
-0.0498889
-0.0392356
-0.0304649
-0.0232891
-0.0174344
-0.0126629
-0.00877592
-0.00561031
-0.00303326
-0.000936764
0.00076695
0.00214935
0.00326864
0.00417228
0.00489892
0.00548006
0.00594123
0.00630302
0.00658184
0.00679058
0.006939
0.00703415
0.00708062
-0.159731
-0.141519
-0.123481
-0.105194
-0.0879801
-0.0723833
-0.058745
-0.0471305
-0.0373992
-0.029326
-0.0226649
-0.0171837
-0.0126797
-0.00898171
-0.00594735
-0.00345927
-0.00142093
0.00024694
0.00160946
0.00272013
0.00362284
0.00435364
0.00494198
0.00541191
0.00578286
0.00607041
0.00628678
0.0064413
0.00654068
0.0065893
-0.145529
-0.128636
-0.112107
-0.0955617
-0.0801748
-0.0662928
-0.0541568
-0.043779
-0.0350233
-0.0277008
-0.0216077
-0.0165518
-0.0123641
-0.00889977
-0.00603663
-0.0036728
-0.00172343
-0.000118096
0.00120159
0.002284
0.00316911
0.00388994
0.00447366
0.00494252
0.00531461
0.00560445
0.00582349
0.00598047
0.0060817
0.00613132
-0.129937
-0.114717
-0.0999916
-0.0853919
-0.0719309
-0.0597959
-0.0491674
-0.0400267
-0.0322568
-0.0257053
-0.0202079
-0.0156093
-0.0117712
-0.00857285
-0.00591141
-0.0036997
-0.00186434
-0.000343717
0.000913698
0.00195095
0.0028039
0.00350234
0.00407091
0.0045299
0.00489588
0.00518218
0.00539935
0.00555548
0.00565639
0.00570591
-0.113942
-0.100592
-0.0877853
-0.0751758
-0.0636115
-0.0531666
-0.0439874
-0.0360404
-0.0292332
-0.023447
-0.0185523
-0.0144263
-0.0109571
-0.00804628
-0.00560814
-0.00356934
-0.00186732
-0.000449054
0.000730275
0.00170839
0.00251693
0.00318238
0.00372673
0.00416821
0.00452173
0.00479936
0.00501066
0.00516298
0.00526164
0.00531013
-0.0983166
-0.0868817
-0.0759644
-0.0652701
-0.0554852
-0.0466158
-0.0387873
-0.0319612
-0.0260702
-0.0210235
-0.0167216
-0.0130687
-0.00997596
-0.00736386
-0.0051623
-0.00331037
-0.00175551
-0.000452731
0.000636342
0.00154426
0.00229854
0.0029223
0.0034349
0.00385243
0.0041881
0.00445266
0.00465464
0.00480061
0.00489533
0.00494191
-0.0835879
-0.0739913
-0.064837
-0.0559068
-0.0477347
-0.0402949
-0.0336964
-0.0279019
-0.0228657
-0.0185195
-0.0147882
-0.0115981
-0.00887961
-0.00656926
-0.00461047
-0.00295337
-0.00155446
-0.000376118
0.000613989
0.00144352
0.00213599
0.0027113
0.00318617
0.00357456
0.003888
0.00413589
0.00432569
0.00446318
0.00455256
0.00459659
-0.0700677
-0.0621519
-0.054582
-0.0472262
-0.0404807
-0.0343131
-0.0288153
-0.0239551
-0.0197032
-0.0160089
-0.0128165
-0.0100698
-0.00771484
-0.00570183
-0.00398554
-0.00252568
-0.00128678
-0.000237863
0.00064791
0.00139364
0.00201908
0.00254106
0.00297377
0.00332911
0.00361695
0.00384533
0.0040207
0.00414802
0.00423093
0.00427178
-0.0578918
-0.0514591
-0.0452768
-0.0392939
-0.0337893
-0.0287373
-0.0242123
-0.0201882
-0.0166472
-0.0135519
-0.0108611
-0.00853265
-0.00652504
-0.00479949
-0.00332041
-0.00205574
-0.000976983
-5.90535e-05
0.000719929
0.00137892
0.00193421
0.00239974
0.00278732
0.00310688
0.0033667
0.00357353
0.0037328
0.00384871
0.00392431
0.00396163
-0.0470894
-0.0419326
-0.0369449
-0.0321401
-0.0277026
-0.0236181
-0.0199435
-0.0166589
-0.013754
-0.0112011
-0.00897017
-0.00702953
-0.00534768
-0.00389471
-0.00264294
-0.00156721
-0.000644988
0.000143675
0.000816277
0.00138805
0.00187215
0.00227988
0.00262083
0.00290311
0.00313348
0.00331749
0.0034596
0.00356325
0.00363097
0.00366438
-0.037608
-0.0335299
-0.0295585
-0.0257529
-0.0222254
-0.0189729
-0.0160364
-0.0134013
-0.011061
-0.00899499
-0.0071813
-0.00559615
-0.00421579
-0.0030175
-0.00198006
-0.00108407
-0.000312072
0.000351482
0.000920272
0.00140625
0.00181977
0.00216974
0.00246375
0.00270824
0.00290856
0.00306915
0.00319353
0.00328449
0.00334403
0.0033735
-0.0293848
-0.026207
-0.0230935
-0.020128
-0.0173711
-0.0148278
-0.0125254
-0.0104533
-0.00860713
-0.0069714
-0.00552998
-0.00426504
-0.00315874
-0.00219393
-0.00135458
-0.000626003
5.05428e-06
0.000550382
0.00102038
0.00142415
0.00176959
0.00206348
0.00231164
0.00251897
0.0026896
0.0028269
0.00293361
0.00301184
0.00306314
0.00308848
-0.0223056
-0.0198758
-0.0174819
-0.0152183
-0.0131109
-0.0111693
-0.00940957
-0.0078237
-0.00640776
-0.00514976
-0.00403761
-0.00305799
-0.00219769
-0.00144402
-0.000785133
-0.000210171
0.000290628
0.000725942
0.0011034
0.00142967
0.00171052
0.00195089
0.00215503
0.00232651
0.00246833
0.00258295
0.00267237
0.00273812
0.00278134
0.00280282
-0.0163249
-0.0145087
-0.0127124
-0.0110298
-0.00946329
-0.00802414
-0.00672011
-0.00554517
-0.00449547
-0.00356159
-0.00273422
-0.00200321
-0.0013587
-0.000791382
-0.000292662
0.000145205
0.000529128
0.000865197
0.00115873
0.00141433
0.00163598
0.00182705
0.00199044
0.00212858
0.00224349
0.00233684
0.00240998
0.00246395
0.00249951
0.00251708
-0.0112962
-0.00998854
-0.00868842
-0.00748549
-0.00636935
-0.00535028
-0.00442972
-0.00360213