/*--------------------------------*- C++ -*----------------------------------*\
  =========                 |
  \\      /  F ield         | OpenFOAM: The Open Source CFD Toolbox
   \\    /   O peration     | Website:  https://openfoam.org
    \\  /    A nd           | Version:  7
     \\/     M anipulation  |
\*---------------------------------------------------------------------------*/
FoamFile
{
    version     2.0;
    format      ascii;
    class       surfaceScalarField;
    location    "85";
    object      phi;
}
// * * * * * * * * * * * * * * * * * * * * * * * * * * * * * * * * * * * * * //

dimensions      [0 3 -1 0 0 0 0];

internalField   nonuniform List<scalar> 
11835
(
0.00197558
0.00252903
0.00167051
0.0022037
0.0013892
0.00187183
0.00129254
0.000963205
0.00113661
0.00154513
0.00101273
0.0007773
0.000914848
0.00123449
0.000756856
0.000620931
0.000723852
0.000947852
0.000398524
0.00042192
0.000528119
0.000491336
0.000562216
0.000689755
0.000221146
0.000333287
0.000327206
0.000385275
0.000428027
0.000461396
6.66789e-05
0.000265288
0.000152858
0.000299096
0.000319695
0.00026119
-6.61151e-05
0.000212921
4.64649e-06
0.000228335
0.000238789
8.55525e-05
-0.000218798
0.000158758
-0.000180567
0.00017469
-0.000130287
0.000178055
0.000174396
-6.58952e-05
-0.000305311
0.000143545
-0.000280092
0.000149471
-0.000245028
0.000142991
0.000126057
-0.000196689
-0.000379879
0.000138292
-0.00036648
0.000136072
-0.000345092
0.000121603
9.44327e-05
-0.000313467
-0.000443794
0.000142027
-0.000441202
0.00013348
-0.000432478
0.000112878
7.84583e-05
-0.000416503
-0.000497753
0.00015385
-0.000504963
0.00014069
-0.000507819
0.000115735
7.66129e-05
-0.000505974
-0.000541945
0.000172802
-0.00055783
0.000156574
-0.000570981
0.000128886
8.71289e-05
-0.000581497
-0.000576183
0.000197797
-0.000599443
0.000179835
-0.000621371
0.000150814
0.000108067
-0.00064231
-0.000600047
0.000227593
-0.000629195
0.000208982
-0.000658157
0.000179776
0.000137337
-0.000687426
-0.000579824
0.000270902
-0.000613017
0.000260786
-0.000646382
0.000242347
-0.000680436
0.00021383
0.0001727
-0.000715799
-0.000579523
0.000305683
-0.000614571
0.000295834
-0.000650328
0.000278104
-0.000687364
0.000250866
0.000211774
-0.000726438
-0.000569011
-0.000604264
-0.000640464
-0.00067823
-0.000718494
0.000662388
0.0123775
-0.000607683
0.000676705
0.0124929
0.000673362
0.0124952
0.000660867
0.0124606
0.000642204
0.0124103
0.00061904
0.0123516
0.000592707
0.0122891
0.000564315
0.0122261
0.000534718
0.0121647
0.000504528
0.0121054
0.000474175
0.0120485
0.00044397
0.0119939
0.000414139
0.0119415
0.000384846
0.0118915
0.0003562
0.0118441
0.000328269
0.0117993
0.000301083
0.0117573
0.000274648
0.0117181
0.000248946
0.0116819
0.000223946
0.0116486
0.000199603
0.0116184
0.000175864
0.0115911
0.000152671
0.0115669
0.000129961
0.0115458
0.000107667
0.0115276
8.57205e-05
0.0115125
6.40524e-05
0.0115004
4.2589e-05
0.0114913
2.12578e-05
0.0114853
0.0114823
0.000628314
0.0123232
-0.000573996
0.000640862
0.0124803
0.000634726
0.0125013
0.000619729
0.0124756
0.000599495
0.0124305
0.000575666
0.0123754
0.000549407
0.0123153
0.000521667
0.0122539
0.000493164
0.0121932
0.000464406
0.0121342
0.000435737
0.0120772
0.0004074
0.0120222
0.000379566
0.0119693
0.000352354
0.0119187
0.00032584
0.0118706
0.000300065
0.0118251
0.000275041
0.0117823
0.000250758
0.0117424
0.00022719
0.0117055
0.000204298
0.0116715
0.000182034
0.0116406
0.000160344
0.0116128
0.000139168
0.0115881
0.000118446
0.0115665
9.81131e-05
0.0115479
7.81049e-05
0.0115325
5.83556e-05
0.0115201
3.87984e-05
0.0115109
1.93618e-05
0.0115047
0.0115017
0.000601477
0.0122738
-0.000552068
0.000610399
0.0124714
0.000600592
0.0125111
0.000582425
0.0124938
0.000559861
0.0124531
0.000534624
0.0124006
0.000507791
0.0123421
0.000480164
0.0122815
0.000452324
0.012221
0.000424656
0.0121619
0.00039741
0.0121044
0.000370747
0.0120489
0.00034477
0.0119953
0.000319543
0.011944
0.0002951
0.011895
0.000271446
0.0118487
0.00024857
0.0118052
0.000226442
0.0117645
0.000205021
0.0117269
0.000184261
0.0116923
0.000164105
0.0116608
0.000144497
0.0116324
0.000125377
0.0116072
0.000106682
0.0115852
8.83511e-05
0.0115663
7.03228e-05
0.0115505
5.25348e-05
0.0115379
3.49248e-05
0.0115285
1.74271e-05
0.0115222
0.0115191
0.000582295
0.0122329
-0.000541467
0.000585052
0.0124687
0.000569984
0.0125262
0.000547603
0.0125162
0.000521953
0.0124787
0.000494721
0.0124279
0.000466846
0.01237
0.000438966
0.0123094
0.000411503
0.0122485
0.000384713
0.0121887
0.000358736
0.0121304
0.00033364
0.012074
0.000309451
0.0120195
0.000286172
0.0119672
0.000263784
0.0119174
0.000242257
0.0118702
0.000221545
0.0118259
0.000201599
0.0117845
0.000182361
0.0117461
0.000163771
0.0117109
0.000145767
0.0116788
0.000128286
0.0116499
0.000111265
0.0116242
9.46444e-05
0.0116018
7.83625e-05
0.0115826
6.23603e-05
0.0115665
4.65796e-05
0.0115537
3.09621e-05
0.0115441
1.54489e-05
0.0115377
0.0115346
0.000569309
0.0122034
-0.000539734
0.000563728
0.0124742
0.000541867
0.0125481
0.000514182
0.0125439
0.000484716
0.0125082
0.000454994
0.0124576
0.000425738
0.0123993
0.000397367
0.0123377
0.000370121
0.0122757
0.000344104
0.0122147
0.000319332
0.0121552
0.000295773
0.0120975
0.000273367
0.0120419
0.000252048
0.0119886
0.000231744
0.0119377
0.000212379
0.0118896
0.000193878
0.0118444
0.000176162
0.0118022
0.000159158
0.0117631
0.000142791
0.0117272
0.000126991
0.0116946
0.000111689
0.0116652
9.68209e-05
0.0116391
8.23244e-05
0.0116163
6.81406e-05
0.0115967
5.42131e-05
0.0115805
4.04869e-05
0.0115674
2.69087e-05
0.0115577
1.34253e-05
0.0115512
0.011548
0.000559807
0.0121866
-0.000543017
0.000544429
0.0124896
0.000514683
0.0125778
0.000480925
0.0125776
0.00044712
0.012542
0.000414576
0.0124901
0.000383741
0.0124301
0.000354773
0.0123667
0.000327697
0.0123028
0.000302447
0.0122399
0.000278903
0.0121787
0.00025692
0.0121195
0.000236349
0.0120625
0.000217051
0.0120079
0.000198894
0.0119559
0.000181758
0.0119067
0.000165532
0.0118606
0.000150113
0.0118176
0.000135406
0.0117778
0.000121323
0.0117413
0.000107786
0.0117081
9.47194e-05
0.0116783
8.20568e-05
0.0116518
6.97357e-05
0.0116286
5.76988e-05
0.0116088
4.58924e-05
0.0115923
3.42659e-05
0.0115791
2.27705e-05
0.0115692
1.13594e-05
0.0115626
0.0115594
0.00055082
0.0121835
-0.000547753
0.000524661
0.0125158
0.000486466
0.012616
0.000446305
0.0126178
0.000407966
0.0125803
0.000372517
0.0125256
0.000340102
0.0124625
0.000310589
0.0123962
0.000283767
0.0123296
0.000259387
0.0122643
0.000237182
0.0122009
0.000216888
0.0121398
0.000198263
0.0120811
0.00018109
0.012025
0.00016518
0.0119718
0.000150367
0.0119216
0.000136503
0.0118745
0.00012346
0.0118306
0.000111124
0.0117902
9.93938e-05
0.0117531
8.8181e-05
0.0117193
7.74072e-05
0.0116891
6.70029e-05
0.0116622
5.6906e-05
0.0116387
4.70613e-05
0.0116186
3.74187e-05
0.0116019
2.79321e-05
0.0115886
1.85583e-05
0.0115785
9.25679e-06
0.0115719
0.0115686
0.000539609
0.0121965
-0.000552552
0.000501798
0.0125536
0.000455032
0.0126628
0.000408562
0.0126642
0.00036587
0.012623
0.00032774
0.0125637
0.000293984
0.0124963
0.000264168
0.012426
0.000237839
0.012356
0.000214556
0.0122876
0.000193898
0.0122216
0.000175483
0.0121582
0.000158974
0.0120976
0.000144081
0.0120399
0.000130555
0.0119853
0.000118185
0.0119339
0.000106791
0.0118859
9.62187e-05
0.0118412
8.63369e-05
0.0118
7.70329e-05
0.0117624
6.82105e-05
0.0117282
5.97873e-05
0.0116975
5.16929e-05
0.0116703
4.38665e-05
0.0116465
3.62557e-05
0.0116262
2.88149e-05
0.0116094
2.15034e-05
0.0115959
1.42841e-05
0.0115858
7.12361e-06
0.0115791
0.0115757
0.000523003
0.0122268
-0.000553334
0.000473217
0.0126034
0.000418169
0.0127178
0.000365877
0.0127165
0.000319381
0.0126695
0.00027911
0.012604
0.00024451
0.0125309
0.00021484
0.0124557
0.000189406
0.0123814
0.000167574
0.0123094
0.000148775
0.0122404
0.00013251
0.0121745
0.000118351
0.0121118
0.000105938
0.0120523
9.49695e-05
0.0119963
8.51922e-05
0.0119437
7.63954e-05
0.0118947
6.84037e-05
0.0118492
6.10702e-05
0.0118074
5.42724e-05
0.0117692
4.79087e-05
0.0117345
4.18949e-05
0.0117035
3.61608e-05
0.011676
3.06484e-05
0.011652
2.53096e-05
0.0116316
2.01041e-05
0.0116146
1.49973e-05
0.011601
9.95988e-06
0.0115908
4.96581e-06
0.011584
0.0115807
0.000497342
0.0122753
-0.000545844
0.000436066
0.0126646
0.000373574
0.0127803
0.00031641
0.0127737
0.000267055
0.0127189
0.000225508
0.0126455
0.000190818
0.0125656
0.000161952
0.0124846
0.000137979
0.0124054
0.000118083
0.0123293
0.000101553
0.0122569
8.7786e-05
0.0121882
7.62727e-05
0.0121233
6.65888e-05
0.012062
5.83864e-05
0.0120045
5.13769e-05
0.0119507
4.53244e-05
0.0119007
4.00358e-05
0.0118545
3.5353e-05
0.0118121
3.11465e-05
0.0117734
2.73125e-05
0.0117384
2.37669e-05
0.011707
2.0442e-05
0.0116793
1.72841e-05
0.0116552
1.42512e-05
0.0116346
1.13095e-05
0.0116175
8.43195e-06
0.0116039
5.59792e-06
0.0115936
2.78957e-06
0.0115869
0.0115835
0.000458753
0.0123422
-0.000525622
0.000387341
0.0127361
0.000318898
0.0128487
0.000258338
0.0128343
0.000207523
0.0127697
0.000165892
0.0126872
0.000132125
0.0125993
0.000104922
0.0125118
8.3135e-05
0.0124272
6.57768e-05
0.0123467
5.20212e-05
0.0122707
4.11719e-05
0.0121991
3.26526e-05
0.0121318
2.59886e-05
0.0120687
2.07902e-05
0.0120097
1.67449e-05
0.0119548
1.35985e-05
0.0119039
1.1145e-05
0.011857
9.21964e-06
0.011814
7.69322e-06
0.0117749
6.46084e-06
0.0117396
5.44087e-06
0.0117081
4.5717e-06
0.0116802
3.80591e-06
0.011656
3.10812e-06
0.0116353
2.45383e-06
0.0116182
1.82547e-06
0.0116045
1.20918e-06
0.0115943
6.01331e-07
0.0115875
0.0115841
0.000404188
0.0124265
-0.00048854
0.00032461
0.0128156
0.000252149
0.0129212
0.000190137
0.0128963
0.00013962
0.0128202
9.93783e-05
0.0127274
6.77885e-05
0.0126309
4.32977e-05
0.0125363
2.45579e-05
0.0124459
1.04571e-05
0.0123608
6.8941e-08
0.0122811
-7.37091e-06
0.0122065
-1.24961e-05
0.0121369
-1.58164e-05
0.012072
-1.77429e-05
0.0120116
-1.86074e-05
0.0119556
-1.86741e-05
0.0119039
-1.81525e-05
0.0118564
-1.72077e-05
0.011813
-1.5969e-05
0.0117736
-1.45348e-05
0.0117382
-1.29791e-05
0.0117065
-1.13565e-05
0.0116786
-9.70527e-06
0.0116543
-8.0503e-06
0.0116336
-6.40676e-06
0.0116165
-4.78187e-06
0.0116029
-3.17627e-06
0.0115927
-1.58629e-06
0.0115859
0.0115825
0.000331131
0.0125262
-0.000430823
0.000245898
0.0129009
0.000171647
0.0129955
0.000110621
0.0129573
6.24351e-05
0.0128684
2.53234e-05
0.0127645
-2.63512e-06
0.0126589
-2.32242e-05
0.0125569
-3.79352e-05
0.0124606
-4.79821e-05
0.0123708
-5.43562e-05
0.0122874
-5.7869e-05
0.01221
-5.91765e-05
0.0121382
-5.88087e-05
0.0120716
-5.71888e-05
0.01201
-5.46524e-05
0.0119531
-5.14637e-05
0.0119007
-4.7829e-05
0.0118528
-4.39072e-05
0.0118091
-3.98189e-05
0.0117696
-3.56534e-05
0.011734
-3.14746e-05
0.0117023
-2.73258e-05
0.0116744
-2.32336e-05
0.0116502
-1.92113e-05
0.0116296
-1.52618e-05
0.0116126
-1.13799e-05
0.011599
-7.55465e-06
0.0115888
-3.76892e-06
0.0115821
0.0115787
0.000236347
0.0126381
-0.000348249
0.000148881
0.0129883
7.60003e-05
0.0130683
1.88407e-05
0.0130145
-2.46787e-05
0.0129119
-5.66772e-05
0.0127965
-7.93969e-05
0.0126816
-9.47798e-05
0.0125722
-0.000104407
0.0124702
-0.000109545
0.012376
-0.000111214
0.0122891
-0.000110241
0.0122091
-0.000107285
0.0121353
-0.000102874
0.0120672
-9.74246e-05
0.0120045
-9.12644e-05
0.0119469
-8.46461e-05
0.0118941
-7.77632e-05
0.0118459
-7.07614e-05
0.0118021
-6.37471e-05
0.0117625
-5.67954e-05
0.011727
-4.99558e-05
0.0116955
-4.3257e-05
0.0116677
-3.67113e-05
0.0116437
-3.03179e-05
0.0116232
-2.40656e-05
0.0116063
-1.79354e-05
0.0115928
-1.19024e-05
0.0115828
-5.93587e-06
0.0115761
0.0115728
0.000118308
0.0127571
-0.000237281
3.09762e-05
0.0130757
-3.58991e-05
0.0131352
-8.60176e-05
0.0130646
-0.000122045
0.0129479
-0.000146747
0.0128212
-0.00016249
0.0126974
-0.00017128
0.012581
-0.000174716
0.0124737
-0.000174062
0.0123753
-0.000170323
0.0122854
-0.000164302
0.0122031
-0.000156638
0.0121276
-0.000147832
0.0120584
-0.000138279
0.011995
-0.000128281
0.0119369
-0.000118069
0.0118839
-0.000107814
0.0118357
-9.76415e-05
0.0117919
-8.76368e-05
0.0117525
-7.78558e-05
0.0117173
-6.83295e-05
0.011686
-5.90689e-05
0.0116585
-5.00691e-05
0.0116347
-4.13127e-05
0.0116145
-3.27725e-05
0.0115978
-2.4414e-05
0.0115845
-1.61968e-05
0.0115746
-8.07563e-06
0.011568
0.0115647
-2.18488e-05
0.0128727
-9.37458e-05
-0.000105857
0.0131597
-0.000163742
0.0131931
-0.000203428
0.0131043
-0.000229358
0.0129739
-0.000244581
0.0128364
-0.000251596
0.0127044
-0.000252402
0.0125818
-0.000248544
0.0124698
-0.000241224
0.012368
-0.000231387
0.0122755
-0.000219776
0.0121914
-0.000206977
0.0121148
-0.000193446
0.0120449
-0.000179532
0.0119811
-0.000165501
0.0119229
-0.000151549
0.01187
-0.000137816
0.0118219
-0.000124398
0.0117785
-0.000111354
0.0117395
-9.87163e-05
0.0117046
-8.64924e-05
0.0116737
-7.46723e-05
0.0116467
-6.32314e-05
0.0116232
-5.21332e-05
0.0116034
-4.13329e-05
0.011587
-3.07787e-05
0.0115739
-2.04136e-05
0.0115642
-1.0176e-05
0.0115578
0.0115546
-0.000192272
0.0129846
8.0397e-05
-0.000263507
0.0132309
-0.000307135
0.0132367
-0.000332904
0.01313
-0.000345938
0.0129869
-0.000349499
0.01284
-0.000346087
0.012701
-0.000337575
0.0125733
-0.000325374
0.0124576
-0.000310567
0.0123532
-0.000293988
0.012259
-0.000276287
0.0121737
-0.000257965
0.0120965
-0.00023941
0.0120263
-0.000220911
0.0119626
-0.000202681
0.0119047
-0.000184869
0.0118521
-0.000167575
0.0118046
-0.000150859
0.0117618
-0.000134748
0.0117234
-0.000119245
0.0116891
-0.00010433
0.0116588
-8.99692e-05
0.0116323
-7.61157e-05
0.0116094
-6.2712e-05
0.01159
-4.96936e-05
0.011574
-3.69901e-05
0.0115612
-2.45265e-05
0.0115517
-1.22239e-05
0.0115455
0.0115423
-0.000386828
0.0130832
0.000288132
-0.000439736
0.0132838
-0.000464707
0.0132617
-0.000473123
0.0131385
-0.000470578
0.0129844
-0.00046044
0.0128299
-0.000445033
0.0126856
-0.000425986
0.0125543
-0.000404498
0.0124361
-0.000381472
0.0123302
-0.000357586
0.0122351
-0.000333359
0.0121495
-0.000309186
0.0120723
-0.00028536
0.0120025
-0.000262095
0.0119393
-0.000239537
0.0118821
-0.00021778
0.0118304
-0.000196873
0.0117837
-0.000176834
0.0117418
-0.000157652
0.0117042
-0.000139296
0.0116708
-0.000121717
0.0116412
-0.000104853
0.0116154
-8.86331e-05
0.0115932
-7.29765e-05
0.0115743
-5.77976e-05
0.0115588
-4.30059e-05
0.0115464
-2.85076e-05
0.0115372
-1.42056e-05
0.0115312
0.0115281
-0.00060279
0.0131615
0.000524554
-0.00063143
0.0133125
-0.000633828
0.0132641
-0.000621894
0.0131265
-0.000601485
0.012964
-0.000575923
0.0128043
-0.000547191
0.0126568
-0.000516583
0.0125237
-0.000485023
0.0124046
-0.000453177
0.0122983
-0.000421527
0.0122034
-0.000390432
0.0121184
-0.000360153
0.012042
-0.000330875
0.0119732
-0.000302718
0.0119112
-0.000275752
0.0118551
-0.000250004
0.0118046
-0.000225468
0.0117592
-0.000202112
0.0117184
-0.000179884
0.011682
-0.000158713
0.0116496
-0.00013852
0.011621
-0.000119211
0.0115961
-0.000100689
0.0115746
-8.28499e-05
0.0115565
-6.55845e-05
0.0115415
-4.87816e-05
0.0115296
-3.23276e-05
0.0115208
-1.61064e-05
0.0115149
0.011512
-0.00083501
0.0132105
0.000785994
-0.000834759
0.0133122
-0.000811256
0.0132406
-0.000776477
0.0130917
-0.000736428
0.0129239
-0.000694117
0.012762
-0.000651046
0.0126137
-0.000608109
0.0124807
-0.000565898
0.0123623
-0.000524796
0.0122572
-0.00048506
0.0121637
-0.000446865
0.0120802
-0.000410319
0.0120055
-0.000375483
0.0119384
-0.000342375
0.011878
-0.000310975
0.0118237
-0.000281239
0.0117749
-0.000253099
0.0117311
-0.000226469
0.0116918
-0.000201249
0.0116568
-0.00017733
0.0116257
-0.000154596
0.0115983
-0.000132923
0.0115744
-0.000112185
0.0115539
-9.22521e-05
0.0115365
-7.29916e-05
0.0115222
-5.4271e-05
0.0115109
-3.5956e-05
0.0115025
-1.79112e-05
0.0114969
0.0114941
-0.0010781
0.0132222
0.00106641
-0.0010451
0.0132792
-0.000993076
0.0131886
-0.000933697
0.0130324
-0.000872842
0.0128631
-0.000812925
0.0127021
-0.000754878
0.0125557
-0.000699146
0.012425
-0.000645942
0.0123091
-0.000595342
0.0122066
-0.000547356
0.0121157
-0.000501956
0.0120348
-0.000459088
0.0119626
-0.000418677
0.011898
-0.000380629
0.01184
-0.000344833
0.0117879
-0.000311165
0.0117412
-0.00027949
0.0116994
-0.000249666
0.011662
-0.000221544
0.0116286
-0.000194973
0.0115991
-0.0001698
0.0115731
-0.000145867
0.0115505
-0.000123019
0.0115311
-0.0001011
0.0115146
-7.99546e-05
0.0115011
-5.94267e-05
0.0114904
-3.93618e-05
0.0114824
-1.96047e-05
0.0114771
0.0114745
-0.00132546
0.013191
0.00135663
-0.00125697
0.0132107
-0.00117485
0.0131064
-0.00109004
0.0129475
-0.00100791
0.0127809
-0.000930061
0.0126242
-0.000856825
0.0124825
-0.000788164
0.0123563
-0.000723892
0.0122449
-0.000663763
0.0121465
-0.000607532
0.0120595
-0.000554962
0.0119823
-0.00050583
0.0119135
-0.000459922
0.0118521
-0.000417026
0.0117971
-0.000376937
0.0117479
-0.000339447
0.0117037
-0.000304355
0.0116643
-0.000271459
0.0116291
-0.000240561
0.0115977
-0.000211465
0.01157
-0.000183979
0.0115457
-0.000157915
0.0115245
-0.000133087
0.0115062
-0.000109311
0.0114909
-8.64082e-05
0.0114782
-6.42009e-05
0.0114682
-4.25134e-05
0.0114607
-2.11711e-05
0.0114558
0.0114533
-0.00156938
0.0131143
0.00164606
-0.00146438
0.0131057
-0.00135187
0.0129939
-0.00124182
0.0128375
-0.00113867
0.0126778
-0.00104315
0.0125287
-0.000954956
0.0123943
-0.000873581
0.012275
-0.000798438
0.0121697
-0.00072897
0.012077
-0.000664677
0.0119952
-0.000605118
0.0119227
-0.0005499
0.0118583
-0.000498669
0.0118008
-0.000451099
0.0117495
-0.000406887
0.0117036
-0.000365746
0.0116626
-0.000327404
0.0116259
-0.0002916
0.0115933
-0.000258087
0.0115642
-0.000226625
0.0115386
-0.000196985
0.011516
-0.000168943
0.0114964
-0.000142285
0.0114796
-0.000116801
0.0114654
-9.22875e-05
0.0114537
-6.85457e-05
0.0114444
-4.53795e-05
0.0114376
-2.25951e-05
0.011433
0.0114307
-0.00180207
0.0129926
0.00192385
-0.00166134
0.012965
-0.00151954
0.0128521
-0.00138541
0.0127034
-0.00126224
0.0125546
-0.00114984
0.0124163
-0.00104736
0.0122918
-0.000953825
0.0121814
-0.000868282
0.0120842
-0.000789881
0.0119986
-0.000717886
0.0119232
-0.000651661
0.0118565
-0.000590652
0.0117973
-0.000534371
0.0117446
-0.000482383
0.0116975
-0.000434289
0.0116556
-0.000389724
0.011618
-0.000348349
0.0115846
-0.000309845
0.0115548
-0.000273916
0.0115283
-0.000240279
0.0115049
-0.000208667
0.0114844
-0.000178825
0.0114666
-0.00015051
0.0114513
-0.000123487
0.0114383
-9.75286e-05
0.0114277
-7.24146e-05
0.0114193
-4.79296e-05
0.0114131
-2.38614e-05
0.0114089
0.0114069
-0.00201634
0.0128289
0.00217999
-0.00184237
0.012791
-0.00167362
0.0126834
-0.00151746
0.0125472
-0.0013759
0.012413
-0.00124793
0.0122883
-0.00113222
0.0121761
-0.00102739
0.0120766
-0.000932172
0.011989
-0.00084545
0.0119119
-0.00076628
0.011844
-0.000693849
0.011784
-0.000627458
0.0117309
-0.000566497
0.0116836
-0.000510425
0.0116415
-0.000458757
0.0116039
-0.000411053
0.0115703
-0.000366909
0.0115404
-0.000325954
0.0115138
-0.000287843
0.0114902
-0.000252253
0.0114693
-0.000218881
0.011451
-0.000187443
0.0114351
-0.000157666
0.0114215
-0.000129291
0.01141
-0.00010207
0.0114005
-7.57627e-05
0.011393
-5.01342e-05
0.0113874
-2.49554e-05
0.0113838
0.0113819
-0.0022061
0.0126287
0.00240629
-0.0020028
0.0125877
-0.00181045
0.012491
-0.00163504
0.0123718
-0.00147724
0.0122552
-0.00133544
0.0121465
-0.0012079
0.0120485
-0.00109291
0.0119616
-0.000988957
0.011885
-0.000894706
0.0118176
-0.000809037
0.0117583
-0.000730987
0.011706
-0.000659729
0.0116596
-0.000594543
0.0116184
-0.000534796
0.0115817
-0.000479924
0.011549
-0.000429419
0.0115198
-0.000382818
0.0114938
-0.0003397
0.0114707
-0.000299676
0.0114502
-0.000262385
0.011432
-0.000227492
0.0114161
-0.000194682
0.0114023
-0.000163658
0.0113905
-0.000134139
0.0113804
-0.000105855
0.0113722
-7.85475e-05
0.0113657
-5.19655e-05
0.0113609
-2.58636e-05
0.0113577
0.0113561
-0.00236683
0.0123985
0.00259704
-0.00213906
0.01236
-0.00192719
0.0122792
-0.00173577
0.0121804
-0.00156428
0.0120838
-0.00141068
0.0119929
-0.00127296
0.0119108
-0.00114918
0.0118378
-0.00103761
0.0117734
-0.000936776
0.0117168
-0.000845414
0.011667
-0.000762439
0.011623
-0.000686919
0.0115841
-0.000618043
0.0115495
-0.000555098
0.0115188
-0.000497451
0.0114914
-0.000444532
0.0114669
-0.000395829
0.0114451
-0.000350872
0.0114257
-0.000309236
0.0114085
-0.000270524
0.0113933
-0.000234371
0.01138
-0.000200437
0.0113684
-0.000168401
0.0113584
-0.00013796
0.01135
-0.000108829
0.0113431
-8.07301e-05
0.0113376
-5.33982e-05
0.0113335
-2.65732e-05
0.0113308
0.0113295
-0.00249561
0.0121451
0.00274898
-0.00224876
0.0121131
-0.00202183
0.0120522
-0.00181789
0.0119764
-0.00163548
0.0119013
-0.00147232
0.0118298
-0.00132626
0.0117648
-0.00119518
0.0117068
-0.00107726
0.0116555
-0.000970905
0.0116105
-0.000874758
0.0115708
-0.000787644
0.0115359
-0.000708547
0.011505
-0.000636584
0.0114776
-0.000570976
0.0114532
-0.000511032
0.0114314
-0.000456131
0.011412
-0.000405717
0.0113947
-0.000359281
0.0113793
-0.000316362
0.0113656
-0.000276534
0.0113535
-0.000239406
0.0113429
-0.000204614
0.0113336
-0.000171816
0.0113256
-0.000140695
0.0113189
-0.000110944
0.0113133
-8.22757e-05
0.0113089
-5.44093e-05
0.0113057
-2.7073e-05
0.0113035
0.0113024
-0.00259108
0.0118752
0.00286106
-0.00233068
0.0118527
-0.0020932
0.0118147
-0.00188028
0.0117635
-0.00168977
0.0117108
-0.00151939
0.0116594
-0.00136689
0.0116123
-0.00123012
0.01157
-0.0011072
0.0115326
-0.000996474
0.0114997
-0.000896528
0.0114709
-0.000806127
0.0114455
-0.0007242
0.0114231
-0.000649807
0.0114032
-0.000582119
0.0113855
-0.0005204
0.0113697
-0.000463988
0.0113556
-0.000412288
0.011343
-0.00036476
0.0113318
-0.000320913
0.0113218
-0.000280296
0.0113129
-0.000242496
0.0113051
-0.00020713
0.0112982
-0.000173838
0.0112923
-0.000142287
0.0112873
-0.00011216
0.0112832
-8.31541e-05
0.0112799
-5.49792e-05
0.0112775
-2.73532e-05
0.0112759
0.0112751
-0.00265325
0.0115945
0.0029339
-0.00238464
0.0115841
-0.00214091
0.011571
-0.00192237
0.011545
-0.00172654
0.011515
-0.00155124
0.0114841
-0.00139425
0.0114553
-0.00125343
0.0114292
-0.0011269
0.0114061
-0.001013
0.0113858
-0.000910291
0.0113682
-0.000817507
0.0113527
-0.00073354
0.0113391
-0.000657417
0.0113271
-0.000588273
0.0113163
-0.000525335
0.0113068
-0.000467911
0.0112982
-0.000415378
0.0112905
-0.000367169
0.0112836
-0.00032277
0.0112774
-0.000281711
0.0112718
-0.00024356
0.0112669
-0.000207917
0.0112626
-0.000174411
0.0112588
-0.000142695
0.0112556
-0.000112442
0.011253
-8.33406e-05
0.0112508
-5.50918e-05
0.0112492
-2.7406e-05
0.0112482
0.0112477
-0.0026832
0.0113084
0.00296934
-0.00241126
0.0113121
-0.00216518
0.0113249
-0.00194411
0.0113239
-0.00174557
0.0113165
-0.00156759
0.0113061
-0.001408
0.0112957
-0.00126474
0.0112859
-0.001136
0.0112773
-0.00102014
0.01127
-0.00091573
0.0112638
-0.000821493
0.0112585
-0.00073631
0.0112539
-0.000659186
0.0112499
-0.000589235
0.0112464
-0.000525661
0.0112432
-0.000467751
0.0112403
-0.000414858
0.0112376
-0.000366399
0.0112351
-0.000321842
0.0112328
-0.000280701
0.0112307
-0.000242532
0.0112287
-0.000206922
0.011227
-0.000173491
0.0112254
-0.000141884
0.011224
-0.000111765
0.0112228
-8.28167e-05
0.0112219
-5.47351e-05
0.0112212
-2.72254e-05
0.0112207
0.0112204
-0.00268273
0.0110211
0.00297003
-0.00241179
0.0110412
-0.00216672
0.0110799
-0.00194586
0.0111031
-0.001747
0.0111176
-0.00156839
0.0111275
-0.00140799
0.0111353
-0.00126387
0.0111418
-0.00113429
0.0111477
-0.00101769
0.0111534
-0.000912636
0.0111587
-0.00081789
0.0111637
-0.000732329
0.0111684
-0.000654952
0.0111726
-0.000584862
0.0111763
-0.000521253
0.0111796
-0.000463397
0.0111824
-0.000410635
0.0111848
-0.000362372
0.0111868
-0.000318063
0.0111885
-0.000277213
0.0111898
-0.000239368
0.0111909
-0.000204109
0.0111917
-0.000171051
0.0111923
-0.000139831
0.0111928
-0.000110111
0.0111931
-8.157e-05
0.0111933
-5.39011e-05
0.0111935
-2.68076e-05
0.0111936
0.0111936
-0.00265414
0.0107361
0.00293912
-0.00238791
0.010775
-0.00214655
0.0108385
-0.00192825
0.0108848
-0.0017312
0.0109206
-0.00155385
0.0109502
-0.00139431
0.0109757
-0.00125081
0.0109983
-0.00112172
0.0110187
-0.00100554
0.0110372
-0.000900905
0.0110541
-0.00080659
0.0110694
-0.000721492
0.0110833
-0.000644616
0.0110957
-0.000575067
0.0111068
-0.000512035
0.0111165
-0.000454785
0.0111252
-0.000402655
0.0111327
-0.000355041
0.0111392
-0.000311394
0.0111448
-0.000271214
0.0111496
-0.000234044
0.0111537
-0.00019946
0.0111571
-0.000167075
0.01116
-0.000136526
0.0111622
-0.000107473
0.0111641
-7.95953e-05
0.0111655
-5.25865e-05
0.0111665
-2.61509e-05
0.0111671
0.0111675
-0.00260035
0.0104564
0.00287999
-0.00234152
0.0105162
-0.00210593
0.0106029
-0.00189216
0.010671
-0.00169875
0.0107271
-0.00152432
0.0107757
-0.00136717
0.0108186
-0.00122568
0.0108568
-0.00109834
0.0108913
-0.000983723
0.0109226
-0.000880528
0.0109509
-0.00078757
0.0109765
-0.000703769
0.0109995
-0.000628149
0.0110201
-0.000559821
0.0110384
-0.00049798
0.0110547
-0.000441894
0.0110691
-0.0003909
0.0110817
-0.000344394
0.0110927
-0.000301828
0.0111023
-0.000262702
0.0111105
-0.000226557
0.0111176
-0.000192975
0.0111235
-0.000161566
0.0111285
-0.000131971
0.0111326
-0.000103853
0.0111359
-7.68945e-05
0.0111385
-5.07929e-05
0.0111404
-2.52561e-05
0.0111416
0.0111422
-0.00252411
0.0101846
0.00279591
-0.00227445
0.0102665
-0.0020462
0.0103747
-0.00183855
0.0104633
-0.00165034
0.0105389
-0.0014803
0.0106057
-0.00132692
0.0106652
-0.00118872
0.0107186
-0.00106431
0.0107669
-0.000952342
0.0108106
-0.000851579
0.0108501
-0.00076088
0.0108858
-0.000679199
0.0109178
-0.000605579
0.0109464
-0.000539148
0.010972
-0.00047911
0.0109947
-0.000424744
0.0110147
-0.000375391
0.0110323
-0.000330453
0.0110478
-0.000289386
0.0110612
-0.000251696
0.0110728
-0.000216929
0.0110828
-0.000184671
0.0110913
-0.000154539
0.0110984
-0.00012618
0.0111043
-9.92628e-05
0.011109
-7.34771e-05
0.0111127
-4.85266e-05
0.0111154
-2.41266e-05
0.0111172
0.0111181
-0.00242756
0.00992234
0.00268986
-0.0021883
0.0100272
-0.00196861
0.010155
-0.0017684
0.0102631
-0.0015867
0.0103572
-0.00142234
0.0104413
-0.00127397
0.0105168
-0.00114025
0.0105849
-0.00101987
0.0106465
-0.000911585
0.0107023
-0.000814206
0.0107527
-0.000726642
0.0107982
-0.000647881
0.010839
-0.000576993
0.0108756
-0.000513124
0.0109081
-0.000455497
0.010937
-0.0004034
0.0109626
-0.000356188
0.0109851
-0.000313272
0.0110049
-0.000274119
0.0110221
-0.000238243
0.011037
-0.000205201
0.0110498
-0.000174586
0.0110607
-0.000146028
0.0110699
-0.000119181
0.0110774
-9.37256e-05
0.0110836
-6.93602e-05
0.0110884
-4.57992e-05
0.0110919
-2.2768e-05
0.0110942
0.0110953
-0.00231265
0.0096706
0.00256439
-0.00208453
0.00979911
-0.00187434
0.00994477
-0.00168265
0.0100714
-0.00150857
0.0101831
-0.00135103
0.0102838
-0.00120879
0.0103746
-0.00108064
0.0104567
-0.000965335
0.0105312
-0.000861703
0.0105987
-0.000768621
0.0106597
-0.000685037
0.0107146
-0.000609975
0.010764
-0.000542532
0.0108081
-0.000481878
0.0108475
-0.000427255
0.0108824
-0.000377968
0.0109133
-0.000333388
0.0109405
-0.000292941
0.0109644
-0.000256108
0.0109852
-0.000222417
0.0110033
-0.000191438
0.0110188
-0.000162779
0.011032
-0.000136082
0.0110432
-0.000111016
0.0110524
-8.72744e-05
0.0110598
-6.45688e-05
0.0110657
-4.26273e-05
0.0110699
-2.11887e-05
0.0110727
0.0110741
-0.00218101
0.00942998
0.00242163
-0.00196437
0.00958247
-0.00176446
0.00974486
-0.00158216
0.00988913
-0.00141667
0.0100177
-0.00126696
0.0101341
-0.00113188
0.0102395
-0.0010103
0.0103352
-0.000901046
0.010422
-0.000803001
0.0105006
-0.00071509
0.0105717
-0.000636302
0.0106358
-0.000565693
0.0106934
-0.000502389
0.0107448
-0.000445585
0.0107907
-0.000394544
0.0108314
-0.000348594
0.0108674
-0.000307125
0.0108991
-0.000269581
0.0109269
-0.000235463
0.0109511
-0.000204316
0.0109721
-0.000175728
0.0109902
-0.000149326
0.0110056
-0.000124768
0.0110186
-0.00010174
0.0110293
-7.9953e-05
0.011038
-5.91358e-05
0.0110448
-3.90328e-05
0.0110498
-1.93997e-05
0.0110531
0.0110547
-0.00203394
0.00920067
0.00226325
-0.00182893
0.00937746
-0.0016399
0.00955584
-0.00146773
0.00971696
-0.00131167
0.00986161
-0.0011707
0.00999312
-0.00104373
0.0101125
-0.000929672
0.0102211
-0.000827397
0.0103197
-0.000735828
0.0104091
-0.00065393
0.0104898
-0.000580724
0.0105626
-0.000515298
0.0106279
-0.000456805
0.0106863
-0.000404466
0.0107383
-0.00035757
0.0107845
-0.000315467
0.0108253
-0.00027757
0.0108612
-0.000243349
0.0108926
-0.000212325
0.0109201
-0.000184066
0.0109439
-0.000158183
0.0109643
-0.000134323
0.0109818
-0.000112167
0.0109964
-9.14208e-05
0.0110086
-7.18159e-05
0.0110184
-5.31018e-05
0.0110261
-3.50429e-05
0.0110318
-1.74146e-05
0.0110355
0.0110373
-0.00187249
0.00898257
0.00209059
-0.00167908
0.00918405
-0.00150144
0.00937819
-0.00134004
0.00955556
-0.00119419
0.00971577
-0.00106282
0.00986174
-0.000944856
0.00999457
-0.000839218
0.0101155
-0.000744809
0.0102253
-0.000660572
0.0103248
-0.000585498
0.0104148
-0.000518636
0.0104958
-0.000459099
0.0105684
-0.000406068
0.0106333
-0.000358788
0.010691
-0.000316576
0.0107423
-0.000278811
0.0107875
-0.00024493
0.0108273
-0.000214431
0.0108621
-0.000186862
0.0108925
-0.000161818
0.0109188
-0.000138935
0.0109414
-0.000117887
0.0109607
-9.83777e-05
0.0109769
-8.01398e-05
0.0109904
-6.2928e-05
0.0110012
-4.65154e-05
0.0110097
-3.06897e-05
0.0110159
-1.52492e-05
0.01102
0.0110221
-0.00169755
0.0087754
0.00190472
-0.00151558
0.00900209
-0.0013497
0.00921231
-0.00119968
0.00940553
-0.00106478
0.00958087
-0.000943825
0.00974079
-0.000835739
0.00988648
-0.000739405
0.0100191
-0.000653725
0.0101396
-0.000577655
0.0102488
-0.000510197
0.0103473
-0.000450417
0.010436
-0.000397453
0.0105154
-0.00035051
0.0105863
-0.000308863
0.0106494
-0.000271853
0.0107053
-0.000238892
0.0107545
-0.000209448
0.0107979
-0.000183049
0.0108357
-0.000159274
0.0108687
-0.000137749
0.0108973
-0.000118141
0.0109218
-0.000100151
0.0109427
-8.35151e-05
0.0109603
-6.7992e-05
0.0109748
-5.33645e-05
0.0109866
-3.94327e-05
0.0109958
-2.60105e-05
0.0110025
-1.29224e-05
0.011007
0.0110091
-0.0015098
0.00857869
0.00170651
-0.00133902
0.0088313
-0.00118519
0.00905848
-0.00104715
0.0092675
-0.000923929
0.00945765
-0.000814213
0.00963107
-0.000716868
0.00978914
-0.000630708
0.00993296
-0.000554618
0.0100635