/*--------------------------------*- C++ -*----------------------------------*\
  =========                 |
  \\      /  F ield         | OpenFOAM: The Open Source CFD Toolbox
   \\    /   O peration     | Website:  https://openfoam.org
    \\  /    A nd           | Version:  7
     \\/     M anipulation  |
\*---------------------------------------------------------------------------*/
FoamFile
{
    version     2.0;
    format      ascii;
    class       volVectorField;
    location    "85";
    object      U;
}
// * * * * * * * * * * * * * * * * * * * * * * * * * * * * * * * * * * * * * //

dimensions      [0 1 -1 0 0 0 0];

internalField   nonuniform List<vector> 
6000
(
(0.745409 0.00569778 -4.7357e-20)
(0.643471 0.016697 5.7725e-20)
(0.541967 0.0263924 -3.7369e-20)
(0.367173 0.040066 -4.54311e-20)
(0.444146 0.0344066 -1.52648e-21)
(0.286962 0.0448513 5.43573e-20)
(0.352758 0.0404041 -2.99631e-20)
(0.214581 0.0483332 -3.01883e-20)
(0.269708 0.0442199 6.46958e-20)
(0.122769 0.0485402 4.27969e-20)
(0.150403 0.0504851 -6.13675e-20)
(0.195972 0.0459262 -1.96115e-20)
(0.071082 0.050064 -2.39205e-20)
(0.094302 0.0513492 3.19257e-20)
(0.131651 0.0458544 3.92432e-20)
(0.0266427 0.0508285 1.65247e-20)
(0.0457029 0.0510109 -2.45267e-21)
(0.076208 0.0446154 -1.87683e-20)
(-0.011437 0.0509267 2.19918e-20)
(0.00374792 0.0495685 -6.05343e-21)
(0.0288557 0.0431116 3.09126e-21)
(-0.0563657 0.0506544 -1.43334e-20)
(-0.0442482 0.0505312 6.43832e-21)
(-0.0319791 0.0477147 2.81441e-20)
(-0.0115654 0.0413818 -1.51194e-20)
(-0.0814356 0.0510168 3.94437e-20)
(-0.0723596 0.04994 -1.55638e-20)
(-0.0625048 0.04614 -1.77017e-20)
(-0.0466869 0.0392852 1.24008e-21)
(-0.102876 0.0513867 -5.69659e-21)
(-0.096416 0.0494189 -1.75725e-20)
(-0.0888694 0.0448435 -5.7257e-21)
(-0.0772337 0.0373504 -2.75088e-20)
(-0.12111 0.0519145 -4.09877e-21)
(-0.116942 0.0491735 5.37558e-20)
(-0.111649 0.0439801 2.74304e-20)
(-0.103677 0.0360186 6.12701e-21)
(-0.136416 0.052711 -1.23438e-20)
(-0.134267 0.0493355 -3.34339e-20)
(-0.131107 0.0436768 -3.2082e-20)
(-0.12628 0.0354322 4.22888e-20)
(-0.148948 0.0538398 -9.82456e-21)
(-0.148552 0.0499644 3.30312e-20)
(-0.147329 0.0439714 1.93388e-20)
(-0.145138 0.0355696 -1.05235e-20)
(-0.158757 0.0553195 1.12972e-20)
(-0.159832 0.0510623 -4.58238e-21)
(-0.160278 0.0448398 -1.54637e-20)
(-0.16023 0.0363635 -1.15775e-20)
(-0.165823 0.0571308 -4.91635e-22)
(-0.168061 0.0525888 -1.41421e-20)
(-0.16985 0.046218 1.51398e-20)
(-0.171454 0.0377272 9.42435e-22)
(-0.166696 0.0624748 -1.37165e-21)
(-0.170087 0.059225 1.07376e-21)
(-0.173147 0.0544736 1.59963e-20)
(-0.175907 0.0480166 -1.67508e-21)
(-0.178673 0.0395613 -5.28884e-21)
(-0.167678 0.0650332 7.24393e-21)
(-0.171468 0.0615321 7.08838e-21)
(-0.174986 0.0566267 -5.50721e-21)
(-0.178304 0.0501306 -1.76291e-21)
(-0.181737 0.0417583 2.23048e-22)
(-0.166041 0.0676834 -4.22461e-21)
(-0.169887 0.0639679 1.61385e-21)
(-0.173475 0.0589454 -2.56043e-21)
(-0.176911 0.0524453 6.67101e-22)
(-0.180502 0.0442072 2.04755e-21)
(1.26687 -0.0743814 0)
(1.27688 -0.0754419 0)
(1.27624 -0.0757661 0)
(1.27221 -0.0748976 0)
(1.26669 -0.0731 0)
(1.2604 -0.0706941 0)
(1.25378 -0.0678751 0)
(1.24717 -0.0647752 0)
(1.24076 -0.0615031 0)
(1.23461 -0.058139 0)
(1.22873 -0.0547384 0)
(1.2231 -0.051341 0)
(1.21772 -0.0479758 0)
(1.21259 -0.0446641 0)
(1.20774 -0.0414204 0)
(1.20316 -0.0382545 0)
(1.19887 -0.0351713 0)
(1.19488 -0.0321727 0)
(1.19119 -0.0292578 0)
(1.1878 -0.0264235 0)
(1.18472 -0.0236656 0)
(1.18195 -0.0209786 0)
(1.17949 -0.018356 0)
(1.17733 -0.0157911 0)
(1.17549 -0.0132765 0)
(1.17395 -0.0108048 0)
(1.17272 -0.00836747 0)
(1.1718 -0.00596044 0)
(1.17118 -0.00356164 0)
(1.17089 -0.00119887 0)
(1.26055 -0.0706321 0)
(1.27448 -0.0714439 0)
(1.2757 -0.0715772 0)
(1.27268 -0.0704146 0)
(1.26786 -0.0683856 0)
(1.26207 -0.0658594 0)
(1.25583 -0.063015 0)
(1.24948 -0.0599614 0)
(1.24325 -0.0567905 0)
(1.23721 -0.0535697 0)
(1.23138 -0.0503446 0)
(1.22577 -0.0471466 0)
(1.22039 -0.043998 0)
(1.21524 -0.0409146 0)
(1.21035 -0.0379067 0)
(1.20573 -0.0349807 0)
(1.20139 -0.032139 0)
(1.19735 -0.0293817 0)
(1.1936 -0.0267064 0)
(1.19017 -0.0241093 0)
(1.18704 -0.0215856 0)
(1.18422 -0.0191292 0)
(1.18172 -0.016734 0)
(1.17953 -0.0143929 0)
(1.17765 -0.012099 0)
(1.17609 -0.00984521 0)
(1.17483 -0.0076236 0)
(1.17389 -0.00542973 0)
(1.17327 -0.00324501 0)
(1.17297 -0.00109003 0)
(1.25504 -0.067665 0)
(1.27303 -0.0682212 0)
(1.27611 -0.0680025 0)
(1.27396 -0.0664201 0)
(1.26964 -0.0640582 0)
(1.26421 -0.0613234 0)
(1.2582 -0.0583747 1.3271e-28)
(1.252 -0.0553006 -2.87151e-29)
(1.24585 -0.0521766 0)
(1.23985 -0.0490564 0)
(1.23402 -0.0459739 0)
(1.22839 -0.0429506 0)
(1.22297 -0.0400006 0)
(1.21778 -0.0371328 0)
(1.21283 -0.0343524 0)
(1.20815 -0.0316612 0)
(1.20375 -0.0290587 0)
(1.19964 -0.0265422 0)
(1.19584 -0.0241077 0)
(1.19234 -0.02175 0)
(1.18916 -0.0194634 0)
(1.1863 -0.0172414 0)
(1.18375 -0.0150774 0)
(1.18152 -0.0129645 0)
(1.17961 -0.0108959 0)
(1.17802 -0.00886465 0)
(1.17675 -0.00686342 0)
(1.17579 -0.00488757 0)
(1.17515 -0.00292133 0)
(1.17485 -0.00097973 0)
(1.25041 -0.0656159 0)
(1.27246 -0.0657434 0)
(1.2774 -0.0649125 0)
(1.27603 -0.0627556 0)
(1.27207 -0.0599625 0)
(1.26684 -0.0569457 0)
(1.26095 -0.053833 -1.3271e-28)
(1.25479 -0.0506908 2.87151e-29)
(1.24863 -0.0475771 0)
(1.24258 -0.0445302 0)
(1.2367 -0.0415702 0)
(1.231 -0.0387075 0)
(1.2255 -0.0359467 0)
(1.22023 -0.033289 0)
(1.2152 -0.0307334 0)
(1.21044 -0.0282768 0)
(1.20596 -0.0259148 0)
(1.20178 -0.0236418 0)
(1.1979 -0.0214516 0)
(1.19434 -0.0193376 0)
(1.1911 -0.0172927 0)
(1.18818 -0.01531 0)
(1.18559 -0.0133824 0)
(1.18332 -0.011503 0)
(1.18138 -0.00966481 0)
(1.17976 -0.00786131 0)
(1.17846 -0.00608559 0)
(1.17749 -0.00433297 0)
(1.17684 -0.00259004 0)
(1.17652 -0.000867551 0)
(1.24681 -0.0643613 0)
(1.2727 -0.0638484 0)
(1.2794 -0.0621618 0)
(1.27869 -0.0592867 0)
(1.27498 -0.0559737 0)
(1.26983 -0.0526119 0)
(1.26393 -0.049289 0)
(1.25772 -0.0460464 0)
(1.25147 -0.0429211 0)
(1.24532 -0.0399327 0)
(1.23933 -0.0370863 0)
(1.23352 -0.0343793 0)
(1.22791 -0.0318061 0)
(1.22253 -0.0293593 0)
(1.2174 -0.027031 0)
(1.21254 -0.0248128 0)
(1.20797 -0.022696 0)
(1.20371 -0.0206718 0)
(1.19976 -0.0187317 0)
(1.19614 -0.0168671 0)
(1.19283 -0.01507 0)
(1.18986 -0.0133325 0)
(1.18722 -0.0116472 0)
(1.18491 -0.0100069 0)
(1.18293 -0.00840485 0)
(1.18128 -0.0068346 0)
(1.17997 -0.00528974 0)
(1.17898 -0.00376566 0)
(1.17832 -0.00225099 0)
(1.178 -0.000753268 0)
(1.24441 -0.0636041 0)
(1.27378 -0.0622516 0)
(1.28208 -0.0595533 0)
(1.28189 -0.0558604 0)
(1.27828 -0.051965 0)
(1.27307 -0.0482141 0)
(1.26706 -0.0446525 0)
(1.26071 -0.0412932 0)
(1.2543 -0.0381484 0)
(1.24799 -0.0352165 0)
(1.24184 -0.0324849 0)
(1.23588 -0.0299374 0)
(1.23014 -0.0275571 0)
(1.22463 -0.0253277 0)
(1.21939 -0.0232338 0)
(1.21443 -0.0212615 0)
(1.20977 -0.0193974 0)
(1.20542 -0.0176295 0)
(1.2014 -0.0159467 0)
(1.1977 -0.0143387 0)
(1.19434 -0.0127961 0)
(1.19132 -0.0113102 0)
(1.18863 -0.00987329 0)
(1.18628 -0.00847797 0)
(1.18427 -0.00711758 0)
(1.1826 -0.00578592 0)
(1.18126 -0.00447702 0)
(1.18026 -0.00318649 0)
(1.17959 -0.00190471 0)
(1.17926 -0.000636931 0)
(1.24335 -0.0629956 0)
(1.27585 -0.0606241 0)
(1.28553 -0.0568461 0)
(1.28565 -0.0522875 0)
(1.28197 -0.0477862 0)
(1.27656 -0.0436326 0)
(1.27031 -0.039828 0)
(1.26371 -0.0363557 0)
(1.25706 -0.0332004 0)
(1.25054 -0.030336 0)
(1.24419 -0.0277316 0)
(1.23805 -0.0253564 0)
(1.23215 -0.0231818 0)
(1.22651 -0.021182 0)
(1.22114 -0.0193342 0)
(1.21607 -0.0176186 0)
(1.21131 -0.0160174 0)
(1.20688 -0.0145152 0)
(1.20278 -0.0130983 0)
(1.19902 -0.0117548 0)
(1.19561 -0.010474 0)
(1.19254 -0.00924647 0)
(1.18981 -0.00806408 0)
(1.18743 -0.00691942 0)
(1.18539 -0.00580596 0)
(1.1837 -0.00471781 0)
(1.18234 -0.00364949 0)
(1.18133 -0.00259696 0)
(1.18065 -0.00155216 0)
(1.18032 -0.00051877 0)
(1.24376 -0.0621759 0)
(1.27904 -0.0586715 0)
(1.28981 -0.0537728 0)
(1.29004 -0.0483494 0)
(1.28608 -0.043265 0)
(1.2803 -0.0387315 0)
(1.27367 -0.0347094 0)
(1.26673 -0.0311523 0)
(1.25977 -0.0280141 0)
(1.25297 -0.0252437 0)
(1.24638 -0.0227911 0)
(1.24003 -0.0206108 0)
(1.23395 -0.0186622 0)
(1.22814 -0.0169103 0)
(1.22264 -0.015325 0)
(1.21746 -0.0138805 0)
(1.2126 -0.0125551 0)
(1.20809 -0.0113299 0)
(1.20392 -0.010189 0)
(1.2001 -0.00911872 0)
(1.19663 -0.00810746 0)
(1.19352 -0.00714523 0)
(1.19076 -0.0062235 0)
(1.18835 -0.00533496 0)
(1.18629 -0.00447333 0)
(1.18457 -0.00363312 0)
(1.1832 -0.00280945 0)
(1.18217 -0.00199874 0)
(1.18149 -0.00119437 0)
(1.18115 -0.000399075 0)
(1.24588 -0.0608324 0)
(1.28344 -0.0560864 0)
(1.29497 -0.050055 0)
(1.29505 -0.0438225 0)
(1.29061 -0.0382209 0)
(1.28428 -0.0333671 0)
(1.27715 -0.0291856 0)
(1.26976 -0.0255976 0)
(1.26241 -0.0225249 0)
(1.25526 -0.0198909 0)
(1.24839 -0.0176275 0)
(1.2418 -0.0156747 0)
(1.23551 -0.0139806 0)
(1.22954 -0.012501 0)
(1.22389 -0.0111991 0)
(1.21859 -0.010044 0)
(1.21363 -0.0090097 0)
(1.20903 -0.00807475 0)
(1.2048 -0.00722113 0)
(1.20092 -0.00643386 0)
(1.19741 -0.00570044 0)
(1.19426 -0.00501052 0)
(1.19147 -0.00435553 0)
(1.18903 -0.00372833 0)
(1.18695 -0.00312304 0)
(1.18522 -0.00253474 0)
(1.18384 -0.00195921 0)
(1.1828 -0.00139351 0)
(1.18211 -0.000832416 0)
(1.18177 -0.000278143 0)
(1.24984 -0.0586144 0)
(1.28908 -0.052516 0)
(1.30096 -0.0453976 0)
(1.30063 -0.0384795 0)
(1.2955 -0.0324723 0)
(1.28846 -0.0273978 0)
(1.28069 -0.0231475 0)
(1.27275 -0.0196088 0)
(1.26493 -0.01667 0)
(1.2574 -0.0142312 0)
(1.25019 -0.0122073 0)
(1.24333 -0.0105247 0)
(1.23682 -0.00912094 0)
(1.23067 -0.00794408 0)
(1.22487 -0.00695117 0)
(1.21944 -0.0061067 0)
(1.21439 -0.00538157 0)
(1.20971 -0.00475187 0)
(1.20541 -0.00419804 0)
(1.20148 -0.00370414 0)
(1.19793 -0.00325721 0)
(1.19475 -0.00284679 0)
(1.19193 -0.00246446 0)
(1.18947 -0.00210353 0)
(1.18738 -0.00175868 0)
(1.18563 -0.0014257 0)
(1.18424 -0.00110121 0)
(1.1832 -0.000783038 0)
(1.18251 -0.000467359 0)
(1.18217 -0.000156319 0)
(1.25568 -0.0550654 0)
(1.29586 -0.0475692 0)
(1.30766 -0.0394978 0)
(1.30666 -0.0320945 0)
(1.30063 -0.0258438 0)
(1.29272 -0.0206892 0)
(1.2842 -0.0164954 0)
(1.27562 -0.0131114 0)
(1.26728 -0.0103943 0)
(1.25931 -0.00822516 0)
(1.25174 -0.006503 0)
(1.24459 -0.00514224 0)
(1.23785 -0.00407177 0)
(1.23151 -0.00323322 0)
(1.22556 -0.00257871 0)
(1.22001 -0.00206927 0)
(1.21486 -0.00167323 0)
(1.21011 -0.00136511 0)
(1.20575 -0.00112449 0)
(1.20178 -0.000934865 0)
(1.19819 -0.00078317 0)
(1.19498 -0.000659308 0)
(1.19214 -0.000555327 0)
(1.18967 -0.000465126 0)
(1.18757 -0.000384256 0)
(1.18582 -0.000309409 0)
(1.18442 -0.000238105 0)
(1.18338 -0.000169272 0)
(1.18269 -0.00010041 0)
(1.18234 -3.39218e-05 0)
(1.26339 -0.0497854 0)
(1.30359 -0.0408991 0)
(1.31487 -0.0321166 0)
(1.31295 -0.0244777 0)
(1.30584 -0.0181836 0)
(1.29693 -0.013128 0)
(1.28756 -0.00914714 0)
(1.27828 -0.00604468 0)
(1.26937 -0.00365547 0)
(1.26093 -0.00184395 0)
(1.25299 -0.000495731 0)
(1.24554 0.000483993 0)
(1.23856 0.0011724 0)
(1.23202 0.00163272 0)
(1.22593 0.00191631 0)
(1.22027 0.0020643 0)
(1.21503 0.00210981 0)
(1.21021 0.00207905 0)
(1.2058 0.00199268 0)
(1.2018 0.00186706 0)
(1.19818 0.00171482 0)
(1.19496 0.00154538 0)
(1.19211 0.00136588 0)
(1.18963 0.00118146 0)
(1.18752 0.000995516 0)
(1.18577 0.000810236 0)
(1.18437 0.000626951 0)
(1.18333 0.000445567 0)
(1.18264 0.000267098 0)
(1.18229 8.85516e-05 0)
(1.27278 -0.0424616 0)
(1.31208 -0.0321715 0)
(1.32239 -0.0230613 0)
(1.31928 -0.0154763 0)
(1.31092 -0.00936657 0)
(1.30092 -0.00463306 0)
(1.29063 -0.00104236 0)
(1.28061 0.00163288 0)
(1.2711 0.00357323 0)
(1.26218 0.00492871 0)
(1.25386 0.00582292 0)
(1.24611 0.00635605 0)
(1.2389 0.00660925 0)
(1.23218 0.00664852 0)
(1.22595 0.00652662 0)
(1.22019 0.00628545 0)
(1.21488 0.00595828 0)
(1.21 0.00557107 0)
(1.20556 0.00514397 0)
(1.20153 0.00469245 0)
(1.1979 0.00422809 0)
(1.19466 0.0037593 0)
(1.19181 0.00329194 0)
(1.18934 0.00282986 0)
(1.18723 0.00237519 0)
(1.18548 0.00192874 0)
(1.18409 0.00149044 0)
(1.18305 0.00105896 0)
(1.18236 0.000633637 0)
(1.18202 0.000210604 0)
(1.28359 -0.0325673 0)
(1.32096 -0.0210975 0)
(1.32998 -0.0121463 0)
(1.32538 -0.0049371 0)
(1.31565 0.000691372 0)
(1.30449 0.00485028 0)
(1.29326 0.00785474 0)
(1.28248 0.00994017 0)
(1.27237 0.0112999 0)
(1.26298 0.0120933 0)
(1.25429 0.0124477 0)
(1.24626 0.0124652 0)
(1.23882 0.0122278 0)
(1.23195 0.0118017 0)
(1.2256 0.011239 0)
(1.21975 0.0105807 0)
(1.21438 0.00985888 0)
(1.20947 0.00909816 0)
(1.205 0.0083172 0)
(1.20096 0.0075299 0)
(1.19733 0.00674624 0)
(1.1941 0.00597301 0)
(1.19126 0.00521445 0)
(1.1888 0.00447279 0)
(1.1867 0.00374856 0)
(1.18496 0.00304099 0)
(1.18358 0.00234843 0)
(1.18255 0.00166807 0)
(1.18186 0.000997495 0)
(1.18153 0.00033171 0)
(1.29556 -0.0197521 0)
(1.32987 -0.00749319 0)
(1.3372 0.000652693 0)
(1.33093 0.00722747 0)
(1.31978 0.0120234 0)
(1.30744 0.0153479 0)
(1.29526 0.0175484 0)
(1.28375 0.0188703 0)
(1.27306 0.0195116 0)
(1.26323 0.0196328 0)
(1.2542 0.0193594 0)
(1.24591 0.0187912 0)
(1.23829 0.0180077 0)
(1.23128 0.0170722 0)
(1.22484 0.0160341 0)
(1.21893 0.0149316 0)
(1.21353 0.0137943 0)
(1.2086 0.0126441 0)
(1.20413 0.0114975 0)
(1.2001 0.0103659 0)
(1.19648 0.00925703 0)
(1.19327 0.00817562 0)
(1.19045 0.00712386 0)
(1.188 0.006102 0)
(1.18593 0.00510869 0)
(1.18421 0.00414134 0)
(1.18284 0.00319652 0)
(1.18182 0.00226976 0)
(1.18115 0.0013568 0)
(1.18081 0.000451257 0)
(1.3078 -0.00441016 0)
(1.33871 0.00879081 0)
(1.34367 0.0153749 0)
(1.3356 0.0209753 0)
(1.32302 0.0246111 0)
(1.30954 0.0268237 0)
(1.29647 0.0280021 0)
(1.28428 0.0283864 0)
(1.27307 0.0281716 0)
(1.26285 0.0275115 0)
(1.25353 0.026524 0)
(1.24503 0.025302 0)
(1.23726 0.0239189 0)
(1.23015 0.0224321 0)
(1.22365 0.0208861 0)
(1.21771 0.0193146 0)
(1.2123 0.0177429 0)
(1.20738 0.0161895 0)
(1.20293 0.0146672 0)
(1.19892 0.0131846 0)
(1.19534 0.0117464 0)
(1.19216 0.0103548 0)
(1.18937 0.00900942 0)
(1.18696 0.00770829 0)
(1.18491 0.00644788 0)
(1.18322 0.00522357 0)
(1.18188 0.00402992 0)
(1.18087 0.00286065 0)
(1.18021 0.0017095 0)
(1.17988 0.00056857 0)
(1.31953 0.0141958 0)
(1.34688 0.0274432 0)
(1.349 0.0321804 0)
(1.33904 0.0362608 0)
(1.32508 0.0383707 0)
(1.31056 0.0391992 0)
(1.29671 0.0391424 0)
(1.28392 0.0384211 0)
(1.27228 0.0372189 0)
(1.26174 0.0356744 0)
(1.2522 0.0338918 0)
(1.24355 0.031953 0)
(1.23568 0.0299212 0)
(1.22852 0.0278455 0)
(1.222 0.0257628 0)
(1.21607 0.0237007 0)
(1.21068 0.021679 0)
(1.2058 0.0197113 0)
(1.20139 0.0178061 0)
(1.19744 0.015968 0)
(1.1939 0.0141986 0)
(1.19078 0.0124967 0)
(1.18804 0.0108593 0)
(1.18567 0.0092816 0)
(1.18366 0.00775779 0)
(1.18201 0.00628093 0)
(1.18069 0.00484345 0)
(1.17971 0.00343705 0)
(1.17906 0.00205342 0)
(1.17873 0.000682924 0)
(1.33041 0.036368 0)
(1.35345 0.0483248 0)
(1.35265 0.0508553 0)
(1.34089 0.0529131 0)
(1.3257 0.0531559 0)
(1.31029 0.0523486 0)
(1.29579 0.0508568 0)
(1.28255 0.0488765 0)
(1.27059 0.0465683 0)
(1.25983 0.0440471 0)
(1.25015 0.0413981 0)
(1.24142 0.0386875 0)
(1.23353 0.0359651 0)
(1.22637 0.0332687 0)
(1.21988 0.030626 0)
(1.21399 0.0280564 0)
(1.20867 0.025573 0)
(1.20385 0.0231834 0)
(1.19952 0.0208911 0)
(1.19564 0.0186962 0)
(1.19218 0.0165961 0)
(1.18912 0.0145863 0)
(1.18644 0.0126605 0)
(1.18413 0.010811 0)
(1.18218 0.00902939 0)
(1.18057 0.00730619 0)
(1.17928 0.00563155 0)
(1.17833 0.00399505 0)
(1.1777 0.00238622 0)
(1.17738 0.00079355 0)
(1.33969 0.0612726 0)
(1.35779 0.0712323 0)
(1.35417 0.0710291 0)
(1.34081 0.0706515 0)
(1.32461 0.0687507 0)
(1.30852 0.0660901 0)
(1.29359 0.0629927 0)
(1.28005 0.0596247 0)
(1.26791 0.0561116 0)
(1.25705 0.0525374 0)
(1.24733 0.0489641 0)
(1.23861 0.0454378 0)
(1.23076 0.0419921 0)
(1.22367 0.0386513 0)
(1.21726 0.0354316 0)
(1.21147 0.0323434 0)
(1.20624 0.0293915 0)
(1.20153 0.0265769 0)
(1.19731 0.0238971 0)
(1.19352 0.0213472 0)
(1.19016 0.0189202 0)
(1.18719 0.0166075 0)
(1.1846 0.0143993 0)
(1.18236 0.012285 0)
(1.18047 0.0102532 0)
(1.17891 0.00829171 0)
(1.17767 0.00638841 0)
(1.17675 0.00453055 0)
(1.17614 0.00270545 0)
(1.17584 0.000899637 0)
(1.34649 0.0880846 0)
(1.35941 0.09578 0)
(1.35321 0.0922492 0)
(1.33852 0.089142 0)
(1.32159 0.0848845 0)
(1.30511 0.0801958 0)
(1.28996 0.0753638 0)
(1.27633 0.0705122 0)
(1.26417 0.0657202 0)
(1.25335 0.0610374 0)
(1.2437 0.0564985 0)
(1.23508 0.0521264 0)
(1.22735 0.0479361 0)
(1.2204 0.0439364 0)
(1.21414 0.040131 0)
(1.20849 0.0365197 0)
(1.20341 0.0330984 0)
(1.19885 0.0298604 0)
(1.19475 0.026797 0)
(1.1911 0.0238977 0)
(1.18786 0.0211506 0)
(1.185 0.0185429 0)
(1.1825 0.0160612 0)
(1.18035 0.0136914 0)
(1.17854 0.0114191 0)
(1.17704 0.00922953 0)
(1.17586 0.00710794 0)
(1.17497 0.00503927 0)
(1.17439 0.00300858 0)
(1.1741 0.00100034 0)
(1.3499 0.116282 0)
(1.35787 0.121396 0)
(1.34946 0.11401 0)
(1.33379 0.108006 0)
(1.31649 0.101239 0)
(1.29993 0.0944046 0)
(1.28483 0.087759 0)
(1.27132 0.0813648 0)
(1.25932 0.0752499 0)
(1.24868 0.0694271 0)
(1.23924 0.0639005 0)
(1.23082 0.0586683 0)
(1.2233 0.0537249 0)
(1.21656 0.0490626 0)
(1.21051 0.0446717 0)
(1.20507 0.0405402 0)
(1.20018 0.0366548 0)
(1.19579 0.0330007 0)
(1.19187 0.0295623 0)
(1.18838 0.0263231 0)
(1.18528 0.0232664 0)
(1.18255 0.0203748 0)
(1.18017 0.0176311 0)
(1.17813 0.0150176 0)
(1.1764 0.0125169 0)
(1.17498 0.0101115 0)
(1.17385 0.0077839 0)
(1.17301 0.00551684 0)
(1.17246 0.00329301 0)
(1.17218 0.00109481 0)
(1.34913 0.145222 0)
(1.35281 0.147344 0)
(1.3427 0.135766 0)
(1.32649 0.126816 0)
(1.30923 0.117458 0)
(1.29292 0.108433 0)
(1.27815 0.0999492 0)
(1.26498 0.0919945 0)
(1.25333 0.0845456 0)
(1.24304 0.0775776 0)
(1.23392 0.0710628 0)
(1.22583 0.0649731 0)
(1.21861 0.0592822 0)
(1.21216 0.0539654 0)
(1.20638 0.0489985 0)
(1.20119 0.0443579 0)
(1.19655 0.0400205 0)
(1.19238 0.0359632 0)
(1.18867 0.0321633 0)
(1.18536 0.0285983 0)
(1.18243 0.0252461 0)
(1.17986 0.0220849 0)
(1.17762 0.0190935 0)
(1.17569 0.0162508 0)
(1.17407 0.0135361 0)
(1.17273 0.0109292 0)
(1.17167 0.00841001 0)
(1.17088 0.00595882 0)
(1.17036 0.00355611 0)
(1.1701 0.00118217 0)
(1.34375 0.174016 -1.37266e-11)
(1.34403 0.172815 -1.21433e-11)
(1.33281 0.156948 0)
(1.31656 0.145117 -9.88799e-12)
(1.29979 0.133171 -8.99099e-12)
(1.28409 0.121988 -2.37128e-28)
(1.26991 0.111697 7.5696e-12)
(1.25733 0.102207 7.00128e-12)
(1.24622 0.0934474 0)
(1.23642 0.0853565 0)
(1.22777 0.0778747 0)
(1.2201 0.0709481 0)
(1.21328 0.0645299 0)
(1.2072 0.0585782 0)
(1.20176 0.053055 0)
(1.19689 0.0479249 0)
(1.19253 0.0431547 0)
(1.18863 0.0387131 0)
(1.18516 0.0345702 0)
(1.18207 0.0306976 0)
(1.17934 0.0270679 3.61844e-12)
(1.17694 0.0236549 7.03753e-12)
(1.17485 0.0204331 3.43233e-12)
(1.17306 0.0173782 0)
(1.17155 0.0144664 -3.29603e-12)
(1.1703 0.0116745 -3.24492e-12)
(1.16932 0.00897999 0)
(1.16859 0.00636084 -3.17455e-12)
(1.1681 0.00379527 -3.15469e-12)
(1.16786 0.00126156 -9.06744e-29)
(1.33365 0.201723 1.37278e-11)
(1.3315 0.197019 1.21433e-11)
(1.31983 0.176995 0)
(1.30409 0.162456 9.88799e-12)
(1.28823 0.148015 8.99099e-12)
(1.27347 0.13478 2.37128e-28)
(1.26018 0.122767 -7.5696e-12)
(1.24839 0.111809 -7.00128e-12)
(1.23801 0.101796 0)
(1.22887 0.0926318 0)
(1.22081 0.0842256 0)
(1.21368 0.0765004 0)
(1.20735 0.0693896 0)
(1.20171 0.0628351 0)
(1.19667 0.0567852 0)
(1.19217 0.0511932 0)
(1.18815 0.0460165 0)
(1.18456 0.0412154 0)
(1.18136 0.0367534 0)
(1.17852 0.0325959 0)
(1.17601 0.0287105 -3.61844e-12)
(1.17381 0.0250665 -7.03753e-12)
(1.1719 0.0216347 -3.43233e-12)
(1.17025 0.0183873 0)
(1.16886 0.0152974 3.29603e-12)
(1.16772 0.0123392 3.24492e-12)
(1.16682 0.00948769 0)
(1.16615 0.00671857 3.17455e-12)
(1.16571 0.00400796 3.15469e-12)
(1.16549 0.00133213 9.06744e-29)
(1.31903 0.22746 0)
(1.31539 0.219228 0)
(1.30393 0.195395 0)
(1.28924 0.178412 0)
(1.27469 0.161653 0)
(1.26117 0.146542 0)
(1.24902 0.132938 0)
(1.23826 0.120617 0)
(1.22877 0.10944 0)
(1.22043 0.0992764 0)
(1.21309 0.0900094 0)
(1.2066 0.0815405 0)
(1.20084 0.0737857 0)
(1.19572 0.0666717 0)
(1.19115 0.0601344 0)
(1.18707 0.0541164 0)
(1.18344 0.0485661 0)
(1.18019 0.0434364 0)
(1.1773 0.0386839 0)
(1.17474 0.0342685 0)
(1.17248 0.0301529 0)
(1.17049 0.0263023 0)
(1.16876 0.0226836 0)
(1.16728 0.0192658 0)
(1.16603 0.0160193 0)
(1.16501 0.0129155 0)
(1.16419 0.0099272 0)
(1.16359 0.00702789 0)
(1.16319 0.00419171 0)
(1.16299 0.00139308 0)
(1.30033 0.250484 0)
(1.29604 0.238827 0)
(1.28543 0.211715 0)
(1.27225 0.192615 0)
(1.25936 0.173792 0)
(1.24737 0.157031 0)
(1.23658 0.142008 0)
(1.22701 0.128465 0)
(1.21859 0.116239 0)
(1.21118 0.105173 0)
(1.20466 0.0951264 0)
(1.1989 0.0859842 0)
(1.1938 0.0776465 0)
(1.18927 0.0700271 0)
(1.18523 0.0630506 0)
(1.18163 0.0566502 0)
(1.17842 0.050766 0)
(1.17555 0.0453438 0)
(1.17301 0.0403343 0)
(1.17075 0.0356921 0)
(1.16875 0.0313755 0)
(1.167 0.0273456 0)
(1.16548 0.0235659 0)
(1.16417 0.0200024 0)
(1.16307 0.0166227 0)
(1.16217 0.0133961 0)
(1.16145 0.0102929 0)
(1.16092 0.00728491 0)
(1.16057 0.00434424 0)
(1.16039 0.00144364 0)
(1.27819 0.27023 0)
(1.27391 0.25535 0)
(1.26469 0.22562 0)
(1.25345 0.204771 0)
(1.24249 0.184193 0)
(1.23224 0.166047 0)
(1.223 0.149806 0)
(1.2148 0.135207 0)
(1.20756 0.12207 0)
(1.2012 0.110215 0)
(1.19561 0.0994872 0)
(1.19067 0.089755 0)
(1.1863 0.0809068 0)
(1.18241 0.0728456 0)
(1.17896 0.0654862 0)
(1.17588 0.0587538 0)
(1.17313 0.0525811 0)
(1.17068 0.0469078 0)
(1.1685 0.0416792 0)
(1.16657 0.0368452 0)
(1.16487 0.03236 0)
(1.16337 0.0281809 0)
(1.16207 0.0242687 0)
(1.16095 0.0205863 0)
(1.16001 0.0170991 0)
(1.15923 0.0137741 0)
(1.15862 0.0105798 0)
(1.15816 0.00748603 0)
(1.15786 0.00446341 0)
(1.15771 0.00148312 0)
(1.25332 0.286327 0)
(1.24954 0.268495 0)
(1.24218 0.236885 0)
(1.23318 0.214661 0)
(1.22436 0.192677 0)
(1.21602 0.173431 0)
(1.20847 0.156192 0)
(1.20175 0.140723 0)
(1.19582 0.126829 0)
(1.1906 0.114315 0)
(1.18602 0.103014 0)
(1.18197 0.0927857 0)
(1.17839 0.0835088 0)
(1.17521 0.0750772 0)
(1.17238 0.0673983 0)
(1.16986 0.0603903 0)
(1.16762 0.0539799 0)
(1.16561 0.0481015 0)
(1.16383 0.0426956 0)
(1.16225 0.0377082 0)
(1.16085 0.0330897 0)
(1.15962 0.0287945 0)
(1.15855 0.0247804 0)
(1.15764 0.0210081 0)
(1.15686 0.0174407 0)
(1.15622 0.0140435 0)
(1.15572 0.0107832 0)
(1.15534 0.00762805 0)
(1.15509 0.00454733 0)
(1.15497 0.00151088 0)
(1.22641 0.298584 0)
(1.22349 0.278125 0)
(1.21835 0.245388 0)
(1.21181 0.222149 0)
(1.20525 0.199128 0)
(1.19894 0.179068 0)
(1.19319 0.161064 0)
(1.18804 0.14492 0)
(1.18349 0.130432 0)
(1.1795 0.117397 0)
(1.17598 0.105642 0)
(1.17289 0.0950198 0)
(1.17015 0.085403 0)
(1.16773 0.0766792 0)
(1.16557 0.0687499 0)
(1.16364 0.0615278 0)
(1.16192 0.054935 0)
(1.16039 0.0489013 0)
(1.15903 0.0433634 0)
(1.15781 0.0382639 0)
(1.15674 0.0335502 0)
(1.15579 0.029174 0)
(1.15497 0.0250909 0)
(1.15426 0.0212594 0)
(1.15366 0.0176409 0)
(1.15316 0.0141989 0)
(1.15277 0.0108991 0)
(1.15248 0.00770821 0)
(1.15228 0.00459438 0)
(1.15219 0.00152639 0)
(1.19812 0.306964 0)
(1.19633 0.284251 0)
(1.19367 0.251095 0)
(1.1897 0.227174 0)
(1.18546 0.203484 0)
(1.18124 0.18289 0)
(1.17734 0.164353 0)
(1.17383 0.147732 0)
(1.17073 0.132819 0)
(1.168 0.119405 0)
(1.16562 0.10732 0)
(1.16352 0.0964121 0)
(1.16167 0.0865496 0)
(1.16003 0.0776165 0)
(1.15857 0.0695103 0)
(1.15727 0.0621398 0)
(1.1561 0.0554234 0)
(1.15506 0.0492875 0)
(1.15413 0.0436659 0)
(1.1533 0.0384982 0)
(1.15256 0.0337295 0)
(1.15191 0.0293095 0)
(1.15133 0.0251918 0)
(1.15084 0.0213333 0)
(1.15042 0.017694 0)
(1.15007 0.0142362 0)
(1.1498 0.0109243 0)
(1.14959 0.00772425 0)
(1.14945 0.00460322 0)
(1.14938 0.00152921 0)
(1.16902 0.31156 0)
(1.1686 0.286999 0)
(1.16856 0.254044 0)
(1.16717 0.22974 0)
(1.16526 0.205733 0)
(1.16314 0.184864 0)
(1.16113 0.16602 0)
(1.15929 0.149119 0)
(1.15766 0.133947 0)
(1.15625 0.120301 0)
(1.15502 0.108012 0)
(1.15395 0.0969286 0)
(1.15301 0.0869179 0)
(1.15219 0.0778619 0)
(1.15145 0.0696556 0)
(1.1508 0.0622054 0)
(1.1502 0.055427 0)
(1.14967 0.0492446 0)
(1.14919 0.0435896 0)
(1.14875 0.0383997 0)
(1.14836 0.0336182 0)
(1.148 0.0291931 0)
(1.14769 0.0250766 0)
(1.14742 0.0212246 0)
(1.14718 0.0175958 0)
(1.14699 0.0141519 0)
(1.14683 0.0108563 0)
(1.14671 0.00767446 0)
(1.14663 0.00457285 0)
(1.14659 0.001519 0)
(1.13961 0.312564 0)
(1.14077 0.286579 0)
(1.14339 0.254324 0)
(1.14454 0.229904 0)
(1.14491 0.205901 0)
(1.14489 0.184993 0)
(1.14475 0.166056 0)
(1.14458 0.149063 0)
(1.14444 0.133795 0)
(1.14435 0.12006 0)
(1.1443 0.107694 0)
(1.14428 0.0965468 0)
(1.14428 0.086487 0)
(1.14428 0.0773963 0)
(1.14429 0.0691688 0)
(1.14429 0.0617096 0)
(1.14428 0.0549329 0)
(1.14426 0.0487614 0)
(1.14424 0.0431252 0)
(1.1442 0.0379606 0)
(1.14416 0.0332096 0)
(1.14412 0.0288193 0)
(1.14407 0.0247409 0)
(1.14402 0.0209296 0)
(1.14397 0.0173436 0)
(1.14392 0.0139439 0)
(1.14389 0.0106936 0)
(1.14386 0.00755773 0)
(1.14384 0.00450263 0)
(1.14383 0.00149556 0)
(1.11029 0.310231 0)
(1.11324 0.283245 0)
(1.11848 0.252056 0)
(1.12205 0.227764 0)
(1.12464 0.204045 0)
(1.12667 0.183305 0)
(1.12838 0.164477 0)
(1.12986 0.147567 0)
(1.13121 0.132359 0)
(1.13244 0.118674 0)
(1.13357 0.106354 0)
(1.13461 0.0952547 0)
(1.13555 0.0852451 0)
(1.13639 0.0762086 0)
(1.13715 0.0680397 0)
(1.13781 0.0606433 0)
(1.13839 0.0539331 0)
(1.1389 0.0478313 0)
(1.13933 0.042267 0)
(1.1397 0.0371761 0)
(1.14002 0.0324999 0)
(1.14028 0.0281851 0)
(1.14049 0.0241824 0)
(1.14067 0.0204467 0)
(1.14081 0.016936 0)
(1.14092 0.0136111 0)
(1.141 0.0104354 0)
(1.14106 0.0073736 0)
(1.1411 0.00439228 0)
(1.14112 0.0014588 0)
(1.08138 0.304838 0)
(1.08636 0.277249 0)
(1.09408 0.247398 0)
(1.09995 0.223444 0)
(1.10466 0.200239 0)
(1.10867 0.179853 0)
(1.11217 0.161313 0)
(1.11528 0.144648 0)
(1.11808 0.129648 0)
(1.12063 0.116147 0)
(1.12294 0.103994 0)
(1.12502 0.0930503 0)
(1.12691 0.0831888 0)
(1.12859 0.0742951 0)
(1.13009 0.0662647 0)
(1.13142 0.0590034 0)
(1.13259 0.0524251 0)
(1.13362 0.046452 0)
(1.13452 0.0410135 0)
(1.13529 0.0360452 0)
(1.13596 0.0314885 0)
(1.13653 0.0272901 0)
(1.13701 0.0234008 0)
(1.13741 0.0197757 0)
(1.13773 0.0163731 0)
(1.13799 0.0131539 0)
(1.1382 0.0100819 0)
(1.13834 0.00712227 0)
(1.13844 0.00424195 0)
(1.13849 0.00140877 0)
(1.05316 0.296671 0)
(1.06036 0.26883 0)
(1.07036 0.240515 0)
(1.07839 0.217076 0)
(1.08514 0.194569 0)
(1.09105 0.174698 0)
(1.09628 0.15661 0)
(1.10097 0.140339 0)
(1.1052 0.125684 0)
(1.10904 0.112493 0)
(1.1125 0.100623 0)
(1.11563 0.0899403 0)
(1.11844 0.0803232 0)
(1.12095 0.0716595 0)
(1.1232 0.0638469 0)
(1.12519 0.0567924 0)
(1.12694 0.0504112 0)
(1.12849 0.0446261 0)
(1.12984 0.039367 0)
(1.13101 0.0345702 0)
(1.13203 0.0301777 0)
(1.1329 0.0261366 0)
(1.13364 0.0223985 0)
(1.13426 0.0189188 0)
(1.13477 0.0156567 0)
(1.13518 0.0125738 0)
(1.1355 0.00963438 0)
(1.13573 0.00680464 0)
(1.13589 0.00405217 0)
(1.13596 0.00134564 0)
(1.02585 0.28602 0)
(1.03537 0.258225 0)
(1.04746 0.231559 0)
(1.05754 0.208786 0)
(1.06622 0.187127 0)
(1.07394 0.167913 0)
(1.08085 0.150421 0)
(1.08706 0.134678 0)
(1.09268 0.120496 0)
(1.09777 0.107735 0)
(1.10236 0.0962583 0)
(1.10651 0.0859396 0)
(1.11023 0.0766603 0)
(1.11356 0.0683122 0)
(1.11653 0.0607953 0)
(1.11917 0.0540187 0)
(1.1215 0.0478989 0)
(1.12355 0.0423603 0)
(1.12534 0.0373339 0)
(1.12691 0.0327572 0)
(1.12827 0.0285731 0)
(1.12943 0.0247297 0)
(1.13042 0.0211798 0)
(1.13125 0.01788 0)
(1.13194 0.0147902 0)
(1.1325 0.0118735 0)
(1.13293 0.00909509 0)
(1.13325 0.00642232 0)
(1.13346 0.00382393 0)
(1.13356 0.00126975 0)
(0.999585 0.273149 0)
(1.0115 0.245644 0)
(1.02549 0.220668 0)
(1.03751 0.198695 0)
(1.04803 0.178003 0)
(1.05748 0.159571 0)
(1.06599 0.142804 0)
(1.07367 0.127713 0)
(1.08063 0.114123 0)
(1.08693 0.101904 0)
(1.09262 0.0909268 0)
(1.09775 0.0810698 0)
(1.10236 0.0722191 0)
(1.10648 0.0642698 0)
(1.11016 0.057125 0)
(1.11342 0.0506956 0)
(1.11631 0.0449007 0)
(1.11885 0.0396661 0)
(1.12108 0.0349248 0)
(1.12302 0.0306156 0)
(1.12471 0.0266831 0)
(1.12615 0.0230771 0)
(1.12739 0.0197518 0)
(1.12843 0.0166652 0)
(1.12929 0.0137789 0)
(1.12998 0.0110573 0)
(1.13052 0.00846728 0)
(1.13092 0.00597764 0)
(1.13118 0.00355863 0)
(1.13131 0.00118157 0)
(0.974446 0.258276 0)
(0.988788 0.231262 0)
(1.00454 0.207968 0)
(1.01839 0.18691 0)
(1.03068 0.167281 0)
(1.04178 0.149746 0)
(1.0518 0.133819 0)
(1.06089 0.119493 0)
(1.06914 0.106606 0)
(1.07661 0.0950363 0)
(1.08336 0.0846597 0)
(1.08944 0.0753589 0)
(1.0949 0.0670246 0)
(1.09979 0.059555 0)
(1.10415 0.0528563 0)
(1.10801 0.0468421 0)
(1.11143 0.0414336 0)
(1.11445 0.0365592 0)
(1.11709 0.0321538 0)
(1.11939 0.0281584 0)
(1.12139 0.0245197 0)
(1.12311 0.0211894 0)
(1.12457 0.0181236 0)
(1.1258 0.0152824 0)
(1.12683 0.0126293 0)
(1.12765 0.0101307 0)
(1.1283 0.00775525 0)
(1.12877 0.00547368 0)
(1.12908 0.00325809 0)
(1.12924 0.00108169 0)
(0.950464 0.241572 0)
(0.967266 0.215209 0)
(0.984674 0.193566 0)
(1.00028 0.173527 0)
(1.01424 0.155044 0)
(1.02692 0.138506 0)
(1.03841 0.123525 0)
(1.04884 0.11007 0)
(1.05832 0.097992 0)
(1.06691 0.0871734 0)
(1.07467 0.0774938 0)
(1.08166 0.0688404 0)
(1.08794 0.0611072 0)
(1.09356 0.0541958 0)
(1.09856 0.0480151 0)
(1.103 0.0424818 0)
(1.10693 0.0375196 0)
(1.11038 0.0330596 0)
(1.11341 0.0290393 0)
(1.11606 0.0254022 0)
(1.11835 0.0220976 0)
(1.12032 0.0190796 0)
(1.122 0.0163068 0)
(1.12341 0.0137416 0)
(1.12459 0.01135 0)
(1.12553 0.00910054 0)
(1.12627 0.00696431 0)
(1.12682 0.00491421 0)
(1.12718 0.00292461 0)
(1.12735 0.000970897 0)
(0.92764 0.22318 0)
(0.946937 0.197588 0)
(0.96595 0.177551 0)
(0.983242 0.158627 0)
(0.998816 0.141361 0)
(1.01299 0.125917 0)
(1.02588 0.111979 0)
(1.03761 0.0994968 0)
(1.04826 0.0883293 0)
(1.05791 0.0783597 0)
(1.06664 0.0694708 0)
(1.0745 0.0615529 0)
(1.08155 0.054503 0)
(1.08785 0.0482255 0)
(1.09346 0.0426325 0)
(1.09844 0.0376433 0)
(1.10284 0.033185 0)
(1.10671 0.0291915 0)
(1.1101 0.0256033 0)
(1.11306 0.022367 0)
(1.11562 0.0194348 0)
(1.11782 0.0167637 0)
(1.1197 0.0143153 0)
(1.12128 0.0120549 0)
(1.12259 0.00995097 0)
(1.12365 0.00797506 0)
(1.12448 0.00610082 0)
(1.12508 0.00430378 0)
(1.12548 0.00256087 0)