/*--------------------------------*- C++ -*----------------------------------*\
  =========                 |
  \\      /  F ield         | OpenFOAM: The Open Source CFD Toolbox
   \\    /   O peration     | Website:  https://openfoam.org
    \\  /    A nd           | Version:  7
     \\/     M anipulation  |
\*---------------------------------------------------------------------------*/
FoamFile
{
    version     2.0;
    format      ascii;
    class       volScalarField;
    location    "40";
    object      p;
}
// * * * * * * * * * * * * * * * * * * * * * * * * * * * * * * * * * * * * * //

dimensions      [0 2 -2 0 0 0 0];

internalField   nonuniform List<scalar> 
1360
(
-0.12184
-0.117498
-0.11329
-0.109215
-0.105272
-0.10146
-0.0977759
-0.0942179
-0.0907835
-0.0874698
-0.0842742
-0.0811935
-0.0782246
-0.0753645
-0.0726097
-0.069957
-0.0674031
-0.0649448
-0.0625786
-0.0603014
-0.05811
-0.0560012
-0.0539719
-0.052019
-0.0501397
-0.0483309
-0.0465899
-0.044914
-0.0433004
-0.0417467
-0.0402504
-0.0388091
-0.0374204
-0.0360822
-0.0347923
-0.0335486
-0.0323492
-0.0311922
-0.0300758
-0.0289982
-0.0279577
-0.0269528
-0.0259819
-0.0250435
-0.0241363
-0.023259
-0.0224101
-0.0215886
-0.0207933
-0.020023
-0.122543
-0.118178
-0.113948
-0.109853
-0.105889
-0.102057
-0.0983534
-0.0947766
-0.0913239
-0.0879926
-0.0847798
-0.0816825
-0.0786975
-0.0758217
-0.0730517
-0.0703844
-0.0678163
-0.0653441
-0.0629646
-0.0606745
-0.0584706
-0.0563497
-0.0543087
-0.0523445
-0.0504541
-0.0486348
-0.0468836
-0.0451977
-0.0435746
-0.0420117
-0.0405065
-0.0390565
-0.0376595
-0.0363133
-0.0350156
-0.0337644
-0.0325578
-0.0313938
-0.0302706
-0.0291864
-0.0281397
-0.0271286
-0.0261519
-0.0252078
-0.0242951
-0.0234124
-0.0225585
-0.021732
-0.0209318
-0.0201569
-0.123892
-0.119487
-0.115218
-0.111084
-0.107084
-0.103215
-0.0994768
-0.0958657
-0.0923796
-0.0890157
-0.0857711
-0.0826428
-0.0796276
-0.0767224
-0.0739238
-0.0712285
-0.0686333
-0.0661348
-0.0637297
-0.0614147
-0.0591867
-0.0570423
-0.0549786
-0.0529924
-0.0510807
-0.0492406
-0.0474693
-0.0457641
-0.0441222
-0.0425411
-0.0410183
-0.0395513
-0.0381379
-0.0367757
-0.0354626
-0.0341965
-0.0329755
-0.0317976
-0.0306609
-0.0295638
-0.0285044
-0.0274812
-0.0264927
-0.0255373
-0.0246136
-0.0237203
-0.022856
-0.0220196
-0.0212098
-0.0204255
-0.0196657
-0.12133
-0.117014
-0.112833
-0.108787
-0.104873
-0.10109
-0.0974349
-0.0939054
-0.0904987
-0.0872121
-0.0840424
-0.0809865
-0.0780414
-0.0752036
-0.07247
-0.0698371
-0.0673019
-0.0648608
-0.0625108
-0.0602485
-0.0580708
-0.0559745
-0.0539566
-0.0520142
-0.0501442
-0.0483438
-0.0466104
-0.0449411
-0.0433334
-0.0417847
-0.0402927
-0.038855
-0.0374693
-0.0361335
-0.0348453
-0.033603
-0.0324044
-0.0312477
-0.0301311
-0.029053
-0.0280117
-0.0270055
-0.0260331
-0.025093
-0.0241837
-0.023304
-0.0224527
-0.0216284
-0.0208302
-0.0200568
-0.123596
-0.119234
-0.115008
-0.110915
-0.106955
-0.103126
-0.0994238
-0.0958472
-0.0923935
-0.0890597
-0.085843
-0.0827403
-0.0797486
-0.0768646
-0.0740852
-0.0714072
-0.0688273
-0.0663423
-0.063949
-0.0616442
-0.0594248
-0.0572878
-0.0552299
-0.0532484
-0.0513403
-0.0495027
-0.047733
-0.0460283
-0.0443862
-0.0428041
-0.0412795
-0.0398101
-0.0383937
-0.037028
-0.0357109
-0.0344404
-0.0332145
-0.0320314
-0.0308892
-0.0297863
-0.0287208
-0.0276914
-0.0266963
-0.0257343
-0.0248038
-0.0239036
-0.0230324
-0.0221889
-0.021372
-0.0205805
-0.121704
-0.117446
-0.11332
-0.109323
-0.105455
-0.101713
-0.0980936
-0.094596
-0.091217
-0.087954
-0.0848043
-0.0817648
-0.0788326
-0.0760048
-0.0732782
-0.0706499
-0.0681166
-0.0656754
-0.0633231
-0.0610568
-0.0588734
-0.0567699
-0.0547435
-0.0527913
-0.0509105
-0.0490984
-0.0473523
-0.0456697
-0.044048
-0.0424849
-0.040978
-0.0395249
-0.0381236
-0.0367718
-0.0354676
-0.0342089
-0.0329939
-0.0318208
-0.0306878
-0.0295933
-0.0285355
-0.0275131
-0.0265244
-0.0255682
-0.0246429
-0.0237475
-0.0228804
-0.0220408
-0.0212272
-0.120227
-0.116071
-0.112042
-0.108137
-0.104356
-0.100695
-0.0971539
-0.0937289
-0.0904181
-0.087219
-0.084129
-0.0811453
-0.0782652
-0.0754858
-0.0728042
-0.0702176
-0.0677231
-0.0653177
-0.0629985
-0.0607627
-0.0586073
-0.0565296
-0.0545269
-0.0525963
-0.0507353
-0.0489412
-0.0472115
-0.0455437
-0.0439354
-0.0423843
-0.0408882
-0.0394448
-0.038052
-0.0367078
-0.0354102
-0.0341574
-0.0329474
-0.0317785
-0.0306491
-0.0295575
-0.0285022
-0.0274816
-0.0264943
-0.025539
-0.0246142
-0.0237189
-0.0228517
-0.0220115
-0.0211972
-0.119072
-0.115059
-0.111161
-0.107376
-0.103705
-0.100144
-0.096694
-0.0933517
-0.0901158
-0.0869842
-0.0839549
-0.0810257
-0.0781943
-0.0754583
-0.0728152
-0.0702625
-0.0677978
-0.0654184
-0.0631218
-0.0609054
-0.0587666
-0.0567029
-0.0547117
-0.0527905
-0.0509369
-0.0491484
-0.0474228
-0.0457577
-0.0441507
-0.0425999
-0.0411029
-0.0396577
-0.0382624
-0.0369149
-0.0356134
-0.034356
-0.0331411
-0.0319668
-0.0308316
-0.0297339
-0.0286722
-0.027645
-0.0266509
-0.0256887
-0.0247569
-0.0238545
-0.0229801
-0.0221327
-0.115391
-0.111562
-0.107839
-0.104223
-0.100713
-0.0973073
-0.0940047
-0.0908038
-0.087703
-0.0847005
-0.0817943
-0.0789826
-0.0762631
-0.0736337
-0.071092
-0.0686358
-0.0662627
-0.0639703
-0.0617562
-0.059618
-0.0575533
-0.0555597
-0.0536349
-0.0517765
-0.0499822
-0.0482497
-0.046577
-0.0449617
-0.0434018
-0.0418952
-0.0404399
-0.039034
-0.0376755
-0.0363627
-0.0350938
-0.033867
-0.0326808
-0.0315334
-0.0304234
-0.0293494
-0.0283098
-0.0273033
-0.0263286
-0.0253844
-0.0244695
-0.0235827
-0.022723
-0.0218893
-0.112648
-0.109125
-0.105688
-0.102337
-0.0990729
-0.0958956
-0.0928046
-0.0897994
-0.0868794
-0.0840435
-0.0812908
-0.07862
-0.0760298
-0.0735186
-0.0710849
-0.068727
-0.0664432
-0.0642317
-0.0620906
-0.0600182
-0.0580125
-0.0560715
-0.0541935
-0.0523764
-0.0506184
-0.0489177
-0.0472722
-0.0456804
-0.0441402
-0.04265
-0.041208
-0.0398126
-0.038462
-0.0371547
-0.0358891
-0.0346638
-0.0334771
-0.0323278
-0.0312143
-0.0301354
-0.0290898
-0.0280762
-0.0270935
-0.0261404
-0.0252159
-0.0243189
-0.0234483
-0.0226032
-0.110056
-0.10682
-0.10365
-0.100548
-0.0975151
-0.0945527
-0.0916612
-0.0888409
-0.086092
-0.0834143
-0.0808074
-0.078271
-0.0758043
-0.0734064
-0.0710765
-0.0688135
-0.0666161
-0.0644832
-0.0624134
-0.0604054
-0.0584576
-0.0565686
-0.054737
-0.0529613
-0.0512398
-0.049571
-0.0479535
-0.0463857
-0.0448661
-0.0433932
-0.0419655
-0.0405816
-0.03924
-0.0379394
-0.0366783
-0.0354555
-0.0342696
-0.0331194
-0.0320036
-0.030921
-0.0298705
-0.0288509
-0.0278612
-0.0269002
-0.025967
-0.0250606
-0.02418
-0.0233243
-0.107079
-0.10415
-0.101267
-0.0984341
-0.0956521
-0.0929233
-0.0902493
-0.0876313
-0.0850702
-0.0825666
-0.080121
-0.0777337
-0.0754045
-0.0731335
-0.0709201
-0.0687641
-0.0666647
-0.0646213
-0.062633
-0.0606991
-0.0588186
-0.0569903
-0.0552134
-0.0534866
-0.0518088
-0.0501788
-0.0485956
-0.0470577
-0.0455642
-0.0441137
-0.0427051
-0.0413371
-0.0400086
-0.0387184
-0.0374653
-0.0362482
-0.035066
-0.0339176
-0.0328019
-0.0317178
-0.0306644
-0.0296406
-0.0286455
-0.0276781
-0.0267375
-0.0258228
-0.0249332
-0.0240678
-0.103864
-0.101246
-0.0986556
-0.0960963
-0.093571
-0.0910824
-0.0886328
-0.0862243
-0.0838584
-0.0815367
-0.0792601
-0.0770296
-0.0748459
-0.0727093
-0.0706202
-0.0685787
-0.0665847
-0.0646381
-0.0627386
-0.0608857
-0.0590791
-0.0573181
-0.055602
-0.0539302
-0.0523019
-0.0507163
-0.0491726
-0.0476699
-0.0462072
-0.0447838
-0.0433986
-0.0420507
-0.0407392
-0.0394631
-0.0382215
-0.0370134
-0.035838
-0.0346943
-0.0335815
-0.0324985
-0.0314445
-0.0304188
-0.0294204
-0.0284485
-0.0275022
-0.0265809
-0.0256838
-0.02481
-0.100531
-0.0982164
-0.0959122
-0.0936224
-0.0913505
-0.0891001
-0.0868739
-0.0846748
-0.0825049
-0.0803663
-0.0782607
-0.0761896
-0.0741541
-0.0721553
-0.070194
-0.0682708
-0.0663863
-0.0645406
-0.062734
-0.0609665
-0.0592381
-0.0575486
-0.0558977
-0.0542853
-0.0527107
-0.0511737
-0.0496736
-0.0482099
-0.0467821
-0.0453894
-0.0440313
-0.0427071
-0.041416
-0.0401573
-0.0389304
-0.0377344
-0.0365687
-0.0354325
-0.0343251
-0.0332457
-0.0321937
-0.0311682
-0.0301686
-0.0291942
-0.0282443
-0.0273182
-0.0264153
-0.0255348
-0.0971723
-0.0951466
-0.0931157
-0.0910842
-0.0890563
-0.087036
-0.0850267
-0.0830315
-0.0810533
-0.0790945
-0.0771574
-0.0752438
-0.0733556
-0.0714942
-0.0696608
-0.0678566
-0.0660825
-0.0643391
-0.0626271
-0.060947
-0.059299
-0.0576834
-0.0561003
-0.0545498
-0.0530318
-0.051546
-0.0500925
-0.0486708
-0.0472806
-0.0459217
-0.0445936
-0.0432958
-0.0420279
-0.0407894
-0.0395798
-0.0383986
-0.0372451
-0.0361189
-0.0350194
-0.033946
-0.032898
-0.0318751
-0.0308764
-0.0299016
-0.0289499
-0.0280209
-0.0271139
-0.0262284
-0.0938708
-0.0921138
-0.0903383
-0.0885493
-0.0867513
-0.0849487
-0.0831452
-0.0813444
-0.0795494
-0.0777632
-0.0759884
-0.0742272
-0.0724819
-0.0707542
-0.0690459
-0.0673584
-0.0656929
-0.0640507
-0.0624327
-0.0608396
-0.0592721
-0.0577309
-0.0562163
-0.0547286
-0.0532682
-0.0518352
-0.0504296
-0.0490515
-0.0477008
-0.0463774
-0.0450811
-0.0438118
-0.0425691
-0.0413529
-0.0401627
-0.0389982
-0.0378591
-0.0367449
-0.0356553
-0.0345898
-0.033548
-0.0325294
-0.0315336
-0.0305602
-0.0296086
-0.0286784
-0.0277691
-0.0268802
-0.0906899
-0.0891791
-0.0876385
-0.0860734
-0.0844884
-0.0828881
-0.0812767
-0.0796578
-0.0780349
-0.0764113
-0.0747899
-0.0731733
-0.0715639
-0.0699639
-0.0683754
-0.0668
-0.0652395
-0.0636952
-0.0621683
-0.0606601
-0.0591714
-0.0577032
-0.0562561
-0.0548307
-0.0534277
-0.0520473
-0.0506899
-0.0493558
-0.0480452
-0.0467581
-0.0454947
-0.0442549
-0.0430386
-0.0418458
-0.0406764
-0.0395301
-0.0384067
-0.0373061
-0.0362279
-0.0351719
-0.0341378
-0.0331252
-0.0321339
-0.0311634
-0.0302134
-0.0292836
-0.0283735
-0.0274828
-0.0876781
-0.0863899
-0.0850624
-0.0837011
-0.0823107
-0.0808958
-0.0794609
-0.0780097
-0.076546
-0.0750733
-0.0735946
-0.0721128
-0.0706307
-0.0691506
-0.0676748
-0.0662054
-0.0647442
-0.0632928
-0.0618529
-0.0604258
-0.0590127
-0.0576147
-0.0562328
-0.0548678
-0.0535205
-0.0521915
-0.0508815
-0.0495908
-0.0483198
-0.0470689
-0.0458383
-0.0446282
-0.0434387
-0.0422699
-0.0411218
-0.0399944
-0.0388877
-0.0378016
-0.0367359
-0.0356905
-0.0346652
-0.0336598
-0.032674
-0.0317078
-0.0307607
-0.0298325
-0.028923
-0.0280318
-0.0848719
-0.0837825
-0.082646
-0.0814678
-0.0802529
-0.0790057
-0.0777308
-0.0764322
-0.0751137
-0.0737789
-0.072431
-0.0710732
-0.0697084
-0.068339
-0.0669677
-0.0655967
-0.064228
-0.0628635
-0.061505
-0.060154
-0.0588121
-0.0574804
-0.0561602
-0.0548526
-0.0535585
-0.0522787
-0.051014
-0.0497651
-0.0485325
-0.0473167
-0.0461181
-0.0449372
-0.0437741
-0.0426291
-0.0415024
-0.0403941
-0.0393042
-0.038233
-0.0371802
-0.036146
-0.0351302
-0.0341327
-0.0331535
-0.0321923
-0.0312491
-0.0303235
-0.0294155
-0.0285248
-0.0822985
-0.0813845
-0.0804171
-0.0794015
-0.0783427
-0.0772452
-0.0761135
-0.0749517
-0.0737638
-0.0725533
-0.0713237
-0.0700782
-0.0688199
-0.0675514
-0.0662754
-0.0649943
-0.0637103
-0.0624256
-0.061142
-0.0598614
-0.0585852
-0.0573151
-0.0560523
-0.0547982
-0.0535538
-0.0523201
-0.0510981
-0.0498886
-0.0486922
-0.0475098
-0.0463418
-0.0451887
-0.0440509
-0.0429289
-0.041823
-0.0407333
-0.0396601
-0.0386036
-0.0375638
-0.0365409
-0.0355348
-0.0345456
-0.0335733
-0.0326178
-0.031679
-0.0307568
-0.029851
-0.0289617
-0.0799782
-0.0792169
-0.0783971
-0.0775239
-0.0766021
-0.0756364
-0.074631
-0.0735903
-0.072518
-0.0714179
-0.0702936
-0.0691482
-0.067985
-0.0668068
-0.0656163
-0.0644161
-0.0632085
-0.0619958
-0.06078
-0.059563
-0.0583467
-0.0571325
-0.0559221
-0.0547169
-0.053518
-0.0523267
-0.0511439
-0.0499708
-0.0488081
-0.0476566
-0.046517
-0.04539
-0.044276
-0.0431756
-0.0420893
-0.0410173
-0.03996
-0.0389176
-0.0378904
-0.0368785
-0.0358821
-0.0349012
-0.0339359
-0.0329862
-0.0320521
-0.0311336
-0.0302306
-0.0293431
-0.0779257
-0.0772955
-0.0766026
-0.0758521
-0.0750487
-0.0741969
-0.0733012
-0.0723656
-0.0713941
-0.0703904
-0.0693581
-0.0683004
-0.0672207
-0.0661218
-0.0650066
-0.0638777
-0.0627376
-0.0615887
-0.060433
-0.0592726
-0.0581095
-0.0569453
-0.0557817
-0.0546201
-0.0534621
-0.0523088
-0.0511614
-0.0500211
-0.0488888
-0.0477653
-0.0466516
-0.0455483
-0.044456
-0.0433755
-0.0423072
-0.0412515
-0.040209
-0.0391798
-0.0381643
-0.0371629
-0.0361755
-0.0352026
-0.0342441
-0.0333001
-0.0323708
-0.0314561
-0.0305561
-0.0296707
-0.076152
-0.075632
-0.0750461
-0.0743992
-0.073696
-0.072941
-0.0721384
-0.0712923
-0.0704067
-0.0694853
-0.0685317
-0.0675492
-0.0665411
-0.0655105
-0.0644601
-0.0633927
-0.0623109
-0.061217
-0.0601134
-0.0590021
-0.0578851
-0.0567644
-0.0556415
-0.0545181
-0.0533957
-0.0522758
-0.0511594
-0.0500479
-0.0489423
-0.0478436
-0.0467527
-0.0456704
-0.0445975
-0.0435346
-0.0424824
-0.0414413
-0.040412
-0.0393947
-0.0383899
-0.0373979
-0.0364189
-0.0354532
-0.0345011
-0.0335625
-0.0326377
-0.0317267
-0.0308296
-0.0299464
-0.0746651
-0.0742352
-0.0737371
-0.0731755
-0.0725548
-0.0718795
-0.0711539
-0.0703819
-0.0695675
-0.0687144
-0.0678263
-0.0669064
-0.065958
-0.0649842
-0.063988
-0.0629721
-0.0619391
-0.0608914
-0.0598315
-0.0587615
-0.0576834
-0.0565993
-0.0555108
-0.0544197
-0.0533275
-0.0522357
-0.0511457
-0.0500587
-0.0489758
-0.0478982
-0.0468268
-0.0457624
-0.044706
-0.0436583
-0.0426199
-0.0415915
-0.0405736
-0.0395666
-0.0385711
-0.0375873
-0.0366157
-0.0356565
-0.0347099
-0.0337761
-0.0328554
-0.0319478
-0.0310534
-0.0301723
-0.0734702
-0.0731116
-0.0726828
-0.0721885
-0.0716332
-0.0710212
-0.0703566
-0.0696435
-0.0688858
-0.0680872
-0.0672512
-0.0663813
-0.0654807
-0.0645525
-0.0635997
-0.062625
-0.0616312
-0.0606207
-0.0595959
-0.0585592
-0.0575125
-0.0564578
-0.0553971
-0.0543321
-0.0532644
-0.0521954
-0.0511268
-0.0500596
-0.0489953
-0.0479348
-0.0468793
-0.0458296
-0.0447868
-0.0437514
-0.0427244
-0.0417063
-0.0406978
-0.0396994
-0.0387115
-0.0377346
-0.0367691
-0.0358152
-0.0348733
-0.0339437
-0.0330264
-0.0321217
-0.0312297
-0.0303505
-0.0725714
-0.0722654
-0.0718881
-0.0714439
-0.0709372
-0.0703722
-0.0697532
-0.0690841
-0.0683687
-0.0676108
-0.0668139
-0.0659814
-0.0651165
-0.0642225
-0.0633023
-0.0623586
-0.0613942
-0.0604117
-0.0594135
-0.0584017
-0.0573787
-0.0563463
-0.0553066
-0.0542613
-0.0532121
-0.0521605
-0.051108
-0.0500559
-0.0490056
-0.0479582
-0.0469147
-0.0458763
-0.0448437
-0.0438178
-0.0427995
-0.0417893
-0.040788
-0.0397961
-0.0388141
-0.0378425
-0.0368817
-0.035932
-0.0349938
-0.0340673
-0.0331527
-0.0322503
-0.0313602
-0.0304825
-0.0719708
-0.0716997
-0.0713564
-0.0709453
-0.0704708
-0.0699371
-0.0693483
-0.0687084
-0.0680211
-0.0672903
-0.0665194
-0.0657118
-0.0648708
-0.0639996
-0.063101
-0.0621781
-0.0612334
-0.0602696
-0.059289
-0.058294
-0.0572868
-0.0562694
-0.0552438
-0.0542117
-0.0531748
-0.0521348
-0.0510932
-0.0500513
-0.0490104
-0.0479718
-0.0469365
-0.0459055
-0.0448799
-0.0438604
-0.042848
-0.0418432
-0.0408467
-0.0398592
-0.0388813
-0.0379132
-0.0369556
-0.0360088
-0.0350731
-0.0341487
-0.033236
-0.0323352
-0.0314464
-0.0305697
-0.0716704
-0.0714166
-0.0710902
-0.0706956
-0.0702372
-0.069719
-0.0691453
-0.0685199
-0.0678467
-0.0671293
-0.0663714
-0.0655762
-0.0647471
-0.0638873
-0.0629996
-0.062087
-0.0611522
-0.0601977
-0.059226
-0.0582394
-0.0572401
-0.0562302
-0.0552116
-0.0541861
-0.0531555
-0.0521214
-0.0510852
-0.0500484
-0.0490122
-0.047978
-0.0469468
-0.0459196
-0.0448975
-0.0438812
-0.0428717
-0.0418696
-0.0408756
-0.0398904
-0.0389144
-0.0379482
-0.0369922
-0.0360468
-0.0351123
-0.0341891
-0.0332774
-0.0323773
-0.0314892
-0.0306131
-0.0215886
-0.0207933
-0.020023
)
;

boundaryField
{
    inlet
    {
        type            zeroGradient;
    }
    outlet
    {
        type            fixedValue;
        value           nonuniform 0();
    }
    cylinder
    {
        type            zeroGradient;
    }
    top
    {
        type            symmetryPlane;
    }
    bottom
    {
        type            symmetryPlane;
    }
    defaultFaces
    {
        type            empty;
    }
    procBoundary6to2
    {
        type            processor;
        value           nonuniform List<scalar> 
51
(
-0.12184
-0.117498
-0.11329
-0.109215
-0.105272
-0.10146
-0.0977759
-0.0942179
-0.0907835
-0.0874698
-0.0842742
-0.0811935
-0.0782246
-0.0753645
-0.0726097
-0.069957
-0.0674031
-0.0649448
-0.0625786
-0.0603014
-0.05811
-0.0560012
-0.0539719
-0.052019
-0.0501397
-0.0483309
-0.0465899
-0.044914
-0.0433004
-0.0417467
-0.0402504
-0.0388091
-0.0374204
-0.0360822
-0.0347923
-0.0335486
-0.0323492
-0.0311922
-0.0300758
-0.0289982
-0.0279577
-0.0269528
-0.0259819
-0.0250435
-0.0241363
-0.023259
-0.0224101
-0.021732
-0.0209318
-0.0201569
-0.0224101
)
;
    }
    procBoundary6to3
    {
        type            processor;
        value           uniform -0.0192766;
    }
    procBoundary6to5
    {
        type            processor;
        value           nonuniform List<scalar> 
33
(
-0.126316
-0.127043
-0.128434
-0.125784
-0.125784
-0.128095
-0.126096
-0.126096
-0.124512
-0.124512
-0.123201
-0.123201
-0.119328
-0.119328
-0.116256
-0.113357
-0.110051
-0.106505
-0.10285
-0.0991875
-0.0956038
-0.0921652
-0.0889214
-0.0859087
-0.0831536
-0.0806755
-0.0784881
-0.0766013
-0.0750218
-0.0737541
-0.0728014
-0.0721652
-0.0718472
)
;
    }
    procBoundary6to7
    {
        type            processor;
        value           nonuniform List<scalar> 
31
(
-0.0192766
-0.019406
-0.019406
-0.0189293
-0.0193073
-0.0198135
-0.0204388
-0.0204388
-0.0204077
-0.0213111
-0.0213111
-0.0210804
-0.0217825
-0.0224926
-0.0232257
-0.023959
-0.0246762
-0.0253638
-0.0260114
-0.0266112
-0.0271586
-0.0276512
-0.0280885
-0.0284709
-0.0287998
-0.0290771
-0.0293046
-0.0294841
-0.0296173
-0.0297053
-0.0297491
)
;
    }
}


// ************************************************************************* //
