/*--------------------------------*- C++ -*----------------------------------*\
  =========                 |
  \\      /  F ield         | OpenFOAM: The Open Source CFD Toolbox
   \\    /   O peration     | Website:  https://openfoam.org
    \\  /    A nd           | Version:  7
     \\/     M anipulation  |
\*---------------------------------------------------------------------------*/
FoamFile
{
    version     2.0;
    format      ascii;
    class       volScalarField;
    location    "15";
    object      p;
}
// * * * * * * * * * * * * * * * * * * * * * * * * * * * * * * * * * * * * * //

dimensions      [0 2 -2 0 0 0 0];

internalField   nonuniform List<scalar> 
49200
(
-0.257988
-0.260013
-0.260947
-0.261755
-0.262448
-0.263076
-0.263686
-0.264295
-0.264912
-0.265539
-0.266172
-0.266808
-0.26744
-0.268065
-0.268677
-0.269276
-0.269859
-0.270429
-0.270991
-0.271554
-0.272135
-0.272758
-0.273451
-0.274245
-0.275229
-0.258107
-0.260115
-0.261042
-0.261844
-0.262532
-0.263157
-0.263763
-0.264369
-0.264984
-0.265608
-0.26624
-0.266873
-0.267504
-0.268126
-0.268737
-0.269332
-0.269912
-0.270477
-0.271033
-0.271588
-0.272158
-0.272768
-0.273447
-0.274217
-0.275181
-0.258342
-0.260317
-0.26123
-0.26202
-0.262699
-0.263316
-0.263916
-0.264516
-0.265126
-0.265746
-0.266373
-0.267003
-0.267629
-0.268247
-0.268853
-0.269443
-0.270016
-0.270572
-0.271116
-0.271655
-0.272204
-0.272789
-0.273438
-0.27416
-0.275084
-0.258692
-0.260617
-0.261509
-0.262282
-0.262946
-0.263552
-0.264142
-0.264733
-0.265335
-0.265948
-0.266569
-0.267192
-0.267812
-0.268424
-0.269022
-0.269604
-0.270166
-0.270709
-0.271235
-0.271751
-0.272269
-0.272816
-0.273421
-0.274074
-0.274934
-0.259151
-0.261011
-0.261875
-0.262625
-0.263271
-0.263861
-0.264437
-0.265016
-0.265607
-0.26621
-0.266821
-0.267435
-0.268047
-0.268649
-0.269238
-0.269808
-0.270356
-0.270882
-0.271384
-0.271869
-0.272347
-0.272844
-0.273392
-0.273957
-0.274726
-0.259712
-0.261495
-0.262325
-0.263046
-0.263668
-0.264237
-0.264795
-0.265359
-0.265936
-0.266525
-0.267124
-0.267726
-0.268326
-0.268916
-0.269492
-0.270047
-0.270578
-0.271081
-0.271556
-0.272003
-0.272432
-0.272868
-0.273347
-0.273807
-0.274453
-0.26037
-0.262062
-0.262852
-0.263539
-0.264131
-0.264676
-0.265212
-0.265756
-0.266314
-0.266887
-0.267469
-0.268056
-0.26864
-0.269215
-0.269775
-0.270312
-0.270822
-0.271299
-0.271741
-0.272146
-0.272519
-0.272884
-0.273281
-0.273626
-0.274108
-0.261115
-0.262706
-0.263451
-0.264097
-0.264656
-0.265171
-0.26568
-0.266199
-0.266734
-0.267285
-0.267848
-0.268415
-0.268981
-0.269536
-0.270076
-0.270591
-0.271076
-0.271524
-0.271929
-0.272288
-0.272599
-0.272885
-0.273191
-0.273416
-0.27368
-0.261939
-0.26342
-0.264114
-0.264716
-0.265235
-0.265715
-0.266191
-0.26668
-0.267188
-0.267713
-0.26825
-0.268794
-0.269336
-0.269868
-0.270384
-0.270874
-0.271331
-0.271746
-0.272111
-0.27242
-0.272667
-0.272867
-0.273074
-0.273182
-0.273135
-0.262833
-0.264198
-0.264837
-0.265388
-0.265862
-0.2663
-0.266738
-0.267192
-0.267666
-0.268159
-0.268666
-0.269181
-0.269695
-0.2702
-0.270688
-0.271149
-0.271574
-0.271953
-0.272277
-0.272534
-0.272715
-0.272825
-0.272922
-0.272942
-0.272435
-0.263787
-0.265032
-0.265611
-0.266106
-0.266529
-0.26692
-0.267314
-0.267725
-0.268159
-0.268615
-0.269087
-0.269567
-0.270048
-0.27052
-0.270975
-0.271403
-0.271794
-0.272135
-0.272415
-0.27262
-0.272737
-0.272756
-0.272715
-0.272698
-0.271804
-0.264793
-0.265915
-0.26643
-0.266865
-0.26723
-0.267568
-0.26791
-0.268272
-0.26866
-0.269071
-0.269501
-0.269941
-0.270384
-0.270819
-0.271237
-0.271627
-0.27198
-0.27228
-0.272515
-0.272669
-0.272723
-0.272664
-0.272531
-0.272322
-0.271123
-0.265842
-0.26684
-0.267289
-0.267657
-0.26796
-0.268237
-0.26852
-0.268826
-0.269159
-0.269519
-0.2699
-0.270295
-0.270693
-0.271085
-0.271462
-0.271811
-0.272122
-0.272379
-0.272569
-0.272671
-0.272665
-0.272531
-0.272285
-0.271976
-0.270302
-0.266927
-0.267802
-0.268181
-0.268479
-0.268712
-0.26892
-0.269137
-0.269378
-0.26965
-0.269952
-0.270277
-0.270619
-0.270967
-0.271311
-0.271641
-0.271945
-0.272211
-0.272423
-0.272565
-0.272617
-0.272552
-0.272352
-0.271977
-0.271649
-0.269351
-0.268041
-0.268797
-0.269103
-0.269325
-0.269481
-0.269613
-0.269755
-0.269924
-0.270126
-0.270361
-0.270624
-0.270906
-0.271198
-0.271489
-0.271768
-0.272023
-0.27224
-0.272404
-0.272497
-0.272497
-0.272372
-0.272116
-0.271592
-0.271329
-0.268278
-0.269178
-0.26982
-0.270051
-0.270191
-0.270264
-0.270312
-0.270371
-0.270458
-0.270582
-0.270743
-0.270936
-0.271152
-0.271382
-0.271614
-0.271837
-0.272039
-0.272204
-0.272317
-0.272358
-0.272305
-0.272115
-0.271816
-0.271105
-0.271003
-0.267084
-0.270336
-0.270868
-0.271021
-0.271075
-0.271058
-0.271014
-0.27098
-0.270977
-0.271015
-0.271094
-0.271209
-0.271352
-0.271514
-0.271683
-0.271846
-0.27199
-0.2721
-0.272158
-0.272142
-0.272033
-0.271769
-0.271441
-0.270495
-0.270648
-0.26578
-0.271513
-0.271942
-0.272014
-0.271976
-0.271861
-0.271716
-0.271581
-0.271479
-0.271422
-0.27141
-0.271441
-0.271505
-0.271594
-0.271694
-0.271792
-0.271875
-0.271925
-0.271924
-0.271847
-0.271679
-0.271324
-0.270982
-0.269743
-0.270228
-0.264391
-0.272709
-0.27304
-0.273029
-0.272894
-0.272673
-0.272419
-0.272174
-0.271964
-0.271802
-0.271693
-0.271632
-0.271612
-0.271621
-0.271648
-0.271677
-0.271694
-0.271681
-0.271616
-0.271471
-0.271238
-0.270775
-0.270428
-0.268842
-0.269688
-0.262954
-0.273926
-0.274164
-0.274068
-0.273829
-0.273495
-0.273123
-0.272758
-0.272432
-0.272159
-0.271944
-0.271785
-0.271674
-0.271599
-0.271548
-0.271505
-0.271452
-0.271369
-0.271234
-0.271012
-0.270707
-0.270113
-0.269759
-0.267798
-0.268963
-0.261508
-0.275168
-0.275319
-0.275133
-0.274785
-0.27433
-0.27383
-0.273338
-0.272886
-0.272494
-0.272167
-0.271904
-0.271696
-0.271533
-0.2714
-0.271279
-0.271151
-0.270992
-0.270779
-0.270468
-0.270078
-0.269335
-0.268951
-0.266623
-0.267983
-0.260077
-0.276441
-0.27651
-0.27623
-0.275765
-0.27518
-0.274545
-0.273917
-0.273332
-0.272813
-0.272367
-0.271994
-0.271686
-0.27143
-0.27121
-0.271006
-0.270796
-0.270554
-0.270252
-0.269837
-0.269343
-0.268433
-0.26797
-0.265328
-0.266688
-0.25865
-0.277755
-0.277742
-0.277363
-0.276775
-0.276053
-0.275274
-0.274501
-0.273775
-0.273122
-0.272552
-0.272065
-0.271651
-0.271297
-0.270985
-0.270693
-0.270394
-0.270056
-0.269649
-0.269111
-0.268484
-0.267395
-0.266781
-0.263907
-0.265041
-0.257179
-0.279118
-0.279025
-0.27854
-0.277821
-0.276953
-0.276022
-0.275097
-0.274224
-0.273432
-0.272732
-0.272125
-0.271601
-0.271145
-0.270735
-0.270346
-0.269946
-0.269498
-0.268965
-0.26828
-0.267483
-0.2662
-0.265351
-0.262333
-0.263035
-0.25559
-0.280545
-0.280366
-0.279771
-0.278912
-0.27789
-0.276799
-0.275714
-0.274688
-0.273751
-0.272917
-0.272186
-0.271547
-0.270983
-0.270468
-0.269971
-0.269455
-0.268875
-0.268189
-0.267326
-0.266315
-0.264823
-0.263656
-0.260565
-0.260686
-0.253802
-0.282047
-0.281778
-0.281064
-0.280057
-0.278872
-0.277613
-0.276362
-0.275177
-0.27409
-0.273118
-0.272259
-0.271501
-0.270822
-0.270191
-0.269571
-0.268918
-0.26818
-0.267307
-0.26623
-0.264957
-0.263231
-0.261679
-0.258552
-0.25802
-0.251747
-0.283641
-0.283272
-0.28243
-0.281266
-0.279909
-0.278475
-0.277052
-0.275703
-0.274463
-0.273348
-0.272356
-0.271472
-0.270669
-0.269909
-0.269147
-0.26833
-0.267401
-0.2663
-0.264966
-0.263384
-0.261389
-0.259406
-0.25625
-0.25505
-0.249365
-0.285343
-0.284862
-0.283881
-0.282549
-0.281013
-0.279397
-0.277797
-0.276279
-0.274882
-0.27362
-0.27249
-0.271471
-0.270531
-0.269623
-0.268693
-0.26768
-0.26652
-0.265148
-0.263509
-0.261576
-0.259272
-0.256828
-0.25362
-0.251737
-0.246597
-0.287169
-0.286559
-0.285429
-0.283919
-0.282195
-0.28039
-0.278608
-0.276917
-0.275359
-0.273946
-0.27267
-0.271506
-0.270412
-0.269332
-0.268203
-0.266955
-0.265518
-0.263829
-0.261841
-0.259521
-0.256869
-0.253954
-0.250638
-0.247981
-0.243418
-0.28914
-0.288378
-0.287087
-0.285388
-0.283467
-0.281467
-0.279498
-0.277631
-0.275907
-0.274337
-0.272907
-0.271582
-0.270312
-0.26903
-0.267664
-0.266136
-0.264377
-0.262325
-0.259949
-0.257219
-0.254187
-0.250823
-0.247316
-0.243758
-0.239907
-0.291268
-0.290337
-0.288869
-0.286969
-0.284842
-0.282641
-0.28048
-0.278433
-0.276539
-0.274803
-0.273205
-0.271701
-0.270227
-0.268708
-0.267061
-0.265207
-0.263079
-0.260624
-0.25783
-0.254678
-0.251249
-0.247486
-0.243708
-0.239452
-0.235994
-0.293573
-0.292446
-0.290787
-0.288674
-0.286332
-0.283924
-0.281567
-0.279335
-0.277264
-0.275352
-0.27357
-0.271861
-0.27015
-0.268351
-0.266377
-0.264149
-0.261609
-0.258722
-0.25549
-0.251916
-0.248094
-0.243975
-0.239854
-0.235296
-0.231372
-0.296073
-0.29472
-0.292855
-0.290517
-0.287951
-0.285329
-0.282771
-0.280349
-0.278092
-0.27599
-0.274002
-0.272057
-0.270068
-0.267943
-0.265593
-0.262946
-0.259961
-0.256619
-0.252945
-0.24896
-0.244766
-0.240319
-0.235898
-0.231072
-0.226777
-0.298785
-0.297174
-0.295086
-0.29251
-0.289712
-0.28687
-0.284104
-0.281484
-0.27903
-0.27672
-0.274497
-0.272279
-0.269968
-0.267466
-0.264692
-0.261588
-0.258131
-0.254326
-0.250216
-0.245839
-0.2413
-0.236562
-0.231878
-0.226845
-0.222321
-0.301723
-0.299821
-0.297493
-0.294666
-0.291626
-0.288557
-0.285578
-0.282751
-0.280084
-0.277541
-0.27505
-0.272514
-0.26983
-0.266903
-0.263662
-0.260068
-0.256124
-0.251856
-0.247327
-0.242584
-0.237731
-0.232737
-0.22783
-0.222633
-0.217942
-0.304902
-0.302673
-0.300089
-0.296998
-0.293706
-0.290404
-0.287203
-0.284156
-0.281256
-0.27845
-0.275649
-0.272747
-0.269638
-0.266236
-0.262489
-0.258384
-0.253947
-0.249229
-0.244302
-0.239222
-0.234086
-0.228866
-0.22377
-0.218437
-0.213634
-0.308335
-0.305744
-0.302887
-0.299518
-0.295965
-0.292421
-0.288988
-0.285704
-0.282545
-0.279438
-0.27628
-0.272958
-0.26937
-0.265449
-0.261166
-0.256538
-0.251615
-0.246463
-0.241163
-0.235775
-0.230384
-0.224966
-0.219704
-0.214259
-0.209364
-0.312035
-0.309044
-0.305897
-0.302238
-0.298415
-0.294619
-0.29094
-0.287397
-0.283946
-0.280494
-0.276925
-0.273126
-0.269009
-0.26453
-0.259691
-0.254537
-0.249138
-0.243576
-0.23793
-0.23226
-0.22664
-0.221045
-0.215635
-0.210092
-0.205117
-0.316012
-0.312584
-0.309131
-0.30517
-0.301067
-0.297009
-0.293066
-0.289236
-0.285452
-0.281602
-0.277563
-0.27323
-0.268536
-0.263469
-0.258063
-0.252388
-0.246533
-0.240583
-0.234617
-0.22869
-0.222861
-0.217105
-0.211561
-0.205929
-0.200878
-0.320275
-0.316374
-0.3126
-0.308325
-0.303932
-0.299596
-0.295367
-0.291216
-0.287049
-0.282742
-0.278171
-0.273247
-0.267936
-0.262259
-0.256283
-0.250101
-0.243809
-0.237497
-0.231235
-0.225071
-0.219049
-0.213146
-0.207476
-0.201764
-0.196639
-0.32483
-0.320422
-0.316313
-0.311712
-0.307017
-0.302387
-0.297843
-0.293326
-0.28872
-0.283891
-0.278724
-0.273158
-0.267196
-0.260897
-0.254356
-0.247682
-0.240977
-0.234326
-0.227789
-0.221405
-0.215205
-0.209165
-0.203377
-0.19759
-0.19239
-0.329684
-0.324733
-0.320278
-0.315341
-0.310331
-0.305384
-0.300488
-0.295553
-0.290443
-0.285022
-0.279196
-0.272942
-0.266305
-0.259379
-0.252285
-0.24514
-0.238045
-0.231075
-0.224282
-0.217692
-0.211324
-0.205155
-0.199255
-0.193398
-0.188124
-0.334837
-0.329314
-0.324501
-0.319218
-0.313876
-0.308585
-0.303292
-0.297878
-0.292191
-0.286106
-0.279562
-0.272582
-0.265253
-0.257705
-0.250073
-0.242478
-0.235014
-0.227746
-0.220712
-0.213928
-0.207402
-0.201111
-0.195104
-0.189182
-0.183834
-0.34029
-0.334164
-0.328986
-0.323346
-0.317654
-0.311983
-0.306239
-0.300274
-0.293933
-0.287112
-0.279797
-0.272061
-0.264035
-0.255874
-0.247723
-0.239699
-0.231887
-0.224338
-0.217076
-0.210108
-0.203433
-0.197025
-0.190917
-0.184935
-0.179513
-0.346037
-0.339285
-0.333733
-0.327726
-0.321659
-0.315565
-0.309306
-0.302712
-0.295634
-0.288009
-0.279878
-0.271366
-0.262643
-0.253883
-0.245233
-0.236803
-0.228661
-0.220846
-0.213368
-0.206226
-0.199409
-0.19289
-0.186686
-0.180648
-0.175156
-0.352071
-0.344671
-0.338741
-0.332353
-0.325881
-0.319312
-0.312464
-0.305154
-0.297258
-0.288767
-0.279782
-0.270483
-0.261071
-0.251731
-0.242604
-0.233787
-0.225333
-0.217264
-0.209582
-0.202274
-0.195322
-0.188698
-0.182404
-0.176316
-0.170755
-0.35838
-0.350314
-0.344002
-0.337216
-0.330303
-0.323197
-0.315676
-0.30756
-0.298768
-0.289354
-0.279489
-0.2694
-0.259313
-0.249412
-0.23983
-0.230645
-0.221895
-0.213586
-0.205709
-0.198244
-0.191164
-0.184442
-0.178064
-0.171931
-0.166306
-0.364944
-0.3562
-0.349503
-0.342302
-0.334903
-0.327186
-0.318902
-0.309887
-0.300122
-0.289741
-0.27898
-0.268107
-0.257361
-0.246923
-0.236906
-0.227372
-0.218339
-0.209803
-0.201741
-0.194127
-0.186927
-0.180113
-0.173659
-0.167486
-0.1618
-0.37174
-0.362312
-0.355227
-0.347586
-0.339647
-0.331239
-0.322093
-0.312088
-0.301284
-0.2899
-0.278235
-0.266591
-0.255209
-0.244255
-0.233824
-0.223958
-0.214658
-0.205905
-0.197668
-0.189913
-0.182603
-0.175703
-0.16918
-0.162975
-0.157234
-0.378739
-0.368626
-0.361149
-0.353039
-0.344497
-0.335306
-0.325198
-0.314115
-0.302215
-0.289804
-0.277239
-0.26484
-0.252845
-0.241399
-0.230575
-0.220394
-0.21084
-0.201882
-0.193481
-0.185595
-0.178182
-0.171205
-0.164622
-0.158391
-0.152601
-0.385903
-0.375109
-0.367236
-0.358622
-0.349406
-0.339332
-0.32816
-0.31592
-0.302877
-0.289427
-0.275973
-0.262843
-0.250259
-0.238345
-0.227149
-0.216669
-0.206875
-0.197725
-0.18917
-0.181163
-0.173657
-0.166611
-0.159978
-0.153727
-0.147895
-0.393191
-0.381726
-0.37345
-0.364289
-0.354317
-0.343257
-0.330921
-0.317453
-0.303236
-0.288746
-0.27442
-0.260585
-0.247441
-0.235082
-0.223533
-0.212771
-0.202752
-0.193422
-0.184726
-0.176608
-0.16902
-0.161914
-0.15524
-0.148978
-0.143111
-0.40055
-0.388432
-0.379744
-0.369986
-0.359168
-0.347016
-0.333422
-0.318668
-0.303257
-0.287736
-0.272564
-0.258053
-0.244376
-0.231598
-0.219716
-0.20869
-0.19846
-0.188964
-0.180138
-0.171923
-0.164262
-0.157108
-0.150403
-0.144138
-0.138245
-0.407926
-0.395174
-0.386061
-0.375649
-0.36389
-0.350538
-0.335604
-0.319519
-0.302907
-0.286374
-0.270386
-0.255232
-0.241051
-0.227878
-0.215684
-0.204412
-0.193988
-0.18434
-0.175398
-0.167097
-0.159377
-0.152184
-0.145461
-0.1392
-0.133291
-0.415252
-0.401895
-0.392341
-0.381209
-0.368409
-0.353755
-0.337407
-0.319961
-0.302155
-0.284639
-0.267869
-0.252106
-0.237451
-0.223909
-0.211426
-0.199926
-0.189325
-0.179541
-0.170497
-0.162124
-0.154356
-0.147137
-0.140407
-0.134159
-0.128246
-0.422458
-0.408528
-0.398511
-0.386589
-0.372644
-0.356593
-0.338773
-0.319954
-0.300973
-0.282507
-0.264995
-0.248659
-0.233562
-0.219677
-0.206927
-0.19522
-0.184459
-0.174556
-0.165426
-0.156995
-0.149194
-0.14196
-0.135237
-0.129011
-0.123104
-0.429467
-0.414999
-0.404495
-0.391706
-0.376515
-0.358982
-0.339649
-0.319457
-0.29933
-0.279956
-0.261745
-0.244874
-0.229368
-0.215168
-0.202175
-0.190282
-0.179382
-0.169377
-0.160177
-0.151703
-0.143883
-0.136649
-0.129944
-0.123751
-0.117863
-0.436196
-0.421231
-0.410209
-0.396473
-0.379939
-0.360851
-0.33998
-0.318432
-0.297199
-0.276967
-0.258102
-0.240737
-0.224855
-0.210368
-0.197157
-0.185101
-0.174081
-0.163994
-0.154742
-0.146242
-0.138417
-0.131196
-0.124525
-0.118374
-0.11252
-0.442557
-0.427139
-0.415564
-0.400799
-0.382832
-0.362134
-0.339717
-0.316844
-0.294556
-0.273517
-0.254047
-0.236229
-0.220007
-0.205264
-0.191863
-0.179666
-0.168549
-0.158399
-0.149114
-0.140604
-0.132791
-0.125599
-0.118975
-0.112877
-0.107071
-0.448459
-0.432633
-0.420467
-0.404591
-0.385112
-0.362766
-0.338814
-0.31466
-0.291374
-0.269586
-0.249563
-0.231335
-0.21481
-0.199843
-0.186279
-0.173968
-0.162777
-0.152585
-0.143286
-0.134785
-0.127
-0.119852
-0.11329
-0.107256
-0.101515
-0.453807
-0.43762
-0.424822
-0.407758
-0.3867
-0.362686
-0.337228
-0.311849
-0.287631
-0.265156
-0.244633
-0.226041
-0.209251
-0.194093
-0.180396
-0.167998
-0.156757
-0.146545
-0.137252
-0.128779
-0.121038
-0.113951
-0.107465
-0.101507
-0.0958488
-0.458503
-0.442005
-0.428532
-0.410208
-0.38752
-0.361838
-0.334918
-0.308383
-0.283304
-0.260207
-0.239239
-0.22033
-0.203316
-0.188003
-0.174203
-0.161747
-0.150481
-0.140273
-0.131007
-0.122581
-0.114903
-0.107892
-0.101498
-0.0956302
-0.0900732
-0.462451
-0.445691
-0.4315
-0.411851
-0.387501
-0.36017
-0.33185
-0.304236
-0.278373
-0.254723
-0.233369
-0.214191
-0.196994
-0.181562
-0.167694
-0.155207
-0.143944
-0.133764
-0.124547
-0.116187
-0.10859
-0.101673
-0.0953858
-0.0896224
-0.0841899
-0.465553
-0.44858
-0.43363
-0.412603
-0.386576
-0.357637
-0.32799
-0.299384
-0.27282
-0.248688
-0.227006
-0.207611
-0.190274
-0.174762
-0.160859
-0.148374
-0.13714
-0.127014
-0.117868
-0.109595
-0.102096
-0.0952878
-0.0891225
-0.0834801
-0.0781951
-0.467714
-0.450578
-0.434828
-0.412383
-0.384686
-0.354196
-0.323312
-0.293807
-0.266627
-0.242086
-0.220139
-0.200579
-0.183148
-0.167596
-0.153693
-0.141241
-0.130066
-0.120018
-0.110968
-0.102802
-0.0954194
-0.0887352
-0.0827036
-0.0771937
-0.0720658
-0.468842
-0.451591
-0.435006
-0.411118
-0.381778
-0.349812
-0.31779
-0.287488
-0.259781
-0.234907
-0.212758
-0.193086
-0.175608
-0.160057
-0.146191
-0.133805
-0.122718
-0.112776
-0.103844
-0.0958074
-0.0885595
-0.0820153
-0.0761298
-0.0707522
-0.0657545
-0.468848
-0.451531
-0.43408
-0.408741
-0.377804
-0.344455
-0.311403
-0.28041
-0.25227
-0.227139
-0.204853
-0.185125
-0.167648
-0.15214
-0.13835
-0.126064
-0.115096
-0.105286
-0.0964979
-0.0886114
-0.0815177
-0.0751325
-0.0694114
-0.0641634
-0.059227
-0.46765
-0.450312
-0.431975
-0.405192
-0.372724
-0.338098
-0.304137
-0.272562
-0.244083
-0.218775
-0.196418
-0.17669
-0.159264
-0.143843
-0.130167
-0.118016
-0.107197
-0.0975486
-0.0889288
-0.081215
-0.0742956
-0.0680902
-0.0625545
-0.0574527
-0.0525665
-0.46517
-0.447859
-0.428622
-0.400422
-0.366507
-0.330724
-0.295978
-0.263936
-0.235213
-0.209808
-0.187448
-0.167778
-0.150454
-0.135164
-0.121643
-0.109661
-0.0990242
-0.0895646
-0.0811387
-0.0736203
-0.0668963
-0.0608906
-0.055547
-0.0505709
-0.0459395
-0.46134
-0.444099
-0.42396
-0.394388
-0.359127
-0.322317
-0.286919
-0.254526
-0.225657
-0.200236
-0.17794
-0.158388
-0.141216
-0.126104
-0.112777
-0.101001
-0.0905786
-0.0813366
-0.0731307
-0.0658307
-0.0593233
-0.0535354
-0.048395
-0.0435811
-0.0392284
-0.456098
-0.438972
-0.417938
-0.387056
-0.350567
-0.312871
-0.276956
-0.244329
-0.215413
-0.190057
-0.167896
-0.14852
-0.131553
-0.116664
-0.103572
-0.092039
-0.0818642
-0.072869
-0.0649081
-0.05785
-0.0515803
-0.0460281
-0.0411082
-0.0364837
-0.032408
-0.449393
-0.432425
-0.410517
-0.378403
-0.340816
-0.302382
-0.266089
-0.233348
-0.204482
-0.179274
-0.157316
-0.138177
-0.121467
-0.106848
-0.0940343
-0.0827808
-0.072884
-0.0641656
-0.0564761
-0.0496831
-0.043672
-0.0383741
-0.0336925
-0.0292744
-0.025477
-0.441182
-0.424414
-0.401663
-0.368413
-0.329871
-0.290853
-0.254323
-0.221587
-0.192871
-0.167892
-0.146207
-0.127366
-0.110966
-0.0966637
-0.0841676
-0.0732308
-0.0636453
-0.0552325
-0.0478407
-0.0413359
-0.0356041
-0.0305792
-0.0261523
-0.021953
-0.0184418
-0.431431
-0.414907
-0.391357
-0.35708
-0.317736
-0.278293
-0.241668
-0.209056
-0.180586
-0.155917
-0.134574
-0.116094
-0.100056
-0.0861171
-0.0739802
-0.0633965
-0.0541553
-0.0460772
-0.0390089
-0.0328153
-0.0273835
-0.0226501
-0.0184928
-0.0145237
-0.0113091
-0.42012
-0.403882
-0.379589
-0.344407
-0.304421
-0.264715
-0.228137
-0.195765
-0.167638
-0.143362
-0.122433
-0.104368
-0.0887473
-0.0752176
-0.0634812
-0.0532869
-0.0444225
-0.0367079
-0.0299889
-0.0241295
-0.0190181
-0.0145942
-0.0107208
-0.00699306
-0.00408609
-0.407236
-0.391326
-0.366358
-0.330406
-0.289945
-0.250138
-0.213748
-0.181732
-0.154044
-0.130241
-0.109792
-0.0922034
-0.0770507
-0.0639766
-0.0526812
-0.0429124
-0.0344569
-0.0271343
-0.02079
-0.0152874
-0.0105168
-0.00642008
-0.0028442
0.000630504
0.00321901
-0.392779
-0.377239
-0.351675
-0.315096
-0.274332
-0.234586
-0.198521
-0.166975
-0.139821
-0.116568
-0.0966666
-0.0796138
-0.0649804
-0.052407
-0.0415926
-0.0322846
-0.0242695
-0.0173671
-0.0114226
-0.0062991
-0.00188942
0.00186264
0.00512723
0.00833677
0.0105961
-0.376758
-0.361633
-0.33556
-0.298505
-0.257612
-0.218088
-0.182484
-0.15152
-0.124989
-0.102364
-0.0830761
-0.0666162
-0.0525522
-0.0405236
-0.0302292
-0.0214166
-0.0138728
-0.00741796
-0.00189781
0.00282435
0.00685308
0.0102433
0.0131826
0.0161139
0.0180333
-0.359194
-0.344526
-0.318041
-0.280669
-0.239822
-0.200679
-0.165667
-0.135392
-0.109574
-0.0876506
-0.0690407
-0.0532295
-0.0397837
-0.0283429
-0.0186064
-0.0103228
-0.00328015
0.00270021
0.00777197
0.012071
0.015699
0.0187101
0.0213098
0.0239485
0.0255182
-0.340117
-0.32595
-0.299156
-0.261632
-0.221006
-0.182393
-0.148104
-0.118621
-0.0936014
-0.072453
-0.0545832
-0.0394748
-0.0266945
-0.015883
-0.00674103
0.000981181
0.0074937
0.0129737
0.0175737
0.0214283
0.0246356
0.0272504
0.0294955
0.0318261
0.0330378
-0.319567
-0.305944
-0.278953
-0.241455
-0.201202
-0.163275
-0.129832
-0.101241
-0.0771027
-0.0567987
-0.0397291
-0.0253754
-0.0133061
-0.0031636
0.0053487
0.0124784
0.0184331
0.0233879
0.0274935
0.0308826
0.0336498
0.0358508
0.0377254
0.0397299
0.0405731
-0.297594
-0.28456
-0.257493
-0.22019
-0.180455
-0.143372
-0.110892
-0.0832899
-0.060111
-0.0407181
-0.0245059
-0.0109567
0.000358436
0.0097939
0.0176432
0.0241509
0.0295215
0.0339274
0.0375172
0.0404205
0.0427281
0.0444977
0.0459841
0.0476384
0.0480926
-0.274254
-0.261865
-0.234871
-0.197821
-0.158853
-0.122735
-0.0913298
-0.0648068
-0.0426626
-0.024244
-0.0089434
0.0037542
0.0142741
0.0229668
0.0301216
0.0359795
0.0407414
0.0445763
0.0476298
0.0500279
0.0518571
0.0531777
0.0542553
0.0555262
0.0555613
-0.249615
-0.237936
-0.211172
-0.174422
-0.136425
-0.101419
-0.0711948
-0.0458355
-0.0247961
-0.00741134
0.00692643
0.0187282
0.0284145
0.0363307
0.0427619
0.0479442
0.0520745
0.0553178
0.0578164
0.0596913
0.0610241
0.0618781
0.0625243
0.0633746
0.0629726
-0.223753
-0.212849
-0.186222
-0.150281
-0.113259
-0.0794831
-0.0505386
-0.0264219
-0.00655285
0.00974251
0.0230698
0.0339346
0.0427515
0.0498603
0.0555406
0.0600237
0.0635015
0.0661349
0.0680616
0.0693966
0.0702157
0.0705871
0.0707835
0.071184
0.0703461
-0.196747
-0.186707
-0.160288
-0.1253
-0.0894234
-0.056989
-0.0294153
-0.00661443
0.0120236
0.0271782
0.039451
0.0493408
0.0572556
0.0635286
0.0684335
0.072196
0.0750026
0.0770097
0.0783497
0.0791292
0.0794184
0.0792954
0.0790336
0.0789549
0.0776174
-0.168663
-0.159485
-0.133597
-0.0995737
-0.0649891
-0.0340017
-0.0078819
0.0135361
0.0308876
0.0448546
0.0560326
0.0649131
0.071896
0.0773076
0.0814151
0.084438
0.0865573
0.0879242
0.0886647
0.088875
0.0886212
0.0880003
0.0872715
0.0866199
0.0845433
-0.139612
-0.131413
-0.106133
-0.0731953
-0.04003
-0.0105878
0.0140024
0.0339767
0.0499916
0.0627286
0.0727759
0.080616
0.0866405
0.0911681
0.0944589
0.0967257
0.098144
0.0988597
0.0989907
0.0986222
0.0978222
0.0967111
0.0954795
0.0940321
0.0909327
-0.109816
-0.102471
-0.0779728
-0.0462554
-0.0146239
0.0131839
0.0361764
0.0546527
0.0692863
0.0807557
0.0896404
0.0964129
0.101456
0.10508
0.107537
0.109034
0.109741
0.109796
0.109311
0.108361
0.107027
0.105448
0.103656
0.101172
0.0970814
-0.0792805
-0.0728209
-0.0492178
-0.0188454
0.0111485
0.0372424
0.0585768
0.0755075
0.0887208
0.0988901
0.106585
0.112266
0.116308
0.119012
0.120622
0.121338
0.121323
0.120712
0.119606
0.11808
0.116235
0.114211
0.111834
0.108364
0.103831
-0.0481059
-0.0425899
-0.019972
0.00894138
0.0372046
0.0615148
0.0811387
0.0964832
0.108243
0.117085
0.123566
0.128137
0.131162
0.132932
0.133684
0.13361
0.132867
0.131584
0.129856
0.127759
0.125415
0.122943
0.119968
0.115763
0.112942
-0.0164167
-0.0118892
0.00965755
0.0370093
0.0634599
0.0859266
0.103796
0.11752
0.1278
0.135291
0.140541
0.143987
0.145981
0.146807
0.146692
0.145822
0.144348
0.14239
0.140038
0.137374
0.134526
0.131558
0.128023
0.123603
0.121625
0.0156646
0.0191676
0.0395617
0.0652612
0.0898288
0.110402
0.126482
0.138559
0.147337
0.153461
0.157465
0.159774
0.16073
0.160604
0.159618
0.157948
0.155738
0.153103
0.15013
0.146903
0.143543
0.140068
0.136059
0.131503
0.129562
0.0480158
0.0504643
0.0696304
0.0935991
0.116225
0.134865
0.149128
0.159538
0.166799
0.171545
0.174294
0.175459
0.17537
0.17429
0.172429
0.169958
0.167012
0.163702
0.160109
0.156318
0.152439
0.148466
0.144038
0.139302
0.137101
0.0805133
0.0818827
0.0997532
0.121924
0.142561
0.159239
0.171665
0.180397
0.186132
0.189492
0.190982
0.191001
0.189866
0.187831
0.185096
0.181824
0.178144
0.17416
0.169951
0.165597
0.161197
0.156735
0.1519
0.146908
0.144338
0.113032
0.113304
0.129819
0.150138
0.16875
0.183445
0.194026
0.201073
0.20528
0.207254
0.207484
0.206358
0.204179
0.201191
0.197586
0.193517
0.189107
0.184454
0.179631
0.174717
0.169799
0.164855
0.159613
0.154315
0.151333
0.145448
0.144608
0.159718
0.178142
0.194706
0.207408
0.216141
0.221505
0.224187
0.224779
0.223756
0.221489
0.218273
0.214339
0.209869
0.205009
0.199876
0.194558
0.189128
0.183657
0.178225
0.172806
0.167152
0.161521
0.15811
0.177635
0.175675
0.18934
0.205838
0.220341
0.231051
0.237941
0.241631
0.242798
0.242019
0.239751
0.236355
0.23211
0.227239
0.221913
0.216272
0.210423
0.20445
0.19842
0.192397
0.186457
0.180567
0.1745
0.168525
0.164676
0.209471
0.206387
0.218575
0.23313
0.245571
0.254298
0.259361
0.261392
0.261059
0.258922
0.255426
0.250913
0.245654
0.239858
0.233689
0.227277
0.220723
0.214105
0.207483
0.200918
0.194476
0.188123
0.181646
0.175321
0.171032
0.240831
0.236626
0.247318
0.259923
0.270312
0.277074
0.280331
0.280726
0.278915
0.275442
0.270735
0.265125
0.258868
0.252163
0.245166
0.237998
0.230752
0.223501
0.216298
0.209201
0.202266
0.195456
0.188575
0.181903
0.177172
0.271595
0.266278
0.275462
0.286123
0.294479
0.299306
0.300787
0.299575
0.296313
0.29153
0.285637
0.27895
0.271716
0.264122
0.256315
0.248407
0.240485
0.232614
0.224844
0.217225
0.209809
0.202553
0.195277
0.18826
0.183091
0.301644
0.295227
0.302905
0.311638
0.317994
0.320921
0.320665
0.317882
0.313202
0.307139
0.300087
0.292351
0.284164
0.275703
0.267106
0.258477
0.249896
0.241422
0.2331
0.224974
0.217088
0.209398
0.201739
0.194384
0.18878
0.330862
0.323365
0.329547
0.33638
0.340777
0.341851
0.339901
0.335588
0.32953
0.322222
0.314045
0.30529
0.296177
0.286875
0.277511
0.268183
0.258964
0.249905
0.241048
0.23243
0.224088
0.215977
0.207947
0.200263
0.19423
0.359137
0.350584
0.355289
0.360264
0.362751
0.362025
0.358434
0.352641
0.345249
0.336736
0.327471
0.317729
0.307722
0.297607
0.287504
0.277501
0.267665
0.258042
0.248667
0.239575
0.230793
0.222277
0.213891
0.205887
0.199434
0.38636
0.376781
0.380039
0.383204
0.383843
0.38138
0.376207
0.368987
0.360309
0.350638
0.340325
0.329635
0.318768
0.307871
0.297057
0.286405
0.275976
0.265812
0.255941
0.246392
0.237189
0.228284
0.219557
0.211244
0.204381
0.412427
0.401855
0.403707
0.405123
0.403983
0.399852
0.393162
0.384575
0.374667
0.363886
0.35257
0.340973
0.329283
0.317639
0.306145
0.294873
0.283879
0.273197
0.262852
0.252867
0.24326
0.233985
0.224934
0.216324
0.209064
0.437236
0.425712
0.426206
0.425943
0.423103
0.417381
0.409246
0.399357
0.388277
0.37644
0.364171
0.351711
0.339239
0.326884
0.314743
0.302883
0.291351
0.280177
0.269382
0.258983
0.248994
0.239368
0.23001
0.221117
0.213474
0.460693
0.448263
0.447456
0.445593
0.441139
0.43391
0.424407
0.413287
0.401099
0.388263
0.375093
0.361817
0.348606
0.335581
0.32283
0.310413
0.298374
0.286736
0.275516
0.264727
0.254376
0.244419
0.234774
0.225612
0.217604
0.482708
0.46942
0.467379
0.464005
0.45803
0.449384
0.438596
0.42632
0.413093
0.39932
0.385304
0.371264
0.35736
0.343706
0.330382
0.317445
0.304929
0.292857
0.281239
0.270084
0.259395
0.249129
0.239215
0.2298
0.221445
0.503196
0.489106
0.485904
0.481115
0.47372
0.463753
0.451769
0.438417
0.424221
0.409577
0.394774
0.380023
0.365474
0.351235
0.33738
0.323958
0.311001
0.298524
0.286537
0.275042
0.264038
0.253486
0.243323
0.233672
0.224991
0.522079
0.507245
0.502964
0.496863
0.488156
0.47697
0.463882
0.449539
0.434451
0.419004
0.403476
0.388069
0.372927
0.358149
0.343804
0.329936
0.316572
0.303724
0.291396
0.279589
0.268296
0.257481
0.247089
0.23722
0.228236
0.539285
0.52377
0.518497
0.511195
0.50129
0.488992
0.474899
0.459651
0.44375
0.427571
0.411383
0.395379
0.379696
0.364428
0.349637
0.335364
0.321629
0.308443
0.295805
0.283713
0.272157
0.261103
0.250504
0.240435
0.231173
0.554749
0.538618
0.532447
0.524062
0.513078
0.49978
0.484782
0.468721
0.45209
0.435253
0.418472
0.401932
0.385763
0.370055
0.354863
0.340225
0.326158
0.312668
0.299753
0.287405
0.275613
0.264345
0.25356
0.243312
0.233798
0.568411
0.551734
0.544766
0.535419
0.52348
0.509297
0.4935
0.476721
0.459445
0.442027
0.424722
0.407708
0.391111
0.375013
0.359468
0.344508
0.330148
0.31639
0.303229
0.290656
0.278656
0.267199
0.25625
0.245843
0.236105
0.58022
0.563069
0.555407
0.545228
0.532462
0.517514
0.501025
0.483626
0.465792
0.447872
0.430113
0.412691
0.395723
0.379289
0.363439
0.348201
0.333587
0.319597
0.306225
0.293458
0.281278
0.269658
0.258568
0.248023
0.238091
0.590129
0.57258
0.564334
0.553454
0.539993
0.524403
0.507334
0.489414
0.471112
0.45277
0.434632
0.416865
0.399587
0.382871
0.366765
0.351294
0.336467
0.322283
0.308733
0.295803
0.283472
0.271716
0.260508
0.249847
0.239751
0.598102
0.580232
0.571514
0.560069
0.546048
0.529941
0.512406
0.494066
0.475387
0.456707
0.438262
0.42022
0.402691
0.385749
0.369437
0.353778
0.33878
0.324441
0.310748
0.297686
0.285234
0.273368
0.262066
0.251311
0.241082
0.604109
0.585996
0.576921
0.56505
0.550608
0.53411
0.516223
0.497568
0.478605
0.459669
0.440995
0.422744
0.405027
0.387914
0.371447
0.355647
0.340521
0.326064
0.312263
0.299102
0.286559
0.274611
0.263237
0.252412
0.242083
0.608126
0.58985
0.580537
0.56838
0.553656
0.536898
0.518775
0.499909
0.480756
0.46165
0.442821
0.424432
0.406589
0.389361
0.37279
0.356896
0.341684
0.327148
0.313276
0.300049
0.287444
0.275441
0.26402
0.253147
0.242751
0.610139
0.591781
0.582348
0.570048
0.555182
0.538294
0.520054
0.501081
0.481834
0.462641
0.443736
0.425276
0.40737
0.390086
0.373463
0.357521
0.342266
0.327691
0.313782
0.300522
0.287888
0.275856
0.264411
0.253515
0.243086
0.610139
0.591781
0.582348
0.570048
0.555182
0.538294
0.520054
0.501081
0.481834
0.462641
0.443736
0.425276
0.40737
0.390086
0.373463