/*--------------------------------*- C++ -*----------------------------------*\
  =========                 |
  \\      /  F ield         | OpenFOAM: The Open Source CFD Toolbox
   \\    /   O peration     | Website:  https://openfoam.org
    \\  /    A nd           | Version:  7
     \\/     M anipulation  |
\*---------------------------------------------------------------------------*/
FoamFile
{
    version     2.0;
    format      ascii;
    class       volVectorField;
    location    "15";
    object      U;
}
// * * * * * * * * * * * * * * * * * * * * * * * * * * * * * * * * * * * * * //

dimensions      [0 1 -1 0 0 0 0];

internalField   nonuniform List<vector> 
49200
(
(-0.000890583 0.00069686 2.80674e-21)
(-0.00534368 0.00165143 -1.36551e-20)
(-0.0136028 0.00229246 -1.56951e-21)
(-0.0235101 0.00271151 1.01198e-20)
(-0.0344383 0.00296702 -7.39247e-21)
(-0.0458442 0.00310514 2.50519e-20)
(-0.0573525 0.00316092 8.07222e-21)
(-0.068726 0.00316063 -8.66348e-21)
(-0.0798173 0.00312369 3.45219e-21)
(-0.0905426 0.00306403 -2.88449e-20)
(-0.100861 0.00299133 6.31258e-21)
(-0.110758 0.00291206 -5.72095e-22)
(-0.120238 0.0028304 -8.10567e-21)
(-0.129313 0.00274908 1.91614e-20)
(-0.138002 0.00267005 4.44926e-22)
(-0.146326 0.00259516 -1.75403e-20)
(-0.154315 0.00252675 -7.09729e-21)
(-0.162 0.00246822 -1.08293e-21)
(-0.169427 0.00242456 -1.33875e-20)
(-0.176656 0.00240264 -6.35695e-21)
(-0.183768 0.00241147 -2.89904e-20)
(-0.190874 0.00246166 2.05451e-20)
(-0.198109 0.00256239 -3.81094e-20)
(-0.205608 0.00272112 1.91831e-20)
(-0.213619 0.00296096 1.92745e-20)
(-0.000954977 0.00208569 -1.21527e-21)
(-0.00547095 0.00494472 -2.79921e-20)
(-0.0137327 0.00686613 -2.10295e-20)
(-0.0236084 0.00812297 -4.02089e-20)
(-0.0344798 0.00888983 3.50517e-20)
(-0.04581 0.00930467 -2.32796e-20)
(-0.0572279 0.00947244 4.58102e-21)
(-0.0684984 0.00947187 -7.26834e-21)
(-0.0794753 0.00936115 -4.01037e-20)
(-0.090075 0.00918206 -5.75508e-21)
(-0.100256 0.00896362 -7.57519e-21)
(-0.110004 0.00872523 -9.21941e-21)
(-0.119322 0.00847943 5.07902e-20)
(-0.128219 0.00823429 2.49254e-20)
(-0.136714 0.00799558 -2.39007e-20)
(-0.144827 0.00776868 5.3832e-20)
(-0.152582 0.00756039 3.801e-21)
(-0.160009 0.00738064 2.95811e-20)
(-0.167149 0.00724402 4.4296e-20)
(-0.174056 0.00717094 -3.29317e-21)
(-0.180805 0.00718828 9.11852e-20)
(-0.187503 0.00732809 3.21924e-20)
(-0.194278 0.00761878 -3.22466e-20)
(-0.20125 0.00808393 -2.03657e-20)
(-0.208667 0.0087922 -2.0545e-20)
(-0.00108258 0.00345133 3.16866e-20)
(-0.0057235 0.00818852 8.33352e-22)
(-0.0139908 0.0113767 -8.89948e-20)
(-0.0238041 0.0134646 7.83407e-20)
(-0.0345627 0.0147401 9.47081e-21)
(-0.0457426 0.0154311 -5.93811e-20)
(-0.0569806 0.0157111 -3.4122e-20)
(-0.0680461 0.0157108 -3.40934e-20)
(-0.0787951 0.0155266 -8.23571e-22)
(-0.0891446 0.015228 -1.62443e-20)
(-0.0990527 0.0148633 -1.92983e-20)
(-0.108503 0.0144646 2.48506e-20)
(-0.117497 0.0140528 -1.03023e-19)
(-0.126042 0.0136413 -9.93552e-20)
(-0.134153 0.0132392 8.20425e-20)
(-0.141845 0.0128552 -1.36674e-19)
(-0.149137 0.0124998 -2.88549e-20)
(-0.156054 0.0121888 1.3765e-19)
(-0.162627 0.0119455 1.62402e-20)
(-0.168899 0.011803 -3.15952e-20)
(-0.174934 0.0118056 -4.88533e-20)
(-0.180828 0.0120076 2.29578e-20)
(-0.186702 0.0124592 1.63549e-19)
(-0.192637 0.0132039 -2.80458e-20)
(-0.198886 0.0143546 3.65164e-21)
(-0.00127099 0.00477893 -2.49925e-20)
(-0.00609732 0.011351 1.00928e-19)
(-0.0143739 0.0157834 1.45355e-19)
(-0.0240954 0.0186911 -6.43668e-20)
(-0.0346871 0.0204704 -9.82832e-21)
(-0.0456438 0.0214362 1.60044e-19)
(-0.0566143 0.0218289 1.00568e-20)
(-0.0673746 0.0218296 1.33372e-20)
(-0.0777841 0.0215725 7.54823e-20)
(-0.0877607 0.0211543 -1.47891e-19)
(-0.0972618 0.0206423 -4.34267e-20)
(-0.10627 0.0200815 2.56175e-20)
(-0.114782 0.0195009 -2.69538e-20)
(-0.122803 0.0189188 8.6315e-20)
(-0.130342 0.0183477 -3.90433e-20)
(-0.137411 0.0177986 1.9274e-19)
(-0.14402 0.017285 5.1432e-20)
(-0.150184 0.0168272 -6.18232e-21)
(-0.155923 0.0164555 7.97752e-20)
(-0.161266 0.0162144 -7.64787e-20)
(-0.166258 0.0161651 -2.77563e-20)
(-0.170979 0.0163843 -3.67864e-20)
(-0.175539 0.0169486 -5.79465e-20)
(-0.17997 0.0179279 7.45565e-20)
(-0.184511 0.0194798 1.11128e-19)
(-0.00151672 0.00605456 5.2954e-20)
(-0.00658651 0.0144019 -8.86546e-20)
(-0.0148769 0.020047 4.0644e-20)
(-0.0244795 0.0237583 5.90738e-20)
(-0.0348528 0.0260346 -2.12395e-19)
(-0.0455163 0.0272732 -5.06613e-20)
(-0.0561343 0.0277787 6.75412e-20)
(-0.0664919 0.0277812 -7.14904e-21)
(-0.0764529 0.0274517 1.37097e-19)
(-0.0859368 0.0269137 1.04566e-20)
(-0.0949003 0.0262533 9.38779e-20)
(-0.103323 0.025528 9.39699e-20)
(-0.1112 0.0247748 1.87919e-19)
(-0.118531 0.0240169 -9.33327e-20)
(-0.125319 0.0232696 2.84262e-20)
(-0.131569 0.0225455 -3.78111e-20)
(-0.137284 0.0218598 -1.08296e-19)
(-0.142467 0.0212354 -4.35902e-20)
(-0.147125 0.0207079 2.10698e-20)
(-0.151267 0.0203306 -1.05277e-19)
(-0.154916 0.0201798 7.49341e-20)
(-0.158132 0.0203553 1.40482e-19)
(-0.161012 0.0209653 -4.72448e-20)
(-0.163522 0.0221166 -1.67318e-19)
(-0.165866 0.0240151 -4.60057e-20)
(-0.00181533 0.00726553 -9.51071e-20)
(-0.00718354 0.0173134 -1.5456e-20)
(-0.0154936 0.0241308 -1.03527e-19)
(-0.0249528 0.0286248 -4.58801e-20)
(-0.0350595 0.0313883 1.7791e-19)
(-0.0453632 0.0328963 -1.27017e-20)
(-0.0555473 0.0335142 -1.58097e-19)
(-0.065408 0.0335192 1.38034e-19)
(-0.0748149 0.033118 -6.60022e-20)
(-0.0836898 0.0324599 2.40984e-19)
(-0.0919887 0.0316496 -1.27121e-19)
(-0.0996892 0.030757 -2.23661e-19)
(-0.106781 0.0298271 4.40179e-20)
(-0.113261 0.0288876 -1.62751e-20)
(-0.119126 0.0279561 -1.01067e-19)
(-0.124373 0.027046 -1.15795e-19)
(-0.128995 0.0261729 -8.88885e-20)
(-0.132985 0.0253604 8.72536e-20)
(-0.136333 0.0246462 7.31614e-22)
(-0.13903 0.0240897 5.04922e-20)
(-0.141073 0.0237792 -1.29807e-19)
(-0.142495 0.0238366 6.40894e-20)
(-0.143379 0.0244072 1.26118e-19)
(-0.143616 0.0256495 2.1187e-19)
(-0.143327 0.0278277 -1.04966e-19)
(-0.00216155 0.00840069 2.8549e-19)
(-0.00787942 0.0200602 -7.80928e-20)
(-0.0162162 0.0280013 -9.69971e-20)
(-0.0255107 0.0332515 -4.66402e-20)
(-0.0353067 0.0364896 -1.3882e-19)
(-0.0451881 0.0382618 7.19666e-20)
(-0.0548608 0.0389909 1.15957e-19)
(-0.0641343 0.0389987 -1.26693e-19)
(-0.0728854 0.038526 9.29634e-20)
(-0.0810388 0.0377474 -1.87601e-19)
(-0.0885503 0.0367856 -2.13952e-20)
(-0.0953953 0.0357229 -8.28033e-20)
(-0.10156 0.0346119 -1.75552e-19)
(-0.107035 0.0334847 -2.01165e-19)
(-0.111811 0.0323609 -6.39716e-20)
(-0.115878 0.031254 1.2473e-19)
(-0.119221 0.0301785 -7.53813e-20)
(-0.12182 0.0291566 -1.86567e-19)
(-0.123652 0.0282251 -1.98767e-19)
(-0.124686 0.0274451 1.97318e-19)
(-0.124895 0.0269126 -1.71246e-19)
(-0.124278 0.0267685 -4.20882e-20)
(-0.122903 0.0271988 -2.66779e-19)
(-0.120587 0.0284312 -4.19663e-19)
(-0.117275 0.0308067 1.63911e-19)
(-0.00254954 0.00945061 -3.01613e-20)
(-0.00866403 0.0226205 2.21374e-19)
(-0.0170361 0.0316281 1.20491e-19)
(-0.0261479 0.0376028 8.33668e-20)
(-0.0355932 0.0412991 1.90591e-19)
(-0.0449943 0.0433283 -1.15498e-19)
(-0.0540826 0.044166 -1.03767e-20)
(-0.0626827 0.0441761 -1.76529e-19)
(-0.0706805 0.0436317 -1.87544e-19)
(-0.0780041 0.042732 1.19608e-19)
(-0.0846098 0.041617 1.81863e-19)
(-0.0904709 0.0403811 -1.58719e-19)
(-0.0955693 0.0390848 -1.01686e-19)
(-0.0998909 0.0377643 5.55368e-19)
(-0.103421 0.0364407 2.49802e-20)
(-0.106141 0.0351274 6.32526e-20)
(-0.108028 0.0338365 5.24074e-20)
(-0.109052 0.0325867 6.75919e-20)
(-0.109175 0.0314108 -8.94298e-20)
(-0.108351 0.030367 2.9185e-20)
(-0.106525 0.0295524 -4.75907e-20)
(-0.103663 0.0291209 6.92698e-20)
(-0.0998163 0.0292983 1.26952e-19)
(-0.0947429 0.0303997 7.00649e-19)
(-0.0880464 0.0328677 -1.37192e-19)
(-0.00297302 0.0104079 -2.46459e-19)
(-0.00952642 0.024976 -1.61408e-19)
(-0.0179436 0.0349852 -2.61458e-19)
(-0.0268582 0.0416467 8.62687e-20)
(-0.0359174 0.0457809 -3.20264e-19)
(-0.0447849 0.048057 2.46837e-20)
(-0.0532201 0.0489988 2.60776e-19)
(-0.0610652 0.0490095 -6.18565e-20)
(-0.068216 0.0483927 2.57054e-20)
(-0.0746056 0.0473708 -2.19317e-19)
(-0.0801911 0.0461009 -1.33458e-19)
(-0.0849439 0.0446891 2.93342e-19)
(-0.0888422 0.0432034 1.66071e-19)
(-0.0918667 0.0416846 -2.69369e-19)
(-0.0939967 0.0401553 7.14923e-20)
(-0.0952073 0.038628 -1.77891e-19)
(-0.0954677 0.0371121 -4.00656e-20)
(-0.0947388 0.035621 -1.46197e-19)
(-0.092972 0.0341808 3.34735e-19)
(-0.0901068 0.0328416 5.20912e-20)
(-0.0860654 0.0316947 -1.31252e-19)
(-0.0807782 0.0308966 2.70183e-19)
(-0.0742788 0.0307041 -1.98411e-19)
(-0.0663155 0.0315419 -4.69952e-19)
(-0.0558787 0.0339945 2.58293e-20)
(-0.00342553 0.011267 1.01258e-19)
(-0.0104551 0.0271124 1.78922e-20)
(-0.0189283 0.0380507 1.99862e-19)
(-0.0276348 0.0453554 9.36457e-20)
(-0.0362766 0.0499024 3.36072e-19)
(-0.0445617 0.0524118 -2.85199e-19)
(-0.0522798 0.0534511 -8.80545e-20)
(-0.0592922 0.0534591 2.09325e-19)
(-0.0655064 0.0527682 -2.24519e-19)
(-0.0708612 0.0516227 -2.52598e-20)
(-0.0753152 0.0501961 -6.01786e-20)
(-0.0788382 0.0486058 -1.10332e-19)
(-0.081405 0.0469276 1.40701e-19)
(-0.0829913 0.0452067 -1.13126e-19)
(-0.0835703 0.0434673 -5.91909e-20)
(-0.0831107 0.0417214 3.02262e-20)
(-0.0815748 0.0399751 8.24979e-20)
(-0.0789159 0.0382361 2.98145e-19)
(-0.0750764 0.0365216 -2.77261e-19)
(-0.0699851 0.0348696 -6.08673e-20)
(-0.0635481 0.0333577 3.50527e-19)
(-0.0556625 0.0321325 2.49609e-19)
(-0.0463308 0.0314601 -1.89393e-19)
(-0.0353864 0.0318938 -2.53563e-19)
(-0.0209207 0.0343393 1.96008e-19)
(-0.00390067 0.0120248 -8.95175e-20)
(-0.0114384 0.0290192 4.59474e-20)
(-0.0199794 0.0408071 -5.85346e-21)
(-0.0284696 0.0487052 1.48952e-19)
(-0.0366669 0.0536351 -3.63039e-19)
(-0.0443252 0.0563605 5.95631e-19)
(-0.0512659 0.0574876 1.57992e-19)
(-0.0573717 0.0574878 4.58228e-21)
(-0.0625625 0.0567199 4.09629e-19)
(-0.0667841 0.0554488 6.64043e-20)
(-0.0699972 0.0538635 1.32463e-19)
(-0.0721703 0.0520927 -4.08577e-19)
(-0.0732747 0.0502196 -1.43153e-19)
(-0.0732808 0.0482941 4.78813e-19)
(-0.0721558 0.0463427 -6.79822e-20)
(-0.0698617 0.0443768 7.91589e-20)
(-0.0663538 0.0424 -2.33813e-20)
(-0.0615786 0.0404142 -6.63531e-19)
(-0.0554711 0.038427 2.03687e-19)
(-0.0479524 0.0364619 1.55209e-19)
(-0.0389193 0.034577 1.03699e-19)
(-0.0282459 0.0328983 -3.45195e-19)
(-0.0158778 0.0316814 -6.19319e-20)
(-0.00175385 0.0315046 2.51798e-19)
(0.0168546 0.0338992 -2.12184e-19)
(-0.00439229 0.01268 1.15244e-19)
(-0.0124648 0.0306902 8.62935e-20)
(-0.0210857 0.0432418 -2.97327e-19)
(-0.029354 0.0516774 -1.91263e-19)
(-0.037083 0.0569547 -1.89184e-20)
(-0.0440732 0.0598743 -2.37201e-19)
(-0.0501798 0.0610762 -2.92094e-19)
(-0.0553073 0.0610611 -1.3494e-20)
(-0.0593901 0.0602119 -4.53451e-19)
(-0.0623812 0.0588126 3.65851e-20)
(-0.064244 0.0570667 1.71517e-19)
(-0.0649457 0.0551137 3.53445e-19)
(-0.0644538 0.0530446 -1.05665e-19)
(-0.0627332 0.050914 -3.3341e-19)
(-0.059744 0.0487511 -1.76366e-19)
(-0.0554409 0.0465678 -2.41069e-19)
(-0.0497715 0.0443658 -3.49141e-19)
(-0.0426746 0.0421422 6.67414e-19)
(-0.0340783 0.0398961 -8.04157e-20)
(-0.0238975 0.0376364 -4.25484e-19)
(-0.0120219 0.0353985 8.24459e-20)
(0.00168749 0.0332788 8.49385e-20)
(0.017305 0.0314786 1.60852e-20)
(0.0348212 0.0305835 1.04415e-20)
(0.0580617 0.0326698 1.83841e-19)
(-0.00489469 0.0132335 3.86471e-20)
(-0.0135232 0.0321231 6.50393e-20)
(-0.0222357 0.0453468 2.32979e-19)
(-0.030278 0.0542577 4.35783e-19)
(-0.0375173 0.0598413 2.8551e-19)
(-0.0438008 0.0629284 6.21205e-20)
(-0.0490181 0.0641885 1.3866e-19)
(-0.0530973 0.064148 4.49427e-20)
(-0.0559874 0.0632116 3.64516e-19)
(-0.0576496 0.0616806 -1.83412e-20)
(-0.0580499 0.0597723 1.09356e-19)
(-0.0571542 0.0576366 2.61844e-19)
(-0.0549254 0.0553718 -1.27925e-19)
(-0.0513215 0.0530378 4.54856e-19)
(-0.0462948 0.0506672 2.73217e-19)
(-0.0397906 0.0482732 2.85333e-19)
(-0.0317469 0.045857 6.92821e-19)
(-0.0220933 0.0434129 -2.96137e-19)
(-0.0107492 0.0409334 -3.8571e-19)
(0.00237707 0.0384151 2.21147e-20)
(0.0174014 0.0358712 4.10644e-19)
(0.0344603 0.0333618 -3.02222e-19)
(0.0536942 0.0310042 -1.30771e-19)
(0.074761 0.0294133 -1.08353e-20)
(0.103337 0.0309197 -1.84125e-19)
(-0.00540279 0.013688 -1.67822e-19)
(-0.014603 0.0333194 -3.32902e-19)
(-0.0234179 0.0471186 5.1595e-20)
(-0.0312304 0.0564366 -4.00327e-19)
(-0.0379594 0.0622795 5.10862e-20)
(-0.0434985 0.0655026 1.1496e-20)
(-0.047772 0.0668003 -5.59116e-19)
(-0.050732 0.0667215 1.13438e-19)
(-0.0523428 0.0656902 2.62469e-19)
(-0.0525739 0.0640236 -2.31929e-20)
(-0.0513934 0.0619513 -2.7311e-19)
(-0.0487653 0.0596333 -1.39828e-19)
(-0.0446468 0.0571752 1.6092e-19)
(-0.0389874 0.0546427 2.8728e-20)
(-0.0317289 0.052072 2.89158e-19)
(-0.0228052 0.0494792 -4.1755e-19)
(-0.0121416 0.0468665 -3.44886e-19)
(0.000344611 0.0442274 -7.26935e-20)
(0.0147456 0.0415512 7.39209e-20)
(0.0311615 0.0388264 -6.89711e-20)
(0.0497173 0.0360484 -2.93986e-19)
(0.0705222 0.033247 1.79797e-19)
(0.0938712 0.030445 -2.37886e-19)
(0.118706 0.0281876 2.70501e-19)
(0.153498 0.0290348 2.78074e-19)
(-0.00591231 0.014048 3.56009e-20)
(-0.0156946 0.0342839 5.93089e-19)
(-0.0246204 0.048558 -3.87687e-19)
(-0.0321985 0.0582094 -2.06707e-19)
(-0.0383961 0.0642588 -2.54072e-19)
(-0.043152 0.0675812 -2.2392e-19)
(-0.0464253 0.0688918 3.63434e-19)
(-0.048192 0.068759 -2.54748e-20)
(-0.0484319 0.0676235 -1.59275e-19)
(-0.0471221 0.0658167 2.13717e-19)
(-0.0442324 0.0635798 2.64862e-20)
(-0.039723 0.0610817 2.57899e-20)
(-0.0335436 0.0584358 -6.92991e-20)
(-0.0256328 0.0557135 -4.29924e-19)
(-0.0159192 0.0529559 -3.62356e-19)
(-0.00432152 0.0501827 2.86731e-19)
(0.0092508 0.047399 -2.77891e-19)
(0.0248968 0.0446001 3.39781e-20)
(0.0427238 0.0417753 2.46664e-19)
(0.0628422 0.0389104 -1.05125e-19)
(0.0853952 0.0359903 1.7734e-19)
(0.11042 0.0330262 -8.05893e-20)
(0.138522 0.0299601 -1.34388e-19)
(0.167375 0.0271477 -2.68022e-19)
(0.209483 0.0274029 -5.86263e-19)
(-0.00641981 0.0143192 -3.0696e-19)
(-0.0167892 0.0350247 -1.54808e-19)
(-0.0258313 0.0496699 4.91182e-19)
(-0.0331673 0.0595758 1.81881e-19)
(-0.0388096 0.0657734 8.50486e-20)
(-0.0427404 0.0691535 1.35031e-19)
(-0.0449526 0.0704484 1.54846e-19)
(-0.0454459 0.0702431 -4.1817e-19)
(-0.0442146 0.0689929 1.57242e-19)
(-0.0412425 0.0670414 -5.07618e-19)
(-0.0364994 0.0646403 2.97498e-20)
(-0.0299397 0.0619673 -3.35979e-19)
(-0.0215026 0.0591431 4.8249e-19)
(-0.0111128 0.0562454 1.15945e-19)
(0.0013179 0.0533211 -6.0576e-20)
(0.0158898 0.0503948 -7.55511e-20)
(0.0327132 0.0474761 3.07458e-19)
(0.0519066 0.0445647 -8.05123e-20)
(0.0735957 0.0416531 4.38711e-19)
(0.0978986 0.0387292 1.56709e-19)
(0.124994 0.035776 -2.39051e-19)
(0.154766 0.0327943 -2.13534e-19)
(0.18838 0.0297047 5.47179e-19)
(0.221479 0.0265187 -1.30722e-19)
(0.272176 0.0264191 7.08514e-19)
(-0.00692276 0.0145088 3.6682e-19)
(-0.0178788 0.0355524 7.20821e-20)
(-0.0270379 0.0504626 2.27326e-19)
(-0.0341196 0.0605398 3.10507e-19)
(-0.0391776 0.0668223 -9.00208e-22)
(-0.0422351 0.0702138 -3.09338e-19)
(-0.0433178 0.071461 -1.10856e-19)
(-0.0424474 0.0711626 1.87953e-19)
(-0.0396318 0.0697861 2.45975e-20)
(-0.0348591 0.0676863 4.01971e-19)
(-0.0280968 0.0651239 2.85414e-19)
(-0.0192903 0.0622851 3.33024e-19)
(-0.00836511 0.0592979 -2.34875e-19)
(0.00477196 0.0562472 4.49128e-19)
(0.0202301 0.0531861 -1.59864e-19)
(0.038132 0.0501459 1.53272e-19)
(0.0586106 0.0471424 3.83292e-19)
(0.0818052 0.0441816 -3.52129e-19)
(0.107861 0.0412625 -1.35062e-19)
(0.136892 0.0383778 -9.4005e-20)
(0.169137 0.0355205 -6.45507e-20)
(0.204197 0.0326667 3.26331e-19)
(0.244146 0.029845 -3.67033e-19)
(0.281622 0.0264866 4.61606e-19)
(0.3422 0.0264559 9.71695e-20)
(-0.00741952 0.0146245 -2.82798e-20)
(-0.0189563 0.0358796 -3.14933e-20)
(-0.0282269 0.0509476 -5.86601e-19)
(-0.0350351 0.0611091 8.62835e-20)
(-0.0394716 0.0674092 1.0906e-19)
(-0.0415985 0.0707621 1.83144e-19)
(-0.0414715 0.0719266 4.8189e-20)
(-0.0391332 0.0715129 -2.2839e-19)
(-0.0346018 0.0699989 5.22029e-19)
(-0.0278675 0.0677488 -5.03749e-19)
(-0.0188916 0.0650318 -7.31693e-19)
(-0.00760698 0.0620421 -1.03171e-20)
(0.00607905 0.0589155 1.00046e-20)
(0.0222816 0.0557445 7.3056e-20)
(0.0411342 0.0525899 3.28079e-19)
(0.0627846 0.0494907 -1.21088e-19)
(0.0873889 0.046471 -5.22976e-19)
(0.115104 0.0435447 4.55812e-19)
(0.14609 0.04072 1.92245e-19)
(0.180435 0.0379939 -2.08105e-19)
(0.218465 0.035388 -3.5753e-19)
(0.259308 0.0327981 -3.26483e-19)
(0.306377 0.030576 -8.89512e-21)
(0.348208 0.0272148 7.7387e-19)
(0.419697 0.0278242 -8.59856e-19)
(-0.00790929 0.0146745 -1.36816e-19)
(-0.020015 0.0360201 -1.98903e-19)
(-0.0293837 0.0511388 3.16912e-19)
(-0.0358895 0.0612952 -6.53815e-19)
(-0.0396564 0.0675423 -1.10209e-19)
(-0.0407821 0.0708038 -1.83489e-19)
(-0.0393499 0.0718488 3.62654e-20)
(-0.0354199 0.0712972 -1.13543e-19)
(-0.0290175 0.0696359 -1.17225e-18)
(-0.0201311 0.0672368 3.22444e-19)
(-0.00871133 0.0643776 6.7902e-19)
(0.00532609 0.0612602 9.97765e-20)
(0.0220963 0.0580287 2.58947e-19)
(0.04174 0.0547841 -1.22061e-19)
(0.0644174 0.0515962 -5.95537e-19)
(0.0903008 0.0485134 -4.42535e-19)
(0.119565 0.0455693 5.38163e-19)
(0.152376 0.042787 9.53527e-21)
(0.188894 0.0401864 -5.1422e-19)
(0.229142 0.037762 3.76095e-19)
(0.273556 0.0355964 -4.24507e-19)
(0.320572 0.0333932 -9.60064e-20)
(0.375345 0.0321256 -1.40085e-19)
(0.421327 0.0288758 -4.29756e-19)
(0.504136 0.0307442 -3.84648e-19)
(-0.00839192 0.0146674 1.25126e-19)
(-0.0210485 0.0359887 3.94946e-19)
(-0.030492 0.0510518 -4.45198e-19)
(-0.0366541 0.0611126 5.39909e-19)
(-0.0396887 0.0672341 5.32399e-19)
(-0.0397254 0.07035 2.41846e-19)
(-0.036872 0.0712384 -2.55669e-19)
(-0.0312017 0.0705276 3.33439e-19)
(-0.0227431 0.0687119 7.8098e-19)
(-0.0114775 0.0661709 -4.10353e-19)
(0.00265993 0.0631897 9.81769e-20)
(0.0197756 0.0599788 -4.87568e-19)
(0.0400108 0.0566912 -8.32988e-20)
(0.0635343 0.0534375 -6.22493e-19)
(0.0905316 0.050298 6.7267e-19)
(0.121194 0.0473316 -7.49373e-20)
(0.155704 0.0445824 -1.13555e-19)
(0.194215 0.0420831 -1.06861e-19)
(0.236862 0.0398667 2.06353e-19)
(0.283547 0.0379102 -3.5035e-19)
(0.334817 0.0364061 2.92006e-19)
(0.388217 0.0347058 6.72348e-20)
(0.45087 0.0347313 -7.43427e-20)
(0.500634 0.0316686 -2.8831e-19)
(0.594159 0.0353294 3.40391e-19)
(-0.00886779 0.0146112 2.9881e-20)
(-0.02205 0.0358 -5.66847e-19)
(-0.0315329 0.0507034 5.96064e-20)
(-0.0372948 0.0605783 -4.68229e-19)
(-0.039516 0.0665015 -2.44406e-19)
(-0.0383546 0.0694176 1.9922e-19)
(-0.033938 0.0701136 -7.77135e-20)
(-0.0263484 0.0692252 -7.61681e-20)
(-0.0156116 0.0672536 -2.89834e-19)
(-0.00169634 0.0645855 2.98692e-19)
(0.0154831 0.0615138 -7.82398e-19)
(0.0360595 0.058258 4.04794e-19)
(0.0602027 0.0549811 6.7148e-19)
(0.0881076 0.0518048 2.00611e-20)
(0.119979 0.0488208 1.60341e-19)
(0.156013 0.0460992 2.59755e-19)
(0.196377 0.0436948 1.00949e-19)
(0.241177 0.0416474 2.5538e-19)
(0.290481 0.0400041 -1.93933e-19)
(0.344002 0.0387004 9.52547e-19)
(0.40235 0.0380927 1.07116e-18)
(0.462088 0.0370191 7.23756e-19)
(0.532168 0.0385943 4.25677e-19)
(0.585204 0.0357976 6.94157e-19)
(0.687539 0.041569 -2.69507e-19)
(-0.00933747 0.0145133 4.03688e-20)
(-0.0230122 0.0354682 3.03787e-19)
(-0.0324844 0.0501109 5.93086e-19)
(-0.037771 0.0597113 1.17914e-19)
(-0.0390757 0.0653649 3.96568e-19)
(-0.0365807 0.0680292 -6.08709e-19)
(-0.0304284 0.0685005 3.7351e-19)
(-0.0207035 0.0674217 -1.28659e-19)
(-0.00742349 0.0653006 1.00194e-18)
(0.0094619 0.0625311 -6.62986e-19)
(0.0300639 0.0594147 1.76974e-19)
(0.0545442 0.0561806 -3.20225e-19)
(0.0830998 0.0530034 -8.86932e-19)
(0.115944 0.0500167 -5.68844e-19)
(0.153287 0.047324 -2.38359e-19)
(0.195303 0.0450062 8.32766e-20)
(0.242106 0.0431266 9.57074e-20)
(0.293704 0.0417267 -1.37698e-19)
(0.350035 0.0408654 -2.64631e-19)
(0.410554 0.040409 -8.61134e-19)
(0.475815 0.0409095 -6.85724e-19)
(0.5415 0.0406069 -4.7176e-19)
(0.617771 0.0438291 -2.59888e-19)
(0.673422 0.0414116 6.06945e-19)
(0.781301 0.0493067 -7.53424e-19)
(-0.0098015 0.0143804 2.62353e-19)
(-0.0239262 0.0350063 1.13951e-19)
(-0.0333208 0.0492916 -1.87638e-19)
(-0.0380353 0.0585321 -1.6095e-19)
(-0.0382941 0.0638484 -2.51366e-19)
(-0.0342992 0.0662135 2.38879e-19)
(-0.026202 0.0664338 -7.18632e-21)
(-0.0140838 0.0651599 3.19815e-19)
(0.00205359 0.0629066 -6.44717e-19)
(0.0222844 0.0600757 7.00464e-19)
(0.0467487 0.0569782 9.07705e-20)
(0.075636 0.0538547 1.02918e-20)
(0.109163 0.0508917 5.43234e-19)
(0.147546 0.0482353 3.70131e-19)
(0.19097 0.046 1.20777e-19)
(0.239549 0.0442746 2.21077e-19)
(0.29329 0.0431252 -4.94774e-19)
(0.352031 0.0425856 1.11561e-19)
(0.415495 0.0427178 -6.63868e-19)
(0.482828 0.0432985 1.00519e-18)
(0.554336 0.0450488 1.25204e-20)
(0.625137 0.0456748 -1.9626e-20)
(0.705559 0.05043 -2.1356e-19)
(0.762957 0.0485293 -7.29381e-19)
(0.872038 0.0582269 -4.03493e-19)
(-0.01026 0.0142177 -6.14608e-19)
(-0.0247809 0.0344254 -1.17512e-19)
(-0.0340117 0.0482621 5.70393e-20)
(-0.0380321 0.0570625 1.80301e-19)
(-0.0370855 0.0619793 1.25148e-19)
(-0.0313888 0.0640045 -1.04662e-19)
(-0.0210965 0.0639564 -6.11496e-20)
(-0.00627911 0.0624939 5.15983e-19)
(0.0130829 0.06014 -1.26757e-19)
(0.037092 0.0573056 -1.15249e-19)
(0.0659167 0.0543125 2.13893e-19)
(0.0997671 0.0514135 1.68698e-19)
(0.138863 0.0488076 -2.138e-19)
(0.183395 0.0466521 -7.71755e-19)
(0.233481 0.0450691 1.35951e-19)
(0.289114 0.0441487 -1.68138e-20)
(0.350118 0.0439501 -8.73159e-20)
(0.416084 0.0444854 1.28431e-19)
(0.486419 0.045799 1.04729e-18)
(0.559931 0.0475786 -2.11263e-19)
(0.636457 0.0506101 -4.363e-19)
(0.711027 0.0522974 -5.85246e-20)
(0.792924 0.0582569 5.15459e-19)
(0.85091 0.0569859 4.3645e-19)
(0.956365 0.0678679 1.19421e-19)
(-0.0107123 0.014029 2.40249e-19)
(-0.0255627 0.0337347 -3.02119e-19)
(-0.0345213 0.0470378 2.16943e-20)
(-0.0376974 0.0553245 1.90935e-19)
(-0.0353519 0.0597877 3.41795e-19)
(-0.0277121 0.0614421 1.64988e-19)
(-0.0149285 0.0611196 -1.89324e-19)
(0.00294525 0.0594896 5.77971e-20)
(0.025955 0.0570845 3.72722e-19)
(0.054232 0.0543259 -4.54372e-19)
(0.0879671 0.0515477 1.25328e-19)
(0.127375 0.0490151 -4.25069e-19)
(0.172651 0.0469386 6.06736e-19)
(0.223913 0.0454827 3.63529e-19)
(0.28115 0.0447702 -2.48697e-19)
(0.344159 0.0448811 -2.51867e-20)
(0.41249 0.0458516 -3.05897e-19)
(0.485399 0.0476546 2.63417e-19)
(0.561888 0.0502848 1.40951e-19)
(0.640416 0.0533629 2.34555e-19)
(0.7202 0.0575782 -8.77241e-19)
(0.796663 0.060375 6.82515e-19)
(0.877036 0.0670382 -1.0028e-18)
(0.934146 0.0664305 4.96257e-19)
(1.03141 0.0776734 2.86897e-19)
(-0.0111568 0.0138166 -2.77779e-19)
(-0.0262545 0.0329412 6.49564e-19)
(-0.0348075 0.0456326 -1.42805e-19)
(-0.0369581 0.0533406 -7.05897e-19)
(-0.032983 0.0573064 3.126e-19)
(-0.0231151 0.0585711 -3.14039e-19)
(-0.00749523 0.0579834 -2.63197e-19)
(0.0138456 0.0562247 -2.93149e-19)
(0.0409812 0.0538392 3.38855e-19)
(0.0740671 0.0512604 4.34689e-19)
(0.113302 0.0488351 -3.69049e-19)
(0.158877 0.0468398 3.10026e-19)
(0.210916 0.0454926 3.45817e-20)
(0.269404 0.0449581 -1.46464e-19)
(0.334121 0.0453469 4.40448e-19)
(0.404571 0.0467121 -6.61485e-19)
(0.47994 0.049045 3.90803e-19)
(0.559065 0.0522581 -2.79174e-19)
(0.640486 0.0562581 -9.82398e-20)
(0.722339 0.0606333 1.06376e-18)
(0.803197 0.0658123 1.10814e-18)
(0.879249 0.0696302 2.16215e-19)
(0.955169 0.076391 -5.23533e-19)
(1.00976 0.0763803 -3.05286e-19)
(1.09519 0.0870751 1.39412e-19)
(-0.0115902 0.0135812 3.38176e-19)
(-0.0268357 0.0320492 -6.85196e-19)
(-0.034822 0.0440582 2.53755e-19)
(-0.0357318 0.0511332 5.38478e-19)
(-0.0298561 0.0545703 -4.5208e-19)
(-0.0174293 0.0554417 3.51078e-19)
(0.00142275 0.0546156 -4.30483e-19)
(0.0266943 0.0527883 3.87472e-20)
(0.0584846 0.0505173 -2.24316e-19)
(0.0969605 0.0482497 -2.69196e-19)
(0.142302 0.0463439 6.52358e-20)
(0.194634 0.0450847 -5.58565e-19)
(0.253945 0.04469 3.92211e-19)
(0.320005 0.0453112 -1.05794e-20)
(0.392286 0.0470289 -8.29797e-20)
(0.469906 0.0498458 -3.15378e-20)
(0.551595 0.0536815 5.35506e-20)
(0.635724 0.0583661 7.75048e-19)
(0.720369 0.0636854 -1.17589e-18)
(0.803407 0.069225 5.29554e-19)
(0.882925 0.0750508 -1.19876e-18)
(0.956062 0.079648 -4.20683e-20)
(1.02504 0.0858656 5.26164e-20)
(1.07553 0.0863258 3.82757e-19)
(1.1468 0.0955803 2.84877e-19)
(-0.0120075 0.0133217 1.6056e-19)
(-0.0272804 0.03106 1.3289e-19)
(-0.0345096 0.0423253 -7.39883e-19)
(-0.0339268 0.0487246 -7.15019e-20)
(-0.0258371 0.0516167 -2.12827e-19)
(-0.0104731 0.0521089 -8.34461e-20)
(0.0120576 0.0510921 1.26704e-18)
(0.0417733 0.0492801 -4.61893e-19)
(0.0787884 0.0472457 -9.1271e-20)
(0.123258 0.045449 2.94508e-19)
(0.175302 0.0442577 -7.93718e-20)
(0.234917 0.043957 2.05797e-19)
(0.301873 0.0447518 -1.44807e-19)
(0.375626 0.0467614 -1.08379e-20)
(0.455239 0.0500109 -2.57488e-19)
(0.539349 0.0544249 8.55587e-20)
(0.626178 0.0598229 2.07347e-19)
(0.713629 0.0659333 -2.28741e-19)
(0.799397 0.0724068 3.74345e-19)
(0.881216 0.0788399 -4.00929e-19)
(0.956989 0.0849382 2.34983e-19)
(1.02481 0.0899408 3.43579e-19)
(1.08508 0.0950217 2.92142e-20)
(1.1302 0.0958627 -6.3685e-20)
(1.1863 0.10282 -4.97209e-19)
(-0.0124017 0.0130353 -6.17795e-20)
(-0.0275582 0.0299729 2.06923e-19)
(-0.0338078 0.0404426 5.26534e-19)
(-0.0314426 0.0461372 1.10229e-19)
(-0.0207821 0.0484848 7.17623e-20)
(-0.002055 0.0486321 -1.38404e-20)
(0.0246488 0.047496 -5.967e-19)
(0.0593643 0.0458099 -1.34142e-19)
(0.102201 0.0441626 1.49126e-19)
(0.153266 0.0430252 -8.77914e-20)
(0.212559 0.042768 7.73651e-19)
(0.279866 0.0436644 -7.81222e-20)
(0.354641 0.0458865 3.74062e-19)
(0.435915 0.0494953 6.44782e-19)
(0.522244 0.0544304 -3.57491e-19)
(0.611724 0.0605078 1.40549e-19)
(0.702068 0.0674235 3.46152e-19)
(0.790781 0.0747927 -1.1728e-19)
(0.875343 0.0821439 -8.92051e-19)
(0.953524 0.0890857 1.87484e-20)
(1.02341 0.0950719 3.40078e-19)
(1.08392 0.100017 -3.12409e-19)
(1.13464 0.103534 3.47097e-19)
(1.17346 0.104786 -2.88737e-19)
(1.21446 0.108489 -3.34543e-19)
(-0.0127624 0.0127172 -2.74564e-19)
(-0.0276343 0.028786 1.07505e-19)
(-0.0326473 0.0384177 -5.48658e-20)
(-0.0281705 0.0433932 -4.3971e-19)
(-0.0145383 0.0452159 3.39335e-19)
(0.00802336 0.0450754 1.28867e-19)
(0.0394373 0.0439172 -3.34796e-19)
(0.0797393 0.0424959 4.433e-19)
(0.129002 0.0414151 -2.20814e-19)
(0.187229 0.0411518 -4.07754e-19)
(0.254222 0.0420672 -1.16091e-18)
(0.329457 0.0444036 4.44918e-19)
(0.411957 0.0482738 -8.06207e-19)
(0.500225 0.0536483 -3.07863e-20)
(0.592241 0.0603479 -9.05485e-20)
(0.685546 0.0680532 1.14846e-19)
(0.777415 0.0763248 -2.73585e-19)
(0.865113 0.0846686 -1.11902e-19)
(0.946132 0.0925298 3.81083e-19)
(1.01851 0.0995344 -4.32821e-19)
(1.08084 0.105054 -5.07744e-19)
(1.13274 0.109448 7.33203e-19)
(1.17392 0.111294 -4.84002e-19)
(1.20576 0.112969 -5.38397e-20)
(1.23254 0.112184 -1.20242e-19)
(-0.0130776 0.0123634 -1.59736e-19)
(-0.0274669 0.0274951 -1.92159e-19)
(-0.0309523 0.036257 3.20186e-19)
(-0.0239944 0.0405156 2.2895e-20)
(-0.00694706 0.041854 -6.06194e-19)
(0.0199625 0.0415075 -8.73123e-19)
(0.0566575 0.040452 2.78485e-19)
(0.103148 0.0394635 -3.51562e-19)
(0.159422 0.0391564 3.36078e-19)
(0.225304 0.0400036 -3.21211e-19)
(0.300303 0.0423392 7.61704e-19)
(0.383467 0.0463479 -1.09737e-19)
(0.473278 0.0520494 3.66806e-19)
(0.567626 0.0592873 5.28534e-19)
(0.66389 0.0677332 -5.70106e-19)
(0.75912 0.0769163 -5.99728e-19)
(0.850306 0.086267 4.00585e-20)
(0.934699 0.0952081 1.29428e-19)
(1.01007 0.103158 -1.30874e-19)
(1.07496 0.109784 6.14212e-19)
(1.12867 0.114532 7.4877e-19)
(1.17146 0.117947 -8.45626e-19)
(1.20384 0.118393 1.18816e-19)
(1.22816 0.119926 2.17516e-19)
(1.24218 0.113517 -3.24112e-19)
(-0.0133341 0.0119686 4.57386e-19)
(-0.0270095 0.0260946 3.13098e-19)
(-0.0286398 0.033967 -4.79501e-19)
(-0.0187924 0.0375289 3.17845e-19)
(0.00215388 0.038446 2.05732e-19)
(0.0339605 0.0380017 1.00515e-18)
(0.0765298 0.0372028 6.69583e-19)
(0.129805 0.0368438 -3.32059e-21)
(0.193624 0.0375422 -2.51441e-19)
(0.26754 0.0397506 7.01598e-19)
(0.350653 0.0437504 -7.47377e-19)
(0.441461 0.0496342 3.03802e-19)
(0.537808 0.0572895 2.34694e-19)
(0.636933 0.0663982 -7.29637e-19)
(0.735656 0.0764615 5.57084e-20)
(0.830682 0.0868585 8.47223e-19)
(0.918945 0.0969171 1.01768e-19)
(0.997952 0.106024 1.15908e-19)
(1.066 0.113635 5.40727e-19)
(1.12234 0.119504 -3.60423e-19)
(1.16703 0.123236 -6.75684e-19)
(1.20096 0.125429 5.54196e-19)
(1.22549 0.12483 -1.35756e-18)
(1.24207 0.124888 6.16286e-19)
(1.25252 0.118436 -1.84161e-19)
(-0.0135148 0.0115259 -5.09473e-19)
(-0.0262115 0.0245796 -5.60202e-19)
(-0.0256218 0.0315553 1.18645e-19)
(-0.0124379 0.0344594 1.73475e-19)
(0.0129273 0.0350427 -2.25383e-19)
(0.0502075 0.0346365 -9.84139e-19)
(0.0992512 0.034277 -2.75913e-19)
(0.159879 0.0347715 6.82095e-19)
(0.231689 0.0367264 9.96886e-21)
(0.313856 0.0405507 -3.23166e-19)
(0.40494 0.0464388 6.13704e-19)
(0.502782 0.0543502 -9.34584e-20)
(0.604523 0.0640003 1.05114e-18)
(0.706772 0.0748816 2.10057e-19)
(0.805924 0.0863211 -2.51657e-19)
(0.898559 0.0975715 -3.19038e-19)
(0.98183 0.107908 4.81771e-20)
(1.05376 0.116744 2.19812e-19)
(1.11338 0.123634 4.26446e-19)
(1.16073 0.128464 5.50118e-20)
(1.1966 0.131018 -5.78806e-20)
(1.22249 0.131975 -2.12997e-19)
(1.24005 0.130333 6.51897e-19)
(1.25098 0.129302 9.80371e-20)
(1.2574 0.122509 5.6174e-19)
(-0.0136005 0.0110294 -1.93607e-20)
(-0.0250171 0.0229463 1.93426e-19)
(-0.0218053 0.0290316 2.78865e-19)
(-0.00480174 0.0313373 -4.30003e-19)
(0.0255333 0.0316994 6.06681e-20)
(0.0688799 0.0314959 2.00043e-19)
(0.124986 0.0317872 -1.40339e-19)
(0.193474 0.0333824 -6.80352e-20)
(0.273599 0.0368565 1.32917e-19)
(0.364024 0.0425417 -3.29186e-19)
(0.462648 0.0505038 -5.81809e-19)
(0.566569 0.0605243 -3.00063e-19)
(0.672218 0.0721119 -2.18814e-19)
(0.775682 0.0845577 -6.70233e-19)
(0.873137 0.0970329 2.32609e-19)
(0.961318 0.108712 -9.26164e-22)
(1.03787 0.118883 -4.34437e-19)
(1.10156 0.12705 6.78913e-20)
(1.15225 0.132921 1.94734e-19)
(1.19076 0.136536 -1.32249e-22)
(1.21851 0.137862 5.80345e-20)
(1.23739 0.137638 5.47316e-19)
(1.24925 0.135083 -6.11926e-19)
(1.25576 0.133154 -6.77894e-19)
(1.25901 0.126114 -1.40306e-19)
(-0.0135698 0.0104734 5.99219e-19)
(-0.0233665 0.0211924 5.50074e-19)